<event>
 7    1  0.1400974E-009  0.4778729E+02  0.7816164E-02  0.1312668E+00
        -11   -1    0    0    0    0  0.00000000000E+00  0.00000000000E+00  0.45593999997E+02  0.45594000000E+02  0.51100000000E-03 0. -1.
         11   -1    0    0    0    0 -0.00000000000E+00 -0.00000000000E+00 -0.45593999997E+02  0.45594000000E+02  0.51100000000E-03 0.  1.
    9900012    2    1    2    0    0 -0.18019423099E+02  0.37090959416E+02 -0.13534504216E+02  0.47787289365E+02  0.20000083532E+02 0.  0.
        -12    1    1    2    0    0  0.18019423099E+02 -0.37090959416E+02  0.13534504216E+02  0.43400710635E+02  0.00000000000E+00 0.  1.
         11    1    3    3    0    0 -0.64932544745E+01  0.27580321631E+02 -0.14895092486E+02  0.32010939932E+02  0.51100000000E-03 0. -1.
        -11    1    3    3    0    0 -0.13349392826E+01  0.38154298283E+01  0.41666510765E+00  0.40636409457E+01  0.51100000000E-03 0.  1.
        -12    1    3    3    0    0 -0.10191229342E+02  0.56952079571E+01  0.94392316199E+00  0.11712708487E+02  0.00000000000E+00 0.  1.
</event>
<event>
 7    1  0.1400974E-009  0.4778727E+02  0.7816164E-02  0.1312668E+00
        -11   -1    0    0    0    0  0.00000000000E+00  0.00000000000E+00  0.45593999997E+02  0.45594000000E+02  0.51100000000E-03 0. -1.
         11   -1    0    0    0    0 -0.00000000000E+00 -0.00000000000E+00 -0.45593999997E+02  0.45594000000E+02  0.51100000000E-03 0.  1.
    9900012    2    1    2    0    0  0.25622957186E+02 -0.23568345325E+02  0.25915643276E+02  0.47787269560E+02  0.19999993232E+02 0.  0.
        -12    1    1    2    0    0 -0.25622957186E+02  0.23568345325E+02 -0.25915643276E+02  0.43400730440E+02  0.00000000000E+00 0.  1.
         11    1    3    3    0    0  0.84696444066E+01 -0.89203803441E+01  0.49563538124E+01  0.13261730853E+02  0.51100000000E-03 0. -1.
        -11    1    3    3    0    0  0.21190175960E+01 -0.83625150539E+01  0.14749504279E+02  0.17087122939E+02  0.51100000000E-03 0.  1.
        -12    1    3    3    0    0  0.15034295183E+02 -0.62854499266E+01  0.62097851854E+01  0.17438415768E+02  0.00000000000E+00 0.  1.
</event>
<event>
 7    1  0.1400974E-009  0.4778727E+02  0.7816164E-02  0.1312668E+00
        -11   -1    0    0    0    0  0.00000000000E+00  0.00000000000E+00  0.45593999997E+02  0.45594000000E+02  0.51100000000E-03 0.  1.
         11   -1    0    0    0    0 -0.00000000000E+00 -0.00000000000E+00 -0.45593999997E+02  0.45594000000E+02  0.51100000000E-03 0. -1.
    9900012    2    1    2    0    0  0.28728526497E+02 -0.77875613636E+01 -0.31585586333E+02  0.47787267164E+02  0.19999982309E+02 0.  0.
        -12    1    1    2    0    0 -0.28728526497E+02  0.77875613636E+01  0.31585586333E+02  0.43400732836E+02  0.00000000000E+00 0.  1.
         11    1    3    3    0    0  0.13952951976E+02 -0.12808635919E+01 -0.12492217267E+02  0.18771813256E+02  0.51100000000E-03 0. -1.
        -11    1    3    3    0    0  0.69176185383E+01 -0.73312405770E+01 -0.21300455932E+01  0.10302311834E+02  0.51100000000E-03 0.  1.
        -12    1    3    3    0    0  0.78579559822E+01  0.82454280536E+00 -0.16963323473E+02  0.18713142074E+02  0.00000000000E+00 0.  1.
</event>
<event>
 7    1  0.1400974E-009  0.4778727E+02  0.7816164E-02  0.1312668E+00
        -11   -1    0    0    0    0  0.00000000000E+00  0.00000000000E+00  0.45593999997E+02  0.45594000000E+02  0.51100000000E-03 0. -1.
         11   -1    0    0    0    0 -0.00000000000E+00 -0.00000000000E+00 -0.45593999997E+02  0.45594000000E+02  0.51100000000E-03 0.  1.
    9900012    2    1    2    0    0 -0.31335439375E+02  0.14856467584E+02  0.26095962236E+02  0.47787266885E+02  0.19999981035E+02 0.  0.
        -12    1    1    2    0    0  0.31335439375E+02 -0.14856467584E+02 -0.26095962236E+02  0.43400733115E+02  0.00000000000E+00 0.  1.
         11    1    3    3    0    0 -0.61587567846E+01  0.61475420600E+01  0.16168239176E+02  0.18361223185E+02  0.51100000000E-03 0. -1.
        -11    1    3    3    0    0 -0.10001237474E+02  0.74395780658E+01  0.41283195497E+01  0.13130692875E+02  0.51100000000E-03 0.  1.
        -12    1    3    3    0    0 -0.15175445117E+02  0.12693474578E+01  0.57994035103E+01  0.16295350826E+02  0.00000000000E+00 0.  1.
</event>
<event>
 7    1  0.1400974E-009  0.4778727E+02  0.7816164E-02  0.1312668E+00
        -11   -1    0    0    0    0  0.00000000000E+00  0.00000000000E+00  0.45593999997E+02  0.45594000000E+02  0.51100000000E-03 0.  1.
         11   -1    0    0    0    0 -0.00000000000E+00 -0.00000000000E+00 -0.45593999997E+02  0.45594000000E+02  0.51100000000E-03 0. -1.
    9900012    2    1    2    0    0 -0.57096613048E+01  0.15533107808E+02 -0.40121634307E+02  0.47787271782E+02  0.20000003362E+02 0.  0.
        -12    1    1    2    0    0  0.57096613048E+01 -0.15533107808E+02  0.40121634307E+02  0.43400728218E+02  0.00000000000E+00 0.  1.
         11    1    3    3    0    0 -0.55304814483E+00  0.10548575283E+02 -0.16223986000E+02  0.19359649397E+02  0.51100000000E-03 0. -1.
        -11    1    3    3    0    0 -0.37078685232E+00  0.53638141347E+00  0.17988942034E+01  0.19134284744E+01  0.51100000000E-03 0.  1.
        -12    1    3    3    0    0 -0.47858263077E+01  0.44481511113E+01 -0.25696542510E+02  0.26514193911E+02  0.00000000000E+00 0.  1.
</event>
<event>
 7    1  0.1400974E-009  0.4778728E+02  0.7816164E-02  0.1312668E+00
        -11   -1    0    0    0    0  0.00000000000E+00  0.00000000000E+00  0.45593999997E+02  0.45594000000E+02  0.51100000000E-03 0. -1.
         11   -1    0    0    0    0 -0.00000000000E+00 -0.00000000000E+00 -0.45593999997E+02  0.45594000000E+02  0.51100000000E-03 0.  1.
    9900012    2    1    2    0    0 -0.54503734615E+01 -0.41372053377E+02  0.11927675573E+02  0.47787276319E+02  0.20000024047E+02 0.  0.
        -12    1    1    2    0    0  0.54503734615E+01  0.41372053377E+02 -0.11927675573E+02  0.43400723681E+02  0.00000000000E+00 0.  1.
         11    1    3    3    0    0 -0.46711026703E+01 -0.25794114983E+02  0.68582337266E-01  0.26213742040E+02  0.51100000000E-03 0. -1.
        -11    1    3    3    0    0 -0.46031398960E+01 -0.11529267308E+02  0.75258034085E+01  0.14517252452E+02  0.51100000000E-03 0.  1.
        -12    1    3    3    0    0  0.38238691049E+01 -0.40486710858E+01  0.43332898272E+01  0.70562818268E+01  0.00000000000E+00 0.  1.
</event>
<event>
 7    1  0.1400974E-009  0.4778721E+02  0.7816164E-02  0.1312668E+00
        -11   -1    0    0    0    0  0.00000000000E+00  0.00000000000E+00  0.45593999997E+02  0.45594000000E+02  0.51100000000E-03 0.  1.
         11   -1    0    0    0    0 -0.00000000000E+00 -0.00000000000E+00 -0.45593999997E+02  0.45594000000E+02  0.51100000000E-03 0. -1.
    9900012    2    1    2    0    0 -0.14460985372E+02  0.40862945683E+02 -0.21743925740E+01  0.47787211863E+02  0.19999730167E+02 0.  0.
        -12    1    1    2    0    0  0.14460985372E+02 -0.40862945683E+02  0.21743925740E+01  0.43400788137E+02  0.00000000000E+00 0.  1.
         11    1    3    3    0    0 -0.35515266551E+01 -0.67997926603E+00 -0.30991235885E+01  0.47623818266E+01  0.51100000000E-03 0. -1.
        -11    1    3    3    0    0 -0.52304391734E+01  0.15464344929E+02  0.28859934417E+00  0.16327484432E+02  0.51100000000E-03 0.  1.
         12    1    3    3    0    0 -0.56790195434E+01  0.26078580020E+02  0.63613167034E+00  0.26697345605E+02  0.00000000000E+00 0. -1.
</event>
<event>
 7    1  0.1400974E-009  0.4778727E+02  0.7816164E-02  0.1312668E+00
        -11   -1    0    0    0    0  0.00000000000E+00  0.00000000000E+00  0.45593999997E+02  0.45594000000E+02  0.51100000000E-03 0.  1.
         11   -1    0    0    0    0 -0.00000000000E+00 -0.00000000000E+00 -0.45593999997E+02  0.45594000000E+02  0.51100000000E-03 0. -1.
    9900012    2    1    2    0    0 -0.15936597967E+02 -0.37612765988E+02 -0.14660416877E+02  0.47787272551E+02  0.20000006871E+02 0.  0.
        -12    1    1    2    0    0  0.15936597967E+02  0.37612765988E+02  0.14660416877E+02  0.43400727449E+02  0.00000000000E+00 0.  1.
         11    1    3    3    0    0 -0.11666136942E+02 -0.93652544168E+01 -0.16944963885E+01  0.15055831419E+02  0.51100000000E-03 0. -1.
        -11    1    3    3    0    0 -0.23275737089E+01 -0.10158274665E+01 -0.76421841002E-01  0.25407371708E+01  0.51100000000E-03 0.  1.
        -12    1    3    3    0    0 -0.19428873164E+01 -0.27231684105E+02 -0.12889498647E+02  0.30190703962E+02  0.00000000000E+00 0.  1.
</event>
<event>
 7    1  0.1400974E-009  0.4778727E+02  0.7816164E-02  0.1312668E+00
        -11   -1    0    0    0    0  0.00000000000E+00  0.00000000000E+00  0.45593999997E+02  0.45594000000E+02  0.51100000000E-03 0.  1.
         11   -1    0    0    0    0 -0.00000000000E+00 -0.00000000000E+00 -0.45593999997E+02  0.45594000000E+02  0.51100000000E-03 0. -1.
    9900012    2    1    2    0    0 -0.54286833320E+01  0.64013835764E+01 -0.42581393017E+02  0.47787270217E+02  0.19999996229E+02 0.  0.
        -12    1    1    2    0    0  0.54286833320E+01 -0.64013835764E+01  0.42581393017E+02  0.43400729783E+02  0.00000000000E+00 0.  1.
         11    1    3    3    0    0 -0.10287306557E+02  0.11348355983E+00 -0.22924964444E+02  0.25127585434E+02  0.51100000000E-03 0. -1.
        -11    1    3    3    0    0  0.79297816780E+00  0.64026689018E+01 -0.77850238731E+01  0.10110864474E+02  0.51100000000E-03 0.  1.
        -12    1    3    3    0    0  0.40656450568E+01 -0.11476888521E+00 -0.11871404700E+02  0.12548820310E+02  0.00000000000E+00 0.  1.
</event>
<event>
 7    1  0.1400974E-009  0.4778727E+02  0.7816164E-02  0.1312668E+00
        -11   -1    0    0    0    0  0.00000000000E+00  0.00000000000E+00  0.45593999997E+02  0.45594000000E+02  0.51100000000E-03 0. -1.
         11   -1    0    0    0    0 -0.00000000000E+00 -0.00000000000E+00 -0.45593999997E+02  0.45594000000E+02  0.51100000000E-03 0.  1.
    9900012    2    1    2    0    0 -0.41074747214E+02 -0.10691984661E+02  0.90647684463E+01  0.47787269342E+02  0.19999992238E+02 0.  0.
        -12    1    1    2    0    0  0.41074747214E+02  0.10691984661E+02 -0.90647684463E+01  0.43400730658E+02  0.00000000000E+00 0.  1.
         11    1    3    3    0    0 -0.65514227170E+01 -0.27312374132E+01 -0.20064369777E+01  0.73760820922E+01  0.51100000000E-03 0. -1.
        -11    1    3    3    0    0 -0.30481334907E+02 -0.10267631844E+02  0.13818365703E+02  0.35006903210E+02  0.51100000000E-03 0.  1.
        -12    1    3    3    0    0 -0.40419895897E+01  0.23068845962E+01 -0.27471602791E+01  0.54042840398E+01  0.00000000000E+00 0.  1.
</event>
<event>
 7    1  0.1400974E-009  0.4778726E+02  0.7816164E-02  0.1312668E+00
        -11   -1    0    0    0    0  0.00000000000E+00  0.00000000000E+00  0.45593999997E+02  0.45594000000E+02  0.51100000000E-03 0.  1.
         11   -1    0    0    0    0 -0.00000000000E+00 -0.00000000000E+00 -0.45593999997E+02  0.45594000000E+02  0.51100000000E-03 0. -1.
    9900012    2    1    2    0    0  0.27418130694E+02 -0.17739211454E+01 -0.33596486114E+02  0.47787256156E+02  0.19999932118E+02 0.  0.
        -12    1    1    2    0    0 -0.27418130694E+02  0.17739211454E+01  0.33596486114E+02  0.43400743844E+02  0.00000000000E+00 0.  1.
         11    1    3    3    0    0 -0.55846647754E+00  0.37756674727E+00 -0.49760859204E+00  0.83788783687E+00  0.51100000000E-03 0. -1.
        -11    1    3    3    0    0  0.86372780842E+01  0.47749207988E+01 -0.26497068690E+01  0.10218776252E+02  0.51100000000E-03 0.  1.
         12    1    3    3    0    0  0.19339319088E+02 -0.69264086915E+01 -0.30449170653E+02  0.36730592067E+02  0.00000000000E+00 0. -1.
</event>
<event>
 7    1  0.1400974E-009  0.4778726E+02  0.7816164E-02  0.1312668E+00
        -11   -1    0    0    0    0  0.00000000000E+00  0.00000000000E+00  0.45593999997E+02  0.45594000000E+02  0.51100000000E-03 0.  1.
         11   -1    0    0    0    0 -0.00000000000E+00 -0.00000000000E+00 -0.45593999997E+02  0.45594000000E+02  0.51100000000E-03 0. -1.
    9900012    2    1    2    0    0  0.39496896157E+02  0.13142024281E+02 -0.12284421259E+02  0.47787255606E+02  0.19999929612E+02 0.  0.
        -12    1    1    2    0    0 -0.39496896157E+02 -0.13142024281E+02  0.12284421259E+02  0.43400744394E+02  0.00000000000E+00 0.  1.
         11    1    3    3    0    0  0.45611563401E+01  0.83653274002E+01  0.18050435120E+01  0.96974755484E+01  0.51100000000E-03 0. -1.
        -11    1    3    3    0    0  0.92117005550E+01  0.11754137673E+00 -0.44006557737E+01  0.10209555063E+02  0.51100000000E-03 0.  1.
         12    1    3    3    0    0  0.25724039262E+02  0.46591555038E+01 -0.96888089975E+01  0.27880224995E+02  0.00000000000E+00 0. -1.
</event>
<event>
 7    1  0.1400974E-009  0.4778727E+02  0.7816164E-02  0.1312668E+00
        -11   -1    0    0    0    0  0.00000000000E+00  0.00000000000E+00  0.45593999997E+02  0.45594000000E+02  0.51100000000E-03 0.  1.
         11   -1    0    0    0    0 -0.00000000000E+00 -0.00000000000E+00 -0.45593999997E+02  0.45594000000E+02  0.51100000000E-03 0. -1.
    9900012    2    1    2    0    0 -0.21932154438E+01  0.16668217216E+02 -0.40012292151E+02  0.47787272099E+02  0.20000004807E+02 0.  0.
        -12    1    1    2    0    0  0.21932154438E+01 -0.16668217216E+02  0.40012292151E+02  0.43400727901E+02  0.00000000000E+00 0.  1.
         11    1    3    3    0    0 -0.19754347669E+01  0.59859211053E+01 -0.63323317353E+01  0.89348765780E+01  0.51100000000E-03 0. -1.
        -11    1    3    3    0    0 -0.38958069600E+01  0.13774728218E+02 -0.22297157985E+02  0.26496862150E+02  0.51100000000E-03 0.  1.
        -12    1    3    3    0    0  0.36780262832E+01 -0.30924321073E+01 -0.11382802431E+02  0.12355533370E+02  0.00000000000E+00 0.  1.
</event>
<event>
 7    1  0.1400974E-009  0.4778727E+02  0.7816164E-02  0.1312668E+00
        -11   -1    0    0    0    0  0.00000000000E+00  0.00000000000E+00  0.45593999997E+02  0.45594000000E+02  0.51100000000E-03 0.  1.
         11   -1    0    0    0    0 -0.00000000000E+00 -0.00000000000E+00 -0.45593999997E+02  0.45594000000E+02  0.51100000000E-03 0. -1.
    9900012    2    1    2    0    0  0.19338491498E+02  0.14085146093E+02 -0.36211250029E+02  0.47787271636E+02  0.20000002697E+02 0.  0.
        -12    1    1    2    0    0 -0.19338491498E+02 -0.14085146093E+02  0.36211250029E+02  0.43400728364E+02  0.00000000000E+00 0.  1.
         11    1    3    3    0    0  0.78779898744E+01  0.80272439391E+01 -0.23256120000E+02  0.25833050293E+02  0.51100000000E-03 0.  1.
        -11    1    3    3    0    0  0.84872418385E-01 -0.31015408539E+01 -0.26419502392E+01  0.40751270316E+01  0.51100000000E-03 0. -1.
         12    1    3    3    0    0  0.11375629205E+02  0.91594430082E+01 -0.10313179789E+02  0.17879094311E+02  0.00000000000E+00 0. -1.
</event>
<event>
 7    1  0.1400974E-009  0.4778727E+02  0.7816164E-02  0.1312668E+00
        -11   -1    0    0    0    0  0.00000000000E+00  0.00000000000E+00  0.45593999997E+02  0.45594000000E+02  0.51100000000E-03 0.  1.
         11   -1    0    0    0    0 -0.00000000000E+00 -0.00000000000E+00 -0.45593999997E+02  0.45594000000E+02  0.51100000000E-03 0. -1.
    9900012    2    1    2    0    0  0.22757780724E+02  0.10294039876E+02 -0.35492804332E+02  0.47787274202E+02  0.20000014395E+02 0.  0.
        -12    1    1    2    0    0 -0.22757780724E+02 -0.10294039876E+02  0.35492804332E+02  0.43400725798E+02  0.00000000000E+00 0.  1.
         11    1    3    3    0    0  0.89953500459E+01  0.66992229322E+01 -0.14010535548E+02  0.17946894354E+02  0.51100000000E-03 0. -1.
        -11    1    3    3    0    0  0.26159170972E+01 -0.17137518665E+01 -0.16050362675E+02  0.16352189761E+02  0.51100000000E-03 0.  1.
        -12    1    3    3    0    0  0.11146513581E+02  0.53085688107E+01 -0.54319061084E+01  0.13488190086E+02  0.00000000000E+00 0.  1.
</event>
<event>
 7    1  0.1400974E-009  0.4778726E+02  0.7816164E-02  0.1312668E+00
        -11   -1    0    0    0    0  0.00000000000E+00  0.00000000000E+00  0.45593999997E+02  0.45594000000E+02  0.51100000000E-03 0.  1.
         11   -1    0    0    0    0 -0.00000000000E+00 -0.00000000000E+00 -0.45593999997E+02  0.45594000000E+02  0.51100000000E-03 0. -1.
    9900012    2    1    2    0    0 -0.11197991948E+02  0.34722546008E+02 -0.23506890842E+02  0.47787261043E+02  0.19999954401E+02 0.  0.
        -12    1    1    2    0    0  0.11197991948E+02 -0.34722546008E+02  0.23506890842E+02  0.43400738957E+02  0.00000000000E+00 0.  1.
         11    1    3    3    0    0  0.30743141421E+00  0.10602015938E+02 -0.16931688720E+02  0.19979472946E+02  0.51100000000E-03 0.  1.
        -11    1    3    3    0    0 -0.56092867947E+01  0.85830042168E+01 -0.39259741461E+01  0.10979313867E+02  0.51100000000E-03 0. -1.
        -12    1    3    3    0    0 -0.58961365671E+01  0.15537525853E+02 -0.26492279753E+01  0.16828474231E+02  0.00000000000E+00 0.  1.
</event>
<event>
 7    1  0.1400974E-009  0.4778727E+02  0.7816164E-02  0.1312668E+00
        -11   -1    0    0    0    0  0.00000000000E+00  0.00000000000E+00  0.45593999997E+02  0.45594000000E+02  0.51100000000E-03 0.  1.
         11   -1    0    0    0    0 -0.00000000000E+00 -0.00000000000E+00 -0.45593999997E+02  0.45594000000E+02  0.51100000000E-03 0. -1.
    9900012    2    1    2    0    0 -0.65296396214E+00  0.29256788934E+02 -0.32050546840E+02  0.47787267133E+02  0.19999982166E+02 0.  0.
        -12    1    1    2    0    0  0.65296396214E+00 -0.29256788934E+02  0.32050546840E+02  0.43400732867E+02  0.00000000000E+00 0.  1.
         11    1    3    3    0    0  0.22648961457E+01  0.57136853163E+01 -0.99027027197E+01  0.11655019342E+02  0.51100000000E-03 0. -1.
        -11    1    3    3    0    0  0.42589690923E+01  0.14808417130E+02 -0.18869474567E+02  0.24361549752E+02  0.51100000000E-03 0.  1.
        -12    1    3    3    0    0 -0.71768292002E+01  0.87346864877E+01 -0.32783695537E+01  0.11770698040E+02  0.00000000000E+00 0.  1.
</event>
<event>
 7    1  0.1400974E-009  0.4778727E+02  0.7816164E-02  0.1312668E+00
        -11   -1    0    0    0    0  0.00000000000E+00  0.00000000000E+00  0.45593999997E+02  0.45594000000E+02  0.51100000000E-03 0. -1.
         11   -1    0    0    0    0 -0.00000000000E+00 -0.00000000000E+00 -0.45593999997E+02  0.45594000000E+02  0.51100000000E-03 0.  1.
    9900012    2    1    2    0    0  0.22209332377E+02 -0.37270429637E+02 -0.11332148167E+01  0.47787267912E+02  0.19999985716E+02 0.  0.
        -12    1    1    2    0    0 -0.22209332377E+02  0.37270429637E+02  0.11332148167E+01  0.43400732088E+02  0.00000000000E+00 0.  1.
         11    1    3    3    0    0  0.78016280721E+01 -0.26882334728E+01  0.24239606775E+01  0.86004410007E+01  0.51100000000E-03 0. -1.
        -11    1    3    3    0    0  0.41898451811E+01 -0.11049985013E+02 -0.62891653248E+01  0.13386955299E+02  0.51100000000E-03 0.  1.
        -12    1    3    3    0    0  0.10217859124E+02 -0.23532211152E+02  0.27319898307E+01  0.25799871612E+02  0.00000000000E+00 0.  1.
</event>
<event>
 7    1  0.1400974E-009  0.4778727E+02  0.7816164E-02  0.1312668E+00
        -11   -1    0    0    0    0  0.00000000000E+00  0.00000000000E+00  0.45593999997E+02  0.45594000000E+02  0.51100000000E-03 0.  1.
         11   -1    0    0    0    0 -0.00000000000E+00 -0.00000000000E+00 -0.45593999997E+02  0.45594000000E+02  0.51100000000E-03 0. -1.
    9900012    2    1    2    0    0  0.19642619736E+02 -0.38633877406E+02  0.22834849731E+01  0.47787270777E+02  0.19999998780E+02 0.  0.
        -12    1    1    2    0    0 -0.19642619736E+02  0.38633877406E+02 -0.22834849731E+01  0.43400729223E+02  0.00000000000E+00 0.  1.
         11    1    3    3    0    0  0.10523696970E+02 -0.17158336385E+02  0.27906435387E+01  0.20321033366E+02  0.51100000000E-03 0. -1.
        -11    1    3    3    0    0  0.10165645773E+01  0.14063506820E+01  0.24611369987E+01  0.30113819698E+01  0.51100000000E-03 0.  1.
        -12    1    3    3    0    0  0.81023581884E+01 -0.22881891702E+02 -0.29682955643E+01  0.24454855441E+02  0.00000000000E+00 0.  1.
</event>
<event>
 7    1  0.1400974E-009  0.4778729E+02  0.7816164E-02  0.1312668E+00
        -11   -1    0    0    0    0  0.00000000000E+00  0.00000000000E+00  0.45593999997E+02  0.45594000000E+02  0.51100000000E-03 0.  1.
         11   -1    0    0    0    0 -0.00000000000E+00 -0.00000000000E+00 -0.45593999997E+02  0.45594000000E+02  0.51100000000E-03 0. -1.
    9900012    2    1    2    0    0  0.26262485352E+02  0.28476523943E+01 -0.34435366033E+02  0.47787289236E+02  0.20000082943E+02 0.  0.
        -12    1    1    2    0    0 -0.26262485352E+02 -0.28476523943E+01  0.34435366033E+02  0.43400710764E+02  0.00000000000E+00 0.  1.
         11    1    3    3    0    0  0.50609430063E+01  0.18765705429E+01 -0.38415225227E+01  0.66251005025E+01  0.51100000000E-03 0. -1.
        -11    1    3    3    0    0  0.15643855698E+02  0.17411759453E+01 -0.31746272142E+02  0.35434273097E+02  0.51100000000E-03 0.  1.
         12    1    3    3    0    0  0.55576866477E+01 -0.77009409390E+00  0.11524286316E+01  0.57279156365E+01  0.00000000000E+00 0. -1.
</event>
<event>
 7    1  0.1400974E-009  0.4778727E+02  0.7816164E-02  0.1312668E+00
        -11   -1    0    0    0    0  0.00000000000E+00  0.00000000000E+00  0.45593999997E+02  0.45594000000E+02  0.51100000000E-03 0. -1.
         11   -1    0    0    0    0 -0.00000000000E+00 -0.00000000000E+00 -0.45593999997E+02  0.45594000000E+02  0.51100000000E-03 0.  1.
    9900012    2    1    2    0    0 -0.41997458835E+02  0.52335913808E+01 -0.96149071391E+01  0.47787268824E+02  0.19999989876E+02 0.  0.
        -12    1    1    2    0    0  0.41997458835E+02 -0.52335913808E+01  0.96149071391E+01  0.43400731176E+02  0.00000000000E+00 0.  1.
         11    1    3    3    0    0 -0.20382372592E+02  0.55823028415E+01  0.24307196174E+01  0.21272320409E+02  0.51100000000E-03 0. -1.
        -11    1    3    3    0    0 -0.17567429932E+02 -0.21138797970E+01 -0.53334783395E+01  0.18480505233E+02  0.51100000000E-03 0.  1.
        -12    1    3    3    0    0 -0.40476563116E+01  0.17651683363E+01 -0.67121484170E+01  0.80344431819E+01  0.00000000000E+00 0.  1.
</event>
<event>
 7    1  0.1400974E-009  0.4778728E+02  0.7816164E-02  0.1312668E+00
        -11   -1    0    0    0    0  0.00000000000E+00  0.00000000000E+00  0.45593999997E+02  0.45594000000E+02  0.51100000000E-03 0. -1.
         11   -1    0    0    0    0 -0.00000000000E+00 -0.00000000000E+00 -0.45593999997E+02  0.45594000000E+02  0.51100000000E-03 0.  1.
    9900012    2    1    2    0    0  0.21188478560E+02 -0.10539053641E+02  0.36381307727E+02  0.47787276190E+02  0.20000023459E+02 0.  0.
        -12    1    1    2    0    0 -0.21188478560E+02  0.10539053641E+02 -0.36381307727E+02  0.43400723810E+02  0.00000000000E+00 0.  1.
         11    1    3    3    0    0  0.99317075598E+00 -0.22214617792E+01  0.11528902504E+02  0.11782906000E+02  0.51100000000E-03 0. -1.
        -11    1    3    3    0    0  0.83683194464E+01 -0.39787723995E+01  0.13844277835E+01  0.93688868449E+01  0.51100000000E-03 0.  1.
         12    1    3    3    0    0  0.11826988358E+02 -0.43388194624E+01  0.23467977439E+02  0.26635483345E+02  0.00000000000E+00 0. -1.
</event>
<event>
 7    1  0.1400974E-009  0.4778722E+02  0.7816164E-02  0.1312668E+00
        -11   -1    0    0    0    0  0.00000000000E+00  0.00000000000E+00  0.45593999997E+02  0.45594000000E+02  0.51100000000E-03 0.  1.
         11   -1    0    0    0    0 -0.00000000000E+00 -0.00000000000E+00 -0.45593999997E+02  0.45594000000E+02  0.51100000000E-03 0. -1.
    9900012    2    1    2    0    0 -0.26663143225E+01 -0.35164846378E+02 -0.25297277611E+02  0.47787217664E+02  0.19999756614E+02 0.  0.
        -12    1    1    2    0    0  0.26663143225E+01  0.35164846378E+02  0.25297277611E+02  0.43400782336E+02  0.00000000000E+00 0.  1.
         11    1    3    3    0    0  0.65125696073E+00 -0.56591748491E+01 -0.14212204292E+02  0.15311340461E+02  0.51100000000E-03 0. -1.
        -11    1    3    3    0    0 -0.51737239980E+00 -0.54071919360E+01  0.74825834294E+00  0.54831824374E+01  0.51100000000E-03 0.  1.
         12    1    3    3    0    0 -0.28001988834E+01 -0.24098479593E+02 -0.11833331662E+02  0.26992694766E+02  0.00000000000E+00 0. -1.
</event>
<event>
 7    1  0.1400974E-009  0.4778726E+02  0.7816164E-02  0.1312668E+00
        -11   -1    0    0    0    0  0.00000000000E+00  0.00000000000E+00  0.45593999997E+02  0.45594000000E+02  0.51100000000E-03 0.  1.
         11   -1    0    0    0    0 -0.00000000000E+00 -0.00000000000E+00 -0.45593999997E+02  0.45594000000E+02  0.51100000000E-03 0. -1.
    9900012    2    1    2    0    0  0.13218266732E+02 -0.41257169574E+02  0.25975780920E+01  0.47787262350E+02  0.19999960357E+02 0.  0.
        -12    1    1    2    0    0 -0.13218266732E+02  0.41257169574E+02 -0.25975780920E+01  0.43400737650E+02  0.00000000000E+00 0.  1.
         11    1    3    3    0    0  0.76730728693E+01 -0.23853616504E+02  0.25795077150E+01  0.25189778242E+02  0.51100000000E-03 0. -1.
        -11    1    3    3    0    0 -0.23026830721E+01 -0.10827046816E+02 -0.37498027786E+01  0.11687100291E+02  0.51100000000E-03 0.  1.
        -12    1    3    3    0    0  0.78478769351E+01 -0.65765062544E+01  0.37678731556E+01  0.10910383816E+02  0.00000000000E+00 0.  1.
</event>
<event>
 7    1  0.1400974E-009  0.4778727E+02  0.7816164E-02  0.1312668E+00
        -11   -1    0    0    0    0  0.00000000000E+00  0.00000000000E+00  0.45593999997E+02  0.45594000000E+02  0.51100000000E-03 0.  1.
         11   -1    0    0    0    0 -0.00000000000E+00 -0.00000000000E+00 -0.45593999997E+02  0.45594000000E+02  0.51100000000E-03 0. -1.
    9900012    2    1    2    0    0 -0.23766332059E+02 -0.89498915710E+01 -0.35194947671E+02  0.47787269128E+02  0.19999991262E+02 0.  0.
        -12    1    1    2    0    0  0.23766332059E+02  0.89498915710E+01  0.35194947671E+02  0.43400730872E+02  0.00000000000E+00 0.  1.
         11    1    3    3    0    0 -0.14518987535E+02 -0.90774015391E+01 -0.18369358525E+02  0.25112418256E+02  0.51100000000E-03 0. -1.
        -11    1    3    3    0    0  0.18024658673E+01 -0.31871408932E+01 -0.42308994959E+01  0.55952891866E+01  0.51100000000E-03 0.  1.
         12    1    3    3    0    0 -0.11049810391E+02  0.33146508613E+01 -0.12594689650E+02  0.17079561686E+02  0.00000000000E+00 0. -1.
</event>
<event>
 7    1  0.1400974E-009  0.4778727E+02  0.7816164E-02  0.1312668E+00
        -11   -1    0    0    0    0  0.00000000000E+00  0.00000000000E+00  0.45593999997E+02  0.45594000000E+02  0.51100000000E-03 0.  1.
         11   -1    0    0    0    0 -0.00000000000E+00 -0.00000000000E+00 -0.45593999997E+02  0.45594000000E+02  0.51100000000E-03 0. -1.
    9900012    2    1    2    0    0  0.74412547417E+01 -0.93914710394E+01 -0.41713923431E+02  0.47787269494E+02  0.19999992932E+02 0.  0.
        -12    1    1    2    0    0 -0.74412547417E+01  0.93914710394E+01  0.41713923431E+02  0.43400730506E+02  0.00000000000E+00 0.  1.
         11    1    3    3    0    0  0.56341538504E+01 -0.19243034754E+01 -0.15023666336E+02  0.16160358409E+02  0.51100000000E-03 0. -1.
        -11    1    3    3    0    0 -0.17843378175E+01 -0.41962042213E+01 -0.63091211718E-01  0.45602600886E+01  0.51100000000E-03 0.  1.
        -12    1    3    3    0    0  0.35914387088E+01 -0.32709633428E+01 -0.26627165883E+02  0.27066650997E+02  0.00000000000E+00 0.  1.
</event>
<event>
 7    1  0.1400974E-009  0.4778728E+02  0.7816164E-02  0.1312668E+00
        -11   -1    0    0    0    0  0.00000000000E+00  0.00000000000E+00  0.45593999997E+02  0.45594000000E+02  0.51100000000E-03 0.  1.
         11   -1    0    0    0    0 -0.00000000000E+00 -0.00000000000E+00 -0.45593999997E+02  0.45594000000E+02  0.51100000000E-03 0. -1.
    9900012    2    1    2    0    0 -0.38121627388E+02  0.10039146318E+02 -0.18154331684E+02  0.47787277743E+02  0.20000030542E+02 0.  0.
        -12    1    1    2    0    0  0.38121627388E+02 -0.10039146318E+02  0.18154331684E+02  0.43400722257E+02  0.00000000000E+00 0.  1.
         11    1    3    3    0    0 -0.23813506874E+02  0.25312947051E+01 -0.65486866586E+01  0.24826918047E+02  0.51100000000E-03 0. -1.
        -11    1    3    3    0    0 -0.12788174410E+01 -0.26065490249E+01 -0.36028546724E+01  0.46270977857E+01  0.51100000000E-03 0.  1.
        -12    1    3    3    0    0 -0.13029303074E+02  0.10114400637E+02 -0.80027903530E+01  0.18333261910E+02  0.00000000000E+00 0.  1.
</event>
<event>
 7    1  0.1400974E-009  0.4778727E+02  0.7816164E-02  0.1312668E+00
        -11   -1    0    0    0    0  0.00000000000E+00  0.00000000000E+00  0.45593999997E+02  0.45594000000E+02  0.51100000000E-03 0.  1.
         11   -1    0    0    0    0 -0.00000000000E+00 -0.00000000000E+00 -0.45593999997E+02  0.45594000000E+02  0.51100000000E-03 0. -1.
    9900012    2    1    2    0    0 -0.40018908192E+02 -0.16754983970E+02 -0.11750395208E+01  0.47787271681E+02  0.20000002903E+02 0.  0.
        -12    1    1    2    0    0  0.40018908192E+02  0.16754983970E+02  0.11750395208E+01  0.43400728319E+02  0.00000000000E+00 0.  1.
         11    1    3    3    0    0 -0.32881168211E+01 -0.24724125039E+01 -0.46787085989E+01  0.62301565176E+01  0.51100000000E-03 0.  1.
        -11    1    3    3    0    0 -0.24937459797E+02 -0.30628659330E+01  0.24878226492E+01  0.25247718920E+02  0.51100000000E-03 0. -1.
         12    1    3    3    0    0 -0.11793331574E+02 -0.11219705533E+02  0.10158464289E+01  0.16309396243E+02  0.00000000000E+00 0. -1.
</event>
<event>
 7    1  0.1400974E-009  0.4778728E+02  0.7816164E-02  0.1312668E+00
        -11   -1    0    0    0    0  0.00000000000E+00  0.00000000000E+00  0.45593999997E+02  0.45594000000E+02  0.51100000000E-03 0.  1.
         11   -1    0    0    0    0 -0.00000000000E+00 -0.00000000000E+00 -0.45593999997E+02  0.45594000000E+02  0.51100000000E-03 0. -1.
    9900012    2    1    2    0    0  0.13338869086E+02  0.37473645364E+02 -0.17361545021E+02  0.47787276839E+02  0.20000026421E+02 0.  0.
        -12    1    1    2    0    0 -0.13338869086E+02 -0.37473645364E+02  0.17361545021E+02  0.43400723161E+02  0.00000000000E+00 0.  1.
         11    1    3    3    0    0 -0.13000846494E+01  0.12502810248E+02 -0.28524922912E+01  0.12889809802E+02  0.51100000000E-03 0. -1.
        -11    1    3    3    0    0  0.10876998443E+02  0.11450563615E+02 -0.16780316690E+01  0.15882074574E+02  0.51100000000E-03 0.  1.
         12    1    3    3    0    0  0.37619552923E+01  0.13520271500E+02 -0.12831021061E+02  0.19015392463E+02  0.00000000000E+00 0. -1.
</event>
<event>
 7    1  0.1400974E-009  0.4778727E+02  0.7816164E-02  0.1312668E+00
        -11   -1    0    0    0    0  0.00000000000E+00  0.00000000000E+00  0.45593999997E+02  0.45594000000E+02  0.51100000000E-03 0.  1.
         11   -1    0    0    0    0 -0.00000000000E+00 -0.00000000000E+00 -0.45593999997E+02  0.45594000000E+02  0.51100000000E-03 0. -1.
    9900012    2    1    2    0    0  0.12781581258E+02  0.38584895589E+02 -0.15213817753E+02  0.47787271461E+02  0.20000001898E+02 0.  0.
        -12    1    1    2    0    0 -0.12781581258E+02 -0.38584895589E+02  0.15213817753E+02  0.43400728539E+02  0.00000000000E+00 0.  1.
         11    1    3    3    0    0 -0.18751127091E+01  0.51266910294E+01 -0.40645656450E+01  0.68058579714E+01  0.51100000000E-03 0. -1.
        -11    1    3    3    0    0 -0.19414232218E+01  0.15598803431E+00 -0.17139576991E+01  0.25944378290E+01  0.51100000000E-03 0.  1.
        -12    1    3    3    0    0  0.16598117189E+02  0.33302216526E+02 -0.94352944094E+01  0.38386975660E+02  0.00000000000E+00 0.  1.
</event>
<event>
 7    1  0.1400974E-009  0.4778727E+02  0.7816164E-02  0.1312668E+00
        -11   -1    0    0    0    0  0.00000000000E+00  0.00000000000E+00  0.45593999997E+02  0.45594000000E+02  0.51100000000E-03 0. -1.
         11   -1    0    0    0    0 -0.00000000000E+00 -0.00000000000E+00 -0.45593999997E+02  0.45594000000E+02  0.51100000000E-03 0.  1.
    9900012    2    1    2    0    0 -0.18329411015E+02  0.30707396760E+02  0.24590884956E+02  0.47787272508E+02  0.20000006672E+02 0.  0.
        -12    1    1    2    0    0  0.18329411015E+02 -0.30707396760E+02 -0.24590884956E+02  0.43400727492E+02  0.00000000000E+00 0.  1.
         11    1    3    3    0    0 -0.83835658305E+01  0.72341949721E+01  0.59485748973E+01  0.12569936217E+02  0.51100000000E-03 0. -1.
        -11    1    3    3    0    0 -0.92068373339E+01  0.12919302797E+02  0.18847773727E+02  0.24635600524E+02  0.51100000000E-03 0.  1.
        -12    1    3    3    0    0 -0.73900785072E+00  0.10553898991E+02 -0.20546366844E+00  0.10581735767E+02  0.00000000000E+00 0.  1.
</event>
<event>
 7    1  0.1400974E-009  0.4778727E+02  0.7816164E-02  0.1312668E+00
        -11   -1    0    0    0    0  0.00000000000E+00  0.00000000000E+00  0.45593999997E+02  0.45594000000E+02  0.51100000000E-03 0.  1.
         11   -1    0    0    0    0 -0.00000000000E+00 -0.00000000000E+00 -0.45593999997E+02  0.45594000000E+02  0.51100000000E-03 0. -1.
    9900012    2    1    2    0    0 -0.14532098190E+02 -0.15360691764E+02 -0.37901059404E+02  0.47787273817E+02  0.20000012642E+02 0.  0.
        -12    1    1    2    0    0  0.14532098190E+02  0.15360691764E+02  0.37901059404E+02  0.43400726183E+02  0.00000000000E+00 0.  1.
         11    1    3    3    0    0 -0.80458707284E+01 -0.10531924043E+02 -0.15526927573E+02  0.20414282744E+02  0.51100000000E-03 0. -1.
        -11    1    3    3    0    0 -0.84133643463E+01 -0.73475392790E+00 -0.21014788703E+02  0.22648309153E+02  0.51100000000E-03 0.  1.
        -12    1    3    3    0    0  0.19271368846E+01 -0.40940137937E+01 -0.13593431271E+01  0.47246819207E+01  0.00000000000E+00 0.  1.
</event>
<event>
 7    1  0.1400974E-009  0.4778727E+02  0.7816164E-02  0.1312668E+00
        -11   -1    0    0    0    0  0.00000000000E+00  0.00000000000E+00  0.45593999997E+02  0.45594000000E+02  0.51100000000E-03 0.  1.
         11   -1    0    0    0    0 -0.00000000000E+00 -0.00000000000E+00 -0.45593999997E+02  0.45594000000E+02  0.51100000000E-03 0. -1.
    9900012    2    1    2    0    0  0.15347533537E+02 -0.23956011107E+02 -0.32774780389E+02  0.47787268631E+02  0.19999988995E+02 0.  0.
        -12    1    1    2    0    0 -0.15347533537E+02  0.23956011107E+02  0.32774780389E+02  0.43400731369E+02  0.00000000000E+00 0.  1.
         11    1    3    3    0    0  0.69717562196E+01 -0.33918812702E+01 -0.94102920296E+01  0.12192778177E+02  0.51100000000E-03 0. -1.
        -11    1    3    3    0    0  0.82375334695E+01 -0.20516145448E+02 -0.13869788717E+02  0.26098663203E+02  0.51100000000E-03 0.  1.
        -12    1    3    3    0    0  0.13824384825E+00 -0.47984389558E-01 -0.94946996426E+01  0.94958272502E+01  0.00000000000E+00 0.  1.
</event>
<event>
 7    1  0.1400974E-009  0.4778726E+02  0.7816164E-02  0.1312668E+00
        -11   -1    0    0    0    0  0.00000000000E+00  0.00000000000E+00  0.45593999997E+02  0.45594000000E+02  0.51100000000E-03 0.  1.
         11   -1    0    0    0    0 -0.00000000000E+00 -0.00000000000E+00 -0.45593999997E+02  0.45594000000E+02  0.51100000000E-03 0. -1.
    9900012    2    1    2    0    0  0.94377319706E+01 -0.33486599275E+02 -0.25946117839E+02  0.47787260990E+02  0.19999954156E+02 0.  0.
        -12    1    1    2    0    0 -0.94377319706E+01  0.33486599275E+02  0.25946117839E+02  0.43400739010E+02  0.00000000000E+00 0.  1.
         11    1    3    3    0    0  0.76404939906E+01 -0.19110031034E+02 -0.17270487839E+02  0.26867083671E+02  0.51100000000E-03 0. -1.
        -11    1    3    3    0    0 -0.43747948606E+01 -0.11119709246E+02 -0.65405974388E+01  0.13622267759E+02  0.51100000000E-03 0.  1.
        -12    1    3    3    0    0  0.61720328406E+01 -0.32568589954E+01 -0.21350325609E+01  0.72979095594E+01  0.00000000000E+00 0.  1.
</event>
<event>
 7    1  0.1400974E-009  0.4778727E+02  0.7816164E-02  0.1312668E+00
        -11   -1    0    0    0    0  0.00000000000E+00  0.00000000000E+00  0.45593999997E+02  0.45594000000E+02  0.51100000000E-03 0.  1.
         11   -1    0    0    0    0 -0.00000000000E+00 -0.00000000000E+00 -0.45593999997E+02  0.45594000000E+02  0.51100000000E-03 0. -1.
    9900012    2    1    2    0    0  0.42177233063E+02 -0.97110867114E+01  0.32247599368E+01  0.47787271082E+02  0.20000000173E+02 0.  0.
        -12    1    1    2    0    0 -0.42177233063E+02  0.97110867114E+01 -0.32247599368E+01  0.43400728918E+02  0.00000000000E+00 0.  1.
         11    1    3    3    0    0  0.64020247212E+01 -0.39532956665E+01  0.78312691873E+01  0.10860167794E+02  0.51100000000E-03 0.  1.
        -11    1    3    3    0    0  0.11691555497E+02 -0.78184483697E+00 -0.38113160356E+01  0.12321926857E+02  0.51100000000E-03 0. -1.
        -12    1    3    3    0    0  0.24083652844E+02 -0.49759462079E+01 -0.79519321488E+00  0.24605176432E+02  0.00000000000E+00 0.  1.
</event>
<event>
 7    1  0.1400974E-009  0.4778727E+02  0.7816164E-02  0.1312668E+00
        -11   -1    0    0    0    0  0.00000000000E+00  0.00000000000E+00  0.45593999997E+02  0.45594000000E+02  0.51100000000E-03 0. -1.
         11   -1    0    0    0    0 -0.00000000000E+00 -0.00000000000E+00 -0.45593999997E+02  0.45594000000E+02  0.51100000000E-03 0.  1.
    9900012    2    1    2    0    0  0.25840146915E+02  0.14787761648E+02  0.31578979457E+02  0.47787273846E+02  0.20000012774E+02 0.  0.
        -12    1    1    2    0    0 -0.25840146915E+02 -0.14787761648E+02 -0.31578979457E+02  0.43400726154E+02  0.00000000000E+00 0.  1.
         11    1    3    3    0    0  0.11473068166E+02  0.80803123893E+01  0.23922957721E+02  0.27735007623E+02  0.51100000000E-03 0. -1.
        -11    1    3    3    0    0  0.16870760273E+01 -0.23840843290E+01  0.14505461920E+01  0.32610072257E+01  0.51100000000E-03 0.  1.
         12    1    3    3    0    0  0.12680002722E+02  0.90915335874E+01  0.62054755436E+01  0.16791258998E+02  0.00000000000E+00 0. -1.
</event>
<event>
 7    1  0.1400974E-009  0.4778727E+02  0.7816164E-02  0.1312668E+00
        -11   -1    0    0    0    0  0.00000000000E+00  0.00000000000E+00  0.45593999997E+02  0.45594000000E+02  0.51100000000E-03 0.  1.
         11   -1    0    0    0    0 -0.00000000000E+00 -0.00000000000E+00 -0.45593999997E+02  0.45594000000E+02  0.51100000000E-03 0. -1.
    9900012    2    1    2    0    0  0.22345180339E+02 -0.16971620173E+02 -0.33110126830E+02  0.47787268734E+02  0.19999989467E+02 0.  0.
        -12    1    1    2    0    0 -0.22345180339E+02  0.16971620173E+02  0.33110126830E+02  0.43400731266E+02  0.00000000000E+00 0.  1.
         11    1    3    3    0    0 -0.31042645343E+01  0.10859025123E+00 -0.12549416958E+01  0.33500938886E+01  0.51100000000E-03 0.  1.
        -11    1    3    3    0    0  0.89355490834E+01 -0.46190418805E+01 -0.13074301444E+02  0.16495967502E+02  0.51100000000E-03 0. -1.
        -12    1    3    3    0    0  0.16513895790E+02 -0.12461168543E+02 -0.18780883690E+02  0.27941207344E+02  0.00000000000E+00 0.  1.
</event>
<event>
 7    1  0.1400974E-009  0.4778728E+02  0.7816164E-02  0.1312668E+00
        -11   -1    0    0    0    0  0.00000000000E+00  0.00000000000E+00  0.45593999997E+02  0.45594000000E+02  0.51100000000E-03 0.  1.
         11   -1    0    0    0    0 -0.00000000000E+00 -0.00000000000E+00 -0.45593999997E+02  0.45594000000E+02  0.51100000000E-03 0. -1.
    9900012    2    1    2    0    0  0.30398707686E+02 -0.15690840196E+02 -0.26708406878E+02  0.47787275433E+02  0.20000020007E+02 0.  0.
        -12    1    1    2    0    0 -0.30398707686E+02  0.15690840196E+02  0.26708406878E+02  0.43400724567E+02  0.00000000000E+00 0.  1.
         11    1    3    3    0    0  0.10878775561E+02 -0.48836374955E+01 -0.69903362807E+01  0.13822535024E+02  0.51100000000E-03 0. -1.
        -11    1    3    3    0    0  0.15452801779E+02 -0.14466664581E+02 -0.11493940935E+02  0.24087011965E+02  0.51100000000E-03 0.  1.
         12    1    3    3    0    0  0.40671303455E+01  0.36594618809E+01 -0.82241296627E+01  0.98777284440E+01  0.00000000000E+00 0. -1.
</event>
<event>
 7    1  0.1400974E-009  0.4778727E+02  0.7816164E-02  0.1312668E+00
        -11   -1    0    0    0    0  0.00000000000E+00  0.00000000000E+00  0.45593999997E+02  0.45594000000E+02  0.51100000000E-03 0.  1.
         11   -1    0    0    0    0 -0.00000000000E+00 -0.00000000000E+00 -0.45593999997E+02  0.45594000000E+02  0.51100000000E-03 0. -1.
    9900012    2    1    2    0    0 -0.21729776628E+02  0.12442626061E+02 -0.35448852056E+02  0.47787271346E+02  0.20000001375E+02 0.  0.
        -12    1    1    2    0    0  0.21729776628E+02 -0.12442626061E+02  0.35448852056E+02  0.43400728654E+02  0.00000000000E+00 0.  1.
         11    1    3    3    0    0 -0.10264117068E+02  0.13395594618E+02 -0.15396381049E+02  0.22843874541E+02  0.51100000000E-03 0. -1.
        -11    1    3    3    0    0  0.38033718226E+00 -0.11216810157E+01 -0.78389665882E+01  0.79279393354E+01  0.51100000000E-03 0.  1.
        -12    1    3    3    0    0 -0.11845996742E+02  0.16871245829E+00 -0.12213504419E+02  0.17015457470E+02  0.00000000000E+00 0.  1.
</event>
<event>
 7    1  0.1400974E-009  0.4778727E+02  0.7816164E-02  0.1312668E+00
        -11   -1    0    0    0    0  0.00000000000E+00  0.00000000000E+00  0.45593999997E+02  0.45594000000E+02  0.51100000000E-03 0.  1.
         11   -1    0    0    0    0 -0.00000000000E+00 -0.00000000000E+00 -0.45593999997E+02  0.45594000000E+02  0.51100000000E-03 0. -1.
    9900012    2    1    2    0    0 -0.37455495018E+02 -0.92367132964E+01 -0.19884471760E+02  0.47787271933E+02  0.20000004051E+02 0.  0.
        -12    1    1    2    0    0  0.37455495018E+02  0.92367132964E+01  0.19884471760E+02  0.43400728067E+02  0.00000000000E+00 0.  1.
         11    1    3    3    0    0 -0.12421097198E+02 -0.54521292133E+00 -0.79229383352E+01  0.14742925926E+02  0.51100000000E-03 0. -1.
        -11    1    3    3    0    0 -0.15708232732E+02 -0.54540866350E+01  0.11083888466E+01  0.16665058136E+02  0.51100000000E-03 0.  1.
         12    1    3    3    0    0 -0.93261650885E+01 -0.32374137401E+01 -0.13069922271E+02  0.16379287871E+02  0.00000000000E+00 0. -1.
</event>
<event>
 7    1  0.1400974E-009  0.4778725E+02  0.7816164E-02  0.1312668E+00
        -11   -1    0    0    0    0  0.00000000000E+00  0.00000000000E+00  0.45593999997E+02  0.45594000000E+02  0.51100000000E-03 0.  1.
         11   -1    0    0    0    0 -0.00000000000E+00 -0.00000000000E+00 -0.45593999997E+02  0.45594000000E+02  0.51100000000E-03 0. -1.
    9900012    2    1    2    0    0 -0.38714745563E+02 -0.17401718050E+02 -0.90539168572E+01  0.47787254320E+02  0.19999923749E+02 0.  0.
        -12    1    1    2    0    0  0.38714745563E+02  0.17401718050E+02  0.90539168572E+01  0.43400745680E+02  0.00000000000E+00 0.  1.
         11    1    3    3    0    0 -0.43117567858E+01 -0.67168525130E+01 -0.23166463867E+01  0.83110892790E+01  0.51100000000E-03 0. -1.
        -11    1    3    3    0    0 -0.32698005201E+02 -0.98464996896E+01 -0.18112045873E+01  0.34196396924E+02  0.51100000000E-03 0.  1.
        -12    1    3    3    0    0 -0.17049835758E+01 -0.83836584729E+00 -0.49260658832E+01  0.52797681173E+01  0.00000000000E+00 0.  1.
</event>
<event>
 7    1  0.1400974E-009  0.4778727E+02  0.7816164E-02  0.1312668E+00
        -11   -1    0    0    0    0  0.00000000000E+00  0.00000000000E+00  0.45593999997E+02  0.45594000000E+02  0.51100000000E-03 0.  1.
         11   -1    0    0    0    0 -0.00000000000E+00 -0.00000000000E+00 -0.45593999997E+02  0.45594000000E+02  0.51100000000E-03 0. -1.
    9900012    2    1    2    0    0  0.26333742349E+02  0.32376941965E+02 -0.11911803521E+02  0.47787269359E+02  0.19999992313E+02 0.  0.
        -12    1    1    2    0    0 -0.26333742349E+02 -0.32376941965E+02  0.11911803521E+02  0.43400730641E+02  0.00000000000E+00 0.  1.
         11    1    3    3    0    0  0.72057737772E+01  0.15152904583E+02 -0.25233421656E+01  0.16967644178E+02  0.51100000000E-03 0.  1.
        -11    1    3    3    0    0  0.40674759133E+01  0.12667736699E+02 -0.65552315262E+01  0.14831957861E+02  0.51100000000E-03 0. -1.
        -12    1    3    3    0    0  0.15060492658E+02  0.45563006832E+01 -0.28332298289E+01  0.15987667319E+02  0.00000000000E+00 0.  1.
</event>
<event>
 7    1  0.1400974E-009  0.4778727E+02  0.7816164E-02  0.1312668E+00
        -11   -1    0    0    0    0  0.00000000000E+00  0.00000000000E+00  0.45593999997E+02  0.45594000000E+02  0.51100000000E-03 0.  1.
         11   -1    0    0    0    0 -0.00000000000E+00 -0.00000000000E+00 -0.45593999997E+02  0.45594000000E+02  0.51100000000E-03 0. -1.
    9900012    2    1    2    0    0  0.18040612129E+02  0.28323156985E+02 -0.27494692176E+02  0.47787274137E+02  0.20000014100E+02 0.  0.
        -12    1    1    2    0    0 -0.18040612129E+02 -0.28323156985E+02  0.27494692176E+02  0.43400725863E+02  0.00000000000E+00 0.  1.
         11    1    3    3    0    0  0.12668853375E+02  0.13812108565E+02 -0.82679753342E+01  0.20484960464E+02  0.51100000000E-03 0. -1.
        -11    1    3    3    0    0 -0.44485367267E+00 -0.19111809149E+01 -0.19208831425E+01  0.27459605948E+01  0.51100000000E-03 0.  1.
         12    1    3    3    0    0  0.58166124269E+01  0.16422229335E+02 -0.17305833699E+02  0.24556353078E+02  0.00000000000E+00 0. -1.
</event>
<event>
 7    1  0.1400974E-009  0.4778727E+02  0.7816164E-02  0.1312668E+00
        -11   -1    0    0    0    0  0.00000000000E+00  0.00000000000E+00  0.45593999997E+02  0.45594000000E+02  0.51100000000E-03 0.  1.
         11   -1    0    0    0    0 -0.00000000000E+00 -0.00000000000E+00 -0.45593999997E+02  0.45594000000E+02  0.51100000000E-03 0. -1.
    9900012    2    1    2    0    0  0.13933323253E+02  0.20330578134E+02 -0.35723288029E+02  0.47787271760E+02  0.20000003264E+02 0.  0.
        -12    1    1    2    0    0 -0.13933323253E+02 -0.20330578134E+02  0.35723288029E+02  0.43400728240E+02  0.00000000000E+00 0.  1.
         11    1    3    3    0    0  0.26997998363E+01  0.18948203252E+01 -0.10849057539E+02  0.11339370042E+02  0.51100000000E-03 0. -1.
        -11    1    3    3    0    0  0.11996167758E+02  0.11892622944E+02 -0.87368090196E+01  0.19017737864E+02  0.51100000000E-03 0.  1.
        -12    1    3    3    0    0 -0.76264434095E+00  0.65431348650E+01 -0.16137421470E+02  0.17430163854E+02  0.00000000000E+00 0.  1.
</event>
<event>
 7    1  0.1400974E-009  0.4778728E+02  0.7816164E-02  0.1312668E+00
        -11   -1    0    0    0    0  0.00000000000E+00  0.00000000000E+00  0.45593999997E+02  0.45594000000E+02  0.51100000000E-03 0.  1.
         11   -1    0    0    0    0 -0.00000000000E+00 -0.00000000000E+00 -0.45593999997E+02  0.45594000000E+02  0.51100000000E-03 0. -1.
    9900012    2    1    2    0    0  0.19008590880E+02 -0.29022489347E+02 -0.26076645162E+02  0.47787276065E+02  0.20000022891E+02 0.  0.
        -12    1    1    2    0    0 -0.19008590880E+02  0.29022489347E+02  0.26076645162E+02  0.43400723935E+02  0.00000000000E+00 0.  1.
         11    1    3    3    0    0  0.89561388022E+01 -0.53708618458E+01 -0.12245146169E+02  0.16093544798E+02  0.51100000000E-03 0. -1.
        -11    1    3    3    0    0  0.95515283260E+01 -0.14070287564E+02 -0.14106742508E+02  0.22095358561E+02  0.51100000000E-03 0.  1.
        -12    1    3    3    0    0  0.50092375199E+00 -0.95813399372E+01  0.27524351503E+00  0.95983727053E+01  0.00000000000E+00 0.  1.
</event>
<event>
 7    1  0.1400974E-009  0.4778727E+02  0.7816164E-02  0.1312668E+00
        -11   -1    0    0    0    0  0.00000000000E+00  0.00000000000E+00  0.45593999997E+02  0.45594000000E+02  0.51100000000E-03 0.  1.
         11   -1    0    0    0    0 -0.00000000000E+00 -0.00000000000E+00 -0.45593999997E+02  0.45594000000E+02  0.51100000000E-03 0. -1.
    9900012    2    1    2    0    0  0.24706848684E+02  0.35681856873E+02  0.62608475153E-02  0.47787270501E+02  0.19999997524E+02 0.  0.
        -12    1    1    2    0    0 -0.24706848684E+02 -0.35681856873E+02 -0.62608475153E-02  0.43400729499E+02  0.00000000000E+00 0.  1.
         11    1    3    3    0    0  0.81805677758E+01  0.19104026576E+02  0.47478400916E+01  0.21317305325E+02  0.51100000000E-03 0. -1.
        -11    1    3    3    0    0  0.24825791031E+01  0.43758363011E+01  0.34931638179E+01  0.61248131446E+01  0.51100000000E-03 0.  1.
        -12    1    3    3    0    0  0.14043701805E+02  0.12201993996E+02 -0.82347430619E+01  0.20345152031E+02  0.00000000000E+00 0.  1.
</event>
<event>
 7    1  0.1400974E-009  0.4778727E+02  0.7816164E-02  0.1312668E+00
        -11   -1    0    0    0    0  0.00000000000E+00  0.00000000000E+00  0.45593999997E+02  0.45594000000E+02  0.51100000000E-03 0.  1.
         11   -1    0    0    0    0 -0.00000000000E+00 -0.00000000000E+00 -0.45593999997E+02  0.45594000000E+02  0.51100000000E-03 0. -1.
    9900012    2    1    2    0    0 -0.87424031737E+01 -0.42498441004E+02  0.10374522281E+01  0.47787269497E+02  0.19999992946E+02 0.  0.
        -12    1    1    2    0    0  0.87424031737E+01  0.42498441004E+02 -0.10374522281E+01  0.43400730503E+02  0.00000000000E+00 0.  1.
         11    1    3    3    0    0 -0.35111875926E+01 -0.26701914851E+01  0.45412682290E+01  0.63309934660E+01  0.51100000000E-03 0.  1.
        -11    1    3    3    0    0 -0.35757476020E+01 -0.14195802371E+02 -0.56256312513E+01  0.15682936686E+02  0.51100000000E-03 0. -1.
        -12    1    3    3    0    0 -0.16554679791E+01 -0.25632447149E+02  0.21218152504E+01  0.25773339345E+02  0.00000000000E+00 0.  1.
</event>
<event>
 7    1  0.1400974E-009  0.4778727E+02  0.7816164E-02  0.1312668E+00
        -11   -1    0    0    0    0  0.00000000000E+00  0.00000000000E+00  0.45593999997E+02  0.45594000000E+02  0.51100000000E-03 0. -1.
         11   -1    0    0    0    0 -0.00000000000E+00 -0.00000000000E+00 -0.45593999997E+02  0.45594000000E+02  0.51100000000E-03 0.  1.
    9900012    2    1    2    0    0 -0.21273778907E+02 -0.30136338638E+02  0.22865931960E+02  0.47787269363E+02  0.19999992332E+02 0.  0.
        -12    1    1    2    0    0  0.21273778907E+02  0.30136338638E+02 -0.22865931960E+02  0.43400730637E+02  0.00000000000E+00 0.  1.
         11    1    3    3    0    0 -0.17931101992E+02 -0.25877422403E+02  0.14209996364E+02  0.34541126296E+02  0.51100000000E-03 0. -1.
        -11    1    3    3    0    0 -0.32787060477E+01  0.89725953071E+00  0.28079814866E+00  0.34108409336E+01  0.51100000000E-03 0.  1.
        -12    1    3    3    0    0 -0.63970867150E-01 -0.51561757662E+01  0.83751374467E+01  0.98353021333E+01  0.00000000000E+00 0.  1.
</event>
<event>
 7    1  0.1400974E-009  0.4778727E+02  0.7816164E-02  0.1312668E+00
        -11   -1    0    0    0    0  0.00000000000E+00  0.00000000000E+00  0.45593999997E+02  0.45594000000E+02  0.51100000000E-03 0.  1.
         11   -1    0    0    0    0 -0.00000000000E+00 -0.00000000000E+00 -0.45593999997E+02  0.45594000000E+02  0.51100000000E-03 0. -1.
    9900012    2    1    2    0    0 -0.96498896160E+01  0.14781898220E+02 -0.39648435048E+02  0.47787270901E+02  0.19999999344E+02 0.  0.
        -12    1    1    2    0    0  0.96498896160E+01 -0.14781898220E+02  0.39648435048E+02  0.43400729099E+02  0.00000000000E+00 0.  1.
         11    1    3    3    0    0 -0.42891528431E+01 -0.12116263498E+00 -0.44895906938E+01  0.62103089580E+01  0.51100000000E-03 0. -1.
        -11    1    3    3    0    0 -0.13561177071E+01  0.46568399712E+01 -0.12003613825E+00  0.48517649045E+01  0.51100000000E-03 0.  1.
        -12    1    3    3    0    0 -0.40046190658E+01  0.10246220883E+02 -0.35038808216E+02  0.36725197038E+02  0.00000000000E+00 0.  1.
</event>
<event>
 7    1  0.1400974E-009  0.4778727E+02  0.7816164E-02  0.1312668E+00
        -11   -1    0    0    0    0  0.00000000000E+00  0.00000000000E+00  0.45593999997E+02  0.45594000000E+02  0.51100000000E-03 0.  1.
         11   -1    0    0    0    0 -0.00000000000E+00 -0.00000000000E+00 -0.45593999997E+02  0.45594000000E+02  0.51100000000E-03 0. -1.
    9900012    2    1    2    0    0  0.28784157844E+02 -0.27695931628E+02 -0.16971474509E+02  0.47787270530E+02  0.19999997653E+02 0.  0.
        -12    1    1    2    0    0 -0.28784157844E+02  0.27695931628E+02  0.16971474509E+02  0.43400729470E+02  0.00000000000E+00 0.  1.
         11    1    3    3    0    0  0.26559241246E+01 -0.78127905162E+01 -0.73091697092E+01  0.11023501744E+02  0.51100000000E-03 0. -1.
        -11    1    3    3    0    0  0.35450009955E+01  0.49357377076E+00  0.21019055354E+01  0.41507414117E+01  0.51100000000E-03 0.  1.
         12    1    3    3    0    0  0.22583232724E+02 -0.20376714883E+02 -0.11764210335E+02  0.32613027374E+02  0.00000000000E+00 0. -1.
</event>
<event>
 7    1  0.1400974E-009  0.4778727E+02  0.7816164E-02  0.1312668E+00
        -11   -1    0    0    0    0  0.00000000000E+00  0.00000000000E+00  0.45593999997E+02  0.45594000000E+02  0.51100000000E-03 0.  1.
         11   -1    0    0    0    0 -0.00000000000E+00 -0.00000000000E+00 -0.45593999997E+02  0.45594000000E+02  0.51100000000E-03 0. -1.
    9900012    2    1    2    0    0  0.35014170619E+01  0.40669636564E+02 -0.14742581667E+02  0.47787274500E+02  0.20000015756E+02 0.  0.
        -12    1    1    2    0    0 -0.35014170619E+01 -0.40669636564E+02  0.14742581667E+02  0.43400725500E+02  0.00000000000E+00 0.  1.
         11    1    3    3    0    0  0.49155307285E+00  0.28855447676E+02 -0.13087843247E+02  0.31688643488E+02  0.51100000000E-03 0. -1.
        -11    1    3    3    0    0 -0.32277918548E+01  0.52413991234E+01  0.17804702445E+01  0.64078841735E+01  0.51100000000E-03 0.  1.
        -12    1    3    3    0    0  0.62376558439E+01  0.65727897651E+01 -0.34352086642E+01  0.96907468386E+01  0.00000000000E+00 0.  1.
</event>
<event>
 7    1  0.1400974E-009  0.4778727E+02  0.7816164E-02  0.1312668E+00
        -11   -1    0    0    0    0  0.00000000000E+00  0.00000000000E+00  0.45593999997E+02  0.45594000000E+02  0.51100000000E-03 0.  1.
         11   -1    0    0    0    0 -0.00000000000E+00 -0.00000000000E+00 -0.45593999997E+02  0.45594000000E+02  0.51100000000E-03 0. -1.
    9900012    2    1    2    0    0  0.27262482995E+02  0.32412677318E+02 -0.94762125417E+01  0.47787271503E+02  0.20000002090E+02 0.  0.
        -12    1    1    2    0    0 -0.27262482995E+02 -0.32412677318E+02  0.94762125417E+01  0.43400728497E+02  0.00000000000E+00 0.  1.
         11    1    3    3    0    0  0.26756773296E+02  0.24485776449E+02 -0.15640270189E+01  0.36303227767E+02  0.51100000000E-03 0. -1.
        -11    1    3    3    0    0  0.14819563695E+01  0.37115781459E+01 -0.37704753723E+01  0.54944055009E+01  0.51100000000E-03 0.  1.
         12    1    3    3    0    0 -0.97624667029E+00  0.42153227227E+01 -0.41417101505E+01  0.59896382352E+01  0.00000000000E+00 0. -1.
</event>
<event>
 7    1  0.1400974E-009  0.4778727E+02  0.7816164E-02  0.1312668E+00
        -11   -1    0    0    0    0  0.00000000000E+00  0.00000000000E+00  0.45593999997E+02  0.45594000000E+02  0.51100000000E-03 0. -1.
         11   -1    0    0    0    0 -0.00000000000E+00 -0.00000000000E+00 -0.45593999997E+02  0.45594000000E+02  0.51100000000E-03 0.  1.
    9900012    2    1    2    0    0  0.37057946957E+02 -0.18376695449E+02 -0.13138833286E+02  0.47787270646E+02  0.19999998183E+02 0.  0.
        -12    1    1    2    0    0 -0.37057946957E+02  0.18376695449E+02  0.13138833286E+02  0.43400729354E+02  0.00000000000E+00 0.  1.
         11    1    3    3    0    0  0.26552369454E+02 -0.13750323389E+02 -0.68922274742E+01  0.30685542472E+02  0.51100000000E-03 0. -1.
        -11    1    3    3    0    0  0.68637705533E+01 -0.63592347032E+01 -0.83608357700E+01  0.12548098950E+02  0.51100000000E-03 0.  1.
        -12    1    3    3    0    0  0.36418069497E+01  0.17328626434E+01  0.21142299579E+01  0.45536292246E+01  0.00000000000E+00 0.  1.
</event>
<event>
 7    1  0.1400974E-009  0.4778727E+02  0.7816164E-02  0.1312668E+00
        -11   -1    0    0    0    0  0.00000000000E+00  0.00000000000E+00  0.45593999997E+02  0.45594000000E+02  0.51100000000E-03 0.  1.
         11   -1    0    0    0    0 -0.00000000000E+00 -0.00000000000E+00 -0.45593999997E+02  0.45594000000E+02  0.51100000000E-03 0. -1.
    9900012    2    1    2    0    0  0.11662561525E+02 -0.16565777431E+02 -0.38382065126E+02  0.47787271360E+02  0.20000001437E+02 0.  0.
        -12    1    1    2    0    0 -0.11662561525E+02  0.16565777431E+02  0.38382065126E+02  0.43400728640E+02  0.00000000000E+00 0.  1.
         11    1    3    3    0    0  0.11874998360E+02 -0.10963117492E+02 -0.19951291860E+02  0.25676050677E+02  0.51100000000E-03 0. -1.
        -11    1    3    3    0    0 -0.19807240172E+00 -0.85488772004E+01 -0.16513132031E+02  0.18595861470E+02  0.51100000000E-03 0.  1.
        -12    1    3    3    0    0 -0.14364433506E-01  0.29462172622E+01 -0.19176412350E+01  0.35153592134E+01  0.00000000000E+00 0.  1.
</event>
<event>
 7    1  0.1400974E-009  0.4778727E+02  0.7816164E-02  0.1312668E+00
        -11   -1    0    0    0    0  0.00000000000E+00  0.00000000000E+00  0.45593999997E+02  0.45594000000E+02  0.51100000000E-03 0. -1.
         11   -1    0    0    0    0 -0.00000000000E+00 -0.00000000000E+00 -0.45593999997E+02  0.45594000000E+02  0.51100000000E-03 0.  1.
    9900012    2    1    2    0    0  0.25139381219E+02 -0.22168328554E+02 -0.27571721627E+02  0.47787272904E+02  0.20000008477E+02 0.  0.
        -12    1    1    2    0    0 -0.25139381219E+02  0.22168328554E+02  0.27571721627E+02  0.43400727096E+02  0.00000000000E+00 0.  1.
         11    1    3    3    0    0 -0.17764988187E+01 -0.50432532828E+01 -0.93437384391E+01  0.10765491164E+02  0.51100000000E-03 0.  1.
        -11    1    3    3    0    0  0.10909384787E+02 -0.88181576471E+01 -0.98271647249E+01  0.17127397570E+02  0.51100000000E-03 0. -1.
        -12    1    3    3    0    0  0.16006495251E+02 -0.83069176244E+01 -0.84008184634E+01  0.19894384170E+02  0.00000000000E+00 0.  1.
</event>
<event>
 7    1  0.1400974E-009  0.4778727E+02  0.7816164E-02  0.1312668E+00
        -11   -1    0    0    0    0  0.00000000000E+00  0.00000000000E+00  0.45593999997E+02  0.45594000000E+02  0.51100000000E-03 0.  1.
         11   -1    0    0    0    0 -0.00000000000E+00 -0.00000000000E+00 -0.45593999997E+02  0.45594000000E+02  0.51100000000E-03 0. -1.
    9900012    2    1    2    0    0 -0.15130057062E+02 -0.35324135273E+02 -0.20172010303E+02  0.47787272366E+02  0.20000006027E+02 0.  0.
        -12    1    1    2    0    0  0.15130057062E+02  0.35324135273E+02  0.20172010303E+02  0.43400727634E+02  0.00000000000E+00 0.  1.
         11    1    3    3    0    0 -0.15251668696E+02 -0.31197614154E+02 -0.20349084777E+02  0.40249096617E+02  0.51100000000E-03 0. -1.
        -11    1    3    3    0    0 -0.13765973519E+01  0.87143567421E+00 -0.13344273745E+01  0.21059717668E+01  0.51100000000E-03 0.  1.
        -12    1    3    3    0    0  0.14982089861E+01 -0.49979567932E+01  0.15115018489E+01  0.54322039829E+01  0.00000000000E+00 0.  1.
</event>
<event>
 7    1  0.1400974E-009  0.4778727E+02  0.7816164E-02  0.1312668E+00
        -11   -1    0    0    0    0  0.00000000000E+00  0.00000000000E+00  0.45593999997E+02  0.45594000000E+02  0.51100000000E-03 0.  1.
         11   -1    0    0    0    0 -0.00000000000E+00 -0.00000000000E+00 -0.45593999997E+02  0.45594000000E+02  0.51100000000E-03 0. -1.
    9900012    2    1    2    0    0  0.14113152701E+01  0.33477126459E+02 -0.27584669392E+02  0.47787265073E+02  0.19999972774E+02 0.  0.
        -12    1    1    2    0    0 -0.14113152701E+01 -0.33477126459E+02  0.27584669392E+02  0.43400734927E+02  0.00000000000E+00 0.  1.
         11    1    3    3    0    0 -0.56878070826E+01  0.14703870672E+02 -0.11990571515E+02  0.19807290771E+02  0.51100000000E-03 0. -1.
        -11    1    3    3    0    0  0.29841096522E+01  0.13714446102E+01 -0.78196171256E+01  0.84812842770E+01  0.51100000000E-03 0.  1.
        -12    1    3    3    0    0  0.41150127005E+01  0.17401811177E+02 -0.77744807510E+01  0.19498690025E+02  0.00000000000E+00 0.  1.
</event>
<event>
 7    1  0.1400974E-009  0.4778727E+02  0.7816164E-02  0.1312668E+00
        -11   -1    0    0    0    0  0.00000000000E+00  0.00000000000E+00  0.45593999997E+02  0.45594000000E+02  0.51100000000E-03 0.  1.
         11   -1    0    0    0    0 -0.00000000000E+00 -0.00000000000E+00 -0.45593999997E+02  0.45594000000E+02  0.51100000000E-03 0. -1.
    9900012    2    1    2    0    0 -0.26413225780E+02  0.22277416639E+02 -0.26261783566E+02  0.47787273460E+02  0.20000011012E+02 0.  0.
        -12    1    1    2    0    0  0.26413225780E+02 -0.22277416639E+02  0.26261783566E+02  0.43400726540E+02  0.00000000000E+00 0.  1.
         11    1    3    3    0    0 -0.17110929696E+01  0.50847854595E+01 -0.93227334869E+01  0.10756218771E+02  0.51100000000E-03 0. -1.
        -11    1    3    3    0    0 -0.11526989650E+02  0.33868928697E+00 -0.62494368081E+01  0.13116465283E+02  0.51100000000E-03 0.  1.
         12    1    3    3    0    0 -0.13175143160E+02  0.16853941892E+02 -0.10689613271E+02  0.23914589406E+02  0.00000000000E+00 0. -1.
</event>
<event>
 7    1  0.1400974E-009  0.4778727E+02  0.7816164E-02  0.1312668E+00
        -11   -1    0    0    0    0  0.00000000000E+00  0.00000000000E+00  0.45593999997E+02  0.45594000000E+02  0.51100000000E-03 0.  1.
         11   -1    0    0    0    0 -0.00000000000E+00 -0.00000000000E+00 -0.45593999997E+02  0.45594000000E+02  0.51100000000E-03 0. -1.
    9900012    2    1    2    0    0 -0.34929714999E+02 -0.23574341017E+02  0.10382129269E+02  0.47787272444E+02  0.20000006379E+02 0.  0.
        -12    1    1    2    0    0  0.34929714999E+02  0.23574341017E+02 -0.10382129269E+02  0.43400727556E+02  0.00000000000E+00 0.  1.
         11    1    3    3    0    0 -0.64191396297E+01 -0.89097158237E+01  0.46282050220E+01  0.11916739136E+02  0.51100000000E-03 0. -1.
        -11    1    3    3    0    0 -0.11586197447E+02  0.18802395294E+01  0.18256427388E+01  0.11878899092E+02  0.51100000000E-03 0.  1.
         12    1    3    3    0    0 -0.16924377922E+02 -0.16544864722E+02  0.39282815086E+01  0.23991634216E+02  0.00000000000E+00 0. -1.
</event>
<event>
 7    1  0.1400974E-009  0.4778728E+02  0.7816164E-02  0.1312668E+00
        -11   -1    0    0    0    0  0.00000000000E+00  0.00000000000E+00  0.45593999997E+02  0.45594000000E+02  0.51100000000E-03 0.  1.
         11   -1    0    0    0    0 -0.00000000000E+00 -0.00000000000E+00 -0.45593999997E+02  0.45594000000E+02  0.51100000000E-03 0. -1.
    9900012    2    1    2    0    0 -0.26076314989E+02  0.10279002104E+02 -0.33135944135E+02  0.47787275567E+02  0.20000020619E+02 0.  0.
        -12    1    1    2    0    0  0.26076314989E+02 -0.10279002104E+02  0.33135944135E+02  0.43400724433E+02  0.00000000000E+00 0.  1.
         11    1    3    3    0    0 -0.97687828624E+01  0.54017859468E+01 -0.16910045369E+02  0.20262231977E+02  0.51100000000E-03 0. -1.
        -11    1    3    3    0    0  0.18337169893E+01  0.35818664512E+01 -0.34276784088E+01  0.52859497545E+01  0.51100000000E-03 0.  1.
         12    1    3    3    0    0 -0.18141249115E+02  0.12953497056E+01 -0.12798220357E+02  0.22239093836E+02  0.00000000000E+00 0. -1.
</event>
<event>
 7    1  0.1400974E-009  0.4778727E+02  0.7816164E-02  0.1312668E+00
        -11   -1    0    0    0    0  0.00000000000E+00  0.00000000000E+00  0.45593999997E+02  0.45594000000E+02  0.51100000000E-03 0.  1.
         11   -1    0    0    0    0 -0.00000000000E+00 -0.00000000000E+00 -0.45593999997E+02  0.45594000000E+02  0.51100000000E-03 0. -1.
    9900012    2    1    2    0    0  0.83279315259E+01 -0.36046144918E+02 -0.22692379568E+02  0.47787273078E+02  0.20000009270E+02 0.  0.
        -12    1    1    2    0    0 -0.83279315259E+01  0.36046144918E+02  0.22692379568E+02  0.43400726922E+02  0.00000000000E+00 0.  1.
         11    1    3    3    0    0 -0.13969615514E+01 -0.41194148631E+01 -0.78697031070E+01  0.89918467316E+01  0.51100000000E-03 0. -1.
        -11    1    3    3    0    0  0.54328101773E+01 -0.80771230616E+01 -0.10248771465E+02  0.14134803153E+02  0.51100000000E-03 0.  1.
        -12    1    3    3    0    0  0.42920829000E+01 -0.23849606993E+02 -0.45739049961E+01  0.24660623193E+02  0.00000000000E+00 0.  1.
</event>
<event>
 7    1  0.1400974E-009  0.4778728E+02  0.7816164E-02  0.1312668E+00
        -11   -1    0    0    0    0  0.00000000000E+00  0.00000000000E+00  0.45593999997E+02  0.45594000000E+02  0.51100000000E-03 0.  1.
         11   -1    0    0    0    0 -0.00000000000E+00 -0.00000000000E+00 -0.45593999997E+02  0.45594000000E+02  0.51100000000E-03 0. -1.
    9900012    2    1    2    0    0  0.14262689349E+02 -0.37569114210E+01 -0.40817694568E+02  0.47787275574E+02  0.20000020652E+02 0.  0.
        -12    1    1    2    0    0 -0.14262689349E+02  0.37569114210E+01  0.40817694568E+02  0.43400724426E+02  0.00000000000E+00 0.  1.
         11    1    3    3    0    0 -0.20177690970E+01  0.21145099084E+01 -0.11323927701E+02  0.11695036687E+02  0.51100000000E-03 0. -1.
        -11    1    3    3    0    0  0.11325167886E+02 -0.13605645251E+01 -0.89966196749E+01  0.14527550699E+02  0.51100000000E-03 0.  1.
         12    1    3    3    0    0  0.49552905599E+01 -0.45108568043E+01 -0.20497147192E+02  0.21564688188E+02  0.00000000000E+00 0. -1.
</event>
<event>
 7    1  0.1880918E-009  0.4778727E+02  0.7816164E-02  0.1312668E+00
        -11   -1    0    0    0    0  0.00000000000E+00  0.00000000000E+00  0.45593999997E+02  0.45594000000E+02  0.51100000000E-03 0.  1.
         11   -1    0    0    0    0 -0.00000000000E+00 -0.00000000000E+00 -0.45593999997E+02  0.45594000000E+02  0.51100000000E-03 0. -1.
    9900012    2    1    2    0    0  0.42953435104E+02 -0.56182070750E+01  0.26573454213E+01  0.47787270482E+02  0.19999997438E+02 0.  0.
        -12    1    1    2    0    0 -0.42953435104E+02  0.56182070750E+01 -0.26573454213E+01  0.43400729518E+02  0.00000000000E+00 0.  1.
         11    1    3    3    0    0  0.22735477983E+02  0.60544309648E+00  0.37810394474E+01  0.23055688669E+02  0.51100000000E-03 0. -1.
        -11    1    3    3    0    0  0.82112016833E+01  0.80788503376E+00 -0.57631323516E+01  0.10064303556E+02  0.51100000000E-03 0.  1.
         12    1    3    3    0    0  0.12006755438E+02 -0.70315352052E+01  0.46394383255E+01  0.14667278257E+02  0.00000000000E+00 0. -1.
</event>
<event>
 7    1  0.1400974E-009  0.4778727E+02  0.7816164E-02  0.1312668E+00
        -11   -1    0    0    0    0  0.00000000000E+00  0.00000000000E+00  0.45593999997E+02  0.45594000000E+02  0.51100000000E-03 0. -1.
         11   -1    0    0    0    0 -0.00000000000E+00 -0.00000000000E+00 -0.45593999997E+02  0.45594000000E+02  0.51100000000E-03 0.  1.
    9900012    2    1    2    0    0 -0.24375483748E+01  0.28574761460E+02  0.32575520772E+02  0.47787272032E+02  0.20000004505E+02 0.  0.
        -12    1    1    2    0    0  0.24375483748E+01 -0.28574761460E+02 -0.32575520772E+02  0.43400727968E+02  0.00000000000E+00 0.  1.
         11    1    3    3    0    0 -0.19396141235E+01  0.15459710407E+02  0.23299364100E+02  0.28029004915E+02  0.51100000000E-03 0. -1.
        -11    1    3    3    0    0 -0.48936099171E+01  0.10444461366E+02  0.35648746135E+01  0.12072386778E+02  0.51100000000E-03 0.  1.
         12    1    3    3    0    0  0.43956756659E+01  0.26705896862E+01  0.57112820585E+01  0.76858803389E+01  0.00000000000E+00 0. -1.
</event>
<event>
 7    1  0.1400974E-009  0.4778727E+02  0.7816164E-02  0.1312668E+00
        -11   -1    0    0    0    0  0.00000000000E+00  0.00000000000E+00  0.45593999997E+02  0.45594000000E+02  0.51100000000E-03 0.  1.
         11   -1    0    0    0    0 -0.00000000000E+00 -0.00000000000E+00 -0.45593999997E+02  0.45594000000E+02  0.51100000000E-03 0. -1.
    9900012    2    1    2    0    0 -0.25904223568E+02  0.14304913229E+01 -0.34792932325E+02  0.47787271390E+02  0.20000001577E+02 0.  0.
        -12    1    1    2    0    0  0.25904223568E+02 -0.14304913229E+01  0.34792932325E+02  0.43400728610E+02  0.00000000000E+00 0.  1.
         11    1    3    3    0    0 -0.26918448459E+02 -0.65846455286E+00 -0.31666968510E+02  0.41567214699E+02  0.51100000000E-03 0. -1.
        -11    1    3    3    0    0  0.19614527355E+01  0.57334331322E+00 -0.37961748054E+01  0.43112600017E+01  0.51100000000E-03 0.  1.
        -12    1    3    3    0    0 -0.94722784481E+00  0.15156125625E+01  0.67021099039E+00  0.19087966894E+01  0.00000000000E+00 0.  1.
</event>
<event>
 7    1  0.1400974E-009  0.4778727E+02  0.7816164E-02  0.1312668E+00
        -11   -1    0    0    0    0  0.00000000000E+00  0.00000000000E+00  0.45593999997E+02  0.45594000000E+02  0.51100000000E-03 0.  1.
         11   -1    0    0    0    0 -0.00000000000E+00 -0.00000000000E+00 -0.45593999997E+02  0.45594000000E+02  0.51100000000E-03 0. -1.
    9900012    2    1    2    0    0  0.10610316452E+02  0.72433604622E+01 -0.41455733783E+02  0.47787274781E+02  0.20000017038E+02 0.  0.
        -12    1    1    2    0    0 -0.10610316452E+02 -0.72433604622E+01  0.41455733783E+02  0.43400725219E+02  0.00000000000E+00 0.  1.
         11    1    3    3    0    0  0.27824851905E+01 -0.19894731397E+01 -0.23158132468E+02  0.23409385444E+02  0.51100000000E-03 0. -1.
        -11    1    3    3    0    0  0.19722449975E+01 -0.23449256208E+01 -0.44396158587E+01  0.53943132771E+01  0.51100000000E-03 0.  1.
        -12    1    3    3    0    0  0.58555862640E+01  0.11577759223E+02 -0.13857985457E+02  0.18983576060E+02  0.00000000000E+00 0.  1.
</event>
<event>
 7    1  0.1400974E-009  0.4778727E+02  0.7816164E-02  0.1312668E+00
        -11   -1    0    0    0    0  0.00000000000E+00  0.00000000000E+00  0.45593999997E+02  0.45594000000E+02  0.51100000000E-03 0.  1.
         11   -1    0    0    0    0 -0.00000000000E+00 -0.00000000000E+00 -0.45593999997E+02  0.45594000000E+02  0.51100000000E-03 0. -1.
    9900012    2    1    2    0    0 -0.19450492690E+02  0.38280000622E+02 -0.63200449141E+01  0.47787273264E+02  0.20000010120E+02 0.  0.
        -12    1    1    2    0    0  0.19450492690E+02 -0.38280000622E+02  0.63200449141E+01  0.43400726736E+02  0.00000000000E+00 0.  1.
         11    1    3    3    0    0 -0.10014023873E+02  0.16402665179E+02 -0.34625604850E+01  0.19527350678E+02  0.51100000000E-03 0. -1.
        -11    1    3    3    0    0 -0.16441533153E+01  0.10774315394E+02  0.56214719080E+01  0.12263362468E+02  0.51100000000E-03 0.  1.
         12    1    3    3    0    0 -0.77923155018E+01  0.11103020048E+02 -0.84789563372E+01  0.15996560119E+02  0.00000000000E+00 0. -1.
</event>
<event>
 7    1  0.1400974E-009  0.4778727E+02  0.7816164E-02  0.1312668E+00
        -11   -1    0    0    0    0  0.00000000000E+00  0.00000000000E+00  0.45593999997E+02  0.45594000000E+02  0.51100000000E-03 0. -1.
         11   -1    0    0    0    0 -0.00000000000E+00 -0.00000000000E+00 -0.45593999997E+02  0.45594000000E+02  0.51100000000E-03 0.  1.
    9900012    2    1    2    0    0  0.16190073701E+02  0.27128772043E+02  0.29757930940E+02  0.47787271748E+02  0.20000003209E+02 0.  0.
        -12    1    1    2    0    0 -0.16190073701E+02 -0.27128772043E+02 -0.29757930940E+02  0.43400728252E+02  0.00000000000E+00 0.  1.
         11    1    3    3    0    0 -0.93822183363E+00 -0.14049624683E+01  0.76129106009E+00  0.18530364502E+01  0.51100000000E-03 0. -1.
        -11    1    3    3    0    0  0.47740174728E+01  0.53912514250E+01  0.52630088750E+00  0.72203758658E+01  0.51100000000E-03 0.  1.
         12    1    3    3    0    0  0.12354278062E+02  0.23142483086E+02  0.28470338992E+02  0.38713859432E+02  0.00000000000E+00 0. -1.
</event>
<event>
 7    1  0.1400974E-009  0.4778727E+02  0.7816164E-02  0.1312668E+00
        -11   -1    0    0    0    0  0.00000000000E+00  0.00000000000E+00  0.45593999997E+02  0.45594000000E+02  0.51100000000E-03 0.  1.
         11   -1    0    0    0    0 -0.00000000000E+00 -0.00000000000E+00 -0.45593999997E+02  0.45594000000E+02  0.51100000000E-03 0. -1.
    9900012    2    1    2    0    0 -0.42218280348E+02 -0.49408822431E+01 -0.87651306151E+01  0.47787273882E+02  0.20000012936E+02 0.  0.
        -12    1    1    2    0    0  0.42218280348E+02  0.49408822431E+01  0.87651306151E+01  0.43400726118E+02  0.00000000000E+00 0.  1.
         11    1    3    3    0    0 -0.32329760588E+02 -0.63556563245E+01 -0.13362540235E+02  0.35555101867E+02  0.51100000000E-03 0. -1.
        -11    1    3    3    0    0 -0.87191242877E+01 -0.48656742238E+00  0.23033630362E+01  0.90313541476E+01  0.51100000000E-03 0.  1.
         12    1    3    3    0    0 -0.11693954725E+01  0.19013415038E+01  0.22940465841E+01  0.32008178666E+01  0.00000000000E+00 0. -1.
</event>
<event>
 7    1  0.1400974E-009  0.4778727E+02  0.7816164E-02  0.1312668E+00
        -11   -1    0    0    0    0  0.00000000000E+00  0.00000000000E+00  0.45593999997E+02  0.45594000000E+02  0.51100000000E-03 0.  1.
         11   -1    0    0    0    0 -0.00000000000E+00 -0.00000000000E+00 -0.45593999997E+02  0.45594000000E+02  0.51100000000E-03 0. -1.
    9900012    2    1    2    0    0  0.24921578159E+01 -0.18905603808E+02 -0.38987056822E+02  0.47787270680E+02  0.19999998338E+02 0.  0.
        -12    1    1    2    0    0 -0.24921578159E+01  0.18905603808E+02  0.38987056822E+02  0.43400729320E+02  0.00000000000E+00 0.  1.
         11    1    3    3    0    0 -0.19688573903E+01 -0.11381738231E+02 -0.24150368631E+02  0.26770518670E+02  0.51100000000E-03 0.  1.
        -11    1    3    3    0    0  0.54759369916E+01 -0.10420413507E+02 -0.11082657951E+02  0.16167752197E+02  0.51100000000E-03 0. -1.
        -12    1    3    3    0    0 -0.10149217854E+01  0.28965479303E+01 -0.37540302402E+01  0.48489998131E+01  0.00000000000E+00 0.  1.
</event>
<event>
 7    1  0.1400974E-009  0.4778726E+02  0.7816164E-02  0.1312668E+00
        -11   -1    0    0    0    0  0.00000000000E+00  0.00000000000E+00  0.45593999997E+02  0.45594000000E+02  0.51100000000E-03 0.  1.
         11   -1    0    0    0    0 -0.00000000000E+00 -0.00000000000E+00 -0.45593999997E+02  0.45594000000E+02  0.51100000000E-03 0. -1.
    9900012    2    1    2    0    0  0.47774279849E+01 -0.19148392844E+02 -0.38654098870E+02  0.47787261226E+02  0.19999955234E+02 0.  0.
        -12    1    1    2    0    0 -0.47774279849E+01  0.19148392844E+02  0.38654098870E+02  0.43400738774E+02  0.00000000000E+00 0.  1.
         11    1    3    3    0    0 -0.56226985927E-01 -0.26735490701E+01 -0.98753246440E+01  0.10230985446E+02  0.51100000000E-03 0. -1.
        -11    1    3    3    0    0 -0.43411962020E+01 -0.25250092382E+00 -0.10877412307E+02  0.11714428707E+02  0.51100000000E-03 0.  1.
         12    1    3    3    0    0  0.91748511728E+01 -0.16222342850E+02 -0.17901361919E+02  0.25841847073E+02  0.00000000000E+00 0. -1.
</event>
<event>
 7    1  0.1400974E-009  0.4778722E+02  0.7816164E-02  0.1312668E+00
        -11   -1    0    0    0    0  0.00000000000E+00  0.00000000000E+00  0.45593999997E+02  0.45594000000E+02  0.51100000000E-03 0. -1.
         11   -1    0    0    0    0 -0.00000000000E+00 -0.00000000000E+00 -0.45593999997E+02  0.45594000000E+02  0.51100000000E-03 0.  1.
    9900012    2    1    2    0    0  0.34871064541E+02 -0.20919722045E+02  0.15165803575E+02  0.47787222234E+02  0.19999777452E+02 0.  0.
        -12    1    1    2    0    0 -0.34871064541E+02  0.20919722045E+02 -0.15165803575E+02  0.43400777766E+02  0.00000000000E+00 0.  1.
         11    1    3    3    0    0  0.11852498674E+02 -0.13692347953E+02  0.63173791580E+01  0.19179973852E+02  0.51100000000E-03 0. -1.
        -11    1    3    3    0    0  0.61685804428E+00  0.26953903891E+00  0.45462449871E+01  0.45958142787E+01  0.51100000000E-03 0.  1.
         12    1    3    3    0    0  0.22401707822E+02 -0.74969131309E+01  0.43021794297E+01  0.24011434103E+02  0.00000000000E+00 0. -1.
</event>
<event>
 7    1  0.1400974E-009  0.4778727E+02  0.7816164E-02  0.1312668E+00
        -11   -1    0    0    0    0  0.00000000000E+00  0.00000000000E+00  0.45593999997E+02  0.45594000000E+02  0.51100000000E-03 0. -1.
         11   -1    0    0    0    0 -0.00000000000E+00 -0.00000000000E+00 -0.45593999997E+02  0.45594000000E+02  0.51100000000E-03 0.  1.
    9900012    2    1    2    0    0  0.29328421939E+02  0.11470966602E+02  0.29864420774E+02  0.47787273781E+02  0.20000012476E+02 0.  0.
        -12    1    1    2    0    0 -0.29328421939E+02 -0.11470966602E+02 -0.29864420774E+02  0.43400726219E+02  0.00000000000E+00 0.  1.
         11    1    3    3    0    0  0.14271022902E+02  0.12648817397E+02  0.24259771214E+02  0.30857595108E+02  0.51100000000E-03 0. -1.
        -11    1    3    3    0    0  0.11590701260E+01 -0.12807923824E+01 -0.42578570608E+00  0.17790914570E+01  0.51100000000E-03 0.  1.
         12    1    3    3    0    0  0.13898328911E+02  0.10294158733E+00  0.60304352654E+01  0.15150587216E+02  0.00000000000E+00 0. -1.
</event>
<event>
 7    1  0.1400974E-009  0.4778727E+02  0.7816164E-02  0.1312668E+00
        -11   -1    0    0    0    0  0.00000000000E+00  0.00000000000E+00  0.45593999997E+02  0.45594000000E+02  0.51100000000E-03 0.  1.
         11   -1    0    0    0    0 -0.00000000000E+00 -0.00000000000E+00 -0.45593999997E+02  0.45594000000E+02  0.51100000000E-03 0. -1.
    9900012    2    1    2    0    0  0.14023080042E+01 -0.43121485885E+02 -0.47110836969E+01  0.47787270487E+02  0.19999997459E+02 0.  0.
        -12    1    1    2    0    0 -0.14023080042E+01  0.43121485885E+02  0.47110836969E+01  0.43400729513E+02  0.00000000000E+00 0.  1.
         11    1    3    3    0    0  0.37622447980E+00 -0.21869997396E+02 -0.15655901963E+01  0.21929190680E+02  0.51100000000E-03 0. -1.
        -11    1    3    3    0    0  0.24038233462E+00 -0.19015514696E+01  0.46134103654E+01  0.49957218816E+01  0.51100000000E-03 0.  1.
         12    1    3    3    0    0  0.78570118974E+00 -0.19349937020E+02 -0.77589038660E+01  0.20862357926E+02  0.00000000000E+00 0. -1.
</event>
<event>
 7    1  0.1400974E-009  0.4778727E+02  0.7816164E-02  0.1312668E+00
        -11   -1    0    0    0    0  0.00000000000E+00  0.00000000000E+00  0.45593999997E+02  0.45594000000E+02  0.51100000000E-03 0.  1.
         11   -1    0    0    0    0 -0.00000000000E+00 -0.00000000000E+00 -0.45593999997E+02  0.45594000000E+02  0.51100000000E-03 0. -1.
    9900012    2    1    2    0    0  0.23199826612E+02 -0.23672064000E+02 -0.28018290157E+02  0.47787272447E+02  0.20000006393E+02 0.  0.
        -12    1    1    2    0    0 -0.23199826612E+02  0.23672064000E+02  0.28018290157E+02  0.43400727553E+02  0.00000000000E+00 0.  1.
         11    1    3    3    0    0  0.19071077246E+02 -0.22000070021E+02 -0.13114652254E+02  0.31932791488E+02  0.51100000000E-03 0. -1.
        -11    1    3    3    0    0  0.80267644688E-01  0.65927555184E+00 -0.28695268343E+01  0.29453814119E+01  0.51100000000E-03 0.  1.
         12    1    3    3    0    0  0.40484817216E+01 -0.23312695310E+01 -0.12034111069E+02  0.12909099547E+02  0.00000000000E+00 0. -1.
</event>
<event>
 7    1  0.1400974E-009  0.4778725E+02  0.7816164E-02  0.1312668E+00
        -11   -1    0    0    0    0  0.00000000000E+00  0.00000000000E+00  0.45593999997E+02  0.45594000000E+02  0.51100000000E-03 0.  1.
         11   -1    0    0    0    0 -0.00000000000E+00 -0.00000000000E+00 -0.45593999997E+02  0.45594000000E+02  0.51100000000E-03 0. -1.
    9900012    2    1    2    0    0  0.31451246603E+02 -0.37431507813E+01 -0.29672084617E+02  0.47787254659E+02  0.19999925291E+02 0.  0.
        -12    1    1    2    0    0 -0.31451246603E+02  0.37431507813E+01  0.29672084617E+02  0.43400745341E+02  0.00000000000E+00 0.  1.
         11    1    3    3    0    0  0.40255451744E+01 -0.50745877172E+01 -0.91880714405E+01  0.11241757492E+02  0.51100000000E-03 0. -1.
        -11    1    3    3    0    0  0.81928752005E+01  0.56823384631E+01 -0.36476740918E+01  0.10616859281E+02  0.51100000000E-03 0.  1.
         12    1    3    3    0    0  0.19232826228E+02 -0.43509015273E+01 -0.16836339085E+02  0.25928637885E+02  0.00000000000E+00 0. -1.
</event>
<event>
 7    1  0.1400974E-009  0.4778728E+02  0.7816164E-02  0.1312668E+00
        -11   -1    0    0    0    0  0.00000000000E+00  0.00000000000E+00  0.45593999997E+02  0.45594000000E+02  0.51100000000E-03 0. -1.
         11   -1    0    0    0    0 -0.00000000000E+00 -0.00000000000E+00 -0.45593999997E+02  0.45594000000E+02  0.51100000000E-03 0.  1.
    9900012    2    1    2    0    0 -0.39354748780E+02  0.18281417305E+02  0.78509429809E+00  0.47787276005E+02  0.20000022616E+02 0.  0.
        -12    1    1    2    0    0  0.39354748780E+02 -0.18281417305E+02 -0.78509429809E+00  0.43400723995E+02  0.00000000000E+00 0.  1.
         11    1    3    3    0    0 -0.97136217520E+01  0.75230018465E+01  0.75766254314E+01  0.14434516186E+02  0.51100000000E-03 0. -1.
        -11    1    3    3    0    0 -0.60088827072E+01 -0.10490699559E+01 -0.24836951979E+01  0.65860429135E+01  0.51100000000E-03 0.  1.
        -12    1    3    3    0    0 -0.23632244321E+02  0.11807485414E+02 -0.43078359354E+01  0.26766716906E+02  0.00000000000E+00 0.  1.
</event>
<event>
 7    1  0.1400974E-009  0.4778727E+02  0.7816164E-02  0.1312668E+00
        -11   -1    0    0    0    0  0.00000000000E+00  0.00000000000E+00  0.45593999997E+02  0.45594000000E+02  0.51100000000E-03 0. -1.
         11   -1    0    0    0    0 -0.00000000000E+00 -0.00000000000E+00 -0.45593999997E+02  0.45594000000E+02  0.51100000000E-03 0.  1.
    9900012    2    1    2    0    0 -0.33093725938E+02  0.26863753828E+02  0.81711239002E+01  0.47787271527E+02  0.20000002202E+02 0.  0.
        -12    1    1    2    0    0  0.33093725938E+02 -0.26863753828E+02 -0.81711239002E+01  0.43400728473E+02  0.00000000000E+00 0.  1.
         11    1    3    3    0    0 -0.29061976435E+01  0.10115065252E+02 -0.94423402428E+00  0.10566556106E+02  0.51100000000E-03 0. -1.
        -11    1    3    3    0    0 -0.76026000550E+01  0.30244899515E+01  0.68946796757E+01  0.10699704442E+02  0.51100000000E-03 0.  1.
         12    1    3    3    0    0 -0.22584928239E+02  0.13724198624E+02  0.22206782487E+01  0.26521010979E+02  0.00000000000E+00 0. -1.
</event>
<event>
 7    1  0.1400974E-009  0.4778727E+02  0.7816164E-02  0.1312668E+00
        -11   -1    0    0    0    0  0.00000000000E+00  0.00000000000E+00  0.45593999997E+02  0.45594000000E+02  0.51100000000E-03 0.  1.
         11   -1    0    0    0    0 -0.00000000000E+00 -0.00000000000E+00 -0.45593999997E+02  0.45594000000E+02  0.51100000000E-03 0. -1.
    9900012    2    1    2    0    0 -0.36359050888E+02  0.79298214964E+01 -0.22332943431E+02  0.47787274052E+02  0.20000013715E+02 0.  0.
        -12    1    1    2    0    0  0.36359050888E+02 -0.79298214964E+01  0.22332943431E+02  0.43400725948E+02  0.00000000000E+00 0.  1.
         11    1    3    3    0    0 -0.34010533596E+02  0.11332794005E+02 -0.18955662321E+02  0.40552012893E+02  0.51100000000E-03 0. -1.
        -11    1    3    3    0    0 -0.10640668105E+01 -0.75663480851E+00  0.12137640028E+01  0.17826827329E+01  0.51100000000E-03 0.  1.
         12    1    3    3    0    0 -0.12844504821E+01 -0.26463376996E+01 -0.45910451135E+01  0.54525784264E+01  0.00000000000E+00 0. -1.
</event>
<event>
 7    1  0.1400974E-009  0.4778727E+02  0.7816164E-02  0.1312668E+00
        -11   -1    0    0    0    0  0.00000000000E+00  0.00000000000E+00  0.45593999997E+02  0.45594000000E+02  0.51100000000E-03 0. -1.
         11   -1    0    0    0    0 -0.00000000000E+00 -0.00000000000E+00 -0.45593999997E+02  0.45594000000E+02  0.51100000000E-03 0.  1.
    9900012    2    1    2    0    0 -0.12926599848E+01  0.42969548775E+02  0.59640754929E+01  0.47787270878E+02  0.19999999243E+02 0.  0.
        -12    1    1    2    0    0  0.12926599848E+01 -0.42969548775E+02 -0.59640754929E+01  0.43400729122E+02  0.00000000000E+00 0.  1.
         11    1    3    3    0    0 -0.39335807751E+01  0.16598029149E+02  0.69597445115E+01  0.18422965920E+02  0.51100000000E-03 0. -1.
        -11    1    3    3    0    0  0.65492919063E+01  0.15166892731E+02  0.31035546781E+01  0.16809518479E+02  0.51100000000E-03 0.  1.
        -12    1    3    3    0    0 -0.39083711161E+01  0.11204626895E+02 -0.40992236967E+01  0.12554786480E+02  0.00000000000E+00 0.  1.
</event>
<event>
 7    1  0.1400974E-009  0.4778729E+02  0.7816164E-02  0.1312668E+00
        -11   -1    0    0    0    0  0.00000000000E+00  0.00000000000E+00  0.45593999997E+02  0.45594000000E+02  0.51100000000E-03 0.  1.
         11   -1    0    0    0    0 -0.00000000000E+00 -0.00000000000E+00 -0.45593999997E+02  0.45594000000E+02  0.51100000000E-03 0. -1.
    9900012    2    1    2    0    0  0.35781944473E+02  0.50532326583E+01 -0.24036200608E+02  0.47787289750E+02  0.20000085286E+02 0.  0.
        -12    1    1    2    0    0 -0.35781944473E+02 -0.50532326583E+01  0.24036200608E+02  0.43400710250E+02  0.00000000000E+00 0.  1.
         11    1    3    3    0    0  0.31485891629E+02  0.70663727320E+01 -0.23132343393E+02  0.39703907948E+02  0.51100000000E-03 0. -1.
        -11    1    3    3    0    0  0.12192891307E+01  0.13112756924E+01  0.20142872390E+01  0.26950813101E+01  0.51100000000E-03 0.  1.
        -12    1    3    3    0    0  0.30767637129E+01 -0.33244157661E+01 -0.29181444545E+01  0.53883004916E+01  0.00000000000E+00 0.  1.
</event>
<event>
 7    1  0.1400974E-009  0.4778727E+02  0.7816164E-02  0.1312668E+00
        -11   -1    0    0    0    0  0.00000000000E+00  0.00000000000E+00  0.45593999997E+02  0.45594000000E+02  0.51100000000E-03 0.  1.
         11   -1    0    0    0    0 -0.00000000000E+00 -0.00000000000E+00 -0.45593999997E+02  0.45594000000E+02  0.51100000000E-03 0. -1.
    9900012    2    1    2    0    0  0.25279654155E+02  0.33174741135E+02 -0.11999942319E+02  0.47787274439E+02  0.20000015476E+02 0.  0.
        -12    1    1    2    0    0 -0.25279654155E+02 -0.33174741135E+02  0.11999942319E+02  0.43400725561E+02  0.00000000000E+00 0.  1.
         11    1    3    3    0    0  0.73592564296E+01  0.11757505635E+02  0.37179203151E+01  0.14360380415E+02  0.51100000000E-03 0. -1.
        -11    1    3    3    0    0  0.12423659929E+02  0.18496527505E+02 -0.83817977380E+01  0.23805952814E+02  0.51100000000E-03 0.  1.
        -12    1    3    3    0    0  0.54967377970E+01  0.29207079952E+01 -0.73360648960E+01  0.96209412097E+01  0.00000000000E+00 0.  1.
</event>
<event>
 7    1  0.1400974E-009  0.4778727E+02  0.7816164E-02  0.1312668E+00
        -11   -1    0    0    0    0  0.00000000000E+00  0.00000000000E+00  0.45593999997E+02  0.45594000000E+02  0.51100000000E-03 0. -1.
         11   -1    0    0    0    0 -0.00000000000E+00 -0.00000000000E+00 -0.45593999997E+02  0.45594000000E+02  0.51100000000E-03 0.  1.
    9900012    2    1    2    0    0 -0.42727635631E+02 -0.62968528687E+01  0.42804203864E+01  0.47787271880E+02  0.20000003809E+02 0.  0.
        -12    1    1    2    0    0  0.42727635631E+02  0.62968528687E+01 -0.42804203864E+01  0.43400728120E+02  0.00000000000E+00 0.  1.
         11    1    3    3    0    0 -0.58419135898E+01  0.14482472768E+01  0.31594340664E+01  0.67976024042E+01  0.51100000000E-03 0. -1.
        -11    1    3    3    0    0 -0.90353662231E+01  0.24417330027E+00  0.69917499529E+01  0.11427249496E+02  0.51100000000E-03 0.  1.
        -12    1    3    3    0    0 -0.27850355818E+02 -0.79892734457E+01 -0.58707636329E+01  0.29562419979E+02  0.00000000000E+00 0.  1.
</event>
<event>
 7    1  0.1400974E-009  0.4778727E+02  0.7816164E-02  0.1312668E+00
        -11   -1    0    0    0    0  0.00000000000E+00  0.00000000000E+00  0.45593999997E+02  0.45594000000E+02  0.51100000000E-03 0.  1.
         11   -1    0    0    0    0 -0.00000000000E+00 -0.00000000000E+00 -0.45593999997E+02  0.45594000000E+02  0.51100000000E-03 0. -1.
    9900012    2    1    2    0    0 -0.25500801710E+02 -0.23276196798E+02 -0.26297356153E+02  0.47787272289E+02  0.20000005674E+02 0.  0.
        -12    1    1    2    0    0  0.25500801710E+02  0.23276196798E+02  0.26297356153E+02  0.43400727711E+02  0.00000000000E+00 0.  1.
         11    1    3    3    0    0 -0.18784270990E+02 -0.15485444946E+02 -0.23787657085E+02  0.34036751779E+02  0.51100000000E-03 0.  1.
        -11    1    3    3    0    0 -0.88488571235E+01 -0.61795025632E+01 -0.15150271579E+01  0.10898799561E+02  0.51100000000E-03 0. -1.
        -12    1    3    3    0    0  0.21323264036E+01 -0.16112492884E+01 -0.99467190991E+00  0.28517209487E+01  0.00000000000E+00 0.  1.
</event>
<event>
 7    1  0.1400974E-009  0.4778727E+02  0.7816164E-02  0.1312668E+00
        -11   -1    0    0    0    0  0.00000000000E+00  0.00000000000E+00  0.45593999997E+02  0.45594000000E+02  0.51100000000E-03 0.  1.
         11   -1    0    0    0    0 -0.00000000000E+00 -0.00000000000E+00 -0.45593999997E+02  0.45594000000E+02  0.51100000000E-03 0. -1.
    9900012    2    1    2    0    0 -0.31988035447E+02  0.24755486863E+02 -0.15733875796E+02  0.47787269717E+02  0.19999993946E+02 0.  0.
        -12    1    1    2    0    0  0.31988035447E+02 -0.24755486863E+02  0.15733875796E+02  0.43400730283E+02  0.00000000000E+00 0.  1.
         11    1    3    3    0    0 -0.15865726723E+02  0.66437163767E+01 -0.10574040367E+02  0.20190853912E+02  0.51100000000E-03 0. -1.
        -11    1    3    3    0    0 -0.13208723535E+02  0.83656901773E+01  0.10639306262E+01  0.15671218785E+02  0.51100000000E-03 0.  1.
         12    1    3    3    0    0 -0.29135851877E+01  0.97460803090E+01 -0.62237660557E+01  0.11925197019E+02  0.00000000000E+00 0. -1.
</event>
<event>
 7    1  0.1892922E-009  0.4778727E+02  0.7816164E-02  0.1312668E+00
        -11   -1    0    0    0    0  0.00000000000E+00  0.00000000000E+00  0.45593999997E+02  0.45594000000E+02  0.51100000000E-03 0.  1.
         11   -1    0    0    0    0 -0.00000000000E+00 -0.00000000000E+00 -0.45593999997E+02  0.45594000000E+02  0.51100000000E-03 0. -1.
    9900012    2    1    2    0    0  0.41552364763E+02  0.15569157661E+01  0.12433831030E+02  0.47787272377E+02  0.20000006077E+02 0.  0.
        -12    1    1    2    0    0 -0.41552364763E+02 -0.15569157661E+01 -0.12433831030E+02  0.43400727623E+02  0.00000000000E+00 0.  1.
         11    1    3    3    0    0  0.28664551453E+02  0.17830711343E+01  0.79226483111E+01  0.29792687177E+02  0.51100000000E-03 0. -1.
        -11    1    3    3    0    0  0.79276503988E+01 -0.18894745779E+01 -0.31333356497E+01  0.87312970160E+01  0.51100000000E-03 0.  1.
         12    1    3    3    0    0  0.49601629107E+01  0.16633192097E+01  0.76445183690E+01  0.92632881844E+01  0.00000000000E+00 0. -1.
</event>
<event>
 7    1  0.1400974E-009  0.4778727E+02  0.7816164E-02  0.1312668E+00
        -11   -1    0    0    0    0  0.00000000000E+00  0.00000000000E+00  0.45593999997E+02  0.45594000000E+02  0.51100000000E-03 0. -1.
         11   -1    0    0    0    0 -0.00000000000E+00 -0.00000000000E+00 -0.45593999997E+02  0.45594000000E+02  0.51100000000E-03 0.  1.
    9900012    2    1    2    0    0  0.32077961563E+02  0.14307667064E+02  0.25493498178E+02  0.47787269543E+02  0.19999993152E+02 0.  0.
        -12    1    1    2    0    0 -0.32077961563E+02 -0.14307667064E+02 -0.25493498178E+02  0.43400730457E+02  0.00000000000E+00 0.  1.
         11    1    3    3    0    0  0.15630648106E+01  0.57209024640E+01  0.37106622669E+01  0.69957781071E+01  0.51100000000E-03 0. -1.
        -11    1    3    3    0    0  0.19251421172E+02  0.63075190410E+01  0.21143061017E+02  0.29281923486E+02  0.51100000000E-03 0.  1.
        -12    1    3    3    0    0  0.11263475581E+02  0.22792455590E+01  0.63977489468E+00  0.11509567950E+02  0.00000000000E+00 0.  1.
</event>
<event>
 7    1  0.1400974E-009  0.4778727E+02  0.7816164E-02  0.1312668E+00
        -11   -1    0    0    0    0  0.00000000000E+00  0.00000000000E+00  0.45593999997E+02  0.45594000000E+02  0.51100000000E-03 0.  1.
         11   -1    0    0    0    0 -0.00000000000E+00 -0.00000000000E+00 -0.45593999997E+02  0.45594000000E+02  0.51100000000E-03 0. -1.
    9900012    2    1    2    0    0 -0.26775390478E+02 -0.10056584027E+02 -0.32643023425E+02  0.47787269639E+02  0.19999993593E+02 0.  0.
        -12    1    1    2    0    0  0.26775390478E+02  0.10056584027E+02  0.32643023425E+02  0.43400730361E+02  0.00000000000E+00 0.  1.
         11    1    3    3    0    0 -0.22747790827E+01  0.22578028468E+01 -0.12487394799E+01  0.34397157034E+01  0.51100000000E-03 0. -1.
        -11    1    3    3    0    0 -0.24801075220E+02 -0.10106623376E+02 -0.21900445769E+02  0.34595761204E+02  0.51100000000E-03 0.  1.
        -12    1    3    3    0    0  0.30046382514E+00 -0.22077634980E+01 -0.94938381762E+01  0.97517927321E+01  0.00000000000E+00 0.  1.
</event>
<event>
 7    1  0.1400974E-009  0.4778726E+02  0.7816164E-02  0.1312668E+00
        -11   -1    0    0    0    0  0.00000000000E+00  0.00000000000E+00  0.45593999997E+02  0.45594000000E+02  0.51100000000E-03 0.  1.
         11   -1    0    0    0    0 -0.00000000000E+00 -0.00000000000E+00 -0.45593999997E+02  0.45594000000E+02  0.51100000000E-03 0. -1.
    9900012    2    1    2    0    0 -0.36250347081E+02 -0.21111453238E+02  0.11128487458E+02  0.47787258596E+02  0.19999943241E+02 0.  0.
        -12    1    1    2    0    0  0.36250347081E+02  0.21111453238E+02 -0.11128487458E+02  0.43400741404E+02  0.00000000000E+00 0.  1.
         11    1    3    3    0    0 -0.28326083308E+02 -0.19688151162E+02  0.13796402478E+02  0.37152806265E+02  0.51100000000E-03 0. -1.
        -11    1    3    3    0    0  0.88145105313E+00  0.67677552469E+00 -0.85472830522E+00  0.14019778196E+01  0.51100000000E-03 0.  1.
         12    1    3    3    0    0 -0.88057148263E+01 -0.21000776002E+01 -0.18131867150E+01  0.92324745108E+01  0.00000000000E+00 0. -1.
</event>
<event>
 7    1  0.1400974E-009  0.4778727E+02  0.7816164E-02  0.1312668E+00
        -11   -1    0    0    0    0  0.00000000000E+00  0.00000000000E+00  0.45593999997E+02  0.45594000000E+02  0.51100000000E-03 0. -1.
         11   -1    0    0    0    0 -0.00000000000E+00 -0.00000000000E+00 -0.45593999997E+02  0.45594000000E+02  0.51100000000E-03 0.  1.
    9900012    2    1    2    0    0  0.20712009616E+02 -0.25194507852E+02  0.28633420499E+02  0.47787270309E+02  0.19999996647E+02 0.  0.
        -12    1    1    2    0    0 -0.20712009616E+02  0.25194507852E+02 -0.28633420499E+02  0.43400729691E+02  0.00000000000E+00 0.  1.
         11    1    3    3    0    0  0.90880838412E+01  0.36637394040E+00  0.59519158939E+01  0.10869811444E+02  0.51100000000E-03 0.  1.
        -11    1    3    3    0    0  0.27365734312E+01 -0.11070499060E+02  0.13235079819E+02  0.17470321167E+02  0.51100000000E-03 0. -1.
        -12    1    3    3    0    0  0.88873523440E+01 -0.14490382732E+02  0.94464247855E+01  0.19447137698E+02  0.00000000000E+00 0.  1.
</event>
<event>
 7    1  0.1400974E-009  0.4778727E+02  0.7816164E-02  0.1312668E+00
        -11   -1    0    0    0    0  0.00000000000E+00  0.00000000000E+00  0.45593999997E+02  0.45594000000E+02  0.51100000000E-03 0.  1.
         11   -1    0    0    0    0 -0.00000000000E+00 -0.00000000000E+00 -0.45593999997E+02  0.45594000000E+02  0.51100000000E-03 0. -1.
    9900012    2    1    2    0    0  0.26863174654E+01  0.20609841214E+02 -0.38100408764E+02  0.47787274150E+02  0.20000014158E+02 0.  0.
        -12    1    1    2    0    0 -0.26863174654E+01 -0.20609841214E+02  0.38100408764E+02  0.43400725850E+02  0.00000000000E+00 0.  1.
         11    1    3    3    0    0 -0.64228520104E+00  0.38266999104E+01 -0.78719923969E+01  0.87763561369E+01  0.51100000000E-03 0. -1.
        -11    1    3    3    0    0  0.40170345752E+01 -0.10201988562E+01 -0.26799936652E+00  0.41532151890E+01  0.51100000000E-03 0.  1.
        -12    1    3    3    0    0 -0.68843190882E+00  0.17803340159E+02 -0.29960417000E+02  0.34857702824E+02  0.00000000000E+00 0.  1.
</event>
<event>
 7    1  0.1400974E-009  0.4778727E+02  0.7816164E-02  0.1312668E+00
        -11   -1    0    0    0    0  0.00000000000E+00  0.00000000000E+00  0.45593999997E+02  0.45594000000E+02  0.51100000000E-03 0.  1.
         11   -1    0    0    0    0 -0.00000000000E+00 -0.00000000000E+00 -0.45593999997E+02  0.45594000000E+02  0.51100000000E-03 0. -1.
    9900012    2    1    2    0    0  0.24365242410E+02  0.53378072578E+01 -0.35517123185E+02  0.47787271166E+02  0.20000000553E+02 0.  0.
        -12    1    1    2    0    0 -0.24365242410E+02 -0.53378072578E+01  0.35517123185E+02  0.43400728834E+02  0.00000000000E+00 0.  1.
         11    1    3    3    0    0  0.22215148345E+02 -0.13360078852E+01 -0.29885455621E+02  0.37261752388E+02  0.51100000000E-03 0. -1.
        -11    1    3    3    0    0  0.28619442001E+01  0.43890454932E+01 -0.61474476032E+01  0.80774722062E+01  0.51100000000E-03 0.  1.
        -12    1    3    3    0    0 -0.71185013575E+00  0.22847696498E+01  0.51578003933E+00  0.24480465717E+01  0.00000000000E+00 0.  1.
</event>
<event>
 7    1  0.1400974E-009  0.4778726E+02  0.7816164E-02  0.1312668E+00
        -11   -1    0    0    0    0  0.00000000000E+00  0.00000000000E+00  0.45593999997E+02  0.45594000000E+02  0.51100000000E-03 0.  1.
         11   -1    0    0    0    0 -0.00000000000E+00 -0.00000000000E+00 -0.45593999997E+02  0.45594000000E+02  0.51100000000E-03 0. -1.
    9900012    2    1    2    0    0  0.27700241885E+01 -0.35690822358E+02 -0.24538056898E+02  0.47787261862E+02  0.19999958133E+02 0.  0.
        -12    1    1    2    0    0 -0.27700241885E+01  0.35690822358E+02  0.24538056898E+02  0.43400738138E+02  0.00000000000E+00 0.  1.
         11    1    3    3    0    0 -0.43544772517E+01 -0.13832971984E+02 -0.66108548947E+01  0.15937879054E+02  0.51100000000E-03 0. -1.
        -11    1    3    3    0    0  0.17336264656E+01  0.38139929376E+00 -0.55631232429E+01  0.58394577334E+01  0.51100000000E-03 0.  1.
        -12    1    3    3    0    0  0.53908749745E+01 -0.22239249668E+02 -0.12364078760E+02  0.26009925074E+02  0.00000000000E+00 0.  1.
</event>
<event>
 7    1  0.1400974E-009  0.4778727E+02  0.7816164E-02  0.1312668E+00
        -11   -1    0    0    0    0  0.00000000000E+00  0.00000000000E+00  0.45593999997E+02  0.45594000000E+02  0.51100000000E-03 0. -1.
         11   -1    0    0    0    0 -0.00000000000E+00 -0.00000000000E+00 -0.45593999997E+02  0.45594000000E+02  0.51100000000E-03 0.  1.
    9900012    2    1    2    0    0  0.19916278646E+02  0.26856665510E+02  0.27671014864E+02  0.47787266123E+02  0.19999977563E+02 0.  0.
        -12    1    1    2    0    0 -0.19916278646E+02 -0.26856665510E+02 -0.27671014864E+02  0.43400733877E+02  0.00000000000E+00 0.  1.
         11    1    3    3    0    0  0.49451835284E+01 -0.85021582950E+00  0.16667838218E+01  0.52873316197E+01  0.51100000000E-03 0.  1.
        -11    1    3    3    0    0  0.22995532972E+01 -0.37768487807E+00  0.40319163914E+01  0.46569240151E+01  0.51100000000E-03 0. -1.
         12    1    3    3    0    0  0.12671541820E+02  0.28084566217E+02  0.21972314651E+02  0.37843010489E+02  0.00000000000E+00 0. -1.
</event>
<event>
 7    1  0.1400974E-009  0.4778727E+02  0.7816164E-02  0.1312668E+00
        -11   -1    0    0    0    0  0.00000000000E+00  0.00000000000E+00  0.45593999997E+02  0.45594000000E+02  0.51100000000E-03 0.  1.
         11   -1    0    0    0    0 -0.00000000000E+00 -0.00000000000E+00 -0.45593999997E+02  0.45594000000E+02  0.51100000000E-03 0. -1.
    9900012    2    1    2    0    0 -0.28951216257E+02  0.29946683210E+02 -0.12192071269E+02  0.47787270054E+02  0.19999995483E+02 0.  0.
        -12    1    1    2    0    0  0.28951216257E+02 -0.29946683210E+02  0.12192071269E+02  0.43400729946E+02  0.00000000000E+00 0.  1.
         11    1    3    3    0    0 -0.70297128440E+01  0.13817667114E+02 -0.78481603054E+00  0.15522909637E+02  0.51100000000E-03 0. -1.
        -11    1    3    3    0    0 -0.12487931389E+01  0.73454615585E+00 -0.56784825857E+01  0.58603930837E+01  0.51100000000E-03 0.  1.
        -12    1    3    3    0    0 -0.20672710274E+02  0.15394469940E+02 -0.57287726530E+01  0.26403967333E+02  0.00000000000E+00 0.  1.
</event>
<event>
 7    1  0.1400974E-009  0.4778728E+02  0.7816164E-02  0.1312668E+00
        -11   -1    0    0    0    0  0.00000000000E+00  0.00000000000E+00  0.45593999997E+02  0.45594000000E+02  0.51100000000E-03 0. -1.
         11   -1    0    0    0    0 -0.00000000000E+00 -0.00000000000E+00 -0.45593999997E+02  0.45594000000E+02  0.51100000000E-03 0.  1.
    9900012    2    1    2    0    0 -0.69453948946E+01  0.42810849734E+02  0.16172427109E+01  0.47787276052E+02  0.20000022832E+02 0.  0.
        -12    1    1    2    0    0  0.69453948946E+01 -0.42810849734E+02 -0.16172427109E+01  0.43400723948E+02  0.00000000000E+00 0.  1.
         11    1    3    3    0    0 -0.49555242628E+01  0.93530075346E+01  0.63398861147E+01  0.12338157353E+02  0.51100000000E-03 0. -1.
        -11    1    3    3    0    0 -0.34279528202E+01  0.41940522773E+01  0.12224074139E+01  0.55529465322E+01  0.51100000000E-03 0.  1.
         12    1    3    3    0    0  0.14380821883E+01  0.29263789922E+02 -0.59450508178E+01  0.29896172167E+02  0.00000000000E+00 0. -1.
</event>
<event>
 7    1  0.1400974E-009  0.4778733E+02  0.7816164E-02  0.1312668E+00
        -11   -1    0    0    0    0  0.00000000000E+00  0.00000000000E+00  0.45593999997E+02  0.45594000000E+02  0.51100000000E-03 0.  1.
         11   -1    0    0    0    0 -0.00000000000E+00 -0.00000000000E+00 -0.45593999997E+02  0.45594000000E+02  0.51100000000E-03 0. -1.
    9900012    2    1    2    0    0 -0.47238977898E+01 -0.18281133596E+02 -0.39078170301E+02  0.47787326618E+02  0.20000253382E+02 0.  0.
        -12    1    1    2    0    0  0.47238977898E+01  0.18281133596E+02  0.39078170301E+02  0.43400673382E+02  0.00000000000E+00 0.  1.
         11    1    3    3    0    0  0.84233872194E-01 -0.67382235712E+01 -0.10220360164E+02  0.12241997974E+02  0.51100000000E-03 0. -1.
        -11    1    3    3    0    0 -0.25552373047E+01  0.28950745288E+01 -0.84879723830E+00  0.39536250738E+01  0.51100000000E-03 0.  1.
        -12    1    3    3    0    0 -0.22528943572E+01 -0.14437984554E+02 -0.28009012899E+02  0.31591703571E+02  0.00000000000E+00 0.  1.
</event>
<event>
 7    1  0.1400974E-009  0.4778724E+02  0.7816164E-02  0.1312668E+00
        -11   -1    0    0    0    0  0.00000000000E+00  0.00000000000E+00  0.45593999997E+02  0.45594000000E+02  0.51100000000E-03 0.  1.
         11   -1    0    0    0    0 -0.00000000000E+00 -0.00000000000E+00 -0.45593999997E+02  0.45594000000E+02  0.51100000000E-03 0. -1.
    9900012    2    1    2    0    0  0.31501381676E+01 -0.17757744708E+02 -0.39476132116E+02  0.47787241085E+02  0.19999863403E+02 0.  0.
        -12    1    1    2    0    0 -0.31501381676E+01  0.17757744708E+02  0.39476132116E+02  0.43400758915E+02  0.00000000000E+00 0.  1.
         11    1    3    3    0    0  0.47621347152E+01 -0.89719006050E+01 -0.21238812101E+02  0.23542728542E+02  0.51100000000E-03 0. -1.
        -11    1    3    3    0    0 -0.39424646664E+01 -0.11198670672E+02 -0.10651804728E+02  0.15950366663E+02  0.51100000000E-03 0.  1.
        -12    1    3    3    0    0  0.23304681188E+01  0.24128265689E+01 -0.75855152864E+01  0.82941458792E+01  0.00000000000E+00 0.  1.
</event>
<event>
 7    1  0.1400974E-009  0.4778727E+02  0.7816164E-02  0.1312668E+00
        -11   -1    0    0    0    0  0.00000000000E+00  0.00000000000E+00  0.45593999997E+02  0.45594000000E+02  0.51100000000E-03 0. -1.
         11   -1    0    0    0    0 -0.00000000000E+00 -0.00000000000E+00 -0.45593999997E+02  0.45594000000E+02  0.51100000000E-03 0.  1.
    9900012    2    1    2    0    0 -0.32509177090E+02 -0.28065196354E+02  0.62547224596E+01  0.47787269655E+02  0.19999993664E+02 0.  0.
        -12    1    1    2    0    0  0.32509177090E+02  0.28065196354E+02 -0.62547224596E+01  0.43400730345E+02  0.00000000000E+00 0.  1.
         11    1    3    3    0    0 -0.19512765297E+02 -0.20162396598E+02  0.77241952443E+01  0.29102120860E+02  0.51100000000E-03 0. -1.
        -11    1    3    3    0    0 -0.87232534646E+01  0.20332895763E+00  0.18851417693E+01  0.89269397569E+01  0.51100000000E-03 0.  1.
         12    1    3    3    0    0 -0.42731583283E+01 -0.81061287132E+01 -0.33546145540E+01  0.97582090375E+01  0.00000000000E+00 0. -1.
</event>
<event>
 7    1  0.1400974E-009  0.4778728E+02  0.7816164E-02  0.1312668E+00
        -11   -1    0    0    0    0  0.00000000000E+00  0.00000000000E+00  0.45593999997E+02  0.45594000000E+02  0.51100000000E-03 0.  1.
         11   -1    0    0    0    0 -0.00000000000E+00 -0.00000000000E+00 -0.45593999997E+02  0.45594000000E+02  0.51100000000E-03 0. -1.
    9900012    2    1    2    0    0 -0.20727366178E+02  0.32248964108E+02 -0.20347074547E+02  0.47787276074E+02  0.20000022931E+02 0.  0.
        -12    1    1    2    0    0  0.20727366178E+02 -0.32248964108E+02  0.20347074547E+02  0.43400723926E+02  0.00000000000E+00 0.  1.
         11    1    3    3    0    0  0.32878802227E+01  0.64759509447E+01 -0.30005327369E+01  0.78581991553E+01  0.51100000000E-03 0.  1.
        -11    1    3    3    0    0 -0.82081499380E+01  0.14082523266E+02 -0.81526458091E+01  0.18225169982E+02  0.51100000000E-03 0. -1.
        -12    1    3    3    0    0 -0.15807096463E+02  0.11690489897E+02 -0.91938960009E+01  0.21703906936E+02  0.00000000000E+00 0.  1.
</event>
<event>
 7    1  0.1400974E-009  0.4778727E+02  0.7816164E-02  0.1312668E+00
        -11   -1    0    0    0    0  0.00000000000E+00  0.00000000000E+00  0.45593999997E+02  0.45594000000E+02  0.51100000000E-03 0. -1.
         11   -1    0    0    0    0 -0.00000000000E+00 -0.00000000000E+00 -0.45593999997E+02  0.45594000000E+02  0.51100000000E-03 0.  1.
    9900012    2    1    2    0    0 -0.33640661423E+02 -0.98335084756E+01 -0.25597479701E+02  0.47787274695E+02  0.20000016646E+02 0.  0.
        -12    1    1    2    0    0  0.33640661423E+02  0.98335084756E+01  0.25597479701E+02  0.43400725305E+02  0.00000000000E+00 0.  1.
         11    1    3    3    0    0 -0.10744397943E+02 -0.68521037063E+01 -0.59369680777E+01  0.14058485074E+02  0.51100000000E-03 0.  1.
        -11    1    3    3    0    0 -0.19093153222E+02  0.25769812987E+01 -0.18835102279E+02  0.26943466939E+02  0.51100000000E-03 0. -1.
         12    1    3    3    0    0 -0.38031102582E+01 -0.55583860680E+01 -0.82540934450E+00  0.67853226823E+01  0.00000000000E+00 0. -1.
</event>
<event>
 7    1  0.1400974E-009  0.4778727E+02  0.7816164E-02  0.1312668E+00
        -11   -1    0    0    0    0  0.00000000000E+00  0.00000000000E+00  0.45593999997E+02  0.45594000000E+02  0.51100000000E-03 0.  1.
         11   -1    0    0    0    0 -0.00000000000E+00 -0.00000000000E+00 -0.45593999997E+02  0.45594000000E+02  0.51100000000E-03 0. -1.
    9900012    2    1    2    0    0 -0.21820586725E+02 -0.50564068551E+01 -0.37174161507E+02  0.47787267989E+02  0.19999986069E+02 0.  0.
        -12    1    1    2    0    0  0.21820586725E+02  0.50564068551E+01  0.37174161507E+02  0.43400732011E+02  0.00000000000E+00 0.  1.
         11    1    3    3    0    0 -0.12922348431E+02  0.63824181341E+00 -0.33601912304E+02  0.36006707046E+02  0.51100000000E-03 0. -1.
        -11    1    3    3    0    0 -0.11583696930E+01 -0.98543195210E+00  0.80266125846E+00  0.17196400306E+01  0.51100000000E-03 0.  1.
         12    1    3    3    0    0 -0.77398686017E+01 -0.47092167164E+01 -0.43749104619E+01  0.10060920912E+02  0.00000000000E+00 0. -1.
</event>
<event>
 7    1  0.1400974E-009  0.4778727E+02  0.7816164E-02  0.1312668E+00
        -11   -1    0    0    0    0  0.00000000000E+00  0.00000000000E+00  0.45593999997E+02  0.45594000000E+02  0.51100000000E-03 0. -1.
         11   -1    0    0    0    0 -0.00000000000E+00 -0.00000000000E+00 -0.45593999997E+02  0.45594000000E+02  0.51100000000E-03 0.  1.
    9900012    2    1    2    0    0  0.12815717080E+02 -0.13934020577E+02  0.39054114227E+02  0.47787269916E+02  0.19999994857E+02 0.  0.
        -12    1    1    2    0    0 -0.12815717080E+02  0.13934020577E+02 -0.39054114227E+02  0.43400730084E+02  0.00000000000E+00 0.  1.
         11    1    3    3    0    0  0.54422793756E+01 -0.96032572824E+01  0.14488908939E+02  0.18214539185E+02  0.51100000000E-03 0. -1.
        -11    1    3    3    0    0  0.53997249069E+00  0.72200799106E+00 -0.17231510482E+01  0.19447662137E+01  0.51100000000E-03 0.  1.
         12    1    3    3    0    0  0.68334652135E+01 -0.50527712852E+01  0.26288356337E+02  0.27627964517E+02  0.00000000000E+00 0. -1.
</event>
<event>
 7    1  0.1400974E-009  0.4778727E+02  0.7816164E-02  0.1312668E+00
        -11   -1    0    0    0    0  0.00000000000E+00  0.00000000000E+00  0.45593999997E+02  0.45594000000E+02  0.51100000000E-03 0.  1.
         11   -1    0    0    0    0 -0.00000000000E+00 -0.00000000000E+00 -0.45593999997E+02  0.45594000000E+02  0.51100000000E-03 0. -1.
    9900012    2    1    2    0    0  0.23003306435E+02 -0.74065046285E+01 -0.36050170368E+02  0.47787271880E+02  0.20000003809E+02 0.  0.
        -12    1    1    2    0    0 -0.23003306435E+02  0.74065046285E+01  0.36050170368E+02  0.43400728120E+02  0.00000000000E+00 0.  1.
         11    1    3    3    0    0  0.12377145263E+02 -0.53357282029E+01 -0.23668648896E+02  0.27237266037E+02  0.51100000000E-03 0. -1.
        -11    1    3    3    0    0  0.68058623238E+01  0.46645867114E+01 -0.86510959106E+01  0.11954898238E+02  0.51100000000E-03 0.  1.
        -12    1    3    3    0    0  0.38202988488E+01 -0.67353631369E+01 -0.37304255615E+01  0.85951076055E+01  0.00000000000E+00 0.  1.
</event>
<event>
 7    1  0.1400974E-009  0.4778727E+02  0.7816164E-02  0.1312668E+00
        -11   -1    0    0    0    0  0.00000000000E+00  0.00000000000E+00  0.45593999997E+02  0.45594000000E+02  0.51100000000E-03 0. -1.
         11   -1    0    0    0    0 -0.00000000000E+00 -0.00000000000E+00 -0.45593999997E+02  0.45594000000E+02  0.51100000000E-03 0.  1.
    9900012    2    1    2    0    0 -0.42646236573E+02  0.79680676926E+01  0.11965176480E+01  0.47787271307E+02  0.20000001196E+02 0.  0.
        -12    1    1    2    0    0  0.42646236573E+02 -0.79680676926E+01 -0.11965176480E+01  0.43400728693E+02  0.00000000000E+00 0.  1.
         11    1    3    3    0    0 -0.25173380827E+02 -0.27052849270E+01 -0.24457874373E+01  0.25436185745E+02  0.51100000000E-03 0. -1.
        -11    1    3    3    0    0 -0.17431239013E+02  0.82857800122E+01  0.18969816274E+01  0.19393318011E+02  0.51100000000E-03 0.  1.
        -12    1    3    3    0    0 -0.41616733331E-01  0.23875726075E+01  0.17453234580E+01  0.29577675503E+01  0.00000000000E+00 0.  1.
</event>
<event>
 7    1  0.1400974E-009  0.4778727E+02  0.7816164E-02  0.1312668E+00
        -11   -1    0    0    0    0  0.00000000000E+00  0.00000000000E+00  0.45593999997E+02  0.45594000000E+02  0.51100000000E-03 0.  1.
         11   -1    0    0    0    0 -0.00000000000E+00 -0.00000000000E+00 -0.45593999997E+02  0.45594000000E+02  0.51100000000E-03 0. -1.
    9900012    2    1    2    0    0 -0.18280309945E+02 -0.19287713122E+02 -0.34313812734E+02  0.47787270127E+02  0.19999995816E+02 0.  0.
        -12    1    1    2    0    0  0.18280309945E+02  0.19287713122E+02  0.34313812734E+02  0.43400729873E+02  0.00000000000E+00 0.  1.
         11    1    3    3    0    0  0.70785826014E+00 -0.33679489337E+01 -0.11216124862E+02  0.11732246183E+02  0.51100000000E-03 0. -1.
        -11    1    3    3    0    0  0.86560231532E+00 -0.11900554161E+01  0.79693012320E+00  0.16734984744E+01  0.51100000000E-03 0.  1.
         12    1    3    3    0    0 -0.19853770520E+02 -0.14729708772E+02 -0.23894617996E+02  0.34381525469E+02  0.00000000000E+00 0. -1.
</event>
<event>
 7    1  0.1400974E-009  0.4778727E+02  0.7816164E-02  0.1312668E+00
        -11   -1    0    0    0    0  0.00000000000E+00  0.00000000000E+00  0.45593999997E+02  0.45594000000E+02  0.51100000000E-03 0. -1.
         11   -1    0    0    0    0 -0.00000000000E+00 -0.00000000000E+00 -0.45593999997E+02  0.45594000000E+02  0.51100000000E-03 0.  1.
    9900012    2    1    2    0    0 -0.25146900569E+02  0.15227985581E+02  0.31927500977E+02  0.47787268766E+02  0.19999989610E+02 0.  0.
        -12    1    1    2    0    0  0.25146900569E+02 -0.15227985581E+02 -0.31927500977E+02  0.43400731234E+02  0.00000000000E+00 0.  1.
         11    1    3    3    0    0 -0.14687249780E+02  0.41816935209E+01  0.11868377809E+02  0.19340637500E+02  0.51100000000E-03 0. -1.
        -11    1    3    3    0    0 -0.94313469283E+01  0.61129589530E+01  0.45255436014E+01  0.12116068553E+02  0.51100000000E-03 0.  1.
        -12    1    3    3    0    0 -0.10283038600E+01  0.49333331071E+01  0.15533579566E+02  0.16330562712E+02  0.00000000000E+00 0.  1.
</event>
<event>
 7    1  0.1400974E-009  0.4778727E+02  0.7816164E-02  0.1312668E+00
        -11   -1    0    0    0    0  0.00000000000E+00  0.00000000000E+00  0.45593999997E+02  0.45594000000E+02  0.51100000000E-03 0.  1.
         11   -1    0    0    0    0 -0.00000000000E+00 -0.00000000000E+00 -0.45593999997E+02  0.45594000000E+02  0.51100000000E-03 0. -1.
    9900012    2    1    2    0    0  0.25329367766E+01 -0.42953138040E+02  0.56776356765E+01  0.47787269786E+02  0.19999994264E+02 0.  0.
        -12    1    1    2    0    0 -0.25329367766E+01  0.42953138040E+02 -0.56776356765E+01  0.43400730214E+02  0.00000000000E+00 0.  1.
         11    1    3    3    0    0  0.84891184408E+01 -0.11948705967E+02  0.10626800522E+00  0.14657694203E+02  0.51100000000E-03 0. -1.
        -11    1    3    3    0    0 -0.46505195521E+01 -0.10869470568E+02 -0.11108198945E+01  0.11874621831E+02  0.51100000000E-03 0.  1.
        -12    1    3    3    0    0 -0.13056621122E+01 -0.20134961505E+02  0.66821875658E+01  0.21254953752E+02  0.00000000000E+00 0.  1.
</event>
<event>
 7    1  0.1400974E-009  0.4778727E+02  0.7816164E-02  0.1312668E+00
        -11   -1    0    0    0    0  0.00000000000E+00  0.00000000000E+00  0.45593999997E+02  0.45594000000E+02  0.51100000000E-03 0.  1.
         11   -1    0    0    0    0 -0.00000000000E+00 -0.00000000000E+00 -0.45593999997E+02  0.45594000000E+02  0.51100000000E-03 0. -1.
    9900012    2    1    2    0    0  0.32439155837E+02  0.27172244728E+02 -0.96433178823E+01  0.47787270804E+02  0.19999998902E+02 0.  0.
        -12    1    1    2    0    0 -0.32439155837E+02 -0.27172244728E+02  0.96433178823E+01  0.43400729196E+02  0.00000000000E+00 0.  1.
         11    1    3    3    0    0  0.14028631622E+02  0.19769294222E+02 -0.10595770113E+02  0.26455582469E+02  0.51100000000E-03 0. -1.
        -11    1    3    3    0    0  0.65067524337E+01  0.24027605107E+00 -0.25691455651E+01  0.69997192094E+01  0.51100000000E-03 0.  1.
         12    1    3    3    0    0  0.11903771782E+02  0.71626744552E+01  0.35215977955E+01  0.14331969126E+02  0.00000000000E+00 0. -1.
</event>
<event>
 7    1  0.1400974E-009  0.4778727E+02  0.7816164E-02  0.1312668E+00
        -11   -1    0    0    0    0  0.00000000000E+00  0.00000000000E+00  0.45593999997E+02  0.45594000000E+02  0.51100000000E-03 0.  1.
         11   -1    0    0    0    0 -0.00000000000E+00 -0.00000000000E+00 -0.45593999997E+02  0.45594000000E+02  0.51100000000E-03 0. -1.
    9900012    2    1    2    0    0  0.23529801205E+02  0.38731509698E+01 -0.36262519304E+02  0.47787272478E+02  0.20000006536E+02 0.  0.
        -12    1    1    2    0    0 -0.23529801205E+02 -0.38731509698E+01  0.36262519304E+02  0.43400727522E+02  0.00000000000E+00 0.  1.
         11    1    3    3    0    0  0.12631989847E+02  0.26721262523E+01 -0.15392092958E+02  0.20090394523E+02  0.51100000000E-03 0. -1.
        -11    1    3    3    0    0  0.43486162518E+01 -0.12456884103E+01  0.10878456934E+01  0.46524844368E+01  0.51100000000E-03 0.  1.
        -12    1    3    3    0    0  0.65491951062E+01  0.24467131278E+01 -0.21958272039E+02  0.23044393518E+02  0.00000000000E+00 0.  1.
</event>
<event>
 7    1  0.1400974E-009  0.4778727E+02  0.7816164E-02  0.1312668E+00
        -11   -1    0    0    0    0  0.00000000000E+00  0.00000000000E+00  0.45593999997E+02  0.45594000000E+02  0.51100000000E-03 0.  1.
         11   -1    0    0    0    0 -0.00000000000E+00 -0.00000000000E+00 -0.45593999997E+02  0.45594000000E+02  0.51100000000E-03 0. -1.
    9900012    2    1    2    0    0  0.36194385306E+02 -0.93151802023E+01 -0.22063944544E+02  0.47787265459E+02  0.19999974532E+02 0.  0.
        -12    1    1    2    0    0 -0.36194385306E+02  0.93151802023E+01  0.22063944544E+02  0.43400734541E+02  0.00000000000E+00 0.  1.
         11    1    3    3    0    0  0.28897503464E+01 -0.33227135139E+01 -0.23857218498E+01  0.50082682802E+01  0.51100000000E-03 0. -1.
        -11    1    3    3    0    0  0.39461843693E+00 -0.62481346845E+00 -0.71035586826E+01  0.71418948325E+01  0.51100000000E-03 0.  1.
         12    1    3    3    0    0  0.32910016523E+02 -0.53676532200E+01 -0.12574664012E+02  0.35637102346E+02  0.00000000000E+00 0. -1.
</event>
<event>
 7    1  0.1400974E-009  0.4778728E+02  0.7816164E-02  0.1312668E+00
        -11   -1    0    0    0    0  0.00000000000E+00  0.00000000000E+00  0.45593999997E+02  0.45594000000E+02  0.51100000000E-03 0.  1.
         11   -1    0    0    0    0 -0.00000000000E+00 -0.00000000000E+00 -0.45593999997E+02  0.45594000000E+02  0.51100000000E-03 0. -1.
    9900012    2    1    2    0    0  0.21389177710E+02  0.11377756521E+02 -0.36009333077E+02  0.47787281858E+02  0.20000049304E+02 0.  0.
        -12    1    1    2    0    0 -0.21389177710E+02 -0.11377756521E+02  0.36009333077E+02  0.43400718142E+02  0.00000000000E+00 0.  1.
         11    1    3    3    0    0  0.20277023864E+02  0.10359919275E+02 -0.29625829074E+02  0.37365430182E+02  0.51100000000E-03 0. -1.
        -11    1    3    3    0    0  0.30038603235E+01 -0.26341679150E+01 -0.40687297165E+01  0.57023310334E+01  0.51100000000E-03 0.  1.
        -12    1    3    3    0    0 -0.18917064773E+01  0.36520051609E+01 -0.23147742871E+01  0.47195206422E+01  0.00000000000E+00 0.  1.
</event>
<event>
 7    1  0.1400974E-009  0.4778727E+02  0.7816164E-02  0.1312668E+00
        -11   -1    0    0    0    0  0.00000000000E+00  0.00000000000E+00  0.45593999997E+02  0.45594000000E+02  0.51100000000E-03 0.  1.
         11   -1    0    0    0    0 -0.00000000000E+00 -0.00000000000E+00 -0.45593999997E+02  0.45594000000E+02  0.51100000000E-03 0. -1.
    9900012    2    1    2    0    0 -0.13318992688E+02  0.28583353167E+02 -0.29819786502E+02  0.47787270611E+02  0.19999998023E+02 0.  0.
        -12    1    1    2    0    0  0.13318992688E+02 -0.28583353167E+02  0.29819786502E+02  0.43400729389E+02  0.00000000000E+00 0.  1.
         11    1    3    3    0    0  0.28990518418E+01  0.20365997970E+01 -0.86662554996E+01  0.93624903183E+01  0.51100000000E-03 0. -1.
        -11    1    3    3    0    0 -0.82604156169E+01  0.74875505681E+01 -0.50709809495E+01  0.12247968310E+02  0.51100000000E-03 0.  1.
        -12    1    3    3    0    0 -0.79576289131E+01  0.19059202802E+02 -0.16082550053E+02  0.26176811982E+02  0.00000000000E+00 0.  1.
</event>
<event>
 7    1  0.1400974E-009  0.4778727E+02  0.7816164E-02  0.1312668E+00
        -11   -1    0    0    0    0  0.00000000000E+00  0.00000000000E+00  0.45593999997E+02  0.45594000000E+02  0.51100000000E-03 0.  1.
         11   -1    0    0    0    0 -0.00000000000E+00 -0.00000000000E+00 -0.45593999997E+02  0.45594000000E+02  0.51100000000E-03 0. -1.
    9900012    2    1    2    0    0  0.19199473455E+02  0.38362737489E+02 -0.65805590711E+01  0.47787272284E+02  0.20000005651E+02 0.  0.
        -12    1    1    2    0    0 -0.19199473455E+02 -0.38362737489E+02  0.65805590711E+01  0.43400727716E+02  0.00000000000E+00 0.  1.
         11    1    3    3    0    0  0.13581850364E+02  0.14708614003E+02  0.79394862986E+00  0.20035976140E+02  0.51100000000E-03 0. -1.
        -11    1    3    3    0    0  0.42613292775E+00  0.14743464131E+02  0.52781632985E+00  0.14759062104E+02  0.51100000000E-03 0.  1.
        -12    1    3    3    0    0  0.51914901633E+01  0.89106593558E+01 -0.79023240308E+01  0.12992234040E+02  0.00000000000E+00 0.  1.
</event>
<event>
 7    1  0.1400974E-009  0.4778727E+02  0.7816164E-02  0.1312668E+00
        -11   -1    0    0    0    0  0.00000000000E+00  0.00000000000E+00  0.45593999997E+02  0.45594000000E+02  0.51100000000E-03 0. -1.
         11   -1    0    0    0    0 -0.00000000000E+00 -0.00000000000E+00 -0.45593999997E+02  0.45594000000E+02  0.51100000000E-03 0.  1.
    9900012    2    1    2    0    0 -0.29728024846E+02  0.28070192649E+02  0.14557890071E+02  0.47787270284E+02  0.19999996534E+02 0.  0.
        -12    1    1    2    0    0  0.29728024846E+02 -0.28070192649E+02 -0.14557890071E+02  0.43400729716E+02  0.00000000000E+00 0.  1.
         11    1    3    3    0    0 -0.19082155640E+02  0.21404450414E+02  0.14697198612E+02  0.32222458142E+02  0.51100000000E-03 0. -1.
        -11    1    3    3    0    0 -0.45846035856E+01 -0.68473273633E+00  0.30141433551E+01  0.55292413027E+01  0.51100000000E-03 0.  1.
         12    1    3    3    0    0 -0.60612656198E+01  0.73504749709E+01 -0.31534518965E+01  0.10035570840E+02  0.00000000000E+00 0. -1.
</event>
<event>
 7    1  0.1400974E-009  0.4778721E+02  0.7816164E-02  0.1312668E+00
        -11   -1    0    0    0    0  0.00000000000E+00  0.00000000000E+00  0.45593999997E+02  0.45594000000E+02  0.51100000000E-03 0.  1.
         11   -1    0    0    0    0 -0.00000000000E+00 -0.00000000000E+00 -0.45593999997E+02  0.45594000000E+02  0.51100000000E-03 0. -1.
    9900012    2    1    2    0    0  0.36279874857E+01  0.42272422731E+02 -0.91383073174E+01  0.47787208793E+02  0.19999716170E+02 0.  0.
        -12    1    1    2    0    0 -0.36279874857E+01 -0.42272422731E+02  0.91383073174E+01  0.43400791207E+02  0.00000000000E+00 0.  1.
         11    1    3    3    0    0  0.46109684277E+01  0.32265276023E+02 -0.14288855937E+02  0.35587644920E+02  0.51100000000E-03 0.  1.
        -11    1    3    3    0    0  0.80488429000E+00  0.39496760485E+01 -0.29857719734E-01  0.40309640724E+01  0.51100000000E-03 0. -1.
        -12    1    3    3    0    0 -0.17878652320E+01  0.60574706590E+01  0.51804063388E+01  0.81685998009E+01  0.00000000000E+00 0.  1.
</event>
<event>
 7    1  0.1400974E-009  0.4778727E+02  0.7816164E-02  0.1312668E+00
        -11   -1    0    0    0    0  0.00000000000E+00  0.00000000000E+00  0.45593999997E+02  0.45594000000E+02  0.51100000000E-03 0. -1.
         11   -1    0    0    0    0 -0.00000000000E+00 -0.00000000000E+00 -0.45593999997E+02  0.45594000000E+02  0.51100000000E-03 0.  1.
    9900012    2    1    2    0    0 -0.27668439045E+02 -0.24322972309E+02  0.22945021078E+02  0.47787268516E+02  0.19999988470E+02 0.  0.
        -12    1    1    2    0    0  0.27668439045E+02  0.24322972309E+02 -0.22945021078E+02  0.43400731484E+02  0.00000000000E+00 0.  1.
         11    1    3    3    0    0 -0.43911773363E+01 -0.75956079388E+01  0.15490898444E+00  0.87749470320E+01  0.51100000000E-03 0. -1.
        -11    1    3    3    0    0 -0.83604618116E+01  0.98973823363E+00  0.48463926702E+01  0.97141353527E+01  0.51100000000E-03 0.  1.
         12    1    3    3    0    0 -0.14916799897E+02 -0.17717102603E+02  0.17943719423E+02  0.29298186131E+02  0.00000000000E+00 0. -1.
</event>
<event>
 7    1  0.1400974E-009  0.4778727E+02  0.7816164E-02  0.1312668E+00
        -11   -1    0    0    0    0  0.00000000000E+00  0.00000000000E+00  0.45593999997E+02  0.45594000000E+02  0.51100000000E-03 0.  1.
         11   -1    0    0    0    0 -0.00000000000E+00 -0.00000000000E+00 -0.45593999997E+02  0.45594000000E+02  0.51100000000E-03 0. -1.
    9900012    2    1    2    0    0  0.12120194333E+02  0.19449534331E+02 -0.36857019366E+02  0.47787269904E+02  0.19999994798E+02 0.  0.
        -12    1    1    2    0    0 -0.12120194333E+02 -0.19449534331E+02  0.36857019366E+02  0.43400730096E+02  0.00000000000E+00 0.  1.
         11    1    3    3    0    0  0.24985480654E+00  0.11737724270E+02 -0.27363703598E+02  0.29775978125E+02  0.51100000000E-03 0. -1.
        -11    1    3    3    0    0  0.15503635114E+01  0.80880727765E+00  0.76224665364E+00  0.19075682037E+01  0.51100000000E-03 0.  1.
         12    1    3    3    0    0  0.10319976015E+02  0.69030027835E+01 -0.10255562421E+02  0.16103723574E+02  0.00000000000E+00 0. -1.
</event>
<event>
 7    1  0.1400974E-009  0.4778727E+02  0.7816164E-02  0.1312668E+00
        -11   -1    0    0    0    0  0.00000000000E+00  0.00000000000E+00  0.45593999997E+02  0.45594000000E+02  0.51100000000E-03 0.  1.
         11   -1    0    0    0    0 -0.00000000000E+00 -0.00000000000E+00 -0.45593999997E+02  0.45594000000E+02  0.51100000000E-03 0. -1.
    9900012    2    1    2    0    0  0.40084372293E+02  0.15502174498E+02 -0.60455559098E+01  0.47787273479E+02  0.20000011098E+02 0.  0.
        -12    1    1    2    0    0 -0.40084372293E+02 -0.15502174498E+02  0.60455559098E+01  0.43400726521E+02  0.00000000000E+00 0.  1.
         11    1    3    3    0    0  0.16265282370E+02  0.62020224672E+01  0.58053913005E+01  0.18350124296E+02  0.51100000000E-03 0. -1.
        -11    1    3    3    0    0  0.53165164959E+01 -0.14067179488E+01 -0.32974251355E+01  0.64122707229E+01  0.51100000000E-03 0.  1.
         12    1    3    3    0    0  0.18502573428E+02  0.10706869980E+02 -0.85535220749E+01  0.23024878460E+02  0.00000000000E+00 0. -1.
</event>
<event>
 7    1  0.1400974E-009  0.4778728E+02  0.7816164E-02  0.1312668E+00
        -11   -1    0    0    0    0  0.00000000000E+00  0.00000000000E+00  0.45593999997E+02  0.45594000000E+02  0.51100000000E-03 0.  1.
         11   -1    0    0    0    0 -0.00000000000E+00 -0.00000000000E+00 -0.45593999997E+02  0.45594000000E+02  0.51100000000E-03 0. -1.
    9900012    2    1    2    0    0 -0.24791961990E+02 -0.10864753866E+01 -0.35606189521E+02  0.47787279496E+02  0.20000038534E+02 0.  0.
        -12    1    1    2    0    0  0.24791961990E+02  0.10864753866E+01  0.35606189521E+02  0.43400720504E+02  0.00000000000E+00 0.  1.
         11    1    3    3    0    0 -0.51798106484E+00 -0.25916817233E+00 -0.10086660508E+02  0.10103276349E+02  0.51100000000E-03 0. -1.
        -11    1    3    3    0    0 -0.13836928720E+02  0.61282693251E+01 -0.15100640984E+02  0.21378625768E+02  0.51100000000E-03 0.  1.
        -12    1    3    3    0    0 -0.10437052205E+02 -0.69555765393E+01 -0.10418888029E+02  0.16305377379E+02  0.00000000000E+00 0.  1.
</event>
<event>
 7    1  0.1400974E-009  0.4778727E+02  0.7816164E-02  0.1312668E+00
        -11   -1    0    0    0    0  0.00000000000E+00  0.00000000000E+00  0.45593999997E+02  0.45594000000E+02  0.51100000000E-03 0. -1.
         11   -1    0    0    0    0 -0.00000000000E+00 -0.00000000000E+00 -0.45593999997E+02  0.45594000000E+02  0.51100000000E-03 0.  1.
    9900012    2    1    2    0    0 -0.22155496111E+02  0.32342364716E+02  0.18620653171E+02  0.47787270884E+02  0.19999999267E+02 0.  0.
        -12    1    1    2    0    0  0.22155496111E+02 -0.32342364716E+02 -0.18620653171E+02  0.43400729116E+02  0.00000000000E+00 0.  1.
         11    1    3    3    0    0 -0.11288520468E+02  0.11010211971E+02  0.11623896990E+02  0.19590059814E+02  0.51100000000E-03 0. -1.
        -11    1    3    3    0    0 -0.32989390176E+01  0.18126047500E+02  0.18893196272E+01  0.18520424550E+02  0.51100000000E-03 0.  1.
         12    1    3    3    0    0 -0.75680366250E+01  0.32061052442E+01  0.51074365538E+01  0.96767865195E+01  0.00000000000E+00 0. -1.
</event>
<event>
 7    1  0.1400974E-009  0.4778727E+02  0.7816164E-02  0.1312668E+00
        -11   -1    0    0    0    0  0.00000000000E+00  0.00000000000E+00  0.45593999997E+02  0.45594000000E+02  0.51100000000E-03 0.  1.
         11   -1    0    0    0    0 -0.00000000000E+00 -0.00000000000E+00 -0.45593999997E+02  0.45594000000E+02  0.51100000000E-03 0. -1.
    9900012    2    1    2    0    0  0.78342933442E+00 -0.43093033931E+02  0.50989971955E+01  0.47787272963E+02  0.20000008749E+02 0.  0.
        -12    1    1    2    0    0 -0.78342933442E+00  0.43093033931E+02 -0.50989971955E+01  0.43400727037E+02  0.00000000000E+00 0.  1.
         11    1    3    3    0    0 -0.96814645441E+00 -0.16778233509E+02 -0.32123945349E+00  0.16809212423E+02  0.51100000000E-03 0. -1.
        -11    1    3    3    0    0 -0.16024730081E+01 -0.22033976441E+02  0.96309411474E+01  0.24100188074E+02  0.51100000000E-03 0.  1.
         12    1    3    3    0    0  0.33540487969E+01 -0.42808239812E+01 -0.42107044984E+01  0.68778724663E+01  0.00000000000E+00 0. -1.
</event>
<event>
 7    1  0.1400974E-009  0.4778727E+02  0.7816164E-02  0.1312668E+00
        -11   -1    0    0    0    0  0.00000000000E+00  0.00000000000E+00  0.45593999997E+02  0.45594000000E+02  0.51100000000E-03 0. -1.
         11   -1    0    0    0    0 -0.00000000000E+00 -0.00000000000E+00 -0.45593999997E+02  0.45594000000E+02  0.51100000000E-03 0.  1.
    9900012    2    1    2    0    0 -0.15229323286E+02 -0.25550725508E+01  0.40560604916E+02  0.47787270114E+02  0.19999995757E+02 0.  0.
        -12    1    1    2    0    0  0.15229323286E+02  0.25550725508E+01 -0.40560604916E+02  0.43400729886E+02  0.00000000000E+00 0.  1.
         11    1    3    3    0    0 -0.67672866415E+01  0.46226887185E+01  0.31858019408E+01  0.87928808557E+01  0.51100000000E-03 0.  1.
        -11    1    3    3    0    0 -0.30189521351E+01 -0.21545910847E+01  0.13069819650E+02  0.13585894181E+02  0.51100000000E-03 0. -1.
        -12    1    3    3    0    0 -0.54430845096E+01 -0.50231701846E+01  0.24304983325E+02  0.25408495078E+02  0.00000000000E+00 0.  1.
</event>
<event>
 7    1  0.1400974E-009  0.4778727E+02  0.7816164E-02  0.1312668E+00
        -11   -1    0    0    0    0  0.00000000000E+00  0.00000000000E+00  0.45593999997E+02  0.45594000000E+02  0.51100000000E-03 0. -1.
         11   -1    0    0    0    0 -0.00000000000E+00 -0.00000000000E+00 -0.45593999997E+02  0.45594000000E+02  0.51100000000E-03 0.  1.
    9900012    2    1    2    0    0  0.38328996092E+02 -0.19299853794E+02  0.64828223523E+01  0.47787270933E+02  0.19999999494E+02 0.  0.
        -12    1    1    2    0    0 -0.38328996092E+02  0.19299853794E+02 -0.64828223523E+01  0.43400729067E+02  0.00000000000E+00 0.  1.
         11    1    3    3    0    0  0.12201970723E+02 -0.11245547352E+02  0.58603213145E+01  0.17598118960E+02  0.51100000000E-03 0. -1.
        -11    1    3    3    0    0  0.27480348916E+01 -0.52624677548E+00 -0.43091142375E+01  0.51378105461E+01  0.51100000000E-03 0.  1.
         12    1    3    3    0    0  0.23378990477E+02 -0.75280596663E+01  0.49316152753E+01  0.25051341427E+02  0.00000000000E+00 0. -1.
</event>
<event>
 7    1  0.1400974E-009  0.4778728E+02  0.7816164E-02  0.1312668E+00
        -11   -1    0    0    0    0  0.00000000000E+00  0.00000000000E+00  0.45593999997E+02  0.45594000000E+02  0.51100000000E-03 0. -1.
         11   -1    0    0    0    0 -0.00000000000E+00 -0.00000000000E+00 -0.45593999997E+02  0.45594000000E+02  0.51100000000E-03 0.  1.
    9900012    2    1    2    0    0 -0.19213959364E+02  0.38846615646E+02  0.23209671522E+01  0.47787278000E+02  0.20000031712E+02 0.  0.
        -12    1    1    2    0    0  0.19213959364E+02 -0.38846615646E+02 -0.23209671522E+01  0.43400722000E+02  0.00000000000E+00 0.  1.
         11    1    3    3    0    0 -0.10813792904E+02  0.10219726043E+02  0.52824103414E+01  0.15788754752E+02  0.51100000000E-03 0. -1.
        -11    1    3    3    0    0  0.19972482126E+01  0.46408154014E+01 -0.29605944053E+01  0.58558763227E+01  0.51100000000E-03 0.  1.
         12    1    3    3    0    0 -0.10397414673E+02  0.23986074202E+02 -0.84878401310E-03  0.26142646925E+02  0.00000000000E+00 0. -1.
</event>
<event>
 7    1  0.1400974E-009  0.4778727E+02  0.7816164E-02  0.1312668E+00
        -11   -1    0    0    0    0  0.00000000000E+00  0.00000000000E+00  0.45593999997E+02  0.45594000000E+02  0.51100000000E-03 0.  1.
         11   -1    0    0    0    0 -0.00000000000E+00 -0.00000000000E+00 -0.45593999997E+02  0.45594000000E+02  0.51100000000E-03 0. -1.
    9900012    2    1    2    0    0  0.10683484157E+02  0.28641270775E+02 -0.30808508550E+02  0.47787269310E+02  0.19999992092E+02 0.  0.
        -12    1    1    2    0    0 -0.10683484157E+02 -0.28641270775E+02  0.30808508550E+02  0.43400730690E+02  0.00000000000E+00 0.  1.
         11    1    3    3    0    0  0.12876579029E+01  0.15617747415E+02 -0.10027964101E+02  0.18604627421E+02  0.51100000000E-03 0. -1.
        -11    1    3    3    0    0  0.16504536250E+01  0.71683716741E+00  0.16564190892E+01  0.24457263038E+01  0.51100000000E-03 0.  1.
        -12    1    3    3    0    0  0.77453726286E+01  0.12306686193E+02 -0.22436963538E+02  0.26736915586E+02  0.00000000000E+00 0.  1.
</event>
<event>
 7    1  0.1400974E-009  0.4778727E+02  0.7816164E-02  0.1312668E+00
        -11   -1    0    0    0    0  0.00000000000E+00  0.00000000000E+00  0.45593999997E+02  0.45594000000E+02  0.51100000000E-03 0.  1.
         11   -1    0    0    0    0 -0.00000000000E+00 -0.00000000000E+00 -0.45593999997E+02  0.45594000000E+02  0.51100000000E-03 0. -1.
    9900012    2    1    2    0    0 -0.22280909615E+02  0.18292446016E+02 -0.32443350010E+02  0.47787268735E+02  0.19999989469E+02 0.  0.
        -12    1    1    2    0    0  0.22280909615E+02 -0.18292446016E+02  0.32443350010E+02  0.43400731265E+02  0.00000000000E+00 0.  1.
         11    1    3    3    0    0  0.45156242374E+00  0.23794519336E+00 -0.51339706123E+01  0.51592810591E+01  0.51100000000E-03 0. -1.
        -11    1    3    3    0    0 -0.23212774032E+01  0.96156247359E+01 -0.44670003147E+01  0.10853693377E+02  0.51100000000E-03 0.  1.
         12    1    3    3    0    0 -0.20411194635E+02  0.84388760871E+01 -0.22842379083E+02  0.31774294299E+02  0.00000000000E+00 0. -1.
</event>
<event>
 7    1  0.1400974E-009  0.4778727E+02  0.7816164E-02  0.1312668E+00
        -11   -1    0    0    0    0  0.00000000000E+00  0.00000000000E+00  0.45593999997E+02  0.45594000000E+02  0.51100000000E-03 0. -1.
         11   -1    0    0    0    0 -0.00000000000E+00 -0.00000000000E+00 -0.45593999997E+02  0.45594000000E+02  0.51100000000E-03 0.  1.
    9900012    2    1    2    0    0  0.13603558507E+01 -0.34501770804E+02  0.26294496191E+02  0.47787270898E+02  0.19999999332E+02 0.  0.
        -12    1    1    2    0    0 -0.13603558507E+01  0.34501770804E+02 -0.26294496191E+02  0.43400729102E+02  0.00000000000E+00 0.  1.
         11    1    3    3    0    0  0.10155975544E+01 -0.77400309051E+01  0.89440273106E+00  0.78574469970E+01  0.51100000000E-03 0. -1.
        -11    1    3    3    0    0  0.90062845779E+00 -0.50917590256E+01  0.15040376599E+02  0.15904404110E+02  0.51100000000E-03 0.  1.
        -12    1    3    3    0    0 -0.55587016150E+00 -0.21669980873E+02  0.10359716861E+02  0.24025419791E+02  0.00000000000E+00 0.  1.
</event>
<event>
 7    1  0.1400974E-009  0.4778727E+02  0.7816164E-02  0.1312668E+00
        -11   -1    0    0    0    0  0.00000000000E+00  0.00000000000E+00  0.45593999997E+02  0.45594000000E+02  0.51100000000E-03 0.  1.
         11   -1    0    0    0    0 -0.00000000000E+00 -0.00000000000E+00 -0.45593999997E+02  0.45594000000E+02  0.51100000000E-03 0. -1.
    9900012    2    1    2    0    0  0.43052681155E+02 -0.52333671524E+01  0.16438000355E+01  0.47787267691E+02  0.19999984711E+02 0.  0.
        -12    1    1    2    0    0 -0.43052681155E+02  0.52333671524E+01 -0.16438000355E+01  0.43400732309E+02  0.00000000000E+00 0.  1.
         11    1    3    3    0    0  0.31848468222E+02 -0.93765943032E+01 -0.26242832079E+01  0.33303638111E+02  0.51100000000E-03 0. -1.
        -11    1    3    3    0    0  0.60143719484E+00 -0.10901486212E+01  0.21309849513E+01  0.24680453479E+01  0.51100000000E-03 0.  1.
         12    1    3    3    0    0  0.10602775738E+02  0.52333757720E+01  0.21370982921E+01  0.12015584232E+02  0.00000000000E+00 0. -1.
</event>
<event>
 7    1  0.1400974E-009  0.4778727E+02  0.7816164E-02  0.1312668E+00
        -11   -1    0    0    0    0  0.00000000000E+00  0.00000000000E+00  0.45593999997E+02  0.45594000000E+02  0.51100000000E-03 0. -1.
         11   -1    0    0    0    0 -0.00000000000E+00 -0.00000000000E+00 -0.45593999997E+02  0.45594000000E+02  0.51100000000E-03 0.  1.
    9900012    2    1    2    0    0 -0.36361408404E+02  0.95313675933E+01  0.21693871601E+02  0.47787273573E+02  0.20000011529E+02 0.  0.
        -12    1    1    2    0    0  0.36361408404E+02 -0.95313675933E+01 -0.21693871601E+02  0.43400726427E+02  0.00000000000E+00 0.  1.
         11    1    3    3    0    0 -0.10456179144E+02  0.10697787182E+02  0.10851508119E+02  0.18480518434E+02  0.51100000000E-03 0. -1.
        -11    1    3    3    0    0 -0.37783215271E+01 -0.13638145041E+01 -0.10961760926E+01  0.41638090555E+01  0.51100000000E-03 0.  1.
        -12    1    3    3    0    0 -0.22126907733E+02  0.19739491572E+00  0.11938539574E+02  0.25142946083E+02  0.00000000000E+00 0.  1.
</event>
<event>
 7    1  0.1400974E-009  0.4778727E+02  0.7816164E-02  0.1312668E+00
        -11   -1    0    0    0    0  0.00000000000E+00  0.00000000000E+00  0.45593999997E+02  0.45594000000E+02  0.51100000000E-03 0. -1.
         11   -1    0    0    0    0 -0.00000000000E+00 -0.00000000000E+00 -0.45593999997E+02  0.45594000000E+02  0.51100000000E-03 0.  1.
    9900012    2    1    2    0    0  0.37515512297E+02 -0.10231345728E+02  0.19275091931E+02  0.47787271121E+02  0.20000000347E+02 0.  0.
        -12    1    1    2    0    0 -0.37515512297E+02  0.10231345728E+02 -0.19275091931E+02  0.43400728879E+02  0.00000000000E+00 0.  1.
         11    1    3    3    0    0  0.14199307904E+02 -0.50501053802E+01 -0.11266715505E+01  0.15112686669E+02  0.51100000000E-03 0.  1.
        -11    1    3    3    0    0  0.79242007829E+01 -0.62514313917E+01  0.81067762884E+01  0.12945778252E+02  0.51100000000E-03 0. -1.
        -12    1    3    3    0    0  0.15392003610E+02  0.10701910436E+01  0.12294987193E+02  0.19728806200E+02  0.00000000000E+00 0.  1.
</event>
<event>
 7    1  0.1400974E-009  0.4778728E+02  0.7816164E-02  0.1312668E+00
        -11   -1    0    0    0    0  0.00000000000E+00  0.00000000000E+00  0.45593999997E+02  0.45594000000E+02  0.51100000000E-03 0.  1.
         11   -1    0    0    0    0 -0.00000000000E+00 -0.00000000000E+00 -0.45593999997E+02  0.45594000000E+02  0.51100000000E-03 0. -1.
    9900012    2    1    2    0    0  0.36056779821E+02  0.24084957342E+02  0.18563541708E+01  0.47787278899E+02  0.20000035814E+02 0.  0.
        -12    1    1    2    0    0 -0.36056779821E+02 -0.24084957342E+02 -0.18563541708E+01  0.43400721101E+02  0.00000000000E+00 0.  1.
         11    1    3    3    0    0  0.72454845580E+01  0.89423591277E+01  0.85212262232E+01  0.14320409556E+02  0.51100000000E-03 0. -1.
        -11    1    3    3    0    0  0.10171037154E+02  0.33267471258E+01 -0.15594735220E+01  0.10814305394E+02  0.51100000000E-03 0.  1.
         12    1    3    3    0    0  0.18640258109E+02  0.11815851088E+02 -0.51053985304E+01  0.22652563949E+02  0.00000000000E+00 0. -1.
</event>
<event>
 7    1  0.1400974E-009  0.4778726E+02  0.7816164E-02  0.1312668E+00
        -11   -1    0    0    0    0  0.00000000000E+00  0.00000000000E+00  0.45593999997E+02  0.45594000000E+02  0.51100000000E-03 0.  1.
         11   -1    0    0    0    0 -0.00000000000E+00 -0.00000000000E+00 -0.45593999997E+02  0.45594000000E+02  0.51100000000E-03 0. -1.
    9900012    2    1    2    0    0  0.60206903917E+01  0.17306954375E+02 -0.39342660293E+02  0.47787259206E+02  0.19999946024E+02 0.  0.
        -12    1    1    2    0    0 -0.60206903917E+01 -0.17306954375E+02  0.39342660293E+02  0.43400740794E+02  0.00000000000E+00 0.  1.
         11    1    3    3    0    0 -0.85333042143E+00  0.10072367737E+02 -0.26664081668E+02  0.28515855521E+02  0.51100000000E-03 0. -1.
        -11    1    3    3    0    0 -0.58162677301E+00 -0.16805602194E+01  0.35011396196E+00  0.18124989383E+01  0.51100000000E-03 0.  1.
         12    1    3    3    0    0  0.74556475862E+01  0.89151468579E+01 -0.13028692587E+02  0.17458904746E+02  0.00000000000E+00 0. -1.
</event>
<event>
 7    1  0.1400974E-009  0.4778727E+02  0.7816164E-02  0.1312668E+00
        -11   -1    0    0    0    0  0.00000000000E+00  0.00000000000E+00  0.45593999997E+02  0.45594000000E+02  0.51100000000E-03 0.  1.
         11   -1    0    0    0    0 -0.00000000000E+00 -0.00000000000E+00 -0.45593999997E+02  0.45594000000E+02  0.51100000000E-03 0. -1.
    9900012    2    1    2    0    0 -0.35871268806E+02  0.14080748404E+02 -0.19965174643E+02  0.47787267289E+02  0.19999982876E+02 0.  0.
        -12    1    1    2    0    0  0.35871268806E+02 -0.14080748404E+02  0.19965174643E+02  0.43400732711E+02  0.00000000000E+00 0.  1.
         11    1    3    3    0    0 -0.10153124871E+02  0.13085666705E+02 -0.30117606641E+01  0.16834230613E+02  0.51100000000E-03 0. -1.
        -11    1    3    3    0    0 -0.48190902694E+01 -0.57581547533E+00 -0.42095342616E+01  0.64245913058E+01  0.51100000000E-03 0.  1.
         12    1    3    3    0    0 -0.20899053665E+02  0.15708971743E+01 -0.12743879718E+02  0.24528445370E+02  0.00000000000E+00 0. -1.
</event>
<event>
 7    1  0.1400974E-009  0.4778725E+02  0.7816164E-02  0.1312668E+00
        -11   -1    0    0    0    0  0.00000000000E+00  0.00000000000E+00  0.45593999997E+02  0.45594000000E+02  0.51100000000E-03 0.  1.
         11   -1    0    0    0    0 -0.00000000000E+00 -0.00000000000E+00 -0.45593999997E+02  0.45594000000E+02  0.51100000000E-03 0. -1.
    9900012    2    1    2    0    0  0.11604821773E+02  0.52599247621E+01 -0.41488393168E+02  0.47787245806E+02  0.19999884928E+02 0.  0.
        -12    1    1    2    0    0 -0.11604821773E+02 -0.52599247621E+01  0.41488393168E+02  0.43400754194E+02  0.00000000000E+00 0.  1.
         11    1    3    3    0    0  0.45721223857E+01  0.76094491709E+01 -0.23136774286E+02  0.24781411268E+02  0.51100000000E-03 0. -1.
        -11    1    3    3    0    0 -0.29382898701E+01 -0.32963596116E+00 -0.14853690503E+01  0.33088561021E+01  0.51100000000E-03 0.  1.
        -12    1    3    3    0    0  0.99709892577E+01 -0.20198884477E+01 -0.16866249832E+02  0.19696978436E+02  0.00000000000E+00 0.  1.
</event>
<event>
 7    1  0.1400974E-009  0.4778728E+02  0.7816164E-02  0.1312668E+00
        -11   -1    0    0    0    0  0.00000000000E+00  0.00000000000E+00  0.45593999997E+02  0.45594000000E+02  0.51100000000E-03 0. -1.
         11   -1    0    0    0    0 -0.00000000000E+00 -0.00000000000E+00 -0.45593999997E+02  0.45594000000E+02  0.51100000000E-03 0.  1.
    9900012    2    1    2    0    0  0.23558511135E+02 -0.33956283553E+02  0.13251026195E+02  0.47787281862E+02  0.20000049322E+02 0.  0.
        -12    1    1    2    0    0 -0.23558511135E+02  0.33956283553E+02 -0.13251026195E+02  0.43400718138E+02  0.00000000000E+00 0.  1.
         11    1    3    3    0    0  0.18707516133E+02 -0.35045752387E+02  0.15063008875E+02  0.42486117225E+02  0.51100000000E-03 0.  1.
        -11    1    3    3    0    0  0.17711243303E+01  0.51934326739E+00 -0.77456864836E+00  0.20016382478E+01  0.51100000000E-03 0. -1.
        -12    1    3    3    0    0  0.30798706722E+01  0.57012556630E+00 -0.10374140323E+01  0.32995263892E+01  0.00000000000E+00 0.  1.
</event>
<event>
 7    1  0.1400974E-009  0.4778728E+02  0.7816164E-02  0.1312668E+00
        -11   -1    0    0    0    0  0.00000000000E+00  0.00000000000E+00  0.45593999997E+02  0.45594000000E+02  0.51100000000E-03 0.  1.
         11   -1    0    0    0    0 -0.00000000000E+00 -0.00000000000E+00 -0.45593999997E+02  0.45594000000E+02  0.51100000000E-03 0. -1.
    9900012    2    1    2    0    0 -0.52541151968E+01  0.95248792592E+01 -0.42015395779E+02  0.47787279569E+02  0.20000038869E+02 0.  0.
        -12    1    1    2    0    0  0.52541151968E+01 -0.95248792592E+01  0.42015395779E+02  0.43400720431E+02  0.00000000000E+00 0.  1.
         11    1    3    3    0    0  0.21391475432E+01  0.37879547422E+01 -0.69494646691E+01  0.81987567831E+01  0.51100000000E-03 0. -1.
        -11    1    3    3    0    0 -0.71683135985E-02  0.67145084989E+01 -0.43935211673E+01  0.80241949300E+01  0.51100000000E-03 0.  1.
         12    1    3    3    0    0 -0.73860944264E+01 -0.97758398188E+00 -0.30672409943E+02  0.31564327856E+02  0.00000000000E+00 0. -1.
</event>
<event>
 7    1  0.1400974E-009  0.4778727E+02  0.7816164E-02  0.1312668E+00
        -11   -1    0    0    0    0  0.00000000000E+00  0.00000000000E+00  0.45593999997E+02  0.45594000000E+02  0.51100000000E-03 0.  1.
         11   -1    0    0    0    0 -0.00000000000E+00 -0.00000000000E+00 -0.45593999997E+02  0.45594000000E+02  0.51100000000E-03 0. -1.
    9900012    2    1    2    0    0 -0.13602586834E+02 -0.87449134227E+01 -0.40275540861E+02  0.47787273382E+02  0.20000010658E+02 0.  0.
        -12    1    1    2    0    0  0.13602586834E+02  0.87449134227E+01  0.40275540861E+02  0.43400726618E+02  0.00000000000E+00 0.  1.
         11    1    3    3    0    0 -0.32606423316E+01 -0.51141241867E+01 -0.21745454469E+02  0.22575447835E+02  0.51100000000E-03 0. -1.
        -11    1    3    3    0    0 -0.15898920141E+01  0.46772998025E+01 -0.42586491625E+01  0.65223449011E+01  0.51100000000E-03 0.  1.
         12    1    3    3    0    0 -0.87520524886E+01 -0.83080890385E+01 -0.14271437229E+02  0.18689480646E+02  0.00000000000E+00 0. -1.
</event>
<event>
 7    1  0.1400974E-009  0.4778727E+02  0.7816164E-02  0.1312668E+00
        -11   -1    0    0    0    0  0.00000000000E+00  0.00000000000E+00  0.45593999997E+02  0.45594000000E+02  0.51100000000E-03 0.  1.
         11   -1    0    0    0    0 -0.00000000000E+00 -0.00000000000E+00 -0.45593999997E+02  0.45594000000E+02  0.51100000000E-03 0. -1.
    9900012    2    1    2    0    0  0.26904574611E+02 -0.26993231155E+02 -0.20763744833E+02  0.47787265413E+02  0.19999974325E+02 0.  0.
        -12    1    1    2    0    0 -0.26904574611E+02  0.26993231155E+02  0.20763744833E+02  0.43400734587E+02  0.00000000000E+00 0.  1.
         11    1    3    3    0    0  0.23736718234E+02 -0.25745580479E+02 -0.24183884022E+02  0.42557337245E+02  0.51100000000E-03 0. -1.
        -11    1    3    3    0    0  0.26392347220E+01 -0.81903197741E-01  0.19617484447E+01  0.32894870836E+01  0.51100000000E-03 0.  1.
         12    1    3    3    0    0  0.52862165500E+00 -0.11657474780E+01  0.14583907449E+01  0.19404410842E+01  0.00000000000E+00 0. -1.
</event>
<event>
 7    1  0.1400974E-009  0.4778723E+02  0.7816164E-02  0.1312668E+00
        -11   -1    0    0    0    0  0.00000000000E+00  0.00000000000E+00  0.45593999997E+02  0.45594000000E+02  0.51100000000E-03 0. -1.
         11   -1    0    0    0    0 -0.00000000000E+00 -0.00000000000E+00 -0.45593999997E+02  0.45594000000E+02  0.51100000000E-03 0.  1.
    9900012    2    1    2    0    0 -0.20254071810E+02  0.16252720344E+02  0.34774244233E+02  0.47787234967E+02  0.19999835507E+02 0.  0.
        -12    1    1    2    0    0  0.20254071810E+02 -0.16252720344E+02 -0.34774244233E+02  0.43400765033E+02  0.00000000000E+00 0.  1.
         11    1    3    3    0    0 -0.17762695179E+02  0.15709982940E+02  0.32157206824E+02  0.39955010387E+02  0.51100000000E-03 0. -1.
        -11    1    3    3    0    0 -0.46803710667E+01 -0.76137654220E+00  0.22815008103E+01  0.52622061694E+01  0.51100000000E-03 0.  1.
         12    1    3    3    0    0  0.21889944353E+01  0.13041139461E+01  0.33553659829E+00  0.25700184106E+01  0.00000000000E+00 0. -1.
</event>
<event>
 7    1  0.1400974E-009  0.4778727E+02  0.7816164E-02  0.1312668E+00
        -11   -1    0    0    0    0  0.00000000000E+00  0.00000000000E+00  0.45593999997E+02  0.45594000000E+02  0.51100000000E-03 0.  1.
         11   -1    0    0    0    0 -0.00000000000E+00 -0.00000000000E+00 -0.45593999997E+02  0.45594000000E+02  0.51100000000E-03 0. -1.
    9900012    2    1    2    0    0 -0.80672259080E+01  0.84575354741E+01 -0.41797287096E+02  0.47787271334E+02  0.20000001319E+02 0.  0.
        -12    1    1    2    0    0  0.80672259080E+01 -0.84575354741E+01  0.41797287096E+02  0.43400728666E+02  0.00000000000E+00 0.  1.
         11    1    3    3    0    0 -0.13183744594E+01 -0.75845505353E+00 -0.45930603124E+00  0.15888132599E+01  0.51100000000E-03 0. -1.
        -11    1    3    3    0    0 -0.69931564668E+01  0.61310180193E+01 -0.67972756665E+01  0.11519399987E+02  0.51100000000E-03 0.  1.
         12    1    3    3    0    0  0.24430501823E+00  0.30849725084E+01 -0.34540705399E+02  0.34679058086E+02  0.00000000000E+00 0. -1.
</event>
<event>
 7    1  0.1400974E-009  0.4778727E+02  0.7816164E-02  0.1312668E+00
        -11   -1    0    0    0    0  0.00000000000E+00  0.00000000000E+00  0.45593999997E+02  0.45594000000E+02  0.51100000000E-03 0. -1.
         11   -1    0    0    0    0 -0.00000000000E+00 -0.00000000000E+00 -0.45593999997E+02  0.45594000000E+02  0.51100000000E-03 0.  1.
    9900012    2    1    2    0    0  0.28016887331E+02  0.20213167652E+02  0.26269846458E+02  0.47787274717E+02  0.20000016743E+02 0.  0.
        -12    1    1    2    0    0 -0.28016887331E+02 -0.20213167652E+02 -0.26269846458E+02  0.43400725283E+02  0.00000000000E+00 0.  1.
         11    1    3    3    0    0  0.17621728723E+02  0.18632752919E+02  0.19870707597E+02  0.32443024292E+02  0.51100000000E-03 0. -1.
        -11    1    3    3    0    0 -0.34275910424E+00  0.23351061764E+01  0.34555688742E+01  0.41846339343E+01  0.51100000000E-03 0.  1.
        -12    1    3    3    0    0  0.10737917711E+02 -0.75469144305E+00  0.29435699862E+01  0.11159616490E+02  0.00000000000E+00 0.  1.
</event>
<event>
 7    1  0.1400974E-009  0.4778727E+02  0.7816164E-02  0.1312668E+00
        -11   -1    0    0    0    0  0.00000000000E+00  0.00000000000E+00  0.45593999997E+02  0.45594000000E+02  0.51100000000E-03 0.  1.
         11   -1    0    0    0    0 -0.00000000000E+00 -0.00000000000E+00 -0.45593999997E+02  0.45594000000E+02  0.51100000000E-03 0. -1.
    9900012    2    1    2    0    0  0.28776346011E+02 -0.13824029145E+01 -0.32459731274E+02  0.47787270952E+02  0.19999999577E+02 0.  0.
        -12    1    1    2    0    0 -0.28776346011E+02  0.13824029145E+01  0.32459731274E+02  0.43400729048E+02  0.00000000000E+00 0.  1.
         11    1    3    3    0    0  0.11516040428E+02 -0.59933172408E+01 -0.11712450906E+02  0.17484866176E+02  0.51100000000E-03 0. -1.
        -11    1    3    3    0    0  0.13619186838E+02  0.36081589345E+01 -0.22168829455E+02  0.26267052760E+02  0.51100000000E-03 0.  1.
        -12    1    3    3    0    0  0.36411187445E+01  0.10027553918E+01  0.14215490871E+01  0.40353520162E+01  0.00000000000E+00 0.  1.
</event>
<event>
 7    1  0.1400974E-009  0.4778727E+02  0.7816164E-02  0.1312668E+00
        -11   -1    0    0    0    0  0.00000000000E+00  0.00000000000E+00  0.45593999997E+02  0.45594000000E+02  0.51100000000E-03 0.  1.
         11   -1    0    0    0    0 -0.00000000000E+00 -0.00000000000E+00 -0.45593999997E+02  0.45594000000E+02  0.51100000000E-03 0. -1.
    9900012    2    1    2    0    0 -0.28812174908E+02 -0.14524222357E+02 -0.29026352565E+02  0.47787267274E+02  0.19999982807E+02 0.  0.
        -12    1    1    2    0    0  0.28812174908E+02  0.14524222357E+02  0.29026352565E+02  0.43400732726E+02  0.00000000000E+00 0.  1.
         11    1    3    3    0    0 -0.67740237140E+01 -0.97508438438E+01 -0.17585254378E+02  0.21218094277E+02  0.51100000000E-03 0. -1.
        -11    1    3    3    0    0 -0.48062003418E+01  0.11282558734E+01  0.21978863066E+00  0.49417436543E+01  0.51100000000E-03 0.  1.
        -12    1    3    3    0    0 -0.17231950852E+02 -0.59016343866E+01 -0.11660886818E+02  0.21627429343E+02  0.00000000000E+00 0.  1.
</event>
<event>
 7    1  0.1400974E-009  0.4778727E+02  0.7816164E-02  0.1312668E+00
        -11   -1    0    0    0    0  0.00000000000E+00  0.00000000000E+00  0.45593999997E+02  0.45594000000E+02  0.51100000000E-03 0.  1.
         11   -1    0    0    0    0 -0.00000000000E+00 -0.00000000000E+00 -0.45593999997E+02  0.45594000000E+02  0.51100000000E-03 0. -1.
    9900012    2    1    2    0    0  0.10912171347E+02  0.41667298733E+02  0.53276865330E+01  0.47787268312E+02  0.19999987544E+02 0.  0.
        -12    1    1    2    0    0 -0.10912171347E+02 -0.41667298733E+02 -0.53276865330E+01  0.43400731688E+02  0.00000000000E+00 0.  1.
         11    1    3    3    0    0  0.11977730779E+02  0.19177002738E+02  0.30571390136E+01  0.22815993686E+02  0.51100000000E-03 0. -1.
        -11    1    3    3    0    0  0.20163884583E+01  0.49004119686E+01  0.45295361849E+01  0.69711231655E+01  0.51100000000E-03 0.  1.
        -12    1    3    3    0    0 -0.30819478901E+01  0.17589884026E+02 -0.22589886655E+01  0.18000151461E+02  0.00000000000E+00 0.  1.
</event>
<event>
 7    1  0.1400974E-009  0.4778727E+02  0.7816164E-02  0.1312668E+00
        -11   -1    0    0    0    0  0.00000000000E+00  0.00000000000E+00  0.45593999997E+02  0.45594000000E+02  0.51100000000E-03 0. -1.
         11   -1    0    0    0    0 -0.00000000000E+00 -0.00000000000E+00 -0.45593999997E+02  0.45594000000E+02  0.51100000000E-03 0.  1.
    9900012    2    1    2    0    0  0.44716121519E+01  0.15785850545E+02 -0.40180026629E+02  0.47787274977E+02  0.20000017929E+02 0.  0.
        -12    1    1    2    0    0 -0.44716121519E+01 -0.15785850545E+02  0.40180026629E+02  0.43400725023E+02  0.00000000000E+00 0.  1.
         11    1    3    3    0    0 -0.19941183423E+01 -0.16552958152E+01 -0.25706844181E+01  0.36503329763E+01  0.51100000000E-03 0. -1.
        -11    1    3    3    0    0  0.49721943243E+01  0.98638429736E+01 -0.82722145434E+01  0.13800277110E+02  0.51100000000E-03 0.  1.
        -12    1    3    3    0    0  0.14935361699E+01  0.75773033867E+01 -0.29337127667E+02  0.30336664890E+02  0.00000000000E+00 0.  1.
</event>
<event>
 7    1  0.1400974E-009  0.4778727E+02  0.7816164E-02  0.1312668E+00
        -11   -1    0    0    0    0  0.00000000000E+00  0.00000000000E+00  0.45593999997E+02  0.45594000000E+02  0.51100000000E-03 0.  1.
         11   -1    0    0    0    0 -0.00000000000E+00 -0.00000000000E+00 -0.45593999997E+02  0.45594000000E+02  0.51100000000E-03 0. -1.
    9900012    2    1    2    0    0  0.19660489671E+02  0.18116357401E+02 -0.34188973228E+02  0.47787272472E+02  0.20000006509E+02 0.  0.
        -12    1    1    2    0    0 -0.19660489671E+02 -0.18116357401E+02  0.34188973228E+02  0.43400727528E+02  0.00000000000E+00 0.  1.
         11    1    3    3    0    0  0.11094869933E+02  0.84389172154E+01 -0.24466871490E+02  0.28159177249E+02  0.51100000000E-03 0. -1.
        -11    1    3    3    0    0  0.17512401784E+01  0.53953860095E+00 -0.78688897895E+01  0.80794412458E+01  0.51100000000E-03 0.  1.
        -12    1    3    3    0    0  0.68143795592E+01  0.91379015852E+01 -0.18532119485E+01  0.11548653977E+02  0.00000000000E+00 0.  1.
</event>
<event>
 7    1  0.1400974E-009  0.4778727E+02  0.7816164E-02  0.1312668E+00
        -11   -1    0    0    0    0  0.00000000000E+00  0.00000000000E+00  0.45593999997E+02  0.45594000000E+02  0.51100000000E-03 0.  1.
         11   -1    0    0    0    0 -0.00000000000E+00 -0.00000000000E+00 -0.45593999997E+02  0.45594000000E+02  0.51100000000E-03 0. -1.
    9900012    2    1    2    0    0 -0.26624456572E+02 -0.19799672777E+02 -0.27977395041E+02  0.47787270016E+02  0.19999995311E+02 0.  0.
        -12    1    1    2    0    0  0.26624456572E+02  0.19799672777E+02  0.27977395041E+02  0.43400729984E+02  0.00000000000E+00 0.  1.
         11    1    3    3    0    0 -0.51707781879E+01 -0.41068970961E+01  0.34283284359E+00  0.66121921816E+01  0.51100000000E-03 0.  1.
        -11    1    3    3    0    0 -0.21675187691E+02 -0.13778357254E+02 -0.19773335490E+02  0.32413603421E+02  0.51100000000E-03 0. -1.
         12    1    3    3    0    0  0.22150930668E+00 -0.19144184271E+01 -0.85468923952E+01  0.87614744137E+01  0.00000000000E+00 0. -1.
</event>
<event>
 7    1  0.1400974E-009  0.4778727E+02  0.7816164E-02  0.1312668E+00
        -11   -1    0    0    0    0  0.00000000000E+00  0.00000000000E+00  0.45593999997E+02  0.45594000000E+02  0.51100000000E-03 0.  1.
         11   -1    0    0    0    0 -0.00000000000E+00 -0.00000000000E+00 -0.45593999997E+02  0.45594000000E+02  0.51100000000E-03 0. -1.
    9900012    2    1    2    0    0  0.23580735864E+02  0.10189837256E+01 -0.36421613303E+02  0.47787270198E+02  0.19999996140E+02 0.  0.
        -12    1    1    2    0    0 -0.23580735864E+02 -0.10189837256E+01  0.36421613303E+02  0.43400729802E+02  0.00000000000E+00 0.  1.
         11    1    3    3    0    0  0.12721635192E+02  0.37414339950E+01 -0.22896618243E+02  0.26459279233E+02  0.51100000000E-03 0. -1.
        -11    1    3    3    0    0 -0.22785294303E-01  0.31259074896E+01 -0.16313723210E+00  0.31302445305E+01  0.51100000000E-03 0.  1.
        -12    1    3    3    0    0  0.10881885967E+02 -0.58483577590E+01 -0.13361857828E+02  0.18197746434E+02  0.00000000000E+00 0.  1.
</event>
<event>
 7    1  0.1400974E-009  0.4778727E+02  0.7816164E-02  0.1312668E+00
        -11   -1    0    0    0    0  0.00000000000E+00  0.00000000000E+00  0.45593999997E+02  0.45594000000E+02  0.51100000000E-03 0.  1.
         11   -1    0    0    0    0 -0.00000000000E+00 -0.00000000000E+00 -0.45593999997E+02  0.45594000000E+02  0.51100000000E-03 0. -1.
    9900012    2    1    2    0    0  0.20211353889E+02  0.14516219694E+02 -0.35558456942E+02  0.47787270509E+02  0.19999997561E+02 0.  0.
        -12    1    1    2    0    0 -0.20211353889E+02 -0.14516219694E+02  0.35558456942E+02  0.43400729491E+02  0.00000000000E+00 0.  1.
         11    1    3    3    0    0  0.15588884918E+01 -0.14214866735E+01 -0.38981205851E+00  0.21453930630E+01  0.51100000000E-03 0. -1.
        -11    1    3    3    0    0 -0.15849536713E+01 -0.97783667397E+00 -0.24679792974E+00  0.18786037848E+01  0.51100000000E-03 0.  1.
         12    1    3    3    0    0  0.20237419068E+02  0.16915543041E+02 -0.34921846954E+02  0.43763273662E+02  0.00000000000E+00 0. -1.
</event>
<event>
 7    1  0.1400974E-009  0.4778727E+02  0.7816164E-02  0.1312668E+00
        -11   -1    0    0    0    0  0.00000000000E+00  0.00000000000E+00  0.45593999997E+02  0.45594000000E+02  0.51100000000E-03 0. -1.
         11   -1    0    0    0    0 -0.00000000000E+00 -0.00000000000E+00 -0.45593999997E+02  0.45594000000E+02  0.51100000000E-03 0.  1.
    9900012    2    1    2    0    0 -0.23784229627E+01 -0.12266716976E+02  0.41563138548E+02  0.47787265823E+02  0.19999976192E+02 0.  0.
        -12    1    1    2    0    0  0.23784229627E+01  0.12266716976E+02 -0.41563138548E+02  0.43400734177E+02  0.00000000000E+00 0.  1.
         11    1    3    3    0    0 -0.54086040795E+01 -0.18185699004E+01  0.29650362231E+02  0.30194439475E+02  0.51100000000E-03 0. -1.
        -11    1    3    3    0    0  0.37141034998E+01 -0.82842757368E+01  0.12303026474E+02  0.15290135708E+02  0.51100000000E-03 0.  1.
        -12    1    3    3    0    0 -0.68392238307E+00 -0.21638713386E+01 -0.39025015605E+00  0.23026906393E+01  0.00000000000E+00 0.  1.
</event>
<event>
 7    1  0.1400974E-009  0.4778727E+02  0.7816164E-02  0.1312668E+00
        -11   -1    0    0    0    0  0.00000000000E+00  0.00000000000E+00  0.45593999997E+02  0.45594000000E+02  0.51100000000E-03 0. -1.
         11   -1    0    0    0    0 -0.00000000000E+00 -0.00000000000E+00 -0.45593999997E+02  0.45594000000E+02  0.51100000000E-03 0.  1.
    9900012    2    1    2    0    0  0.35271722383E+02 -0.16948440236E+02  0.18769105831E+02  0.47787270052E+02  0.19999995476E+02 0.  0.
        -12    1    1    2    0    0 -0.35271722383E+02  0.16948440236E+02 -0.18769105831E+02  0.43400729948E+02  0.00000000000E+00 0.  1.
         11    1    3    3    0    0  0.15643467389E+02 -0.12206279182E+02  0.53332660956E+01  0.20546412118E+02  0.51100000000E-03 0. -1.
        -11    1    3    3    0    0  0.13158272402E+02 -0.25460794712E+01  0.14976974545E+01  0.13485761054E+02  0.51100000000E-03 0.  1.
         12    1    3    3    0    0  0.64699825925E+01 -0.21960815825E+01  0.11938142281E+02  0.13755096880E+02  0.00000000000E+00 0. -1.
</event>
<event>
 7    1  0.1400974E-009  0.4778726E+02  0.7816164E-02  0.1312668E+00
        -11   -1    0    0    0    0  0.00000000000E+00  0.00000000000E+00  0.45593999997E+02  0.45594000000E+02  0.51100000000E-03 0.  1.
         11   -1    0    0    0    0 -0.00000000000E+00 -0.00000000000E+00 -0.45593999997E+02  0.45594000000E+02  0.51100000000E-03 0. -1.
    9900012    2    1    2    0    0 -0.42164628218E+02 -0.98119662499E+01 -0.30811713542E+01  0.47787260705E+02  0.19999952859E+02 0.  0.
        -12    1    1    2    0    0  0.42164628218E+02  0.98119662499E+01  0.30811713542E+01  0.43400739295E+02  0.00000000000E+00 0.  1.
         11    1    3    3    0    0 -0.35721629021E+02 -0.13895346739E+02 -0.23701999140E+01  0.38402256299E+02  0.51100000000E-03 0. -1.
        -11    1    3    3    0    0 -0.18807393522E+01  0.20733037999E+01 -0.28185275230E+01  0.39723880496E+01  0.51100000000E-03 0.  1.
        -12    1    3    3    0    0 -0.45622598441E+01  0.20100766894E+01  0.21075560829E+01  0.54126163567E+01  0.00000000000E+00 0.  1.
</event>
<event>
 7    1  0.1400974E-009  0.4778728E+02  0.7816164E-02  0.1312668E+00
        -11   -1    0    0    0    0  0.00000000000E+00  0.00000000000E+00  0.45593999997E+02  0.45594000000E+02  0.51100000000E-03 0. -1.
         11   -1    0    0    0    0 -0.00000000000E+00 -0.00000000000E+00 -0.45593999997E+02  0.45594000000E+02  0.51100000000E-03 0.  1.
    9900012    2    1    2    0    0 -0.31006370703E+02  0.20417810634E+02  0.22479785250E+02  0.47787276962E+02  0.20000026982E+02 0.  0.
        -12    1    1    2    0    0  0.31006370703E+02 -0.20417810634E+02 -0.22479785250E+02  0.43400723038E+02  0.00000000000E+00 0.  1.
         11    1    3    3    0    0 -0.65375301770E+01  0.13025878513E+02  0.15074843104E+02  0.20968159354E+02  0.51100000000E-03 0. -1.
        -11    1    3    3    0    0 -0.65992726121E+01  0.56673779845E+00  0.24178162331E+01  0.70510585262E+01  0.51100000000E-03 0.  1.
         12    1    3    3    0    0 -0.17869567914E+02  0.68251943229E+01  0.49871259136E+01  0.19768059082E+02  0.00000000000E+00 0. -1.
</event>
<event>
 7    1  0.1400974E-009  0.4778727E+02  0.7816164E-02  0.1312668E+00
        -11   -1    0    0    0    0  0.00000000000E+00  0.00000000000E+00  0.45593999997E+02  0.45594000000E+02  0.51100000000E-03 0. -1.
         11   -1    0    0    0    0 -0.00000000000E+00 -0.00000000000E+00 -0.45593999997E+02  0.45594000000E+02  0.51100000000E-03 0.  1.
    9900012    2    1    2    0    0 -0.19715451792E+02 -0.38418755274E+02 -0.43501052625E+01  0.47787271757E+02  0.20000003250E+02 0.  0.
        -12    1    1    2    0    0  0.19715451792E+02  0.38418755274E+02  0.43501052625E+01  0.43400728243E+02  0.00000000000E+00 0.  1.
         11    1    3    3    0    0 -0.66069841260E+01 -0.17508488263E+02 -0.25696183632E+01  0.18889212246E+02  0.51100000000E-03 0. -1.
        -11    1    3    3    0    0 -0.13765005843E+02 -0.80748974370E+01 -0.16659815764E+01  0.16045399632E+02  0.51100000000E-03 0.  1.
         12    1    3    3    0    0  0.65653817685E+00 -0.12835369574E+02 -0.11450532287E+00  0.12852659879E+02  0.00000000000E+00 0. -1.
</event>
<event>
 7    1  0.1400974E-009  0.4778727E+02  0.7816164E-02  0.1312668E+00
        -11   -1    0    0    0    0  0.00000000000E+00  0.00000000000E+00  0.45593999997E+02  0.45594000000E+02  0.51100000000E-03 0.  1.
         11   -1    0    0    0    0 -0.00000000000E+00 -0.00000000000E+00 -0.45593999997E+02  0.45594000000E+02  0.51100000000E-03 0. -1.
    9900012    2    1    2    0    0  0.36542399536E+02  0.22731786100E+02 -0.56162257184E+01  0.47787273572E+02  0.20000011524E+02 0.  0.
        -12    1    1    2    0    0 -0.36542399536E+02 -0.22731786100E+02  0.56162257184E+01  0.43400726428E+02  0.00000000000E+00 0.  1.
         11    1    3    3    0    0  0.91869070460E+01  0.14895252135E+01 -0.81201847419E+01  0.12351329764E+02  0.51100000000E-03 0. -1.
        -11    1    3    3    0    0  0.17245335401E+02  0.97893369712E+01  0.34575913845E+01  0.20129273456E+02  0.51100000000E-03 0.  1.
        -12    1    3    3    0    0  0.10110157089E+02  0.11452923916E+02 -0.95363236089E+00  0.15306670352E+02  0.00000000000E+00 0.  1.
</event>
<event>
 7    1  0.1400974E-009  0.4778727E+02  0.7816164E-02  0.1312668E+00
        -11   -1    0    0    0    0  0.00000000000E+00  0.00000000000E+00  0.45593999997E+02  0.45594000000E+02  0.51100000000E-03 0.  1.
         11   -1    0    0    0    0 -0.00000000000E+00 -0.00000000000E+00 -0.45593999997E+02  0.45594000000E+02  0.51100000000E-03 0. -1.
    9900012    2    1    2    0    0 -0.25667798072E+02  0.14020471544E+02 -0.32065778338E+02  0.47787267050E+02  0.19999981790E+02 0.  0.
        -12    1    1    2    0    0  0.25667798072E+02 -0.14020471544E+02  0.32065778338E+02  0.43400732950E+02  0.00000000000E+00 0.  1.
         11    1    3    3    0    0 -0.21414502417E+01 -0.89214102866E+00  0.86740631628E+00  0.24767153109E+01  0.51100000000E-03 0. -1.
        -11    1    3    3    0    0 -0.39250272629E+00 -0.21211339891E+01 -0.10681124312E+01  0.24071003753E+01  0.51100000000E-03 0.  1.
         12    1    3    3    0    0 -0.23133845104E+02  0.17033746561E+02 -0.31865072223E+02  0.42903451364E+02  0.00000000000E+00 0. -1.
</event>
<event>
 7    1  0.1400974E-009  0.4778727E+02  0.7816164E-02  0.1312668E+00
        -11   -1    0    0    0    0  0.00000000000E+00  0.00000000000E+00  0.45593999997E+02  0.45594000000E+02  0.51100000000E-03 0.  1.
         11   -1    0    0    0    0 -0.00000000000E+00 -0.00000000000E+00 -0.45593999997E+02  0.45594000000E+02  0.51100000000E-03 0. -1.
    9900012    2    1    2    0    0 -0.16173554411E+02  0.40274465297E+02 -0.83815028219E-01  0.47787269105E+02  0.19999991156E+02 0.  0.
        -12    1    1    2    0    0  0.16173554411E+02 -0.40274465297E+02  0.83815028219E-01  0.43400730895E+02  0.00000000000E+00 0.  1.
         11    1    3    3    0    0 -0.54663357098E+01  0.25599281182E+01 -0.19606548142E+01  0.63465128712E+01  0.51100000000E-03 0. -1.
        -11    1    3    3    0    0 -0.49390485877E+01  0.15567393594E+02  0.73494483919E+01  0.17909559911E+02  0.51100000000E-03 0.  1.
        -12    1    3    3    0    0 -0.57681701137E+01  0.22147143585E+02 -0.54726086059E+01  0.23531196323E+02  0.00000000000E+00 0.  1.
</event>
<event>
 7    1  0.1400974E-009  0.4778727E+02  0.7816164E-02  0.1312668E+00
        -11   -1    0    0    0    0  0.00000000000E+00  0.00000000000E+00  0.45593999997E+02  0.45594000000E+02  0.51100000000E-03 0. -1.
         11   -1    0    0    0    0 -0.00000000000E+00 -0.00000000000E+00 -0.45593999997E+02  0.45594000000E+02  0.51100000000E-03 0.  1.
    9900012    2    1    2    0    0 -0.11601648849E+02  0.14489910375E+02  0.39230951416E+02  0.47787270655E+02  0.19999998222E+02 0.  0.
        -12    1    1    2    0    0  0.11601648849E+02 -0.14489910375E+02 -0.39230951416E+02  0.43400729345E+02  0.00000000000E+00 0.  1.
         11    1    3    3    0    0 -0.56253974441E+00  0.35273771669E+01  0.23889452185E+00  0.35799317724E+01  0.51100000000E-03 0. -1.
        -11    1    3    3    0    0 -0.56207447817E+01  0.45854249989E+00  0.31342205308E+01  0.64518502557E+01  0.51100000000E-03 0.  1.
         12    1    3    3    0    0 -0.54183643230E+01  0.10503990708E+02  0.35857836364E+02  0.37755488626E+02  0.00000000000E+00 0. -1.
</event>
<event>
 7    1  0.1400974E-009  0.4778727E+02  0.7816164E-02  0.1312668E+00
        -11   -1    0    0    0    0  0.00000000000E+00  0.00000000000E+00  0.45593999997E+02  0.45594000000E+02  0.51100000000E-03 0.  1.
         11   -1    0    0    0    0 -0.00000000000E+00 -0.00000000000E+00 -0.45593999997E+02  0.45594000000E+02  0.51100000000E-03 0. -1.
    9900012    2    1    2    0    0  0.11680161123E+02  0.40856370937E+02  0.88291713306E+01  0.47787268711E+02  0.19999989362E+02 0.  0.
        -12    1    1    2    0    0 -0.11680161123E+02 -0.40856370937E+02 -0.88291713306E+01  0.43400731289E+02  0.00000000000E+00 0.  1.
         11    1    3    3    0    0  0.13747201718E+01  0.12801463102E+02  0.78899404894E+01  0.15100280603E+02  0.51100000000E-03 0.  1.
        -11    1    3    3    0    0  0.38817664419E+01  0.22753308224E+02 -0.33410830502E+01  0.23322606674E+02  0.51100000000E-03 0. -1.
         12    1    3    3    0    0  0.64236745097E+01  0.53015996108E+01  0.42803138914E+01  0.93643814344E+01  0.00000000000E+00 0. -1.
</event>
<event>
 7    1  0.1400974E-009  0.4778727E+02  0.7816164E-02  0.1312668E+00
        -11   -1    0    0    0    0  0.00000000000E+00  0.00000000000E+00  0.45593999997E+02  0.45594000000E+02  0.51100000000E-03 0. -1.
         11   -1    0    0    0    0 -0.00000000000E+00 -0.00000000000E+00 -0.45593999997E+02  0.45594000000E+02  0.51100000000E-03 0.  1.
    9900012    2    1    2    0    0  0.74484872733E+01 -0.91919392639E+01  0.41757055782E+02  0.47787269387E+02  0.19999992445E+02 0.  0.
        -12    1    1    2    0    0 -0.74484872733E+01  0.91919392639E+01 -0.41757055782E+02  0.43400730613E+02  0.00000000000E+00 0.  1.
         11    1    3    3    0    0  0.25555991379E+01 -0.13175508522E+01  0.25325546648E+02  0.25488239258E+02  0.51100000000E-03 0. -1.
        -11    1    3    3    0    0  0.69887156202E+01 -0.93994837241E+01  0.10131906418E+02  0.15487025803E+02  0.51100000000E-03 0.  1.
        -12    1    3    3    0    0 -0.20958274848E+01  0.15250953124E+01  0.62996027160E+01  0.68120043260E+01  0.00000000000E+00 0.  1.
</event>
<event>
 7    1  0.1400974E-009  0.4778729E+02  0.7816164E-02  0.1312668E+00
        -11   -1    0    0    0    0  0.00000000000E+00  0.00000000000E+00  0.45593999997E+02  0.45594000000E+02  0.51100000000E-03 0.  1.
         11   -1    0    0    0    0 -0.00000000000E+00 -0.00000000000E+00 -0.45593999997E+02  0.45594000000E+02  0.51100000000E-03 0. -1.
    9900012    2    1    2    0    0  0.15102540127E+02 -0.19879432439E+02 -0.35501308499E+02  0.47787291970E+02  0.20000095408E+02 0.  0.
        -12    1    1    2    0    0 -0.15102540127E+02  0.19879432439E+02  0.35501308499E+02  0.43400708030E+02  0.00000000000E+00 0.  1.
         11    1    3    3    0    0  0.37768090787E+01 -0.13088032119E+02 -0.10521688734E+02  0.17212402669E+02  0.51100000000E-03 0. -1.
        -11    1    3    3    0    0  0.12959474243E+02 -0.83141974642E+01 -0.21775700243E+02  0.26669363949E+02  0.51100000000E-03 0.  1.
        -12    1    3    3    0    0 -0.16337431940E+01  0.15227971449E+01 -0.32039195220E+01  0.39055253516E+01  0.00000000000E+00 0.  1.
</event>
<event>
 7    1  0.1917688E-009  0.4778727E+02  0.7816164E-02  0.1312668E+00
        -11   -1    0    0    0    0  0.00000000000E+00  0.00000000000E+00  0.45593999997E+02  0.45594000000E+02  0.51100000000E-03 0. -1.
         11   -1    0    0    0    0 -0.00000000000E+00 -0.00000000000E+00 -0.45593999997E+02  0.45594000000E+02  0.51100000000E-03 0.  1.
    9900012    2    1    2    0    0  0.25030635858E+02 -0.33773623263E+02  0.10790414271E+02  0.47787269593E+02  0.19999993383E+02 0.  0.
        -12    1    1    2    0    0 -0.25030635858E+02  0.33773623263E+02 -0.10790414271E+02  0.43400730407E+02  0.00000000000E+00 0.  1.
         11    1    3    3    0    0  0.11913195452E+02 -0.11433160886E+02  0.32245021636E+01  0.16823757256E+02  0.51100000000E-03 0. -1.
        -11    1    3    3    0    0  0.42803158084E+00 -0.11720189318E+02 -0.19291082089E+01  0.11885600844E+02  0.51100000000E-03 0.  1.
        -12    1    3    3    0    0  0.12689408824E+02 -0.10620273059E+02  0.94950203159E+01  0.19077911494E+02  0.00000000000E+00 0.  1.
</event>
<event>
 7    1  0.1400974E-009  0.4778728E+02  0.7816164E-02  0.1312668E+00
        -11   -1    0    0    0    0  0.00000000000E+00  0.00000000000E+00  0.45593999997E+02  0.45594000000E+02  0.51100000000E-03 0.  1.
         11   -1    0    0    0    0 -0.00000000000E+00 -0.00000000000E+00 -0.45593999997E+02  0.45594000000E+02  0.51100000000E-03 0. -1.
    9900012    2    1    2    0    0  0.18516825100E+02  0.21269723364E+02 -0.32990131238E+02  0.47787277623E+02  0.20000029993E+02 0.  0.
        -12    1    1    2    0    0 -0.18516825100E+02 -0.21269723364E+02  0.32990131238E+02  0.43400722377E+02  0.00000000000E+00 0.  1.
         11    1    3    3    0    0  0.34890385307E+01  0.14330140835E+02 -0.22271634219E+02  0.26712394450E+02  0.51100000000E-03 0. -1.
        -11    1    3    3    0    0  0.31234011534E+01 -0.14583986649E+01 -0.30932651986E+01  0.46315063727E+01  0.51100000000E-03 0.  1.
         12    1    3    3    0    0  0.11904385416E+02  0.83979811945E+01 -0.76252318205E+01  0.16443376800E+02  0.00000000000E+00 0. -1.
</event>
<event>
 7    1  0.1400974E-009  0.4778727E+02  0.7816164E-02  0.1312668E+00
        -11   -1    0    0    0    0  0.00000000000E+00  0.00000000000E+00  0.45593999997E+02  0.45594000000E+02  0.51100000000E-03 0.  1.
         11   -1    0    0    0    0 -0.00000000000E+00 -0.00000000000E+00 -0.45593999997E+02  0.45594000000E+02  0.51100000000E-03 0. -1.
    9900012    2    1    2    0    0 -0.27579164664E+02 -0.14216936560E+01 -0.33481216068E+02  0.47787269985E+02  0.19999995169E+02 0.  0.
        -12    1    1    2    0    0  0.27579164664E+02  0.14216936560E+01  0.33481216068E+02  0.43400730015E+02  0.00000000000E+00 0.  1.
         11    1    3    3    0    0 -0.62820278960E+01  0.26369303575E+01 -0.39693091159E+00  0.68245754891E+01  0.51100000000E-03 0. -1.
        -11    1    3    3    0    0 -0.23585277305E+01 -0.17390084904E+01 -0.19151847058E+00  0.29365767776E+01  0.51100000000E-03 0.  1.
        -12    1    3    3    0    0 -0.18938609038E+02 -0.23196155232E+01 -0.32892766686E+02  0.38026117718E+02  0.00000000000E+00 0.  1.
</event>
<event>
 7    1  0.1400974E-009  0.4778727E+02  0.7816164E-02  0.1312668E+00
        -11   -1    0    0    0    0  0.00000000000E+00  0.00000000000E+00  0.45593999997E+02  0.45594000000E+02  0.51100000000E-03 0.  1.
         11   -1    0    0    0    0 -0.00000000000E+00 -0.00000000000E+00 -0.45593999997E+02  0.45594000000E+02  0.51100000000E-03 0. -1.
    9900012    2    1    2    0    0 -0.18582332744E+02 -0.35435600069E+02  0.16811848974E+02  0.47787272951E+02  0.20000008692E+02 0.  0.
        -12    1    1    2    0    0  0.18582332744E+02  0.35435600069E+02 -0.16811848974E+02  0.43400727049E+02  0.00000000000E+00 0.  1.
         11    1    3    3    0    0 -0.36465906628E+01 -0.13033658234E+02  0.85914050638E+01  0.16030786370E+02  0.51100000000E-03 0.  1.
        -11    1    3    3    0    0 -0.15478304263E+02 -0.11821245640E+02  0.82764433861E+01  0.21161740636E+02  0.51100000000E-03 0. -1.
         12    1    3    3    0    0  0.54256218223E+00 -0.10580696195E+02 -0.55999475425E-01  0.10594745945E+02  0.00000000000E+00 0. -1.
</event>
<event>
 7    1  0.1400974E-009  0.4778723E+02  0.7816164E-02  0.1312668E+00
        -11   -1    0    0    0    0  0.00000000000E+00  0.00000000000E+00  0.45593999997E+02  0.45594000000E+02  0.51100000000E-03 0.  1.
         11   -1    0    0    0    0 -0.00000000000E+00 -0.00000000000E+00 -0.45593999997E+02  0.45594000000E+02  0.51100000000E-03 0. -1.
    9900012    2    1    2    0    0  0.13386378327E+02  0.13484425643E+01 -0.41262741102E+02  0.47787225522E+02  0.19999792443E+02 0.  0.
        -12    1    1    2    0    0 -0.13386378327E+02 -0.13484425643E+01  0.41262741102E+02  0.43400774478E+02  0.00000000000E+00 0.  1.
         11    1    3    3    0    0  0.50216808828E+01  0.73795403959E+01 -0.17044912998E+02  0.19240684881E+02  0.51100000000E-03 0. -1.
        -11    1    3    3    0    0 -0.96799495784E+00 -0.14896300859E+01  0.40807577346E+00  0.18227830725E+01  0.51100000000E-03 0.  1.
         12    1    3    3    0    0  0.93326924019E+01 -0.45414677457E+01 -0.24625903878E+02  0.26723757568E+02  0.00000000000E+00 0. -1.
</event>
<event>
 7    1  0.1400974E-009  0.4778727E+02  0.7816164E-02  0.1312668E+00
        -11   -1    0    0    0    0  0.00000000000E+00  0.00000000000E+00  0.45593999997E+02  0.45594000000E+02  0.51100000000E-03 0. -1.
         11   -1    0    0    0    0 -0.00000000000E+00 -0.00000000000E+00 -0.45593999997E+02  0.45594000000E+02  0.51100000000E-03 0.  1.
    9900012    2    1    2    0    0 -0.39658897663E+01 -0.37085570248E+02  0.22193591437E+02  0.47787270707E+02  0.19999998461E+02 0.  0.
        -12    1    1    2    0    0  0.39658897663E+01  0.37085570248E+02 -0.22193591437E+02  0.43400729293E+02  0.00000000000E+00 0.  1.
         11    1    3    3    0    0 -0.32039459302E+01 -0.25611949277E+01  0.16078034546E+00  0.41049774130E+01  0.51100000000E-03 0. -1.
        -11    1    3    3    0    0  0.71937992890E+01 -0.15056372142E+02  0.99160793023E+01  0.19410659939E+02  0.51100000000E-03 0.  1.
         12    1    3    3    0    0 -0.79557431251E+01 -0.19468003179E+02  0.12116731789E+02  0.24271633355E+02  0.00000000000E+00 0. -1.
</event>
<event>
 7    1  0.1400974E-009  0.4778727E+02  0.7816164E-02  0.1312668E+00
        -11   -1    0    0    0    0  0.00000000000E+00  0.00000000000E+00  0.45593999997E+02  0.45594000000E+02  0.51100000000E-03 0. -1.
         11   -1    0    0    0    0 -0.00000000000E+00 -0.00000000000E+00 -0.45593999997E+02  0.45594000000E+02  0.51100000000E-03 0.  1.
    9900012    2    1    2    0    0  0.37558889556E+02 -0.63055237407E+01 -0.20813296935E+02  0.47787272545E+02  0.20000006841E+02 0.  0.
        -12    1    1    2    0    0 -0.37558889556E+02  0.63055237407E+01  0.20813296935E+02  0.43400727455E+02  0.00000000000E+00 0.  1.
         11    1    3    3    0    0  0.23754863398E-01 -0.13380019736E+01  0.13408782988E+01  0.18944045102E+01  0.51100000000E-03 0. -1.
        -11    1    3    3    0    0  0.23133350900E+02  0.35541285075E+01 -0.11756801581E+02  0.26191718862E+02  0.51100000000E-03 0.  1.
         12    1    3    3    0    0  0.14401783793E+02 -0.85216502746E+01 -0.10397373653E+02  0.19701149172E+02  0.00000000000E+00 0. -1.
</event>
<event>
 7    1  0.1400974E-009  0.4778727E+02  0.7816164E-02  0.1312668E+00
        -11   -1    0    0    0    0  0.00000000000E+00  0.00000000000E+00  0.45593999997E+02  0.45594000000E+02  0.51100000000E-03 0. -1.
         11   -1    0    0    0    0 -0.00000000000E+00 -0.00000000000E+00 -0.45593999997E+02  0.45594000000E+02  0.51100000000E-03 0.  1.
    9900012    2    1    2    0    0 -0.21744223447E+02 -0.25305882875E+02  0.27756526082E+02  0.47787266117E+02  0.19999977535E+02 0.  0.
        -12    1    1    2    0    0  0.21744223447E+02  0.25305882875E+02 -0.27756526082E+02  0.43400733883E+02  0.00000000000E+00 0.  1.
         11    1    3    3    0    0 -0.42379060051E+01 -0.77188490241E+01 -0.35106141908E+00  0.88127023067E+01  0.51100000000E-03 0. -1.
        -11    1    3    3    0    0 -0.13609904167E+02 -0.62437629856E+01  0.14659959099E+02  0.20955392354E+02  0.51100000000E-03 0.  1.
        -12    1    3    3    0    0 -0.38964132742E+01 -0.11343270866E+02  0.13447628403E+02  0.18019171457E+02  0.00000000000E+00 0.  1.
</event>
<event>
 7    1  0.1400974E-009  0.4778727E+02  0.7816164E-02  0.1312668E+00
        -11   -1    0    0    0    0  0.00000000000E+00  0.00000000000E+00  0.45593999997E+02  0.45594000000E+02  0.51100000000E-03 0. -1.
         11   -1    0    0    0    0 -0.00000000000E+00 -0.00000000000E+00 -0.45593999997E+02  0.45594000000E+02  0.51100000000E-03 0.  1.
    9900012    2    1    2    0    0 -0.94038725532E+01 -0.17380199437E+02  0.38640902332E+02  0.47787268617E+02  0.19999988934E+02 0.  0.
        -12    1    1    2    0    0  0.94038725532E+01  0.17380199437E+02 -0.38640902332E+02  0.43400731383E+02  0.00000000000E+00 0.  1.
         11    1    3    3    0    0 -0.14962513684E+01  0.25120116272E+01  0.44576079124E+01  0.53309698118E+01  0.51100000000E-03 0. -1.
        -11    1    3    3    0    0 -0.11713752628E+01  0.10199340165E+01 -0.28721908341E+00  0.15795190620E+01  0.51100000000E-03 0.  1.
         12    1    3    3    0    0 -0.67362459221E+01 -0.20912145081E+02  0.34470513503E+02  0.40876779744E+02  0.00000000000E+00 0. -1.
</event>
<event>
 7    1  0.1400974E-009  0.4778726E+02  0.7816164E-02  0.1312668E+00
        -11   -1    0    0    0    0  0.00000000000E+00  0.00000000000E+00  0.45593999997E+02  0.45594000000E+02  0.51100000000E-03 0. -1.
         11   -1    0    0    0    0 -0.00000000000E+00 -0.00000000000E+00 -0.45593999997E+02  0.45594000000E+02  0.51100000000E-03 0.  1.
    9900012    2    1    2    0    0  0.43044295629E+02 -0.17224488911E+01  0.52769500320E+01  0.47787257863E+02  0.19999939899E+02 0.  0.
        -12    1    1    2    0    0 -0.43044295629E+02  0.17224488911E+01 -0.52769500320E+01  0.43400742137E+02  0.00000000000E+00 0.  1.
         11    1    3    3    0    0  0.31654209887E+02 -0.82227881992E+01  0.45473466407E+01  0.33019412640E+02  0.51100000000E-03 0. -1.
        -11    1    3    3    0    0  0.22741805533E+01  0.58831115544E+00 -0.25023629585E+01  0.34321753804E+01  0.51100000000E-03 0.  1.
        -12    1    3    3    0    0  0.91159051893E+01  0.59120281527E+01  0.32319663498E+01  0.11335669843E+02  0.00000000000E+00 0.  1.
</event>
<event>
 7    1  0.1400974E-009  0.4778727E+02  0.7816164E-02  0.1312668E+00
        -11   -1    0    0    0    0  0.00000000000E+00  0.00000000000E+00  0.45593999997E+02  0.45594000000E+02  0.51100000000E-03 0. -1.
         11   -1    0    0    0    0 -0.00000000000E+00 -0.00000000000E+00 -0.45593999997E+02  0.45594000000E+02  0.51100000000E-03 0.  1.
    9900012    2    1    2    0    0  0.43037623799E+02 -0.54329759087E+01  0.13671705480E+01  0.47787269075E+02  0.19999991021E+02 0.  0.
        -12    1    1    2    0    0 -0.43037623799E+02  0.54329759087E+01 -0.13671705480E+01  0.43400730925E+02  0.00000000000E+00 0.  1.
         11    1    3    3    0    0  0.18028956069E+02 -0.62360748061E+01 -0.41983663397E+01  0.19533513921E+02  0.51100000000E-03 0. -1.
        -11    1    3    3    0    0  0.14488071146E+02  0.38465596772E+01 -0.17372092008E+01  0.15090332102E+02  0.51100000000E-03 0.  1.
         12    1    3    3    0    0  0.10520596585E+02 -0.30434607798E+01  0.73027460885E+01  0.13163423052E+02  0.00000000000E+00 0. -1.
</event>
<event>
 7    1  0.1400974E-009  0.4778728E+02  0.7816164E-02  0.1312668E+00
        -11   -1    0    0    0    0  0.00000000000E+00  0.00000000000E+00  0.45593999997E+02  0.45594000000E+02  0.51100000000E-03 0.  1.
         11   -1    0    0    0    0 -0.00000000000E+00 -0.00000000000E+00 -0.45593999997E+02  0.45594000000E+02  0.51100000000E-03 0. -1.
    9900012    2    1    2    0    0  0.21274522416E+01  0.34094452758E+02 -0.26770597056E+02  0.47787278478E+02  0.20000033893E+02 0.  0.
        -12    1    1    2    0    0 -0.21274522416E+01 -0.34094452758E+02  0.26770597056E+02  0.43400721522E+02  0.00000000000E+00 0.  1.
         11    1    3    3    0    0  0.32532117013E+01  0.16826845725E+02 -0.21350612641E+02  0.27378363425E+02  0.51100000000E-03 0. -1.
        -11    1    3    3    0    0  0.36051942581E+01  0.34430536278E+01 -0.21873831136E+01  0.54439589519E+01  0.51100000000E-03 0.  1.
        -12    1    3    3    0    0 -0.47309537178E+01  0.13824553405E+02 -0.32326013007E+01  0.14964956101E+02  0.00000000000E+00 0.  1.
</event>
<event>
 7    1  0.1400974E-009  0.4778727E+02  0.7816164E-02  0.1312668E+00
        -11   -1    0    0    0    0  0.00000000000E+00  0.00000000000E+00  0.45593999997E+02  0.45594000000E+02  0.51100000000E-03 0.  1.
         11   -1    0    0    0    0 -0.00000000000E+00 -0.00000000000E+00 -0.45593999997E+02  0.45594000000E+02  0.51100000000E-03 0. -1.
    9900012    2    1    2    0    0 -0.18198560961E+02 -0.35570513216E+02 -0.16946212156E+02  0.47787272611E+02  0.20000007141E+02 0.  0.
        -12    1    1    2    0    0  0.18198560961E+02  0.35570513216E+02  0.16946212156E+02  0.43400727389E+02  0.00000000000E+00 0.  1.
         11    1    3    3    0    0 -0.21466640742E+02 -0.30839200685E+02 -0.14827740566E+02  0.40394737952E+02  0.51100000000E-03 0.  1.
        -11    1    3    3    0    0  0.12150591450E+01 -0.45871452081E+01 -0.49476447929E+00  0.47710650841E+01  0.51100000000E-03 0. -1.
        -12    1    3    3    0    0  0.20530206361E+01 -0.14416732281E+00 -0.16237071110E+01  0.26214695748E+01  0.00000000000E+00 0.  1.
</event>
<event>
 7    1  0.1426992E-009  0.4778729E+02  0.7816164E-02  0.1312668E+00
        -11   -1    0    0    0    0  0.00000000000E+00  0.00000000000E+00  0.45593999997E+02  0.45594000000E+02  0.51100000000E-03 0.  1.
         11   -1    0    0    0    0 -0.00000000000E+00 -0.00000000000E+00 -0.45593999997E+02  0.45594000000E+02  0.51100000000E-03 0. -1.
    9900012    2    1    2    0    0 -0.43389611509E+02 -0.56457644655E+00 -0.80275127978E+00  0.47787290984E+02  0.20000090911E+02 0.  0.
        -12    1    1    2    0    0  0.43389611509E+02  0.56457644655E+00  0.80275127978E+00  0.43400709016E+02  0.00000000000E+00 0.  1.
         11    1    3    3    0    0 -0.10144136973E+02  0.28774871575E+01  0.26704077492E+01  0.10877248047E+02  0.51100000000E-03 0. -1.
        -11    1    3    3    0    0 -0.24641289473E+02 -0.62537890177E+00 -0.90714575680E+01  0.26265482831E+02  0.51100000000E-03 0.  1.
        -12    1    3    3    0    0 -0.86041850639E+01 -0.28166847023E+01  0.55982985390E+01  0.10644560106E+02  0.00000000000E+00 0.  1.
</event>
<event>
 7    1  0.1400974E-009  0.4778727E+02  0.7816164E-02  0.1312668E+00
        -11   -1    0    0    0    0  0.00000000000E+00  0.00000000000E+00  0.45593999997E+02  0.45594000000E+02  0.51100000000E-03 0.  1.
         11   -1    0    0    0    0 -0.00000000000E+00 -0.00000000000E+00 -0.45593999997E+02  0.45594000000E+02  0.51100000000E-03 0. -1.
    9900012    2    1    2    0    0  0.12124026384E+02  0.78095659137E+01 -0.40934608325E+02  0.47787268506E+02  0.19999988426E+02 0.  0.
        -12    1    1    2    0    0 -0.12124026384E+02 -0.78095659137E+01  0.40934608325E+02  0.43400731494E+02  0.00000000000E+00 0.  1.
         11    1    3    3    0    0  0.11734796144E+02  0.43729704336E+01 -0.24593727235E+02  0.27598545805E+02  0.51100000000E-03 0. -1.
        -11    1    3    3    0    0  0.74941902477E+00 -0.40081368924E+01 -0.36583370512E+01  0.54781584921E+01  0.51100000000E-03 0.  1.
         12    1    3    3    0    0 -0.36018878496E+00  0.74447323725E+01 -0.12682544039E+02  0.14710564209E+02  0.00000000000E+00 0. -1.
</event>
<event>
 7    1  0.1400974E-009  0.4778727E+02  0.7816164E-02  0.1312668E+00
        -11   -1    0    0    0    0  0.00000000000E+00  0.00000000000E+00  0.45593999997E+02  0.45594000000E+02  0.51100000000E-03 0.  1.
         11   -1    0    0    0    0 -0.00000000000E+00 -0.00000000000E+00 -0.45593999997E+02  0.45594000000E+02  0.51100000000E-03 0. -1.
    9900012    2    1    2    0    0 -0.25880393000E+02 -0.34560839030E+02 -0.44019203236E+01  0.47787271448E+02  0.20000001839E+02 0.  0.
        -12    1    1    2    0    0  0.25880393000E+02  0.34560839030E+02  0.44019203236E+01  0.43400728552E+02  0.00000000000E+00 0.  1.
         11    1    3    3    0    0 -0.22875180797E+01 -0.23072213544E+00  0.19382260260E+01  0.30071069248E+01  0.51100000000E-03 0.  1.
        -11    1    3    3    0    0 -0.14067691445E+02 -0.15980444265E+02  0.40019448352E+01  0.21663104676E+02  0.51100000000E-03 0. -1.
        -12    1    3    3    0    0 -0.95251834761E+01 -0.18349672630E+02 -0.10342091185E+02  0.23117059847E+02  0.00000000000E+00 0.  1.
</event>
<event>
 7    1  0.1400974E-009  0.4778727E+02  0.7816164E-02  0.1312668E+00
        -11   -1    0    0    0    0  0.00000000000E+00  0.00000000000E+00  0.45593999997E+02  0.45594000000E+02  0.51100000000E-03 0. -1.
         11   -1    0    0    0    0 -0.00000000000E+00 -0.00000000000E+00 -0.45593999997E+02  0.45594000000E+02  0.51100000000E-03 0.  1.
    9900012    2    1    2    0    0 -0.31668968154E+02 -0.12045913776E+02  0.27121866706E+02  0.47787271477E+02  0.20000001973E+02 0.  0.
        -12    1    1    2    0    0  0.31668968154E+02  0.12045913776E+02 -0.27121866706E+02  0.43400728523E+02  0.00000000000E+00 0.  1.
         11    1    3    3    0    0 -0.25779162638E+02 -0.10269481173E+02  0.11117438924E+02  0.29893559814E+02  0.51100000000E-03 0. -1.
        -11    1    3    3    0    0 -0.28551159420E+01 -0.33298509114E+01  0.69462514557E+01  0.82152299835E+01  0.51100000000E-03 0.  1.
         12    1    3    3    0    0 -0.30346895748E+01  0.15534183083E+01  0.90581763271E+01  0.96784816799E+01  0.00000000000E+00 0. -1.
</event>
<event>
 7    1  0.1400974E-009  0.4778727E+02  0.7816164E-02  0.1312668E+00
        -11   -1    0    0    0    0  0.00000000000E+00  0.00000000000E+00  0.45593999997E+02  0.45594000000E+02  0.51100000000E-03 0. -1.
         11   -1    0    0    0    0 -0.00000000000E+00 -0.00000000000E+00 -0.45593999997E+02  0.45594000000E+02  0.51100000000E-03 0.  1.
    9900012    2    1    2    0    0 -0.39172658003E+02  0.17254550579E+02  0.71698676392E+01  0.47787266681E+02  0.19999980104E+02 0.  0.
        -12    1    1    2    0    0  0.39172658003E+02 -0.17254550579E+02 -0.71698676392E+01  0.43400733319E+02  0.00000000000E+00 0.  1.
         11    1    3    3    0    0 -0.20477947073E+02  0.12655147885E+02  0.53807989710E+01  0.24666821484E+02  0.51100000000E-03 0. -1.
        -11    1    3    3    0    0 -0.95701428657E+01  0.47782579152E+01 -0.49392625289E+01  0.11782007374E+02  0.51100000000E-03 0.  1.
         12    1    3    3    0    0 -0.91245680646E+01 -0.17885522119E+00  0.67283311972E+01  0.11338437823E+02  0.00000000000E+00 0. -1.
</event>
<event>
 7    1  0.1400974E-009  0.4778726E+02  0.7816164E-02  0.1312668E+00
        -11   -1    0    0    0    0  0.00000000000E+00  0.00000000000E+00  0.45593999997E+02  0.45594000000E+02  0.51100000000E-03 0.  1.
         11   -1    0    0    0    0 -0.00000000000E+00 -0.00000000000E+00 -0.45593999997E+02  0.45594000000E+02  0.51100000000E-03 0. -1.
    9900012    2    1    2    0    0  0.28633279798E+02  0.31268661068E+02  0.92752545194E+01  0.47787260106E+02  0.19999950126E+02 0.  0.
        -12    1    1    2    0    0 -0.28633279798E+02 -0.31268661068E+02 -0.92752545194E+01  0.43400739894E+02  0.00000000000E+00 0.  1.
         11    1    3    3    0    0  0.36927392194E+01  0.75211748494E+01  0.45433935224E+01  0.95313597676E+01  0.51100000000E-03 0. -1.
        -11    1    3    3    0    0  0.18994010969E+02  0.83635736329E+01 -0.10453314497E+01  0.20780147610E+02  0.51100000000E-03 0.  1.
        -12    1    3    3    0    0  0.59465296093E+01  0.15383912586E+02  0.57771924467E+01  0.17475752728E+02  0.00000000000E+00 0.  1.
</event>
<event>
 7    1  0.1400974E-009  0.4778726E+02  0.7816164E-02  0.1312668E+00
        -11   -1    0    0    0    0  0.00000000000E+00  0.00000000000E+00  0.45593999997E+02  0.45594000000E+02  0.51100000000E-03 0.  1.
         11   -1    0    0    0    0 -0.00000000000E+00 -0.00000000000E+00 -0.45593999997E+02  0.45594000000E+02  0.51100000000E-03 0. -1.
    9900012    2    1    2    0    0  0.35766211094E+02 -0.24290443270E+02 -0.37916902020E+01  0.47787258015E+02  0.19999940592E+02 0.  0.
        -12    1    1    2    0    0 -0.35766211094E+02  0.24290443270E+02  0.37916902020E+01  0.43400741985E+02  0.00000000000E+00 0.  1.
         11    1    3    3    0    0  0.26585914621E+02 -0.15257225889E+02 -0.68734468155E+00  0.30660499687E+02  0.51100000000E-03 0. -1.
        -11    1    3    3    0    0  0.71350955614E+01 -0.44883415687E+01 -0.68747675961E+01  0.10877372315E+02  0.51100000000E-03 0.  1.
        -12    1    3    3    0    0  0.20452009117E+01 -0.45448758121E+01  0.37704220756E+01  0.62493860135E+01  0.00000000000E+00 0.  1.
</event>
<event>
 7    1  0.1400974E-009  0.4778727E+02  0.7816164E-02  0.1312668E+00
        -11   -1    0    0    0    0  0.00000000000E+00  0.00000000000E+00  0.45593999997E+02  0.45594000000E+02  0.51100000000E-03 0.  1.
         11   -1    0    0    0    0 -0.00000000000E+00 -0.00000000000E+00 -0.45593999997E+02  0.45594000000E+02  0.51100000000E-03 0. -1.
    9900012    2    1    2    0    0  0.35540538795E+02  0.21046537662E+02  0.13324288478E+02  0.47787270641E+02  0.19999998161E+02 0.  0.
        -12    1    1    2    0    0 -0.35540538795E+02 -0.21046537662E+02 -0.13324288478E+02  0.43400729359E+02  0.00000000000E+00 0.  1.
         11    1    3    3    0    0  0.36849024488E+01 -0.25617605009E+00  0.56052594915E+01  0.67129029826E+01  0.51100000000E-03 0.  1.
        -11    1    3    3    0    0  0.19290843404E+02  0.55819737215E+01  0.21746871279E+01  0.20199612230E+02  0.51100000000E-03 0. -1.
         12    1    3    3    0    0  0.12564792942E+02  0.15720739991E+02  0.55443418588E+01  0.20874755428E+02  0.00000000000E+00 0. -1.
</event>
<event>
 7    1  0.1400974E-009  0.4778727E+02  0.7816164E-02  0.1312668E+00
        -11   -1    0    0    0    0  0.00000000000E+00  0.00000000000E+00  0.45593999997E+02  0.45594000000E+02  0.51100000000E-03 0.  1.
         11   -1    0    0    0    0 -0.00000000000E+00 -0.00000000000E+00 -0.45593999997E+02  0.45594000000E+02  0.51100000000E-03 0. -1.
    9900012    2    1    2    0    0 -0.26708578249E+02  0.32676983434E+02 -0.10123752144E+02  0.47787265492E+02  0.19999974683E+02 0.  0.
        -12    1    1    2    0    0  0.26708578249E+02 -0.32676983434E+02  0.10123752144E+02  0.43400734508E+02  0.00000000000E+00 0.  1.
         11    1    3    3    0    0 -0.53667201240E+01  0.51160790751E+01 -0.43999921579E+01  0.86218258648E+01  0.51100000000E-03 0. -1.
        -11    1    3    3    0    0 -0.59191339816E+01  0.16949210716E+02  0.35073583488E+01  0.18292442533E+02  0.51100000000E-03 0.  1.
        -12    1    3    3    0    0 -0.15422724143E+02  0.10611693643E+02 -0.92311183346E+01  0.20872997093E+02  0.00000000000E+00 0.  1.
</event>
<event>
 7    1  0.1400974E-009  0.4778727E+02  0.7816164E-02  0.1312668E+00
        -11   -1    0    0    0    0  0.00000000000E+00  0.00000000000E+00  0.45593999997E+02  0.45594000000E+02  0.51100000000E-03 0.  1.
         11   -1    0    0    0    0 -0.00000000000E+00 -0.00000000000E+00 -0.45593999997E+02  0.45594000000E+02  0.51100000000E-03 0. -1.
    9900012    2    1    2    0    0  0.10718262085E+01 -0.31327675292E+02 -0.30017513604E+02  0.47787272200E+02  0.20000005267E+02 0.  0.
        -12    1    1    2    0    0 -0.10718262085E+01  0.31327675292E+02  0.30017513604E+02  0.43400727800E+02  0.00000000000E+00 0.  1.
         11    1    3    3    0    0  0.87076040402E+01 -0.15429332244E+02 -0.10929517772E+02  0.20816844637E+02  0.51100000000E-03 0.  1.
        -11    1    3    3    0    0 -0.51527568909E+01 -0.10852729282E+02 -0.77000072090E+01  0.14269644274E+02  0.51100000000E-03 0. -1.
        -12    1    3    3    0    0 -0.24830209407E+01 -0.50456137661E+01 -0.11387988623E+02  0.12700783289E+02  0.00000000000E+00 0.  1.
</event>
<event>
 7    1  0.1649740E-009  0.4778723E+02  0.7816164E-02  0.1312668E+00
        -11   -1    0    0    0    0  0.00000000000E+00  0.00000000000E+00  0.45593999997E+02  0.45594000000E+02  0.51100000000E-03 0. -1.
         11   -1    0    0    0    0 -0.00000000000E+00 -0.00000000000E+00 -0.45593999997E+02  0.45594000000E+02  0.51100000000E-03 0.  1.
    9900012    2    1    2    0    0 -0.25025439924E+02 -0.35034996898E+02  0.54683576348E+01  0.47787232884E+02  0.19999826008E+02 0.  0.
        -12    1    1    2    0    0  0.25025439924E+02  0.35034996898E+02 -0.54683576348E+01  0.43400767116E+02  0.00000000000E+00 0.  1.
         11    1    3    3    0    0 -0.14348087767E+02 -0.13903470266E+02 -0.11996153118E+01  0.20015323759E+02  0.51100000000E-03 0. -1.
        -11    1    3    3    0    0 -0.78989537774E+00  0.16823420534E+01  0.14710813876E+01  0.23702932735E+01  0.51100000000E-03 0.  1.
        -12    1    3    3    0    0 -0.98874567796E+01 -0.22813868686E+02  0.51968915589E+01  0.25401615851E+02  0.00000000000E+00 0.  1.
</event>
<event>
 7    1  0.1400974E-009  0.4778727E+02  0.7816164E-02  0.1312668E+00
        -11   -1    0    0    0    0  0.00000000000E+00  0.00000000000E+00  0.45593999997E+02  0.45594000000E+02  0.51100000000E-03 0.  1.
         11   -1    0    0    0    0 -0.00000000000E+00 -0.00000000000E+00 -0.45593999997E+02  0.45594000000E+02  0.51100000000E-03 0. -1.
    9900012    2    1    2    0    0  0.31560800464E+01  0.29320493059E+02 -0.31842912655E+02  0.47787271425E+02  0.20000001736E+02 0.  0.
        -12    1    1    2    0    0 -0.31560800464E+01 -0.29320493059E+02  0.31842912655E+02  0.43400728575E+02  0.00000000000E+00 0.  1.
         11    1    3    3    0    0  0.47647528467E+01  0.22885428453E+02 -0.17177964296E+02  0.29009104826E+02  0.51100000000E-03 0. -1.
        -11    1    3    3    0    0  0.35839830553E+01  0.41204307029E+00 -0.31819428291E+01  0.48103507628E+01  0.51100000000E-03 0.  1.
        -12    1    3    3    0    0 -0.51926558555E+01  0.60230215357E+01 -0.11483005530E+02  0.13967815837E+02  0.00000000000E+00 0.  1.
</event>
<event>
 7    1  0.1400974E-009  0.4778727E+02  0.7816164E-02  0.1312668E+00
        -11   -1    0    0    0    0  0.00000000000E+00  0.00000000000E+00  0.45593999997E+02  0.45594000000E+02  0.51100000000E-03 0. -1.
         11   -1    0    0    0    0 -0.00000000000E+00 -0.00000000000E+00 -0.45593999997E+02  0.45594000000E+02  0.51100000000E-03 0.  1.
    9900012    2    1    2    0    0  0.35756276965E+02 -0.21778766623E+02 -0.11436664641E+02  0.47787270558E+02  0.19999997782E+02 0.  0.
        -12    1    1    2    0    0 -0.35756276965E+02  0.21778766623E+02  0.11436664641E+02  0.43400729442E+02  0.00000000000E+00 0.  1.
         11    1    3    3    0    0  0.14455466513E+01  0.24270397234E+01 -0.21604734033E+01  0.35563706960E+01  0.51100000000E-03 0. -1.
        -11    1    3    3    0    0  0.14976650823E+02 -0.14583333866E+02 -0.86574830239E+01  0.22625775326E+02  0.51100000000E-03 0.  1.
         12    1    3    3    0    0  0.19334079490E+02 -0.96224724802E+01 -0.61870821407E+00  0.21605124536E+02  0.00000000000E+00 0. -1.
</event>
<event>
 7    1  0.1400974E-009  0.4778727E+02  0.7816164E-02  0.1312668E+00
        -11   -1    0    0    0    0  0.00000000000E+00  0.00000000000E+00  0.45593999997E+02  0.45594000000E+02  0.51100000000E-03 0.  1.
         11   -1    0    0    0    0 -0.00000000000E+00 -0.00000000000E+00 -0.45593999997E+02  0.45594000000E+02  0.51100000000E-03 0. -1.
    9900012    2    1    2    0    0  0.12046799794E+02 -0.41023974230E+02 -0.74519458660E+01  0.47787270236E+02  0.19999996314E+02 0.  0.
        -12    1    1    2    0    0 -0.12046799794E+02  0.41023974230E+02  0.74519458660E+01  0.43400729764E+02  0.00000000000E+00 0.  1.
         11    1    3    3    0    0  0.27924111933E+01  0.28827676070E+00  0.10261868279E+01  0.29889334938E+01  0.51100000000E-03 0. -1.
        -11    1    3    3    0    0  0.42980443546E+01 -0.22783104873E+02  0.13929111595E+01  0.23226778827E+02  0.51100000000E-03 0.  1.
         12    1    3    3    0    0  0.49563442456E+01 -0.18529146117E+02 -0.98710438534E+01  0.21571557915E+02  0.00000000000E+00 0. -1.
</event>
<event>
 7    1  0.1400974E-009  0.4778727E+02  0.7816164E-02  0.1312668E+00
        -11   -1    0    0    0    0  0.00000000000E+00  0.00000000000E+00  0.45593999997E+02  0.45594000000E+02  0.51100000000E-03 0. -1.
         11   -1    0    0    0    0 -0.00000000000E+00 -0.00000000000E+00 -0.45593999997E+02  0.45594000000E+02  0.51100000000E-03 0.  1.
    9900012    2    1    2    0    0  0.29757338561E+02 -0.14035916992E+02  0.28304020358E+02  0.47787265761E+02  0.19999975910E+02 0.  0.
        -12    1    1    2    0    0 -0.29757338561E+02  0.14035916992E+02 -0.28304020358E+02  0.43400734239E+02  0.00000000000E+00 0.  1.
         11    1    3    3    0    0  0.11845516272E+02 -0.86266441378E+01  0.45617436850E+01  0.15347467235E+02  0.51100000000E-03 0. -1.
        -11    1    3    3    0    0  0.75158423449E+01  0.31177366729E+01  0.56835241910E+01  0.99252514128E+01  0.51100000000E-03 0.  1.
         12    1    3    3    0    0  0.10395979944E+02 -0.85270095270E+01  0.18058752482E+02  0.22514547113E+02  0.00000000000E+00 0. -1.
</event>
<event>
 7    1  0.1400974E-009  0.4778726E+02  0.7816164E-02  0.1312668E+00
        -11   -1    0    0    0    0  0.00000000000E+00  0.00000000000E+00  0.45593999997E+02  0.45594000000E+02  0.51100000000E-03 0. -1.
         11   -1    0    0    0    0 -0.00000000000E+00 -0.00000000000E+00 -0.45593999997E+02  0.45594000000E+02  0.51100000000E-03 0.  1.
    9900012    2    1    2    0    0 -0.18244577114E+02  0.39254802608E+02  0.31336718190E+01  0.47787262438E+02  0.19999960761E+02 0.  0.
        -12    1    1    2    0    0  0.18244577114E+02 -0.39254802608E+02 -0.31336718190E+01  0.43400737562E+02  0.00000000000E+00 0.  1.
         11    1    3    3    0    0 -0.27208272582E+01  0.18588465711E+02  0.66897534669E+01  0.19942085151E+02  0.51100000000E-03 0. -1.
        -11    1    3    3    0    0 -0.30704511724E+01 -0.32049790256E+00  0.43439484744E+00  0.31175452607E+01  0.51100000000E-03 0.  1.
         12    1    3    3    0    0 -0.12453298683E+02  0.20986834799E+02 -0.39904764954E+01  0.24727632027E+02  0.00000000000E+00 0. -1.
</event>
<event>
 7    1  0.1400974E-009  0.4778727E+02  0.7816164E-02  0.1312668E+00
        -11   -1    0    0    0    0  0.00000000000E+00  0.00000000000E+00  0.45593999997E+02  0.45594000000E+02  0.51100000000E-03 0. -1.
         11   -1    0    0    0    0 -0.00000000000E+00 -0.00000000000E+00 -0.45593999997E+02  0.45594000000E+02  0.51100000000E-03 0.  1.
    9900012    2    1    2    0    0  0.86691326868E+01  0.31518528007E+02  0.28549118994E+02  0.47787266543E+02  0.19999979475E+02 0.  0.
        -12    1    1    2    0    0 -0.86691326868E+01 -0.31518528007E+02 -0.28549118994E+02  0.43400733457E+02  0.00000000000E+00 0.  1.
         11    1    3    3    0    0 -0.26641470004E+01  0.55471515975E+01  0.96087334013E+01  0.11410360552E+02  0.51100000000E-03 0. -1.
        -11    1    3    3    0    0  0.53867642898E+01  0.16773291533E+02  0.43737789406E+01  0.18151872654E+02  0.51100000000E-03 0.  1.
         12    1    3    3    0    0  0.59465153974E+01  0.91980848773E+01  0.14566606652E+02  0.18225033337E+02  0.00000000000E+00 0. -1.
</event>
<event>
 7    1  0.1400974E-009  0.4778728E+02  0.7816164E-02  0.1312668E+00
        -11   -1    0    0    0    0  0.00000000000E+00  0.00000000000E+00  0.45593999997E+02  0.45594000000E+02  0.51100000000E-03 0.  1.
         11   -1    0    0    0    0 -0.00000000000E+00 -0.00000000000E+00 -0.45593999997E+02  0.45594000000E+02  0.51100000000E-03 0. -1.
    9900012    2    1    2    0    0  0.35199217407E+02 -0.22414253583E+02 -0.11926386590E+02  0.47787281493E+02  0.20000047641E+02 0.  0.
        -12    1    1    2    0    0 -0.35199217407E+02  0.22414253583E+02  0.11926386590E+02  0.43400718507E+02  0.00000000000E+00 0.  1.
         11    1    3    3    0    0  0.33935435596E+02 -0.19581703627E+02 -0.10351937384E+02  0.40524307692E+02  0.51100000000E-03 0. -1.
        -11    1    3    3    0    0  0.17251130135E+01 -0.12130723597E+01  0.22502346771E+01  0.30840096988E+01  0.51100000000E-03 0.  1.
         12    1    3    3    0    0 -0.46133120223E+00 -0.16194775964E+01 -0.38246838836E+01  0.41789641028E+01  0.00000000000E+00 0. -1.
</event>
<event>
 7    1  0.1400974E-009  0.4778726E+02  0.7816164E-02  0.1312668E+00
        -11   -1    0    0    0    0  0.00000000000E+00  0.00000000000E+00  0.45593999997E+02  0.45594000000E+02  0.51100000000E-03 0. -1.
         11   -1    0    0    0    0 -0.00000000000E+00 -0.00000000000E+00 -0.45593999997E+02  0.45594000000E+02  0.51100000000E-03 0.  1.
    9900012    2    1    2    0    0  0.36962419425E+02  0.16750212099E+02  0.15389403679E+02  0.47787264975E+02  0.19999972326E+02 0.  0.
        -12    1    1    2    0    0 -0.36962419425E+02 -0.16750212099E+02 -0.15389403679E+02  0.43400735025E+02  0.00000000000E+00 0.  1.
         11    1    3    3    0    0  0.17611039333E+02  0.15878880545E+02  0.14003660488E+02  0.27538882713E+02  0.51100000000E-03 0.  1.
        -11    1    3    3    0    0  0.11096567206E+02 -0.25979968024E+00  0.35255200242E+01  0.11646054754E+02  0.51100000000E-03 0. -1.
        -12    1    3    3    0    0  0.82548128861E+01  0.11311312339E+01 -0.21397768331E+01  0.86023275076E+01  0.00000000000E+00 0.  1.
</event>
<event>
 7    1  0.1400974E-009  0.4778727E+02  0.7816164E-02  0.1312668E+00
        -11   -1    0    0    0    0  0.00000000000E+00  0.00000000000E+00  0.45593999997E+02  0.45594000000E+02  0.51100000000E-03 0.  1.
         11   -1    0    0    0    0 -0.00000000000E+00 -0.00000000000E+00 -0.45593999997E+02  0.45594000000E+02  0.51100000000E-03 0. -1.
    9900012    2    1    2    0    0 -0.15273343099E+02 -0.75648917753E+01 -0.39913914931E+02  0.47787271871E+02  0.20000003769E+02 0.  0.
        -12    1    1    2    0    0  0.15273343099E+02  0.75648917753E+01  0.39913914931E+02  0.43400728129E+02  0.00000000000E+00 0.  1.
         11    1    3    3    0    0 -0.12586319153E+02  0.18303123672E-02 -0.17143639617E+02  0.21267811659E+02  0.51100000000E-03 0. -1.
        -11    1    3    3    0    0  0.20531953243E+01  0.20182096307E+01 -0.54675957890E+01  0.61792705983E+01  0.51100000000E-03 0.  1.
        -12    1    3    3    0    0 -0.47402192697E+01 -0.95849317184E+01 -0.17302679525E+02  0.20340189614E+02  0.00000000000E+00 0.  1.
</event>
<event>
 7    1  0.1400974E-009  0.4778726E+02  0.7816164E-02  0.1312668E+00
        -11   -1    0    0    0    0  0.00000000000E+00  0.00000000000E+00  0.45593999997E+02  0.45594000000E+02  0.51100000000E-03 0.  1.
         11   -1    0    0    0    0 -0.00000000000E+00 -0.00000000000E+00 -0.45593999997E+02  0.45594000000E+02  0.51100000000E-03 0. -1.
    9900012    2    1    2    0    0  0.20860970730E+02 -0.29129433903E+01 -0.37946787013E+02  0.47787262869E+02  0.19999962723E+02 0.  0.
        -12    1    1    2    0    0 -0.20860970730E+02  0.29129433903E+01  0.37946787013E+02  0.43400737131E+02  0.00000000000E+00 0.  1.
         11    1    3    3    0    0  0.74196982661E+01 -0.61623164206E+01 -0.16072115533E+02  0.18744038092E+02  0.51100000000E-03 0. -1.
        -11    1    3    3    0    0 -0.71788652535E+00  0.37006161115E+01 -0.95462657622E+01  0.10263581779E+02  0.51100000000E-03 0.  1.
         12    1    3    3    0    0  0.14159158989E+02 -0.45124308122E+00 -0.12328405718E+02  0.18779642998E+02  0.00000000000E+00 0. -1.
</event>
<event>
 7    1  0.1400974E-009  0.4778728E+02  0.7816164E-02  0.1312668E+00
        -11   -1    0    0    0    0  0.00000000000E+00  0.00000000000E+00  0.45593999997E+02  0.45594000000E+02  0.51100000000E-03 0. -1.
         11   -1    0    0    0    0 -0.00000000000E+00 -0.00000000000E+00 -0.45593999997E+02  0.45594000000E+02  0.51100000000E-03 0.  1.
    9900012    2    1    2    0    0 -0.27809261671E+02 -0.33260673842E+02 -0.19988208551E+01  0.47787277150E+02  0.20000027836E+02 0.  0.
        -12    1    1    2    0    0  0.27809261671E+02  0.33260673842E+02  0.19988208551E+01  0.43400722850E+02  0.00000000000E+00 0.  1.
         11    1    3    3    0    0 -0.16149286987E+02 -0.17162389351E+02  0.18524707227E+00  0.23566531250E+02  0.51100000000E-03 0. -1.
        -11    1    3    3    0    0 -0.29506343806E+01 -0.14914354415E+02 -0.25875374602E+01  0.15422047893E+02  0.51100000000E-03 0.  1.
        -12    1    3    3    0    0 -0.87093403031E+01 -0.11839300769E+01  0.40346953284E+00  0.87986980063E+01  0.00000000000E+00 0.  1.
</event>
<event>
 7    1  0.1400974E-009  0.4778727E+02  0.7816164E-02  0.1312668E+00
        -11   -1    0    0    0    0  0.00000000000E+00  0.00000000000E+00  0.45593999997E+02  0.45594000000E+02  0.51100000000E-03 0.  1.
         11   -1    0    0    0    0 -0.00000000000E+00 -0.00000000000E+00 -0.45593999997E+02  0.45594000000E+02  0.51100000000E-03 0. -1.
    9900012    2    1    2    0    0 -0.34714212534E+02 -0.25759136871E+02  0.38747615945E+01  0.47787268882E+02  0.19999990140E+02 0.  0.
        -12    1    1    2    0    0  0.34714212534E+02  0.25759136871E+02 -0.38747615945E+01  0.43400731118E+02  0.00000000000E+00 0.  1.
         11    1    3    3    0    0 -0.24564890656E+02 -0.16169213083E+02 -0.29772870969E+01  0.29559119462E+02  0.51100000000E-03 0. -1.
        -11    1    3    3    0    0 -0.91684388376E+01 -0.25914934386E+01  0.55992062306E+01  0.11051118479E+02  0.51100000000E-03 0.  1.
        -12    1    3    3    0    0 -0.98088304039E+00 -0.69984303495E+01  0.12528424609E+01  0.71770309409E+01  0.00000000000E+00 0.  1.
</event>
<event>
 7    1  0.1400974E-009  0.4778727E+02  0.7816164E-02  0.1312668E+00
        -11   -1    0    0    0    0  0.00000000000E+00  0.00000000000E+00  0.45593999997E+02  0.45594000000E+02  0.51100000000E-03 0. -1.
         11   -1    0    0    0    0 -0.00000000000E+00 -0.00000000000E+00 -0.45593999997E+02  0.45594000000E+02  0.51100000000E-03 0.  1.
    9900012    2    1    2    0    0  0.26714534637E+02 -0.15726775862E+02  0.30374750442E+02  0.47787270694E+02  0.19999998402E+02 0.  0.
        -12    1    1    2    0    0 -0.26714534637E+02  0.15726775862E+02 -0.30374750442E+02  0.43400729306E+02  0.00000000000E+00 0.  1.
         11    1    3    3    0    0  0.16575652521E+02 -0.56190658094E+01  0.19228586054E+02  0.26001243796E+02  0.51100000000E-03 0. -1.
        -11    1    3    3    0    0  0.56431582734E+01 -0.12250327775E+02  0.96556564624E+01  0.16587569679E+02  0.51100000000E-03 0.  1.
         12    1    3    3    0    0  0.44957238431E+01  0.21426177218E+01  0.14905079250E+01  0.51984572183E+01  0.00000000000E+00 0. -1.
</event>
<event>
 7    1  0.1400974E-009  0.4778727E+02  0.7816164E-02  0.1312668E+00
        -11   -1    0    0    0    0  0.00000000000E+00  0.00000000000E+00  0.45593999997E+02  0.45594000000E+02  0.51100000000E-03 0.  1.
         11   -1    0    0    0    0 -0.00000000000E+00 -0.00000000000E+00 -0.45593999997E+02  0.45594000000E+02  0.51100000000E-03 0. -1.
    9900012    2    1    2    0    0 -0.18985097081E+00  0.17551678357E+02 -0.39692894872E+02  0.47787270053E+02  0.19999995481E+02 0.  0.
        -12    1    1    2    0    0  0.18985097081E+00 -0.17551678357E+02  0.39692894872E+02  0.43400729947E+02  0.00000000000E+00 0.  1.
         11    1    3    3    0    0 -0.20655151288E+01  0.85485659786E+01 -0.18102876531E+02  0.20126064493E+02  0.51100000000E-03 0. -1.
        -11    1    3    3    0    0 -0.93232023399E-01 -0.36575703822E+01 -0.89226815739E+01  0.96436901672E+01  0.51100000000E-03 0.  1.
        -12    1    3    3    0    0  0.19688961813E+01  0.12660682761E+02 -0.12667336768E+02  0.18017515393E+02  0.00000000000E+00 0.  1.
</event>
<event>
 7    1  0.1400974E-009  0.4778724E+02  0.7816164E-02  0.1312668E+00
        -11   -1    0    0    0    0  0.00000000000E+00  0.00000000000E+00  0.45593999997E+02  0.45594000000E+02  0.51100000000E-03 0.  1.
         11   -1    0    0    0    0 -0.00000000000E+00 -0.00000000000E+00 -0.45593999997E+02  0.45594000000E+02  0.51100000000E-03 0. -1.
    9900012    2    1    2    0    0 -0.40610358476E+02 -0.55049912680E+01 -0.14287040698E+02  0.47787243367E+02  0.19999873809E+02 0.  0.
        -12    1    1    2    0    0  0.40610358476E+02  0.55049912680E+01  0.14287040698E+02  0.43400756633E+02  0.00000000000E+00 0.  1.
         11    1    3    3    0    0 -0.42964492347E+00  0.18043111511E+01 -0.42037129584E+00  0.19018006672E+01  0.51100000000E-03 0.  1.
        -11    1    3    3    0    0 -0.40757611965E+02 -0.55751941499E+01 -0.11167964503E+02  0.42626155753E+02  0.51100000000E-03 0. -1.
        -12    1    3    3    0    0  0.57689841292E+00 -0.17341082692E+01 -0.26987048994E+01  0.32592869469E+01  0.00000000000E+00 0.  1.
</event>
<event>
 7    1  0.1400974E-009  0.4778727E+02  0.7816164E-02  0.1312668E+00
        -11   -1    0    0    0    0  0.00000000000E+00  0.00000000000E+00  0.45593999997E+02  0.45594000000E+02  0.51100000000E-03 0. -1.
         11   -1    0    0    0    0 -0.00000000000E+00 -0.00000000000E+00 -0.45593999997E+02  0.45594000000E+02  0.51100000000E-03 0.  1.
    9900012    2    1    2    0    0 -0.99947368304E+01  0.30323232248E+02  0.29397789727E+02  0.47787271675E+02  0.20000002876E+02 0.  0.
        -12    1    1    2    0    0  0.99947368304E+01 -0.30323232248E+02 -0.29397789727E+02  0.43400728325E+02  0.00000000000E+00 0.  1.
         11    1    3    3    0    0 -0.25071478783E+01  0.34367600827E+01  0.72983930533E+01  0.84477009754E+01  0.51100000000E-03 0. -1.
        -11    1    3    3    0    0 -0.58853087711E+01  0.33927958591E+01  0.11846567489E+02  0.13656100637E+02  0.51100000000E-03 0.  1.
         12    1    3    3    0    0 -0.16022801810E+01  0.23493676307E+02  0.10252829184E+02  0.25683470063E+02  0.00000000000E+00 0. -1.
</event>
<event>
 7    1  0.1400974E-009  0.4778727E+02  0.7816164E-02  0.1312668E+00
        -11   -1    0    0    0    0  0.00000000000E+00  0.00000000000E+00  0.45593999997E+02  0.45594000000E+02  0.51100000000E-03 0.  1.
         11   -1    0    0    0    0 -0.00000000000E+00 -0.00000000000E+00 -0.45593999997E+02  0.45594000000E+02  0.51100000000E-03 0. -1.
    9900012    2    1    2    0    0 -0.11729375894E+02 -0.39534476718E+02 -0.13530333582E+02  0.47787273795E+02  0.20000012542E+02 0.  0.
        -12    1    1    2    0    0  0.11729375894E+02  0.39534476718E+02  0.13530333582E+02  0.43400726205E+02  0.00000000000E+00 0.  1.
         11    1    3    3    0    0 -0.16423737767E+01 -0.10649161387E+02 -0.99647082326E+01  0.14676424642E+02  0.51100000000E-03 0.  1.
        -11    1    3    3    0    0 -0.10906419795E+02 -0.21908501625E+02 -0.67663586425E+01  0.25391259239E+02  0.51100000000E-03 0. -1.
         12    1    3    3    0    0  0.81941767771E+00 -0.69768137070E+01  0.32007332927E+01  0.77195899142E+01  0.00000000000E+00 0. -1.
</event>
<event>
 7    1  0.1400974E-009  0.4778728E+02  0.7816164E-02  0.1312668E+00
        -11   -1    0    0    0    0  0.00000000000E+00  0.00000000000E+00  0.45593999997E+02  0.45594000000E+02  0.51100000000E-03 0. -1.
         11   -1    0    0    0    0 -0.00000000000E+00 -0.00000000000E+00 -0.45593999997E+02  0.45594000000E+02  0.51100000000E-03 0.  1.
    9900012    2    1    2    0    0 -0.37931892759E+02 -0.48574641329E+01  0.20523125496E+02  0.47787284266E+02  0.20000060283E+02 0.  0.
        -12    1    1    2    0    0  0.37931892759E+02  0.48574641329E+01 -0.20523125496E+02  0.43400715734E+02  0.00000000000E+00 0.  1.
         11    1    3    3    0    0 -0.10619457799E+02 -0.82793212301E+01  0.53447131173E+01  0.14487442926E+02  0.51100000000E-03 0. -1.
        -11    1    3    3    0    0 -0.23756945408E+02 -0.10250485272E+01  0.10796372227E+02  0.26115222250E+02  0.51100000000E-03 0.  1.
        -12    1    3    3    0    0 -0.35554895524E+01  0.44469056244E+01  0.43820401514E+01  0.71846190906E+01  0.00000000000E+00 0.  1.
</event>
<event>
 7    1  0.1400974E-009  0.4778731E+02  0.7816164E-02  0.1312668E+00
        -11   -1    0    0    0    0  0.00000000000E+00  0.00000000000E+00  0.45593999997E+02  0.45594000000E+02  0.51100000000E-03 0. -1.
         11   -1    0    0    0    0 -0.00000000000E+00 -0.00000000000E+00 -0.45593999997E+02  0.45594000000E+02  0.51100000000E-03 0.  1.
    9900012    2    1    2    0    0 -0.21839019608E+02  0.37220522826E+02  0.46162594383E+01  0.47787309360E+02  0.20000174694E+02 0.  0.
        -12    1    1    2    0    0  0.21839019608E+02 -0.37220522826E+02 -0.46162594383E+01  0.43400690640E+02  0.00000000000E+00 0.  1.
         11    1    3    3    0    0  0.49426386893E-01  0.79356003399E+01  0.31160159276E+01  0.85255938939E+01  0.51100000000E-03 0. -1.
        -11    1    3    3    0    0 -0.39928266315E+00 -0.96243780343E+00  0.18874487067E+01  0.21559629060E+01  0.51100000000E-03 0.  1.
        -12    1    3    3    0    0 -0.21489163332E+02  0.30247360289E+02 -0.38720519597E+00  0.37105752560E+02  0.00000000000E+00 0.  1.
</event>
<event>
 7    1  0.1400974E-009  0.4778727E+02  0.7816164E-02  0.1312668E+00
        -11   -1    0    0    0    0  0.00000000000E+00  0.00000000000E+00  0.45593999997E+02  0.45594000000E+02  0.51100000000E-03 0. -1.
         11   -1    0    0    0    0 -0.00000000000E+00 -0.00000000000E+00 -0.45593999997E+02  0.45594000000E+02  0.51100000000E-03 0.  1.
    9900012    2    1    2    0    0  0.47277509835E+00 -0.12907809066E+02  0.41434144794E+02  0.47787269523E+02  0.19999993062E+02 0.  0.
        -12    1    1    2    0    0 -0.47277509835E+00  0.12907809066E+02 -0.41434144794E+02  0.43400730477E+02  0.00000000000E+00 0.  1.
         11    1    3    3    0    0 -0.20147466317E+00 -0.11247688414E+02  0.16072847115E+02  0.19618549930E+02  0.51100000000E-03 0. -1.
        -11    1    3    3    0    0 -0.19355196533E+01 -0.62412665155E+01  0.17707473754E+02  0.18874699231E+02  0.51100000000E-03 0.  1.
        -12    1    3    3    0    0  0.26097694148E+01  0.45811458639E+01  0.76538239239E+01  0.92940203616E+01  0.00000000000E+00 0.  1.
</event>
<event>
 7    1  0.1400974E-009  0.4778726E+02  0.7816164E-02  0.1312668E+00
        -11   -1    0    0    0    0  0.00000000000E+00  0.00000000000E+00  0.45593999997E+02  0.45594000000E+02  0.51100000000E-03 0.  1.
         11   -1    0    0    0    0 -0.00000000000E+00 -0.00000000000E+00 -0.45593999997E+02  0.45594000000E+02  0.51100000000E-03 0. -1.
    9900012    2    1    2    0    0 -0.90267083939E+01 -0.18730053062E+02 -0.38096292868E+02  0.47787264033E+02  0.19999968033E+02 0.  0.
        -12    1    1    2    0    0  0.90267083939E+01  0.18730053062E+02  0.38096292868E+02  0.43400735967E+02  0.00000000000E+00 0.  1.
         11    1    3    3    0    0 -0.29160846949E+00  0.76143702519E-01  0.11436881971E+01  0.11827325632E+01  0.51100000000E-03 0.  1.
        -11    1    3    3    0    0 -0.18446682287E+01 -0.13659268727E+02 -0.33606581907E+02  0.36323281387E+02  0.51100000000E-03 0. -1.
         12    1    3    3    0    0 -0.68904316957E+01 -0.51469280384E+01 -0.56333991588E+01  0.10281250083E+02  0.00000000000E+00 0. -1.
</event>
<event>
 7    1  0.1400974E-009  0.4778727E+02  0.7816164E-02  0.1312668E+00
        -11   -1    0    0    0    0  0.00000000000E+00  0.00000000000E+00  0.45593999997E+02  0.45594000000E+02  0.51100000000E-03 0. -1.
         11   -1    0    0    0    0 -0.00000000000E+00 -0.00000000000E+00 -0.45593999997E+02  0.45594000000E+02  0.51100000000E-03 0.  1.
    9900012    2    1    2    0    0 -0.43177796515E+02 -0.18609157019E+01 -0.39797582943E+01  0.47787267342E+02  0.19999983120E+02 0.  0.
        -12    1    1    2    0    0  0.43177796515E+02  0.18609157019E+01  0.39797582943E+01  0.43400732658E+02  0.00000000000E+00 0.  1.
         11    1    3    3    0    0 -0.21692328172E+02 -0.13564395373E+01  0.49913362328E+01  0.22300458905E+02  0.51100000000E-03 0. -1.
        -11    1    3    3    0    0 -0.16335679561E+02 -0.49182251015E+01 -0.60327260367E+01  0.18095224468E+02  0.51100000000E-03 0.  1.
         12    1    3    3    0    0 -0.51497887829E+01  0.44137489369E+01 -0.29383684904E+01  0.73915839691E+01  0.00000000000E+00 0. -1.
</event>
<event>
 7    1  0.1400974E-009  0.4778726E+02  0.7816164E-02  0.1312668E+00
        -11   -1    0    0    0    0  0.00000000000E+00  0.00000000000E+00  0.45593999997E+02  0.45594000000E+02  0.51100000000E-03 0. -1.
         11   -1    0    0    0    0 -0.00000000000E+00 -0.00000000000E+00 -0.45593999997E+02  0.45594000000E+02  0.51100000000E-03 0.  1.
    9900012    2    1    2    0    0 -0.24513076304E+02  0.27018226869E+02  0.23510603101E+02  0.47787263241E+02  0.19999964419E+02 0.  0.
        -12    1    1    2    0    0  0.24513076304E+02 -0.27018226869E+02 -0.23510603101E+02  0.43400736759E+02  0.00000000000E+00 0.  1.
         11    1    3    3    0    0 -0.89724384436E+01  0.56780007320E+01  0.15703039212E+02  0.18955996009E+02  0.51100000000E-03 0. -1.
        -11    1    3    3    0    0 -0.53709101356E+01  0.36021334567E+01 -0.10443690601E+01  0.65507822525E+01  0.51100000000E-03 0.  1.
         12    1    3    3    0    0 -0.10169727725E+02  0.17738092681E+02  0.88519329494E+01  0.22280484979E+02  0.00000000000E+00 0. -1.
</event>
<event>
 7    1  0.1400974E-009  0.4778727E+02  0.7816164E-02  0.1312668E+00
        -11   -1    0    0    0    0  0.00000000000E+00  0.00000000000E+00  0.45593999997E+02  0.45594000000E+02  0.51100000000E-03 0. -1.
         11   -1    0    0    0    0 -0.00000000000E+00 -0.00000000000E+00 -0.45593999997E+02  0.45594000000E+02  0.51100000000E-03 0.  1.
    9900012    2    1    2    0    0  0.33043211040E+02 -0.27005238583E+02  0.79048345207E+01  0.47787272869E+02  0.20000008318E+02 0.  0.
        -12    1    1    2    0    0 -0.33043211040E+02  0.27005238583E+02 -0.79048345207E+01  0.43400727131E+02  0.00000000000E+00 0.  1.
         11    1    3    3    0    0 -0.12759196002E+01 -0.89663332107E-01 -0.22191863435E+01  0.25614055961E+01  0.51100000000E-03 0. -1.
        -11    1    3    3    0    0  0.51600877071E+01 -0.62306580377E+01  0.77542621563E-01  0.80903410217E+01  0.51100000000E-03 0.  1.
         12    1    3    3    0    0  0.29159042933E+02 -0.20684917213E+02  0.10046478243E+02  0.37135526251E+02  0.00000000000E+00 0. -1.
</event>
<event>
 7    1  0.1400974E-009  0.4778727E+02  0.7816164E-02  0.1312668E+00
        -11   -1    0    0    0    0  0.00000000000E+00  0.00000000000E+00  0.45593999997E+02  0.45594000000E+02  0.51100000000E-03 0. -1.
         11   -1    0    0    0    0 -0.00000000000E+00 -0.00000000000E+00 -0.45593999997E+02  0.45594000000E+02  0.51100000000E-03 0.  1.
    9900012    2    1    2    0    0  0.19907774452E+02 -0.25460277746E+02  0.28966838934E+02  0.47787274379E+02  0.20000015205E+02 0.  0.
        -12    1    1    2    0    0 -0.19907774452E+02  0.25460277746E+02 -0.28966838934E+02  0.43400725621E+02  0.00000000000E+00 0.  1.
         11    1    3    3    0    0  0.18892305261E+01 -0.90404187780E+00  0.63721156586E+01  0.67074840235E+01  0.51100000000E-03 0. -1.
        -11    1    3    3    0    0  0.15857448512E+02 -0.25644421183E+02  0.16167747715E+02  0.34212440392E+02  0.51100000000E-03 0.  1.
        -12    1    3    3    0    0  0.21610954142E+01  0.10881853148E+01  0.64269755608E+01  0.68673499639E+01  0.00000000000E+00 0.  1.
</event>
<event>
 7    1  0.1400974E-009  0.4778725E+02  0.7816164E-02  0.1312668E+00
        -11   -1    0    0    0    0  0.00000000000E+00  0.00000000000E+00  0.45593999997E+02  0.45594000000E+02  0.51100000000E-03 0.  1.
         11   -1    0    0    0    0 -0.00000000000E+00 -0.00000000000E+00 -0.45593999997E+02  0.45594000000E+02  0.51100000000E-03 0. -1.
    9900012    2    1    2    0    0  0.88178797555E+01 -0.42338870913E+02  0.36456031573E+01  0.47787246367E+02  0.19999887485E+02 0.  0.
        -12    1    1    2    0    0 -0.88178797555E+01  0.42338870913E+02 -0.36456031573E+01  0.43400753633E+02  0.00000000000E+00 0.  1.
         11    1    3    3    0    0  0.27304228229E+01 -0.19734040824E+02  0.10740037849E+02  0.22632631073E+02  0.51100000000E-03 0. -1.
        -11    1    3    3    0    0 -0.83510389130E+00 -0.67891583165E+01 -0.25708255349E+01  0.73074765376E+01  0.51100000000E-03 0.  1.
        -12    1    3    3    0    0  0.69225608239E+01 -0.15815671772E+02 -0.45236091571E+01  0.17847138756E+02  0.00000000000E+00 0.  1.
</event>
<event>
 7    1  0.1400974E-009  0.4778727E+02  0.7816164E-02  0.1312668E+00
        -11   -1    0    0    0    0  0.00000000000E+00  0.00000000000E+00  0.45593999997E+02  0.45594000000E+02  0.51100000000E-03 0.  1.
         11   -1    0    0    0    0 -0.00000000000E+00 -0.00000000000E+00 -0.45593999997E+02  0.45594000000E+02  0.51100000000E-03 0. -1.
    9900012    2    1    2    0    0  0.15414153210E+02 -0.34652947794E+02 -0.21099772991E+02  0.47787270395E+02  0.19999997037E+02 0.  0.
        -12    1    1    2    0    0 -0.15414153210E+02  0.34652947794E+02  0.21099772991E+02  0.43400729605E+02  0.00000000000E+00 0.  1.
         11    1    3    3    0    0  0.64926288363E+01 -0.17788918359E+02  0.49050724673E+00  0.18943084311E+02  0.51100000000E-03 0. -1.
        -11    1    3    3    0    0  0.18345697354E+01 -0.47555800454E+01 -0.57558319738E+01  0.76883541577E+01  0.51100000000E-03 0.  1.
         12    1    3    3    0    0  0.70869546386E+01 -0.12108449390E+02 -0.15834448263E+02  0.21155831926E+02  0.00000000000E+00 0. -1.
</event>
<event>
 7    1  0.1400974E-009  0.4778727E+02  0.7816164E-02  0.1312668E+00
        -11   -1    0    0    0    0  0.00000000000E+00  0.00000000000E+00  0.45593999997E+02  0.45594000000E+02  0.51100000000E-03 0. -1.
         11   -1    0    0    0    0 -0.00000000000E+00 -0.00000000000E+00 -0.45593999997E+02  0.45594000000E+02  0.51100000000E-03 0.  1.
    9900012    2    1    2    0    0  0.12194889334E+02 -0.39704961094E+02  0.12586657024E+02  0.47787271937E+02  0.20000004070E+02 0.  0.
        -12    1    1    2    0    0 -0.12194889334E+02  0.39704961094E+02 -0.12586657024E+02  0.43400728063E+02  0.00000000000E+00 0.  1.
         11    1    3    3    0    0  0.33655295982E+01 -0.48592164677E+01  0.26060054639E+01  0.64598791703E+01  0.51100000000E-03 0. -1.
        -11    1    3    3    0    0  0.54353114594E+01 -0.24139082191E+02 -0.20996506990E+01  0.24832366642E+02  0.51100000000E-03 0.  1.
        -12    1    3    3    0    0  0.33940482760E+01 -0.10706662435E+02  0.12080302259E+02  0.16495026125E+02  0.00000000000E+00 0.  1.
</event>
<event>
 7    1  0.1400974E-009  0.4778728E+02  0.7816164E-02  0.1312668E+00
        -11   -1    0    0    0    0  0.00000000000E+00  0.00000000000E+00  0.45593999997E+02  0.45594000000E+02  0.51100000000E-03 0.  1.
         11   -1    0    0    0    0 -0.00000000000E+00 -0.00000000000E+00 -0.45593999997E+02  0.45594000000E+02  0.51100000000E-03 0. -1.
    9900012    2    1    2    0    0  0.27488301047E+01 -0.15399641929E+02 -0.40483550881E+02  0.47787275001E+02  0.20000018039E+02 0.  0.
        -12    1    1    2    0    0 -0.27488301047E+01  0.15399641929E+02  0.40483550881E+02  0.43400724999E+02  0.00000000000E+00 0.  1.
         11    1    3    3    0    0  0.55154316255E+01 -0.40373200833E+01 -0.36405239987E+01  0.77442465558E+01  0.51100000000E-03 0.  1.
        -11    1    3    3    0    0  0.99134500313E+00  0.79392220518E-01 -0.15538001328E+02  0.15569796195E+02  0.51100000000E-03 0. -1.
         12    1    3    3    0    0 -0.37579465239E+01 -0.11441714067E+02 -0.21305025555E+02  0.24473232250E+02  0.00000000000E+00 0. -1.
</event>
<event>
 7    1  0.1400974E-009  0.4778727E+02  0.7816164E-02  0.1312668E+00
        -11   -1    0    0    0    0  0.00000000000E+00  0.00000000000E+00  0.45593999997E+02  0.45594000000E+02  0.51100000000E-03 0.  1.
         11   -1    0    0    0    0 -0.00000000000E+00 -0.00000000000E+00 -0.45593999997E+02  0.45594000000E+02  0.51100000000E-03 0. -1.
    9900012    2    1    2    0    0  0.46308507461E+01  0.40397964749E+02 -0.15171782704E+02  0.47787270456E+02  0.19999997318E+02 0.  0.
        -12    1    1    2    0    0 -0.46308507461E+01 -0.40397964749E+02  0.15171782704E+02  0.43400729544E+02  0.00000000000E+00 0.  1.
         11    1    3    3    0    0 -0.48518292991E+00  0.16665400055E+02  0.26435051976E+01  0.16880731070E+02  0.51100000000E-03 0. -1.
        -11    1    3    3    0    0 -0.10770227955E+01  0.40337034459E+01 -0.53504340902E+01  0.67865961134E+01  0.51100000000E-03 0.  1.
         12    1    3    3    0    0  0.61930564715E+01  0.19698861248E+02 -0.12464853811E+02  0.24119943272E+02  0.00000000000E+00 0. -1.
</event>
<event>
 7    1  0.1400974E-009  0.4778733E+02  0.7816164E-02  0.1312668E+00
        -11   -1    0    0    0    0  0.00000000000E+00  0.00000000000E+00  0.45593999997E+02  0.45594000000E+02  0.51100000000E-03 0.  1.
         11   -1    0    0    0    0 -0.00000000000E+00 -0.00000000000E+00 -0.45593999997E+02  0.45594000000E+02  0.51100000000E-03 0. -1.
    9900012    2    1    2    0    0 -0.11914347752E+02  0.39332897460E+02 -0.13949543761E+02  0.47787328621E+02  0.20000262515E+02 0.  0.
        -12    1    1    2    0    0  0.11914347752E+02 -0.39332897460E+02  0.13949543761E+02  0.43400671379E+02  0.00000000000E+00 0.  1.
         11    1    3    3    0    0  0.20647024117E+01 -0.10092840158E+00 -0.20019308473E+01  0.28776570278E+01  0.51100000000E-03 0. -1.
        -11    1    3    3    0    0 -0.37754957203E+01  0.26472235053E+02 -0.84872821245E+01  0.28054724286E+02  0.51100000000E-03 0.  1.
        -12    1    3    3    0    0 -0.10203554444E+02  0.12961590809E+02 -0.34603307894E+01  0.16854947308E+02  0.00000000000E+00 0.  1.
</event>
<event>
 7    1  0.1400974E-009  0.4778727E+02  0.7816164E-02  0.1312668E+00
        -11   -1    0    0    0    0  0.00000000000E+00  0.00000000000E+00  0.45593999997E+02  0.45594000000E+02  0.51100000000E-03 0.  1.
         11   -1    0    0    0    0 -0.00000000000E+00 -0.00000000000E+00 -0.45593999997E+02  0.45594000000E+02  0.51100000000E-03 0. -1.
    9900012    2    1    2    0    0 -0.42208399519E+01 -0.19076599862E+02 -0.38754239901E+02  0.47787271175E+02  0.20000000595E+02 0.  0.
        -12    1    1    2    0    0  0.42208399519E+01  0.19076599862E+02  0.38754239901E+02  0.43400728825E+02  0.00000000000E+00 0.  1.
         11    1    3    3    0    0 -0.63788624300E+01 -0.15801273971E+02 -0.34248356861E+02  0.38253367080E+02  0.51100000000E-03 0. -1.
        -11    1    3    3    0    0 -0.17326613400E+01 -0.36384598986E+01 -0.72125122522E+00  0.40939845315E+01  0.51100000000E-03 0.  1.
         12    1    3    3    0    0  0.38906838182E+01  0.36313400755E+00 -0.37846318150E+01  0.54399195633E+01  0.00000000000E+00 0. -1.
</event>
<event>
 7    1  0.1400974E-009  0.4778727E+02  0.7816164E-02  0.1312668E+00
        -11   -1    0    0    0    0  0.00000000000E+00  0.00000000000E+00  0.45593999997E+02  0.45594000000E+02  0.51100000000E-03 0.  1.
         11   -1    0    0    0    0 -0.00000000000E+00 -0.00000000000E+00 -0.45593999997E+02  0.45594000000E+02  0.51100000000E-03 0. -1.
    9900012    2    1    2    0    0 -0.83923487844E+01  0.42261594559E+02  0.52105114494E+01  0.47787270485E+02  0.19999997452E+02 0.  0.
        -12    1    1    2    0    0  0.83923487844E+01 -0.42261594559E+02 -0.52105114494E+01  0.43400729515E+02  0.00000000000E+00 0.  1.
         11    1    3    3    0    0 -0.16362346948E+01  0.14174503781E+02  0.39435240981E+01  0.14803553762E+02  0.51100000000E-03 0. -1.
        -11    1    3    3    0    0  0.19340909286E+01  0.55178251460E+01 -0.53340690237E+01  0.79145053334E+01  0.51100000000E-03 0.  1.
         12    1    3    3    0    0 -0.86902050182E+01  0.22569265633E+02  0.66010563750E+01  0.25069211390E+02  0.00000000000E+00 0. -1.
</event>
<event>
 7    1  0.1400974E-009  0.4778727E+02  0.7816164E-02  0.1312668E+00
        -11   -1    0    0    0    0  0.00000000000E+00  0.00000000000E+00  0.45593999997E+02  0.45594000000E+02  0.51100000000E-03 0.  1.
         11   -1    0    0    0    0 -0.00000000000E+00 -0.00000000000E+00 -0.45593999997E+02  0.45594000000E+02  0.51100000000E-03 0. -1.
    9900012    2    1    2    0    0  0.41086517763E+02 -0.24059798358E+01 -0.13774335323E+02  0.47787274264E+02  0.20000014679E+02 0.  0.
        -12    1    1    2    0    0 -0.41086517763E+02  0.24059798358E+01  0.13774335323E+02  0.43400725736E+02  0.00000000000E+00 0.  1.
         11    1    3    3    0    0  0.21611937744E+02  0.26726451201E+01 -0.70573249525E+01  0.22891586243E+02  0.51100000000E-03 0. -1.
        -11    1    3    3    0    0  0.12375662202E+02 -0.49656709990E+01 -0.10387584393E+02  0.16903159859E+02  0.51100000000E-03 0.  1.
        -12    1    3    3    0    0  0.70989178169E+01 -0.11295395691E+00  0.36705740234E+01  0.79925281625E+01  0.00000000000E+00 0.  1.
</event>
<event>
 7    1  0.1400974E-009  0.4778727E+02  0.7816164E-02  0.1312668E+00
        -11   -1    0    0    0    0  0.00000000000E+00  0.00000000000E+00  0.45593999997E+02  0.45594000000E+02  0.51100000000E-03 0. -1.
         11   -1    0    0    0    0 -0.00000000000E+00 -0.00000000000E+00 -0.45593999997E+02  0.45594000000E+02  0.51100000000E-03 0.  1.
    9900012    2    1    2    0    0 -0.27667981211E+02  0.22060746478E+02  0.25128263637E+02  0.47787270135E+02  0.19999995852E+02 0.  0.
        -12    1    1    2    0    0  0.27667981211E+02 -0.22060746478E+02 -0.25128263637E+02  0.43400729865E+02  0.00000000000E+00 0.  1.
         11    1    3    3    0    0  0.71103125703E+00  0.11542937447E+00 -0.44672150844E+00  0.84761415525E+00  0.51100000000E-03 0. -1.
        -11    1    3    3    0    0 -0.90635687722E+01  0.17796830220E+01  0.13864924630E+02  0.16659882527E+02  0.51100000000E-03 0.  1.
         12    1    3    3    0    0 -0.19315443696E+02  0.20165634081E+02  0.11710060515E+02  0.30279773453E+02  0.00000000000E+00 0. -1.
</event>
<event>
 7    1  0.1400974E-009  0.4778727E+02  0.7816164E-02  0.1312668E+00
        -11   -1    0    0    0    0  0.00000000000E+00  0.00000000000E+00  0.45593999997E+02  0.45594000000E+02  0.51100000000E-03 0.  1.
         11   -1    0    0    0    0 -0.00000000000E+00 -0.00000000000E+00 -0.45593999997E+02  0.45594000000E+02  0.51100000000E-03 0. -1.
    9900012    2    1    2    0    0  0.13175885499E+02 -0.16403058878E+02 -0.37959967399E+02  0.47787269313E+02  0.19999992104E+02 0.  0.
        -12    1    1    2    0    0 -0.13175885499E+02  0.16403058878E+02  0.37959967399E+02  0.43400730687E+02  0.00000000000E+00 0.  1.
         11    1    3    3    0    0  0.85423295448E+01 -0.58629801255E+01 -0.10556401532E+02  0.14791333394E+02  0.51100000000E-03 0. -1.
        -11    1    3    3    0    0 -0.16472836648E+01 -0.75660729950E+01 -0.42731742790E+01  0.88441518937E+01  0.51100000000E-03 0.  1.
         12    1    3    3    0    0  0.62808396192E+01 -0.29740057576E+01 -0.23130391588E+02  0.24151784025E+02  0.00000000000E+00 0. -1.
</event>
<event>
 7    1  0.1400974E-009  0.4778727E+02  0.7816164E-02  0.1312668E+00
        -11   -1    0    0    0    0  0.00000000000E+00  0.00000000000E+00  0.45593999997E+02  0.45594000000E+02  0.51100000000E-03 0.  1.
         11   -1    0    0    0    0 -0.00000000000E+00 -0.00000000000E+00 -0.45593999997E+02  0.45594000000E+02  0.51100000000E-03 0. -1.
    9900012    2    1    2    0    0  0.10953328997E+02  0.34900003867E+02 -0.23358890425E+02  0.47787269040E+02  0.19999990859E+02 0.  0.
        -12    1    1    2    0    0 -0.10953328997E+02 -0.34900003867E+02  0.23358890425E+02  0.43400730960E+02  0.00000000000E+00 0.  1.
         11    1    3    3    0    0 -0.34640281297E+00  0.59587664540E+00  0.23534448512E+01  0.24522982718E+01  0.51100000000E-03 0. -1.
        -11    1    3    3    0    0  0.71088820692E+01  0.10300459853E+02 -0.12174305609E+02  0.17459936849E+02  0.51100000000E-03 0.  1.
         12    1    3    3    0    0  0.41908497403E+01  0.24003667369E+02 -0.13538029667E+02  0.27875033918E+02  0.00000000000E+00 0. -1.
</event>
<event>
 7    1  0.1400974E-009  0.4778727E+02  0.7816164E-02  0.1312668E+00
        -11   -1    0    0    0    0  0.00000000000E+00  0.00000000000E+00  0.45593999997E+02  0.45594000000E+02  0.51100000000E-03 0. -1.
         11   -1    0    0    0    0 -0.00000000000E+00 -0.00000000000E+00 -0.45593999997E+02  0.45594000000E+02  0.51100000000E-03 0.  1.
    9900012    2    1    2    0    0 -0.10353341355E+02  0.18899203803E+02  0.37672955035E+02  0.47787272787E+02  0.20000007944E+02 0.  0.
        -12    1    1    2    0    0  0.10353341355E+02 -0.18899203803E+02 -0.37672955035E+02  0.43400727213E+02  0.00000000000E+00 0.  1.
         11    1    3    3    0    0 -0.65649507233E+01  0.94395060544E+01  0.84397742565E+01  0.14262981537E+02  0.51100000000E-03 0. -1.
        -11    1    3    3    0    0  0.37503356010E+01  0.26474250237E+01  0.32486625254E+01  0.56238496461E+01  0.51100000000E-03 0.  1.
         12    1    3    3    0    0 -0.75387262327E+01  0.68122727244E+01  0.25984518253E+02  0.27900441604E+02  0.00000000000E+00 0. -1.
</event>
<event>
 7    1  0.1400974E-009  0.4778727E+02  0.7816164E-02  0.1312668E+00
        -11   -1    0    0    0    0  0.00000000000E+00  0.00000000000E+00  0.45593999997E+02  0.45594000000E+02  0.51100000000E-03 0.  1.
         11   -1    0    0    0    0 -0.00000000000E+00 -0.00000000000E+00 -0.45593999997E+02  0.45594000000E+02  0.51100000000E-03 0. -1.
    9900012    2    1    2    0    0 -0.25086405772E+02  0.15062022721E+02 -0.32053561312E+02  0.47787273326E+02  0.20000010405E+02 0.  0.
        -12    1    1    2    0    0  0.25086405772E+02 -0.15062022721E+02  0.32053561312E+02  0.43400726674E+02  0.00000000000E+00 0.  1.
         11    1    3    3    0    0  0.21130666958E+01  0.50808711311E+01 -0.19966241465E+01  0.58537860018E+01  0.51100000000E-03 0.  1.
        -11    1    3    3    0    0 -0.11584207532E+02  0.58488017876E+01 -0.15213159570E+02  0.19996063884E+02  0.51100000000E-03 0. -1.
        -12    1    3    3    0    0 -0.15615264936E+02  0.41323498025E+01 -0.14843777596E+02  0.21937423441E+02  0.00000000000E+00 0.  1.
</event>
<event>
 7    1  0.1400974E-009  0.4778729E+02  0.7816164E-02  0.1312668E+00
        -11   -1    0    0    0    0  0.00000000000E+00  0.00000000000E+00  0.45593999997E+02  0.45594000000E+02  0.51100000000E-03 0. -1.
         11   -1    0    0    0    0 -0.00000000000E+00 -0.00000000000E+00 -0.45593999997E+02  0.45594000000E+02  0.51100000000E-03 0.  1.
    9900012    2    1    2    0    0  0.32724974751E+02  0.28211188997E+02 -0.41019830027E+01  0.47787292384E+02  0.20000097294E+02 0.  0.
        -12    1    1    2    0    0 -0.32724974751E+02 -0.28211188997E+02  0.41019830027E+01  0.43400707616E+02  0.00000000000E+00 0.  1.
         11    1    3    3    0    0  0.25096117389E+02  0.14627666709E+02  0.32702438550E+01  0.29231459705E+02  0.51100000000E-03 0. -1.
        -11    1    3    3    0    0 -0.85419240280E+00  0.18596953046E+01 -0.26199044681E+01  0.33244564924E+01  0.51100000000E-03 0.  1.
        -12    1    3    3    0    0  0.84830497651E+01  0.11723826983E+02 -0.47523223896E+01  0.15231376186E+02  0.00000000000E+00 0.  1.
</event>
<event>
 7    1  0.1400974E-009  0.4778727E+02  0.7816164E-02  0.1312668E+00
        -11   -1    0    0    0    0  0.00000000000E+00  0.00000000000E+00  0.45593999997E+02  0.45594000000E+02  0.51100000000E-03 0.  1.
         11   -1    0    0    0    0 -0.00000000000E+00 -0.00000000000E+00 -0.45593999997E+02  0.45594000000E+02  0.51100000000E-03 0. -1.
    9900012    2    1    2    0    0  0.15628166030E+02 -0.23808475565E+01 -0.40419240661E+02  0.47787273921E+02  0.20000013117E+02 0.  0.
        -12    1    1    2    0    0 -0.15628166030E+02  0.23808475565E+01  0.40419240661E+02  0.43400726079E+02  0.00000000000E+00 0.  1.
         11    1    3    3    0    0  0.51039580519E+01  0.32812268695E+00 -0.18087734327E+02  0.18796919579E+02  0.51100000000E-03 0. -1.
        -11    1    3    3    0    0  0.36190104884E+00  0.21980520276E+01  0.14563147119E+01  0.26614390631E+01  0.51100000000E-03 0.  1.
        -12    1    3    3    0    0  0.10162306930E+02 -0.49070222710E+01 -0.23787821045E+02  0.26328915279E+02  0.00000000000E+00 0.  1.
</event>
<event>
 7    1  0.1400974E-009  0.4778727E+02  0.7816164E-02  0.1312668E+00
        -11   -1    0    0    0    0  0.00000000000E+00  0.00000000000E+00  0.45593999997E+02  0.45594000000E+02  0.51100000000E-03 0.  1.
         11   -1    0    0    0    0 -0.00000000000E+00 -0.00000000000E+00 -0.45593999997E+02  0.45594000000E+02  0.51100000000E-03 0. -1.
    9900012    2    1    2    0    0 -0.20200170959E+02  0.32767055361E+02 -0.20047352511E+02  0.47787272281E+02  0.20000005640E+02 0.  0.
        -12    1    1    2    0    0  0.20200170959E+02 -0.32767055361E+02  0.20047352511E+02  0.43400727719E+02  0.00000000000E+00 0.  1.
         11    1    3    3    0    0 -0.12366955550E+02  0.74001738647E+01 -0.48838147576E+01  0.15216957963E+02  0.51100000000E-03 0. -1.
        -11    1    3    3    0    0  0.12073365964E+01  0.93398880228E+01 -0.12478010555E+01  0.94999040875E+01  0.51100000000E-03 0.  1.
         12    1    3    3    0    0 -0.90405520051E+01  0.16026993474E+02 -0.13915736698E+02  0.23070410230E+02  0.00000000000E+00 0. -1.
</event>
<event>
 7    1  0.1400974E-009  0.4778728E+02  0.7816164E-02  0.1312668E+00
        -11   -1    0    0    0    0  0.00000000000E+00  0.00000000000E+00  0.45593999997E+02  0.45594000000E+02  0.51100000000E-03 0.  1.
         11   -1    0    0    0    0 -0.00000000000E+00 -0.00000000000E+00 -0.45593999997E+02  0.45594000000E+02  0.51100000000E-03 0. -1.
    9900012    2    1    2    0    0  0.17698686595E+01  0.29162028148E+02 -0.32094648367E+02  0.47787276797E+02  0.20000026227E+02 0.  0.
        -12    1    1    2    0    0 -0.17698686595E+01 -0.29162028148E+02  0.32094648367E+02  0.43400723203E+02  0.00000000000E+00 0.  1.
         11    1    3    3    0    0 -0.24611497255E+01  0.34354016338E+01 -0.90541615890E+01  0.99918509145E+01  0.51100000000E-03 0. -1.
        -11    1    3    3    0    0  0.17705582682E+01  0.26827568140E+02 -0.18936308718E+02  0.32885210612E+02  0.51100000000E-03 0.  1.
        -12    1    3    3    0    0  0.24604601168E+01 -0.11009416259E+01 -0.41041780605E+01  0.49102152704E+01  0.00000000000E+00 0.  1.
</event>
<event>
 7    1  0.1400974E-009  0.4778726E+02  0.7816164E-02  0.1312668E+00
        -11   -1    0    0    0    0  0.00000000000E+00  0.00000000000E+00  0.45593999997E+02  0.45594000000E+02  0.51100000000E-03 0. -1.
         11   -1    0    0    0    0 -0.00000000000E+00 -0.00000000000E+00 -0.45593999997E+02  0.45594000000E+02  0.51100000000E-03 0.  1.
    9900012    2    1    2    0    0 -0.34756863859E+02  0.17269403131E+02  0.19425564182E+02  0.47787257914E+02  0.19999940133E+02 0.  0.
        -12    1    1    2    0    0  0.34756863859E+02 -0.17269403131E+02 -0.19425564182E+02  0.43400742086E+02  0.00000000000E+00 0.  1.
         11    1    3    3    0    0 -0.18196497270E+02  0.42080540446E+01  0.81390527938E+01  0.20373129666E+02  0.51100000000E-03 0. -1.
        -11    1    3    3    0    0 -0.14265101402E+01  0.13572874230E+01  0.77018690707E+01  0.79495878995E+01  0.51100000000E-03 0.  1.
         12    1    3    3    0    0 -0.15133856448E+02  0.11704061664E+02  0.35846423173E+01  0.19464540348E+02  0.00000000000E+00 0. -1.
</event>
<event>
 7    1  0.1400974E-009  0.4778728E+02  0.7816164E-02  0.1312668E+00
        -11   -1    0    0    0    0  0.00000000000E+00  0.00000000000E+00  0.45593999997E+02  0.45594000000E+02  0.51100000000E-03 0.  1.
         11   -1    0    0    0    0 -0.00000000000E+00 -0.00000000000E+00 -0.45593999997E+02  0.45594000000E+02  0.51100000000E-03 0. -1.
    9900012    2    1    2    0    0  0.25373171588E+02  0.88588775400E+01 -0.34078509745E+02  0.47787281409E+02  0.20000047258E+02 0.  0.
        -12    1    1    2    0    0 -0.25373171588E+02 -0.88588775400E+01  0.34078509745E+02  0.43400718591E+02  0.00000000000E+00 0.  1.
         11    1    3    3    0    0  0.10610476769E+02 -0.39266582071E+01 -0.14240525811E+02  0.18187727664E+02  0.51100000000E-03 0. -1.
        -11    1    3    3    0    0  0.59996894881E+01  0.42378280187E+01 -0.14152385264E+01  0.74805321079E+01  0.51100000000E-03 0.  1.
        -12    1    3    3    0    0  0.87630053317E+01  0.85477077284E+01 -0.18422745408E+02  0.22119021638E+02  0.00000000000E+00 0.  1.
</event>
<event>
 7    1  0.1400974E-009  0.4778727E+02  0.7816164E-02  0.1312668E+00
        -11   -1    0    0    0    0  0.00000000000E+00  0.00000000000E+00  0.45593999997E+02  0.45594000000E+02  0.51100000000E-03 0.  1.
         11   -1    0    0    0    0 -0.00000000000E+00 -0.00000000000E+00 -0.45593999997E+02  0.45594000000E+02  0.51100000000E-03 0. -1.
    9900012    2    1    2    0    0  0.24566802531E+02 -0.93186883058E+01 -0.34543560337E+02  0.47787270754E+02  0.19999998677E+02 0.  0.
        -12    1    1    2    0    0 -0.24566802531E+02  0.93186883058E+01  0.34543560337E+02  0.43400729246E+02  0.00000000000E+00 0.  1.
         11    1    3    3    0    0  0.18007165610E+02 -0.10657147864E+02 -0.18285788684E+02  0.27788538680E+02  0.51100000000E-03 0. -1.
        -11    1    3    3    0    0  0.78879057139E+01  0.17170658228E+00 -0.16426238648E+02  0.18222783983E+02  0.51100000000E-03 0.  1.
        -12    1    3    3    0    0 -0.13282687930E+01  0.11667529760E+01  0.16846699595E+00  0.17759480911E+01  0.00000000000E+00 0.  1.
</event>
<event>
 7    1  0.1400974E-009  0.4778727E+02  0.7816164E-02  0.1312668E+00
        -11   -1    0    0    0    0  0.00000000000E+00  0.00000000000E+00  0.45593999997E+02  0.45594000000E+02  0.51100000000E-03 0.  1.
         11   -1    0    0    0    0 -0.00000000000E+00 -0.00000000000E+00 -0.45593999997E+02  0.45594000000E+02  0.51100000000E-03 0. -1.
    9900012    2    1    2    0    0 -0.47574121813E+01 -0.42987789748E+02 -0.36111296567E+01  0.47787270796E+02  0.19999998867E+02 0.  0.
        -12    1    1    2    0    0  0.47574121813E+01  0.42987789748E+02  0.36111296567E+01  0.43400729204E+02  0.00000000000E+00 0.  1.
         11    1    3    3    0    0 -0.87475444079E+00 -0.45820244628E+01 -0.60380622588E+01  0.76300943384E+01  0.51100000000E-03 0. -1.
        -11    1    3    3    0    0  0.32551390139E+01 -0.15457891920E+02  0.31766785756E+01  0.16113151139E+02  0.51100000000E-03 0.  1.
         12    1    3    3    0    0 -0.71377967545E+01 -0.22947873365E+02 -0.74974597355E+00  0.24044025318E+02  0.00000000000E+00 0. -1.
</event>
<event>
 7    1  0.1400974E-009  0.4778728E+02  0.7816164E-02  0.1312668E+00
        -11   -1    0    0    0    0  0.00000000000E+00  0.00000000000E+00  0.45593999997E+02  0.45594000000E+02  0.51100000000E-03 0.  1.
         11   -1    0    0    0    0 -0.00000000000E+00 -0.00000000000E+00 -0.45593999997E+02  0.45594000000E+02  0.51100000000E-03 0. -1.
    9900012    2    1    2    0    0 -0.37859039472E+02 -0.16616409795E+02 -0.13198876806E+02  0.47787282342E+02  0.20000051512E+02 0.  0.
        -12    1    1    2    0    0  0.37859039472E+02  0.16616409795E+02  0.13198876806E+02  0.43400717658E+02  0.00000000000E+00 0.  1.
         11    1    3    3    0    0 -0.17987597017E+02 -0.86240421337E+01 -0.15724723727E+02  0.25400682781E+02  0.51100000000E-03 0. -1.
        -11    1    3    3    0    0 -0.13988722846E+02 -0.36629894574E+01 -0.52752168851E+00  0.14469973670E+02  0.51100000000E-03 0.  1.
         12    1    3    3    0    0 -0.58827196095E+01 -0.43293782043E+01  0.30533686100E+01  0.79166258916E+01  0.00000000000E+00 0. -1.
</event>
<event>
 7    1  0.1729144E-009  0.4778726E+02  0.7816164E-02  0.1312668E+00
        -11   -1    0    0    0    0  0.00000000000E+00  0.00000000000E+00  0.45593999997E+02  0.45594000000E+02  0.51100000000E-03 0. -1.
         11   -1    0    0    0    0 -0.00000000000E+00 -0.00000000000E+00 -0.45593999997E+02  0.45594000000E+02  0.51100000000E-03 0.  1.
    9900012    2    1    2    0    0  0.41430672747E+02 -0.12562243636E+02  0.30517815705E+01  0.47787262907E+02  0.19999962899E+02 0.  0.
        -12    1    1    2    0    0 -0.41430672747E+02  0.12562243636E+02 -0.30517815705E+01  0.43400737093E+02  0.00000000000E+00 0.  1.
         11    1    3    3    0    0  0.18674549773E+02 -0.70134873968E+00  0.38481698323E+01  0.19079808977E+02  0.51100000000E-03 0. -1.
        -11    1    3    3    0    0  0.48243137281E+00  0.20537143984E+00 -0.32175352967E+01  0.32599771632E+01  0.51100000000E-03 0.  1.
         12    1    3    3    0    0  0.22273691602E+02 -0.12066266336E+02  0.24211470349E+01  0.25447476767E+02  0.00000000000E+00 0. -1.
</event>
<event>
 7    1  0.1400974E-009  0.4778726E+02  0.7816164E-02  0.1312668E+00
        -11   -1    0    0    0    0  0.00000000000E+00  0.00000000000E+00  0.45593999997E+02  0.45594000000E+02  0.51100000000E-03 0. -1.
         11   -1    0    0    0    0 -0.00000000000E+00 -0.00000000000E+00 -0.45593999997E+02  0.45594000000E+02  0.51100000000E-03 0.  1.
    9900012    2    1    2    0    0 -0.10545317763E+02 -0.34747448982E+02  0.23770466648E+02  0.47787262424E+02  0.19999960695E+02 0.  0.
        -12    1    1    2    0    0  0.10545317763E+02  0.34747448982E+02 -0.23770466648E+02  0.43400737576E+02  0.00000000000E+00 0.  1.
         11    1    3    3    0    0  0.24991525292E+01 -0.22574005735E+02  0.12813184439E+02  0.26076985907E+02  0.51100000000E-03 0. -1.
        -11    1    3    3    0    0 -0.40426642264E+01 -0.65502240958E+00  0.19144517233E+01  0.45207647657E+01  0.51100000000E-03 0.  1.
        -12    1    3    3    0    0 -0.90018060654E+01 -0.11518420838E+02  0.90428304866E+01  0.17189511751E+02  0.00000000000E+00 0.  1.
</event>
<event>
 7    1  0.1400974E-009  0.4778727E+02  0.7816164E-02  0.1312668E+00
        -11   -1    0    0    0    0  0.00000000000E+00  0.00000000000E+00  0.45593999997E+02  0.45594000000E+02  0.51100000000E-03 0.  1.
         11   -1    0    0    0    0 -0.00000000000E+00 -0.00000000000E+00 -0.45593999997E+02  0.45594000000E+02  0.51100000000E-03 0. -1.
    9900012    2    1    2    0    0 -0.15163556304E+02  0.25001760026E+02 -0.32071825772E+02  0.47787268986E+02  0.19999990616E+02 0.  0.
        -12    1    1    2    0    0  0.15163556304E+02 -0.25001760026E+02  0.32071825772E+02  0.43400731014E+02  0.00000000000E+00 0.  1.
         11    1    3    3    0    0 -0.73255134580E+01  0.12891264007E+02 -0.24692517329E+02  0.28802226432E+02  0.51100000000E-03 0. -1.
        -11    1    3    3    0    0  0.71212236675E+00  0.79421408973E+01 -0.31158431965E+01  0.85611447474E+01  0.51100000000E-03 0.  1.
        -12    1    3    3    0    0 -0.85501652131E+01  0.41683551215E+01 -0.42634652463E+01  0.10423897807E+02  0.00000000000E+00 0.  1.
</event>
<event>
 7    1  0.1400974E-009  0.4778727E+02  0.7816164E-02  0.1312668E+00
        -11   -1    0    0    0    0  0.00000000000E+00  0.00000000000E+00  0.45593999997E+02  0.45594000000E+02  0.51100000000E-03 0. -1.
         11   -1    0    0    0    0 -0.00000000000E+00 -0.00000000000E+00 -0.45593999997E+02  0.45594000000E+02  0.51100000000E-03 0.  1.
    9900012    2    1    2    0    0 -0.10588385841E+02 -0.34669145144E+01  0.41946275209E+02  0.47787269419E+02  0.19999992591E+02 0.  0.
        -12    1    1    2    0    0  0.10588385841E+02  0.34669145144E+01 -0.41946275209E+02  0.43400730581E+02  0.00000000000E+00 0.  1.
         11    1    3    3    0    0 -0.33011140513E+01 -0.23320597924E+01  0.39385898590E+02  0.39592737527E+02  0.51100000000E-03 0. -1.
        -11    1    3    3    0    0 -0.11686371288E+01  0.34847266474E-01 -0.47863383743E+00  0.12633359341E+01  0.51100000000E-03 0.  1.
         12    1    3    3    0    0 -0.61186346612E+01 -0.11697019885E+01  0.30390104565E+01  0.69311959584E+01  0.00000000000E+00 0. -1.
</event>
<event>
 7    1  0.1400974E-009  0.4778727E+02  0.7816164E-02  0.1312668E+00
        -11   -1    0    0    0    0  0.00000000000E+00  0.00000000000E+00  0.45593999997E+02  0.45594000000E+02  0.51100000000E-03 0.  1.
         11   -1    0    0    0    0 -0.00000000000E+00 -0.00000000000E+00 -0.45593999997E+02  0.45594000000E+02  0.51100000000E-03 0. -1.
    9900012    2    1    2    0    0 -0.27924259399E+02  0.27091607161E+02 -0.19232877893E+02  0.47787273812E+02  0.20000012619E+02 0.  0.
        -12    1    1    2    0    0  0.27924259399E+02 -0.27091607161E+02  0.19232877893E+02  0.43400726188E+02  0.00000000000E+00 0.  1.
         11    1    3    3    0    0 -0.28873446970E+01  0.39248020556E+01 -0.98977383593E+01  0.11032046749E+02  0.51100000000E-03 0. -1.
        -11    1    3    3    0    0 -0.10508400110E+02  0.15783264765E+02 -0.73562922240E+01  0.20338459997E+02  0.51100000000E-03 0.  1.
         12    1    3    3    0    0 -0.14528514593E+02  0.73835403413E+01 -0.19788473095E+01  0.16416767067E+02  0.00000000000E+00 0. -1.
</event>
<event>
 7    1  0.1400974E-009  0.4778727E+02  0.7816164E-02  0.1312668E+00
        -11   -1    0    0    0    0  0.00000000000E+00  0.00000000000E+00  0.45593999997E+02  0.45594000000E+02  0.51100000000E-03 0.  1.
         11   -1    0    0    0    0 -0.00000000000E+00 -0.00000000000E+00 -0.45593999997E+02  0.45594000000E+02  0.51100000000E-03 0. -1.
    9900012    2    1    2    0    0  0.42152249024E+02  0.94438236202E+01  0.41982412680E+01  0.47787272678E+02  0.20000007449E+02 0.  0.
        -12    1    1    2    0    0 -0.42152249024E+02 -0.94438236202E+01 -0.41982412680E+01  0.43400727322E+02  0.00000000000E+00 0.  1.
         11    1    3    3    0    0  0.23892286054E+02  0.12907684663E+02 -0.28838823518E+01  0.27308724502E+02  0.51100000000E-03 0. -1.
        -11    1    3    3    0    0  0.75989320650E+01 -0.23651045218E+01  0.66370441946E+00  0.79861124300E+01  0.51100000000E-03 0.  1.
         12    1    3    3    0    0  0.10661030905E+02 -0.10987565207E+01  0.64184192003E+01  0.12492435746E+02  0.00000000000E+00 0. -1.
</event>
<event>
 7    1  0.1400974E-009  0.4778727E+02  0.7816164E-02  0.1312668E+00
        -11   -1    0    0    0    0  0.00000000000E+00  0.00000000000E+00  0.45593999997E+02  0.45594000000E+02  0.51100000000E-03 0.  1.
         11   -1    0    0    0    0 -0.00000000000E+00 -0.00000000000E+00 -0.45593999997E+02  0.45594000000E+02  0.51100000000E-03 0. -1.
    9900012    2    1    2    0    0  0.41744055965E+02  0.23579876587E+01 -0.11640317834E+02  0.47787270589E+02  0.19999997922E+02 0.  0.
        -12    1    1    2    0    0 -0.41744055965E+02 -0.23579876587E+01  0.11640317834E+02  0.43400729411E+02  0.00000000000E+00 0.  1.
         11    1    3    3    0    0  0.23103450368E+02 -0.12163845087E+01 -0.50944408948E+01  0.23689709548E+02  0.51100000000E-03 0. -1.
        -11    1    3    3    0    0  0.15008938414E+02  0.82551468126E+01 -0.36971350616E+01  0.17523826327E+02  0.51100000000E-03 0.  1.
        -12    1    3    3    0    0  0.36316671833E+01 -0.46807746452E+01 -0.28487418773E+01  0.65737347142E+01  0.00000000000E+00 0.  1.
</event>
<event>
 7    1  0.1400974E-009  0.4778727E+02  0.7816164E-02  0.1312668E+00
        -11   -1    0    0    0    0  0.00000000000E+00  0.00000000000E+00  0.45593999997E+02  0.45594000000E+02  0.51100000000E-03 0. -1.
         11   -1    0    0    0    0 -0.00000000000E+00 -0.00000000000E+00 -0.45593999997E+02  0.45594000000E+02  0.51100000000E-03 0.  1.
    9900012    2    1    2    0    0  0.30017960485E+01 -0.19342597836E+02  0.38735981468E+02  0.47787272692E+02  0.20000007511E+02 0.  0.
        -12    1    1    2    0    0 -0.30017960485E+01  0.19342597836E+02 -0.38735981468E+02  0.43400727308E+02  0.00000000000E+00 0.  1.
         11    1    3    3    0    0  0.34033458670E+01 -0.11171703064E-01  0.49506712823E+01  0.60076646298E+01  0.51100000000E-03 0. -1.
        -11    1    3    3    0    0 -0.63672568059E+01 -0.16241083281E+02  0.20700935066E+02  0.27071081586E+02  0.51100000000E-03 0.  1.
         12    1    3    3    0    0  0.59657069874E+01 -0.30903428516E+01  0.13084375120E+02  0.14708526476E+02  0.00000000000E+00 0. -1.
</event>
<event>
 7    1  0.1400974E-009  0.4778726E+02  0.7816164E-02  0.1312668E+00
        -11   -1    0    0    0    0  0.00000000000E+00  0.00000000000E+00  0.45593999997E+02  0.45594000000E+02  0.51100000000E-03 0.  1.
         11   -1    0    0    0    0 -0.00000000000E+00 -0.00000000000E+00 -0.45593999997E+02  0.45594000000E+02  0.51100000000E-03 0. -1.
    9900012    2    1    2    0    0 -0.38081361718E+02  0.18009866529E+02 -0.10444065296E+02  0.47787263801E+02  0.19999966976E+02 0.  0.
        -12    1    1    2    0    0  0.38081361718E+02 -0.18009866529E+02  0.10444065296E+02  0.43400736199E+02  0.00000000000E+00 0.  1.
         11    1    3    3    0    0 -0.13620525554E+02  0.15629629159E+01 -0.91438806343E+01  0.16479445463E+02  0.51100000000E-03 0. -1.
        -11    1    3    3    0    0 -0.22508082522E+02  0.13900470085E+02 -0.44328688518E+01  0.26823258078E+02  0.51100000000E-03 0.  1.
         12    1    3    3    0    0 -0.19527536418E+01  0.25464335280E+01  0.31326841899E+01  0.44845602607E+01  0.00000000000E+00 0. -1.
</event>
<event>
 7    1  0.1400974E-009  0.4778728E+02  0.7816164E-02  0.1312668E+00
        -11   -1    0    0    0    0  0.00000000000E+00  0.00000000000E+00  0.45593999997E+02  0.45594000000E+02  0.51100000000E-03 0.  1.
         11   -1    0    0    0    0 -0.00000000000E+00 -0.00000000000E+00 -0.45593999997E+02  0.45594000000E+02  0.51100000000E-03 0. -1.
    9900012    2    1    2    0    0  0.32752357122E+02 -0.11793128728E+02  0.25919631770E+02  0.47787284644E+02  0.20000062008E+02 0.  0.
        -12    1    1    2    0    0 -0.32752357122E+02  0.11793128728E+02 -0.25919631770E+02  0.43400715356E+02  0.00000000000E+00 0.  1.
         11    1    3    3    0    0  0.31057846878E+01 -0.33854052848E+01  0.47210998733E+00  0.46184148331E+01  0.51100000000E-03 0. -1.
        -11    1    3    3    0    0  0.56361955151E+00 -0.21405606860E+01  0.88065919237E+01  0.90805136760E+01  0.51100000000E-03 0.  1.
         12    1    3    3    0    0  0.29082952883E+02 -0.62671627576E+01  0.16640929859E+02  0.34088356135E+02  0.00000000000E+00 0. -1.
</event>
<event>
 7    1  0.1400974E-009  0.4778727E+02  0.7816164E-02  0.1312668E+00
        -11   -1    0    0    0    0  0.00000000000E+00  0.00000000000E+00  0.45593999997E+02  0.45594000000E+02  0.51100000000E-03 0.  1.
         11   -1    0    0    0    0 -0.00000000000E+00 -0.00000000000E+00 -0.45593999997E+02  0.45594000000E+02  0.51100000000E-03 0. -1.
    9900012    2    1    2    0    0  0.30229251166E+02  0.29062006390E+00 -0.31140504373E+02  0.47787273063E+02  0.20000009203E+02 0.  0.
        -12    1    1    2    0    0 -0.30229251166E+02 -0.29062006390E+00  0.31140504373E+02  0.43400726937E+02  0.00000000000E+00 0.  1.
         11    1    3    3    0    0  0.10708613756E+01  0.29554070479E+01 -0.11141088189E+02  0.11576053783E+02  0.51100000000E-03 0.  1.
        -11    1    3    3    0    0  0.16905895669E+02 -0.11173816380E+01 -0.15800560247E+02  0.23167122274E+02  0.51100000000E-03 0. -1.
         12    1    3    3    0    0  0.12252494122E+02 -0.15474053460E+01 -0.41988559373E+01  0.13044097005E+02  0.00000000000E+00 0. -1.
</event>
<event>
 7    1  0.1400974E-009  0.4778727E+02  0.7816164E-02  0.1312668E+00
        -11   -1    0    0    0    0  0.00000000000E+00  0.00000000000E+00  0.45593999997E+02  0.45594000000E+02  0.51100000000E-03 0.  1.
         11   -1    0    0    0    0 -0.00000000000E+00 -0.00000000000E+00 -0.45593999997E+02  0.45594000000E+02  0.51100000000E-03 0. -1.
    9900012    2    1    2    0    0  0.23028232273E+01 -0.18240343961E+01 -0.43301192099E+02  0.47787270358E+02  0.19999996869E+02 0.  0.
        -12    1    1    2    0    0 -0.23028232273E+01  0.18240343961E+01  0.43301192099E+02  0.43400729642E+02  0.00000000000E+00 0.  1.
         11    1    3    3    0    0 -0.15702414657E+01  0.51097456898E+00 -0.17712825583E+02  0.17789630229E+02  0.51100000000E-03 0. -1.
        -11    1    3    3    0    0 -0.46781749529E+01 -0.64285505091E+00 -0.17430143314E+02  0.18058473904E+02  0.51100000000E-03 0.  1.
        -12    1    3    3    0    0  0.85512396460E+01 -0.16921539142E+01 -0.81582232014E+01  0.11939166225E+02  0.00000000000E+00 0.  1.
</event>
<event>
 7    1  0.1400974E-009  0.4778728E+02  0.7816164E-02  0.1312668E+00
        -11   -1    0    0    0    0  0.00000000000E+00  0.00000000000E+00  0.45593999997E+02  0.45594000000E+02  0.51100000000E-03 0.  1.
         11   -1    0    0    0    0 -0.00000000000E+00 -0.00000000000E+00 -0.45593999997E+02  0.45594000000E+02  0.51100000000E-03 0. -1.
    9900012    2    1    2    0    0 -0.16672733168E+02 -0.38949824290E+02 -0.94103114827E+01  0.47787276437E+02  0.20000024589E+02 0.  0.
        -12    1    1    2    0    0  0.16672733168E+02  0.38949824290E+02  0.94103114827E+01  0.43400723563E+02  0.00000000000E+00 0.  1.
         11    1    3    3    0    0 -0.56967003885E+00 -0.18363524631E+02 -0.51591886623E+01  0.19082997373E+02  0.51100000000E-03 0. -1.
        -11    1    3    3    0    0 -0.10352670478E+02 -0.16374663560E+02  0.16607032532E+01  0.19443902085E+02  0.51100000000E-03 0.  1.
         12    1    3    3    0    0 -0.57503926515E+01 -0.42116360992E+01 -0.59118260735E+01  0.92603769795E+01  0.00000000000E+00 0. -1.
</event>
<event>
 7    1  0.1400974E-009  0.4778727E+02  0.7816164E-02  0.1312668E+00
        -11   -1    0    0    0    0  0.00000000000E+00  0.00000000000E+00  0.45593999997E+02  0.45594000000E+02  0.51100000000E-03 0.  1.
         11   -1    0    0    0    0 -0.00000000000E+00 -0.00000000000E+00 -0.45593999997E+02  0.45594000000E+02  0.51100000000E-03 0. -1.
    9900012    2    1    2    0    0 -0.26399270692E+02  0.28716241548E+02 -0.19028380359E+02  0.47787270965E+02  0.19999999638E+02 0.  0.
        -12    1    1    2    0    0  0.26399270692E+02 -0.28716241548E+02  0.19028380359E+02  0.43400729035E+02  0.00000000000E+00 0.  1.
         11    1    3    3    0    0 -0.13763518527E+02  0.16752261432E+02 -0.10143399784E+01  0.21704874825E+02  0.51100000000E-03 0. -1.
        -11    1    3    3    0    0 -0.34331254642E+00 -0.57301723308E+00 -0.27093049350E+01  0.27904382713E+01  0.51100000000E-03 0.  1.
         12    1    3    3    0    0 -0.12292439618E+02  0.12536997349E+02 -0.15304735446E+02  0.23291957869E+02  0.00000000000E+00 0. -1.
</event>
<event>
 7    1  0.1400974E-009  0.4778727E+02  0.7816164E-02  0.1312668E+00
        -11   -1    0    0    0    0  0.00000000000E+00  0.00000000000E+00  0.45593999997E+02  0.45594000000E+02  0.51100000000E-03 0.  1.
         11   -1    0    0    0    0 -0.00000000000E+00 -0.00000000000E+00 -0.45593999997E+02  0.45594000000E+02  0.51100000000E-03 0. -1.
    9900012    2    1    2    0    0 -0.25831444601E+02 -0.27819211627E+02 -0.21034533928E+02  0.47787266328E+02  0.19999978494E+02 0.  0.
        -12    1    1    2    0    0  0.25831444601E+02  0.27819211627E+02  0.21034533928E+02  0.43400733672E+02  0.00000000000E+00 0.  1.
         11    1    3    3    0    0 -0.12190754453E+02 -0.18588175126E+02 -0.10859689466E+02  0.24740000085E+02  0.51100000000E-03 0. -1.
        -11    1    3    3    0    0 -0.12714166881E+02 -0.10236152962E+02 -0.41125584845E+01  0.16832765801E+02  0.51100000000E-03 0.  1.
        -12    1    3    3    0    0 -0.92652326663E+00  0.10051164613E+01 -0.60622859783E+01  0.62145004423E+01  0.00000000000E+00 0.  1.
</event>
<event>
 7    1  0.1400974E-009  0.4778727E+02  0.7816164E-02  0.1312668E+00
        -11   -1    0    0    0    0  0.00000000000E+00  0.00000000000E+00  0.45593999997E+02  0.45594000000E+02  0.51100000000E-03 0.  1.
         11   -1    0    0    0    0 -0.00000000000E+00 -0.00000000000E+00 -0.45593999997E+02  0.45594000000E+02  0.51100000000E-03 0. -1.
    9900012    2    1    2    0    0  0.23396660656E+02  0.36067696943E+02 -0.59448529669E+01  0.47787265336E+02  0.19999973971E+02 0.  0.
        -12    1    1    2    0    0 -0.23396660656E+02 -0.36067696943E+02  0.59448529669E+01  0.43400734664E+02  0.00000000000E+00 0.  1.
         11    1    3    3    0    0  0.15870832617E+01 -0.39419077763E+00 -0.30145282071E+01  0.34295189489E+01  0.51100000000E-03 0.  1.
        -11    1    3    3    0    0  0.20341690070E+02  0.26791361153E+02  0.13841811028E+01  0.33667155284E+02  0.51100000000E-03 0. -1.
         12    1    3    3    0    0  0.14678873249E+01  0.96705265671E+01 -0.43145058626E+01  0.10690591103E+02  0.00000000000E+00 0. -1.
</event>
<event>
 7    1  0.1400974E-009  0.4778727E+02  0.7816164E-02  0.1312668E+00
        -11   -1    0    0    0    0  0.00000000000E+00  0.00000000000E+00  0.45593999997E+02  0.45594000000E+02  0.51100000000E-03 0. -1.
         11   -1    0    0    0    0 -0.00000000000E+00 -0.00000000000E+00 -0.45593999997E+02  0.45594000000E+02  0.51100000000E-03 0.  1.
    9900012    2    1    2    0    0 -0.27432220705E+02 -0.15808951037E+01  0.33594599835E+02  0.47787273045E+02  0.20000009119E+02 0.  0.
        -12    1    1    2    0    0  0.27432220705E+02  0.15808951037E+01 -0.33594599835E+02  0.43400726955E+02  0.00000000000E+00 0.  1.
         11    1    3    3    0    0 -0.14748696844E+02 -0.24514665667E+01  0.10015539932E+02  0.17995688020E+02  0.51100000000E-03 0. -1.
        -11    1    3    3    0    0  0.22554805770E+01  0.20944410972E+01  0.27336479039E+01  0.41166378595E+01  0.51100000000E-03 0.  1.
         12    1    3    3    0    0 -0.14939004438E+02 -0.12238696342E+01  0.20845411999E+02  0.25674947165E+02  0.00000000000E+00 0. -1.
</event>
<event>
 7    1  0.1400974E-009  0.4778727E+02  0.7816164E-02  0.1312668E+00
        -11   -1    0    0    0    0  0.00000000000E+00  0.00000000000E+00  0.45593999997E+02  0.45594000000E+02  0.51100000000E-03 0. -1.
         11   -1    0    0    0    0 -0.00000000000E+00 -0.00000000000E+00 -0.45593999997E+02  0.45594000000E+02  0.51100000000E-03 0.  1.
    9900012    2    1    2    0    0  0.29381167344E+02 -0.29371178231E+02 -0.12558038920E+02  0.47787269053E+02  0.19999990922E+02 0.  0.
        -12    1    1    2    0    0 -0.29381167344E+02  0.29371178231E+02  0.12558038920E+02  0.43400730947E+02  0.00000000000E+00 0.  1.
         11    1    3    3    0    0  0.31779917538E+01 -0.11485222375E+02  0.11104941060E+01  0.11968423539E+02  0.51100000000E-03 0. -1.
        -11    1    3    3    0    0  0.18465217338E+02 -0.10928437657E+02 -0.44424420571E+01  0.21911875608E+02  0.51100000000E-03 0.  1.
        -12    1    3    3    0    0  0.77379582525E+01 -0.69575181986E+01 -0.92260909692E+01  0.13906969906E+02  0.00000000000E+00 0.  1.
</event>
<event>
 7    1  0.1400974E-009  0.4778727E+02  0.7816164E-02  0.1312668E+00
        -11   -1    0    0    0    0  0.00000000000E+00  0.00000000000E+00  0.45593999997E+02  0.45594000000E+02  0.51100000000E-03 0.  1.
         11   -1    0    0    0    0 -0.00000000000E+00 -0.00000000000E+00 -0.45593999997E+02  0.45594000000E+02  0.51100000000E-03 0. -1.
    9900012    2    1    2    0    0 -0.40252404439E+01  0.28916932313E+01 -0.43116801020E+02  0.47787274424E+02  0.20000015407E+02 0.  0.
        -12    1    1    2    0    0  0.40252404439E+01 -0.28916932313E+01  0.43116801020E+02  0.43400725576E+02  0.00000000000E+00 0.  1.
         11    1    3    3    0    0 -0.55585270121E+01 -0.27955482839E+01 -0.14898803923E+02  0.16145794231E+02  0.51100000000E-03 0. -1.
        -11    1    3    3    0    0  0.38467125677E+01 -0.85328832760E+00 -0.18075594388E+01  0.43350397846E+01  0.51100000000E-03 0.  1.
         12    1    3    3    0    0 -0.23134259995E+01  0.65405298428E+01 -0.26410437658E+02  0.27306440408E+02  0.00000000000E+00 0. -1.
</event>
<event>
 7    1  0.1400974E-009  0.4778728E+02  0.7816164E-02  0.1312668E+00
        -11   -1    0    0    0    0  0.00000000000E+00  0.00000000000E+00  0.45593999997E+02  0.45594000000E+02  0.51100000000E-03 0.  1.
         11   -1    0    0    0    0 -0.00000000000E+00 -0.00000000000E+00 -0.45593999997E+02  0.45594000000E+02  0.51100000000E-03 0. -1.
    9900012    2    1    2    0    0 -0.28143684504E+02  0.26619019670E+02 -0.19569969113E+02  0.47787275620E+02  0.20000020860E+02 0.  0.
        -12    1    1    2    0    0  0.28143684504E+02 -0.26619019670E+02  0.19569969113E+02  0.43400724380E+02  0.00000000000E+00 0.  1.
         11    1    3    3    0    0 -0.13853998757E+02  0.74229464446E+01 -0.58502217276E+00  0.15728180654E+02  0.51100000000E-03 0. -1.
        -11    1    3    3    0    0 -0.14964827098E+02  0.14288107842E+02 -0.13699312825E+02  0.24814657925E+02  0.51100000000E-03 0.  1.
        -12    1    3    3    0    0  0.67514135023E+00  0.49079653830E+01 -0.52856341154E+01  0.72444370413E+01  0.00000000000E+00 0.  1.
</event>
<event>
 7    1  0.1400974E-009  0.4778727E+02  0.7816164E-02  0.1312668E+00
        -11   -1    0    0    0    0  0.00000000000E+00  0.00000000000E+00  0.45593999997E+02  0.45594000000E+02  0.51100000000E-03 0.  1.
         11   -1    0    0    0    0 -0.00000000000E+00 -0.00000000000E+00 -0.45593999997E+02  0.45594000000E+02  0.51100000000E-03 0. -1.
    9900012    2    1    2    0    0 -0.17502310199E+00 -0.15134223399E+02 -0.40676137893E+02  0.47787267923E+02  0.19999985766E+02 0.  0.
        -12    1    1    2    0    0  0.17502310199E+00  0.15134223399E+02  0.40676137893E+02  0.43400732077E+02  0.00000000000E+00 0.  1.
         11    1    3    3    0    0  0.29960370129E+01 -0.56375532049E+00 -0.47322363283E+01  0.56292200856E+01  0.51100000000E-03 0. -1.
        -11    1    3    3    0    0  0.40545916937E+01  0.82597171017E+00 -0.30947737255E+01  0.51671624458E+01  0.51100000000E-03 0.  1.
         12    1    3    3    0    0 -0.72256518086E+01 -0.15396439789E+02 -0.32849127839E+02  0.36990885391E+02  0.00000000000E+00 0. -1.
</event>
<event>
 7    1  0.1400974E-009  0.4778727E+02  0.7816164E-02  0.1312668E+00
        -11   -1    0    0    0    0  0.00000000000E+00  0.00000000000E+00  0.45593999997E+02  0.45594000000E+02  0.51100000000E-03 0.  1.
         11   -1    0    0    0    0 -0.00000000000E+00 -0.00000000000E+00 -0.45593999997E+02  0.45594000000E+02  0.51100000000E-03 0. -1.
    9900012    2    1    2    0    0 -0.13972873331E+02  0.14171186776E+02 -0.38568893824E+02  0.47787270806E+02  0.19999998912E+02 0.  0.
        -12    1    1    2    0    0  0.13972873331E+02 -0.14171186776E+02  0.38568893824E+02  0.43400729194E+02  0.00000000000E+00 0.  1.
         11    1    3    3    0    0 -0.23145252309E+01  0.46589949376E+00 -0.21516220214E+02  0.21645364907E+02  0.51100000000E-03 0.  1.
        -11    1    3    3    0    0 -0.98722084202E+01  0.77906378578E+01 -0.15123779948E+02  0.19669348172E+02  0.51100000000E-03 0. -1.
        -12    1    3    3    0    0 -0.17861396799E+01  0.59146494245E+01 -0.19288936619E+01  0.64725577270E+01  0.00000000000E+00 0.  1.
</event>
<event>
 7    1  0.1400974E-009  0.4778727E+02  0.7816164E-02  0.1312668E+00
        -11   -1    0    0    0    0  0.00000000000E+00  0.00000000000E+00  0.45593999997E+02  0.45594000000E+02  0.51100000000E-03 0.  1.
         11   -1    0    0    0    0 -0.00000000000E+00 -0.00000000000E+00 -0.45593999997E+02  0.45594000000E+02  0.51100000000E-03 0. -1.
    9900012    2    1    2    0    0  0.22437946035E+02  0.28973872900E+02 -0.23252453642E+02  0.47787270358E+02  0.19999996869E+02 0.  0.
        -12    1    1    2    0    0 -0.22437946035E+02 -0.28973872900E+02  0.23252453642E+02  0.43400729642E+02  0.00000000000E+00 0.  1.
         11    1    3    3    0    0  0.43727731205E+01  0.98150653150E+01 -0.11408320115E+02  0.15671835247E+02  0.51100000000E-03 0. -1.
        -11    1    3    3    0    0  0.13565459271E+01  0.33088422336E+01  0.30402728239E+01  0.46938164519E+01  0.51100000000E-03 0.  1.
         12    1    3    3    0    0  0.16708626988E+02  0.15849965352E+02 -0.14884406350E+02  0.27421618659E+02  0.00000000000E+00 0. -1.
</event>
<event>
 7    1  0.1400974E-009  0.4778727E+02  0.7816164E-02  0.1312668E+00
        -11   -1    0    0    0    0  0.00000000000E+00  0.00000000000E+00  0.45593999997E+02  0.45594000000E+02  0.51100000000E-03 0.  1.
         11   -1    0    0    0    0 -0.00000000000E+00 -0.00000000000E+00 -0.45593999997E+02  0.45594000000E+02  0.51100000000E-03 0. -1.
    9900012    2    1    2    0    0 -0.91063776501E+00 -0.69479418807E+01 -0.42831299506E+02  0.47787269880E+02  0.19999994693E+02 0.  0.
        -12    1    1    2    0    0  0.91063776501E+00  0.69479418807E+01  0.42831299506E+02  0.43400730120E+02  0.00000000000E+00 0.  1.
         11    1    3    3    0    0 -0.23114470137E+01 -0.53852515855E+01 -0.88402688357E+01  0.10606322420E+02  0.51100000000E-03 0. -1.
        -11    1    3    3    0    0  0.75018501038E+01 -0.43746084862E+00 -0.26001110502E+02  0.27065233688E+02  0.51100000000E-03 0.  1.
        -12    1    3    3    0    0 -0.61010408551E+01 -0.11252294465E+01 -0.79899201683E+01  0.10115713772E+02  0.00000000000E+00 0.  1.
</event>
<event>
 7    1  0.1400974E-009  0.4778726E+02  0.7816164E-02  0.1312668E+00
        -11   -1    0    0    0    0  0.00000000000E+00  0.00000000000E+00  0.45593999997E+02  0.45594000000E+02  0.51100000000E-03 0.  1.
         11   -1    0    0    0    0 -0.00000000000E+00 -0.00000000000E+00 -0.45593999997E+02  0.45594000000E+02  0.51100000000E-03 0. -1.
    9900012    2    1    2    0    0  0.28735944797E+01  0.14302614374E+02 -0.40875439511E+02  0.47787264080E+02  0.19999968246E+02 0.  0.
        -12    1    1    2    0    0 -0.28735944797E+01 -0.14302614374E+02  0.40875439511E+02  0.43400735920E+02  0.00000000000E+00 0.  1.
         11    1    3    3    0    0 -0.98094211413E+00  0.13189150436E+02 -0.22766409187E+02  0.26329172494E+02  0.51100000000E-03 0. -1.
        -11    1    3    3    0    0  0.37561363824E+01  0.28587341647E+01 -0.17940088673E+01  0.50496920327E+01  0.51100000000E-03 0.  1.
         12    1    3    3    0    0  0.98400211409E-01 -0.17452702270E+01 -0.16315021457E+02  0.16408399554E+02  0.00000000000E+00 0. -1.
</event>
<event>
 7    1  0.1400974E-009  0.4778727E+02  0.7816164E-02  0.1312668E+00
        -11   -1    0    0    0    0  0.00000000000E+00  0.00000000000E+00  0.45593999997E+02  0.45594000000E+02  0.51100000000E-03 0.  1.
         11   -1    0    0    0    0 -0.00000000000E+00 -0.00000000000E+00 -0.45593999997E+02  0.45594000000E+02  0.51100000000E-03 0. -1.
    9900012    2    1    2    0    0 -0.41518765272E+02  0.11949070810E+02 -0.41273691590E+01  0.47787270293E+02  0.19999996574E+02 0.  0.
        -12    1    1    2    0    0  0.41518765272E+02 -0.11949070810E+02  0.41273691590E+01  0.43400729707E+02  0.00000000000E+00 0.  1.
         11    1    3    3    0    0 -0.64450044671E+01  0.93466489733E+01 -0.23403441495E+01  0.11592029184E+02  0.51100000000E-03 0. -1.
        -11    1    3    3    0    0 -0.90466544328E+01 -0.50678854024E+00  0.30100629235E+01  0.95477363870E+01  0.51100000000E-03 0.  1.
        -12    1    3    3    0    0 -0.26027106372E+02  0.31092103774E+01 -0.47970879330E+01  0.26647504722E+02  0.00000000000E+00 0.  1.
</event>
<event>
 7    1  0.1400974E-009  0.4778727E+02  0.7816164E-02  0.1312668E+00
        -11   -1    0    0    0    0  0.00000000000E+00  0.00000000000E+00  0.45593999997E+02  0.45594000000E+02  0.51100000000E-03 0. -1.
         11   -1    0    0    0    0 -0.00000000000E+00 -0.00000000000E+00 -0.45593999997E+02  0.45594000000E+02  0.51100000000E-03 0.  1.
    9900012    2    1    2    0    0 -0.16297103532E+02  0.39751355534E+02  0.61528320081E+01  0.47787271987E+02  0.20000004299E+02 0.  0.
        -12    1    1    2    0    0  0.16297103532E+02 -0.39751355534E+02 -0.61528320081E+01  0.43400728013E+02  0.00000000000E+00 0.  1.
         11    1    3    3    0    0 -0.33812018076E+01  0.15326583289E+01  0.34689616350E+01  0.50808721991E+01  0.51100000000E-03 0. -1.
        -11    1    3    3    0    0 -0.93665926108E+01  0.37053499166E+02  0.19861307792E+00  0.38219553961E+02  0.51100000000E-03 0.  1.
        -12    1    3    3    0    0 -0.35493091132E+01  0.11651980389E+01  0.24852572951E+01  0.44868458268E+01  0.00000000000E+00 0.  1.
</event>
<event>
 7    1  0.1400974E-009  0.4778725E+02  0.7816164E-02  0.1312668E+00
        -11   -1    0    0    0    0  0.00000000000E+00  0.00000000000E+00  0.45593999997E+02  0.45594000000E+02  0.51100000000E-03 0. -1.
         11   -1    0    0    0    0 -0.00000000000E+00 -0.00000000000E+00 -0.45593999997E+02  0.45594000000E+02  0.51100000000E-03 0.  1.
    9900012    2    1    2    0    0  0.26955653624E+02  0.32392545387E+02  0.10379844313E+02  0.47787246240E+02  0.19999886908E+02 0.  0.
        -12    1    1    2    0    0 -0.26955653624E+02 -0.32392545387E+02 -0.10379844313E+02  0.43400753760E+02  0.00000000000E+00 0.  1.
         11    1    3    3    0    0  0.12989063151E+02  0.11323393967E+02  0.95714094928E+01  0.19711592843E+02  0.51100000000E-03 0. -1.
        -11    1    3    3    0    0  0.19778800659E+01  0.13158990071E+02  0.27317554136E+01  0.13584311434E+02  0.51100000000E-03 0.  1.
         12    1    3    3    0    0  0.11988710407E+02  0.79101613493E+01 -0.19233205930E+01  0.14491341963E+02  0.00000000000E+00 0. -1.
</event>
<event>
 7    1  0.1400974E-009  0.4778727E+02  0.7816164E-02  0.1312668E+00
        -11   -1    0    0    0    0  0.00000000000E+00  0.00000000000E+00  0.45593999997E+02  0.45594000000E+02  0.51100000000E-03 0.  1.
         11   -1    0    0    0    0 -0.00000000000E+00 -0.00000000000E+00 -0.45593999997E+02  0.45594000000E+02  0.51100000000E-03 0. -1.
    9900012    2    1    2    0    0  0.39437736275E+02  0.15669155590E+02  0.90975803481E+01  0.47787269043E+02  0.19999990875E+02 0.  0.
        -12    1    1    2    0    0 -0.39437736275E+02 -0.15669155590E+02 -0.90975803481E+01  0.43400730957E+02  0.00000000000E+00 0.  1.
         11    1    3    3    0    0  0.10362106853E+01  0.37078588169E+01 -0.22803984117E+01  0.44746135886E+01  0.51100000000E-03 0. -1.
        -11    1    3    3    0    0  0.14655476207E+02 -0.88448195272E+00  0.55269116171E+01  0.15687958550E+02  0.51100000000E-03 0.  1.
         12    1    3    3    0    0  0.23746049383E+02  0.12845778726E+02  0.58510671426E+01  0.27624696905E+02  0.00000000000E+00 0. -1.
</event>
<event>
 7    1  0.1400974E-009  0.4778727E+02  0.7816164E-02  0.1312668E+00
        -11   -1    0    0    0    0  0.00000000000E+00  0.00000000000E+00  0.45593999997E+02  0.45594000000E+02  0.51100000000E-03 0. -1.
         11   -1    0    0    0    0 -0.00000000000E+00 -0.00000000000E+00 -0.45593999997E+02  0.45594000000E+02  0.51100000000E-03 0.  1.
    9900012    2    1    2    0    0  0.26463100376E+02  0.39435164430E+00  0.34397269415E+02  0.47787270306E+02  0.19999996633E+02 0.  0.
        -12    1    1    2    0    0 -0.26463100376E+02 -0.39435164430E+00 -0.34397269415E+02  0.43400729694E+02  0.00000000000E+00 0.  1.
         11    1    3    3    0    0  0.16812380117E+02 -0.38206358762E+01  0.19694990649E+02  0.26175294471E+02  0.51100000000E-03 0.  1.
        -11    1    3    3    0    0  0.78394463466E+01  0.45157962532E+01  0.16641321938E+02  0.18941566222E+02  0.51100000000E-03 0. -1.
         12    1    3    3    0    0  0.18112739128E+01 -0.30080873264E+00 -0.19390431722E+01  0.26704096136E+01  0.00000000000E+00 0. -1.
</event>
<event>
 7    1  0.1508618E-009  0.4778727E+02  0.7816164E-02  0.1312668E+00
        -11   -1    0    0    0    0  0.00000000000E+00  0.00000000000E+00  0.45593999997E+02  0.45594000000E+02  0.51100000000E-03 0.  1.
         11   -1    0    0    0    0 -0.00000000000E+00 -0.00000000000E+00 -0.45593999997E+02  0.45594000000E+02  0.51100000000E-03 0. -1.
    9900012    2    1    2    0    0 -0.39447638495E+02 -0.18406994754E+01 -0.18003301003E+02  0.47787271845E+02  0.20000003648E+02 0.  0.
        -12    1    1    2    0    0  0.39447638495E+02  0.18406994754E+01  0.18003301003E+02  0.43400728155E+02  0.00000000000E+00 0.  1.
         11    1    3    3    0    0 -0.25564711777E+02 -0.90728864774E+00 -0.15089181442E+02  0.29699512753E+02  0.51100000000E-03 0. -1.
        -11    1    3    3    0    0 -0.23170729672E+00 -0.85790977816E+00 -0.42771156902E+01  0.43684569756E+01  0.51100000000E-03 0.  1.
        -12    1    3    3    0    0 -0.13651219421E+02 -0.75501049474E-01  0.13629961286E+01  0.13719302116E+02  0.00000000000E+00 0.  1.
</event>
<event>
 7    1  0.1400974E-009  0.4778728E+02  0.7816164E-02  0.1312668E+00
        -11   -1    0    0    0    0  0.00000000000E+00  0.00000000000E+00  0.45593999997E+02  0.45594000000E+02  0.51100000000E-03 0.  1.
         11   -1    0    0    0    0 -0.00000000000E+00 -0.00000000000E+00 -0.45593999997E+02  0.45594000000E+02  0.51100000000E-03 0. -1.
    9900012    2    1    2    0    0  0.36978748056E+02  0.55445196627E+01 -0.22033006618E+02  0.47787275504E+02  0.20000020335E+02 0.  0.
        -12    1    1    2    0    0 -0.36978748056E+02 -0.55445196627E+01  0.22033006618E+02  0.43400724496E+02  0.00000000000E+00 0.  1.
         11    1    3    3    0    0  0.10784505547E+02 -0.53155869704E+01 -0.35989376665E+01  0.12550433352E+02  0.51100000000E-03 0. -1.
        -11    1    3    3    0    0  0.12787545759E+02  0.62262777967E+01 -0.35150683676E+01  0.14650719014E+02  0.51100000000E-03 0.  1.
         12    1    3    3    0    0  0.13406696751E+02  0.46338288364E+01 -0.14919000584E+02  0.20586123139E+02  0.00000000000E+00 0. -1.
</event>
<event>
 7    1  0.1400974E-009  0.4778728E+02  0.7816164E-02  0.1312668E+00
        -11   -1    0    0    0    0  0.00000000000E+00  0.00000000000E+00  0.45593999997E+02  0.45594000000E+02  0.51100000000E-03 0.  1.
         11   -1    0    0    0    0 -0.00000000000E+00 -0.00000000000E+00 -0.45593999997E+02  0.45594000000E+02  0.51100000000E-03 0. -1.
    9900012    2    1    2    0    0 -0.41653867585E+02 -0.10254445038E+02  0.65897254527E+01  0.47787276396E+02  0.20000024399E+02 0.  0.
        -12    1    1    2    0    0  0.41653867585E+02  0.10254445038E+02 -0.65897254527E+01  0.43400723604E+02  0.00000000000E+00 0.  1.
         11    1    3    3    0    0 -0.83554333953E+00 -0.34225944782E+01 -0.20018717237E+00  0.35287902742E+01  0.51100000000E-03 0. -1.
        -11    1    3    3    0    0 -0.24187984516E+02  0.26797077394E+01  0.60951809693E+01  0.25087659513E+02  0.51100000000E-03 0.  1.
         12    1    3    3    0    0 -0.16630339729E+02 -0.95115582991E+01  0.69473165574E+00  0.19170826609E+02  0.00000000000E+00 0. -1.
</event>
<event>
 7    1  0.1400974E-009  0.4778727E+02  0.7816164E-02  0.1312668E+00
        -11   -1    0    0    0    0  0.00000000000E+00  0.00000000000E+00  0.45593999997E+02  0.45594000000E+02  0.51100000000E-03 0.  1.
         11   -1    0    0    0    0 -0.00000000000E+00 -0.00000000000E+00 -0.45593999997E+02  0.45594000000E+02  0.51100000000E-03 0. -1.
    9900012    2    1    2    0    0 -0.31132849959E+02 -0.30060651446E+02 -0.32750955396E+01  0.47787270020E+02  0.19999995331E+02 0.  0.
        -12    1    1    2    0    0  0.31132849959E+02  0.30060651446E+02  0.32750955396E+01  0.43400729980E+02  0.00000000000E+00 0.  1.
         11    1    3    3    0    0 -0.23879509872E+02 -0.17666281147E+02 -0.61262082565E+01  0.30329175873E+02  0.51100000000E-03 0. -1.
        -11    1    3    3    0    0 -0.58447926775E+01 -0.98131728125E+01 -0.21824750994E+01  0.11628549347E+02  0.51100000000E-03 0.  1.
        -12    1    3    3    0    0 -0.14085474096E+01 -0.25811974871E+01  0.50335878163E+01  0.58295448001E+01  0.00000000000E+00 0.  1.
</event>
<event>
 7    1  0.1400974E-009  0.4778728E+02  0.7816164E-02  0.1312668E+00
        -11   -1    0    0    0    0  0.00000000000E+00  0.00000000000E+00  0.45593999997E+02  0.45594000000E+02  0.51100000000E-03 0. -1.
         11   -1    0    0    0    0 -0.00000000000E+00 -0.00000000000E+00 -0.45593999997E+02  0.45594000000E+02  0.51100000000E-03 0.  1.
    9900012    2    1    2    0    0 -0.19276195433E+02 -0.25822662772E+02  0.29073031491E+02  0.47787276698E+02  0.20000025779E+02 0.  0.
        -12    1    1    2    0    0  0.19276195433E+02  0.25822662772E+02 -0.29073031491E+02  0.43400723302E+02  0.00000000000E+00 0.  1.
         11    1    3    3    0    0  0.59663188494E+00  0.14212810805E+01  0.61089576407E+01  0.63004264327E+01  0.51100000000E-03 0. -1.
        -11    1    3    3    0    0 -0.28846375595E+01 -0.40833463459E+01  0.50366783556E+00  0.50247918146E+01  0.51100000000E-03 0.  1.
        -12    1    3    3    0    0 -0.16988189758E+02 -0.23160597507E+02  0.22460406015E+02  0.36462058451E+02  0.00000000000E+00 0.  1.
</event>
<event>
 7    1  0.1400974E-009  0.4778727E+02  0.7816164E-02  0.1312668E+00
        -11   -1    0    0    0    0  0.00000000000E+00  0.00000000000E+00  0.45593999997E+02  0.45594000000E+02  0.51100000000E-03 0.  1.
         11   -1    0    0    0    0 -0.00000000000E+00 -0.00000000000E+00 -0.45593999997E+02  0.45594000000E+02  0.51100000000E-03 0. -1.
    9900012    2    1    2    0    0  0.68304191581E+01 -0.17295707245E+02 -0.39215138933E+02  0.47787271475E+02  0.20000001963E+02 0.  0.
        -12    1    1    2    0    0 -0.68304191581E+01  0.17295707245E+02  0.39215138933E+02  0.43400728525E+02  0.00000000000E+00 0.  1.
         11    1    3    3    0    0  0.51177528548E+00 -0.29152553460E+01 -0.20790162754E+02  0.20999797506E+02  0.51100000000E-03 0. -1.
        -11    1    3    3    0    0  0.78512681357E+01 -0.37441602505E+01 -0.82633243401E+01  0.11997652968E+02  0.51100000000E-03 0.  1.
        -12    1    3    3    0    0 -0.15326242631E+01 -0.10636291649E+02 -0.10161651838E+02  0.14789821001E+02  0.00000000000E+00 0.  1.
</event>
<event>
 7    1  0.1400974E-009  0.4778727E+02  0.7816164E-02  0.1312668E+00
        -11   -1    0    0    0    0  0.00000000000E+00  0.00000000000E+00  0.45593999997E+02  0.45594000000E+02  0.51100000000E-03 0.  1.
         11   -1    0    0    0    0 -0.00000000000E+00 -0.00000000000E+00 -0.45593999997E+02  0.45594000000E+02  0.51100000000E-03 0. -1.
    9900012    2    1    2    0    0 -0.57076742228E+01  0.36613465751E+02 -0.22594245097E+02  0.47787270388E+02  0.19999997007E+02 0.  0.
        -12    1    1    2    0    0  0.57076742228E+01 -0.36613465751E+02  0.22594245097E+02  0.43400729612E+02  0.00000000000E+00 0.  1.
         11    1    3    3    0    0 -0.45709232451E+01  0.35346400296E+01 -0.37914093812E+01  0.69109915937E+01  0.51100000000E-03 0. -1.
        -11    1    3    3    0    0  0.59317515830E+00  0.26705195827E+02 -0.20933176348E+02  0.33936959398E+02  0.51100000000E-03 0.  1.
        -12    1    3    3    0    0 -0.17299261360E+01  0.63736298949E+01  0.21303406321E+01  0.69393193962E+01  0.00000000000E+00 0.  1.
</event>
<event>
 7    1  0.1400974E-009  0.4778727E+02  0.7816164E-02  0.1312668E+00
        -11   -1    0    0    0    0  0.00000000000E+00  0.00000000000E+00  0.45593999997E+02  0.45594000000E+02  0.51100000000E-03 0.  1.
         11   -1    0    0    0    0 -0.00000000000E+00 -0.00000000000E+00 -0.45593999997E+02  0.45594000000E+02  0.51100000000E-03 0. -1.
    9900012    2    1    2    0    0 -0.40892132779E+02  0.92661585478E+01 -0.11206921124E+02  0.47787270760E+02  0.19999998703E+02 0.  0.
        -12    1    1    2    0    0  0.40892132779E+02 -0.92661585478E+01  0.11206921124E+02  0.43400729240E+02  0.00000000000E+00 0.  1.
         11    1    3    3    0    0 -0.36987954051E+01  0.66934064417E+01 -0.12213578850E+01  0.77443200210E+01  0.51100000000E-03 0. -1.
        -11    1    3    3    0    0 -0.15919767309E+02  0.17513216389E+01 -0.97540490379E+01  0.18752268971E+02  0.51100000000E-03 0.  1.
        -12    1    3    3    0    0 -0.21273570065E+02  0.82143046716E+00 -0.23151420107E+00  0.21290681768E+02  0.00000000000E+00 0.  1.
</event>
<event>
 7    1  0.1400974E-009  0.4778727E+02  0.7816164E-02  0.1312668E+00
        -11   -1    0    0    0    0  0.00000000000E+00  0.00000000000E+00  0.45593999997E+02  0.45594000000E+02  0.51100000000E-03 0. -1.
         11   -1    0    0    0    0 -0.00000000000E+00 -0.00000000000E+00 -0.45593999997E+02  0.45594000000E+02  0.51100000000E-03 0.  1.
    9900012    2    1    2    0    0 -0.20319610099E+01  0.41710419633E+02  0.11820978423E+02  0.47787268412E+02  0.19999987997E+02 0.  0.
        -12    1    1    2    0    0  0.20319610099E+01 -0.41710419633E+02 -0.11820978423E+02  0.43400731588E+02  0.00000000000E+00 0.  1.
         11    1    3    3    0    0  0.42749491435E+01  0.10061973638E+02 -0.23619695470E+01  0.11184695082E+02  0.51100000000E-03 0. -1.
        -11    1    3    3    0    0 -0.61460457641E+01  0.11280504427E+02  0.23906680839E+01  0.13066711630E+02  0.51100000000E-03 0.  1.
         12    1    3    3    0    0 -0.16086438933E+00  0.20367941568E+02  0.11792279886E+02  0.23535861701E+02  0.00000000000E+00 0. -1.
</event>
<event>
 7    1  0.1400974E-009  0.4778727E+02  0.7816164E-02  0.1312668E+00
        -11   -1    0    0    0    0  0.00000000000E+00  0.00000000000E+00  0.45593999997E+02  0.45594000000E+02  0.51100000000E-03 0.  1.
         11   -1    0    0    0    0 -0.00000000000E+00 -0.00000000000E+00 -0.45593999997E+02  0.45594000000E+02  0.51100000000E-03 0. -1.
    9900012    2    1    2    0    0  0.85112154605E+01 -0.29315505860E+02 -0.30850992925E+02  0.47787269166E+02  0.19999991436E+02 0.  0.
        -12    1    1    2    0    0 -0.85112154605E+01  0.29315505860E+02  0.30850992925E+02  0.43400730834E+02  0.00000000000E+00 0.  1.
         11    1    3    3    0    0  0.19637758775E+01 -0.50667678234E+01 -0.16126427701E+01  0.56682597716E+01  0.51100000000E-03 0. -1.
        -11    1    3    3    0    0 -0.55273513006E+01 -0.89344599372E+01 -0.74607490437E+01  0.12885610708E+02  0.51100000000E-03 0.  1.
         12    1    3    3    0    0  0.12074790884E+02 -0.15314278100E+02 -0.21777601111E+02  0.29233398686E+02  0.00000000000E+00 0. -1.
</event>
<event>
 7    1  0.1400974E-009  0.4778727E+02  0.7816164E-02  0.1312668E+00
        -11   -1    0    0    0    0  0.00000000000E+00  0.00000000000E+00  0.45593999997E+02  0.45594000000E+02  0.51100000000E-03 0. -1.
         11   -1    0    0    0    0 -0.00000000000E+00 -0.00000000000E+00 -0.45593999997E+02  0.45594000000E+02  0.51100000000E-03 0.  1.
    9900012    2    1    2    0    0 -0.34267520766E+01 -0.56191755208E+01  0.42898784067E+02  0.47787269156E+02  0.19999991391E+02 0.  0.
        -12    1    1    2    0    0  0.34267520766E+01  0.56191755208E+01 -0.42898784067E+02  0.43400730844E+02  0.00000000000E+00 0.  1.
         11    1    3    3    0    0 -0.34207212686E+01 -0.21409252173E+01  0.30637105436E+00  0.40470678605E+01  0.51100000000E-03 0. -1.
        -11    1    3    3    0    0  0.17968389416E+01  0.17767712048E+01  0.38744853244E+01  0.46257089064E+01  0.51100000000E-03 0.  1.
        -12    1    3    3    0    0 -0.18028697496E+01 -0.52550215084E+01  0.38717927688E+02  0.39114492389E+02  0.00000000000E+00 0.  1.
</event>
<event>
 7    1  0.1400974E-009  0.4778727E+02  0.7816164E-02  0.1312668E+00
        -11   -1    0    0    0    0  0.00000000000E+00  0.00000000000E+00  0.45593999997E+02  0.45594000000E+02  0.51100000000E-03 0.  1.
         11   -1    0    0    0    0 -0.00000000000E+00 -0.00000000000E+00 -0.45593999997E+02  0.45594000000E+02  0.51100000000E-03 0. -1.
    9900012    2    1    2    0    0  0.13556108799E+02  0.13852347843E+02 -0.38832559176E+02  0.47787270989E+02  0.19999999748E+02 0.  0.
        -12    1    1    2    0    0 -0.13556108799E+02 -0.13852347843E+02  0.38832559176E+02  0.43400729011E+02  0.00000000000E+00 0.  1.
         11    1    3    3    0    0  0.46330878691E+01  0.82198898454E+00 -0.20913053416E+02  0.21435880494E+02  0.51100000000E-03 0. -1.
        -11    1    3    3    0    0 -0.15081881428E+01  0.70816610022E+01 -0.78578774591E+01  0.10685073348E+02  0.51100000000E-03 0.  1.
         12    1    3    3    0    0  0.10431209073E+02  0.59486978561E+01 -0.10061628300E+02  0.15666317147E+02  0.00000000000E+00 0. -1.
</event>
<event>
 7    1  0.1400974E-009  0.4778727E+02  0.7816164E-02  0.1312668E+00
        -11   -1    0    0    0    0  0.00000000000E+00  0.00000000000E+00  0.45593999997E+02  0.45594000000E+02  0.51100000000E-03 0.  1.
         11   -1    0    0    0    0 -0.00000000000E+00 -0.00000000000E+00 -0.45593999997E+02  0.45594000000E+02  0.51100000000E-03 0. -1.
    9900012    2    1    2    0    0 -0.36082357295E+01 -0.32668887512E+02 -0.28343383389E+02  0.47787274680E+02  0.20000016577E+02 0.  0.
        -12    1    1    2    0    0  0.36082357295E+01  0.32668887512E+02  0.28343383389E+02  0.43400725320E+02  0.00000000000E+00 0.  1.
         11    1    3    3    0    0  0.20590439200E+01 -0.94834683894E+01 -0.80711364277E+01  0.12622166139E+02  0.51100000000E-03 0. -1.
        -11    1    3    3    0    0 -0.82906489670E+01 -0.55923518699E+01 -0.31734451339E+01  0.10491902307E+02  0.51100000000E-03 0.  1.
        -12    1    3    3    0    0  0.26233693175E+01 -0.17593067253E+02 -0.17098801827E+02  0.24673206234E+02  0.00000000000E+00 0.  1.
</event>
<event>
 7    1  0.1400974E-009  0.4778728E+02  0.7816164E-02  0.1312668E+00
        -11   -1    0    0    0    0  0.00000000000E+00  0.00000000000E+00  0.45593999997E+02  0.45594000000E+02  0.51100000000E-03 0.  1.
         11   -1    0    0    0    0 -0.00000000000E+00 -0.00000000000E+00 -0.45593999997E+02  0.45594000000E+02  0.51100000000E-03 0. -1.
    9900012    2    1    2    0    0 -0.17246609127E+02 -0.27464275550E+02 -0.28842516136E+02  0.47787277714E+02  0.20000030410E+02 0.  0.
        -12    1    1    2    0    0  0.17246609127E+02  0.27464275550E+02  0.28842516136E+02  0.43400722286E+02  0.00000000000E+00 0.  1.
         11    1    3    3    0    0 -0.90966932982E+01 -0.27239475359E+02 -0.22693975065E+02  0.36602668636E+02  0.51100000000E-03 0. -1.
        -11    1    3    3    0    0 -0.49359513653E+00  0.12243966773E+01 -0.18876328687E+01  0.23034629344E+01  0.51100000000E-03 0.  1.
         12    1    3    3    0    0 -0.76563206927E+01 -0.14491968689E+01 -0.42609082019E+01  0.88811461434E+01  0.00000000000E+00 0. -1.
</event>
<event>
 7    1  0.1410768E-009  0.4778727E+02  0.7816164E-02  0.1312668E+00
        -11   -1    0    0    0    0  0.00000000000E+00  0.00000000000E+00  0.45593999997E+02  0.45594000000E+02  0.51100000000E-03 0. -1.
         11   -1    0    0    0    0 -0.00000000000E+00 -0.00000000000E+00 -0.45593999997E+02  0.45594000000E+02  0.51100000000E-03 0.  1.
    9900012    2    1    2    0    0  0.40980836834E+02 -0.21097784730E+01  0.14133052708E+02  0.47787270378E+02  0.19999996963E+02 0.  0.
        -12    1    1    2    0    0 -0.40980836834E+02  0.21097784730E+01 -0.14133052708E+02  0.43400729622E+02  0.00000000000E+00 0.  1.
         11    1    3    3    0    0  0.16266517557E+02 -0.14385260408E+01  0.65268638399E+01  0.17586042831E+02  0.51100000000E-03 0. -1.
        -11    1    3    3    0    0 -0.14472823560E+01 -0.92186453033E+00 -0.17164519210E+01  0.24270698154E+01  0.51100000000E-03 0.  1.
        -12    1    3    3    0    0  0.26161601634E+02  0.25061209812E+00  0.93226407888E+01  0.27774157732E+02  0.00000000000E+00 0.  1.
</event>
<event>
 7    1  0.1400974E-009  0.4778727E+02  0.7816164E-02  0.1312668E+00
        -11   -1    0    0    0    0  0.00000000000E+00  0.00000000000E+00  0.45593999997E+02  0.45594000000E+02  0.51100000000E-03 0.  1.
         11   -1    0    0    0    0 -0.00000000000E+00 -0.00000000000E+00 -0.45593999997E+02  0.45594000000E+02  0.51100000000E-03 0. -1.
    9900012    2    1    2    0    0 -0.10736142159E+02  0.29073901147E+01 -0.41951227572E+02  0.47787272350E+02  0.20000005952E+02 0.  0.
        -12    1    1    2    0    0  0.10736142159E+02 -0.29073901147E+01  0.41951227572E+02  0.43400727650E+02  0.00000000000E+00 0.  1.
         11    1    3    3    0    0 -0.10992790988E+02  0.59331383410E+01 -0.40557530242E+02  0.42437681886E+02  0.51100000000E-03 0. -1.
        -11    1    3    3    0    0  0.74295382534E+00 -0.19049823653E+01 -0.28125242410E+01  0.34772447521E+01  0.51100000000E-03 0.  1.
         12    1    3    3    0    0 -0.48630499629E+00 -0.11207658610E+01  0.14188269102E+01  0.18723457121E+01  0.00000000000E+00 0. -1.
</event>
<event>
 7    1  0.1400974E-009  0.4778727E+02  0.7816164E-02  0.1312668E+00
        -11   -1    0    0    0    0  0.00000000000E+00  0.00000000000E+00  0.45593999997E+02  0.45594000000E+02  0.51100000000E-03 0.  1.
         11   -1    0    0    0    0 -0.00000000000E+00 -0.00000000000E+00 -0.45593999997E+02  0.45594000000E+02  0.51100000000E-03 0. -1.
    9900012    2    1    2    0    0  0.67121354517E+00  0.69954521888E+01 -0.42827985582E+02  0.47787271573E+02  0.20000002411E+02 0.  0.
        -12    1    1    2    0    0 -0.67121354517E+00 -0.69954521888E+01  0.42827985582E+02  0.43400728427E+02  0.00000000000E+00 0.  1.
         11    1    3    3    0    0 -0.41559908887E+01 -0.15934179730E+00 -0.10007519369E+02  0.10837347196E+02  0.51100000000E-03 0. -1.
        -11    1    3    3    0    0  0.55291577824E+01  0.73371711115E+01 -0.81870384648E+01  0.12305822394E+02  0.51100000000E-03 0.  1.
         12    1    3    3    0    0 -0.70195334850E+00 -0.18237712545E+00 -0.24633427748E+02  0.24644101983E+02  0.00000000000E+00 0. -1.
</event>
<event>
 7    1  0.1400974E-009  0.4778727E+02  0.7816164E-02  0.1312668E+00
        -11   -1    0    0    0    0  0.00000000000E+00  0.00000000000E+00  0.45593999997E+02  0.45594000000E+02  0.51100000000E-03 0.  1.
         11   -1    0    0    0    0 -0.00000000000E+00 -0.00000000000E+00 -0.45593999997E+02  0.45594000000E+02  0.51100000000E-03 0. -1.
    9900012    2    1    2    0    0 -0.38344677704E+02 -0.19065819665E+02 -0.70571512136E+01  0.47787272230E+02  0.20000005406E+02 0.  0.
        -12    1    1    2    0    0  0.38344677704E+02  0.19065819665E+02  0.70571512136E+01  0.43400727770E+02  0.00000000000E+00 0.  1.
         11    1    3    3    0    0 -0.14930313623E+02 -0.73273899066E+00 -0.23944021043E+01  0.15138835259E+02  0.51100000000E-03 0. -1.
        -11    1    3    3    0    0 -0.76013273864E+01 -0.48136018958E+01 -0.74197049907E+01  0.11662030855E+02  0.51100000000E-03 0.  1.
        -12    1    3    3    0    0 -0.15813036695E+02 -0.13519478778E+02  0.27569558813E+01  0.20986406116E+02  0.00000000000E+00 0.  1.
</event>
<event>
 7    1  0.1400974E-009  0.4778728E+02  0.7816164E-02  0.1312668E+00
        -11   -1    0    0    0    0  0.00000000000E+00  0.00000000000E+00  0.45593999997E+02  0.45594000000E+02  0.51100000000E-03 0.  1.
         11   -1    0    0    0    0 -0.00000000000E+00 -0.00000000000E+00 -0.45593999997E+02  0.45594000000E+02  0.51100000000E-03 0. -1.
    9900012    2    1    2    0    0  0.69191790411E+01 -0.27959222990E+02 -0.32465823500E+02  0.47787275532E+02  0.20000020461E+02 0.  0.
        -12    1    1    2    0    0 -0.69191790411E+01  0.27959222990E+02  0.32465823500E+02  0.43400724468E+02  0.00000000000E+00 0.  1.
         11    1    3    3    0    0  0.88837236025E+01 -0.11242615751E+02 -0.19802607342E+02  0.24442999239E+02  0.51100000000E-03 0. -1.
        -11    1    3    3    0    0 -0.44373801823E+01 -0.14690965646E+02 -0.70581882909E+01  0.16891797912E+02  0.51100000000E-03 0.  1.
        -12    1    3    3    0    0  0.24728356209E+01 -0.20256415924E+01 -0.56050278672E+01  0.64524783813E+01  0.00000000000E+00 0.  1.
</event>
<event>
 7    1  0.1400974E-009  0.4778727E+02  0.7816164E-02  0.1312668E+00
        -11   -1    0    0    0    0  0.00000000000E+00  0.00000000000E+00  0.45593999997E+02  0.45594000000E+02  0.51100000000E-03 0. -1.
         11   -1    0    0    0    0 -0.00000000000E+00 -0.00000000000E+00 -0.45593999997E+02  0.45594000000E+02  0.51100000000E-03 0.  1.
    9900012    2    1    2    0    0  0.23673212305E+02  0.31879880389E+02 -0.17517863327E+02  0.47787270858E+02  0.19999999152E+02 0.  0.
        -12    1    1    2    0    0 -0.23673212305E+02 -0.31879880389E+02  0.17517863327E+02  0.43400729142E+02  0.00000000000E+00 0.  1.
         11    1    3    3    0    0  0.22874150934E+01  0.69007247585E+01  0.19189998392E+01  0.75189647323E+01  0.51100000000E-03 0. -1.
        -11    1    3    3    0    0  0.73066043844E+01  0.17417653763E+02 -0.13514286111E+02  0.23224923242E+02  0.51100000000E-03 0.  1.
         12    1    3    3    0    0  0.14079192827E+02  0.75615018677E+01 -0.59225770559E+01  0.17043382884E+02  0.00000000000E+00 0. -1.
</event>
<event>
 7    1  0.1400974E-009  0.4778728E+02  0.7816164E-02  0.1312668E+00
        -11   -1    0    0    0    0  0.00000000000E+00  0.00000000000E+00  0.45593999997E+02  0.45594000000E+02  0.51100000000E-03 0.  1.
         11   -1    0    0    0    0 -0.00000000000E+00 -0.00000000000E+00 -0.45593999997E+02  0.45594000000E+02  0.51100000000E-03 0. -1.
    9900012    2    1    2    0    0  0.21510852306E+02  0.32245843221E+02 -0.19522082843E+02  0.47787275461E+02  0.20000020138E+02 0.  0.
        -12    1    1    2    0    0 -0.21510852306E+02 -0.32245843221E+02  0.19522082843E+02  0.43400724539E+02  0.00000000000E+00 0.  1.
         11    1    3    3    0    0  0.36536205322E+01  0.47926089769E+01 -0.68213168748E+01  0.91021100832E+01  0.51100000000E-03 0. -1.
        -11    1    3    3    0    0  0.13830670907E+01  0.72650040935E+01  0.33099432132E+01  0.81023998538E+01  0.51100000000E-03 0.  1.
        -12    1    3    3    0    0  0.16474164683E+02  0.20188230150E+02 -0.16010709182E+02  0.30582765524E+02  0.00000000000E+00 0.  1.
</event>
<event>
 7    1  0.1400974E-009  0.4778727E+02  0.7816164E-02  0.1312668E+00
        -11   -1    0    0    0    0  0.00000000000E+00  0.00000000000E+00  0.45593999997E+02  0.45594000000E+02  0.51100000000E-03 0.  1.
         11   -1    0    0    0    0 -0.00000000000E+00 -0.00000000000E+00 -0.45593999997E+02  0.45594000000E+02  0.51100000000E-03 0. -1.
    9900012    2    1    2    0    0  0.30525684537E+02  0.12087521212E+02 -0.28384819504E+02  0.47787267704E+02  0.19999984770E+02 0.  0.
        -12    1    1    2    0    0 -0.30525684537E+02 -0.12087521212E+02  0.28384819504E+02  0.43400732296E+02  0.00000000000E+00 0.  1.
         11    1    3    3    0    0  0.74436895460E+01  0.80054070594E+01 -0.12624205242E+02  0.16699269879E+02  0.51100000000E-03 0. -1.
        -11    1    3    3    0    0  0.17338225263E+02  0.62059335968E+00 -0.16975376825E+02  0.24272672082E+02  0.51100000000E-03 0.  1.
         12    1    3    3    0    0  0.57437697279E+01  0.34615207934E+01  0.12147625630E+01  0.68153257424E+01  0.00000000000E+00 0. -1.
</event>
<event>
 7    1  0.1400974E-009  0.4778728E+02  0.7816164E-02  0.1312668E+00
        -11   -1    0    0    0    0  0.00000000000E+00  0.00000000000E+00  0.45593999997E+02  0.45594000000E+02  0.51100000000E-03 0.  1.
         11   -1    0    0    0    0 -0.00000000000E+00 -0.00000000000E+00 -0.45593999997E+02  0.45594000000E+02  0.51100000000E-03 0. -1.
    9900012    2    1    2    0    0 -0.28088279856E+02 -0.32595345545E+02  0.56757957152E+01  0.47787277962E+02  0.20000031538E+02 0.  0.
        -12    1    1    2    0    0  0.28088279856E+02  0.32595345545E+02 -0.56757957152E+01  0.43400722038E+02  0.00000000000E+00 0.  1.
         11    1    3    3    0    0 -0.58875194739E+01 -0.11185347260E+02  0.36780500512E+01  0.13164457122E+02  0.51100000000E-03 0. -1.
        -11    1    3    3    0    0 -0.20417217779E+01 -0.11738577398E+02 -0.14385398499E+01  0.12001342605E+02  0.51100000000E-03 0.  1.
         12    1    3    3    0    0 -0.20159038604E+02 -0.96714208870E+01  0.34362855139E+01  0.22621478235E+02  0.00000000000E+00 0. -1.
</event>
<event>
 7    1  0.1400974E-009  0.4778727E+02  0.7816164E-02  0.1312668E+00
        -11   -1    0    0    0    0  0.00000000000E+00  0.00000000000E+00  0.45593999997E+02  0.45594000000E+02  0.51100000000E-03 0.  1.
         11   -1    0    0    0    0 -0.00000000000E+00 -0.00000000000E+00 -0.45593999997E+02  0.45594000000E+02  0.51100000000E-03 0. -1.
    9900012    2    1    2    0    0  0.81514244430E+01 -0.22194632859E+02 -0.36394720871E+02  0.47787272408E+02  0.20000006219E+02 0.  0.
        -12    1    1    2    0    0 -0.81514244430E+01  0.22194632859E+02  0.36394720871E+02  0.43400727592E+02  0.00000000000E+00 0.  1.
         11    1    3    3    0    0  0.89765567703E+01 -0.19084701366E+02 -0.37154396381E+02  0.42722986417E+02  0.51100000000E-03 0. -1.
        -11    1    3    3    0    0  0.14777193068E+01 -0.18951894125E+01  0.34319782837E+00  0.24275877470E+01  0.51100000000E-03 0.  1.
         12    1    3    3    0    0 -0.23028516341E+01 -0.12147420811E+01  0.41647768204E+00  0.26366982444E+01  0.00000000000E+00 0. -1.
</event>
<event>
 7    1  0.1400974E-009  0.4778727E+02  0.7816164E-02  0.1312668E+00
        -11   -1    0    0    0    0  0.00000000000E+00  0.00000000000E+00  0.45593999997E+02  0.45594000000E+02  0.51100000000E-03 0.  1.
         11   -1    0    0    0    0 -0.00000000000E+00 -0.00000000000E+00 -0.45593999997E+02  0.45594000000E+02  0.51100000000E-03 0. -1.
    9900012    2    1    2    0    0  0.20874859760E+02  0.35722623959E+02 -0.13105625010E+02  0.47787273746E+02  0.20000012316E+02 0.  0.
        -12    1    1    2    0    0 -0.20874859760E+02 -0.35722623959E+02  0.13105625010E+02  0.43400726254E+02  0.00000000000E+00 0.  1.
         11    1    3    3    0    0  0.21019637982E+02  0.33651968599E+02 -0.10864921592E+02  0.41137898499E+02  0.51100000000E-03 0. -1.
        -11    1    3    3    0    0 -0.91641580392E+00  0.30776517842E+01  0.83867375116E+00  0.33189052943E+01  0.51100000000E-03 0.  1.
        -12    1    3    3    0    0  0.77163758257E+00 -0.10069964243E+01 -0.30793771687E+01  0.33304699524E+01  0.00000000000E+00 0.  1.
</event>
<event>
 7    1  0.1400974E-009  0.4778727E+02  0.7816164E-02  0.1312668E+00
        -11   -1    0    0    0    0  0.00000000000E+00  0.00000000000E+00  0.45593999997E+02  0.45594000000E+02  0.51100000000E-03 0. -1.
         11   -1    0    0    0    0 -0.00000000000E+00 -0.00000000000E+00 -0.45593999997E+02  0.45594000000E+02  0.51100000000E-03 0.  1.
    9900012    2    1    2    0    0  0.27550561559E+02 -0.21321376689E+01  0.33467055848E+02  0.47787270970E+02  0.19999999659E+02 0.  0.
        -12    1    1    2    0    0 -0.27550561559E+02  0.21321376689E+01 -0.33467055848E+02  0.43400729030E+02  0.00000000000E+00 0.  1.
         11    1    3    3    0    0  0.63936222503E+01 -0.48519745781E+01  0.20644741279E+01  0.82874674341E+01  0.51100000000E-03 0. -1.
        -11    1    3    3    0    0  0.21094214565E+01  0.30476572046E+01  0.10899421230E+02  0.11512395785E+02  0.51100000000E-03 0.  1.
         12    1    3    3    0    0  0.19047517852E+02 -0.32782029540E+00  0.20503160490E+02  0.27987407750E+02  0.00000000000E+00 0. -1.
</event>
<event>
 7    1  0.1400974E-009  0.4778727E+02  0.7816164E-02  0.1312668E+00
        -11   -1    0    0    0    0  0.00000000000E+00  0.00000000000E+00  0.45593999997E+02  0.45594000000E+02  0.51100000000E-03 0.  1.
         11   -1    0    0    0    0 -0.00000000000E+00 -0.00000000000E+00 -0.45593999997E+02  0.45594000000E+02  0.51100000000E-03 0. -1.
    9900012    2    1    2    0    0 -0.33379553492E+02  0.13201892810E+02 -0.24395460863E+02  0.47787273326E+02  0.20000010403E+02 0.  0.
        -12    1    1    2    0    0  0.33379553492E+02 -0.13201892810E+02  0.24395460863E+02  0.43400726674E+02  0.00000000000E+00 0.  1.
         11    1    3    3    0    0 -0.86067054536E+01  0.35166613728E+01 -0.13096168820E+02  0.16060881794E+02  0.51100000000E-03 0. -1.
        -11    1    3    3    0    0 -0.29963277510E+01  0.10780382458E+01  0.29290830343E+01  0.43266238724E+01  0.51100000000E-03 0.  1.
         12    1    3    3    0    0 -0.21776520288E+02  0.86071931911E+01 -0.14228375077E+02  0.27399767659E+02  0.00000000000E+00 0. -1.
</event>
<event>
 7    1  0.1400974E-009  0.4778727E+02  0.7816164E-02  0.1312668E+00
        -11   -1    0    0    0    0  0.00000000000E+00  0.00000000000E+00  0.45593999997E+02  0.45594000000E+02  0.51100000000E-03 0.  1.
         11   -1    0    0    0    0 -0.00000000000E+00 -0.00000000000E+00 -0.45593999997E+02  0.45594000000E+02  0.51100000000E-03 0. -1.
    9900012    2    1    2    0    0  0.61345552089E+01  0.42696409017E+02  0.47965808333E+01  0.47787270763E+02  0.19999998718E+02 0.  0.
        -12    1    1    2    0    0 -0.61345552089E+01 -0.42696409017E+02 -0.47965808333E+01  0.43400729237E+02  0.00000000000E+00 0.  1.
         11    1    3    3    0    0  0.30893011478E+01  0.16413775033E+02  0.89438475666E+01  0.18945928374E+02  0.51100000000E-03 0. -1.
        -11    1    3    3    0    0  0.53475289440E+01  0.21536824075E+02 -0.97089988270E-01  0.22190995556E+02  0.51100000000E-03 0.  1.
        -12    1    3    3    0    0 -0.23022748829E+01  0.47458099097E+01 -0.40501767450E+01  0.66503468332E+01  0.00000000000E+00 0.  1.
</event>
<event>
 7    1  0.1400974E-009  0.4778728E+02  0.7816164E-02  0.1312668E+00
        -11   -1    0    0    0    0  0.00000000000E+00  0.00000000000E+00  0.45593999997E+02  0.45594000000E+02  0.51100000000E-03 0. -1.
         11   -1    0    0    0    0 -0.00000000000E+00 -0.00000000000E+00 -0.45593999997E+02  0.45594000000E+02  0.51100000000E-03 0.  1.
    9900012    2    1    2    0    0 -0.16874757415E+02 -0.23588247411E+02  0.32287146236E+02  0.47787278050E+02  0.20000031941E+02 0.  0.
        -12    1    1    2    0    0  0.16874757415E+02  0.23588247411E+02 -0.32287146236E+02  0.43400721950E+02  0.00000000000E+00 0.  1.
         11    1    3    3    0    0 -0.15642364118E+02 -0.25932621351E+02  0.28943854603E+02  0.41891898081E+02  0.51100000000E-03 0. -1.
        -11    1    3    3    0    0 -0.26399859407E+01  0.81377457937E+00  0.16870073458E+01  0.32369351058E+01  0.51100000000E-03 0.  1.
         12    1    3    3    0    0  0.14075926429E+01  0.15305993604E+01  0.16562842865E+01  0.26584448627E+01  0.00000000000E+00 0. -1.
</event>
<event>
 7    1  0.1400974E-009  0.4778725E+02  0.7816164E-02  0.1312668E+00
        -11   -1    0    0    0    0  0.00000000000E+00  0.00000000000E+00  0.45593999997E+02  0.45594000000E+02  0.51100000000E-03 0.  1.
         11   -1    0    0    0    0 -0.00000000000E+00 -0.00000000000E+00 -0.45593999997E+02  0.45594000000E+02  0.51100000000E-03 0. -1.
    9900012    2    1    2    0    0 -0.67609823316E+01  0.12361027179E+01 -0.42853074567E+02  0.47787253096E+02  0.19999918165E+02 0.  0.
        -12    1    1    2    0    0  0.67609823316E+01 -0.12361027179E+01  0.42853074567E+02  0.43400746904E+02  0.00000000000E+00 0.  1.
         11    1    3    3    0    0  0.30238802225E+01  0.22658084439E+01 -0.49330022012E+01  0.62138756411E+01  0.51100000000E-03 0. -1.
        -11    1    3    3    0    0 -0.83091935507E+01  0.55578563893E+01 -0.18734246094E+02  0.21234510639E+02  0.51100000000E-03 0.  1.
         12    1    3    3    0    0 -0.14756690033E+01 -0.65875621152E+01 -0.19185826272E+02  0.20338866816E+02  0.00000000000E+00 0. -1.
</event>
<event>
 7    1  0.1400974E-009  0.4778727E+02  0.7816164E-02  0.1312668E+00
        -11   -1    0    0    0    0  0.00000000000E+00  0.00000000000E+00  0.45593999997E+02  0.45594000000E+02  0.51100000000E-03 0.  1.
         11   -1    0    0    0    0 -0.00000000000E+00 -0.00000000000E+00 -0.45593999997E+02  0.45594000000E+02  0.51100000000E-03 0. -1.
    9900012    2    1    2    0    0  0.36330648897E+02 -0.10873794215E+02 -0.21106109110E+02  0.47787270839E+02  0.19999999065E+02 0.  0.
        -12    1    1    2    0    0 -0.36330648897E+02  0.10873794215E+02  0.21106109110E+02  0.43400729161E+02  0.00000000000E+00 0.  1.
         11    1    3    3    0    0  0.10959059107E+02 -0.99559029113E+00 -0.11144369366E+02  0.15661709529E+02  0.51100000000E-03 0. -1.
        -11    1    3    3    0    0  0.93565035246E+01  0.13283067070E+01  0.13431202529E+01  0.95452883240E+01  0.51100000000E-03 0.  1.
        -12    1    3    3    0    0  0.16015086266E+02 -0.11206510630E+02 -0.11304859996E+02  0.22580272987E+02  0.00000000000E+00 0.  1.
</event>
<event>
 7    1  0.1400974E-009  0.4778727E+02  0.7816164E-02  0.1312668E+00
        -11   -1    0    0    0    0  0.00000000000E+00  0.00000000000E+00  0.45593999997E+02  0.45594000000E+02  0.51100000000E-03 0. -1.
         11   -1    0    0    0    0 -0.00000000000E+00 -0.00000000000E+00 -0.45593999997E+02  0.45594000000E+02  0.51100000000E-03 0.  1.
    9900012    2    1    2    0    0  0.28426879720E+02 -0.30688136209E+02 -0.11566061965E+02  0.47787274384E+02  0.20000015228E+02 0.  0.
        -12    1    1    2    0    0 -0.28426879720E+02  0.30688136209E+02  0.11566061965E+02  0.43400725616E+02  0.00000000000E+00 0.  1.
         11    1    3    3    0    0  0.25525865460E+02 -0.27862660852E+02 -0.11742901267E+02  0.39570107501E+02  0.51100000000E-03 0. -1.
        -11    1    3    3    0    0 -0.70904118262E+00 -0.36518677529E+01 -0.16712423079E+01  0.40782261580E+01  0.51100000000E-03 0.  1.
         12    1    3    3    0    0  0.36100554426E+01  0.82639239583E+00  0.18480816095E+01  0.41389407251E+01  0.00000000000E+00 0. -1.
</event>
<event>
 7    1  0.1400974E-009  0.4778727E+02  0.7816164E-02  0.1312668E+00
        -11   -1    0    0    0    0  0.00000000000E+00  0.00000000000E+00  0.45593999997E+02  0.45594000000E+02  0.51100000000E-03 0. -1.
         11   -1    0    0    0    0 -0.00000000000E+00 -0.00000000000E+00 -0.45593999997E+02  0.45594000000E+02  0.51100000000E-03 0.  1.
    9900012    2    1    2    0    0  0.15250625370E+02  0.11221217357E+02  0.39052866463E+02  0.47787266457E+02  0.19999979083E+02 0.  0.
        -12    1    1    2    0    0 -0.15250625370E+02 -0.11221217357E+02 -0.39052866463E+02  0.43400733543E+02  0.00000000000E+00 0.  1.
         11    1    3    3    0    0  0.87197620973E+01 -0.44431502406E+00  0.17219712482E+02  0.19306738852E+02  0.51100000000E-03 0. -1.
        -11    1    3    3    0    0 -0.32169106870E+01  0.21122829350E+00  0.44242176822E+01  0.54741971211E+01  0.51100000000E-03 0.  1.
        -12    1    3    3    0    0  0.97477739594E+01  0.11454304087E+02  0.17408936299E+02  0.23006330484E+02  0.00000000000E+00 0.  1.
</event>
<event>
 7    1  0.1400974E-009  0.4778727E+02  0.7816164E-02  0.1312668E+00
        -11   -1    0    0    0    0  0.00000000000E+00  0.00000000000E+00  0.45593999997E+02  0.45594000000E+02  0.51100000000E-03 0.  1.
         11   -1    0    0    0    0 -0.00000000000E+00 -0.00000000000E+00 -0.45593999997E+02  0.45594000000E+02  0.51100000000E-03 0. -1.
    9900012    2    1    2    0    0 -0.83347095880E+01  0.22490854930E+02 -0.36170665254E+02  0.47787274610E+02  0.20000016259E+02 0.  0.
        -12    1    1    2    0    0  0.83347095880E+01 -0.22490854930E+02  0.36170665254E+02  0.43400725390E+02  0.00000000000E+00 0.  1.
         11    1    3    3    0    0 -0.35088491815E+01  0.16707033386E+02 -0.22888264806E+02  0.28553627672E+02  0.51100000000E-03 0. -1.
        -11    1    3    3    0    0 -0.45955416183E+01  0.71844650970E+01 -0.32902624047E+01  0.91411907565E+01  0.51100000000E-03 0.  1.
         12    1    3    3    0    0 -0.23031878824E+00 -0.14006435525E+01 -0.99921380438E+01  0.10092456182E+02  0.00000000000E+00 0. -1.
</event>
<event>
 7    1  0.1508338E-009  0.4778727E+02  0.7816164E-02  0.1312668E+00
        -11   -1    0    0    0    0  0.00000000000E+00  0.00000000000E+00  0.45593999997E+02  0.45594000000E+02  0.51100000000E-03 0. -1.
         11   -1    0    0    0    0 -0.00000000000E+00 -0.00000000000E+00 -0.45593999997E+02  0.45594000000E+02  0.51100000000E-03 0.  1.
    9900012    2    1    2    0    0 -0.38802493807E+02 -0.16900700618E+01  0.19368355917E+02  0.47787273355E+02  0.20000010533E+02 0.  0.
        -12    1    1    2    0    0  0.38802493807E+02  0.16900700618E+01 -0.19368355917E+02  0.43400726645E+02  0.00000000000E+00 0.  1.
         11    1    3    3    0    0 -0.12298441565E+02 -0.30300815124E+01  0.75163437385E+01  0.14728492196E+02  0.51100000000E-03 0. -1.
        -11    1    3    3    0    0 -0.15836207453E+02  0.28246104580E+01 -0.12067514393E+01  0.16131340305E+02  0.51100000000E-03 0.  1.
        -12    1    3    3    0    0 -0.10667844788E+02 -0.14845990074E+01  0.13058763618E+02  0.16927440854E+02  0.00000000000E+00 0.  1.
</event>
<event>
 7    1  0.1400974E-009  0.4778727E+02  0.7816164E-02  0.1312668E+00
        -11   -1    0    0    0    0  0.00000000000E+00  0.00000000000E+00  0.45593999997E+02  0.45594000000E+02  0.51100000000E-03 0.  1.
         11   -1    0    0    0    0 -0.00000000000E+00 -0.00000000000E+00 -0.45593999997E+02  0.45594000000E+02  0.51100000000E-03 0. -1.
    9900012    2    1    2    0    0 -0.35846886503E+02  0.18073404053E+02 -0.16491705046E+02  0.47787267963E+02  0.19999985950E+02 0.  0.
        -12    1    1    2    0    0  0.35846886503E+02 -0.18073404053E+02  0.16491705046E+02  0.43400732037E+02  0.00000000000E+00 0.  1.
         11    1    3    3    0    0 -0.28414924600E+02  0.44857267275E+01 -0.97432761729E+01  0.30372044962E+02  0.51100000000E-03 0.  1.
        -11    1    3    3    0    0 -0.31396417893E+01  0.21593457282E+01 -0.21114900399E+01  0.43564337466E+01  0.51100000000E-03 0. -1.
        -12    1    3    3    0    0 -0.42923201134E+01  0.11428331597E+02 -0.46369388330E+01  0.13058789255E+02  0.00000000000E+00 0.  1.
</event>
<event>
 7    1  0.1400974E-009  0.4778727E+02  0.7816164E-02  0.1312668E+00
        -11   -1    0    0    0    0  0.00000000000E+00  0.00000000000E+00  0.45593999997E+02  0.45594000000E+02  0.51100000000E-03 0. -1.
         11   -1    0    0    0    0 -0.00000000000E+00 -0.00000000000E+00 -0.45593999997E+02  0.45594000000E+02  0.51100000000E-03 0.  1.
    9900012    2    1    2    0    0  0.35510857348E+01 -0.76036789988E+01  0.42581654389E+02  0.47787269191E+02  0.19999991551E+02 0.  0.
        -12    1    1    2    0    0 -0.35510857348E+01  0.76036789988E+01 -0.42581654389E+02  0.43400730809E+02  0.00000000000E+00 0.  1.
         11    1    3    3    0    0 -0.33363765537E+01  0.62139785296E+00  0.19841375368E+02  0.20129523605E+02  0.51100000000E-03 0. -1.
        -11    1    3    3    0    0 -0.17879354769E+01 -0.37306707746E+01  0.13826356754E+02  0.14432004679E+02  0.51100000000E-03 0.  1.
        -12    1    3    3    0    0  0.86753977654E+01 -0.44944060771E+01  0.89139222669E+01  0.13225740908E+02  0.00000000000E+00 0.  1.
</event>
<event>
 7    1  0.1400974E-009  0.4778727E+02  0.7816164E-02  0.1312668E+00
        -11   -1    0    0    0    0  0.00000000000E+00  0.00000000000E+00  0.45593999997E+02  0.45594000000E+02  0.51100000000E-03 0. -1.
         11   -1    0    0    0    0 -0.00000000000E+00 -0.00000000000E+00 -0.45593999997E+02  0.45594000000E+02  0.51100000000E-03 0.  1.
    9900012    2    1    2    0    0  0.19322402046E+02 -0.37659242954E+02  0.95942511870E+01  0.47787268941E+02  0.19999990408E+02 0.  0.
        -12    1    1    2    0    0 -0.19322402046E+02  0.37659242954E+02 -0.95942511870E+01  0.43400731059E+02  0.00000000000E+00 0.  1.
         11    1    3    3    0    0  0.18846954459E+01 -0.13796317488E+02  0.29789685004E+01  0.14239547280E+02  0.51100000000E-03 0. -1.
        -11    1    3    3    0    0  0.14771179745E+02 -0.97559958379E+01 -0.89798764735E-01  0.17702408591E+02  0.51100000000E-03 0.  1.
        -12    1    3    3    0    0  0.26665268544E+01 -0.14106929628E+02  0.67050814514E+01  0.15845313069E+02  0.00000000000E+00 0.  1.
</event>
<event>
 7    1  0.1400974E-009  0.4778728E+02  0.7816164E-02  0.1312668E+00
        -11   -1    0    0    0    0  0.00000000000E+00  0.00000000000E+00  0.45593999997E+02  0.45594000000E+02  0.51100000000E-03 0.  1.
         11   -1    0    0    0    0 -0.00000000000E+00 -0.00000000000E+00 -0.45593999997E+02  0.45594000000E+02  0.51100000000E-03 0. -1.
    9900012    2    1    2    0    0 -0.17185261362E+02 -0.11800709349E+02 -0.38066161499E+02  0.47787278802E+02  0.20000035372E+02 0.  0.
        -12    1    1    2    0    0  0.17185261362E+02  0.11800709349E+02  0.38066161499E+02  0.43400721198E+02  0.00000000000E+00 0.  1.
         11    1    3    3    0    0 -0.12058230540E+02 -0.11199265112E+01 -0.14031488590E+02  0.18534773574E+02  0.51100000000E-03 0. -1.
        -11    1    3    3    0    0 -0.75843511575E+01 -0.24985466390E+01 -0.96881219818E+01  0.12554872583E+02  0.51100000000E-03 0.  1.
        -12    1    3    3    0    0  0.24573203354E+01 -0.81822361983E+01 -0.14346550927E+02  0.16697632645E+02  0.00000000000E+00 0.  1.
</event>
<event>
 7    1  0.1400974E-009  0.4778727E+02  0.7816164E-02  0.1312668E+00
        -11   -1    0    0    0    0  0.00000000000E+00  0.00000000000E+00  0.45593999997E+02  0.45594000000E+02  0.51100000000E-03 0.  1.
         11   -1    0    0    0    0 -0.00000000000E+00 -0.00000000000E+00 -0.45593999997E+02  0.45594000000E+02  0.51100000000E-03 0. -1.
    9900012    2    1    2    0    0 -0.32976146966E+02 -0.24470827147E+02  0.14049044538E+02  0.47787270716E+02  0.19999998501E+02 0.  0.
        -12    1    1    2    0    0  0.32976146966E+02  0.24470827147E+02 -0.14049044538E+02  0.43400729284E+02  0.00000000000E+00 0.  1.
         11    1    3    3    0    0 -0.15672719243E+02 -0.51222035602E+01  0.22368138270E+01  0.16639544289E+02  0.51100000000E-03 0. -1.
        -11    1    3    3    0    0 -0.18595612250E+02 -0.15787250572E+02  0.12315465410E+02  0.27325899146E+02  0.51100000000E-03 0.  1.
        -12    1    3    3    0    0  0.12921845275E+01 -0.35613730146E+01 -0.50323469922E+00  0.38218272808E+01  0.00000000000E+00 0.  1.
</event>
<event>
 7    1  0.1400974E-009  0.4778727E+02  0.7816164E-02  0.1312668E+00
        -11   -1    0    0    0    0  0.00000000000E+00  0.00000000000E+00  0.45593999997E+02  0.45594000000E+02  0.51100000000E-03 0.  1.
         11   -1    0    0    0    0 -0.00000000000E+00 -0.00000000000E+00 -0.45593999997E+02  0.45594000000E+02  0.51100000000E-03 0. -1.
    9900012    2    1    2    0    0  0.10989325543E+02  0.37912609432E+01 -0.41814878015E+02  0.47787274674E+02  0.20000016548E+02 0.  0.
        -12    1    1    2    0    0 -0.10989325543E+02 -0.37912609432E+01  0.41814878015E+02  0.43400725326E+02  0.00000000000E+00 0.  1.
         11    1    3    3    0    0  0.62205897492E+01 -0.35887967280E+01 -0.44118492056E+01  0.84285000123E+01  0.51100000000E-03 0. -1.
        -11    1    3    3    0    0  0.21370758621E+00  0.70049665261E+01 -0.15909616597E+02  0.17384795872E+02  0.51100000000E-03 0.  1.
        -12    1    3    3    0    0  0.45550282076E+01  0.37509114506E+00 -0.21493412212E+02  0.21973978790E+02  0.00000000000E+00 0.  1.
</event>
<event>
 7    1  0.1400974E-009  0.4778727E+02  0.7816164E-02  0.1312668E+00
        -11   -1    0    0    0    0  0.00000000000E+00  0.00000000000E+00  0.45593999997E+02  0.45594000000E+02  0.51100000000E-03 0.  1.
         11   -1    0    0    0    0 -0.00000000000E+00 -0.00000000000E+00 -0.45593999997E+02  0.45594000000E+02  0.51100000000E-03 0. -1.
    9900012    2    1    2    0    0  0.78287053614E+01 -0.39427604079E+02 -0.16364546083E+02  0.47787274665E+02  0.20000016508E+02 0.  0.
        -12    1    1    2    0    0 -0.78287053614E+01  0.39427604079E+02  0.16364546083E+02  0.43400725335E+02  0.00000000000E+00 0.  1.
         11    1    3    3    0    0  0.12954637814E+02 -0.18476350221E+02 -0.90562329817E+01  0.24314882572E+02  0.51100000000E-03 0. -1.
        -11    1    3    3    0    0 -0.22396291266E+01 -0.56371589297E+01 -0.46962912032E+01  0.76712874246E+01  0.51100000000E-03 0.  1.
         12    1    3    3    0    0 -0.28863033259E+01 -0.15314094928E+02 -0.26120218984E+01  0.15801104669E+02  0.00000000000E+00 0. -1.
</event>
<event>
 7    1  0.1400974E-009  0.4778727E+02  0.7816164E-02  0.1312668E+00
        -11   -1    0    0    0    0  0.00000000000E+00  0.00000000000E+00  0.45593999997E+02  0.45594000000E+02  0.51100000000E-03 0.  1.
         11   -1    0    0    0    0 -0.00000000000E+00 -0.00000000000E+00 -0.45593999997E+02  0.45594000000E+02  0.51100000000E-03 0. -1.
    9900012    2    1    2    0    0  0.20753395326E+02 -0.20974513048E+02 -0.31827498967E+02  0.47787270678E+02  0.19999998330E+02 0.  0.
        -12    1    1    2    0    0 -0.20753395326E+02  0.20974513048E+02  0.31827498967E+02  0.43400729322E+02  0.00000000000E+00 0.  1.
         11    1    3    3    0    0  0.12019186441E+02 -0.74607317614E+01 -0.18667991847E+02  0.23422580579E+02  0.51100000000E-03 0. -1.
        -11    1    3    3    0    0  0.11081332790E+02 -0.11544448963E+02 -0.69617307791E+01  0.17450957967E+02  0.51100000000E-03 0.  1.
         12    1    3    3    0    0 -0.23471239046E+01 -0.19693323238E+01 -0.61977763408E+01  0.69137321322E+01  0.00000000000E+00 0. -1.
</event>
<event>
 7    1  0.1400974E-009  0.4778727E+02  0.7816164E-02  0.1312668E+00
        -11   -1    0    0    0    0  0.00000000000E+00  0.00000000000E+00  0.45593999997E+02  0.45594000000E+02  0.51100000000E-03 0.  1.
         11   -1    0    0    0    0 -0.00000000000E+00 -0.00000000000E+00 -0.45593999997E+02  0.45594000000E+02  0.51100000000E-03 0. -1.
    9900012    2    1    2    0    0 -0.12492126610E+02 -0.20138878822E+02 -0.36359256102E+02  0.47787272221E+02  0.20000005365E+02 0.  0.
        -12    1    1    2    0    0  0.12492126610E+02  0.20138878822E+02  0.36359256102E+02  0.43400727779E+02  0.00000000000E+00 0.  1.
         11    1    3    3    0    0 -0.10607453172E+02 -0.98795353034E+01 -0.27177130673E+02  0.30801294006E+02  0.51100000000E-03 0. -1.
        -11    1    3    3    0    0 -0.51643433117E+01 -0.43587869093E+01 -0.18229463108E+01  0.69994713140E+01  0.51100000000E-03 0.  1.
        -12    1    3    3    0    0  0.32796698737E+01 -0.59005566089E+01 -0.73591791188E+01  0.99865069007E+01  0.00000000000E+00 0.  1.
</event>
<event>
 7    1  0.1400974E-009  0.4778727E+02  0.7816164E-02  0.1312668E+00
        -11   -1    0    0    0    0  0.00000000000E+00  0.00000000000E+00  0.45593999997E+02  0.45594000000E+02  0.51100000000E-03 0.  1.
         11   -1    0    0    0    0 -0.00000000000E+00 -0.00000000000E+00 -0.45593999997E+02  0.45594000000E+02  0.51100000000E-03 0. -1.
    9900012    2    1    2    0    0  0.62092669918E+01 -0.17283239472E+02 -0.39323758986E+02  0.47787269775E+02  0.19999994214E+02 0.  0.
        -12    1    1    2    0    0 -0.62092669918E+01  0.17283239472E+02  0.39323758986E+02  0.43400730225E+02  0.00000000000E+00 0.  1.
         11    1    3    3    0    0  0.41308054699E+00  0.13858113123E+01 -0.77610291713E+01  0.78945983173E+01  0.51100000000E-03 0.  1.
        -11    1    3    3    0    0  0.18912215099E+01 -0.17699204204E+02 -0.16393448798E+02  0.24198836997E+02  0.51100000000E-03 0. -1.
         12    1    3    3    0    0  0.39049649349E+01 -0.96984658077E+00 -0.15169281017E+02  0.15693834461E+02  0.00000000000E+00 0. -1.
</event>
<event>
 7    1  0.1400974E-009  0.4778727E+02  0.7816164E-02  0.1312668E+00
        -11   -1    0    0    0    0  0.00000000000E+00  0.00000000000E+00  0.45593999997E+02  0.45594000000E+02  0.51100000000E-03 0.  1.
         11   -1    0    0    0    0 -0.00000000000E+00 -0.00000000000E+00 -0.45593999997E+02  0.45594000000E+02  0.51100000000E-03 0. -1.
    9900012    2    1    2    0    0 -0.28167791997E+02  0.29359970672E+02 -0.15105991278E+02  0.47787270094E+02  0.19999995668E+02 0.  0.
        -12    1    1    2    0    0  0.28167791997E+02 -0.29359970672E+02  0.15105991278E+02  0.43400729906E+02  0.00000000000E+00 0.  1.
         11    1    3    3    0    0 -0.81056423833E+01  0.61057334788E+01 -0.31764779624E+01  0.10633505173E+02  0.51100000000E-03 0. -1.
        -11    1    3    3    0    0 -0.10893417849E+02  0.11159216787E+02  0.29815185113E+01  0.15877157322E+02  0.51100000000E-03 0.  1.
         12    1    3    3    0    0 -0.91687317651E+01  0.12095020406E+02 -0.14911031827E+02  0.21276607600E+02  0.00000000000E+00 0. -1.
</event>
<event>
 7    1  0.1400974E-009  0.4778728E+02  0.7816164E-02  0.1312668E+00
        -11   -1    0    0    0    0  0.00000000000E+00  0.00000000000E+00  0.45593999997E+02  0.45594000000E+02  0.51100000000E-03 0. -1.
         11   -1    0    0    0    0 -0.00000000000E+00 -0.00000000000E+00 -0.45593999997E+02  0.45594000000E+02  0.51100000000E-03 0.  1.
    9900012    2    1    2    0    0 -0.41631039081E+02 -0.19477697628E-01 -0.12266963449E+02  0.47787283570E+02  0.20000057110E+02 0.  0.
        -12    1    1    2    0    0  0.41631039081E+02  0.19477697628E-01  0.12266963449E+02  0.43400716430E+02  0.00000000000E+00 0.  1.
         11    1    3    3    0    0 -0.24921229332E+02 -0.79599688969E+01 -0.72725094717E+01  0.27153603270E+02  0.51100000000E-03 0. -1.
        -11    1    3    3    0    0 -0.75985014540E+01  0.36448835302E+01 -0.62367154774E+01  0.10484227225E+02  0.51100000000E-03 0.  1.
        -12    1    3    3    0    0 -0.91113082956E+01  0.42956076690E+01  0.12422615003E+01  0.10149453076E+02  0.00000000000E+00 0.  1.
</event>
<event>
 7    1  0.1400974E-009  0.4778727E+02  0.7816164E-02  0.1312668E+00
        -11   -1    0    0    0    0  0.00000000000E+00  0.00000000000E+00  0.45593999997E+02  0.45594000000E+02  0.51100000000E-03 0.  1.
         11   -1    0    0    0    0 -0.00000000000E+00 -0.00000000000E+00 -0.45593999997E+02  0.45594000000E+02  0.51100000000E-03 0. -1.
    9900012    2    1    2    0    0 -0.40128815004E+02 -0.12075569081E+02 -0.11290791493E+02  0.47787272647E+02  0.20000007305E+02 0.  0.
        -12    1    1    2    0    0  0.40128815004E+02  0.12075569081E+02  0.11290791493E+02  0.43400727353E+02  0.00000000000E+00 0.  1.
         11    1    3    3    0    0 -0.21455039644E+02 -0.10720042858E+02 -0.20043866610E+01  0.24067729663E+02  0.51100000000E-03 0.  1.
        -11    1    3    3    0    0 -0.11925011746E+02  0.27133473176E+01 -0.97886063918E+00  0.12268917117E+02  0.51100000000E-03 0. -1.
         12    1    3    3    0    0 -0.67487636141E+01 -0.40688735408E+01 -0.83075441933E+01  0.11450625866E+02  0.00000000000E+00 0. -1.
</event>
<event>
 7    1  0.1400974E-009  0.4778727E+02  0.7816164E-02  0.1312668E+00
        -11   -1    0    0    0    0  0.00000000000E+00  0.00000000000E+00  0.45593999997E+02  0.45594000000E+02  0.51100000000E-03 0.  1.
         11   -1    0    0    0    0 -0.00000000000E+00 -0.00000000000E+00 -0.45593999997E+02  0.45594000000E+02  0.51100000000E-03 0. -1.
    9900012    2    1    2    0    0 -0.49985889311E+01  0.16035711635E+02 -0.40018661413E+02  0.47787271893E+02  0.20000003868E+02 0.  0.
        -12    1    1    2    0    0  0.49985889311E+01 -0.16035711635E+02  0.40018661413E+02  0.43400728107E+02  0.00000000000E+00 0.  1.
         11    1    3    3    0    0 -0.52680280425E+01  0.18390039556E+01 -0.12196662109E+01  0.57115357771E+01  0.51100000000E-03 0.  1.
        -11    1    3    3    0    0 -0.33608609098E+01  0.95437656806E+01 -0.20733194480E+02  0.23070418354E+02  0.51100000000E-03 0. -1.
        -12    1    3    3    0    0  0.36303000212E+01  0.46529419988E+01 -0.18065800722E+02  0.19005317761E+02  0.00000000000E+00 0.  1.
</event>
<event>
 7    1  0.1400974E-009  0.4778728E+02  0.7816164E-02  0.1312668E+00
        -11   -1    0    0    0    0  0.00000000000E+00  0.00000000000E+00  0.45593999997E+02  0.45594000000E+02  0.51100000000E-03 0. -1.
         11   -1    0    0    0    0 -0.00000000000E+00 -0.00000000000E+00 -0.45593999997E+02  0.45594000000E+02  0.51100000000E-03 0.  1.
    9900012    2    1    2    0    0  0.37408084625E+02 -0.27634000292E+01  0.21831664628E+02  0.47787277017E+02  0.20000027232E+02 0.  0.
        -12    1    1    2    0    0 -0.37408084625E+02  0.27634000292E+01 -0.21831664628E+02  0.43400722983E+02  0.00000000000E+00 0.  1.
         11    1    3    3    0    0  0.18002365196E+02 -0.49273199672E+01  0.52849631861E+01  0.19398311031E+02  0.51100000000E-03 0. -1.
        -11    1    3    3    0    0  0.20653166398E+02  0.12804205770E+01  0.17015256145E+02  0.26790141864E+02  0.51100000000E-03 0.  1.
         12    1    3    3    0    0 -0.12474469702E+01  0.88349936096E+00 -0.46855470303E+00  0.15988241223E+01  0.00000000000E+00 0. -1.
</event>
<event>
 7    1  0.1400974E-009  0.4778728E+02  0.7816164E-02  0.1312668E+00
        -11   -1    0    0    0    0  0.00000000000E+00  0.00000000000E+00  0.45593999997E+02  0.45594000000E+02  0.51100000000E-03 0.  1.
         11   -1    0    0    0    0 -0.00000000000E+00 -0.00000000000E+00 -0.45593999997E+02  0.45594000000E+02  0.51100000000E-03 0. -1.
    9900012    2    1    2    0    0 -0.12118544007E+02  0.96856751458E+01 -0.40533336431E+02  0.47787276802E+02  0.20000026251E+02 0.  0.
        -12    1    1    2    0    0  0.12118544007E+02 -0.96856751458E+01  0.40533336431E+02  0.43400723198E+02  0.00000000000E+00 0.  1.
         11    1    3    3    0    0  0.56386040344E+00 -0.90171167424E-01 -0.13041553581E+02  0.13054048776E+02  0.51100000000E-03 0. -1.
        -11    1    3    3    0    0 -0.37320889057E+01 -0.35639137365E+01 -0.69250037377E+01  0.86362981509E+01  0.51100000000E-03 0.  1.
         12    1    3    3    0    0 -0.89503155043E+01  0.13339760050E+02 -0.20566779113E+02  0.26096929875E+02  0.00000000000E+00 0. -1.
</event>
<event>
 7    1  0.1400974E-009  0.4778727E+02  0.7816164E-02  0.1312668E+00
        -11   -1    0    0    0    0  0.00000000000E+00  0.00000000000E+00  0.45593999997E+02  0.45594000000E+02  0.51100000000E-03 0. -1.
         11   -1    0    0    0    0 -0.00000000000E+00 -0.00000000000E+00 -0.45593999997E+02  0.45594000000E+02  0.51100000000E-03 0.  1.
    9900012    2    1    2    0    0 -0.16318706984E+02  0.39994576297E+02  0.42139232878E+01  0.47787268666E+02  0.19999989157E+02 0.  0.
        -12    1    1    2    0    0  0.16318706984E+02 -0.39994576297E+02 -0.42139232878E+01  0.43400731334E+02  0.00000000000E+00 0.  1.
         11    1    3    3    0    0 -0.93702258221E+01  0.10410826584E+02  0.89870214237E+00  0.14035458949E+02  0.51100000000E-03 0. -1.
        -11    1    3    3    0    0 -0.65232579419E+01  0.66482859018E+01 -0.32937473583E+01  0.98793406424E+01  0.51100000000E-03 0.  1.
         12    1    3    3    0    0 -0.42522322047E+00  0.22935463811E+02  0.66089685038E+01  0.23872469074E+02  0.00000000000E+00 0. -1.
</event>
<event>
 7    1  0.1400974E-009  0.4778728E+02  0.7816164E-02  0.1312668E+00
        -11   -1    0    0    0    0  0.00000000000E+00  0.00000000000E+00  0.45593999997E+02  0.45594000000E+02  0.51100000000E-03 0. -1.
         11   -1    0    0    0    0 -0.00000000000E+00 -0.00000000000E+00 -0.45593999997E+02  0.45594000000E+02  0.51100000000E-03 0.  1.
    9900012    2    1    2    0    0 -0.61390467553E+01  0.42036541714E+02  0.88805128423E+01  0.47787282925E+02  0.20000054167E+02 0.  0.
        -12    1    1    2    0    0  0.61390467553E+01 -0.42036541714E+02 -0.88805128423E+01  0.43400717075E+02  0.00000000000E+00 0.  1.
         11    1    3    3    0    0 -0.46682979896E+01  0.39912571229E+02  0.40681536750E+01  0.40390051037E+02  0.51100000000E-03 0. -1.
        -11    1    3    3    0    0 -0.30323760303E+01  0.13115292251E+01  0.14626273040E+01  0.36131277571E+01  0.51100000000E-03 0.  1.
         12    1    3    3    0    0  0.15616272646E+01  0.81244126004E+00  0.33497318634E+01  0.37841041306E+01  0.00000000000E+00 0. -1.
</event>
<event>
 7    1  0.1400974E-009  0.4778727E+02  0.7816164E-02  0.1312668E+00
        -11   -1    0    0    0    0  0.00000000000E+00  0.00000000000E+00  0.45593999997E+02  0.45594000000E+02  0.51100000000E-03 0.  1.
         11   -1    0    0    0    0 -0.00000000000E+00 -0.00000000000E+00 -0.45593999997E+02  0.45594000000E+02  0.51100000000E-03 0. -1.
    9900012    2    1    2    0    0 -0.12341259793E+02 -0.20661026776E+02 -0.36117012026E+02  0.47787270992E+02  0.19999999763E+02 0.  0.
        -12    1    1    2    0    0  0.12341259793E+02  0.20661026776E+02  0.36117012026E+02  0.43400729008E+02  0.00000000000E+00 0.  1.
         11    1    3    3    0    0 -0.16558197908E+01 -0.11445260715E+02 -0.16708805681E+02  0.20320431087E+02  0.51100000000E-03 0. -1.
        -11    1    3    3    0    0 -0.10998944983E+02 -0.94747663831E+01 -0.90635685547E+01  0.17114212338E+02  0.51100000000E-03 0.  1.
         12    1    3    3    0    0  0.31350498037E+00  0.25900032184E+00 -0.10344637790E+02  0.10352627568E+02  0.00000000000E+00 0. -1.
</event>
<event>
 7    1  0.1400974E-009  0.4778728E+02  0.7816164E-02  0.1312668E+00
        -11   -1    0    0    0    0  0.00000000000E+00  0.00000000000E+00  0.45593999997E+02  0.45594000000E+02  0.51100000000E-03 0.  1.
         11   -1    0    0    0    0 -0.00000000000E+00 -0.00000000000E+00 -0.45593999997E+02  0.45594000000E+02  0.51100000000E-03 0. -1.
    9900012    2    1    2    0    0 -0.26575562347E+02  0.11520664079E+01 -0.34293365124E+02  0.47787278087E+02  0.20000032110E+02 0.  0.
        -12    1    1    2    0    0  0.26575562347E+02 -0.11520664079E+01  0.34293365124E+02  0.43400721913E+02  0.00000000000E+00 0.  1.
         11    1    3    3    0    0 -0.19057238069E+02 -0.53017973381E+01 -0.23277461128E+02  0.30547136931E+02  0.51100000000E-03 0. -1.
        -11    1    3    3    0    0 -0.25686582053E+01  0.17006023557E+01  0.11368794298E+01  0.32836791024E+01  0.51100000000E-03 0.  1.
        -12    1    3    3    0    0 -0.49496660721E+01  0.47532613903E+01 -0.12152783426E+02  0.13956462054E+02  0.00000000000E+00 0.  1.
</event>
<event>
 7    1  0.1400974E-009  0.4778728E+02  0.7816164E-02  0.1312668E+00
        -11   -1    0    0    0    0  0.00000000000E+00  0.00000000000E+00  0.45593999997E+02  0.45594000000E+02  0.51100000000E-03 0.  1.
         11   -1    0    0    0    0 -0.00000000000E+00 -0.00000000000E+00 -0.45593999997E+02  0.45594000000E+02  0.51100000000E-03 0. -1.
    9900012    2    1    2    0    0  0.20360756170E+02  0.14113036038E+02 -0.35635439245E+02  0.47787277562E+02  0.20000029714E+02 0.  0.
        -12    1    1    2    0    0 -0.20360756170E+02 -0.14113036038E+02  0.35635439245E+02  0.43400722438E+02  0.00000000000E+00 0.  1.
         11    1    3    3    0    0  0.77012789995E+01  0.47161957770E+00 -0.14634312734E+02  0.16543736964E+02  0.51100000000E-03 0. -1.
        -11    1    3    3    0    0  0.16953601174E+01 -0.23798374000E+01 -0.42192290876E+00  0.29522688191E+01  0.51100000000E-03 0.  1.
         12    1    3    3    0    0  0.10964117053E+02  0.16021253860E+02 -0.20579203602E+02  0.28291271779E+02  0.00000000000E+00 0. -1.
</event>
<event>
 7    1  0.1400974E-009  0.4778727E+02  0.7816164E-02  0.1312668E+00
        -11   -1    0    0    0    0  0.00000000000E+00  0.00000000000E+00  0.45593999997E+02  0.45594000000E+02  0.51100000000E-03 0. -1.
         11   -1    0    0    0    0 -0.00000000000E+00 -0.00000000000E+00 -0.45593999997E+02  0.45594000000E+02  0.51100000000E-03 0.  1.
    9900012    2    1    2    0    0 -0.19525067759E+02 -0.13055408313E+02  0.36495907826E+02  0.47787271375E+02  0.20000001505E+02 0.  0.
        -12    1    1    2    0    0  0.19525067759E+02  0.13055408313E+02 -0.36495907826E+02  0.43400728625E+02  0.00000000000E+00 0.  1.
         11    1    3    3    0    0 -0.12031495839E+02 -0.10535405847E+02  0.25232788771E+02  0.29873822954E+02  0.51100000000E-03 0. -1.
        -11    1    3    3    0    0  0.26145940946E+01 -0.24911171006E+01  0.44152916084E+01  0.57040833564E+01  0.51100000000E-03 0.  1.
        -12    1    3    3    0    0 -0.10108166014E+02 -0.28885365432E-01  0.68478274467E+01  0.12209365064E+02  0.00000000000E+00 0.  1.
</event>
<event>
 7    1  0.1400974E-009  0.4778728E+02  0.7816164E-02  0.1312668E+00
        -11   -1    0    0    0    0  0.00000000000E+00  0.00000000000E+00  0.45593999997E+02  0.45594000000E+02  0.51100000000E-03 0.  1.
         11   -1    0    0    0    0 -0.00000000000E+00 -0.00000000000E+00 -0.45593999997E+02  0.45594000000E+02  0.51100000000E-03 0. -1.
    9900012    2    1    2    0    0 -0.37239608346E+02  0.16563536863E+02  0.14915861655E+02  0.47787284429E+02  0.20000061024E+02 0.  0.
        -12    1    1    2    0    0  0.37239608346E+02 -0.16563536863E+02 -0.14915861655E+02  0.43400715571E+02  0.00000000000E+00 0.  1.
         11    1    3    3    0    0 -0.17487940414E+02  0.48758913457E+01  0.27023255075E+01  0.18354970437E+02  0.51100000000E-03 0. -1.
        -11    1    3    3    0    0 -0.16790907030E+02  0.14835848993E+02  0.10890253060E+02  0.24912538735E+02  0.51100000000E-03 0.  1.
        -12    1    3    3    0    0 -0.29607609020E+01 -0.31482034756E+01  0.13232830874E+01  0.45197752568E+01  0.00000000000E+00 0.  1.
</event>
<event>
 7    1  0.1400974E-009  0.4778727E+02  0.7816164E-02  0.1312668E+00
        -11   -1    0    0    0    0  0.00000000000E+00  0.00000000000E+00  0.45593999997E+02  0.45594000000E+02  0.51100000000E-03 0.  1.
         11   -1    0    0    0    0 -0.00000000000E+00 -0.00000000000E+00 -0.45593999997E+02  0.45594000000E+02  0.51100000000E-03 0. -1.
    9900012    2    1    2    0    0  0.42121815202E+02 -0.96229502357E+01 -0.40957474394E+01  0.47787266893E+02  0.19999981072E+02 0.  0.
        -12    1    1    2    0    0 -0.42121815202E+02  0.96229502357E+01  0.40957474394E+01  0.43400733107E+02  0.00000000000E+00 0.  1.
         11    1    3    3    0    0  0.18885233294E+02 -0.18807435046E+01 -0.57519634392E+01  0.19831145109E+02  0.51100000000E-03 0. -1.
        -11    1    3    3    0    0  0.10104274884E+02  0.15134475035E+01  0.52587431284E+01  0.11490921366E+02  0.51100000000E-03 0.  1.
         12    1    3    3    0    0  0.13132307024E+02 -0.92556542346E+01 -0.36025271286E+01  0.16465200418E+02  0.00000000000E+00 0. -1.
</event>
<event>
 7    1  0.1400974E-009  0.4778727E+02  0.7816164E-02  0.1312668E+00
        -11   -1    0    0    0    0  0.00000000000E+00  0.00000000000E+00  0.45593999997E+02  0.45594000000E+02  0.51100000000E-03 0.  1.
         11   -1    0    0    0    0 -0.00000000000E+00 -0.00000000000E+00 -0.45593999997E+02  0.45594000000E+02  0.51100000000E-03 0. -1.
    9900012    2    1    2    0    0  0.92406746886E+01  0.27794297216E+02 -0.32026709853E+02  0.47787272236E+02  0.20000005433E+02 0.  0.
        -12    1    1    2    0    0 -0.92406746886E+01 -0.27794297216E+02  0.32026709853E+02  0.43400727764E+02  0.00000000000E+00 0.  1.
         11    1    3    3    0    0 -0.44752713921E+01  0.65992605768E+01 -0.10025755588E+02  0.12809920748E+02  0.51100000000E-03 0. -1.
        -11    1    3    3    0    0  0.46090933669E+01  0.11699781967E+02 -0.51256211049E+01  0.13579419417E+02  0.51100000000E-03 0.  1.
         12    1    3    3    0    0  0.91068527138E+01  0.94952546726E+01 -0.16875333159E+02  0.21397932070E+02  0.00000000000E+00 0. -1.
</event>
<event>
 7    1  0.1400974E-009  0.4778727E+02  0.7816164E-02  0.1312668E+00
        -11   -1    0    0    0    0  0.00000000000E+00  0.00000000000E+00  0.45593999997E+02  0.45594000000E+02  0.51100000000E-03 0.  1.
         11   -1    0    0    0    0 -0.00000000000E+00 -0.00000000000E+00 -0.45593999997E+02  0.45594000000E+02  0.51100000000E-03 0. -1.
    9900012    2    1    2    0    0  0.33360945139E+02 -0.19614667866E+02 -0.19645233214E+02  0.47787273692E+02  0.20000012071E+02 0.  0.
        -12    1    1    2    0    0 -0.33360945139E+02  0.19614667866E+02  0.19645233214E+02  0.43400726308E+02  0.00000000000E+00 0.  1.
         11    1    3    3    0    0  0.25920084715E+02 -0.14611993909E+02 -0.23366453905E+02  0.37833217230E+02  0.51100000000E-03 0. -1.
        -11    1    3    3    0    0  0.57792360365E+01 -0.44236602426E+01  0.21339954171E+01  0.75843441252E+01  0.51100000000E-03 0.  1.
         12    1    3    3    0    0  0.16616243872E+01 -0.57901371417E+00  0.15872252744E+01  0.23697123363E+01  0.00000000000E+00 0. -1.
</event>
<event>
 7    1  0.1400974E-009  0.4778727E+02  0.7816164E-02  0.1312668E+00
        -11   -1    0    0    0    0  0.00000000000E+00  0.00000000000E+00  0.45593999997E+02  0.45594000000E+02  0.51100000000E-03 0.  1.
         11   -1    0    0    0    0 -0.00000000000E+00 -0.00000000000E+00 -0.45593999997E+02  0.45594000000E+02  0.51100000000E-03 0. -1.
    9900012    2    1    2    0    0 -0.17634909887E+01 -0.32203083691E+02 -0.29042639787E+02  0.47787269298E+02  0.19999992038E+02 0.  0.
        -12    1    1    2    0    0  0.17634909887E+01  0.32203083691E+02  0.29042639787E+02  0.43400730702E+02  0.00000000000E+00 0.  1.
         11    1    3    3    0    0  0.41930687211E+01 -0.47131220492E+01 -0.37260441691E+01  0.73265783392E+01  0.51100000000E-03 0.  1.
        -11    1    3    3    0    0 -0.79926163406E+01 -0.27865942221E+02 -0.21407460402E+02  0.36037092182E+02  0.51100000000E-03 0. -1.
         12    1    3    3    0    0  0.20360566309E+01  0.37598057939E+00 -0.39091352160E+01  0.44235987767E+01  0.00000000000E+00 0. -1.
</event>
<event>
 7    1  0.1400974E-009  0.4778728E+02  0.7816164E-02  0.1312668E+00
        -11   -1    0    0    0    0  0.00000000000E+00  0.00000000000E+00  0.45593999997E+02  0.45594000000E+02  0.51100000000E-03 0.  1.
         11   -1    0    0    0    0 -0.00000000000E+00 -0.00000000000E+00 -0.45593999997E+02  0.45594000000E+02  0.51100000000E-03 0. -1.
    9900012    2    1    2    0    0 -0.27220437003E+02  0.24590474173E+02 -0.23194378342E+02  0.47787276534E+02  0.20000025031E+02 0.  0.
        -12    1    1    2    0    0  0.27220437003E+02 -0.24590474173E+02  0.23194378342E+02  0.43400723466E+02  0.00000000000E+00 0.  1.
         11    1    3    3    0    0 -0.66028028255E+00  0.66639035482E+01 -0.82389228402E+01  0.10617129103E+02  0.51100000000E-03 0. -1.
        -11    1    3    3    0    0 -0.30089628333E+01  0.28717355490E+01 -0.69412507903E+01  0.80920754563E+01  0.51100000000E-03 0.  1.
        -12    1    3    3    0    0 -0.23551193887E+02  0.15054835076E+02 -0.80142047112E+01  0.29078071976E+02  0.00000000000E+00 0.  1.
</event>
<event>
 7    1  0.1400974E-009  0.4778727E+02  0.7816164E-02  0.1312668E+00
        -11   -1    0    0    0    0  0.00000000000E+00  0.00000000000E+00  0.45593999997E+02  0.45594000000E+02  0.51100000000E-03 0. -1.
         11   -1    0    0    0    0 -0.00000000000E+00 -0.00000000000E+00 -0.45593999997E+02  0.45594000000E+02  0.51100000000E-03 0.  1.
    9900012    2    1    2    0    0 -0.14900695500E+01  0.43312593817E+02 -0.23285490630E+01  0.47787271536E+02  0.20000002243E+02 0.  0.
        -12    1    1    2    0    0  0.14900695500E+01 -0.43312593817E+02  0.23285490630E+01  0.43400728464E+02  0.00000000000E+00 0.  1.
         11    1    3    3    0    0  0.94757396447E+00  0.79851232043E+01 -0.28583783556E+01  0.85340738274E+01  0.51100000000E-03 0. -1.
        -11    1    3    3    0    0  0.43654588610E+01  0.18997403528E+02 -0.60015440845E+01  0.20395516751E+02  0.51100000000E-03 0.  1.
         12    1    3    3    0    0 -0.68031023754E+01  0.16330067085E+02  0.65313733771E+01  0.18857680958E+02  0.00000000000E+00 0. -1.
</event>
<event>
 7    1  0.1400974E-009  0.4778727E+02  0.7816164E-02  0.1312668E+00
        -11   -1    0    0    0    0  0.00000000000E+00  0.00000000000E+00  0.45593999997E+02  0.45594000000E+02  0.51100000000E-03 0. -1.
         11   -1    0    0    0    0 -0.00000000000E+00 -0.00000000000E+00 -0.45593999997E+02  0.45594000000E+02  0.51100000000E-03 0.  1.
    9900012    2    1    2    0    0  0.13468500605E+02 -0.18813126458E+02  0.36719054281E+02  0.47787272092E+02  0.20000004774E+02 0.  0.
        -12    1    1    2    0    0 -0.13468500605E+02  0.18813126458E+02 -0.36719054281E+02  0.43400727908E+02  0.00000000000E+00 0.  1.
         11    1    3    3    0    0  0.83427113655E+01 -0.87188404362E+00  0.74194163938E+01  0.11198605029E+02  0.51100000000E-03 0. -1.
        -11    1    3    3    0    0 -0.17922940586E+01 -0.12912597806E+01  0.27325740763E-01  0.22091665331E+01  0.51100000000E-03 0.  1.
         12    1    3    3    0    0  0.69180832978E+01 -0.16649982634E+02  0.29272312147E+02  0.34379500529E+02  0.00000000000E+00 0. -1.
</event>
<event>
 7    1  0.1400974E-009  0.4778727E+02  0.7816164E-02  0.1312668E+00
        -11   -1    0    0    0    0  0.00000000000E+00  0.00000000000E+00  0.45593999997E+02  0.45594000000E+02  0.51100000000E-03 0. -1.
         11   -1    0    0    0    0 -0.00000000000E+00 -0.00000000000E+00 -0.45593999997E+02  0.45594000000E+02  0.51100000000E-03 0.  1.
    9900012    2    1    2    0    0 -0.25383945295E+02  0.38500802950E+01  0.34992219833E+02  0.47787271368E+02  0.20000001473E+02 0.  0.
        -12    1    1    2    0    0  0.25383945295E+02 -0.38500802950E+01 -0.34992219833E+02  0.43400728632E+02  0.00000000000E+00 0.  1.
         11    1    3    3    0    0 -0.13786171228E+02  0.16360920770E+01  0.16497667364E+02  0.21561733305E+02  0.51100000000E-03 0. -1.
        -11    1    3    3    0    0 -0.66528543478E-01 -0.38917803943E+01  0.98037313971E+01  0.10548152931E+02  0.51100000000E-03 0.  1.
        -12    1    3    3    0    0 -0.11531245523E+02  0.61057686123E+01  0.86908210721E+01  0.15677385132E+02  0.00000000000E+00 0.  1.
</event>
<event>
 7    1  0.1400974E-009  0.4778726E+02  0.7816164E-02  0.1312668E+00
        -11   -1    0    0    0    0  0.00000000000E+00  0.00000000000E+00  0.45593999997E+02  0.45594000000E+02  0.51100000000E-03 0.  1.
         11   -1    0    0    0    0 -0.00000000000E+00 -0.00000000000E+00 -0.45593999997E+02  0.45594000000E+02  0.51100000000E-03 0. -1.
    9900012    2    1    2    0    0  0.36610148956E+02 -0.20834592115E+02 -0.10451826614E+02  0.47787263661E+02  0.19999966335E+02 0.  0.
        -12    1    1    2    0    0 -0.36610148956E+02  0.20834592115E+02  0.10451826614E+02  0.43400736339E+02  0.00000000000E+00 0.  1.
         11    1    3    3    0    0  0.31990725994E+02 -0.21539352964E+02 -0.78561595416E+01  0.39358220472E+02  0.51100000000E-03 0. -1.
        -11    1    3    3    0    0  0.60826870690E+01  0.15746020463E+01 -0.23540697434E+01  0.67097017968E+01  0.51100000000E-03 0.  1.
        -12    1    3    3    0    0 -0.14632641062E+01 -0.86984119764E+00 -0.24159732955E+00  0.17193413923E+01  0.00000000000E+00 0.  1.
</event>
<event>
 7    1  0.1400974E-009  0.4778730E+02  0.7816164E-02  0.1312668E+00
        -11   -1    0    0    0    0  0.00000000000E+00  0.00000000000E+00  0.45593999997E+02  0.45594000000E+02  0.51100000000E-03 0.  1.
         11   -1    0    0    0    0 -0.00000000000E+00 -0.00000000000E+00 -0.45593999997E+02  0.45594000000E+02  0.51100000000E-03 0. -1.
    9900012    2    1    2    0    0  0.22846813377E+02  0.24978455589E+02 -0.27161006998E+02  0.47787303851E+02  0.20000149575E+02 0.  0.
        -12    1    1    2    0    0 -0.22846813377E+02 -0.24978455589E+02  0.27161006998E+02  0.43400696149E+02  0.00000000000E+00 0.  1.
         11    1    3    3    0    0  0.75557970793E+01  0.87831842942E+01 -0.17407911109E+02  0.20910996277E+02  0.51100000000E-03 0. -1.
        -11    1    3    3    0    0  0.27720170201E+01 -0.17335488653E+00 -0.50129449023E+01  0.57309464428E+01  0.51100000000E-03 0.  1.
        -12    1    3    3    0    0  0.12518999278E+02  0.16368626181E+02 -0.47401509872E+01  0.21145361131E+02  0.00000000000E+00 0.  1.
</event>
<event>
 7    1  0.1400974E-009  0.4778728E+02  0.7816164E-02  0.1312668E+00
        -11   -1    0    0    0    0  0.00000000000E+00  0.00000000000E+00  0.45593999997E+02  0.45594000000E+02  0.51100000000E-03 0.  1.
         11   -1    0    0    0    0 -0.00000000000E+00 -0.00000000000E+00 -0.45593999997E+02  0.45594000000E+02  0.51100000000E-03 0. -1.
    9900012    2    1    2    0    0  0.19922083280E+02 -0.13199283658E+02 -0.36228613308E+02  0.47787275196E+02  0.20000018928E+02 0.  0.
        -12    1    1    2    0    0 -0.19922083280E+02  0.13199283658E+02  0.36228613308E+02  0.43400724804E+02  0.00000000000E+00 0.  1.
         11    1    3    3    0    0  0.16362817885E+02 -0.10534663760E+02 -0.19410896572E+02  0.27486430391E+02  0.51100000000E-03 0. -1.
        -11    1    3    3    0    0  0.51806511302E+01  0.23629863677E+01 -0.60560812195E+01  0.83125790646E+01  0.51100000000E-03 0.  1.
         12    1    3    3    0    0 -0.16213857346E+01 -0.50276062654E+01 -0.10761635517E+02  0.11988265740E+02  0.00000000000E+00 0. -1.
</event>
<event>
 7    1  0.1400974E-009  0.4778727E+02  0.7816164E-02  0.1312668E+00
        -11   -1    0    0    0    0  0.00000000000E+00  0.00000000000E+00  0.45593999997E+02  0.45594000000E+02  0.51100000000E-03 0.  1.
         11   -1    0    0    0    0 -0.00000000000E+00 -0.00000000000E+00 -0.45593999997E+02  0.45594000000E+02  0.51100000000E-03 0. -1.
    9900012    2    1    2    0    0  0.27321867419E+02  0.69530312494E+01 -0.32996888192E+02  0.47787265984E+02  0.19999976926E+02 0.  0.
        -12    1    1    2    0    0 -0.27321867419E+02 -0.69530312494E+01  0.32996888192E+02  0.43400734016E+02  0.00000000000E+00 0.  1.
         11    1    3    3    0    0  0.21479913342E+01  0.35609334740E+01 -0.17173864660E+01  0.44992811107E+01  0.51100000000E-03 0. -1.
        -11    1    3    3    0    0  0.12523214509E+02  0.79848824833E+01 -0.93260677024E+01  0.17537525167E+02  0.51100000000E-03 0.  1.
         12    1    3    3    0    0  0.12650661575E+02 -0.45927847080E+01 -0.21953434024E+02  0.25750459706E+02  0.00000000000E+00 0. -1.
</event>
<event>
 7    1  0.1400974E-009  0.4778727E+02  0.7816164E-02  0.1312668E+00
        -11   -1    0    0    0    0  0.00000000000E+00  0.00000000000E+00  0.45593999997E+02  0.45594000000E+02  0.51100000000E-03 0. -1.
         11   -1    0    0    0    0 -0.00000000000E+00 -0.00000000000E+00 -0.45593999997E+02  0.45594000000E+02  0.51100000000E-03 0.  1.
    9900012    2    1    2    0    0 -0.34029446252E+02  0.25456170680E+02  0.88092973171E+01  0.47787267781E+02  0.19999985121E+02 0.  0.
        -12    1    1    2    0    0  0.34029446252E+02 -0.25456170680E+02 -0.88092973171E+01  0.43400732219E+02  0.00000000000E+00 0.  1.
         11    1    3    3    0    0 -0.15991874868E+02  0.12231669981E+02  0.14144889056E+02  0.24605521717E+02  0.51100000000E-03 0. -1.
        -11    1    3    3    0    0 -0.33832971262E+01  0.30381812637E+01 -0.22379329368E+01  0.50680951969E+01  0.51100000000E-03 0.  1.
         12    1    3    3    0    0 -0.14654274258E+02  0.10186319436E+02 -0.30976588022E+01  0.18113650867E+02  0.00000000000E+00 0. -1.
</event>
<event>
 7    1  0.1400974E-009  0.4778727E+02  0.7816164E-02  0.1312668E+00
        -11   -1    0    0    0    0  0.00000000000E+00  0.00000000000E+00  0.45593999997E+02  0.45594000000E+02  0.51100000000E-03 0. -1.
         11   -1    0    0    0    0 -0.00000000000E+00 -0.00000000000E+00 -0.45593999997E+02  0.45594000000E+02  0.51100000000E-03 0.  1.
    9900012    2    1    2    0    0  0.26392299044E+02 -0.30783310607E+02  0.15474419044E+02  0.47787270680E+02  0.19999998339E+02 0.  0.
        -12    1    1    2    0    0 -0.26392299044E+02  0.30783310607E+02 -0.15474419044E+02  0.43400729320E+02  0.00000000000E+00 0.  1.
         11    1    3    3    0    0  0.20484745390E+02 -0.27107884995E+02  0.11918252057E+02  0.36007040352E+02  0.51100000000E-03 0. -1.
        -11    1    3    3    0    0 -0.12303540948E+01 -0.34582401548E+01  0.27646912022E+01  0.45952925773E+01  0.51100000000E-03 0.  1.
        -12    1    3    3    0    0  0.71379077491E+01 -0.21718545742E+00  0.79147578423E+00  0.71849377503E+01  0.00000000000E+00 0.  1.
</event>
<event>
 7    1  0.1400974E-009  0.4778727E+02  0.7816164E-02  0.1312668E+00
        -11   -1    0    0    0    0  0.00000000000E+00  0.00000000000E+00  0.45593999997E+02  0.45594000000E+02  0.51100000000E-03 0.  1.
         11   -1    0    0    0    0 -0.00000000000E+00 -0.00000000000E+00 -0.45593999997E+02  0.45594000000E+02  0.51100000000E-03 0. -1.
    9900012    2    1    2    0    0  0.27314045907E+02 -0.41976886971E+01 -0.33465586911E+02  0.47787271879E+02  0.20000003804E+02 0.  0.
        -12    1    1    2    0    0 -0.27314045907E+02  0.41976886971E+01  0.33465586911E+02  0.43400728121E+02  0.00000000000E+00 0.  1.
         11    1    3    3    0    0  0.19271855326E+02 -0.29813906717E+00 -0.15020749011E+02  0.24435961117E+02  0.51100000000E-03 0. -1.
        -11    1    3    3    0    0  0.67594314531E+01  0.26280006737E+01 -0.68075957387E+01  0.99468417658E+01  0.51100000000E-03 0.  1.
        -12    1    3    3    0    0  0.12827591272E+01 -0.65275503036E+01 -0.11637242161E+02  0.13404468995E+02  0.00000000000E+00 0.  1.
</event>
<event>
 7    1  0.1400974E-009  0.4778727E+02  0.7816164E-02  0.1312668E+00
        -11   -1    0    0    0    0  0.00000000000E+00  0.00000000000E+00  0.45593999997E+02  0.45594000000E+02  0.51100000000E-03 0. -1.
         11   -1    0    0    0    0 -0.00000000000E+00 -0.00000000000E+00 -0.45593999997E+02  0.45594000000E+02  0.51100000000E-03 0.  1.
    9900012    2    1    2    0    0 -0.14412002155E+02 -0.34123579811E+02  0.22616334062E+02  0.47787273374E+02  0.20000010622E+02 0.  0.
        -12    1    1    2    0    0  0.14412002155E+02  0.34123579811E+02 -0.22616334062E+02  0.43400726626E+02  0.00000000000E+00 0.  1.
         11    1    3    3    0    0 -0.16390265772E+01 -0.12305420843E+01 -0.12335275787E+01  0.23921188287E+01  0.51100000000E-03 0. -1.
        -11    1    3    3    0    0 -0.79690274861E+01 -0.94576079206E+01  0.15989310839E+02  0.20214099238E+02  0.51100000000E-03 0.  1.
         12    1    3    3    0    0 -0.48039480913E+01 -0.23435429807E+02  0.78605508018E+01  0.25181055307E+02  0.00000000000E+00 0. -1.
</event>
<event>
 7    1  0.1400974E-009  0.4778727E+02  0.7816164E-02  0.1312668E+00
        -11   -1    0    0    0    0  0.00000000000E+00  0.00000000000E+00  0.45593999997E+02  0.45594000000E+02  0.51100000000E-03 0. -1.
         11   -1    0    0    0    0 -0.00000000000E+00 -0.00000000000E+00 -0.45593999997E+02  0.45594000000E+02  0.51100000000E-03 0.  1.
    9900012    2    1    2    0    0  0.37932779718E+02  0.20041653236E+02 -0.65619777339E+01  0.47787271972E+02  0.20000004229E+02 0.  0.
        -12    1    1    2    0    0 -0.37932779718E+02 -0.20041653236E+02  0.65619777339E+01  0.43400728028E+02  0.00000000000E+00 0.  1.
         11    1    3    3    0    0  0.20308806156E+02  0.39817684829E+01  0.34882499668E+01  0.20987376583E+02  0.51100000000E-03 0.  1.
        -11    1    3    3    0    0  0.12689042388E+02  0.69211430244E+01 -0.60892584309E+01  0.15684166729E+02  0.51100000000E-03 0. -1.
        -12    1    3    3    0    0  0.49349311733E+01  0.91387417292E+01 -0.39609692698E+01  0.11115728660E+02  0.00000000000E+00 0.  1.
</event>
<event>
 7    1  0.1400974E-009  0.4778727E+02  0.7816164E-02  0.1312668E+00
        -11   -1    0    0    0    0  0.00000000000E+00  0.00000000000E+00  0.45593999997E+02  0.45594000000E+02  0.51100000000E-03 0. -1.
         11   -1    0    0    0    0 -0.00000000000E+00 -0.00000000000E+00 -0.45593999997E+02  0.45594000000E+02  0.51100000000E-03 0.  1.
    9900012    2    1    2    0    0  0.63145314611E+01 -0.36325258513E+02  0.22895975191E+02  0.47787269666E+02  0.19999993714E+02 0.  0.
        -12    1    1    2    0    0 -0.63145314611E+01  0.36325258513E+02 -0.22895975191E+02  0.43400730334E+02  0.00000000000E+00 0.  1.
         11    1    3    3    0    0  0.41095279591E+00 -0.14794637675E+02  0.16702864875E+02  0.22316717532E+02  0.51100000000E-03 0. -1.
        -11    1    3    3    0    0 -0.20391037400E+01 -0.97961856185E+01 -0.78286077466E-03  0.10006157984E+02  0.51100000000E-03 0.  1.
         12    1    3    3    0    0  0.79426824051E+01 -0.11734435220E+02  0.61938931774E+01  0.15464394149E+02  0.00000000000E+00 0. -1.
</event>
<event>
 7    1  0.1400974E-009  0.4778727E+02  0.7816164E-02  0.1312668E+00
        -11   -1    0    0    0    0  0.00000000000E+00  0.00000000000E+00  0.45593999997E+02  0.45594000000E+02  0.51100000000E-03 0.  1.
         11   -1    0    0    0    0 -0.00000000000E+00 -0.00000000000E+00 -0.45593999997E+02  0.45594000000E+02  0.51100000000E-03 0. -1.
    9900012    2    1    2    0    0 -0.12828375966E+02  0.23238034123E+02 -0.34337291701E+02  0.47787273495E+02  0.20000011172E+02 0.  0.
        -12    1    1    2    0    0  0.12828375966E+02 -0.23238034123E+02  0.34337291701E+02  0.43400726505E+02  0.00000000000E+00 0.  1.
         11    1    3    3    0    0 -0.63231313025E+01  0.15147250456E+02 -0.19341834703E+02  0.25367848860E+02  0.51100000000E-03 0. -1.
        -11    1    3    3    0    0  0.31357124657E+01  0.23988309459E+01 -0.32006827947E+00  0.39610006992E+01  0.51100000000E-03 0.  1.
         12    1    3    3    0    0 -0.96409571293E+01  0.56919527215E+01 -0.14675388719E+02  0.18458423936E+02  0.00000000000E+00 0. -1.
</event>
<event>
 7    1  0.1400974E-009  0.4778727E+02  0.7816164E-02  0.1312668E+00
        -11   -1    0    0    0    0  0.00000000000E+00  0.00000000000E+00  0.45593999997E+02  0.45594000000E+02  0.51100000000E-03 0.  1.
         11   -1    0    0    0    0 -0.00000000000E+00 -0.00000000000E+00 -0.45593999997E+02  0.45594000000E+02  0.51100000000E-03 0. -1.
    9900012    2    1    2    0    0  0.13581881185E+01  0.17795322135E+02 -0.39561409605E+02  0.47787270804E+02  0.19999998903E+02 0.  0.
        -12    1    1    2    0    0 -0.13581881185E+01 -0.17795322135E+02  0.39561409605E+02  0.43400729196E+02  0.00000000000E+00 0.  1.
         11    1    3    3    0    0 -0.25069476687E+01  0.10018780591E+02 -0.31991986897E+02  0.33617673581E+02  0.51100000000E-03 0. -1.
        -11    1    3    3    0    0 -0.25876847734E+01  0.16502553834E+01 -0.22158532547E+01  0.37854274824E+01  0.51100000000E-03 0.  1.
        -12    1    3    3    0    0  0.64528205606E+01  0.61262861598E+01 -0.53535694531E+01  0.10384169740E+02  0.00000000000E+00 0.  1.
</event>
<event>
 7    1  0.1400974E-009  0.4778727E+02  0.7816164E-02  0.1312668E+00
        -11   -1    0    0    0    0  0.00000000000E+00  0.00000000000E+00  0.45593999997E+02  0.45594000000E+02  0.51100000000E-03 0. -1.
         11   -1    0    0    0    0 -0.00000000000E+00 -0.00000000000E+00 -0.45593999997E+02  0.45594000000E+02  0.51100000000E-03 0.  1.
    9900012    2    1    2    0    0  0.20362860741E+02  0.17913757810E+02  0.33883247505E+02  0.47787270998E+02  0.19999999789E+02 0.  0.
        -12    1    1    2    0    0 -0.20362860741E+02 -0.17913757810E+02 -0.33883247505E+02  0.43400729002E+02  0.00000000000E+00 0.  1.
         11    1    3    3    0    0  0.82226377783E+00  0.45430564048E+01  0.28283527423E+01  0.54143382526E+01  0.51100000000E-03 0.  1.
        -11    1    3    3    0    0  0.15489237727E+02  0.11322648427E+01  0.13400772274E+02  0.20512903423E+02  0.51100000000E-03 0. -1.
         12    1    3    3    0    0  0.40513592358E+01  0.12238436562E+02  0.17654122489E+02  0.21860029323E+02  0.00000000000E+00 0. -1.
</event>
<event>
 7    1  0.1400974E-009  0.4778727E+02  0.7816164E-02  0.1312668E+00
        -11   -1    0    0    0    0  0.00000000000E+00  0.00000000000E+00  0.45593999997E+02  0.45594000000E+02  0.51100000000E-03 0.  1.
         11   -1    0    0    0    0 -0.00000000000E+00 -0.00000000000E+00 -0.45593999997E+02  0.45594000000E+02  0.51100000000E-03 0. -1.
    9900012    2    1    2    0    0 -0.34925172856E+02 -0.13793844699E+02 -0.21762014796E+02  0.47787272603E+02  0.20000007108E+02 0.  0.
        -12    1    1    2    0    0  0.34925172856E+02  0.13793844699E+02  0.21762014796E+02  0.43400727397E+02  0.00000000000E+00 0.  1.
         11    1    3    3    0    0 -0.10202453423E+02  0.57995876134E+00 -0.92666603296E+00  0.10260853678E+02  0.51100000000E-03 0. -1.
        -11    1    3    3    0    0 -0.40387812313E+01 -0.24510633764E+01  0.13730436596E+01  0.49198287228E+01  0.51100000000E-03 0.  1.
        -12    1    3    3    0    0 -0.20683938202E+02 -0.11922740084E+02 -0.22208392422E+02  0.32606590202E+02  0.00000000000E+00 0.  1.
</event>
<event>
 7    1  0.1400974E-009  0.4778727E+02  0.7816164E-02  0.1312668E+00
        -11   -1    0    0    0    0  0.00000000000E+00  0.00000000000E+00  0.45593999997E+02  0.45594000000E+02  0.51100000000E-03 0.  1.
         11   -1    0    0    0    0 -0.00000000000E+00 -0.00000000000E+00 -0.45593999997E+02  0.45594000000E+02  0.51100000000E-03 0. -1.
    9900012    2    1    2    0    0 -0.36020584077E+01  0.20003713778E+02 -0.38347098608E+02  0.47787270037E+02  0.19999995406E+02 0.  0.
        -12    1    1    2    0    0  0.36020584077E+01 -0.20003713778E+02  0.38347098608E+02  0.43400729963E+02  0.00000000000E+00 0.  1.
         11    1    3    3    0    0  0.58112276978E+00  0.55960434127E+01 -0.16492977634E+02  0.17426179071E+02  0.51100000000E-03 0. -1.
        -11    1    3    3    0    0 -0.37787630851E+00 -0.15038888478E+01  0.12909098936E+01  0.20176522955E+01  0.51100000000E-03 0.  1.
         12    1    3    3    0    0 -0.38053048690E+01  0.15911559213E+02 -0.23145030868E+02  0.28343438670E+02  0.00000000000E+00 0. -1.
</event>
<event>
 7    1  0.1870911E-009  0.4778727E+02  0.7816164E-02  0.1312668E+00
        -11   -1    0    0    0    0  0.00000000000E+00  0.00000000000E+00  0.45593999997E+02  0.45594000000E+02  0.51100000000E-03 0.  1.
         11   -1    0    0    0    0 -0.00000000000E+00 -0.00000000000E+00 -0.45593999997E+02  0.45594000000E+02  0.51100000000E-03 0. -1.
    9900012    2    1    2    0    0  0.38230741912E+02 -0.76898060961E+00 -0.20529067426E+02  0.47787267659E+02  0.19999984566E+02 0.  0.
        -12    1    1    2    0    0 -0.38230741912E+02  0.76898060961E+00  0.20529067426E+02  0.43400732341E+02  0.00000000000E+00 0.  1.
         11    1    3    3    0    0  0.15828400514E+02 -0.31826342583E+01 -0.24281314609E+01  0.16326764723E+02  0.51100000000E-03 0. -1.
        -11    1    3    3    0    0 -0.12917258341E+01 -0.70294652574E+00 -0.25639663967E+01  0.29557762759E+01  0.51100000000E-03 0.  1.
         12    1    3    3    0    0  0.23694067232E+02  0.31166001745E+01 -0.15536969568E+02  0.28504726661E+02  0.00000000000E+00 0. -1.
</event>
<event>
 7    1  0.1400974E-009  0.4778727E+02  0.7816164E-02  0.1312668E+00
        -11   -1    0    0    0    0  0.00000000000E+00  0.00000000000E+00  0.45593999997E+02  0.45594000000E+02  0.51100000000E-03 0. -1.
         11   -1    0    0    0    0 -0.00000000000E+00 -0.00000000000E+00 -0.45593999997E+02  0.45594000000E+02  0.51100000000E-03 0.  1.
    9900012    2    1    2    0    0 -0.11077245905E+02  0.34135703287E+02  0.24406391197E+02  0.47787267898E+02  0.19999985656E+02 0.  0.
        -12    1    1    2    0    0  0.11077245905E+02 -0.34135703287E+02 -0.24406391197E+02  0.43400732102E+02  0.00000000000E+00 0.  1.
         11    1    3    3    0    0 -0.65739753833E+00  0.31875042349E+01 -0.73096859589E+00  0.33356663682E+01  0.51100000000E-03 0. -1.
        -11    1    3    3    0    0 -0.11749527738E+02  0.24921158954E+02  0.26392418675E+02  0.38153313479E+02  0.51100000000E-03 0.  1.
        -12    1    3    3    0    0  0.13296793710E+01  0.60270400981E+01 -0.12550588826E+01  0.62982880509E+01  0.00000000000E+00 0.  1.
</event>
<event>
 7    1  0.1400974E-009  0.4778727E+02  0.7816164E-02  0.1312668E+00
        -11   -1    0    0    0    0  0.00000000000E+00  0.00000000000E+00  0.45593999997E+02  0.45594000000E+02  0.51100000000E-03 0.  1.
         11   -1    0    0    0    0 -0.00000000000E+00 -0.00000000000E+00 -0.45593999997E+02  0.45594000000E+02  0.51100000000E-03 0. -1.
    9900012    2    1    2    0    0 -0.37049541145E+02 -0.22597722132E+02 -0.54570587722E+00  0.47787270289E+02  0.19999996554E+02 0.  0.
        -12    1    1    2    0    0  0.37049541145E+02  0.22597722132E+02  0.54570587722E+00  0.43400729711E+02  0.00000000000E+00 0.  1.
         11    1    3    3    0    0 -0.20820398366E+02 -0.16303393622E+02  0.33478776069E+01  0.26655166787E+02  0.51100000000E-03 0. -1.
        -11    1    3    3    0    0  0.16488955527E+01 -0.43783980270E+00  0.56681777753E+00  0.17977327083E+01  0.51100000000E-03 0.  1.
         12    1    3    3    0    0 -0.17878038331E+02 -0.58564887072E+01 -0.44604012617E+01  0.19334370793E+02  0.00000000000E+00 0. -1.
</event>
<event>
 7    1  0.1400974E-009  0.4778727E+02  0.7816164E-02  0.1312668E+00
        -11   -1    0    0    0    0  0.00000000000E+00  0.00000000000E+00  0.45593999997E+02  0.45594000000E+02  0.51100000000E-03 0.  1.
         11   -1    0    0    0    0 -0.00000000000E+00 -0.00000000000E+00 -0.45593999997E+02  0.45594000000E+02  0.51100000000E-03 0. -1.
    9900012    2    1    2    0    0 -0.17493397353E+02 -0.35531511219E+02 -0.17751502431E+02  0.47787273290E+02  0.20000010236E+02 0.  0.
        -12    1    1    2    0    0  0.17493397353E+02  0.35531511219E+02  0.17751502431E+02  0.43400726710E+02  0.00000000000E+00 0.  1.
         11    1    3    3    0    0 -0.18365031688E+02 -0.18810792838E+02 -0.14778456909E+02  0.30158300764E+02  0.51100000000E-03 0. -1.
        -11    1    3    3    0    0  0.97933378528E+00 -0.12357028745E+01  0.68227904348E+00  0.17180108298E+01  0.51100000000E-03 0.  1.
         12    1    3    3    0    0 -0.10769944984E+00 -0.15485015507E+02 -0.36553245655E+01  0.15910961696E+02  0.00000000000E+00 0. -1.
</event>
<event>
 7    1  0.1400974E-009  0.4778727E+02  0.7816164E-02  0.1312668E+00
        -11   -1    0    0    0    0  0.00000000000E+00  0.00000000000E+00  0.45593999997E+02  0.45594000000E+02  0.51100000000E-03 0.  1.
         11   -1    0    0    0    0 -0.00000000000E+00 -0.00000000000E+00 -0.45593999997E+02  0.45594000000E+02  0.51100000000E-03 0. -1.
    9900012    2    1    2    0    0 -0.43256681804E+02  0.21967809502E+01 -0.27671628800E+01  0.47787267776E+02  0.19999985096E+02 0.  0.
        -12    1    1    2    0    0  0.43256681804E+02 -0.21967809502E+01  0.27671628800E+01  0.43400732224E+02  0.00000000000E+00 0.  1.
         11    1    3    3    0    0 -0.17896254047E+02 -0.41915054145E+01  0.40977096587E+01  0.18831777698E+02  0.51100000000E-03 0. -1.
        -11    1    3    3    0    0 -0.48908767450E+01 -0.11064132132E+01 -0.49937140208E+01  0.70768641019E+01  0.51100000000E-03 0.  1.
         12    1    3    3    0    0 -0.20469551011E+02  0.74946995779E+01 -0.18711585179E+01  0.21878625975E+02  0.00000000000E+00 0. -1.
</event>
<event>
 7    1  0.1400974E-009  0.4778727E+02  0.7816164E-02  0.1312668E+00
        -11   -1    0    0    0    0  0.00000000000E+00  0.00000000000E+00  0.45593999997E+02  0.45594000000E+02  0.51100000000E-03 0.  1.
         11   -1    0    0    0    0 -0.00000000000E+00 -0.00000000000E+00 -0.45593999997E+02  0.45594000000E+02  0.51100000000E-03 0. -1.
    9900012    2    1    2    0    0  0.41235796122E+02  0.12148184678E+02 -0.59711136098E+01  0.47787268779E+02  0.19999989670E+02 0.  0.
        -12    1    1    2    0    0 -0.41235796122E+02 -0.12148184678E+02  0.59711136098E+01  0.43400731221E+02  0.00000000000E+00 0.  1.
         11    1    3    3    0    0  0.29971969904E+02  0.22430990661E+01 -0.75329389367E+01  0.30985410157E+02  0.51100000000E-03 0. -1.
        -11    1    3    3    0    0  0.23578266698E+01  0.38420018303E+01 -0.26555993497E+01  0.52318766075E+01  0.51100000000E-03 0.  1.
        -12    1    3    3    0    0  0.89059995484E+01  0.60630837821E+01  0.42174246766E+01  0.11569982014E+02  0.00000000000E+00 0.  1.
</event>
<event>
 7    1  0.1400974E-009  0.4778727E+02  0.7816164E-02  0.1312668E+00
        -11   -1    0    0    0    0  0.00000000000E+00  0.00000000000E+00  0.45593999997E+02  0.45594000000E+02  0.51100000000E-03 0. -1.
         11   -1    0    0    0    0 -0.00000000000E+00 -0.00000000000E+00 -0.45593999997E+02  0.45594000000E+02  0.51100000000E-03 0.  1.
    9900012    2    1    2    0    0 -0.36366342654E+02  0.14112792763E+02  0.19024755170E+02  0.47787272968E+02  0.20000008770E+02 0.  0.
        -12    1    1    2    0    0  0.36366342654E+02 -0.14112792763E+02 -0.19024755170E+02  0.43400727032E+02  0.00000000000E+00 0.  1.
         11    1    3    3    0    0 -0.15879516252E+02  0.17334490938E+01  0.39305597543E+01  0.16450324690E+02  0.51100000000E-03 0.  1.
        -11    1    3    3    0    0 -0.16603606972E+02  0.67092389289E+01  0.16467824321E+02  0.24328643399E+02  0.51100000000E-03 0. -1.
         12    1    3    3    0    0 -0.38832194299E+01  0.56701047408E+01 -0.13736289048E+01  0.70083048792E+01  0.00000000000E+00 0. -1.
</event>
<event>
 7    1  0.1400974E-009  0.4778726E+02  0.7816164E-02  0.1312668E+00
        -11   -1    0    0    0    0  0.00000000000E+00  0.00000000000E+00  0.45593999997E+02  0.45594000000E+02  0.51100000000E-03 0.  1.
         11   -1    0    0    0    0 -0.00000000000E+00 -0.00000000000E+00 -0.45593999997E+02  0.45594000000E+02  0.51100000000E-03 0. -1.
    9900012    2    1    2    0    0  0.35049915029E+02  0.10104306888E+02 -0.23516611823E+02  0.47787255849E+02  0.19999930720E+02 0.  0.
        -12    1    1    2    0    0 -0.35049915029E+02 -0.10104306888E+02  0.23516611823E+02  0.43400744151E+02  0.00000000000E+00 0.  1.
         11    1    3    3    0    0  0.19953336732E+02  0.53126194765E+01 -0.11619273178E+02  0.23693186403E+02  0.51100000000E-03 0. -1.
        -11    1    3    3    0    0  0.76779186295E+01  0.27134914354E+01  0.18356405887E+01  0.83476372037E+01  0.51100000000E-03 0.  1.
        -12    1    3    3    0    0  0.74186596666E+01  0.20781959763E+01 -0.13732979233E+02  0.15746432243E+02  0.00000000000E+00 0.  1.
</event>
<event>
 7    1  0.1400974E-009  0.4778727E+02  0.7816164E-02  0.1312668E+00
        -11   -1    0    0    0    0  0.00000000000E+00  0.00000000000E+00  0.45593999997E+02  0.45594000000E+02  0.51100000000E-03 0.  1.
         11   -1    0    0    0    0 -0.00000000000E+00 -0.00000000000E+00 -0.45593999997E+02  0.45594000000E+02  0.51100000000E-03 0. -1.
    9900012    2    1    2    0    0  0.24237849681E+02 -0.22632052540E+02 -0.27998929831E+02  0.47787271539E+02  0.20000002253E+02 0.  0.
        -12    1    1    2    0    0 -0.24237849681E+02  0.22632052540E+02  0.27998929831E+02  0.43400728461E+02  0.00000000000E+00 0.  1.
         11    1    3    3    0    0  0.52453185210E+01 -0.50764263359E+01 -0.15088601191E+02  0.16761543989E+02  0.51100000000E-03 0. -1.
        -11    1    3    3    0    0  0.97755860878E-01 -0.44883538005E+01  0.34511456214E+00  0.45026636971E+01  0.51100000000E-03 0.  1.
        -12    1    3    3    0    0  0.18894775299E+02 -0.13067272403E+02 -0.13255443202E+02  0.26523063853E+02  0.00000000000E+00 0.  1.
</event>
<event>
 7    1  0.1400974E-009  0.4778727E+02  0.7816164E-02  0.1312668E+00
        -11   -1    0    0    0    0  0.00000000000E+00  0.00000000000E+00  0.45593999997E+02  0.45594000000E+02  0.51100000000E-03 0.  1.
         11   -1    0    0    0    0 -0.00000000000E+00 -0.00000000000E+00 -0.45593999997E+02  0.45594000000E+02  0.51100000000E-03 0. -1.
    9900012    2    1    2    0    0 -0.42720958880E+02 -0.37644172661E+01 -0.66612608123E+01  0.47787267742E+02  0.19999984941E+02 0.  0.
        -12    1    1    2    0    0  0.42720958880E+02  0.37644172661E+01  0.66612608123E+01  0.43400732258E+02  0.00000000000E+00 0.  1.
         11    1    3    3    0    0 -0.89266782523E+01 -0.29373568262E+01  0.38185090918E+01  0.10143700591E+02  0.51100000000E-03 0.  1.
        -11    1    3    3    0    0 -0.30397135896E+02  0.33590754680E+01 -0.75190480214E+01  0.31492941147E+02  0.51100000000E-03 0. -1.
         12    1    3    3    0    0 -0.33971447319E+01 -0.41861359080E+01 -0.29607218827E+01  0.61506260036E+01  0.00000000000E+00 0. -1.
</event>
<event>
 7    1  0.1400974E-009  0.4778728E+02  0.7816164E-02  0.1312668E+00
        -11   -1    0    0    0    0  0.00000000000E+00  0.00000000000E+00  0.45593999997E+02  0.45594000000E+02  0.51100000000E-03 0.  1.
         11   -1    0    0    0    0 -0.00000000000E+00 -0.00000000000E+00 -0.45593999997E+02  0.45594000000E+02  0.51100000000E-03 0. -1.
    9900012    2    1    2    0    0 -0.69888316027E+01  0.24625821382E+02 -0.35047793008E+02  0.47787278339E+02  0.20000033260E+02 0.  0.
        -12    1    1    2    0    0  0.69888316027E+01 -0.24625821382E+02  0.35047793008E+02  0.43400721661E+02  0.00000000000E+00 0.  1.
         11    1    3    3    0    0 -0.57000133297E+01  0.13052657564E+02 -0.23151672205E+02  0.27182015149E+02  0.51100000000E-03 0. -1.
        -11    1    3    3    0    0 -0.63113274344E+01  0.52997771148E+01 -0.34133025071E+01  0.89202648905E+01  0.51100000000E-03 0.  1.
        -12    1    3    3    0    0  0.50225091614E+01  0.62733867039E+01 -0.84828182962E+01  0.11684998299E+02  0.00000000000E+00 0.  1.
</event>
<event>
 7    1  0.1400974E-009  0.4778728E+02  0.7816164E-02  0.1312668E+00
        -11   -1    0    0    0    0  0.00000000000E+00  0.00000000000E+00  0.45593999997E+02  0.45594000000E+02  0.51100000000E-03 0. -1.
         11   -1    0    0    0    0 -0.00000000000E+00 -0.00000000000E+00 -0.45593999997E+02  0.45594000000E+02  0.51100000000E-03 0.  1.
    9900012    2    1    2    0    0 -0.34429496836E+02  0.16833104106E+02  0.20368568201E+02  0.47787283222E+02  0.20000055524E+02 0.  0.
        -12    1    1    2    0    0  0.34429496836E+02 -0.16833104106E+02 -0.20368568201E+02  0.43400716778E+02  0.00000000000E+00 0.  1.
         11    1    3    3    0    0 -0.77104726114E+01  0.22552830846E+00  0.70621322377E+01  0.10458296368E+02  0.51100000000E-03 0. -1.
        -11    1    3    3    0    0  0.31291026410E+00  0.45676654017E+01 -0.62645528266E+00  0.46210308955E+01  0.51100000000E-03 0.  1.
         12    1    3    3    0    0 -0.27031934489E+02  0.12039910396E+02  0.13932891246E+02  0.32707955959E+02  0.00000000000E+00 0. -1.
</event>
<event>
 7    1  0.1400974E-009  0.4778727E+02  0.7816164E-02  0.1312668E+00
        -11   -1    0    0    0    0  0.00000000000E+00  0.00000000000E+00  0.45593999997E+02  0.45594000000E+02  0.51100000000E-03 0.  1.
         11   -1    0    0    0    0 -0.00000000000E+00 -0.00000000000E+00 -0.45593999997E+02  0.45594000000E+02  0.51100000000E-03 0. -1.
    9900012    2    1    2    0    0 -0.49025950855E+01  0.39908288140E+02 -0.16337565097E+02  0.47787274958E+02  0.20000017843E+02 0.  0.
        -12    1    1    2    0    0  0.49025950855E+01 -0.39908288140E+02  0.16337565097E+02  0.43400725042E+02  0.00000000000E+00 0.  1.
         11    1    3    3    0    0 -0.23733451620E+01  0.62987206138E+01 -0.58873461646E+01  0.89424545708E+01  0.51100000000E-03 0. -1.
        -11    1    3    3    0    0  0.63204641354E+01  0.21424021650E+02 -0.56874192583E+01  0.23049592374E+02  0.51100000000E-03 0.  1.
        -12    1    3    3    0    0 -0.88497140589E+01  0.12185545877E+02 -0.47627996743E+01  0.15795228013E+02  0.00000000000E+00 0.  1.
</event>
<event>
 7    1  0.1400974E-009  0.4778727E+02  0.7816164E-02  0.1312668E+00
        -11   -1    0    0    0    0  0.00000000000E+00  0.00000000000E+00  0.45593999997E+02  0.45594000000E+02  0.51100000000E-03 0.  1.
         11   -1    0    0    0    0 -0.00000000000E+00 -0.00000000000E+00 -0.45593999997E+02  0.45594000000E+02  0.51100000000E-03 0. -1.
    9900012    2    1    2    0    0  0.13082240183E+02  0.27464171586E+02 -0.30954764263E+02  0.47787272360E+02  0.20000005996E+02 0.  0.
        -12    1    1    2    0    0 -0.13082240183E+02 -0.27464171586E+02  0.30954764263E+02  0.43400727640E+02  0.00000000000E+00 0.  1.
         11    1    3    3    0    0  0.10020533614E+01  0.18749393263E+02 -0.13695681533E+02  0.23240386219E+02  0.51100000000E-03 0.  1.
        -11    1    3    3    0    0  0.11238514794E+02  0.10556565536E+02 -0.14968908516E+02  0.21489846745E+02  0.51100000000E-03 0. -1.
        -12    1    3    3    0    0  0.84167202769E+00 -0.18417872128E+01 -0.22901742138E+01  0.30570393961E+01  0.00000000000E+00 0.  1.
</event>
<event>
 7    1  0.1400974E-009  0.4778727E+02  0.7816164E-02  0.1312668E+00
        -11   -1    0    0    0    0  0.00000000000E+00  0.00000000000E+00  0.45593999997E+02  0.45594000000E+02  0.51100000000E-03 0.  1.
         11   -1    0    0    0    0 -0.00000000000E+00 -0.00000000000E+00 -0.45593999997E+02  0.45594000000E+02  0.51100000000E-03 0. -1.
    9900012    2    1    2    0    0 -0.12530566397E+02 -0.13420726630E+02 -0.39325462201E+02  0.47787274490E+02  0.20000015709E+02 0.  0.
        -12    1    1    2    0    0  0.12530566397E+02  0.13420726630E+02  0.39325462201E+02  0.43400725510E+02  0.00000000000E+00 0.  1.
         11    1    3    3    0    0 -0.10281222583E+01 -0.12197201036E+02 -0.24629868764E+02  0.27503803084E+02  0.51100000000E-03 0. -1.
        -11    1    3    3    0    0 -0.32186560417E+01 -0.20925668659E+01 -0.56459900340E+00  0.38803807931E+01  0.51100000000E-03 0.  1.
         12    1    3    3    0    0 -0.82837880970E+01  0.86904127252E+00 -0.14130994433E+02  0.16403090612E+02  0.00000000000E+00 0. -1.
</event>
<event>
 7    1  0.1494427E-009  0.4778727E+02  0.7816164E-02  0.1312668E+00
        -11   -1    0    0    0    0  0.00000000000E+00  0.00000000000E+00  0.45593999997E+02  0.45594000000E+02  0.51100000000E-03 0. -1.
         11   -1    0    0    0    0 -0.00000000000E+00 -0.00000000000E+00 -0.45593999997E+02  0.45594000000E+02  0.51100000000E-03 0.  1.
    9900012    2    1    2    0    0 -0.12027686528E+02  0.18342961632E+02  0.37449884764E+02  0.47787270127E+02  0.19999995817E+02 0.  0.
        -12    1    1    2    0    0  0.12027686528E+02 -0.18342961632E+02 -0.37449884764E+02  0.43400729873E+02  0.00000000000E+00 0.  1.
         11    1    3    3    0    0 -0.89430625788E+01  0.11476538022E+01  0.78386151408E+01  0.11947358081E+02  0.51100000000E-03 0. -1.
        -11    1    3    3    0    0  0.74389136647E+00  0.70755786702E+01  0.42999985509E+01  0.83130725777E+01  0.51100000000E-03 0.  1.
         12    1    3    3    0    0 -0.38285153157E+01  0.10119729160E+02  0.25311271073E+02  0.27526839468E+02  0.00000000000E+00 0. -1.
</event>
<event>
 7    1  0.1400974E-009  0.4778727E+02  0.7816164E-02  0.1312668E+00
        -11   -1    0    0    0    0  0.00000000000E+00  0.00000000000E+00  0.45593999997E+02  0.45594000000E+02  0.51100000000E-03 0.  1.
         11   -1    0    0    0    0 -0.00000000000E+00 -0.00000000000E+00 -0.45593999997E+02  0.45594000000E+02  0.51100000000E-03 0. -1.
    9900012    2    1    2    0    0 -0.34509770524E+02 -0.16225323144E+01 -0.26269115262E+02  0.47787270866E+02  0.19999999185E+02 0.  0.
        -12    1    1    2    0    0  0.34509770524E+02  0.16225323144E+01  0.26269115262E+02  0.43400729134E+02  0.00000000000E+00 0.  1.
         11    1    3    3    0    0 -0.15505064137E+01  0.29001016131E+01 -0.22154356662E+01  0.39652004939E+01  0.51100000000E-03 0.  1.
        -11    1    3    3    0    0 -0.29019904470E+02 -0.92580290653E+01 -0.19622900184E+02  0.36234295488E+02  0.51100000000E-03 0. -1.
         12    1    3    3    0    0 -0.39393596404E+01  0.47353951378E+01 -0.44307794124E+01  0.75877748839E+01  0.00000000000E+00 0. -1.
</event>
<event>
 7    1  0.1400974E-009  0.4778727E+02  0.7816164E-02  0.1312668E+00
        -11   -1    0    0    0    0  0.00000000000E+00  0.00000000000E+00  0.45593999997E+02  0.45594000000E+02  0.51100000000E-03 0.  1.
         11   -1    0    0    0    0 -0.00000000000E+00 -0.00000000000E+00 -0.45593999997E+02  0.45594000000E+02  0.51100000000E-03 0. -1.
    9900012    2    1    2    0    0  0.36860746434E+02  0.12152455541E+01 -0.22878630526E+02  0.47787272078E+02  0.20000004710E+02 0.  0.
        -12    1    1    2    0    0 -0.36860746434E+02 -0.12152455541E+01  0.22878630526E+02  0.43400727922E+02  0.00000000000E+00 0.  1.
         11    1    3    3    0    0  0.70652706132E+01  0.10659054971E+01 -0.10661104125E+02  0.12834069689E+02  0.51100000000E-03 0. -1.
        -11    1    3    3    0    0  0.29001977295E+02  0.28347010030E+01 -0.13193579000E+02  0.31987821806E+02  0.51100000000E-03 0.  1.
        -12    1    3    3    0    0  0.79349852544E+00 -0.26853609460E+01  0.97605259868E+00  0.29653805820E+01  0.00000000000E+00 0.  1.
</event>
<event>
 7    1  0.1400974E-009  0.4778727E+02  0.7816164E-02  0.1312668E+00
        -11   -1    0    0    0    0  0.00000000000E+00  0.00000000000E+00  0.45593999997E+02  0.45594000000E+02  0.51100000000E-03 0.  1.
         11   -1    0    0    0    0 -0.00000000000E+00 -0.00000000000E+00 -0.45593999997E+02  0.45594000000E+02  0.51100000000E-03 0. -1.
    9900012    2    1    2    0    0  0.29121852476E+02  0.30910882637E+02 -0.89475325923E+01  0.47787270784E+02  0.19999998811E+02 0.  0.
        -12    1    1    2    0    0 -0.29121852476E+02 -0.30910882637E+02  0.89475325923E+01  0.43400729216E+02  0.00000000000E+00 0.  1.
         11    1    3    3    0    0  0.11579111656E+01  0.95676306035E+01 -0.77023613468E-01  0.96377511137E+01  0.51100000000E-03 0. -1.
        -11    1    3    3    0    0  0.83416704636E-01  0.13658009576E+01 -0.30731404374E+01  0.33640099601E+01  0.51100000000E-03 0.  1.
         12    1    3    3    0    0  0.27880524605E+02  0.19977451076E+02 -0.57973685414E+01  0.34785509710E+02  0.00000000000E+00 0. -1.
</event>
<event>
 7    1  0.1400974E-009  0.4778726E+02  0.7816164E-02  0.1312668E+00
        -11   -1    0    0    0    0  0.00000000000E+00  0.00000000000E+00  0.45593999997E+02  0.45594000000E+02  0.51100000000E-03 0.  1.
         11   -1    0    0    0    0 -0.00000000000E+00 -0.00000000000E+00 -0.45593999997E+02  0.45594000000E+02  0.51100000000E-03 0. -1.
    9900012    2    1    2    0    0 -0.20734642394E+02  0.30338326690E+02 -0.23092954728E+02  0.47787262454E+02  0.19999960831E+02 0.  0.
        -12    1    1    2    0    0  0.20734642394E+02 -0.30338326690E+02  0.23092954728E+02  0.43400737546E+02  0.00000000000E+00 0.  1.
         11    1    3    3    0    0 -0.92893637633E+01  0.60581174492E+01 -0.37358474100E+01  0.11702547684E+02  0.51100000000E-03 0. -1.
        -11    1    3    3    0    0 -0.28708346822E+01  0.78991507695E+01 -0.14834843562E+02  0.17050245113E+02  0.51100000000E-03 0.  1.
        -12    1    3    3    0    0 -0.85744439480E+01  0.16381058471E+02 -0.45222637561E+01  0.19034469657E+02  0.00000000000E+00 0.  1.
</event>
<event>
 7    1  0.1400974E-009  0.4778728E+02  0.7816164E-02  0.1312668E+00
        -11   -1    0    0    0    0  0.00000000000E+00  0.00000000000E+00  0.45593999997E+02  0.45594000000E+02  0.51100000000E-03 0. -1.
         11   -1    0    0    0    0 -0.00000000000E+00 -0.00000000000E+00 -0.45593999997E+02  0.45594000000E+02  0.51100000000E-03 0.  1.
    9900012    2    1    2    0    0 -0.40925095020E+01 -0.16663291337E+02  0.39864876760E+02  0.47787282134E+02  0.20000050563E+02 0.  0.
        -12    1    1    2    0    0  0.40925095020E+01  0.16663291337E+02 -0.39864876760E+02  0.43400717866E+02  0.00000000000E+00 0.  1.
         11    1    3    3    0    0 -0.41246026915E+01 -0.16186579059E+02  0.29417997659E+02  0.33829517814E+02  0.51100000000E-03 0. -1.
        -11    1    3    3    0    0  0.21921094272E+01 -0.40701613967E+01  0.33289143304E+01  0.56967735093E+01  0.51100000000E-03 0.  1.
        -12    1    3    3    0    0 -0.21600162378E+01  0.35934491186E+01  0.71179647703E+01  0.82609908115E+01  0.00000000000E+00 0.  1.
</event>
<event>
 7    1  0.1400974E-009  0.4778726E+02  0.7816164E-02  0.1312668E+00
        -11   -1    0    0    0    0  0.00000000000E+00  0.00000000000E+00  0.45593999997E+02  0.45594000000E+02  0.51100000000E-03 0.  1.
         11   -1    0    0    0    0 -0.00000000000E+00 -0.00000000000E+00 -0.45593999997E+02  0.45594000000E+02  0.51100000000E-03 0. -1.
    9900012    2    1    2    0    0  0.11877619693E+02 -0.10735059470E+02 -0.40339865947E+02  0.47787261112E+02  0.19999954715E+02 0.  0.
        -12    1    1    2    0    0 -0.11877619693E+02  0.10735059470E+02  0.40339865947E+02  0.43400738888E+02  0.00000000000E+00 0.  1.
         11    1    3    3    0    0  0.44299452170E+01 -0.10427607016E+01 -0.10156338062E+00  0.45521511275E+01  0.51100000000E-03 0.  1.
        -11    1    3    3    0    0  0.16323825347E+01  0.14496973348E+01 -0.13679330008E+02  0.13852449777E+02  0.51100000000E-03 0. -1.
        -12    1    3    3    0    0  0.58152919414E+01 -0.11141996103E+02 -0.26558972558E+02  0.29382660208E+02  0.00000000000E+00 0.  1.
</event>
<event>
 7    1  0.1400974E-009  0.4778727E+02  0.7816164E-02  0.1312668E+00
        -11   -1    0    0    0    0  0.00000000000E+00  0.00000000000E+00  0.45593999997E+02  0.45594000000E+02  0.51100000000E-03 0.  1.
         11   -1    0    0    0    0 -0.00000000000E+00 -0.00000000000E+00 -0.45593999997E+02  0.45594000000E+02  0.51100000000E-03 0. -1.
    9900012    2    1    2    0    0  0.38026209896E+02 -0.15696306695E+02 -0.13829561984E+02  0.47787268813E+02  0.19999989826E+02 0.  0.
        -12    1    1    2    0    0 -0.38026209896E+02  0.15696306695E+02  0.13829561984E+02  0.43400731187E+02  0.00000000000E+00 0.  1.
         11    1    3    3    0    0  0.59095821043E+01  0.30112452380E+01  0.26287962055E+01  0.71345166817E+01  0.51100000000E-03 0.  1.
        -11    1    3    3    0    0  0.11595049362E+02 -0.64424067734E+01 -0.58463846621E+01  0.14495861086E+02  0.51100000000E-03 0. -1.
        -12    1    3    3    0    0  0.20521578430E+02 -0.12265145159E+02 -0.10611973527E+02  0.26156891046E+02  0.00000000000E+00 0.  1.
</event>
<event>
 7    1  0.1400974E-009  0.4778727E+02  0.7816164E-02  0.1312668E+00
        -11   -1    0    0    0    0  0.00000000000E+00  0.00000000000E+00  0.45593999997E+02  0.45594000000E+02  0.51100000000E-03 0.  1.
         11   -1    0    0    0    0 -0.00000000000E+00 -0.00000000000E+00 -0.45593999997E+02  0.45594000000E+02  0.51100000000E-03 0. -1.
    9900012    2    1    2    0    0  0.17177165458E+02 -0.39142411843E+02 -0.75126508025E+01  0.47787270281E+02  0.19999996517E+02 0.  0.
        -12    1    1    2    0    0 -0.17177165458E+02  0.39142411843E+02  0.75126508025E+01  0.43400729719E+02  0.00000000000E+00 0.  1.
         11    1    3    3    0    0 -0.31454650941E+00 -0.42891277424E+00 -0.53906519532E+00  0.75729599260E+00  0.51100000000E-03 0. -1.
        -11    1    3    3    0    0  0.44826124599E+01 -0.45706679942E+01  0.54816528718E+01  0.84281278376E+01  0.51100000000E-03 0.  1.
         12    1    3    3    0    0  0.13009099507E+02 -0.34142831075E+02 -0.12455238479E+02  0.38601846450E+02  0.00000000000E+00 0. -1.
</event>
<event>
 7    1  0.1400974E-009  0.4778725E+02  0.7816164E-02  0.1312668E+00
        -11   -1    0    0    0    0  0.00000000000E+00  0.00000000000E+00  0.45593999997E+02  0.45594000000E+02  0.51100000000E-03 0.  1.
         11   -1    0    0    0    0 -0.00000000000E+00 -0.00000000000E+00 -0.45593999997E+02  0.45594000000E+02  0.51100000000E-03 0. -1.
    9900012    2    1    2    0    0  0.95175484150E+01 -0.42264259881E+02  0.26027109211E+01  0.47787245452E+02  0.19999883315E+02 0.  0.
        -12    1    1    2    0    0 -0.95175484150E+01  0.42264259881E+02 -0.26027109211E+01  0.43400754548E+02  0.00000000000E+00 0.  1.
         11    1    3    3    0    0 -0.21155444368E+01 -0.22172452751E+02  0.49651201781E-01  0.22273204861E+02  0.51100000000E-03 0. -1.
        -11    1    3    3    0    0  0.90155238155E+01 -0.14686738815E+02  0.63987605710E+01  0.18382712090E+02  0.51100000000E-03 0.  1.
         12    1    3    3    0    0  0.26175690363E+01 -0.54050683153E+01 -0.38457008517E+01  0.71313285013E+01  0.00000000000E+00 0. -1.
</event>
<event>
 7    1  0.1400974E-009  0.4778728E+02  0.7816164E-02  0.1312668E+00
        -11   -1    0    0    0    0  0.00000000000E+00  0.00000000000E+00  0.45593999997E+02  0.45594000000E+02  0.51100000000E-03 0. -1.
         11   -1    0    0    0    0 -0.00000000000E+00 -0.00000000000E+00 -0.45593999997E+02  0.45594000000E+02  0.51100000000E-03 0.  1.
    9900012    2    1    2    0    0 -0.28323881432E+02 -0.30325456922E+02  0.12717986415E+02  0.47787276788E+02  0.20000026185E+02 0.  0.
        -12    1    1    2    0    0  0.28323881432E+02  0.30325456922E+02 -0.12717986415E+02  0.43400723212E+02  0.00000000000E+00 0.  1.
         11    1    3    3    0    0 -0.61794035987E+01 -0.10384799885E+02  0.49097657036E+01  0.13043576849E+02  0.51100000000E-03 0. -1.
        -11    1    3    3    0    0 -0.21302275254E+02 -0.21139351558E+02  0.10403859921E+02  0.31763177058E+02  0.51100000000E-03 0.  1.
        -12    1    3    3    0    0 -0.84220257928E+00  0.11986945208E+01 -0.25956392093E+01  0.29805228809E+01  0.00000000000E+00 0.  1.
</event>
<event>
 7    1  0.1400974E-009  0.4778727E+02  0.7816164E-02  0.1312668E+00
        -11   -1    0    0    0    0  0.00000000000E+00  0.00000000000E+00  0.45593999997E+02  0.45594000000E+02  0.51100000000E-03 0.  1.
         11   -1    0    0    0    0 -0.00000000000E+00 -0.00000000000E+00 -0.45593999997E+02  0.45594000000E+02  0.51100000000E-03 0. -1.
    9900012    2    1    2    0    0  0.19648175869E+02  0.25770194139E+02 -0.28869873133E+02  0.47787270794E+02  0.19999998857E+02 0.  0.
        -12    1    1    2    0    0 -0.19648175869E+02 -0.25770194139E+02  0.28869873133E+02  0.43400729206E+02  0.00000000000E+00 0.  1.
         11    1    3    3    0    0  0.10856036924E+02  0.15015970638E+02 -0.11310534317E+02  0.21708548977E+02  0.51100000000E-03 0. -1.
        -11    1    3    3    0    0  0.12074631168E+02  0.87383315295E+01 -0.11200858523E+02  0.18644419747E+02  0.51100000000E-03 0.  1.
        -12    1    3    3    0    0 -0.32824922233E+01  0.20158919717E+01 -0.63584802928E+01  0.74343020702E+01  0.00000000000E+00 0.  1.
</event>
<event>
 7    1  0.1400974E-009  0.4778727E+02  0.7816164E-02  0.1312668E+00
        -11   -1    0    0    0    0  0.00000000000E+00  0.00000000000E+00  0.45593999997E+02  0.45594000000E+02  0.51100000000E-03 0.  1.
         11   -1    0    0    0    0 -0.00000000000E+00 -0.00000000000E+00 -0.45593999997E+02  0.45594000000E+02  0.51100000000E-03 0. -1.
    9900012    2    1    2    0    0  0.31888091198E+02 -0.26694661454E+02 -0.12416433151E+02  0.47787272787E+02  0.20000007945E+02 0.  0.
        -12    1    1    2    0    0 -0.31888091198E+02  0.26694661454E+02  0.12416433151E+02  0.43400727213E+02  0.00000000000E+00 0.  1.
         11    1    3    3    0    0  0.18892780556E+02 -0.78792356586E+01 -0.32779021968E+01  0.20730753840E+02  0.51100000000E-03 0. -1.
        -11    1    3    3    0    0  0.20175423727E+01 -0.19309239564E+01 -0.60739966714E+01  0.66852360001E+01  0.51100000000E-03 0.  1.
        -12    1    3    3    0    0  0.10977768270E+02 -0.16884501839E+02 -0.30645342832E+01  0.20371282947E+02  0.00000000000E+00 0.  1.
</event>
<event>
 7    1  0.1400974E-009  0.4778727E+02  0.7816164E-02  0.1312668E+00
        -11   -1    0    0    0    0  0.00000000000E+00  0.00000000000E+00  0.45593999997E+02  0.45594000000E+02  0.51100000000E-03 0.  1.
         11   -1    0    0    0    0 -0.00000000000E+00 -0.00000000000E+00 -0.45593999997E+02  0.45594000000E+02  0.51100000000E-03 0. -1.
    9900012    2    1    2    0    0 -0.36743650553E+02  0.78954701659E+01 -0.21706885378E+02  0.47787272150E+02  0.20000005042E+02 0.  0.
        -12    1    1    2    0    0  0.36743650553E+02 -0.78954701659E+01  0.21706885378E+02  0.43400727850E+02  0.00000000000E+00 0.  1.
         11    1    3    3    0    0 -0.24722415650E+02  0.13307356335E+02 -0.10014635270E+02  0.29809000118E+02  0.51100000000E-03 0. -1.
        -11    1    3    3    0    0 -0.65498541363E+01 -0.99623195183E+00 -0.55793312697E+01  0.86615244031E+01  0.51100000000E-03 0.  1.
         12    1    3    3    0    0 -0.54713807663E+01 -0.44156542172E+01 -0.61129188385E+01  0.93167476290E+01  0.00000000000E+00 0. -1.
</event>
<event>
 7    1  0.1400974E-009  0.4778727E+02  0.7816164E-02  0.1312668E+00
        -11   -1    0    0    0    0  0.00000000000E+00  0.00000000000E+00  0.45593999997E+02  0.45594000000E+02  0.51100000000E-03 0. -1.
         11   -1    0    0    0    0 -0.00000000000E+00 -0.00000000000E+00 -0.45593999997E+02  0.45594000000E+02  0.51100000000E-03 0.  1.
    9900012    2    1    2    0    0 -0.15491928584E+02  0.62367524753E+01  0.40059032636E+02  0.47787273872E+02  0.20000012891E+02 0.  0.
        -12    1    1    2    0    0  0.15491928584E+02 -0.62367524753E+01 -0.40059032636E+02  0.43400726128E+02  0.00000000000E+00 0.  1.
         11    1    3    3    0    0 -0.50648416691E+00 -0.42871881026E+01  0.35538370323E+01  0.55916246255E+01  0.51100000000E-03 0. -1.
        -11    1    3    3    0    0 -0.29037161687E+01  0.79753074302E+01  0.11340864837E+02  0.14165179551E+02  0.51100000000E-03 0.  1.
         12    1    3    3    0    0 -0.12081728249E+02  0.25486331478E+01  0.25164330767E+02  0.28030469696E+02  0.00000000000E+00 0. -1.
</event>
<event>
 7    1  0.1400974E-009  0.4778727E+02  0.7816164E-02  0.1312668E+00
        -11   -1    0    0    0    0  0.00000000000E+00  0.00000000000E+00  0.45593999997E+02  0.45594000000E+02  0.51100000000E-03 0.  1.
         11   -1    0    0    0    0 -0.00000000000E+00 -0.00000000000E+00 -0.45593999997E+02  0.45594000000E+02  0.51100000000E-03 0. -1.
    9900012    2    1    2    0    0 -0.27825924592E+02 -0.29323236269E+02 -0.15795222051E+02  0.47787270693E+02  0.19999998399E+02 0.  0.
        -12    1    1    2    0    0  0.27825924592E+02  0.29323236269E+02  0.15795222051E+02  0.43400729307E+02  0.00000000000E+00 0.  1.
         11    1    3    3    0    0 -0.53261790893E+01 -0.14304752101E+02 -0.31501615271E+01  0.15585815162E+02  0.51100000000E-03 0. -1.
        -11    1    3    3    0    0 -0.11320106589E+02 -0.45111084606E+01  0.20659847977E+00  0.12187600089E+02  0.51100000000E-03 0.  1.
        -12    1    3    3    0    0 -0.11179638914E+02 -0.10507375707E+02 -0.12851659004E+02  0.20013855442E+02  0.00000000000E+00 0.  1.
</event>
<event>
 7    1  0.1400974E-009  0.4778728E+02  0.7816164E-02  0.1312668E+00
        -11   -1    0    0    0    0  0.00000000000E+00  0.00000000000E+00  0.45593999997E+02  0.45594000000E+02  0.51100000000E-03 0.  1.
         11   -1    0    0    0    0 -0.00000000000E+00 -0.00000000000E+00 -0.45593999997E+02  0.45594000000E+02  0.51100000000E-03 0. -1.
    9900012    2    1    2    0    0  0.87209645425E+01  0.19643590764E+02 -0.37705392970E+02  0.47787279503E+02  0.20000038565E+02 0.  0.
        -12    1    1    2    0    0 -0.87209645425E+01 -0.19643590764E+02  0.37705392970E+02  0.43400720497E+02  0.00000000000E+00 0.  1.
         11    1    3    3    0    0  0.45271687138E+01  0.16909162090E+00 -0.11517360500E+02  0.12376325855E+02  0.51100000000E-03 0.  1.
        -11    1    3    3    0    0  0.24135458574E+01  0.20523832487E+02 -0.26168570599E+02  0.33344369705E+02  0.51100000000E-03 0. -1.
         12    1    3    3    0    0  0.17802499713E+01 -0.10493333440E+01 -0.19461871662E-01  0.20665839425E+01  0.00000000000E+00 0. -1.
</event>
<event>
 7    1  0.1400974E-009  0.4778728E+02  0.7816164E-02  0.1312668E+00
        -11   -1    0    0    0    0  0.00000000000E+00  0.00000000000E+00  0.45593999997E+02  0.45594000000E+02  0.51100000000E-03 0. -1.
         11   -1    0    0    0    0 -0.00000000000E+00 -0.00000000000E+00 -0.45593999997E+02  0.45594000000E+02  0.51100000000E-03 0.  1.
    9900012    2    1    2    0    0  0.82210933902E+01 -0.15105660033E+02  0.39847900079E+02  0.47787280164E+02  0.20000041581E+02 0.  0.
        -12    1    1    2    0    0 -0.82210933902E+01  0.15105660033E+02 -0.39847900079E+02  0.43400719836E+02  0.00000000000E+00 0.  1.
         11    1    3    3    0    0 -0.37131463097E+00 -0.20818149857E+01  0.11773452321E+02  0.11961856378E+02  0.51100000000E-03 0. -1.
        -11    1    3    3    0    0  0.44426382699E+01  0.71309723251E+00  0.23557243572E+00  0.45056672196E+01  0.51100000000E-03 0.  1.
        -12    1    3    3    0    0  0.41497697512E+01 -0.13736942279E+02  0.27838875322E+02  0.31319756566E+02  0.00000000000E+00 0.  1.
</event>
<event>
 7    1  0.1400974E-009  0.4778727E+02  0.7816164E-02  0.1312668E+00
        -11   -1    0    0    0    0  0.00000000000E+00  0.00000000000E+00  0.45593999997E+02  0.45594000000E+02  0.51100000000E-03 0. -1.
         11   -1    0    0    0    0 -0.00000000000E+00 -0.00000000000E+00 -0.45593999997E+02  0.45594000000E+02  0.51100000000E-03 0.  1.
    9900012    2    1    2    0    0  0.14909521995E+02  0.40394195929E+02  0.54440871668E+01  0.47787274246E+02  0.20000014598E+02 0.  0.
        -12    1    1    2    0    0 -0.14909521995E+02 -0.40394195929E+02 -0.54440871668E+01  0.43400725754E+02  0.00000000000E+00 0.  1.
         11    1    3    3    0    0  0.10777847736E+02  0.21347299197E+02  0.28858827335E+01  0.24087289267E+02  0.51100000000E-03 0. -1.
        -11    1    3    3    0    0  0.85672235418E+01  0.82817986203E+01  0.14719550293E+01  0.12006338304E+02  0.51100000000E-03 0.  1.
         12    1    3    3    0    0 -0.44355492825E+01  0.10765098112E+02  0.10862494039E+01  0.11693646675E+02  0.00000000000E+00 0. -1.
</event>
<event>
 7    1  0.1400974E-009  0.4778727E+02  0.7816164E-02  0.1312668E+00
        -11   -1    0    0    0    0  0.00000000000E+00  0.00000000000E+00  0.45593999997E+02  0.45594000000E+02  0.51100000000E-03 0.  1.
         11   -1    0    0    0    0 -0.00000000000E+00 -0.00000000000E+00 -0.45593999997E+02  0.45594000000E+02  0.51100000000E-03 0. -1.
    9900012    2    1    2    0    0 -0.42514321407E+02 -0.66612524337E+01  0.56376761348E+01  0.47787271885E+02  0.20000003833E+02 0.  0.
        -12    1    1    2    0    0  0.42514321407E+02  0.66612524337E+01 -0.56376761348E+01  0.43400728115E+02  0.00000000000E+00 0.  1.
         11    1    3    3    0    0 -0.17372138806E+02  0.14267926055E+01  0.10926611731E+00  0.17430974820E+02  0.51100000000E-03 0. -1.
        -11    1    3    3    0    0 -0.74037282441E+01  0.35808091075E+01 -0.63146804609E+00  0.82484021441E+01  0.51100000000E-03 0.  1.
        -12    1    3    3    0    0 -0.17738454357E+02 -0.11668854147E+02  0.61598780636E+01  0.22107894921E+02  0.00000000000E+00 0.  1.
</event>
<event>
 7    1  0.1400974E-009  0.4778727E+02  0.7816164E-02  0.1312668E+00
        -11   -1    0    0    0    0  0.00000000000E+00  0.00000000000E+00  0.45593999997E+02  0.45594000000E+02  0.51100000000E-03 0. -1.
         11   -1    0    0    0    0 -0.00000000000E+00 -0.00000000000E+00 -0.45593999997E+02  0.45594000000E+02  0.51100000000E-03 0.  1.
    9900012    2    1    2    0    0 -0.32845745714E+02  0.25011499748E+02  0.13386753154E+02  0.47787270845E+02  0.19999999092E+02 0.  0.
        -12    1    1    2    0    0  0.32845745714E+02 -0.25011499748E+02 -0.13386753154E+02  0.43400729155E+02  0.00000000000E+00 0.  1.
         11    1    3    3    0    0 -0.80500990917E+01 -0.32993966815E-01 -0.10398120738E+01  0.81170433902E+01  0.51100000000E-03 0. -1.
        -11    1    3    3    0    0 -0.78244051165E+01  0.12535211900E+02  0.12984393847E+01  0.14833704794E+02  0.51100000000E-03 0.  1.
        -12    1    3    3    0    0 -0.16971241506E+02  0.12509281815E+02  0.13128125843E+02  0.24836522662E+02  0.00000000000E+00 0.  1.
</event>
<event>
 7    1  0.1400974E-009  0.4778727E+02  0.7816164E-02  0.1312668E+00
        -11   -1    0    0    0    0  0.00000000000E+00  0.00000000000E+00  0.45593999997E+02  0.45594000000E+02  0.51100000000E-03 0.  1.
         11   -1    0    0    0    0 -0.00000000000E+00 -0.00000000000E+00 -0.45593999997E+02  0.45594000000E+02  0.51100000000E-03 0. -1.
    9900012    2    1    2    0    0  0.30845160576E+02  0.28095591043E+01 -0.30402398757E+02  0.47787269551E+02  0.19999993190E+02 0.  0.
        -12    1    1    2    0    0 -0.30845160576E+02 -0.28095591043E+01  0.30402398757E+02  0.43400730449E+02  0.00000000000E+00 0.  1.
         11    1    3    3    0    0  0.24148851217E+02 -0.76758652501E-01 -0.15583943884E+02  0.28740776159E+02  0.51100000000E-03 0. -1.
        -11    1    3    3    0    0  0.19449494317E+01  0.43924786042E+01 -0.18405701797E+01  0.51443556864E+01  0.51100000000E-03 0.  1.
        -12    1    3    3    0    0  0.47513599278E+01 -0.15061608474E+01 -0.12977884694E+02  0.13902137705E+02  0.00000000000E+00 0.  1.
</event>
<event>
 7    1  0.1400974E-009  0.4778726E+02  0.7816164E-02  0.1312668E+00
        -11   -1    0    0    0    0  0.00000000000E+00  0.00000000000E+00  0.45593999997E+02  0.45594000000E+02  0.51100000000E-03 0. -1.
         11   -1    0    0    0    0 -0.00000000000E+00 -0.00000000000E+00 -0.45593999997E+02  0.45594000000E+02  0.51100000000E-03 0.  1.
    9900012    2    1    2    0    0  0.15656790748E+02 -0.14795522116E+02  0.37677330889E+02  0.47787264590E+02  0.19999970572E+02 0.  0.
        -12    1    1    2    0    0 -0.15656790748E+02  0.14795522116E+02 -0.37677330889E+02  0.43400735410E+02  0.00000000000E+00 0.  1.
         11    1    3    3    0    0  0.22459863496E+01  0.53871625204E+00 -0.53834896677E+00  0.23716006733E+01  0.51100000000E-03 0.  1.
        -11    1    3    3    0    0  0.41726051404E+01  0.59815337337E+00  0.17519280310E+01  0.45648300300E+01  0.51100000000E-03 0. -1.
         12    1    3    3    0    0  0.92381992585E+01 -0.15932391741E+02  0.36463751825E+02  0.40850833887E+02  0.00000000000E+00 0. -1.
</event>
<event>
 7    1 -0.1400974E-009  0.4778727E+02  0.7816164E-02  0.1312668E+00
        -11   -1    0    0    0    0  0.00000000000E+00  0.00000000000E+00  0.45593999997E+02  0.45594000000E+02  0.51100000000E-03 0.  1.
         11   -1    0    0    0    0 -0.00000000000E+00 -0.00000000000E+00 -0.45593999997E+02  0.45594000000E+02  0.51100000000E-03 0. -1.
    9900012    2    1    2    0    0 -0.54387350850E+01  0.23016032768E+02 -0.36391011774E+02  0.47787270263E+02  0.19999996439E+02 0.  0.
        -12    1    1    2    0    0  0.54387350850E+01 -0.23016032768E+02  0.36391011774E+02  0.43400729737E+02  0.00000000000E+00 0.  1.
         11    1    3    3    0    0 -0.50658544008E+01  0.78282237344E+01 -0.11706909673E+02  0.14966485960E+02  0.51100000000E-03 0.  1.
        -11    1    3    3    0    0  0.14521580340E+01  0.16132533031E+02 -0.12488155421E+02  0.20452907154E+02  0.51100000000E-03 0. -1.
        -12    1    3    3    0    0 -0.18250387183E+01 -0.94472399762E+00 -0.12195946681E+02  0.12367877150E+02  0.00000000000E+00 0.  1.
</event>
<event>
 7    1  0.1400974E-009  0.4778728E+02  0.7816164E-02  0.1312668E+00
        -11   -1    0    0    0    0  0.00000000000E+00  0.00000000000E+00  0.45593999997E+02  0.45594000000E+02  0.51100000000E-03 0.  1.
         11   -1    0    0    0    0 -0.00000000000E+00 -0.00000000000E+00 -0.45593999997E+02  0.45594000000E+02  0.51100000000E-03 0. -1.
    9900012    2    1    2    0    0 -0.20537831880E+02 -0.19958066437E+02 -0.32611285881E+02  0.47787275109E+02  0.20000018532E+02 0.  0.
        -12    1    1    2    0    0  0.20537831880E+02  0.19958066437E+02  0.32611285881E+02  0.43400724891E+02  0.00000000000E+00 0.  1.
         11    1    3    3    0    0 -0.12651548281E+02 -0.12954238754E+02 -0.21276120015E+02  0.27938275873E+02  0.51100000000E-03 0. -1.
        -11    1    3    3    0    0 -0.40129770989E+01 -0.67704530184E+01 -0.13334463166E+02  0.15483892516E+02  0.51100000000E-03 0.  1.
        -12    1    3    3    0    0 -0.38733065004E+01 -0.23337466498E+00  0.19992973002E+01  0.43651067197E+01  0.00000000000E+00 0.  1.
</event>
<event>
 7    1  0.1400974E-009  0.4778727E+02  0.7816164E-02  0.1312668E+00
        -11   -1    0    0    0    0  0.00000000000E+00  0.00000000000E+00  0.45593999997E+02  0.45594000000E+02  0.51100000000E-03 0.  1.
         11   -1    0    0    0    0 -0.00000000000E+00 -0.00000000000E+00 -0.45593999997E+02  0.45594000000E+02  0.51100000000E-03 0. -1.
    9900012    2    1    2    0    0 -0.33908249421E+02 -0.12426866612E+02 -0.24071286903E+02  0.47787271368E+02  0.20000001476E+02 0.  0.
        -12    1    1    2    0    0  0.33908249421E+02  0.12426866612E+02  0.24071286903E+02  0.43400728632E+02  0.00000000000E+00 0.  1.
         11    1    3    3    0    0 -0.77966246329E+01 -0.71380242820E+01 -0.17510222079E+01  0.10714701365E+02  0.51100000000E-03 0. -1.
        -11    1    3    3    0    0 -0.71817116807E+01 -0.54391208630E+01 -0.13397046186E+02  0.16144406622E+02  0.51100000000E-03 0.  1.
        -12    1    3    3    0    0 -0.18929913108E+02  0.15027853281E+00 -0.89232185091E+01  0.20928163380E+02  0.00000000000E+00 0.  1.
</event>
<event>
 7    1  0.1400974E-009  0.4778727E+02  0.7816164E-02  0.1312668E+00
        -11   -1    0    0    0    0  0.00000000000E+00  0.00000000000E+00  0.45593999997E+02  0.45594000000E+02  0.51100000000E-03 0.  1.
         11   -1    0    0    0    0 -0.00000000000E+00 -0.00000000000E+00 -0.45593999997E+02  0.45594000000E+02  0.51100000000E-03 0. -1.
    9900012    2    1    2    0    0  0.28473481143E+02  0.25751616371E+02 -0.20241997641E+02  0.47787270253E+02  0.19999996391E+02 0.  0.
        -12    1    1    2    0    0 -0.28473481143E+02 -0.25751616371E+02  0.20241997641E+02  0.43400729747E+02  0.00000000000E+00 0.  1.
         11    1    3    3    0    0 -0.11914706208E+01  0.38185149959E+01 -0.20463257312E+01  0.44931178789E+01  0.51100000000E-03 0. -1.
        -11    1    3    3    0    0  0.76571398378E+01  0.13825078750E+02 -0.65394386247E+01  0.17103474814E+02  0.51100000000E-03 0.  1.
         12    1    3    3    0    0  0.22007811926E+02  0.81080226249E+01 -0.11656233285E+02  0.26190677560E+02  0.00000000000E+00 0. -1.
</event>
<event>
 7    1  0.1400974E-009  0.4778726E+02  0.7816164E-02  0.1312668E+00
        -11   -1    0    0    0    0  0.00000000000E+00  0.00000000000E+00  0.45593999997E+02  0.45594000000E+02  0.51100000000E-03 0.  1.
         11   -1    0    0    0    0 -0.00000000000E+00 -0.00000000000E+00 -0.45593999997E+02  0.45594000000E+02  0.51100000000E-03 0. -1.
    9900012    2    1    2    0    0  0.39699397557E+02  0.93944070780E+01 -0.14809686461E+02  0.47787264248E+02  0.19999969013E+02 0.  0.
        -12    1    1    2    0    0 -0.39699397557E+02 -0.93944070780E+01  0.14809686461E+02  0.43400735752E+02  0.00000000000E+00 0.  1.
         11    1    3    3    0    0  0.27911937052E+02  0.28608636662E+01 -0.10760065835E+02  0.30050620426E+02  0.51100000000E-03 0. -1.
        -11    1    3    3    0    0  0.11537446603E+02  0.90105333374E+01 -0.26384681761E+01  0.14874942007E+02  0.51100000000E-03 0.  1.
         12    1    3    3    0    0  0.25001390136E+00 -0.24769899256E+01 -0.14111524494E+01  0.28617018149E+01  0.00000000000E+00 0. -1.
</event>
<event>
 7    1  0.1400974E-009  0.4778728E+02  0.7816164E-02  0.1312668E+00
        -11   -1    0    0    0    0  0.00000000000E+00  0.00000000000E+00  0.45593999997E+02  0.45594000000E+02  0.51100000000E-03 0.  1.
         11   -1    0    0    0    0 -0.00000000000E+00 -0.00000000000E+00 -0.45593999997E+02  0.45594000000E+02  0.51100000000E-03 0. -1.
    9900012    2    1    2    0    0  0.19563941124E+02  0.32648676104E+02 -0.20855184708E+02  0.47787279120E+02  0.20000036821E+02 0.  0.
        -12    1    1    2    0    0 -0.19563941124E+02 -0.32648676104E+02  0.20855184708E+02  0.43400720880E+02  0.00000000000E+00 0.  1.
         11    1    3    3    0    0  0.35344265095E+01  0.16114360967E+02 -0.47946295708E+01  0.17180025411E+02  0.51100000000E-03 0. -1.
        -11    1    3    3    0    0  0.16433368319E+02  0.18088700610E+02 -0.15270606004E+02  0.28817496284E+02  0.51100000000E-03 0.  1.
        -12    1    3    3    0    0 -0.40385370414E+00 -0.15543854725E+01 -0.78994913276E+00  0.17897574260E+01  0.00000000000E+00 0.  1.
</event>
<event>
 7    1  0.1400974E-009  0.4778727E+02  0.7816164E-02  0.1312668E+00
        -11   -1    0    0    0    0  0.00000000000E+00  0.00000000000E+00  0.45593999997E+02  0.45594000000E+02  0.51100000000E-03 0.  1.
         11   -1    0    0    0    0 -0.00000000000E+00 -0.00000000000E+00 -0.45593999997E+02  0.45594000000E+02  0.51100000000E-03 0. -1.
    9900012    2    1    2    0    0 -0.26604380089E+02 -0.30527691066E+02 -0.15616989780E+02  0.47787270381E+02  0.19999996973E+02 0.  0.
        -12    1    1    2    0    0  0.26604380089E+02  0.30527691066E+02  0.15616989780E+02  0.43400729619E+02  0.00000000000E+00 0.  1.
         11    1    3    3    0    0 -0.34804255507E+01 -0.72024727909E+01  0.13207447305E+01  0.81076102042E+01  0.51100000000E-03 0. -1.
        -11    1    3    3    0    0 -0.30480390202E+01 -0.84891104103E+01  0.80199550539E+00  0.90553152611E+01  0.51100000000E-03 0.  1.
         12    1    3    3    0    0 -0.20075915518E+02 -0.14836107865E+02 -0.17739730016E+02  0.30624344915E+02  0.00000000000E+00 0. -1.
</event>
<event>
 7    1  0.1400974E-009  0.4778727E+02  0.7816164E-02  0.1312668E+00
        -11   -1    0    0    0    0  0.00000000000E+00  0.00000000000E+00  0.45593999997E+02  0.45594000000E+02  0.51100000000E-03 0. -1.
         11   -1    0    0    0    0 -0.00000000000E+00 -0.00000000000E+00 -0.45593999997E+02  0.45594000000E+02  0.51100000000E-03 0.  1.
    9900012    2    1    2    0    0 -0.22902642017E+02 -0.20578917922E+02 -0.30587589022E+02  0.47787268712E+02  0.19999989364E+02 0.  0.
        -12    1    1    2    0    0  0.22902642017E+02  0.20578917922E+02  0.30587589022E+02  0.43400731288E+02  0.00000000000E+00 0.  1.
         11    1    3    3    0    0 -0.14236578911E+02 -0.10552319973E+02 -0.97667964737E+01  0.20234177758E+02  0.51100000000E-03 0.  1.
        -11    1    3    3    0    0 -0.43118483796E+01 -0.12360556610E+02 -0.15608102850E+02  0.20371260908E+02  0.51100000000E-03 0. -1.
        -12    1    3    3    0    0 -0.43542147255E+01  0.23339586616E+01 -0.52126896989E+01  0.71818300458E+01  0.00000000000E+00 0.  1.
</event>
<event>
 7    1  0.1400974E-009  0.4778727E+02  0.7816164E-02  0.1312668E+00
        -11   -1    0    0    0    0  0.00000000000E+00  0.00000000000E+00  0.45593999997E+02  0.45594000000E+02  0.51100000000E-03 0.  1.
         11   -1    0    0    0    0 -0.00000000000E+00 -0.00000000000E+00 -0.45593999997E+02  0.45594000000E+02  0.51100000000E-03 0. -1.
    9900012    2    1    2    0    0 -0.37967375803E+02 -0.21024595493E+02 -0.26090431239E+00  0.47787270605E+02  0.19999997994E+02 0.  0.
        -12    1    1    2    0    0  0.37967375803E+02  0.21024595493E+02  0.26090431239E+00  0.43400729395E+02  0.00000000000E+00 0.  1.
         11    1    3    3    0    0 -0.18438871560E+02 -0.10204080421E+02  0.53953639040E+01  0.21753739760E+02  0.51100000000E-03 0. -1.
        -11    1    3    3    0    0 -0.61371402928E+01 -0.25089237940E+01  0.38112420643E+01  0.76475326682E+01  0.51100000000E-03 0.  1.
         12    1    3    3    0    0 -0.13391363950E+02 -0.83115912783E+01 -0.94675102807E+01  0.18385998176E+02  0.00000000000E+00 0. -1.
</event>
<event>
 7    1  0.1400974E-009  0.4778728E+02  0.7816164E-02  0.1312668E+00
        -11   -1    0    0    0    0  0.00000000000E+00  0.00000000000E+00  0.45593999997E+02  0.45594000000E+02  0.51100000000E-03 0. -1.
         11   -1    0    0    0    0 -0.00000000000E+00 -0.00000000000E+00 -0.45593999997E+02  0.45594000000E+02  0.51100000000E-03 0.  1.
    9900012    2    1    2    0    0 -0.28546631832E+02  0.11605030004E+02  0.30561994362E+02  0.47787281000E+02  0.20000045392E+02 0.  0.
        -12    1    1    2    0    0  0.28546631832E+02 -0.11605030004E+02 -0.30561994362E+02  0.43400719000E+02  0.00000000000E+00 0.  1.
         11    1    3    3    0    0 -0.24385233389E+02  0.13407029212E+02  0.16288130586E+02  0.32244243486E+02  0.51100000000E-03 0. -1.
        -11    1    3    3    0    0 -0.26555398882E+00  0.24050078067E+00 -0.20358641128E+00  0.41207673370E+00  0.51100000000E-03 0.  1.
        -12    1    3    3    0    0 -0.38958444539E+01 -0.20424999893E+01  0.14477450187E+02  0.15130960780E+02  0.00000000000E+00 0.  1.
</event>
<event>
 7    1  0.1400974E-009  0.4778727E+02  0.7816164E-02  0.1312668E+00
        -11   -1    0    0    0    0  0.00000000000E+00  0.00000000000E+00  0.45593999997E+02  0.45594000000E+02  0.51100000000E-03 0.  1.
         11   -1    0    0    0    0 -0.00000000000E+00 -0.00000000000E+00 -0.45593999997E+02  0.45594000000E+02  0.51100000000E-03 0. -1.
    9900012    2    1    2    0    0  0.30513210608E+02 -0.20444001143E+02 -0.23121636202E+02  0.47787271146E+02  0.20000000465E+02 0.  0.
        -12    1    1    2    0    0 -0.30513210608E+02  0.20444001143E+02  0.23121636202E+02  0.43400728854E+02  0.00000000000E+00 0.  1.
         11    1    3    3    0    0  0.64850630599E+01 -0.94515779606E+01 -0.15232875575E+01  0.11563251017E+02  0.51100000000E-03 0. -1.
        -11    1    3    3    0    0  0.15141071741E+02 -0.11687764373E+02 -0.18949159939E+02  0.26924460109E+02  0.51100000000E-03 0.  1.
         12    1    3    3    0    0  0.88870758075E+01  0.69534118993E+00 -0.26491887053E+01  0.92995600205E+01  0.00000000000E+00 0. -1.
</event>
<event>
 7    1  0.1400974E-009  0.4778727E+02  0.7816164E-02  0.1312668E+00
        -11   -1    0    0    0    0  0.00000000000E+00  0.00000000000E+00  0.45593999997E+02  0.45594000000E+02  0.51100000000E-03 0.  1.
         11   -1    0    0    0    0 -0.00000000000E+00 -0.00000000000E+00 -0.45593999997E+02  0.45594000000E+02  0.51100000000E-03 0. -1.
    9900012    2    1    2    0    0  0.99184395759E+01  0.40074840419E+02 -0.13388615094E+02  0.47787270832E+02  0.19999999030E+02 0.  0.
        -12    1    1    2    0    0 -0.99184395759E+01 -0.40074840419E+02  0.13388615094E+02  0.43400729168E+02  0.00000000000E+00 0.  1.
         11    1    3    3    0    0  0.34937990911E+01  0.24287742133E+02  0.88604584592E+00  0.24553739583E+02  0.51100000000E-03 0. -1.
        -11    1    3    3    0    0  0.50988374763E+01  0.48014193374E+01 -0.36698872504E+01  0.79069490927E+01  0.51100000000E-03 0.  1.
         12    1    3    3    0    0  0.13258030084E+01  0.10985678948E+02 -0.10604773690E+02  0.15326582156E+02  0.00000000000E+00 0. -1.
</event>
<event>
 7    1  0.1400974E-009  0.4778728E+02  0.7816164E-02  0.1312668E+00
        -11   -1    0    0    0    0  0.00000000000E+00  0.00000000000E+00  0.45593999997E+02  0.45594000000E+02  0.51100000000E-03 0.  1.
         11   -1    0    0    0    0 -0.00000000000E+00 -0.00000000000E+00 -0.45593999997E+02  0.45594000000E+02  0.51100000000E-03 0. -1.
    9900012    2    1    2    0    0  0.72897408463E+01  0.29487646144E+02 -0.30999369592E+02  0.47787279824E+02  0.20000040028E+02 0.  0.
        -12    1    1    2    0    0 -0.72897408463E+01 -0.29487646144E+02  0.30999369592E+02  0.43400720176E+02  0.00000000000E+00 0.  1.
         11    1    3    3    0    0  0.64989561149E+01  0.47135623590E+01 -0.13755991513E+02  0.15927379052E+02  0.51100000000E-03 0. -1.
        -11    1    3    3    0    0 -0.12698052619E+01  0.37082510876E+01  0.85395892982E+00  0.40115804425E+01  0.51100000000E-03 0.  1.
        -12    1    3    3    0    0  0.20605899933E+01  0.21065832697E+02 -0.18097337009E+02  0.27848320329E+02  0.00000000000E+00 0.  1.
</event>
<event>
 7    1  0.1400974E-009  0.4778728E+02  0.7816164E-02  0.1312668E+00
        -11   -1    0    0    0    0  0.00000000000E+00  0.00000000000E+00  0.45593999997E+02  0.45594000000E+02  0.51100000000E-03 0. -1.
         11   -1    0    0    0    0 -0.00000000000E+00 -0.00000000000E+00 -0.45593999997E+02  0.45594000000E+02  0.51100000000E-03 0.  1.
    9900012    2    1    2    0    0 -0.21623803191E+02 -0.15336435615E+02  0.34363174765E+02  0.47787275332E+02  0.20000019548E+02 0.  0.
        -12    1    1    2    0    0  0.21623803191E+02  0.15336435615E+02 -0.34363174765E+02  0.43400724668E+02  0.00000000000E+00 0.  1.
         11    1    3    3    0    0 -0.19645085596E+02 -0.16749544613E+02  0.34363672001E+02  0.42980676896E+02  0.51100000000E-03 0. -1.
        -11    1    3    3    0    0 -0.56934695254E+00  0.15706710243E+01  0.18385668572E+01  0.24842487332E+01  0.51100000000E-03 0.  1.
         12    1    3    3    0    0 -0.14093706426E+01 -0.15756202644E+00 -0.18390640934E+01  0.23223497024E+01  0.00000000000E+00 0. -1.
</event>
<event>
 7    1  0.1400974E-009  0.4778727E+02  0.7816164E-02  0.1312668E+00
        -11   -1    0    0    0    0  0.00000000000E+00  0.00000000000E+00  0.45593999997E+02  0.45594000000E+02  0.51100000000E-03 0.  1.
         11   -1    0    0    0    0 -0.00000000000E+00 -0.00000000000E+00 -0.45593999997E+02  0.45594000000E+02  0.51100000000E-03 0. -1.
    9900012    2    1    2    0    0  0.26439201554E+02 -0.23343150452E+02  0.25292077163E+02  0.47787271676E+02  0.20000002881E+02 0.  0.
        -12    1    1    2    0    0 -0.26439201554E+02  0.23343150452E+02 -0.25292077163E+02  0.43400728324E+02  0.00000000000E+00 0.  1.
         11    1    3    3    0    0  0.44110434872E+01 -0.10965118924E+02  0.10470418183E+02  0.15789895341E+02  0.51100000000E-03 0. -1.
        -11    1    3    3    0    0  0.99089909263E+01 -0.14135202550E+01  0.11632567428E+02  0.15346099371E+02  0.51100000000E-03 0.  1.
         12    1    3    3    0    0  0.12119167140E+02 -0.10964511273E+02  0.31890915515E+01  0.16651276965E+02  0.00000000000E+00 0. -1.
</event>
<event>
 7    1  0.1400974E-009  0.4778727E+02  0.7816164E-02  0.1312668E+00
        -11   -1    0    0    0    0  0.00000000000E+00  0.00000000000E+00  0.45593999997E+02  0.45594000000E+02  0.51100000000E-03 0. -1.
         11   -1    0    0    0    0 -0.00000000000E+00 -0.00000000000E+00 -0.45593999997E+02  0.45594000000E+02  0.51100000000E-03 0.  1.
    9900012    2    1    2    0    0  0.15856858731E+02  0.35964750079E+02  0.18404349732E+02  0.47787270673E+02  0.19999998305E+02 0.  0.
        -12    1    1    2    0    0 -0.15856858731E+02 -0.35964750079E+02 -0.18404349732E+02  0.43400729327E+02  0.00000000000E+00 0.  1.
         11    1    3    3    0    0 -0.26787443863E+01  0.24415779280E+01  0.22362359554E+01  0.42588408957E+01  0.51100000000E-03 0. -1.
        -11    1    3    3    0    0  0.11250926869E+02  0.16139422591E+02  0.16616292890E+01  0.19743994762E+02  0.51100000000E-03 0.  1.
         12    1    3    3    0    0  0.72846762478E+01  0.17383749560E+02  0.14506484488E+02  0.23784435015E+02  0.00000000000E+00 0. -1.
</event>
<event>
 7    1  0.1400974E-009  0.4778727E+02  0.7816164E-02  0.1312668E+00
        -11   -1    0    0    0    0  0.00000000000E+00  0.00000000000E+00  0.45593999997E+02  0.45594000000E+02  0.51100000000E-03 0.  1.
         11   -1    0    0    0    0 -0.00000000000E+00 -0.00000000000E+00 -0.45593999997E+02  0.45594000000E+02  0.51100000000E-03 0. -1.
    9900012    2    1    2    0    0  0.92120076096E+00 -0.34684939780E+02 -0.26071623978E+02  0.47787271489E+02  0.20000002027E+02 0.  0.
        -12    1    1    2    0    0 -0.92120076096E+00  0.34684939780E+02  0.26071623978E+02  0.43400728511E+02  0.00000000000E+00 0.  1.
         11    1    3    3    0    0 -0.15990194410E+01 -0.10922799726E+02 -0.45029017602E+01  0.11922270822E+02  0.51100000000E-03 0. -1.
        -11    1    3    3    0    0 -0.50546875260E+01 -0.15281846810E+02 -0.74495572755E+01  0.17736420489E+02  0.51100000000E-03 0.  1.
         12    1    3    3    0    0  0.75749077280E+01 -0.84802932453E+01 -0.14119164943E+02  0.18128580179E+02  0.00000000000E+00 0. -1.
</event>
<event>
 7    1  0.1400974E-009  0.4778726E+02  0.7816164E-02  0.1312668E+00
        -11   -1    0    0    0    0  0.00000000000E+00  0.00000000000E+00  0.45593999997E+02  0.45594000000E+02  0.51100000000E-03 0. -1.
         11   -1    0    0    0    0 -0.00000000000E+00 -0.00000000000E+00 -0.45593999997E+02  0.45594000000E+02  0.51100000000E-03 0.  1.
    9900012    2    1    2    0    0 -0.32328344486E+02 -0.21032068062E+02  0.19903625581E+02  0.47787262040E+02  0.19999958947E+02 0.  0.
        -12    1    1    2    0    0  0.32328344486E+02  0.21032068062E+02 -0.19903625581E+02  0.43400737960E+02  0.00000000000E+00 0.  1.
         11    1    3    3    0    0 -0.21773832816E+02 -0.43803757993E+01  0.15037908738E+02  0.26822121227E+02  0.51100000000E-03 0. -1.
        -11    1    3    3    0    0 -0.16980846739E+01 -0.25823885077E+01 -0.11322117957E+01  0.32915233214E+01  0.51100000000E-03 0.  1.
        -12    1    3    3    0    0 -0.88564269962E+01 -0.14069303755E+02  0.59979286382E+01  0.17673617492E+02  0.00000000000E+00 0.  1.
</event>
<event>
 7    1  0.1400974E-009  0.4778727E+02  0.7816164E-02  0.1312668E+00
        -11   -1    0    0    0    0  0.00000000000E+00  0.00000000000E+00  0.45593999997E+02  0.45594000000E+02  0.51100000000E-03 0. -1.
         11   -1    0    0    0    0 -0.00000000000E+00 -0.00000000000E+00 -0.45593999997E+02  0.45594000000E+02  0.51100000000E-03 0.  1.
    9900012    2    1    2    0    0  0.29747051481E+02 -0.10542978493E+02  0.29792308472E+02  0.47787272916E+02  0.20000008535E+02 0.  0.
        -12    1    1    2    0    0 -0.29747051481E+02  0.10542978493E+02 -0.29792308472E+02  0.43400727084E+02  0.00000000000E+00 0.  1.
         11    1    3    3    0    0  0.41953750650E+01 -0.14724513424E+01  0.80172646601E+00  0.45179697297E+01  0.51100000000E-03 0.  1.
        -11    1    3    3    0    0  0.78182789525E+00 -0.21155852807E+01 -0.19836879551E+01  0.30036601176E+01  0.51100000000E-03 0. -1.
         12    1    3    3    0    0  0.24769848520E+02 -0.69549418697E+01  0.30974269961E+02  0.40265643069E+02  0.00000000000E+00 0. -1.
</event>
<event>
 7    1  0.1400974E-009  0.4778727E+02  0.7816164E-02  0.1312668E+00
        -11   -1    0    0    0    0  0.00000000000E+00  0.00000000000E+00  0.45593999997E+02  0.45594000000E+02  0.51100000000E-03 0.  1.
         11   -1    0    0    0    0 -0.00000000000E+00 -0.00000000000E+00 -0.45593999997E+02  0.45594000000E+02  0.51100000000E-03 0. -1.
    9900012    2    1    2    0    0 -0.41805032098E+02  0.71409849239E+01 -0.92178673412E+01  0.47787268984E+02  0.19999990606E+02 0.  0.
        -12    1    1    2    0    0  0.41805032098E+02 -0.71409849239E+01  0.92178673412E+01  0.43400731016E+02  0.00000000000E+00 0.  1.
         11    1    3    3    0    0 -0.12430253590E+02  0.42954427877E+01 -0.97443782147E+01  0.16368107407E+02  0.51100000000E-03 0. -1.
        -11    1    3    3    0    0 -0.18401603618E+02  0.62523144598E+01  0.30031108275E+01  0.19665429736E+02  0.51100000000E-03 0.  1.
        -12    1    3    3    0    0 -0.10973174891E+02 -0.34067723236E+01 -0.24765999541E+01  0.11753731840E+02  0.00000000000E+00 0.  1.
</event>
<event>
 7    1  0.1400974E-009  0.4778727E+02  0.7816164E-02  0.1312668E+00
        -11   -1    0    0    0    0  0.00000000000E+00  0.00000000000E+00  0.45593999997E+02  0.45594000000E+02  0.51100000000E-03 0. -1.
         11   -1    0    0    0    0 -0.00000000000E+00 -0.00000000000E+00 -0.45593999997E+02  0.45594000000E+02  0.51100000000E-03 0.  1.
    9900012    2    1    2    0    0 -0.16012150358E+02  0.35076999714E+02  0.19920805144E+02  0.47787270218E+02  0.19999996232E+02 0.  0.
        -12    1    1    2    0    0  0.16012150358E+02 -0.35076999714E+02 -0.19920805144E+02  0.43400729782E+02  0.00000000000E+00 0.  1.
         11    1    3    3    0    0 -0.23401316105E+00  0.18555701349E+02  0.12491341565E+02  0.22369676552E+02  0.51100000000E-03 0. -1.
        -11    1    3    3    0    0 -0.76753394603E+01  0.12768148052E+02  0.21719644370E+01  0.15055028073E+02  0.51100000000E-03 0.  1.
        -12    1    3    3    0    0 -0.81027977362E+01  0.37531503131E+01  0.52574991423E+01  0.10362565592E+02  0.00000000000E+00 0.  1.
</event>
<event>
 7    1  0.1400974E-009  0.4778727E+02  0.7816164E-02  0.1312668E+00
        -11   -1    0    0    0    0  0.00000000000E+00  0.00000000000E+00  0.45593999997E+02  0.45594000000E+02  0.51100000000E-03 0. -1.
         11   -1    0    0    0    0 -0.00000000000E+00 -0.00000000000E+00 -0.45593999997E+02  0.45594000000E+02  0.51100000000E-03 0.  1.
    9900012    2    1    2    0    0  0.21711504006E+02  0.17817357836E+02  0.33087397297E+02  0.47787268366E+02  0.19999987788E+02 0.  0.
        -12    1    1    2    0    0 -0.21711504006E+02 -0.17817357836E+02 -0.33087397297E+02  0.43400731634E+02  0.00000000000E+00 0.  1.
         11    1    3    3    0    0  0.11534535673E+02  0.49668272217E+01  0.14332793060E+02  0.19056333409E+02  0.51100000000E-03 0. -1.
        -11    1    3    3    0    0  0.92967585768E+01  0.40119920366E+01  0.16832181676E+02  0.19643017599E+02  0.51100000000E-03 0.  1.
        -12    1    3    3    0    0  0.88020975664E+00  0.88385385777E+01  0.19224225603E+01  0.90879173580E+01  0.00000000000E+00 0.  1.
</event>
<event>
 7    1  0.1400974E-009  0.4778727E+02  0.7816164E-02  0.1312668E+00
        -11   -1    0    0    0    0  0.00000000000E+00  0.00000000000E+00  0.45593999997E+02  0.45594000000E+02  0.51100000000E-03 0.  1.
         11   -1    0    0    0    0 -0.00000000000E+00 -0.00000000000E+00 -0.45593999997E+02  0.45594000000E+02  0.51100000000E-03 0. -1.
    9900012    2    1    2    0    0  0.11049326176E+01  0.38518978215E+01 -0.43215335960E+02  0.47787271261E+02  0.20000000988E+02 0.  0.
        -12    1    1    2    0    0 -0.11049326176E+01 -0.38518978215E+01  0.43215335960E+02  0.43400728739E+02  0.00000000000E+00 0.  1.
         11    1    3    3    0    0  0.12390662070E+01 -0.26375484894E+01 -0.18193992579E+02  0.18425887043E+02  0.51100000000E-03 0. -1.
        -11    1    3    3    0    0  0.15019715928E+01  0.49604297814E+01 -0.26284313705E+02  0.26790426079E+02  0.51100000000E-03 0.  1.
        -12    1    3    3    0    0 -0.16361051823E+01  0.15290165296E+01  0.12629703238E+01  0.25709581393E+01  0.00000000000E+00 0.  1.
</event>
<event>
 7    1  0.1400974E-009  0.4778727E+02  0.7816164E-02  0.1312668E+00
        -11   -1    0    0    0    0  0.00000000000E+00  0.00000000000E+00  0.45593999997E+02  0.45594000000E+02  0.51100000000E-03 0.  1.
         11   -1    0    0    0    0 -0.00000000000E+00 -0.00000000000E+00 -0.45593999997E+02  0.45594000000E+02  0.51100000000E-03 0. -1.
    9900012    2    1    2    0    0  0.31973491304E+02 -0.19182125573E+01 -0.29285485550E+02  0.47787270174E+02  0.19999996030E+02 0.  0.
        -12    1    1    2    0    0 -0.31973491304E+02  0.19182125573E+01  0.29285485550E+02  0.43400729826E+02  0.00000000000E+00 0.  1.
         11    1    3    3    0    0  0.90630916991E+01  0.12495948699E+01 -0.43995503091E+01  0.10151707328E+02  0.51100000000E-03 0. -1.
        -11    1    3    3    0    0  0.12105664822E+02 -0.69126598135E+01 -0.21652427753E+02  0.25751885646E+02  0.51100000000E-03 0.  1.
        -12    1    3    3    0    0  0.10804734783E+02  0.37448523862E+01 -0.32335074882E+01  0.11883677200E+02  0.00000000000E+00 0.  1.
</event>
<event>
 7    1  0.1400974E-009  0.4778727E+02  0.7816164E-02  0.1312668E+00
        -11   -1    0    0    0    0  0.00000000000E+00  0.00000000000E+00  0.45593999997E+02  0.45594000000E+02  0.51100000000E-03 0. -1.
         11   -1    0    0    0    0 -0.00000000000E+00 -0.00000000000E+00 -0.45593999997E+02  0.45594000000E+02  0.51100000000E-03 0.  1.
    9900012    2    1    2    0    0  0.99455878465E+01 -0.20562511338E+02  0.36903817109E+02  0.47787270659E+02  0.19999998244E+02 0.  0.
        -12    1    1    2    0    0 -0.99455878465E+01  0.20562511338E+02 -0.36903817109E+02  0.43400729341E+02  0.00000000000E+00 0.  1.
         11    1    3    3    0    0  0.22872259847E+01 -0.66685604960E+01  0.87129139908E+00  0.71035379043E+01  0.51100000000E-03 0. -1.
        -11    1    3    3    0    0 -0.13461181653E+01 -0.11884703682E+01  0.46271693980E+00  0.18543470977E+01  0.51100000000E-03 0.  1.
        -12    1    3    3    0    0  0.90044800271E+01 -0.12705480473E+02  0.35569808770E+02  0.38829385657E+02  0.00000000000E+00 0.  1.
</event>
<event>
 7    1  0.1400974E-009  0.4778727E+02  0.7816164E-02  0.1312668E+00
        -11   -1    0    0    0    0  0.00000000000E+00  0.00000000000E+00  0.45593999997E+02  0.45594000000E+02  0.51100000000E-03 0.  1.
         11   -1    0    0    0    0 -0.00000000000E+00 -0.00000000000E+00 -0.45593999997E+02  0.45594000000E+02  0.51100000000E-03 0. -1.
    9900012    2    1    2    0    0 -0.32767782329E+02  0.26918497579E+02 -0.92352706023E+01  0.47787270815E+02  0.19999998955E+02 0.  0.
        -12    1    1    2    0    0  0.32767782329E+02 -0.26918497579E+02  0.92352706023E+01  0.43400729185E+02  0.00000000000E+00 0.  1.
         11    1    3    3    0    0 -0.30246146004E+01  0.48458121155E+01 -0.52198557388E+01  0.77380283493E+01  0.51100000000E-03 0. -1.
        -11    1    3    3    0    0 -0.13381108865E+02  0.16215186609E+01  0.41906614278E+00  0.13485511259E+02  0.51100000000E-03 0.  1.
         12    1    3    3    0    0 -0.16362058864E+02  0.20451166803E+02 -0.44344810062E+01  0.26563731207E+02  0.00000000000E+00 0. -1.
</event>
<event>
 7    1  0.1400974E-009  0.4778727E+02  0.7816164E-02  0.1312668E+00
        -11   -1    0    0    0    0  0.00000000000E+00  0.00000000000E+00  0.45593999997E+02  0.45594000000E+02  0.51100000000E-03 0.  1.
         11   -1    0    0    0    0 -0.00000000000E+00 -0.00000000000E+00 -0.45593999997E+02  0.45594000000E+02  0.51100000000E-03 0. -1.
    9900012    2    1    2    0    0  0.12180228111E+02 -0.24202393040E+02 -0.33904417651E+02  0.47787270490E+02  0.19999997472E+02 0.  0.
        -12    1    1    2    0    0 -0.12180228111E+02  0.24202393040E+02  0.33904417651E+02  0.43400729510E+02  0.00000000000E+00 0.  1.
         11    1    3    3    0    0  0.94016196082E+01 -0.57762410909E+01 -0.11897941660E+02  0.16227027713E+02  0.51100000000E-03 0. -1.
        -11    1    3    3    0    0 -0.15558946445E+01 -0.19076684952E+01  0.12069356951E+01  0.27416603118E+01  0.51100000000E-03 0.  1.
         12    1    3    3    0    0  0.43345031473E+01 -0.16518483454E+02 -0.23213411686E+02  0.28818582465E+02  0.00000000000E+00 0. -1.
</event>
<event>
 7    1  0.1400974E-009  0.4778727E+02  0.7816164E-02  0.1312668E+00
        -11   -1    0    0    0    0  0.00000000000E+00  0.00000000000E+00  0.45593999997E+02  0.45594000000E+02  0.51100000000E-03 0.  1.
         11   -1    0    0    0    0 -0.00000000000E+00 -0.00000000000E+00 -0.45593999997E+02  0.45594000000E+02  0.51100000000E-03 0. -1.
    9900012    2    1    2    0    0  0.42009966414E+02  0.74075004667E+01 -0.79946817556E+01  0.47787271001E+02  0.19999999801E+02 0.  0.
        -12    1    1    2    0    0 -0.42009966414E+02 -0.74075004667E+01  0.79946817556E+01  0.43400728999E+02  0.00000000000E+00 0.  1.
         11    1    3    3    0    0  0.35768844886E+02  0.80209313298E+01 -0.13224926603E+02  0.38969786859E+02  0.51100000000E-03 0. -1.
        -11    1    3    3    0    0  0.49822252647E+01 -0.85074908206E-01  0.21093453259E+01  0.54110206332E+01  0.51100000000E-03 0.  1.
         12    1    3    3    0    0  0.12588962633E+01 -0.52835595494E+00  0.31208995212E+01  0.34064635090E+01  0.00000000000E+00 0. -1.
</event>
<event>
 7    1  0.1400974E-009  0.4778727E+02  0.7816164E-02  0.1312668E+00
        -11   -1    0    0    0    0  0.00000000000E+00  0.00000000000E+00  0.45593999997E+02  0.45594000000E+02  0.51100000000E-03 0. -1.
         11   -1    0    0    0    0 -0.00000000000E+00 -0.00000000000E+00 -0.45593999997E+02  0.45594000000E+02  0.51100000000E-03 0.  1.
    9900012    2    1    2    0    0 -0.32784057769E+01  0.36621238388E+02 -0.23059926375E+02  0.47787271320E+02  0.20000001256E+02 0.  0.
        -12    1    1    2    0    0  0.32784057769E+01 -0.36621238388E+02  0.23059926375E+02  0.43400728680E+02  0.00000000000E+00 0.  1.
         11    1    3    3    0    0  0.28844230251E+01  0.19188140568E+02 -0.18395921275E+02  0.26737886126E+02  0.51100000000E-03 0. -1.
        -11    1    3    3    0    0 -0.11554682470E+01  0.14836196596E+02 -0.35748809996E+01  0.15304496422E+02  0.51100000000E-03 0.  1.
        -12    1    3    3    0    0 -0.50073605550E+01  0.25969012240E+01 -0.10891241003E+01  0.57448887718E+01  0.00000000000E+00 0.  1.
</event>
<event>
 7    1  0.1400974E-009  0.4778727E+02  0.7816164E-02  0.1312668E+00
        -11   -1    0    0    0    0  0.00000000000E+00  0.00000000000E+00  0.45593999997E+02  0.45594000000E+02  0.51100000000E-03 0. -1.
         11   -1    0    0    0    0 -0.00000000000E+00 -0.00000000000E+00 -0.45593999997E+02  0.45594000000E+02  0.51100000000E-03 0.  1.
    9900012    2    1    2    0    0  0.95182741760E+01  0.39561779129E+02 -0.15096079356E+02  0.47787268174E+02  0.19999986913E+02 0.  0.
        -12    1    1    2    0    0 -0.95182741760E+01 -0.39561779129E+02  0.15096079356E+02  0.43400731826E+02  0.00000000000E+00 0.  1.
         11    1    3    3    0    0  0.26696027988E+01  0.18889049314E+02 -0.83829744719E+01  0.20837399654E+02  0.51100000000E-03 0. -1.
        -11    1    3    3    0    0 -0.37088143149E+01  0.11140585008E+01 -0.88720960504E+00  0.39728542775E+01  0.51100000000E-03 0.  1.
         12    1    3    3    0    0  0.10557485692E+02  0.19558671314E+02 -0.58258952789E+01  0.22977014243E+02  0.00000000000E+00 0. -1.
</event>
<event>
 7    1  0.1400974E-009  0.4778727E+02  0.7816164E-02  0.1312668E+00
        -11   -1    0    0    0    0  0.00000000000E+00  0.00000000000E+00  0.45593999997E+02  0.45594000000E+02  0.51100000000E-03 0.  1.
         11   -1    0    0    0    0 -0.00000000000E+00 -0.00000000000E+00 -0.45593999997E+02  0.45594000000E+02  0.51100000000E-03 0. -1.
    9900012    2    1    2    0    0  0.77146852757E+01  0.30776875879E+02 -0.29612347299E+02  0.47787267630E+02  0.19999984430E+02 0.  0.
        -12    1    1    2    0    0 -0.77146852757E+01 -0.30776875879E+02  0.29612347299E+02  0.43400732370E+02  0.00000000000E+00 0.  1.
         11    1    3    3    0    0  0.11521651569E+01  0.13335447995E+02 -0.14584444872E+02  0.19795648265E+02  0.51100000000E-03 0. -1.
        -11    1    3    3    0    0  0.30061853677E+01 -0.10632143961E+01 -0.66396153574E+01  0.73656002927E+01  0.51100000000E-03 0.  1.
         12    1    3    3    0    0  0.35563347512E+01  0.18504642280E+02 -0.83882870694E+01  0.20626019071E+02  0.00000000000E+00 0. -1.
</event>
<event>
 7    1  0.1400974E-009  0.4778727E+02  0.7816164E-02  0.1312668E+00
        -11   -1    0    0    0    0  0.00000000000E+00  0.00000000000E+00  0.45593999997E+02  0.45594000000E+02  0.51100000000E-03 0.  1.
         11   -1    0    0    0    0 -0.00000000000E+00 -0.00000000000E+00 -0.45593999997E+02  0.45594000000E+02  0.51100000000E-03 0. -1.
    9900012    2    1    2    0    0  0.18940788879E+02  0.59732447462E+01 -0.38590022484E+02  0.47787274528E+02  0.20000015884E+02 0.  0.
        -12    1    1    2    0    0 -0.18940788879E+02 -0.59732447462E+01  0.38590022484E+02  0.43400725472E+02  0.00000000000E+00 0.  1.
         11    1    3    3    0    0  0.17127706243E+02  0.29974028998E+01 -0.15822729768E+02  0.23509604906E+02  0.51100000000E-03 0. -1.
        -11    1    3    3    0    0  0.42429253824E+01  0.26810352378E+01 -0.19824648921E+02  0.20450111756E+02  0.51100000000E-03 0.  1.
        -12    1    3    3    0    0 -0.24298427463E+01  0.29480660859E+00 -0.29426437959E+01  0.38275578660E+01  0.00000000000E+00 0.  1.
</event>
<event>
 7    1  0.1400974E-009  0.4778726E+02  0.7816164E-02  0.1312668E+00
        -11   -1    0    0    0    0  0.00000000000E+00  0.00000000000E+00  0.45593999997E+02  0.45594000000E+02  0.51100000000E-03 0.  1.
         11   -1    0    0    0    0 -0.00000000000E+00 -0.00000000000E+00 -0.45593999997E+02  0.45594000000E+02  0.51100000000E-03 0. -1.
    9900012    2    1    2    0    0 -0.40639271425E+02  0.13254097771E+01 -0.15176199021E+02  0.47787261415E+02  0.19999956094E+02 0.  0.
        -12    1    1    2    0    0  0.40639271425E+02 -0.13254097771E+01  0.15176199021E+02  0.43400738585E+02  0.00000000000E+00 0.  1.
         11    1    3    3    0    0 -0.93096541101E+00 -0.37054371252E+00  0.26299186475E+01  0.28143332413E+01  0.51100000000E-03 0. -1.
        -11    1    3    3    0    0 -0.16758260808E+02  0.58620719154E+01 -0.99983521971E+01  0.20375726720E+02  0.51100000000E-03 0.  1.
         12    1    3    3    0    0 -0.22950045206E+02 -0.41661184258E+01 -0.78077654718E+01  0.24597201453E+02  0.00000000000E+00 0. -1.
</event>
<event>
 7    1  0.1400974E-009  0.4778727E+02  0.7816164E-02  0.1312668E+00
        -11   -1    0    0    0    0  0.00000000000E+00  0.00000000000E+00  0.45593999997E+02  0.45594000000E+02  0.51100000000E-03 0.  1.
         11   -1    0    0    0    0 -0.00000000000E+00 -0.00000000000E+00 -0.45593999997E+02  0.45594000000E+02  0.51100000000E-03 0. -1.
    9900012    2    1    2    0    0 -0.18928062267E+02  0.52158204756E-01 -0.39055715761E+02  0.47787271951E+02  0.20000004132E+02 0.  0.
        -12    1    1    2    0    0  0.18928062267E+02 -0.52158204756E-01  0.39055715761E+02  0.43400728049E+02  0.00000000000E+00 0.  1.
         11    1    3    3    0    0 -0.24297854232E+01  0.32962989701E+01 -0.19755009377E+02  0.20174980542E+02  0.51100000000E-03 0. -1.
        -11    1    3    3    0    0 -0.21975160629E+01 -0.36710618591E+01 -0.90548811780E+01  0.10014821288E+02  0.51100000000E-03 0.  1.
        -12    1    3    3    0    0 -0.14300760780E+02  0.42692109368E+00 -0.10245825205E+02  0.17597470121E+02  0.00000000000E+00 0.  1.
</event>
<event>
 7    1  0.1400974E-009  0.4778727E+02  0.7816164E-02  0.1312668E+00
        -11   -1    0    0    0    0  0.00000000000E+00  0.00000000000E+00  0.45593999997E+02  0.45594000000E+02  0.51100000000E-03 0. -1.
         11   -1    0    0    0    0 -0.00000000000E+00 -0.00000000000E+00 -0.45593999997E+02  0.45594000000E+02  0.51100000000E-03 0.  1.
    9900012    2    1    2    0    0 -0.24019671757E+01  0.31023926182E+02  0.30255076615E+02  0.47787273013E+02  0.20000008974E+02 0.  0.
        -12    1    1    2    0    0  0.24019671757E+01 -0.31023926182E+02 -0.30255076615E+02  0.43400726987E+02  0.00000000000E+00 0.  1.
         11    1    3    3    0    0 -0.40971436572E+01  0.11733246811E+02  0.18463236125E+02  0.22256386844E+02  0.51100000000E-03 0. -1.
        -11    1    3    3    0    0 -0.39600473261E+01  0.14849248536E+02  0.69830520162E+01  0.16880319091E+02  0.51100000000E-03 0.  1.
         12    1    3    3    0    0  0.56552238076E+01  0.44414308346E+01  0.48087884745E+01  0.86505670776E+01  0.00000000000E+00 0. -1.
</event>
<event>
 7    1  0.1400974E-009  0.4778727E+02  0.7816164E-02  0.1312668E+00
        -11   -1    0    0    0    0  0.00000000000E+00  0.00000000000E+00  0.45593999997E+02  0.45594000000E+02  0.51100000000E-03 0.  1.
         11   -1    0    0    0    0 -0.00000000000E+00 -0.00000000000E+00 -0.45593999997E+02  0.45594000000E+02  0.51100000000E-03 0. -1.
    9900012    2    1    2    0    0 -0.36296882982E+02  0.15366145782E+02 -0.18167033574E+02  0.47787271213E+02  0.20000000768E+02 0.  0.
        -12    1    1    2    0    0  0.36296882982E+02 -0.15366145782E+02  0.18167033574E+02  0.43400728787E+02  0.00000000000E+00 0.  1.
         11    1    3    3    0    0 -0.35332098891E+01  0.62485198393E+01 -0.41567544009E+01  0.82949490483E+01  0.51100000000E-03 0.  1.
        -11    1    3    3    0    0 -0.32824328239E+02  0.10270113402E+02 -0.15401732641E+02  0.37684547526E+02  0.51100000000E-03 0. -1.
         12    1    3    3    0    0  0.60655146879E-01 -0.11524874588E+01  0.13914534679E+01  0.18077746383E+01  0.00000000000E+00 0. -1.
</event>
<event>
 7    1  0.1400974E-009  0.4778727E+02  0.7816164E-02  0.1312668E+00
        -11   -1    0    0    0    0  0.00000000000E+00  0.00000000000E+00  0.45593999997E+02  0.45594000000E+02  0.51100000000E-03 0. -1.
         11   -1    0    0    0    0 -0.00000000000E+00 -0.00000000000E+00 -0.45593999997E+02  0.45594000000E+02  0.51100000000E-03 0.  1.
    9900012    2    1    2    0    0 -0.17287649855E+02  0.12949957047E+02  0.37643842787E+02  0.47787272762E+02  0.20000007829E+02 0.  0.
        -12    1    1    2    0    0  0.17287649855E+02 -0.12949957047E+02 -0.37643842787E+02  0.43400727238E+02  0.00000000000E+00 0.  1.
         11    1    3    3    0    0 -0.10111091145E+02  0.68028244692E+01  0.20064856834E+02  0.23475754832E+02  0.51100000000E-03 0. -1.
        -11    1    3    3    0    0 -0.48550640573E+01  0.84928543566E+01  0.44018259333E+01  0.10727361928E+02  0.51100000000E-03 0.  1.
        -12    1    3    3    0    0 -0.23214946524E+01 -0.23457217785E+01  0.13177160020E+02  0.13584156001E+02  0.00000000000E+00 0.  1.
</event>
<event>
 7    1  0.1400974E-009  0.4778726E+02  0.7816164E-02  0.1312668E+00
        -11   -1    0    0    0    0  0.00000000000E+00  0.00000000000E+00  0.45593999997E+02  0.45594000000E+02  0.51100000000E-03 0.  1.
         11   -1    0    0    0    0 -0.00000000000E+00 -0.00000000000E+00 -0.45593999997E+02  0.45594000000E+02  0.51100000000E-03 0. -1.
    9900012    2    1    2    0    0  0.23024714828E+02 -0.99191705738E+01 -0.35427341812E+02  0.47787262844E+02  0.19999962613E+02 0.  0.
        -12    1    1    2    0    0 -0.23024714828E+02  0.99191705738E+01  0.35427341812E+02  0.43400737156E+02  0.00000000000E+00 0.  1.
         11    1    3    3    0    0  0.41157463888E+01 -0.49772262417E+01 -0.11374989559E+02  0.13080616848E+02  0.51100000000E-03 0. -1.
        -11    1    3    3    0    0  0.10008337315E+02  0.47154803210E+01 -0.15464907719E+02  0.19014887365E+02  0.51100000000E-03 0.  1.
        -12    1    3    3    0    0  0.89006311232E+01 -0.96574246530E+01 -0.85874445344E+01  0.15691758632E+02  0.00000000000E+00 0.  1.
</event>
<event>
 7    1  0.1400974E-009  0.4778728E+02  0.7816164E-02  0.1312668E+00
        -11   -1    0    0    0    0  0.00000000000E+00  0.00000000000E+00  0.45593999997E+02  0.45594000000E+02  0.51100000000E-03 0.  1.
         11   -1    0    0    0    0 -0.00000000000E+00 -0.00000000000E+00 -0.45593999997E+02  0.45594000000E+02  0.51100000000E-03 0. -1.
    9900012    2    1    2    0    0 -0.18205759069E+02  0.26693977691E+01 -0.39307091142E+02  0.47787276944E+02  0.20000026899E+02 0.  0.
        -12    1    1    2    0    0  0.18205759069E+02 -0.26693977691E+01  0.39307091142E+02  0.43400723056E+02  0.00000000000E+00 0.  1.
         11    1    3    3    0    0  0.84860627158E+00 -0.17951582263E+01 -0.93709743319E+01  0.95790336596E+01  0.51100000000E-03 0. -1.
        -11    1    3    3    0    0  0.65090423538E+00 -0.19426168823E+01 -0.70220127789E+01  0.73147864223E+01  0.51100000000E-03 0.  1.
         12    1    3    3    0    0 -0.19705269576E+02  0.64071728777E+01 -0.22914104031E+02  0.30893456862E+02  0.00000000000E+00 0. -1.
</event>
<event>
 7    1  0.1400974E-009  0.4778727E+02  0.7816164E-02  0.1312668E+00
        -11   -1    0    0    0    0  0.00000000000E+00  0.00000000000E+00  0.45593999997E+02  0.45594000000E+02  0.51100000000E-03 0. -1.
         11   -1    0    0    0    0 -0.00000000000E+00 -0.00000000000E+00 -0.45593999997E+02  0.45594000000E+02  0.51100000000E-03 0.  1.
    9900012    2    1    2    0    0 -0.33243490345E+02  0.95002903957E+01  0.26234294822E+02  0.47787269675E+02  0.19999993758E+02 0.  0.
        -12    1    1    2    0    0  0.33243490345E+02 -0.95002903957E+01 -0.26234294822E+02  0.43400730325E+02  0.00000000000E+00 0.  1.
         11    1    3    3    0    0 -0.53629056865E+01  0.44416437062E+01  0.73573902569E+01  0.10130160308E+02  0.51100000000E-03 0. -1.
        -11    1    3    3    0    0 -0.19271757578E+02 -0.42958210782E+01  0.98495850223E+01  0.22065109206E+02  0.51100000000E-03 0.  1.
        -12    1    3    3    0    0 -0.86088270803E+01  0.93544677677E+01  0.90273195423E+01  0.15592000161E+02  0.00000000000E+00 0.  1.
</event>
<event>
 7    1  0.1400974E-009  0.4778727E+02  0.7816164E-02  0.1312668E+00
        -11   -1    0    0    0    0  0.00000000000E+00  0.00000000000E+00  0.45593999997E+02  0.45594000000E+02  0.51100000000E-03 0. -1.
         11   -1    0    0    0    0 -0.00000000000E+00 -0.00000000000E+00 -0.45593999997E+02  0.45594000000E+02  0.51100000000E-03 0.  1.
    9900012    2    1    2    0    0 -0.41138913987E+02  0.86577571070E+01  0.10782218712E+02  0.47787271406E+02  0.20000001647E+02 0.  0.
        -12    1    1    2    0    0  0.41138913987E+02 -0.86577571070E+01 -0.10782218712E+02  0.43400728594E+02  0.00000000000E+00 0.  1.
         11    1    3    3    0    0 -0.22182438468E+02  0.42742822777E+01  0.46530367441E+01  0.23064709332E+02  0.51100000000E-03 0. -1.
        -11    1    3    3    0    0 -0.49676446613E+01 -0.32765641726E+01  0.64429601363E+01  0.87706956302E+01  0.51100000000E-03 0.  1.
        -12    1    3    3    0    0 -0.13988830858E+02  0.76600390019E+01 -0.31377816848E+00  0.15951866443E+02  0.00000000000E+00 0.  1.
</event>
<event>
 7    1  0.1400974E-009  0.4778727E+02  0.7816164E-02  0.1312668E+00
        -11   -1    0    0    0    0  0.00000000000E+00  0.00000000000E+00  0.45593999997E+02  0.45594000000E+02  0.51100000000E-03 0.  1.
         11   -1    0    0    0    0 -0.00000000000E+00 -0.00000000000E+00 -0.45593999997E+02  0.45594000000E+02  0.51100000000E-03 0. -1.
    9900012    2    1    2    0    0  0.34621995530E+02 -0.39662058505E+00 -0.26168371359E+02  0.47787267956E+02  0.19999985918E+02 0.  0.
        -12    1    1    2    0    0 -0.34621995530E+02  0.39662058505E+00  0.26168371359E+02  0.43400732044E+02  0.00000000000E+00 0.  1.
         11    1    3    3    0    0  0.19805710303E+02  0.54989610151E+01 -0.76921643280E+01  0.21947075549E+02  0.51100000000E-03 0. -1.
        -11    1    3    3    0    0  0.14695870902E+00 -0.27645471820E+01 -0.13694943815E+01  0.30886620252E+01  0.51100000000E-03 0.  1.
        -12    1    3    3    0    0  0.14669326518E+02 -0.31310344182E+01 -0.17106712650E+02  0.22751530382E+02  0.00000000000E+00 0.  1.
</event>
<event>
 7    1  0.1400974E-009  0.4778727E+02  0.7816164E-02  0.1312668E+00
        -11   -1    0    0    0    0  0.00000000000E+00  0.00000000000E+00  0.45593999997E+02  0.45594000000E+02  0.51100000000E-03 0. -1.
         11   -1    0    0    0    0 -0.00000000000E+00 -0.00000000000E+00 -0.45593999997E+02  0.45594000000E+02  0.51100000000E-03 0.  1.
    9900012    2    1    2    0    0  0.30401653758E+02 -0.65869182613E+01  0.30265084336E+02  0.47787269900E+02  0.19999994781E+02 0.  0.
        -12    1    1    2    0    0 -0.30401653758E+02  0.65869182613E+01 -0.30265084336E+02  0.43400730100E+02  0.00000000000E+00 0.  1.
         11    1    3    3    0    0  0.10591687087E+02 -0.85804389887E+00  0.15638503880E+02  0.18907217631E+02  0.51100000000E-03 0. -1.
        -11    1    3    3    0    0  0.85447916731E+01  0.41913436931E+01  0.81572132038E+01  0.12534789755E+02  0.51100000000E-03 0.  1.
        -12    1    3    3    0    0  0.11265174998E+02 -0.99202180555E+01  0.64693672519E+01  0.16345262514E+02  0.00000000000E+00 0.  1.
</event>
<event>
 7    1  0.1400974E-009  0.4778728E+02  0.7816164E-02  0.1312668E+00
        -11   -1    0    0    0    0  0.00000000000E+00  0.00000000000E+00  0.45593999997E+02  0.45594000000E+02  0.51100000000E-03 0.  1.
         11   -1    0    0    0    0 -0.00000000000E+00 -0.00000000000E+00 -0.45593999997E+02  0.45594000000E+02  0.51100000000E-03 0. -1.
    9900012    2    1    2    0    0  0.28062625810E+02  0.32150460471E+02  0.79031147130E+01  0.47787282286E+02  0.20000051257E+02 0.  0.
        -12    1    1    2    0    0 -0.28062625810E+02 -0.32150460471E+02 -0.79031147130E+01  0.43400717714E+02  0.00000000000E+00 0.  1.
         11    1    3    3    0    0  0.10819879915E+02  0.11615692437E+02  0.12301546651E+02  0.20082882324E+02  0.51100000000E-03 0. -1.
        -11    1    3    3    0    0  0.99726138685E+01  0.89496165225E+01 -0.21412000591E+00  0.13401287659E+02  0.51100000000E-03 0.  1.
        -12    1    3    3    0    0  0.72701320265E+01  0.11585151511E+02 -0.41843119321E+01  0.14303112304E+02  0.00000000000E+00 0.  1.
</event>
<event>
 7    1  0.1400974E-009  0.4778727E+02  0.7816164E-02  0.1312668E+00
        -11   -1    0    0    0    0  0.00000000000E+00  0.00000000000E+00  0.45593999997E+02  0.45594000000E+02  0.51100000000E-03 0.  1.
         11   -1    0    0    0    0 -0.00000000000E+00 -0.00000000000E+00 -0.45593999997E+02  0.45594000000E+02  0.51100000000E-03 0. -1.
    9900012    2    1    2    0    0  0.14927676752E+02 -0.40181059089E+02 -0.68022356573E+01  0.47787268984E+02  0.19999990608E+02 0.  0.
        -12    1    1    2    0    0 -0.14927676752E+02  0.40181059089E+02  0.68022356573E+01  0.43400731016E+02  0.00000000000E+00 0.  1.
         11    1    3    3    0    0  0.37600064229E+01 -0.92404652151E+01 -0.31181417253E+01  0.10452112407E+02  0.51100000000E-03 0. -1.
        -11    1    3    3    0    0  0.26063818787E+01 -0.60886997152E+01 -0.83304360975E+01  0.10642445986E+02  0.51100000000E-03 0.  1.
        -12    1    3    3    0    0  0.85612884509E+01 -0.24851894159E+02  0.46463421655E+01  0.26692710592E+02  0.00000000000E+00 0.  1.
</event>
<event>
 7    1  0.1400974E-009  0.4778727E+02  0.7816164E-02  0.1312668E+00
        -11   -1    0    0    0    0  0.00000000000E+00  0.00000000000E+00  0.45593999997E+02  0.45594000000E+02  0.51100000000E-03 0.  1.
         11   -1    0    0    0    0 -0.00000000000E+00 -0.00000000000E+00 -0.45593999997E+02  0.45594000000E+02  0.51100000000E-03 0. -1.
    9900012    2    1    2    0    0  0.27822069523E+02  0.22743752734E+02 -0.24336746862E+02  0.47787273176E+02  0.20000009721E+02 0.  0.
        -12    1    1    2    0    0 -0.27822069523E+02 -0.22743752734E+02  0.24336746862E+02  0.43400726824E+02  0.00000000000E+00 0.  1.
         11    1    3    3    0    0  0.14315718672E+01  0.83451206920E+01 -0.12431592621E+02  0.15041108095E+02  0.51100000000E-03 0. -1.
        -11    1    3    3    0    0  0.57047851637E+01  0.23648247327E+01 -0.38817717202E+00  0.61877016378E+01  0.51100000000E-03 0.  1.
        -12    1    3    3    0    0  0.20685712492E+02  0.12033807310E+02 -0.11516977069E+02  0.26558463444E+02  0.00000000000E+00 0.  1.
</event>
<event>
 7    1  0.1400974E-009  0.4778727E+02  0.7816164E-02  0.1312668E+00
        -11   -1    0    0    0    0  0.00000000000E+00  0.00000000000E+00  0.45593999997E+02  0.45594000000E+02  0.51100000000E-03 0.  1.
         11   -1    0    0    0    0 -0.00000000000E+00 -0.00000000000E+00 -0.45593999997E+02  0.45594000000E+02  0.51100000000E-03 0. -1.
    9900012    2    1    2    0    0 -0.95010465074E+01  0.31585325080E+02 -0.28208519678E+02  0.47787271578E+02  0.20000002433E+02 0.  0.
        -12    1    1    2    0    0  0.95010465074E+01 -0.31585325080E+02  0.28208519678E+02  0.43400728422E+02  0.00000000000E+00 0.  1.
         11    1    3    3    0    0  0.17517512021E+00 -0.51661193161E+00 -0.22841460847E+00  0.59139471177E+00  0.51100000000E-03 0.  1.
        -11    1    3    3    0    0  0.33553270357E+00  0.13456856051E+01  0.24316087676E+01  0.27993165957E+01  0.51100000000E-03 0. -1.
         12    1    3    3    0    0 -0.10011754331E+02  0.30756251406E+02 -0.30411713837E+02  0.44396560271E+02  0.00000000000E+00 0. -1.
</event>
<event>
 7    1  0.1400974E-009  0.4778727E+02  0.7816164E-02  0.1312668E+00
        -11   -1    0    0    0    0  0.00000000000E+00  0.00000000000E+00  0.45593999997E+02  0.45594000000E+02  0.51100000000E-03 0.  1.
         11   -1    0    0    0    0 -0.00000000000E+00 -0.00000000000E+00 -0.45593999997E+02  0.45594000000E+02  0.51100000000E-03 0. -1.
    9900012    2    1    2    0    0 -0.34458615113E+02  0.10329729486E+02 -0.24280111919E+02  0.47787270725E+02  0.19999998544E+02 0.  0.
        -12    1    1    2    0    0  0.34458615113E+02 -0.10329729486E+02  0.24280111919E+02  0.43400729275E+02  0.00000000000E+00 0.  1.
         11    1    3    3    0    0 -0.33049041313E+01 -0.25144911112E+01 -0.13597557653E+01  0.43696673636E+01  0.51100000000E-03 0.  1.
        -11    1    3    3    0    0 -0.22640328150E+02  0.14066475126E+02 -0.22373147867E+02  0.34799539177E+02  0.51100000000E-03 0. -1.
         12    1    3    3    0    0 -0.85133828321E+01 -0.12222545287E+01 -0.54720828706E+00  0.86180641845E+01  0.00000000000E+00 0. -1.
</event>
<event>
 7    1  0.1400974E-009  0.4778728E+02  0.7816164E-02  0.1312668E+00
        -11   -1    0    0    0    0  0.00000000000E+00  0.00000000000E+00  0.45593999997E+02  0.45594000000E+02  0.51100000000E-03 0. -1.
         11   -1    0    0    0    0 -0.00000000000E+00 -0.00000000000E+00 -0.45593999997E+02  0.45594000000E+02  0.51100000000E-03 0.  1.
    9900012    2    1    2    0    0 -0.18316046889E+02  0.16077720206E+02  0.35911719986E+02  0.47787282344E+02  0.20000051519E+02 0.  0.
        -12    1    1    2    0    0  0.18316046889E+02 -0.16077720206E+02 -0.35911719986E+02  0.43400717656E+02  0.00000000000E+00 0.  1.
         11    1    3    3    0    0 -0.11839525382E+01 -0.15560322711E+01  0.27943545592E+01  0.34104835002E+01  0.51100000000E-03 0. -1.
        -11    1    3    3    0    0 -0.14207929646E+02  0.17873800514E+02  0.18270862217E+02  0.29243160159E+02  0.51100000000E-03 0.  1.
        -12    1    3    3    0    0 -0.29241647048E+01 -0.24004803687E+00  0.14846503210E+02  0.15133638685E+02  0.00000000000E+00 0.  1.
</event>
<event>
 7    1  0.1400974E-009  0.4778728E+02  0.7816164E-02  0.1312668E+00
        -11   -1    0    0    0    0  0.00000000000E+00  0.00000000000E+00  0.45593999997E+02  0.45594000000E+02  0.51100000000E-03 0.  1.
         11   -1    0    0    0    0 -0.00000000000E+00 -0.00000000000E+00 -0.45593999997E+02  0.45594000000E+02  0.51100000000E-03 0. -1.
    9900012    2    1    2    0    0  0.56528459615E+01 -0.37481373606E+02 -0.21137987037E+02  0.47787279605E+02  0.20000039029E+02 0.  0.
        -12    1    1    2    0    0 -0.56528459615E+01  0.37481373606E+02  0.21137987037E+02  0.43400720395E+02  0.00000000000E+00 0.  1.
         11    1    3    3    0    0 -0.11371649805E+01 -0.82938014473E+01 -0.10867511446E+02  0.13717984252E+02  0.51100000000E-03 0. -1.
        -11    1    3    3    0    0  0.45741956204E+01 -0.20997404973E+01 -0.51653576749E-01  0.50333730323E+01  0.51100000000E-03 0.  1.
        -12    1    3    3    0    0  0.22158153217E+01 -0.27087831661E+02 -0.10218822015E+02  0.29035922321E+02  0.00000000000E+00 0.  1.
</event>
<event>
 7    1  0.1400974E-009  0.4778732E+02  0.7816164E-02  0.1312668E+00
        -11   -1    0    0    0    0  0.00000000000E+00  0.00000000000E+00  0.45593999997E+02  0.45594000000E+02  0.51100000000E-03 0.  1.
         11   -1    0    0    0    0 -0.00000000000E+00 -0.00000000000E+00 -0.45593999997E+02  0.45594000000E+02  0.51100000000E-03 0. -1.
    9900012    2    1    2    0    0 -0.20090778119E+02 -0.59779130269E+01 -0.38003213790E+02  0.47787319499E+02  0.20000220923E+02 0.  0.
        -12    1    1    2    0    0  0.20090778119E+02  0.59779130269E+01  0.38003213790E+02  0.43400680501E+02  0.00000000000E+00 0.  1.
         11    1    3    3    0    0 -0.51760698255E+01 -0.48786010690E+01 -0.18918056363E+01  0.73601206549E+01  0.51100000000E-03 0. -1.
        -11    1    3    3    0    0 -0.39384544987E+01 -0.48104674325E+01 -0.16712664915E+02  0.17831578438E+02  0.51100000000E-03 0.  1.
         12    1    3    3    0    0 -0.10976253794E+02  0.37111554745E+01 -0.19398743239E+02  0.22595620407E+02  0.00000000000E+00 0. -1.
</event>
<event>
 7    1  0.1400974E-009  0.4778727E+02  0.7816164E-02  0.1312668E+00
        -11   -1    0    0    0    0  0.00000000000E+00  0.00000000000E+00  0.45593999997E+02  0.45594000000E+02  0.51100000000E-03 0.  1.
         11   -1    0    0    0    0 -0.00000000000E+00 -0.00000000000E+00 -0.45593999997E+02  0.45594000000E+02  0.51100000000E-03 0. -1.
    9900012    2    1    2    0    0  0.27149796575E+02 -0.17309461762E+02 -0.29101453217E+02  0.47787268441E+02  0.19999988128E+02 0.  0.
        -12    1    1    2    0    0 -0.27149796575E+02  0.17309461762E+02  0.29101453217E+02  0.43400731559E+02  0.00000000000E+00 0.  1.
         11    1    3    3    0    0  0.74333493285E+01 -0.39806648302E+01 -0.12622998693E+02  0.15180265841E+02  0.51100000000E-03 0. -1.
        -11    1    3    3    0    0  0.21360724545E+02 -0.98826821736E+01 -0.11129019479E+02  0.26034650657E+02  0.51100000000E-03 0.  1.
        -12    1    3    3    0    0 -0.16442772981E+01 -0.34461147577E+01 -0.53494350449E+01  0.65723519425E+01  0.00000000000E+00 0.  1.
</event>
<event>
 7    1  0.1400974E-009  0.4778727E+02  0.7816164E-02  0.1312668E+00
        -11   -1    0    0    0    0  0.00000000000E+00  0.00000000000E+00  0.45593999997E+02  0.45594000000E+02  0.51100000000E-03 0.  1.
         11   -1    0    0    0    0 -0.00000000000E+00 -0.00000000000E+00 -0.45593999997E+02  0.45594000000E+02  0.51100000000E-03 0. -1.
    9900012    2    1    2    0    0  0.20356149680E+02 -0.13318397014E+02 -0.35942607820E+02  0.47787267452E+02  0.19999983619E+02 0.  0.
        -12    1    1    2    0    0 -0.20356149680E+02  0.13318397014E+02  0.35942607820E+02  0.43400732548E+02  0.00000000000E+00 0.  1.
         11    1    3    3    0    0  0.91744981525E+00  0.34682771170E+01 -0.38448699645E+01  0.52586771748E+01  0.51100000000E-03 0. -1.
        -11    1    3    3    0    0  0.25894968059E+01 -0.83261145175E+01 -0.72652546362E+01  0.11349608004E+02  0.51100000000E-03 0.  1.
         12    1    3    3    0    0  0.16849203059E+02 -0.84605596134E+01 -0.24832483220E+02  0.31178982272E+02  0.00000000000E+00 0. -1.
</event>
<event>
 7    1  0.1400974E-009  0.4778727E+02  0.7816164E-02  0.1312668E+00
        -11   -1    0    0    0    0  0.00000000000E+00  0.00000000000E+00  0.45593999997E+02  0.45594000000E+02  0.51100000000E-03 0. -1.
         11   -1    0    0    0    0 -0.00000000000E+00 -0.00000000000E+00 -0.45593999997E+02  0.45594000000E+02  0.51100000000E-03 0.  1.
    9900012    2    1    2    0    0  0.12766649716E+02 -0.26777677761E+02  0.31679520543E+02  0.47787269672E+02  0.19999993741E+02 0.  0.
        -12    1    1    2    0    0 -0.12766649716E+02  0.26777677761E+02 -0.31679520543E+02  0.43400730328E+02  0.00000000000E+00 0.  1.
         11    1    3    3    0    0  0.68175840103E+01 -0.21888793606E+01  0.98450455979E+01  0.12173560189E+02  0.51100000000E-03 0. -1.
        -11    1    3    3    0    0  0.96153685798E+01 -0.17997759065E+02  0.17702227083E+02  0.27013764792E+02  0.51100000000E-03 0.  1.
        -12    1    3    3    0    0 -0.36663028742E+01 -0.65910393355E+01  0.41322478615E+01  0.85999446903E+01  0.00000000000E+00 0.  1.
</event>
<event>
 7    1  0.1400974E-009  0.4778727E+02  0.7816164E-02  0.1312668E+00
        -11   -1    0    0    0    0  0.00000000000E+00  0.00000000000E+00  0.45593999997E+02  0.45594000000E+02  0.51100000000E-03 0.  1.
         11   -1    0    0    0    0 -0.00000000000E+00 -0.00000000000E+00 -0.45593999997E+02  0.45594000000E+02  0.51100000000E-03 0. -1.
    9900012    2    1    2    0    0  0.33300382473E+02  0.20677889366E+02 -0.18631499355E+02  0.47787270171E+02  0.19999996018E+02 0.  0.
        -12    1    1    2    0    0 -0.33300382473E+02 -0.20677889366E+02  0.18631499355E+02  0.43400729829E+02  0.00000000000E+00 0.  1.
         11    1    3    3    0    0  0.98743323812E+01  0.14208398019E+02 -0.11071592108E+02  0.20541693365E+02  0.51100000000E-03 0. -1.
        -11    1    3    3    0    0  0.20505198713E+02  0.88955559112E+01 -0.60191073871E+01  0.23147866926E+02  0.51100000000E-03 0.  1.
        -12    1    3    3    0    0  0.29208513790E+01 -0.24260645647E+01 -0.15407998601E+01  0.40977098798E+01  0.00000000000E+00 0.  1.
</event>
<event>
 7    1  0.1400974E-009  0.4778727E+02  0.7816164E-02  0.1312668E+00
        -11   -1    0    0    0    0  0.00000000000E+00  0.00000000000E+00  0.45593999997E+02  0.45594000000E+02  0.51100000000E-03 0.  1.
         11   -1    0    0    0    0 -0.00000000000E+00 -0.00000000000E+00 -0.45593999997E+02  0.45594000000E+02  0.51100000000E-03 0. -1.
    9900012    2    1    2    0    0  0.14877358278E+02 -0.17210411254E+02 -0.36960646765E+02  0.47787268968E+02  0.19999990532E+02 0.  0.
        -12    1    1    2    0    0 -0.14877358278E+02  0.17210411254E+02  0.36960646765E+02  0.43400731032E+02  0.00000000000E+00 0.  1.
         11    1    3    3    0    0  0.34235655322E+01 -0.11801103566E+02 -0.20916525433E+02  0.24258769193E+02  0.51100000000E-03 0. -1.
        -11    1    3    3    0    0  0.27015397718E+01  0.24529614659E+01 -0.92473110426E+01  0.99412322612E+01  0.51100000000E-03 0.  1.
        -12    1    3    3    0    0  0.87522529739E+01 -0.78622691545E+01 -0.67968102888E+01  0.13587267513E+02  0.00000000000E+00 0.  1.
</event>
<event>
 7    1  0.1400974E-009  0.4778727E+02  0.7816164E-02  0.1312668E+00
        -11   -1    0    0    0    0  0.00000000000E+00  0.00000000000E+00  0.45593999997E+02  0.45594000000E+02  0.51100000000E-03 0.  1.
         11   -1    0    0    0    0 -0.00000000000E+00 -0.00000000000E+00 -0.45593999997E+02  0.45594000000E+02  0.51100000000E-03 0. -1.
    9900012    2    1    2    0    0  0.37559201312E+00 -0.11051684266E+01 -0.43385032102E+02  0.47787268703E+02  0.19999989324E+02 0.  0.
        -12    1    1    2    0    0 -0.37559201312E+00  0.11051684266E+01  0.43385032102E+02  0.43400731297E+02  0.00000000000E+00 0.  1.
         11    1    3    3    0    0  0.36549518550E+01 -0.22786813368E+01 -0.19410553739E+02  0.19882672316E+02  0.51100000000E-03 0. -1.
        -11    1    3    3    0    0  0.50752019312E+01  0.22581819661E+01 -0.68442210398E+01  0.88147843047E+01  0.51100000000E-03 0.  1.
        -12    1    3    3    0    0 -0.83545617731E+01 -0.10846690559E+01 -0.17130257323E+02  0.19089812082E+02  0.00000000000E+00 0.  1.
</event>
<event>
 7    1  0.1400974E-009  0.4778727E+02  0.7816164E-02  0.1312668E+00
        -11   -1    0    0    0    0  0.00000000000E+00  0.00000000000E+00  0.45593999997E+02  0.45594000000E+02  0.51100000000E-03 0.  1.
         11   -1    0    0    0    0 -0.00000000000E+00 -0.00000000000E+00 -0.45593999997E+02  0.45594000000E+02  0.51100000000E-03 0. -1.
    9900012    2    1    2    0    0 -0.28750053021E+02 -0.87673767060E+01 -0.31308003631E+02  0.47787268043E+02  0.19999986316E+02 0.  0.
        -12    1    1    2    0    0  0.28750053021E+02  0.87673767060E+01  0.31308003631E+02  0.43400731957E+02  0.00000000000E+00 0.  1.
         11    1    3    3    0    0 -0.15958017763E+02 -0.36666675171E+01 -0.15257611933E+02  0.22380739571E+02  0.51100000000E-03 0. -1.
        -11    1    3    3    0    0 -0.56417530089E+01 -0.88522752674E+01 -0.47605359678E+01  0.11526268147E+02  0.51100000000E-03 0.  1.
        -12    1    3    3    0    0 -0.71502822494E+01  0.37515660786E+01 -0.11289855730E+02  0.13880260325E+02  0.00000000000E+00 0.  1.
</event>
<event>
 7    1  0.1400974E-009  0.4778727E+02  0.7816164E-02  0.1312668E+00
        -11   -1    0    0    0    0  0.00000000000E+00  0.00000000000E+00  0.45593999997E+02  0.45594000000E+02  0.51100000000E-03 0. -1.
         11   -1    0    0    0    0 -0.00000000000E+00 -0.00000000000E+00 -0.45593999997E+02  0.45594000000E+02  0.51100000000E-03 0.  1.
    9900012    2    1    2    0    0 -0.15397554120E+02  0.34706382111E+02 -0.21023926302E+02  0.47787272941E+02  0.20000008647E+02 0.  0.
        -12    1    1    2    0    0  0.15397554120E+02 -0.34706382111E+02  0.21023926302E+02  0.43400727059E+02  0.00000000000E+00 0.  1.
         11    1    3    3    0    0 -0.10060193986E+01  0.86295814120E+01 -0.11184795901E+02  0.14162676653E+02  0.51100000000E-03 0. -1.
        -11    1    3    3    0    0 -0.79350845228E+01  0.36591768084E+01 -0.37870454018E+01  0.95234896144E+01  0.51100000000E-03 0.  1.
        -12    1    3    3    0    0 -0.64564501983E+01  0.22417623890E+02 -0.60520849997E+01  0.24101106674E+02  0.00000000000E+00 0.  1.
</event>
<event>
 7    1  0.1400974E-009  0.4778727E+02  0.7816164E-02  0.1312668E+00
        -11   -1    0    0    0    0  0.00000000000E+00  0.00000000000E+00  0.45593999997E+02  0.45594000000E+02  0.51100000000E-03 0. -1.
         11   -1    0    0    0    0 -0.00000000000E+00 -0.00000000000E+00 -0.45593999997E+02  0.45594000000E+02  0.51100000000E-03 0.  1.
    9900012    2    1    2    0    0  0.86528932086E+01 -0.20095149144E+02  0.37482471546E+02  0.47787271283E+02  0.20000001086E+02 0.  0.
        -12    1    1    2    0    0 -0.86528932086E+01  0.20095149144E+02 -0.37482471546E+02  0.43400728717E+02  0.00000000000E+00 0.  1.
         11    1    3    3    0    0  0.34587947882E+01 -0.47265838240E+01  0.38822021458E+01  0.70267595515E+01  0.51100000000E-03 0. -1.
        -11    1    3    3    0    0  0.51219810185E+01 -0.21361804617E+01  0.10835095885E+01  0.56543743959E+01  0.51100000000E-03 0.  1.
         12    1    3    3    0    0  0.72117401846E-01 -0.13232384858E+02  0.32516759812E+02  0.35106137335E+02  0.00000000000E+00 0. -1.
</event>
<event>
 7    1  0.1400974E-009  0.4778728E+02  0.7816164E-02  0.1312668E+00
        -11   -1    0    0    0    0  0.00000000000E+00  0.00000000000E+00  0.45593999997E+02  0.45594000000E+02  0.51100000000E-03 0. -1.
         11   -1    0    0    0    0 -0.00000000000E+00 -0.00000000000E+00 -0.45593999997E+02  0.45594000000E+02  0.51100000000E-03 0.  1.
    9900012    2    1    2    0    0  0.26537808917E+01  0.37548019009E+01  0.43156477092E+02  0.47787278746E+02  0.20000035115E+02 0.  0.
        -12    1    1    2    0    0 -0.26537808917E+01 -0.37548019009E+01 -0.43156477092E+02  0.43400721254E+02  0.00000000000E+00 0.  1.
         11    1    3    3    0    0  0.84894446732E+01  0.81778251316E+01  0.22498352451E+02  0.25399278691E+02  0.51100000000E-03 0. -1.
        -11    1    3    3    0    0 -0.55297840650E+00 -0.31147241934E+01  0.68113834787E+01  0.75101422805E+01  0.51100000000E-03 0.  1.
         12    1    3    3    0    0 -0.52826853750E+01 -0.13082990373E+01  0.13846741162E+02  0.14877857774E+02  0.00000000000E+00 0. -1.
</event>
<event>
 7    1  0.1400974E-009  0.4778728E+02  0.7816164E-02  0.1312668E+00
        -11   -1    0    0    0    0  0.00000000000E+00  0.00000000000E+00  0.45593999997E+02  0.45594000000E+02  0.51100000000E-03 0.  1.
         11   -1    0    0    0    0 -0.00000000000E+00 -0.00000000000E+00 -0.45593999997E+02  0.45594000000E+02  0.51100000000E-03 0. -1.
    9900012    2    1    2    0    0 -0.78491559059E+00 -0.42794841238E+02  0.71838853796E+01  0.47787277216E+02  0.20000028137E+02 0.  0.
        -12    1    1    2    0    0  0.78491559059E+00  0.42794841238E+02 -0.71838853796E+01  0.43400722784E+02  0.00000000000E+00 0.  1.
         11    1    3    3    0    0  0.36356442874E+01 -0.94541976292E+01  0.76271752389E+01  0.12679651596E+02  0.51100000000E-03 0. -1.
        -11    1    3    3    0    0 -0.51971909828E+01 -0.12788132546E+02  0.33235443060E+01  0.14198347620E+02  0.51100000000E-03 0.  1.
         12    1    3    3    0    0  0.77663110484E+00 -0.20552511063E+02 -0.37668341653E+01  0.20909278000E+02  0.00000000000E+00 0. -1.
</event>
<event>
 7    1  0.1400974E-009  0.4778727E+02  0.7816164E-02  0.1312668E+00
        -11   -1    0    0    0    0  0.00000000000E+00  0.00000000000E+00  0.45593999997E+02  0.45594000000E+02  0.51100000000E-03 0.  1.
         11   -1    0    0    0    0 -0.00000000000E+00 -0.00000000000E+00 -0.45593999997E+02  0.45594000000E+02  0.51100000000E-03 0. -1.
    9900012    2    1    2    0    0  0.24839648857E+01  0.39931869963E+02 -0.16819601509E+02  0.47787270568E+02  0.19999997828E+02 0.  0.
        -12    1    1    2    0    0 -0.24839648857E+01 -0.39931869963E+02  0.16819601509E+02  0.43400729432E+02  0.00000000000E+00 0.  1.
         11    1    3    3    0    0 -0.38493589244E+01  0.12823142732E+01 -0.11927154363E+01  0.42290027663E+01  0.51100000000E-03 0.  1.
        -11    1    3    3    0    0  0.15516080006E+01  0.28136440063E+02 -0.15162399962E+02  0.31999454990E+02  0.51100000000E-03 0. -1.
         12    1    3    3    0    0  0.47817158094E+01  0.10513115627E+02 -0.46448611072E+00  0.11558812812E+02  0.00000000000E+00 0. -1.
</event>
<event>
 7    1  0.1400974E-009  0.4778727E+02  0.7816164E-02  0.1312668E+00
        -11   -1    0    0    0    0  0.00000000000E+00  0.00000000000E+00  0.45593999997E+02  0.45594000000E+02  0.51100000000E-03 0.  1.
         11   -1    0    0    0    0 -0.00000000000E+00 -0.00000000000E+00 -0.45593999997E+02  0.45594000000E+02  0.51100000000E-03 0. -1.
    9900012    2    1    2    0    0  0.31341844220E+02 -0.29268532551E+02  0.66831755931E+01  0.47787273822E+02  0.20000012665E+02 0.  0.
        -12    1    1    2    0    0 -0.31341844220E+02  0.29268532551E+02 -0.66831755931E+01  0.43400726178E+02  0.00000000000E+00 0.  1.
         11    1    3    3    0    0  0.13058333929E+02 -0.28959622976E+01 -0.37460933493E+01  0.13890280712E+02  0.51100000000E-03 0.  1.
        -11    1    3    3    0    0  0.86977714704E+01 -0.14487321139E+02  0.42430340946E+01  0.17422314454E+02  0.51100000000E-03 0. -1.
        -12    1    3    3    0    0  0.95857388205E+01 -0.11885249114E+02  0.61862348479E+01  0.16474678656E+02  0.00000000000E+00 0.  1.
</event>
<event>
 7    1  0.1400974E-009  0.4778727E+02  0.7816164E-02  0.1312668E+00
        -11   -1    0    0    0    0  0.00000000000E+00  0.00000000000E+00  0.45593999997E+02  0.45594000000E+02  0.51100000000E-03 0.  1.
         11   -1    0    0    0    0 -0.00000000000E+00 -0.00000000000E+00 -0.45593999997E+02  0.45594000000E+02  0.51100000000E-03 0. -1.
    9900012    2    1    2    0    0  0.16909838127E+02 -0.10295580403E+02 -0.38622294944E+02  0.47787271112E+02  0.20000000308E+02 0.  0.
        -12    1    1    2    0    0 -0.16909838127E+02  0.10295580403E+02  0.38622294944E+02  0.43400728888E+02  0.00000000000E+00 0.  1.
         11    1    3    3    0    0  0.22168380198E+01  0.18878412237E+01 -0.24914383430E+01  0.38321770014E+01  0.51100000000E-03 0. -1.
        -11    1    3    3    0    0  0.15398183806E+02 -0.11289464446E+02 -0.37556058934E+02  0.42130910682E+02  0.51100000000E-03 0.  1.
        -12    1    3    3    0    0 -0.70518369881E+00 -0.89395718123E+00  0.14252023332E+01  0.18241834287E+01  0.00000000000E+00 0.  1.
</event>
<event>
 7    1  0.1400974E-009  0.4778726E+02  0.7816164E-02  0.1312668E+00
        -11   -1    0    0    0    0  0.00000000000E+00  0.00000000000E+00  0.45593999997E+02  0.45594000000E+02  0.51100000000E-03 0. -1.
         11   -1    0    0    0    0 -0.00000000000E+00 -0.00000000000E+00 -0.45593999997E+02  0.45594000000E+02  0.51100000000E-03 0.  1.
    9900012    2    1    2    0    0 -0.34077307850E+02  0.10130119263E+02  0.24894614399E+02  0.47787262073E+02  0.19999959095E+02 0.  0.
        -12    1    1    2    0    0  0.34077307850E+02 -0.10130119263E+02 -0.24894614399E+02  0.43400737927E+02  0.00000000000E+00 0.  1.
         11    1    3    3    0    0 -0.14372024181E+02  0.92094757874E+01  0.82841857991E+01  0.18973593701E+02  0.51100000000E-03 0. -1.
        -11    1    3    3    0    0 -0.23461183946E+01 -0.33320886758E+00  0.98686209820E+01  0.10149136910E+02  0.51100000000E-03 0.  1.
         12    1    3    3    0    0 -0.17359165274E+02  0.12538523431E+01  0.67418076177E+01  0.18664531462E+02  0.00000000000E+00 0. -1.
</event>
<event>
 7    1  0.1400974E-009  0.4778727E+02  0.7816164E-02  0.1312668E+00
        -11   -1    0    0    0    0  0.00000000000E+00  0.00000000000E+00  0.45593999997E+02  0.45594000000E+02  0.51100000000E-03 0. -1.
         11   -1    0    0    0    0 -0.00000000000E+00 -0.00000000000E+00 -0.45593999997E+02  0.45594000000E+02  0.51100000000E-03 0.  1.
    9900012    2    1    2    0    0 -0.28378814584E+02 -0.29250763036E+02  0.14921777791E+02  0.47787266045E+02  0.19999977204E+02 0.  0.
        -12    1    1    2    0    0  0.28378814584E+02  0.29250763036E+02 -0.14921777791E+02  0.43400733955E+02  0.00000000000E+00 0.  1.
         11    1    3    3    0    0 -0.60164346908E+01 -0.78184475111E+01  0.13259792632E+02  0.16527180909E+02  0.51100000000E-03 0.  1.
        -11    1    3    3    0    0 -0.64547964043E+01 -0.87298714543E+01  0.74440897994E+00  0.10882517963E+02  0.51100000000E-03 0. -1.
        -12    1    3    3    0    0 -0.15907583489E+02 -0.12702444071E+02  0.91757617903E+00  0.20377567173E+02  0.00000000000E+00 0.  1.
</event>
<event>
 7    1  0.1400974E-009  0.4778727E+02  0.7816164E-02  0.1312668E+00
        -11   -1    0    0    0    0  0.00000000000E+00  0.00000000000E+00  0.45593999997E+02  0.45594000000E+02  0.51100000000E-03 0. -1.
         11   -1    0    0    0    0 -0.00000000000E+00 -0.00000000000E+00 -0.45593999997E+02  0.45594000000E+02  0.51100000000E-03 0.  1.
    9900012    2    1    2    0    0 -0.23966767436E+02  0.81241788330E+01  0.35259257123E+02  0.47787269178E+02  0.19999991491E+02 0.  0.
        -12    1    1    2    0    0  0.23966767436E+02 -0.81241788330E+01 -0.35259257123E+02  0.43400730822E+02  0.00000000000E+00 0.  1.
         11    1    3    3    0    0 -0.72097426665E+01 -0.11213092878E+01  0.90485734338E+01  0.11623872216E+02  0.51100000000E-03 0. -1.
        -11    1    3    3    0    0 -0.12500071040E+02  0.13646170582E+02  0.21918490980E+02  0.28686059239E+02  0.51100000000E-03 0.  1.
        -12    1    3    3    0    0 -0.42569537296E+01 -0.44006824615E+01  0.42921927091E+01  0.74773377237E+01  0.00000000000E+00 0.  1.
</event>
<event>
 7    1  0.1400974E-009  0.4778728E+02  0.7816164E-02  0.1312668E+00
        -11   -1    0    0    0    0  0.00000000000E+00  0.00000000000E+00  0.45593999997E+02  0.45594000000E+02  0.51100000000E-03 0.  1.
         11   -1    0    0    0    0 -0.00000000000E+00 -0.00000000000E+00 -0.45593999997E+02  0.45594000000E+02  0.51100000000E-03 0. -1.
    9900012    2    1    2    0    0  0.93035626079E+01 -0.37681884420E+02 -0.19420149363E+02  0.47787275444E+02  0.20000020060E+02 0.  0.
        -12    1    1    2    0    0 -0.93035626079E+01  0.37681884420E+02  0.19420149363E+02  0.43400724556E+02  0.00000000000E+00 0.  1.
         11    1    3    3    0    0  0.44446270330E+01 -0.18403195588E+02 -0.18137927551E+02  0.26218633325E+02  0.51100000000E-03 0. -1.
        -11    1    3    3    0    0  0.36977127080E+01 -0.17367070009E+02 -0.38441709729E+01  0.18167714515E+02  0.51100000000E-03 0.  1.
        -12    1    3    3    0    0  0.11612228668E+01 -0.19116188233E+01  0.25619491600E+01  0.34009276044E+01  0.00000000000E+00 0.  1.
</event>
<event>
 7    1  0.1400974E-009  0.4778727E+02  0.7816164E-02  0.1312668E+00
        -11   -1    0    0    0    0  0.00000000000E+00  0.00000000000E+00  0.45593999997E+02  0.45594000000E+02  0.51100000000E-03 0. -1.
         11   -1    0    0    0    0 -0.00000000000E+00 -0.00000000000E+00 -0.45593999997E+02  0.45594000000E+02  0.51100000000E-03 0.  1.
    9900012    2    1    2    0    0 -0.34640823238E+02  0.15292908672E+02  0.21207638961E+02  0.47787266820E+02  0.19999980740E+02 0.  0.
        -12    1    1    2    0    0  0.34640823238E+02 -0.15292908672E+02 -0.21207638961E+02  0.43400733180E+02  0.00000000000E+00 0.  1.
         11    1    3    3    0    0 -0.34020973241E+02  0.96176936857E+01  0.17571675011E+02  0.39480253482E+02  0.51100000000E-03 0. -1.
        -11    1    3    3    0    0 -0.71221543204E+00 -0.21207209239E+00 -0.67944765412E+00  0.10069134868E+01  0.51100000000E-03 0.  1.
         12    1    3    3    0    0  0.92365434928E-01  0.58872870789E+01  0.43154116038E+01  0.73000998510E+01  0.00000000000E+00 0. -1.
</event>
<event>
 7    1  0.1400974E-009  0.4778727E+02  0.7816164E-02  0.1312668E+00
        -11   -1    0    0    0    0  0.00000000000E+00  0.00000000000E+00  0.45593999997E+02  0.45594000000E+02  0.51100000000E-03 0.  1.
         11   -1    0    0    0    0 -0.00000000000E+00 -0.00000000000E+00 -0.45593999997E+02  0.45594000000E+02  0.51100000000E-03 0. -1.
    9900012    2    1    2    0    0  0.37640161796E+01 -0.19886512612E+02 -0.38392473292E+02  0.47787271813E+02  0.20000003504E+02 0.  0.
        -12    1    1    2    0    0 -0.37640161796E+01  0.19886512612E+02  0.38392473292E+02  0.43400728187E+02  0.00000000000E+00 0.  1.
         11    1    3    3    0    0  0.60188489995E+01  0.59265615977E+00 -0.93110153619E+01  0.11102828105E+02  0.51100000000E-03 0. -1.
        -11    1    3    3    0    0  0.24802694236E+01 -0.10870248837E+02 -0.10965506905E+02  0.15638298761E+02  0.51100000000E-03 0.  1.
         12    1    3    3    0    0 -0.47351022435E+01 -0.96089199348E+01 -0.18115951025E+02  0.21046144947E+02  0.00000000000E+00 0. -1.
</event>
<event>
 7    1  0.1400974E-009  0.4778727E+02  0.7816164E-02  0.1312668E+00
        -11   -1    0    0    0    0  0.00000000000E+00  0.00000000000E+00  0.45593999997E+02  0.45594000000E+02  0.51100000000E-03 0. -1.
         11   -1    0    0    0    0 -0.00000000000E+00 -0.00000000000E+00 -0.45593999997E+02  0.45594000000E+02  0.51100000000E-03 0.  1.
    9900012    2    1    2    0    0 -0.28862761995E+02 -0.27736030325E+02  0.16771310499E+02  0.47787271158E+02  0.20000000517E+02 0.  0.
        -12    1    1    2    0    0  0.28862761995E+02  0.27736030325E+02 -0.16771310499E+02  0.43400728842E+02  0.00000000000E+00 0.  1.
         11    1    3    3    0    0 -0.32896286445E+01 -0.10615750519E+01 -0.17774971507E+01  0.38869132472E+01  0.51100000000E-03 0. -1.
        -11    1    3    3    0    0 -0.51639887195E+01 -0.15883075151E+02  0.76138325535E+01  0.18355089271E+02  0.51100000000E-03 0.  1.
         12    1    3    3    0    0 -0.20409144631E+02 -0.10791380123E+02  0.10934975096E+02  0.25545268640E+02  0.00000000000E+00 0. -1.
</event>
<event>
 7    1  0.1400974E-009  0.4778727E+02  0.7816164E-02  0.1312668E+00
        -11   -1    0    0    0    0  0.00000000000E+00  0.00000000000E+00  0.45593999997E+02  0.45594000000E+02  0.51100000000E-03 0.  1.
         11   -1    0    0    0    0 -0.00000000000E+00 -0.00000000000E+00 -0.45593999997E+02  0.45594000000E+02  0.51100000000E-03 0. -1.
    9900012    2    1    2    0    0 -0.12697580301E+02  0.39654789649E+02  0.12243052749E+02  0.47787271570E+02  0.20000002397E+02 0.  0.
        -12    1    1    2    0    0  0.12697580301E+02 -0.39654789649E+02 -0.12243052749E+02  0.43400728430E+02  0.00000000000E+00 0.  1.
         11    1    3    3    0    0 -0.11456263537E+02  0.18666628094E+02  0.59498647466E+01  0.22695591409E+02  0.51100000000E-03 0. -1.
        -11    1    3    3    0    0 -0.13076802918E+01 -0.13567965726E+01  0.97842320255E+00  0.21232609141E+01  0.51100000000E-03 0.  1.
        -12    1    3    3    0    0  0.66363527455E-01  0.22344958128E+02  0.53147647995E+01  0.22968419248E+02  0.00000000000E+00 0.  1.
</event>
<event>
 7    1  0.1400974E-009  0.4778727E+02  0.7816164E-02  0.1312668E+00
        -11   -1    0    0    0    0  0.00000000000E+00  0.00000000000E+00  0.45593999997E+02  0.45594000000E+02  0.51100000000E-03 0.  1.
         11   -1    0    0    0    0 -0.00000000000E+00 -0.00000000000E+00 -0.45593999997E+02  0.45594000000E+02  0.51100000000E-03 0. -1.
    9900012    2    1    2    0    0  0.20187365164E+02  0.10624704125E+02 -0.36921662345E+02  0.47787271892E+02  0.20000003864E+02 0.  0.
        -12    1    1    2    0    0 -0.20187365164E+02 -0.10624704125E+02  0.36921662345E+02  0.43400728108E+02  0.00000000000E+00 0.  1.
         11    1    3    3    0    0  0.83879634090E+00  0.44353044583E+01 -0.86125738062E+01  0.97237818141E+01  0.51100000000E-03 0. -1.
        -11    1    3    3    0    0  0.21177931643E+02  0.62054655933E+01 -0.28689118887E+02  0.36195001515E+02  0.51100000000E-03 0.  1.
        -12    1    3    3    0    0 -0.18293628202E+01 -0.16065926783E-01  0.38003034872E+00  0.18684885624E+01  0.00000000000E+00 0.  1.
</event>
<event>
 7    1  0.1400974E-009  0.4778727E+02  0.7816164E-02  0.1312668E+00
        -11   -1    0    0    0    0  0.00000000000E+00  0.00000000000E+00  0.45593999997E+02  0.45594000000E+02  0.51100000000E-03 0.  1.
         11   -1    0    0    0    0 -0.00000000000E+00 -0.00000000000E+00 -0.45593999997E+02  0.45594000000E+02  0.51100000000E-03 0. -1.
    9900012    2    1    2    0    0  0.40337189373E+02  0.13954503258E+02 -0.78616983332E+01  0.47787270647E+02  0.19999998187E+02 0.  0.
        -12    1    1    2    0    0 -0.40337189373E+02 -0.13954503258E+02  0.78616983332E+01  0.43400729353E+02  0.00000000000E+00 0.  1.
         11    1    3    3    0    0  0.31715071546E+02  0.71635064337E+01 -0.44417428913E+01  0.32816012368E+02  0.51100000000E-03 0. -1.
        -11    1    3    3    0    0  0.27884289156E+01  0.23363263631E+01  0.33798466818E+01  0.49655936750E+01  0.51100000000E-03 0.  1.
         12    1    3    3    0    0  0.58336889114E+01  0.44546704615E+01 -0.67998021236E+01  0.10005664603E+02  0.00000000000E+00 0. -1.
</event>
<event>
 7    1  0.1400974E-009  0.4778727E+02  0.7816164E-02  0.1312668E+00
        -11   -1    0    0    0    0  0.00000000000E+00  0.00000000000E+00  0.45593999997E+02  0.45594000000E+02  0.51100000000E-03 0. -1.
         11   -1    0    0    0    0 -0.00000000000E+00 -0.00000000000E+00 -0.45593999997E+02  0.45594000000E+02  0.51100000000E-03 0.  1.
    9900012    2    1    2    0    0  0.11152626454E+02 -0.30205621429E+02  0.29100899475E+02  0.47787274281E+02  0.20000014755E+02 0.  0.
        -12    1    1    2    0    0 -0.11152626454E+02  0.30205621429E+02 -0.29100899475E+02  0.43400725719E+02  0.00000000000E+00 0.  1.
         11    1    3    3    0    0  0.12149640596E+02 -0.18782614814E+02  0.17165314182E+02  0.28196602581E+02  0.51100000000E-03 0. -1.
        -11    1    3    3    0    0  0.94606075436E+00  0.15946990686E+01  0.47600287636E-01  0.18548213172E+01  0.51100000000E-03 0.  1.
         12    1    3    3    0    0 -0.19430748960E+01 -0.13017705684E+02  0.11887985005E+02  0.17735850383E+02  0.00000000000E+00 0. -1.
</event>
<event>
 7    1  0.1400974E-009  0.4778727E+02  0.7816164E-02  0.1312668E+00
        -11   -1    0    0    0    0  0.00000000000E+00  0.00000000000E+00  0.45593999997E+02  0.45594000000E+02  0.51100000000E-03 0.  1.
         11   -1    0    0    0    0 -0.00000000000E+00 -0.00000000000E+00 -0.45593999997E+02  0.45594000000E+02  0.51100000000E-03 0. -1.
    9900012    2    1    2    0    0  0.28279252857E+01  0.12637720472E+02 -0.41423593572E+02  0.47787271382E+02  0.20000001537E+02 0.  0.
        -12    1    1    2    0    0 -0.28279252857E+01 -0.12637720472E+02  0.41423593572E+02  0.43400728618E+02  0.00000000000E+00 0.  1.
         11    1    3    3    0    0  0.51191749947E+01  0.90696878496E+01 -0.22175661257E+02  0.24499492704E+02  0.51100000000E-03 0. -1.
        -11    1    3    3    0    0 -0.27567617004E-02  0.34109746749E+01  0.46438615559E+00  0.34424425333E+01  0.51100000000E-03 0.  1.
        -12    1    3    3    0    0 -0.22884929473E+01  0.15705794756E+00 -0.19712318471E+02  0.19845336144E+02  0.00000000000E+00 0.  1.
</event>
<event>
 7    1  0.1400974E-009  0.4778726E+02  0.7816164E-02  0.1312668E+00
        -11   -1    0    0    0    0  0.00000000000E+00  0.00000000000E+00  0.45593999997E+02  0.45594000000E+02  0.51100000000E-03 0.  1.
         11   -1    0    0    0    0 -0.00000000000E+00 -0.00000000000E+00 -0.45593999997E+02  0.45594000000E+02  0.51100000000E-03 0. -1.
    9900012    2    1    2    0    0  0.33690615532E+02  0.20220192335E+02 -0.18431230852E+02  0.47787262406E+02  0.19999960615E+02 0.  0.
        -12    1    1    2    0    0 -0.33690615532E+02 -0.20220192335E+02  0.18431230852E+02  0.43400737594E+02  0.00000000000E+00 0.  1.
         11    1    3    3    0    0  0.37522998653E+01  0.55162896682E+01 -0.61130901344E+01  0.90487058321E+01  0.51100000000E-03 0. -1.
        -11    1    3    3    0    0  0.31528268340E+02  0.14961679262E+02 -0.12600429917E+02  0.37103293455E+02  0.51100000000E-03 0.  1.
        -12    1    3    3    0    0 -0.15899526738E+01 -0.25777659439E+00  0.28228919941E+00  0.16352631194E+01  0.00000000000E+00 0.  1.
</event>
<event>
 7    1  0.1400974E-009  0.4778728E+02  0.7816164E-02  0.1312668E+00
        -11   -1    0    0    0    0  0.00000000000E+00  0.00000000000E+00  0.45593999997E+02  0.45594000000E+02  0.51100000000E-03 0.  1.
         11   -1    0    0    0    0 -0.00000000000E+00 -0.00000000000E+00 -0.45593999997E+02  0.45594000000E+02  0.51100000000E-03 0. -1.
    9900012    2    1    2    0    0 -0.38500964956E+02 -0.13319606283E+02 -0.14962818551E+02  0.47787283956E+02  0.20000058871E+02 0.  0.
        -12    1    1    2    0    0  0.38500964956E+02  0.13319606283E+02  0.14962818551E+02  0.43400716044E+02  0.00000000000E+00 0.  1.
         11    1    3    3    0    0 -0.29239189672E+02 -0.10335300017E+02 -0.63826640470E+01  0.31662075733E+02  0.51100000000E-03 0. -1.
        -11    1    3    3    0    0 -0.86376517137E+01 -0.43468414475E+01 -0.10105646879E+02  0.13986713581E+02  0.51100000000E-03 0.  1.
        -12    1    3    3    0    0 -0.62412357103E+00  0.13625351814E+01  0.15254923747E+01  0.21384946428E+01  0.00000000000E+00 0.  1.
</event>
<event>
 7    1  0.1400974E-009  0.4778727E+02  0.7816164E-02  0.1312668E+00
        -11   -1    0    0    0    0  0.00000000000E+00  0.00000000000E+00  0.45593999997E+02  0.45594000000E+02  0.51100000000E-03 0.  1.
         11   -1    0    0    0    0 -0.00000000000E+00 -0.00000000000E+00 -0.45593999997E+02  0.45594000000E+02  0.51100000000E-03 0. -1.
    9900012    2    1    2    0    0  0.18302359925E+02 -0.23562164533E+02 -0.31519380064E+02  0.47787270790E+02  0.19999998842E+02 0.  0.
        -12    1    1    2    0    0 -0.18302359925E+02  0.23562164533E+02  0.31519380064E+02  0.43400729210E+02  0.00000000000E+00 0.  1.
         11    1    3    3    0    0 -0.10269487077E+01 -0.15346024806E+00 -0.52323077739E+01  0.53343433146E+01  0.51100000000E-03 0. -1.
        -11    1    3    3    0    0 -0.13095748914E+01 -0.13602324962E+01 -0.54324557637E+01  0.57512428853E+01  0.51100000000E-03 0.  1.
         12    1    3    3    0    0  0.20638883524E+02 -0.22048471788E+02 -0.20854616527E+02  0.36701684591E+02  0.00000000000E+00 0. -1.
</event>
<event>
 7    1  0.1400974E-009  0.4778727E+02  0.7816164E-02  0.1312668E+00
        -11   -1    0    0    0    0  0.00000000000E+00  0.00000000000E+00  0.45593999997E+02  0.45594000000E+02  0.51100000000E-03 0. -1.
         11   -1    0    0    0    0 -0.00000000000E+00 -0.00000000000E+00 -0.45593999997E+02  0.45594000000E+02  0.51100000000E-03 0.  1.
    9900012    2    1    2    0    0 -0.13025344338E+02  0.26234894302E+02  0.32026458222E+02  0.47787270739E+02  0.19999998607E+02 0.  0.
        -12    1    1    2    0    0  0.13025344338E+02 -0.26234894302E+02 -0.32026458222E+02  0.43400729261E+02  0.00000000000E+00 0.  1.
         11    1    3    3    0    0 -0.19291985253E+01  0.99835529719E+01  0.97750913482E+01  0.14104805848E+02  0.51100000000E-03 0. -1.
        -11    1    3    3    0    0 -0.11135301530E+02  0.29745466829E+01  0.13639589893E+02  0.17857247292E+02  0.51100000000E-03 0.  1.
        -12    1    3    3    0    0  0.39155717794E-01  0.13276794648E+02  0.86117769802E+01  0.15825217599E+02  0.00000000000E+00 0.  1.
</event>
<event>
 7    1  0.1400974E-009  0.4778727E+02  0.7816164E-02  0.1312668E+00
        -11   -1    0    0    0    0  0.00000000000E+00  0.00000000000E+00  0.45593999997E+02  0.45594000000E+02  0.51100000000E-03 0.  1.
         11   -1    0    0    0    0 -0.00000000000E+00 -0.00000000000E+00 -0.45593999997E+02  0.45594000000E+02  0.51100000000E-03 0. -1.
    9900012    2    1    2    0    0  0.19046597702E+01 -0.22541769027E+02 -0.37038681566E+02  0.47787274063E+02  0.20000013761E+02 0.  0.
        -12    1    1    2    0    0 -0.19046597702E+01  0.22541769027E+02  0.37038681566E+02  0.43400725937E+02  0.00000000000E+00 0.  1.
         11    1    3    3    0    0 -0.41957489884E-01 -0.21281265124E+01 -0.14320906920E+02  0.14478227038E+02  0.51100000000E-03 0. -1.
        -11    1    3    3    0    0 -0.24363306832E+01 -0.18519180655E+02 -0.21296162658E+02  0.28327059564E+02  0.51100000000E-03 0.  1.
        -12    1    3    3    0    0  0.43829479432E+01 -0.18944618598E+01 -0.14216119877E+01  0.49819874603E+01  0.00000000000E+00 0.  1.
</event>
<event>
 7    1  0.1400974E-009  0.4778727E+02  0.7816164E-02  0.1312668E+00
        -11   -1    0    0    0    0  0.00000000000E+00  0.00000000000E+00  0.45593999997E+02  0.45594000000E+02  0.51100000000E-03 0. -1.
         11   -1    0    0    0    0 -0.00000000000E+00 -0.00000000000E+00 -0.45593999997E+02  0.45594000000E+02  0.51100000000E-03 0.  1.
    9900012    2    1    2    0    0 -0.19900297090E+02  0.85968285678E+01  0.37599147122E+02  0.47787272471E+02  0.20000006506E+02 0.  0.
        -12    1    1    2    0    0  0.19900297090E+02 -0.85968285678E+01 -0.37599147122E+02  0.43400727529E+02  0.00000000000E+00 0.  1.
         11    1    3    3    0    0 -0.72353152568E+01  0.74891544345E+01  0.58227011203E+01  0.11930677668E+02  0.51100000000E-03 0. -1.
        -11    1    3    3    0    0  0.16989478306E+00 -0.30637204899E+01  0.48871381292E+01  0.57705603569E+01  0.51100000000E-03 0.  1.
         12    1    3    3    0    0 -0.12834876616E+02  0.41713946232E+01  0.26889307873E+02  0.30086034447E+02  0.00000000000E+00 0. -1.
</event>
<event>
 7    1  0.1400974E-009  0.4778727E+02  0.7816164E-02  0.1312668E+00
        -11   -1    0    0    0    0  0.00000000000E+00  0.00000000000E+00  0.45593999997E+02  0.45594000000E+02  0.51100000000E-03 0.  1.
         11   -1    0    0    0    0 -0.00000000000E+00 -0.00000000000E+00 -0.45593999997E+02  0.45594000000E+02  0.51100000000E-03 0. -1.
    9900012    2    1    2    0    0  0.28990936589E+02 -0.85077588984E+01 -0.31157131019E+02  0.47787272136E+02  0.20000004978E+02 0.  0.
        -12    1    1    2    0    0 -0.28990936589E+02  0.85077588984E+01  0.31157131019E+02  0.43400727864E+02  0.00000000000E+00 0.  1.
         11    1    3    3    0    0  0.13232756190E+02  0.21230779184E+01 -0.62272443814E+01  0.14778087463E+02  0.51100000000E-03 0. -1.
        -11    1    3    3    0    0  0.14541292024E+01 -0.27831960085E+01  0.87968145320E-01  0.31414026190E+01  0.51100000000E-03 0.  1.
         12    1    3    3    0    0  0.14304051197E+02 -0.78476408083E+01 -0.25017854783E+02  0.29867782054E+02  0.00000000000E+00 0. -1.
</event>
<event>
 7    1  0.1400974E-009  0.4778727E+02  0.7816164E-02  0.1312668E+00
        -11   -1    0    0    0    0  0.00000000000E+00  0.00000000000E+00  0.45593999997E+02  0.45594000000E+02  0.51100000000E-03 0.  1.
         11   -1    0    0    0    0 -0.00000000000E+00 -0.00000000000E+00 -0.45593999997E+02  0.45594000000E+02  0.51100000000E-03 0. -1.
    9900012    2    1    2    0    0  0.12053883915E+02 -0.25568635425E+02 -0.32932846159E+02  0.47787267391E+02  0.19999983341E+02 0.  0.
        -12    1    1    2    0    0 -0.12053883915E+02  0.25568635425E+02  0.32932846159E+02  0.43400732609E+02  0.00000000000E+00 0.  1.
         11    1    3    3    0    0  0.14760720694E+01  0.33911828343E+00 -0.19739406991E+01  0.24880177067E+01  0.51100000000E-03 0. -1.
        -11    1    3    3    0    0  0.83429497624E+00  0.23767134893E+01 -0.53743214674E+01  0.59353303710E+01  0.51100000000E-03 0.  1.
         12    1    3    3    0    0  0.97435168690E+01 -0.28284467197E+02 -0.25584583992E+02  0.39363919313E+02  0.00000000000E+00 0. -1.
</event>
<event>
 7    1  0.1400974E-009  0.4778727E+02  0.7816164E-02  0.1312668E+00
        -11   -1    0    0    0    0  0.00000000000E+00  0.00000000000E+00  0.45593999997E+02  0.45594000000E+02  0.51100000000E-03 0. -1.
         11   -1    0    0    0    0 -0.00000000000E+00 -0.00000000000E+00 -0.45593999997E+02  0.45594000000E+02  0.51100000000E-03 0.  1.
    9900012    2    1    2    0    0 -0.42621230024E+02  0.81882747825E+01  0.78711493085E-01  0.47787270880E+02  0.19999999251E+02 0.  0.
        -12    1    1    2    0    0  0.42621230024E+02 -0.81882747825E+01 -0.78711493085E-01  0.43400729120E+02  0.00000000000E+00 0.  1.
         11    1    3    3    0    0 -0.91731265106E+01 -0.38749928785E+01  0.99121295102E+00  0.10007213556E+02  0.51100000000E-03 0. -1.
        -11    1    3    3    0    0 -0.27793354663E+01  0.53439756160E+01  0.17460621295E+01  0.62714842134E+01  0.51100000000E-03 0.  1.
         12    1    3    3    0    0 -0.30668768047E+02  0.67192920450E+01 -0.26585635874E+01  0.31508573110E+02  0.00000000000E+00 0. -1.
</event>
<event>
 7    1  0.1546520E-009  0.4778727E+02  0.7816164E-02  0.1312668E+00
        -11   -1    0    0    0    0  0.00000000000E+00  0.00000000000E+00  0.45593999997E+02  0.45594000000E+02  0.51100000000E-03 0.  1.
         11   -1    0    0    0    0 -0.00000000000E+00 -0.00000000000E+00 -0.45593999997E+02  0.45594000000E+02  0.51100000000E-03 0. -1.
    9900012    2    1    2    0    0 -0.31272674441E+02 -0.18604957979E+02 -0.23653716508E+02  0.47787274975E+02  0.20000017919E+02 0.  0.
        -12    1    1    2    0    0  0.31272674441E+02  0.18604957979E+02  0.23653716508E+02  0.43400725025E+02  0.00000000000E+00 0.  1.
         11    1    3    3    0    0 -0.17822892459E+02 -0.11099504184E+02 -0.12139390180E+02  0.24253232422E+02  0.51100000000E-03 0. -1.
        -11    1    3    3    0    0 -0.38411478219E+01 -0.46686085236E+01 -0.12070560431E+02  0.13499953760E+02  0.51100000000E-03 0.  1.
        -12    1    3    3    0    0 -0.96086341603E+01 -0.28368452717E+01  0.55623410300E+00  0.10034088793E+02  0.00000000000E+00 0.  1.
</event>
<event>
 7    1  0.1400974E-009  0.4778727E+02  0.7816164E-02  0.1312668E+00
        -11   -1    0    0    0    0  0.00000000000E+00  0.00000000000E+00  0.45593999997E+02  0.45594000000E+02  0.51100000000E-03 0. -1.
         11   -1    0    0    0    0 -0.00000000000E+00 -0.00000000000E+00 -0.45593999997E+02  0.45594000000E+02  0.51100000000E-03 0.  1.
    9900012    2    1    2    0    0  0.18879537371E+02 -0.38876277844E+02 -0.39776072871E+01  0.47787271089E+02  0.20000000201E+02 0.  0.
        -12    1    1    2    0    0 -0.18879537371E+02  0.38876277844E+02  0.39776072871E+01  0.43400728911E+02  0.00000000000E+00 0.  1.
         11    1    3    3    0    0  0.39110466629E+01 -0.14772420368E+02 -0.41288098796E+01  0.15829332292E+02  0.51100000000E-03 0. -1.
        -11    1    3    3    0    0  0.14984198352E+02 -0.17452147840E+02 -0.50065749206E+01  0.23540804089E+02  0.51100000000E-03 0.  1.
        -12    1    3    3    0    0 -0.15707643805E-01 -0.66517096356E+01  0.51577775131E+01  0.84171347073E+01  0.00000000000E+00 0.  1.
</event>
<event>
 7    1  0.1400974E-009  0.4778727E+02  0.7816164E-02  0.1312668E+00
        -11   -1    0    0    0    0  0.00000000000E+00  0.00000000000E+00  0.45593999997E+02  0.45594000000E+02  0.51100000000E-03 0. -1.
         11   -1    0    0    0    0 -0.00000000000E+00 -0.00000000000E+00 -0.45593999997E+02  0.45594000000E+02  0.51100000000E-03 0.  1.
    9900012    2    1    2    0    0 -0.30756402392E+02 -0.25475128991E+02  0.16990720212E+02  0.47787273526E+02  0.20000011312E+02 0.  0.
        -12    1    1    2    0    0  0.30756402392E+02  0.25475128991E+02 -0.16990720212E+02  0.43400726474E+02  0.00000000000E+00 0.  1.
         11    1    3    3    0    0 -0.65243926964E+01  0.21068920817E+01  0.19060599155E+01  0.71161618140E+01  0.51100000000E-03 0. -1.
        -11    1    3    3    0    0 -0.83271396062E+01 -0.12505882107E+02  0.20257904549E+01  0.15160546445E+02  0.51100000000E-03 0.  1.
        -12    1    3    3    0    0 -0.15904870089E+02 -0.15076138966E+02  0.13058869841E+02  0.25510565266E+02  0.00000000000E+00 0.  1.
</event>
<event>
 7    1  0.1400974E-009  0.4778727E+02  0.7816164E-02  0.1312668E+00
        -11   -1    0    0    0    0  0.00000000000E+00  0.00000000000E+00  0.45593999997E+02  0.45594000000E+02  0.51100000000E-03 0.  1.
         11   -1    0    0    0    0 -0.00000000000E+00 -0.00000000000E+00 -0.45593999997E+02  0.45594000000E+02  0.51100000000E-03 0. -1.
    9900012    2    1    2    0    0 -0.61808996155E+01  0.32927424984E+02 -0.27589931744E+02  0.47787272244E+02  0.20000005468E+02 0.  0.
        -12    1    1    2    0    0  0.61808996155E+01 -0.32927424984E+02  0.27589931744E+02  0.43400727756E+02  0.00000000000E+00 0.  1.
         11    1    3    3    0    0 -0.57536713085E+01  0.73811424610E+01 -0.18359215654E+02  0.20606959922E+02  0.51100000000E-03 0. -1.
        -11    1    3    3    0    0 -0.19571131800E+00  0.48132842029E+01 -0.20866679767E+01  0.52497801139E+01  0.51100000000E-03 0.  1.
         12    1    3    3    0    0 -0.23151698894E+00  0.20732998320E+02 -0.71440481135E+01  0.21930532207E+02  0.00000000000E+00 0. -1.
</event>
<event>
 7    1  0.1400974E-009  0.4778729E+02  0.7816164E-02  0.1312668E+00
        -11   -1    0    0    0    0  0.00000000000E+00  0.00000000000E+00  0.45593999997E+02  0.45594000000E+02  0.51100000000E-03 0.  1.
         11   -1    0    0    0    0 -0.00000000000E+00 -0.00000000000E+00 -0.45593999997E+02  0.45594000000E+02  0.51100000000E-03 0. -1.
    9900012    2    1    2    0    0 -0.37519099104E+02  0.95813956840E+01 -0.19599382367E+02  0.47787288831E+02  0.20000081094E+02 0.  0.
        -12    1    1    2    0    0  0.37519099104E+02 -0.95813956840E+01  0.19599382367E+02  0.43400711169E+02  0.00000000000E+00 0.  1.
         11    1    3    3    0    0 -0.15947033071E+02  0.12590132504E+01 -0.50042577279E+01  0.16761132831E+02  0.51100000000E-03 0. -1.
        -11    1    3    3    0    0 -0.12067712144E+02  0.11598005770E+02 -0.59387877923E+01  0.17759859654E+02  0.51100000000E-03 0.  1.
         12    1    3    3    0    0 -0.95043538899E+01 -0.32756233368E+01 -0.86563368469E+01  0.13266296345E+02  0.00000000000E+00 0. -1.
</event>
<event>
 7    1  0.1400974E-009  0.4778728E+02  0.7816164E-02  0.1312668E+00
        -11   -1    0    0    0    0  0.00000000000E+00  0.00000000000E+00  0.45593999997E+02  0.45594000000E+02  0.51100000000E-03 0.  1.
         11   -1    0    0    0    0 -0.00000000000E+00 -0.00000000000E+00 -0.45593999997E+02  0.45594000000E+02  0.51100000000E-03 0. -1.
    9900012    2    1    2    0    0 -0.33452605199E+02 -0.27020807275E+02 -0.58670325266E+01  0.47787275454E+02  0.20000020107E+02 0.  0.
        -12    1    1    2    0    0  0.33452605199E+02  0.27020807275E+02  0.58670325266E+01  0.43400724546E+02  0.00000000000E+00 0.  1.
         11    1    3    3    0    0 -0.21954219866E+02 -0.19355329135E+02  0.62384993370E-02  0.29268012830E+02  0.51100000000E-03 0. -1.
        -11    1    3    3    0    0 -0.19904174343E+01  0.11519375719E+01  0.22503530016E+01  0.32175783791E+01  0.51100000000E-03 0.  1.
         12    1    3    3    0    0 -0.95079678993E+01 -0.88174157123E+01 -0.81236240275E+01  0.15301684246E+02  0.00000000000E+00 0. -1.
</event>
<event>
 7    1  0.1400974E-009  0.4778727E+02  0.7816164E-02  0.1312668E+00
        -11   -1    0    0    0    0  0.00000000000E+00  0.00000000000E+00  0.45593999997E+02  0.45594000000E+02  0.51100000000E-03 0. -1.
         11   -1    0    0    0    0 -0.00000000000E+00 -0.00000000000E+00 -0.45593999997E+02  0.45594000000E+02  0.51100000000E-03 0.  1.
    9900012    2    1    2    0    0 -0.35588375580E+02 -0.57718366644E+01  0.24161472594E+02  0.47787270365E+02  0.19999996904E+02 0.  0.
        -12    1    1    2    0    0  0.35588375580E+02  0.57718366644E+01 -0.24161472594E+02  0.43400729635E+02  0.00000000000E+00 0.  1.
         11    1    3    3    0    0 -0.48690936450E+01  0.11292381957E+01  0.64930511616E+01  0.81940811245E+01  0.51100000000E-03 0. -1.
        -11    1    3    3    0    0 -0.29223055419E+02 -0.10678653218E+02  0.13994954812E+02  0.34115676206E+02  0.51100000000E-03 0.  1.
        -12    1    3    3    0    0 -0.14962265165E+01  0.37775783578E+01  0.36734666195E+01  0.54775130344E+01  0.00000000000E+00 0.  1.
</event>
<event>
 7    1  0.1400974E-009  0.4778727E+02  0.7816164E-02  0.1312668E+00
        -11   -1    0    0    0    0  0.00000000000E+00  0.00000000000E+00  0.45593999997E+02  0.45594000000E+02  0.51100000000E-03 0.  1.
         11   -1    0    0    0    0 -0.00000000000E+00 -0.00000000000E+00 -0.45593999997E+02  0.45594000000E+02  0.51100000000E-03 0. -1.
    9900012    2    1    2    0    0  0.32859128837E+00  0.15712737638E+02 -0.40455224394E+02  0.47787271007E+02  0.19999999831E+02 0.  0.
        -12    1    1    2    0    0 -0.32859128837E+00 -0.15712737638E+02  0.40455224394E+02  0.43400728993E+02  0.00000000000E+00 0.  1.
         11    1    3    3    0    0  0.25506341961E+01  0.45934639000E+01 -0.21477412592E+01  0.56761288022E+01  0.51100000000E-03 0.  1.
        -11    1    3    3    0    0  0.15236477554E+00  0.13157556490E+02 -0.35666512454E+02  0.38016373035E+02  0.51100000000E-03 0. -1.
         12    1    3    3    0    0 -0.23744076832E+01 -0.20382827518E+01 -0.26409706806E+01  0.40947691703E+01  0.00000000000E+00 0. -1.
</event>
<event>
 7    1  0.1400974E-009  0.4778728E+02  0.7816164E-02  0.1312668E+00
        -11   -1    0    0    0    0  0.00000000000E+00  0.00000000000E+00  0.45593999997E+02  0.45594000000E+02  0.51100000000E-03 0.  1.
         11   -1    0    0    0    0 -0.00000000000E+00 -0.00000000000E+00 -0.45593999997E+02  0.45594000000E+02  0.51100000000E-03 0. -1.
    9900012    2    1    2    0    0  0.23731897006E+02  0.26548367524E+02 -0.24811365529E+02  0.47787278657E+02  0.20000034708E+02 0.  0.
        -12    1    1    2    0    0 -0.23731897006E+02 -0.26548367524E+02  0.24811365529E+02  0.43400721343E+02  0.00000000000E+00 0.  1.
         11    1    3    3    0    0  0.81327291393E+01  0.18152221707E+02 -0.10991067739E+02  0.22725492436E+02  0.51100000000E-03 0. -1.
        -11    1    3    3    0    0  0.14523195214E+02  0.80015861431E+01 -0.15716362536E+02  0.22846282665E+02  0.51100000000E-03 0.  1.
         12    1    3    3    0    0  0.10759726532E+01  0.39455967414E+00  0.18960647455E+01  0.22155035558E+01  0.00000000000E+00 0. -1.
</event>
<event>
 7    1  0.1400974E-009  0.4778727E+02  0.7816164E-02  0.1312668E+00
        -11   -1    0    0    0    0  0.00000000000E+00  0.00000000000E+00  0.45593999997E+02  0.45594000000E+02  0.51100000000E-03 0.  1.
         11   -1    0    0    0    0 -0.00000000000E+00 -0.00000000000E+00 -0.45593999997E+02  0.45594000000E+02  0.51100000000E-03 0. -1.
    9900012    2    1    2    0    0 -0.28661811552E+02 -0.30048339387E+02 -0.12618280394E+02  0.47787272570E+02  0.20000006955E+02 0.  0.
        -12    1    1    2    0    0  0.28661811552E+02  0.30048339387E+02  0.12618280394E+02  0.43400727430E+02  0.00000000000E+00 0.  1.
         11    1    3    3    0    0 -0.12285585881E+02 -0.18842486809E+02 -0.10935714667E+02  0.25011293152E+02  0.51100000000E-03 0. -1.
        -11    1    3    3    0    0 -0.27636099963E+01 -0.17689943711E+01 -0.49053336358E+01  0.59016251691E+01  0.51100000000E-03 0.  1.
        -12    1    3    3    0    0 -0.13612615674E+02 -0.94368582072E+01  0.32227679094E+01  0.16874354249E+02  0.00000000000E+00 0.  1.
</event>
<event>
 7    1  0.1400974E-009  0.4778727E+02  0.7816164E-02  0.1312668E+00
        -11   -1    0    0    0    0  0.00000000000E+00  0.00000000000E+00  0.45593999997E+02  0.45594000000E+02  0.51100000000E-03 0.  1.
         11   -1    0    0    0    0 -0.00000000000E+00 -0.00000000000E+00 -0.45593999997E+02  0.45594000000E+02  0.51100000000E-03 0. -1.
    9900012    2    1    2    0    0 -0.25021345446E+02  0.35415598806E+02 -0.18140595430E+01  0.47787272140E+02  0.20000004996E+02 0.  0.
        -12    1    1    2    0    0  0.25021345446E+02 -0.35415598806E+02  0.18140595430E+01  0.43400727860E+02  0.00000000000E+00 0.  1.
         11    1    3    3    0    0 -0.23739479883E+01  0.14674259600E+02 -0.42072145908E+01  0.15448953969E+02  0.51100000000E-03 0. -1.
        -11    1    3    3    0    0 -0.36171127814E+01  0.34467954173E+01  0.42459338165E+01  0.65568176547E+01  0.51100000000E-03 0.  1.
         12    1    3    3    0    0 -0.19030284676E+02  0.17294543789E+02 -0.18527787686E+01  0.25781500517E+02  0.00000000000E+00 0. -1.
</event>
<event>
 7    1  0.1400974E-009  0.4778728E+02  0.7816164E-02  0.1312668E+00
        -11   -1    0    0    0    0  0.00000000000E+00  0.00000000000E+00  0.45593999997E+02  0.45594000000E+02  0.51100000000E-03 0.  1.
         11   -1    0    0    0    0 -0.00000000000E+00 -0.00000000000E+00 -0.45593999997E+02  0.45594000000E+02  0.51100000000E-03 0. -1.
    9900012    2    1    2    0    0  0.17319390312E+01  0.17557783807E+02 -0.39652837771E+02  0.47787275025E+02  0.20000018150E+02 0.  0.
        -12    1    1    2    0    0 -0.17319390312E+01 -0.17557783807E+02  0.39652837771E+02  0.43400724975E+02  0.00000000000E+00 0.  1.
         11    1    3    3    0    0  0.14349755026E+01 -0.17334057301E-01  0.16632829377E+01  0.21968080378E+01  0.51100000000E-03 0. -1.
        -11    1    3    3    0    0 -0.16008234837E+01  0.43272905779E+01 -0.19146213417E+02  0.19694302934E+02  0.51100000000E-03 0.  1.
         12    1    3    3    0    0  0.18977870122E+01  0.13247827287E+02 -0.22169907292E+02  0.25896164054E+02  0.00000000000E+00 0. -1.
</event>
<event>
 7    1  0.1400974E-009  0.4778727E+02  0.7816164E-02  0.1312668E+00
        -11   -1    0    0    0    0  0.00000000000E+00  0.00000000000E+00  0.45593999997E+02  0.45594000000E+02  0.51100000000E-03 0.  1.
         11   -1    0    0    0    0 -0.00000000000E+00 -0.00000000000E+00 -0.45593999997E+02  0.45594000000E+02  0.51100000000E-03 0. -1.
    9900012    2    1    2    0    0 -0.33599898192E+02 -0.25035805419E+02  0.11308346808E+02  0.47787269372E+02  0.19999992374E+02 0.  0.
        -12    1    1    2    0    0  0.33599898192E+02  0.25035805419E+02 -0.11308346808E+02  0.43400730628E+02  0.00000000000E+00 0.  1.
         11    1    3    3    0    0 -0.34435090462E+01 -0.54875724881E+01 -0.29615405099E+01  0.71233369158E+01  0.51100000000E-03 0. -1.
        -11    1    3    3    0    0 -0.73605071804E+01 -0.11972257945E+02  0.50574463162E+01  0.14936190604E+02  0.51100000000E-03 0.  1.
        -12    1    3    3    0    0 -0.22795881966E+02 -0.75759749858E+01  0.92124410019E+01  0.25727741852E+02  0.00000000000E+00 0.  1.
</event>
<event>
 7    1  0.1400974E-009  0.4778723E+02  0.7816164E-02  0.1312668E+00
        -11   -1    0    0    0    0  0.00000000000E+00  0.00000000000E+00  0.45593999997E+02  0.45594000000E+02  0.51100000000E-03 0.  1.
         11   -1    0    0    0    0 -0.00000000000E+00 -0.00000000000E+00 -0.45593999997E+02  0.45594000000E+02  0.51100000000E-03 0. -1.
    9900012    2    1    2    0    0  0.34692932028E+02 -0.23312921538E+01 -0.25972923027E+02  0.47787225970E+02  0.19999794488E+02 0.  0.
        -12    1    1    2    0    0 -0.34692932028E+02  0.23312921538E+01  0.25972923027E+02  0.43400774030E+02  0.00000000000E+00 0.  1.
         11    1    3    3    0    0  0.13240407687E+02  0.55653792858E+01 -0.85639050497E+01  0.16721911143E+02  0.51100000000E-03 0. -1.
        -11    1    3    3    0    0  0.12024674100E+02 -0.31921210451E+01 -0.16249402821E+02  0.20465227003E+02  0.51100000000E-03 0.  1.
        -12    1    3    3    0    0  0.94278502406E+01 -0.47045503945E+01 -0.11596151564E+01  0.10600087824E+02  0.00000000000E+00 0.  1.
</event>
<event>
 7    1  0.1400974E-009  0.4778727E+02  0.7816164E-02  0.1312668E+00
        -11   -1    0    0    0    0  0.00000000000E+00  0.00000000000E+00  0.45593999997E+02  0.45594000000E+02  0.51100000000E-03 0.  1.
         11   -1    0    0    0    0 -0.00000000000E+00 -0.00000000000E+00 -0.45593999997E+02  0.45594000000E+02  0.51100000000E-03 0. -1.
    9900012    2    1    2    0    0  0.28834273102E+02 -0.26059803121E+02 -0.19315660051E+02  0.47787269969E+02  0.19999995095E+02 0.  0.
        -12    1    1    2    0    0 -0.28834273102E+02  0.26059803121E+02  0.19315660051E+02  0.43400730031E+02  0.00000000000E+00 0.  1.
         11    1    3    3    0    0  0.20547549913E+02 -0.24799800253E+02 -0.16139699815E+02  0.36023906095E+02  0.51100000000E-03 0. -1.
        -11    1    3    3    0    0  0.83659188849E+01 -0.21326324573E+01 -0.17301777469E+00  0.86351986311E+01  0.51100000000E-03 0.  1.
        -12    1    3    3    0    0 -0.79195695418E-01  0.87262958882E+00 -0.30029424612E+01  0.31281652422E+01  0.00000000000E+00 0.  1.
</event>
<event>
 7    1  0.1400974E-009  0.4778727E+02  0.7816164E-02  0.1312668E+00
        -11   -1    0    0    0    0  0.00000000000E+00  0.00000000000E+00  0.45593999997E+02  0.45594000000E+02  0.51100000000E-03 0. -1.
         11   -1    0    0    0    0 -0.00000000000E+00 -0.00000000000E+00 -0.45593999997E+02  0.45594000000E+02  0.51100000000E-03 0.  1.
    9900012    2    1    2    0    0  0.22757397190E+02  0.32808679959E+02  0.17009261745E+02  0.47787267372E+02  0.19999983256E+02 0.  0.
        -12    1    1    2    0    0 -0.22757397190E+02 -0.32808679959E+02 -0.17009261745E+02  0.43400732628E+02  0.00000000000E+00 0.  1.
         11    1    3    3    0    0  0.59880220581E+01  0.26594240886E+01 -0.26570075122E+01  0.70702640568E+01  0.51100000000E-03 0. -1.
        -11    1    3    3    0    0  0.13368125991E+02  0.18253456032E+02  0.88883255324E+01  0.24308389100E+02  0.51100000000E-03 0.  1.
        -12    1    3    3    0    0  0.34012491414E+01  0.11895799839E+02  0.10777943725E+02  0.16408614215E+02  0.00000000000E+00 0.  1.
</event>
<event>
 7    1  0.1841676E-009  0.4778727E+02  0.7816164E-02  0.1312668E+00
        -11   -1    0    0    0    0  0.00000000000E+00  0.00000000000E+00  0.45593999997E+02  0.45594000000E+02  0.51100000000E-03 0.  1.
         11   -1    0    0    0    0 -0.00000000000E+00 -0.00000000000E+00 -0.45593999997E+02  0.45594000000E+02  0.51100000000E-03 0. -1.
    9900012    2    1    2    0    0 -0.53759717230E+01  0.28539624075E+02 -0.32252319812E+02  0.47787270195E+02  0.19999996129E+02 0.  0.
        -12    1    1    2    0    0  0.53759717230E+01 -0.28539624075E+02  0.32252319812E+02  0.43400729805E+02  0.00000000000E+00 0.  1.
         11    1    3    3    0    0 -0.76757952782E+01  0.15750734143E+02 -0.12470862809E+02  0.21506414826E+02  0.51100000000E-03 0. -1.
        -11    1    3    3    0    0 -0.14421813800E+01 -0.16042530650E+01 -0.43166552911E+01  0.48256634977E+01  0.51100000000E-03 0.  1.
         12    1    3    3    0    0  0.37420049353E+01  0.14393142997E+02 -0.15464801712E+02  0.21455191872E+02  0.00000000000E+00 0. -1.
</event>
<event>
 7    1  0.1400974E-009  0.4778727E+02  0.7816164E-02  0.1312668E+00
        -11   -1    0    0    0    0  0.00000000000E+00  0.00000000000E+00  0.45593999997E+02  0.45594000000E+02  0.51100000000E-03 0. -1.
         11   -1    0    0    0    0 -0.00000000000E+00 -0.00000000000E+00 -0.45593999997E+02  0.45594000000E+02  0.51100000000E-03 0.  1.
    9900012    2    1    2    0    0  0.46693490710E+01  0.25309870872E+02  0.34946117795E+02  0.47787268056E+02  0.19999986376E+02 0.  0.
        -12    1    1    2    0    0 -0.46693490710E+01 -0.25309870872E+02 -0.34946117795E+02  0.43400731944E+02  0.00000000000E+00 0.  1.
         11    1    3    3    0    0 -0.44431850485E+01  0.39579946517E+01  0.11913592097E+02  0.13316955056E+02  0.51100000000E-03 0.  1.
        -11    1    3    3    0    0  0.37326239293E+00  0.96180406664E+01  0.14879400389E+02  0.17721246775E+02  0.51100000000E-03 0. -1.
        -12    1    3    3    0    0  0.87392717266E+01  0.11733835554E+02  0.81531253092E+01  0.16749066225E+02  0.00000000000E+00 0.  1.
</event>
<event>
 7    1  0.1400974E-009  0.4778727E+02  0.7816164E-02  0.1312668E+00
        -11   -1    0    0    0    0  0.00000000000E+00  0.00000000000E+00  0.45593999997E+02  0.45594000000E+02  0.51100000000E-03 0.  1.
         11   -1    0    0    0    0 -0.00000000000E+00 -0.00000000000E+00 -0.45593999997E+02  0.45594000000E+02  0.51100000000E-03 0. -1.
    9900012    2    1    2    0    0  0.28893203855E+02 -0.27155146793E+01 -0.32271222563E+02  0.47787273570E+02  0.20000011514E+02 0.  0.
        -12    1    1    2    0    0 -0.28893203855E+02  0.27155146793E+01  0.32271222563E+02  0.43400726430E+02  0.00000000000E+00 0.  1.
         11    1    3    3    0    0  0.43914182673E+01  0.13507295831E+01 -0.10359244671E+02  0.11332386122E+02  0.51100000000E-03 0. -1.
        -11    1    3    3    0    0  0.12827151256E+01  0.40547268131E+01 -0.51952853162E+01  0.67139524425E+01  0.51100000000E-03 0.  1.
        -12    1    3    3    0    0  0.23219070462E+02 -0.81209710755E+01 -0.16716692576E+02  0.29740935005E+02  0.00000000000E+00 0.  1.
</event>
<event>
 7    1  0.1400974E-009  0.4778727E+02  0.7816164E-02  0.1312668E+00
        -11   -1    0    0    0    0  0.00000000000E+00  0.00000000000E+00  0.45593999997E+02  0.45594000000E+02  0.51100000000E-03 0. -1.
         11   -1    0    0    0    0 -0.00000000000E+00 -0.00000000000E+00 -0.45593999997E+02  0.45594000000E+02  0.51100000000E-03 0.  1.
    9900012    2    1    2    0    0  0.23489612671E+02 -0.23132562865E+02  0.28226683459E+02  0.47787273886E+02  0.20000012955E+02 0.  0.
        -12    1    1    2    0    0 -0.23489612671E+02  0.23132562865E+02 -0.28226683459E+02  0.43400726114E+02  0.00000000000E+00 0.  1.
         11    1    3    3    0    0  0.11210231855E+02 -0.15719906011E+02  0.48505392481E+01  0.19907598411E+02  0.51100000000E-03 0. -1.
        -11    1    3    3    0    0  0.45288055808E+01 -0.52188412594E+01  0.13220478887E+02  0.14917353865E+02  0.51100000000E-03 0.  1.
        -12    1    3    3    0    0  0.77505752344E+01 -0.21938155948E+01  0.10155665324E+02  0.12962321609E+02  0.00000000000E+00 0.  1.
</event>
<event>
 7    1  0.1400974E-009  0.4778728E+02  0.7816164E-02  0.1312668E+00
        -11   -1    0    0    0    0  0.00000000000E+00  0.00000000000E+00  0.45593999997E+02  0.45594000000E+02  0.51100000000E-03 0.  1.
         11   -1    0    0    0    0 -0.00000000000E+00 -0.00000000000E+00 -0.45593999997E+02  0.45594000000E+02  0.51100000000E-03 0. -1.
    9900012    2    1    2    0    0  0.28509712187E+02 -0.79791544628E+01 -0.31735650160E+02  0.47787284729E+02  0.20000062396E+02 0.  0.
        -12    1    1    2    0    0 -0.28509712187E+02  0.79791544628E+01  0.31735650160E+02  0.43400715271E+02  0.00000000000E+00 0.  1.
         11    1    3    3    0    0  0.14952935464E+02 -0.27197202497E+01 -0.99560684929E+01  0.18168942108E+02  0.51100000000E-03 0. -1.
        -11    1    3    3    0    0  0.15867665007E+02 -0.45272313301E+01 -0.14572337743E+02  0.22014350861E+02  0.51100000000E-03 0.  1.
        -12    1    3    3    0    0 -0.23108882832E+01 -0.73220288300E+00 -0.72072439236E+01  0.76039917605E+01  0.00000000000E+00 0.  1.
</event>
<event>
 7    1  0.1400974E-009  0.4778727E+02  0.7816164E-02  0.1312668E+00
        -11   -1    0    0    0    0  0.00000000000E+00  0.00000000000E+00  0.45593999997E+02  0.45594000000E+02  0.51100000000E-03 0.  1.
         11   -1    0    0    0    0 -0.00000000000E+00 -0.00000000000E+00 -0.45593999997E+02  0.45594000000E+02  0.51100000000E-03 0. -1.
    9900012    2    1    2    0    0 -0.15369971688E+00 -0.16761541099E+02 -0.40033115839E+02  0.47787271350E+02  0.20000001392E+02 0.  0.
        -12    1    1    2    0    0  0.15369971688E+00  0.16761541099E+02  0.40033115839E+02  0.43400728650E+02  0.00000000000E+00 0.  1.
         11    1    3    3    0    0  0.36986400653E+01 -0.30856330866E+00 -0.51943390025E+01  0.63840666962E+01  0.51100000000E-03 0. -1.
        -11    1    3    3    0    0 -0.93608952501E+01 -0.82882986603E+01 -0.18626687988E+02  0.22433808420E+02  0.51100000000E-03 0.  1.
        -12    1    3    3    0    0  0.55085554680E+01 -0.81646791304E+01 -0.16212088848E+02  0.18969396234E+02  0.00000000000E+00 0.  1.
</event>
<event>
 7    1  0.1400974E-009  0.4778727E+02  0.7816164E-02  0.1312668E+00
        -11   -1    0    0    0    0  0.00000000000E+00  0.00000000000E+00  0.45593999997E+02  0.45594000000E+02  0.51100000000E-03 0.  1.
         11   -1    0    0    0    0 -0.00000000000E+00 -0.00000000000E+00 -0.45593999997E+02  0.45594000000E+02  0.51100000000E-03 0. -1.
    9900012    2    1    2    0    0 -0.24346026684E+02 -0.32706873653E+02 -0.14871272935E+02  0.47787270073E+02  0.19999995571E+02 0.  0.
        -12    1    1    2    0    0  0.24346026684E+02  0.32706873653E+02  0.14871272935E+02  0.43400729927E+02  0.00000000000E+00 0.  1.
         11    1    3    3    0    0 -0.19901533815E+02 -0.15795105407E+02 -0.80688332249E+01  0.26658253372E+02  0.51100000000E-03 0. -1.
        -11    1    3    3    0    0 -0.40343162784E+01 -0.95102370968E+01 -0.86675933401E+01  0.13485084058E+02  0.51100000000E-03 0.  1.
        -12    1    3    3    0    0 -0.41017659126E+00 -0.74015311494E+01  0.18651536296E+01  0.76439326432E+01  0.00000000000E+00 0.  1.
</event>
<event>
 7    1  0.1400974E-009  0.4778722E+02  0.7816164E-02  0.1312668E+00
        -11   -1    0    0    0    0  0.00000000000E+00  0.00000000000E+00  0.45593999997E+02  0.45594000000E+02  0.51100000000E-03 0.  1.
         11   -1    0    0    0    0 -0.00000000000E+00 -0.00000000000E+00 -0.45593999997E+02  0.45594000000E+02  0.51100000000E-03 0. -1.
    9900012    2    1    2    0    0  0.32719852611E+02  0.71688199831E+01 -0.27597957514E+02  0.47787216669E+02  0.19999752078E+02 0.  0.
        -12    1    1    2    0    0 -0.32719852611E+02 -0.71688199831E+01  0.27597957514E+02  0.43400783331E+02  0.00000000000E+00 0.  1.
         11    1    3    3    0    0 -0.91574033238E+00 -0.11688909333E+01 -0.29117541623E+01  0.32685163199E+01  0.51100000000E-03 0. -1.
        -11    1    3    3    0    0  0.34422930089E+01 -0.24799575466E+00  0.13798898254E+01  0.37168507159E+01  0.51100000000E-03 0.  1.
         12    1    3    3    0    0  0.30193299934E+02  0.85857066710E+01 -0.26066093177E+02  0.40801849633E+02  0.00000000000E+00 0. -1.
</event>
<event>
 7    1  0.1400974E-009  0.4778733E+02  0.7816164E-02  0.1312667E+00
        -11   -1    0    0    0    0  0.00000000000E+00  0.00000000000E+00  0.45593999997E+02  0.45594000000E+02  0.51100000000E-03 0.  1.
         11   -1    0    0    0    0 -0.00000000000E+00 -0.00000000000E+00 -0.45593999997E+02  0.45594000000E+02  0.51100000000E-03 0. -1.
    9900012    2    1    2    0    0 -0.17283141411E+02 -0.10782760495E+02 -0.38322879270E+02  0.47787332074E+02  0.20000278256E+02 0.  0.
        -12    1    1    2    0    0  0.17283141411E+02  0.10782760495E+02  0.38322879270E+02  0.43400667926E+02  0.00000000000E+00 0.  1.
         11    1    3    3    0    0 -0.66996706783E+01 -0.61945277876E+01 -0.16142101232E+02  0.18542523942E+02  0.51100000000E-03 0. -1.
        -11    1    3    3    0    0  0.13790008590E+01  0.35167127137E+01 -0.86936384675E+01  0.94788322986E+01  0.51100000000E-03 0.  1.
        -12    1    3    3    0    0 -0.11962471591E+02 -0.81049454208E+01 -0.13487139570E+02  0.19765975833E+02  0.00000000000E+00 0.  1.
</event>
<event>
 7    1  0.1400974E-009  0.4778727E+02  0.7816164E-02  0.1312668E+00
        -11   -1    0    0    0    0  0.00000000000E+00  0.00000000000E+00  0.45593999997E+02  0.45594000000E+02  0.51100000000E-03 0. -1.
         11   -1    0    0    0    0 -0.00000000000E+00 -0.00000000000E+00 -0.45593999997E+02  0.45594000000E+02  0.51100000000E-03 0.  1.
    9900012    2    1    2    0    0  0.56656636273E+01 -0.18156007028E+01  0.42991012789E+02  0.47787270388E+02  0.19999997005E+02 0.  0.
        -12    1    1    2    0    0 -0.56656636273E+01  0.18156007028E+01 -0.42991012789E+02  0.43400729612E+02  0.00000000000E+00 0.  1.
         11    1    3    3    0    0  0.27783147308E+01  0.68647058463E+01  0.12511224003E+02  0.14538705080E+02  0.51100000000E-03 0. -1.
        -11    1    3    3    0    0 -0.33096990248E+01 -0.16654326801E+01  0.11573916773E+02  0.12152502762E+02  0.51100000000E-03 0.  1.
        -12    1    3    3    0    0  0.61970479213E+01 -0.70148738690E+01  0.18905872013E+02  0.21096062545E+02  0.00000000000E+00 0.  1.
</event>
<event>
 7    1  0.1400974E-009  0.4778727E+02  0.7816164E-02  0.1312668E+00
        -11   -1    0    0    0    0  0.00000000000E+00  0.00000000000E+00  0.45593999997E+02  0.45594000000E+02  0.51100000000E-03 0. -1.
         11   -1    0    0    0    0 -0.00000000000E+00 -0.00000000000E+00 -0.45593999997E+02  0.45594000000E+02  0.51100000000E-03 0.  1.
    9900012    2    1    2    0    0  0.73174526615E+01  0.36633339182E+02  0.22092460843E+02  0.47787268680E+02  0.19999989219E+02 0.  0.
        -12    1    1    2    0    0 -0.73174526615E+01 -0.36633339182E+02 -0.22092460843E+02  0.43400731320E+02  0.00000000000E+00 0.  1.
         11    1    3    3    0    0  0.57425270825E+01  0.16862377270E+02  0.54395067328E+01  0.18625375654E+02  0.51100000000E-03 0.  1.
        -11    1    3    3    0    0 -0.25356092943E+01 -0.91666087961E+00  0.30153994450E+01  0.40450235767E+01  0.51100000000E-03 0. -1.
         12    1    3    3    0    0  0.41105348733E+01  0.20687622791E+02  0.13637554665E+02  0.25116869450E+02  0.00000000000E+00 0. -1.
</event>
<event>
 7    1  0.1400974E-009  0.4778728E+02  0.7816164E-02  0.1312668E+00
        -11   -1    0    0    0    0  0.00000000000E+00  0.00000000000E+00  0.45593999997E+02  0.45594000000E+02  0.51100000000E-03 0.  1.
         11   -1    0    0    0    0 -0.00000000000E+00 -0.00000000000E+00 -0.45593999997E+02  0.45594000000E+02  0.51100000000E-03 0. -1.
    9900012    2    1    2    0    0 -0.12712316727E+01 -0.25568604915E+01 -0.43306687345E+02  0.47787277260E+02  0.20000028339E+02 0.  0.
        -12    1    1    2    0    0  0.12712316727E+01  0.25568604915E+01  0.43306687345E+02  0.43400722740E+02  0.00000000000E+00 0.  1.
         11    1    3    3    0    0 -0.63990374991E+01 -0.17371152501E+01 -0.12747699950E+02  0.14369032834E+02  0.51100000000E-03 0. -1.
        -11    1    3    3    0    0  0.27248039800E+01 -0.17807932465E+01 -0.55409022413E+00  0.33019384540E+01  0.51100000000E-03 0.  1.
         12    1    3    3    0    0  0.24030018464E+01  0.96104800503E+00 -0.30004897171E+02  0.30116305972E+02  0.00000000000E+00 0. -1.
</event>
<event>
 7    1  0.1400974E-009  0.4778727E+02  0.7816164E-02  0.1312668E+00
        -11   -1    0    0    0    0  0.00000000000E+00  0.00000000000E+00  0.45593999997E+02  0.45594000000E+02  0.51100000000E-03 0.  1.
         11   -1    0    0    0    0 -0.00000000000E+00 -0.00000000000E+00 -0.45593999997E+02  0.45594000000E+02  0.51100000000E-03 0. -1.
    9900012    2    1    2    0    0  0.80530799988E+01  0.42527397515E+02 -0.31924634831E+01  0.47787268900E+02  0.19999990224E+02 0.  0.
        -12    1    1    2    0    0 -0.80530799988E+01 -0.42527397515E+02  0.31924634831E+01  0.43400731100E+02  0.00000000000E+00 0.  1.
         11    1    3    3    0    0  0.48537661139E+01  0.19699150575E+02 -0.82464056430E+01  0.21900200573E+02  0.51100000000E-03 0.  1.
        -11    1    3    3    0    0  0.17887585240E+01  0.15568050772E+02 -0.18377717894E+01  0.15777872711E+02  0.51100000000E-03 0. -1.
        -12    1    3    3    0    0  0.14105553609E+01  0.72601961691E+01  0.68917139494E+01  0.10109195616E+02  0.00000000000E+00 0.  1.
</event>
<event>
 7    1  0.1400974E-009  0.4778727E+02  0.7816164E-02  0.1312668E+00
        -11   -1    0    0    0    0  0.00000000000E+00  0.00000000000E+00  0.45593999997E+02  0.45594000000E+02  0.51100000000E-03 0. -1.
         11   -1    0    0    0    0 -0.00000000000E+00 -0.00000000000E+00 -0.45593999997E+02  0.45594000000E+02  0.51100000000E-03 0.  1.
    9900012    2    1    2    0    0  0.38642843549E+02  0.19751082757E+02 -0.49914737623E+00  0.47787265263E+02  0.19999973640E+02 0.  0.
        -12    1    1    2    0    0 -0.38642843549E+02 -0.19751082757E+02  0.49914737623E+00  0.43400734737E+02  0.00000000000E+00 0.  1.
         11    1    3    3    0    0  0.11805172248E+02  0.10090793484E+02  0.10948250512E+01  0.15568713726E+02  0.51100000000E-03 0. -1.
        -11    1    3    3    0    0  0.12271106442E+02  0.33991614729E+01 -0.80882473699E+01  0.15084896347E+02  0.51100000000E-03 0.  1.
         12    1    3    3    0    0  0.14566564859E+02  0.62611277999E+01  0.64942749424E+01  0.17133655189E+02  0.00000000000E+00 0. -1.
</event>
<event>
 7    1  0.1400974E-009  0.4778728E+02  0.7816164E-02  0.1312668E+00
        -11   -1    0    0    0    0  0.00000000000E+00  0.00000000000E+00  0.45593999997E+02  0.45594000000E+02  0.51100000000E-03 0.  1.
         11   -1    0    0    0    0 -0.00000000000E+00 -0.00000000000E+00 -0.45593999997E+02  0.45594000000E+02  0.51100000000E-03 0. -1.
    9900012    2    1    2    0    0 -0.13606820493E+02  0.19199343934E+02 -0.36467275329E+02  0.47787279483E+02  0.20000038476E+02 0.  0.
        -12    1    1    2    0    0  0.13606820493E+02 -0.19199343934E+02  0.36467275329E+02  0.43400720517E+02  0.00000000000E+00 0.  1.
         11    1    3    3    0    0 -0.77867823159E+00 -0.70501913429E+00 -0.88031765809E+01  0.88656251863E+01  0.51100000000E-03 0. -1.
        -11    1    3    3    0    0 -0.14345404164E+02  0.10314107767E+02 -0.17711999234E+02  0.25017720855E+02  0.51100000000E-03 0.  1.
        -12    1    3    3    0    0  0.15172619019E+01  0.95902553013E+01 -0.99520995146E+01  0.13903933442E+02  0.00000000000E+00 0.  1.
</event>
<event>
 7    1  0.1400974E-009  0.4778727E+02  0.7816164E-02  0.1312668E+00
        -11   -1    0    0    0    0  0.00000000000E+00  0.00000000000E+00  0.45593999997E+02  0.45594000000E+02  0.51100000000E-03 0.  1.
         11   -1    0    0    0    0 -0.00000000000E+00 -0.00000000000E+00 -0.45593999997E+02  0.45594000000E+02  0.51100000000E-03 0. -1.
    9900012    2    1    2    0    0 -0.21308207697E+02 -0.10575622520E+02 -0.36300689932E+02  0.47787267328E+02  0.19999983055E+02 0.  0.
        -12    1    1    2    0    0  0.21308207697E+02  0.10575622520E+02  0.36300689932E+02  0.43400732672E+02  0.00000000000E+00 0.  1.
         11    1    3    3    0    0 -0.57122198665E+01 -0.21263757156E+01 -0.14244137336E+02  0.15493430162E+02  0.51100000000E-03 0. -1.
        -11    1    3    3    0    0 -0.92729950854E+01 -0.92410821021E+01 -0.48767553525E+01  0.13970282005E+02  0.51100000000E-03 0.  1.
        -12    1    3    3    0    0 -0.63229927449E+01  0.79183529755E+00 -0.17179797244E+02  0.18323555161E+02  0.00000000000E+00 0.  1.
</event>
<event>
 7    1  0.1400974E-009  0.4778727E+02  0.7816164E-02  0.1312668E+00
        -11   -1    0    0    0    0  0.00000000000E+00  0.00000000000E+00  0.45593999997E+02  0.45594000000E+02  0.51100000000E-03 0.  1.
         11   -1    0    0    0    0 -0.00000000000E+00 -0.00000000000E+00 -0.45593999997E+02  0.45594000000E+02  0.51100000000E-03 0. -1.
    9900012    2    1    2    0    0  0.19998098357E+02 -0.26234069831E+02 -0.28204138004E+02  0.47787265463E+02  0.19999974552E+02 0.  0.
        -12    1    1    2    0    0 -0.19998098357E+02  0.26234069831E+02  0.28204138004E+02  0.43400734537E+02  0.00000000000E+00 0.  1.
         11    1    3    3    0    0  0.74548788009E+01 -0.39021586430E+01 -0.11605112774E+02  0.14334598103E+02  0.51100000000E-03 0. -1.
        -11    1    3    3    0    0  0.10492944100E+02 -0.52817011466E+01 -0.82705100518E+01  0.14366613368E+02  0.51100000000E-03 0.  1.
        -12    1    3    3    0    0  0.20502754557E+01 -0.17050210042E+02 -0.83285151776E+01  0.19086053992E+02  0.00000000000E+00 0.  1.
</event>
<event>
 7    1  0.1400974E-009  0.4778727E+02  0.7816164E-02  0.1312668E+00
        -11   -1    0    0    0    0  0.00000000000E+00  0.00000000000E+00  0.45593999997E+02  0.45594000000E+02  0.51100000000E-03 0.  1.
         11   -1    0    0    0    0 -0.00000000000E+00 -0.00000000000E+00 -0.45593999997E+02  0.45594000000E+02  0.51100000000E-03 0. -1.
    9900012    2    1    2    0    0 -0.70500803167E+01  0.29013417521E+01 -0.42725891131E+02  0.47787272018E+02  0.20000004440E+02 0.  0.
        -12    1    1    2    0    0  0.70500803167E+01 -0.29013417521E+01  0.42725891131E+02  0.43400727982E+02  0.00000000000E+00 0.  1.
         11    1    3    3    0    0 -0.27706789083E+01  0.36813103300E+01 -0.85717505224E+01  0.97315782193E+01  0.51100000000E-03 0. -1.
        -11    1    3    3    0    0 -0.31084936601E+01 -0.82879922962E+01 -0.22094597251E+02  0.23801780964E+02  0.51100000000E-03 0.  1.
        -12    1    3    3    0    0 -0.11709077483E+01  0.75080237183E+01 -0.12059543358E+02  0.14253912835E+02  0.00000000000E+00 0.  1.
</event>
<event>
 7    1  0.1400974E-009  0.4778727E+02  0.7816164E-02  0.1312668E+00
        -11   -1    0    0    0    0  0.00000000000E+00  0.00000000000E+00  0.45593999997E+02  0.45594000000E+02  0.51100000000E-03 0. -1.
         11   -1    0    0    0    0 -0.00000000000E+00 -0.00000000000E+00 -0.45593999997E+02  0.45594000000E+02  0.51100000000E-03 0.  1.
    9900012    2    1    2    0    0 -0.28401088232E+02 -0.32738243464E+02 -0.22822916315E+01  0.47787271286E+02  0.20000001099E+02 0.  0.
        -12    1    1    2    0    0  0.28401088232E+02  0.32738243464E+02  0.22822916315E+01  0.43400728714E+02  0.00000000000E+00 0.  1.
         11    1    3    3    0    0 -0.12243340671E+01  0.23863742687E+01 -0.13783902471E+00  0.26856611692E+01  0.51100000000E-03 0.  1.
        -11    1    3    3    0    0 -0.66093559212E+01 -0.14360326633E+02 -0.13274574603E+01  0.15863943718E+02  0.51100000000E-03 0. -1.
         12    1    3    3    0    0 -0.20567398243E+02 -0.20764291100E+02 -0.81699514649E+00  0.29237666399E+02  0.00000000000E+00 0. -1.
</event>
<event>
 7    1  0.1400974E-009  0.4778727E+02  0.7816164E-02  0.1312668E+00
        -11   -1    0    0    0    0  0.00000000000E+00  0.00000000000E+00  0.45593999997E+02  0.45594000000E+02  0.51100000000E-03 0.  1.
         11   -1    0    0    0    0 -0.00000000000E+00 -0.00000000000E+00 -0.45593999997E+02  0.45594000000E+02  0.51100000000E-03 0. -1.
    9900012    2    1    2    0    0  0.15199438383E+02  0.33293850568E+02 -0.23326375448E+02  0.47787271846E+02  0.20000003652E+02 0.  0.
        -12    1    1    2    0    0 -0.15199438383E+02 -0.33293850568E+02  0.23326375448E+02  0.43400728154E+02  0.00000000000E+00 0.  1.
         11    1    3    3    0    0  0.69672661444E+01  0.14277246012E+02 -0.15572570378E+02  0.22246067060E+02  0.51100000000E-03 0. -1.
        -11    1    3    3    0    0  0.24184366584E+00 -0.82798362614E+00  0.18881906034E+01  0.20758875836E+01  0.51100000000E-03 0.  1.
         12    1    3    3    0    0  0.79903285728E+01  0.19844588182E+02 -0.96419956740E+01  0.23465317202E+02  0.00000000000E+00 0. -1.
</event>
<event>
 7    1  0.1400974E-009  0.4778727E+02  0.7816164E-02  0.1312668E+00
        -11   -1    0    0    0    0  0.00000000000E+00  0.00000000000E+00  0.45593999997E+02  0.45594000000E+02  0.51100000000E-03 0.  1.
         11   -1    0    0    0    0 -0.00000000000E+00 -0.00000000000E+00 -0.45593999997E+02  0.45594000000E+02  0.51100000000E-03 0. -1.
    9900012    2    1    2    0    0  0.25075927227E+01  0.43214879274E+02 -0.31320717516E+01  0.47787266303E+02  0.19999978383E+02 0.  0.
        -12    1    1    2    0    0 -0.25075927227E+01 -0.43214879274E+02  0.31320717516E+01  0.43400733697E+02  0.00000000000E+00 0.  1.
         11    1    3    3    0    0 -0.45154295208E+01  0.18007899475E+02  0.12601675257E+01  0.18608104947E+02  0.51100000000E-03 0. -1.
        -11    1    3    3    0    0  0.68568637441E+00  0.19522868585E+00 -0.32762421766E+01  0.33529156125E+01  0.51100000000E-03 0.  1.
         12    1    3    3    0    0  0.63373358692E+01  0.25011751113E+02 -0.11159971006E+01  0.25826245744E+02  0.00000000000E+00 0. -1.
</event>
<event>
 7    1  0.1400974E-009  0.4778730E+02  0.7816164E-02  0.1312668E+00
        -11   -1    0    0    0    0  0.00000000000E+00  0.00000000000E+00  0.45593999997E+02  0.45594000000E+02  0.51100000000E-03 0.  1.
         11   -1    0    0    0    0 -0.00000000000E+00 -0.00000000000E+00 -0.45593999997E+02  0.45594000000E+02  0.51100000000E-03 0. -1.
    9900012    2    1    2    0    0  0.90223545813E+01 -0.41897509844E+02 -0.68422463819E+01  0.47787302438E+02  0.20000143133E+02 0.  0.
        -12    1    1    2    0    0 -0.90223545813E+01  0.41897509844E+02  0.68422463819E+01  0.43400697562E+02  0.00000000000E+00 0.  1.
         11    1    3    3    0    0  0.20888112953E+01 -0.60498301364E+00  0.23771010578E+01  0.32217614397E+01  0.51100000000E-03 0. -1.
        -11    1    3    3    0    0 -0.27244347717E+01 -0.39763147516E+01 -0.25295712765E+01  0.54435608688E+01  0.51100000000E-03 0.  1.
         12    1    3    3    0    0  0.96579780577E+01 -0.37316212079E+02 -0.66897761633E+01  0.39121980129E+02  0.00000000000E+00 0. -1.
</event>
<event>
 7    1  0.1400974E-009  0.4778727E+02  0.7816164E-02  0.1312668E+00
        -11   -1    0    0    0    0  0.00000000000E+00  0.00000000000E+00  0.45593999997E+02  0.45594000000E+02  0.51100000000E-03 0.  1.
         11   -1    0    0    0    0 -0.00000000000E+00 -0.00000000000E+00 -0.45593999997E+02  0.45594000000E+02  0.51100000000E-03 0. -1.
    9900012    2    1    2    0    0 -0.33962792908E+02 -0.93023337131E+01 -0.25369644606E+02  0.47787267494E+02  0.19999983811E+02 0.  0.
        -12    1    1    2    0    0  0.33962792908E+02  0.93023337131E+01  0.25369644606E+02  0.43400732506E+02  0.00000000000E+00 0.  1.
         11    1    3    3    0    0 -0.14912979815E+02 -0.49939585859E+01 -0.87197847983E+01  0.17982525866E+02  0.51100000000E-03 0. -1.
        -11    1    3    3    0    0 -0.62443683761E+01  0.55537385951E+01 -0.39189417616E+01  0.92300733253E+01  0.51100000000E-03 0.  1.
         12    1    3    3    0    0 -0.12805444717E+02 -0.98621137222E+01 -0.12730918046E+02  0.20574668303E+02  0.00000000000E+00 0. -1.
</event>
<event>
 7    1  0.1400974E-009  0.4778727E+02  0.7816164E-02  0.1312668E+00
        -11   -1    0    0    0    0  0.00000000000E+00  0.00000000000E+00  0.45593999997E+02  0.45594000000E+02  0.51100000000E-03 0.  1.
         11   -1    0    0    0    0 -0.00000000000E+00 -0.00000000000E+00 -0.45593999997E+02  0.45594000000E+02  0.51100000000E-03 0. -1.
    9900012    2    1    2    0    0  0.42972368326E+02 -0.60693060300E+00  0.60523161535E+01  0.47787270339E+02  0.19999996782E+02 0.  0.
        -12    1    1    2    0    0 -0.42972368326E+02  0.60693060300E+00 -0.60523161535E+01  0.43400729661E+02  0.00000000000E+00 0.  1.
         11    1    3    3    0    0  0.92122370105E+01  0.32587130924E+00 -0.19165479172E+01  0.94151292624E+01  0.51100000000E-03 0. -1.
        -11    1    3    3    0    0  0.12887959028E+02 -0.12386333823E+01 -0.49070345168E+01  0.13846035121E+02  0.51100000000E-03 0.  1.
        -12    1    3    3    0    0  0.20872172287E+02  0.30583147007E+00  0.12875898588E+02  0.24526105955E+02  0.00000000000E+00 0.  1.
</event>
<event>
 7    1  0.1400974E-009  0.4778727E+02  0.7816164E-02  0.1312668E+00
        -11   -1    0    0    0    0  0.00000000000E+00  0.00000000000E+00  0.45593999997E+02  0.45594000000E+02  0.51100000000E-03 0. -1.
         11   -1    0    0    0    0 -0.00000000000E+00 -0.00000000000E+00 -0.45593999997E+02  0.45594000000E+02  0.51100000000E-03 0.  1.
    9900012    2    1    2    0    0 -0.21165436580E+02  0.37723697967E+02  0.35454348554E+01  0.47787271870E+02  0.20000003765E+02 0.  0.
        -12    1    1    2    0    0  0.21165436580E+02 -0.37723697967E+02 -0.35454348554E+01  0.43400728130E+02  0.00000000000E+00 0.  1.
         11    1    3    3    0    0 -0.78351307369E+01  0.13098310328E+02  0.47316893584E+01  0.15979483457E+02  0.51100000000E-03 0. -1.
        -11    1    3    3    0    0 -0.22093632796E+01  0.79192757623E-02 -0.40805729068E+01  0.46403043354E+01  0.51100000000E-03 0.  1.
         12    1    3    3    0    0 -0.11120942563E+02  0.24617468363E+02  0.28943184038E+01  0.27167484078E+02  0.00000000000E+00 0. -1.
</event>
<event>
 7    1  0.1400974E-009  0.4778727E+02  0.7816164E-02  0.1312668E+00
        -11   -1    0    0    0    0  0.00000000000E+00  0.00000000000E+00  0.45593999997E+02  0.45594000000E+02  0.51100000000E-03 0.  1.
         11   -1    0    0    0    0 -0.00000000000E+00 -0.00000000000E+00 -0.45593999997E+02  0.45594000000E+02  0.51100000000E-03 0. -1.
    9900012    2    1    2    0    0 -0.18823989039E+02 -0.23431736514E+02 -0.31308692409E+02  0.47787273511E+02  0.20000011248E+02 0.  0.
        -12    1    1    2    0    0  0.18823989039E+02  0.23431736514E+02  0.31308692409E+02  0.43400726489E+02  0.00000000000E+00 0.  1.
         11    1    3    3    0    0  0.14259613057E+01 -0.74475960712E+01 -0.51066859658E+01  0.91421165328E+01  0.51100000000E-03 0. -1.
        -11    1    3    3    0    0 -0.16771641296E+01 -0.63271125869E+01 -0.24602695407E+01  0.69927219077E+01  0.51100000000E-03 0.  1.
         12    1    3    3    0    0 -0.18572786215E+02 -0.96570278563E+01 -0.23741736902E+02  0.31652435071E+02  0.00000000000E+00 0. -1.
</event>
<event>
 7    1  0.1400974E-009  0.4778731E+02  0.7816164E-02  0.1312668E+00
        -11   -1    0    0    0    0  0.00000000000E+00  0.00000000000E+00  0.45593999997E+02  0.45594000000E+02  0.51100000000E-03 0.  1.
         11   -1    0    0    0    0 -0.00000000000E+00 -0.00000000000E+00 -0.45593999997E+02  0.45594000000E+02  0.51100000000E-03 0. -1.
    9900012    2    1    2    0    0  0.40001431138E+02  0.11544727322E+02 -0.12256609911E+02  0.47787312119E+02  0.20000187275E+02 0.  0.
        -12    1    1    2    0    0 -0.40001431138E+02 -0.11544727322E+02  0.12256609911E+02  0.43400687881E+02  0.00000000000E+00 0.  1.
         11    1    3    3    0    0  0.49390117177E+01  0.47344987323E+01 -0.40773658877E+01  0.79645607435E+01  0.51100000000E-03 0. -1.
        -11    1    3    3    0    0  0.16713254544E+02  0.29408136723E+01  0.40348807636E+01  0.17443093921E+02  0.51100000000E-03 0.  1.
         12    1    3    3    0    0  0.18349164876E+02  0.38694149173E+01 -0.12214124787E+02  0.22379657454E+02  0.00000000000E+00 0. -1.
</event>
<event>
 7    1  0.1400974E-009  0.4778725E+02  0.7816164E-02  0.1312668E+00
        -11   -1    0    0    0    0  0.00000000000E+00  0.00000000000E+00  0.45593999997E+02  0.45594000000E+02  0.51100000000E-03 0.  1.
         11   -1    0    0    0    0 -0.00000000000E+00 -0.00000000000E+00 -0.45593999997E+02  0.45594000000E+02  0.51100000000E-03 0. -1.
    9900012    2    1    2    0    0 -0.14372483177E+02 -0.59773547685E+01 -0.40513305039E+02  0.47787251990E+02  0.19999913121E+02 0.  0.
        -12    1    1    2    0    0  0.14372483177E+02  0.59773547685E+01  0.40513305039E+02  0.43400748010E+02  0.00000000000E+00 0.  1.
         11    1    3    3    0    0 -0.33714398258E+01  0.15239592897E+01 -0.13975627722E+02  0.14457082310E+02  0.51100000000E-03 0. -1.
        -11    1    3    3    0    0 -0.92264963560E+01 -0.30218534140E+00 -0.48873070031E+01  0.10445349252E+02  0.51100000000E-03 0.  1.
        -12    1    3    3    0    0 -0.17745469952E+01 -0.71991287168E+01 -0.21650370314E+02  0.22884820428E+02  0.00000000000E+00 0.  1.
</event>
<event>
 7    1  0.1400974E-009  0.4778727E+02  0.7816164E-02  0.1312668E+00
        -11   -1    0    0    0    0  0.00000000000E+00  0.00000000000E+00  0.45593999997E+02  0.45594000000E+02  0.51100000000E-03 0.  1.
         11   -1    0    0    0    0 -0.00000000000E+00 -0.00000000000E+00 -0.45593999997E+02  0.45594000000E+02  0.51100000000E-03 0. -1.
    9900012    2    1    2    0    0 -0.36536975730E+02  0.76409017470E+01 -0.22142477387E+02  0.47787270976E+02  0.19999999688E+02 0.  0.
        -12    1    1    2    0    0  0.36536975730E+02 -0.76409017470E+01  0.22142477387E+02  0.43400729024E+02  0.00000000000E+00 0.  1.
         11    1    3    3    0    0 -0.61285612101E+00  0.42606977794E+01 -0.41922793023E+01  0.60086890585E+01  0.51100000000E-03 0. -1.
        -11    1    3    3    0    0 -0.56998139581E+00 -0.30350771333E+00 -0.32495527365E+01  0.33130935652E+01  0.51100000000E-03 0.  1.
        -12    1    3    3    0    0 -0.35354138213E+02  0.36837116809E+01 -0.14700645348E+02  0.38465488352E+02  0.00000000000E+00 0.  1.
</event>
<event>
 7    1  0.1400974E-009  0.4778727E+02  0.7816164E-02  0.1312668E+00
        -11   -1    0    0    0    0  0.00000000000E+00  0.00000000000E+00  0.45593999997E+02  0.45594000000E+02  0.51100000000E-03 0.  1.
         11   -1    0    0    0    0 -0.00000000000E+00 -0.00000000000E+00 -0.45593999997E+02  0.45594000000E+02  0.51100000000E-03 0. -1.
    9900012    2    1    2    0    0 -0.10429288038E+02 -0.22013013762E+02 -0.35920469847E+02  0.47787274454E+02  0.20000015546E+02 0.  0.
        -12    1    1    2    0    0  0.10429288038E+02  0.22013013762E+02  0.35920469847E+02  0.43400725546E+02  0.00000000000E+00 0.  1.
         11    1    3    3    0    0  0.15574235142E+01 -0.15015427564E+02 -0.96035793365E+01  0.17891824090E+02  0.51100000000E-03 0. -1.
        -11    1    3    3    0    0 -0.50482670108E+01 -0.18502890276E+01 -0.12393900706E+02  0.13509898011E+02  0.51100000000E-03 0.  1.
        -12    1    3    3    0    0 -0.69384445411E+01 -0.51472971710E+01 -0.13922989804E+02  0.16385552353E+02  0.00000000000E+00 0.  1.
</event>
<event>
 7    1  0.1400974E-009  0.4778727E+02  0.7816164E-02  0.1312668E+00
        -11   -1    0    0    0    0  0.00000000000E+00  0.00000000000E+00  0.45593999997E+02  0.45594000000E+02  0.51100000000E-03 0. -1.
         11   -1    0    0    0    0 -0.00000000000E+00 -0.00000000000E+00 -0.45593999997E+02  0.45594000000E+02  0.51100000000E-03 0.  1.
    9900012    2    1    2    0    0 -0.18647134530E+02  0.35263687402E+02  0.17099130934E+02  0.47787267817E+02  0.19999985283E+02 0.  0.
        -12    1    1    2    0    0  0.18647134530E+02 -0.35263687402E+02 -0.17099130934E+02  0.43400732183E+02  0.00000000000E+00 0.  1.
         11    1    3    3    0    0 -0.41535620305E+01  0.11870701667E+01 -0.12001338338E+01  0.44834734975E+01  0.51100000000E-03 0.  1.
        -11    1    3    3    0    0 -0.16718457314E+02  0.27051831145E+02  0.13769273780E+02  0.34654022622E+02  0.51100000000E-03 0. -1.
         12    1    3    3    0    0  0.22248848141E+01  0.70247860905E+01  0.45299909881E+01  0.86497716967E+01  0.00000000000E+00 0. -1.
</event>
<event>
 7    1  0.1400974E-009  0.4778727E+02  0.7816164E-02  0.1312668E+00
        -11   -1    0    0    0    0  0.00000000000E+00  0.00000000000E+00  0.45593999997E+02  0.45594000000E+02  0.51100000000E-03 0.  1.
         11   -1    0    0    0    0 -0.00000000000E+00 -0.00000000000E+00 -0.45593999997E+02  0.45594000000E+02  0.51100000000E-03 0. -1.
    9900012    2    1    2    0    0  0.21785804500E+02 -0.34598439429E+02 -0.14558504785E+02  0.47787270165E+02  0.19999995988E+02 0.  0.
        -12    1    1    2    0    0 -0.21785804500E+02  0.34598439429E+02  0.14558504785E+02  0.43400729835E+02  0.00000000000E+00 0.  1.
         11    1    3    3    0    0  0.17241513406E+01 -0.14582350127E+02 -0.18127212182E+01  0.14795390888E+02  0.51100000000E-03 0. -1.
        -11    1    3    3    0    0  0.27314579662E+01 -0.28088701606E+01 -0.68138768322E+01  0.78599956708E+01  0.51100000000E-03 0.  1.
        -12    1    3    3    0    0  0.17330195194E+02 -0.17207219142E+02 -0.59319067343E+01  0.25131883606E+02  0.00000000000E+00 0.  1.
</event>
<event>
 7    1  0.1400974E-009  0.4778727E+02  0.7816164E-02  0.1312668E+00
        -11   -1    0    0    0    0  0.00000000000E+00  0.00000000000E+00  0.45593999997E+02  0.45594000000E+02  0.51100000000E-03 0. -1.
         11   -1    0    0    0    0 -0.00000000000E+00 -0.00000000000E+00 -0.45593999997E+02  0.45594000000E+02  0.51100000000E-03 0.  1.
    9900012    2    1    2    0    0 -0.34790909338E+02 -0.25672778152E+02  0.37582520147E+01  0.47787269951E+02  0.19999995014E+02 0.  0.
        -12    1    1    2    0    0  0.34790909338E+02  0.25672778152E+02 -0.37582520147E+01  0.43400730049E+02  0.00000000000E+00 0.  1.
         11    1    3    3    0    0 -0.14260832843E+02 -0.14373754002E+02 -0.39138011480E+01  0.20622657375E+02  0.51100000000E-03 0. -1.
        -11    1    3    3    0    0 -0.21357986907E+02 -0.87570155387E+01  0.55243896364E+01  0.23735370378E+02  0.51100000000E-03 0.  1.
        -12    1    3    3    0    0  0.82791041282E+00 -0.25420086115E+01  0.21476635263E+01  0.34292421983E+01  0.00000000000E+00 0.  1.
</event>
<event>
 7    1  0.1400974E-009  0.4778727E+02  0.7816164E-02  0.1312668E+00
        -11   -1    0    0    0    0  0.00000000000E+00  0.00000000000E+00  0.45593999997E+02  0.45594000000E+02  0.51100000000E-03 0.  1.
         11   -1    0    0    0    0 -0.00000000000E+00 -0.00000000000E+00 -0.45593999997E+02  0.45594000000E+02  0.51100000000E-03 0. -1.
    9900012    2    1    2    0    0 -0.41513579078E+02  0.55596092258E-01 -0.12658703003E+02  0.47787273041E+02  0.20000009105E+02 0.  0.
        -12    1    1    2    0    0  0.41513579078E+02 -0.55596092258E-01  0.12658703003E+02  0.43400726959E+02  0.00000000000E+00 0.  1.
         11    1    3    3    0    0 -0.15565899882E+02 -0.68653270322E+01 -0.54948978660E+01  0.17878027218E+02  0.51100000000E-03 0.  1.
        -11    1    3    3    0    0 -0.21078683908E+02  0.30768985654E+01 -0.12502510785E+01  0.21338728830E+02  0.51100000000E-03 0. -1.
        -12    1    3    3    0    0 -0.48689952889E+01  0.38440245591E+01 -0.59135540580E+01  0.85705169932E+01  0.00000000000E+00 0.  1.
</event>
<event>
 7    1  0.1400974E-009  0.4778727E+02  0.7816164E-02  0.1312668E+00
        -11   -1    0    0    0    0  0.00000000000E+00  0.00000000000E+00  0.45593999997E+02  0.45594000000E+02  0.51100000000E-03 0.  1.
         11   -1    0    0    0    0 -0.00000000000E+00 -0.00000000000E+00 -0.45593999997E+02  0.45594000000E+02  0.51100000000E-03 0. -1.
    9900012    2    1    2    0    0 -0.82595475716E+00  0.41725772685E+02 -0.11912216429E+02  0.47787271807E+02  0.20000003475E+02 0.  0.
        -12    1    1    2    0    0  0.82595475716E+00 -0.41725772685E+02  0.11912216429E+02  0.43400728193E+02  0.00000000000E+00 0.  1.
         11    1    3    3    0    0 -0.71259125774E+01  0.34466200511E+02 -0.87352751683E+01  0.36262965133E+02  0.51100000000E-03 0. -1.
        -11    1    3    3    0    0  0.29073458665E+01  0.60929434338E+01 -0.28512173708E-01  0.67511060486E+01  0.51100000000E-03 0.  1.
        -12    1    3    3    0    0  0.33926119538E+01  0.11666287404E+01 -0.31484290870E+01  0.47732006246E+01  0.00000000000E+00 0.  1.
</event>
<event>
 7    1  0.1400974E-009  0.4778727E+02  0.7816164E-02  0.1312668E+00
        -11   -1    0    0    0    0  0.00000000000E+00  0.00000000000E+00  0.45593999997E+02  0.45594000000E+02  0.51100000000E-03 0. -1.
         11   -1    0    0    0    0 -0.00000000000E+00 -0.00000000000E+00 -0.45593999997E+02  0.45594000000E+02  0.51100000000E-03 0.  1.
    9900012    2    1    2    0    0  0.79845233799E-01  0.61536355727E+01  0.42962189782E+02  0.47787270088E+02  0.19999995639E+02 0.  0.
        -12    1    1    2    0    0 -0.79845233799E-01 -0.61536355727E+01 -0.42962189782E+02  0.43400729912E+02  0.00000000000E+00 0.  1.
         11    1    3    3    0    0 -0.26904367721E+01  0.47260337426E+01  0.99377831875E+01  0.11328432367E+02  0.51100000000E-03 0.  1.
        -11    1    3    3    0    0  0.65620934725E+01 -0.37792974372E+01  0.25258858805E+02  0.26369567844E+02  0.51100000000E-03 0. -1.
         12    1    3    3    0    0 -0.37918114666E+01  0.52068992673E+01  0.77655477893E+01  0.10089269877E+02  0.00000000000E+00 0. -1.
</event>
<event>
 7    1  0.1400974E-009  0.4778727E+02  0.7816164E-02  0.1312668E+00
        -11   -1    0    0    0    0  0.00000000000E+00  0.00000000000E+00  0.45593999997E+02  0.45594000000E+02  0.51100000000E-03 0. -1.
         11   -1    0    0    0    0 -0.00000000000E+00 -0.00000000000E+00 -0.45593999997E+02  0.45594000000E+02  0.51100000000E-03 0.  1.
    9900012    2    1    2    0    0  0.27071692285E+02 -0.19897889728E+01  0.33864254877E+02  0.47787267959E+02  0.19999985933E+02 0.  0.
        -12    1    1    2    0    0 -0.27071692285E+02  0.19897889728E+01 -0.33864254877E+02  0.43400732041E+02  0.00000000000E+00 0.  1.
         11    1    3    3    0    0  0.11450362850E+02 -0.12712895124E+01  0.15013948273E+02  0.18924735914E+02  0.51100000000E-03 0. -1.
        -11    1    3    3    0    0  0.10162315835E+02  0.28471348337E+01  0.19290245811E+01  0.10728465686E+02  0.51100000000E-03 0.  1.
         12    1    3    3    0    0  0.54590135999E+01 -0.35656342942E+01  0.16921282023E+02  0.18134066359E+02  0.00000000000E+00 0. -1.
</event>
<event>
 7    1  0.1400974E-009  0.4778727E+02  0.7816164E-02  0.1312668E+00
        -11   -1    0    0    0    0  0.00000000000E+00  0.00000000000E+00  0.45593999997E+02  0.45594000000E+02  0.51100000000E-03 0. -1.
         11   -1    0    0    0    0 -0.00000000000E+00 -0.00000000000E+00 -0.45593999997E+02  0.45594000000E+02  0.51100000000E-03 0.  1.
    9900012    2    1    2    0    0  0.30658464990E+02  0.24064171937E+02  0.19094431408E+02  0.47787272387E+02  0.20000006120E+02 0.  0.
        -12    1    1    2    0    0 -0.30658464990E+02 -0.24064171937E+02 -0.19094431408E+02  0.43400727613E+02  0.00000000000E+00 0.  1.
         11    1    3    3    0    0  0.44352488082E+01  0.64190902482E+01  0.86337875838E+01  0.11636942894E+02  0.51100000000E-03 0. -1.
        -11    1    3    3    0    0  0.69199068992E+01  0.11378202040E+02  0.84133008613E+01  0.15752213330E+02  0.51100000000E-03 0.  1.
        -12    1    3    3    0    0  0.19303309283E+02  0.62668796493E+01  0.20473429630E+01  0.20398116163E+02  0.00000000000E+00 0.  1.
</event>
<event>
 7    1  0.1400974E-009  0.4778728E+02  0.7816164E-02  0.1312668E+00
        -11   -1    0    0    0    0  0.00000000000E+00  0.00000000000E+00  0.45593999997E+02  0.45594000000E+02  0.51100000000E-03 0. -1.
         11   -1    0    0    0    0 -0.00000000000E+00 -0.00000000000E+00 -0.45593999997E+02  0.45594000000E+02  0.51100000000E-03 0.  1.
    9900012    2    1    2    0    0 -0.23517925247E+02 -0.36391927664E+02  0.24814668153E+01  0.47787275529E+02  0.20000020448E+02 0.  0.
        -12    1    1    2    0    0  0.23517925247E+02  0.36391927664E+02 -0.24814668153E+01  0.43400724471E+02  0.00000000000E+00 0.  1.
         11    1    3    3    0    0 -0.27284639940E+01  0.12857822066E+01 -0.64442628759E+00  0.30843211815E+01  0.51100000000E-03 0. -1.
        -11    1    3    3    0    0 -0.11998092352E+02 -0.18106944087E+02 -0.40187008140E+01  0.22089943430E+02  0.51100000000E-03 0.  1.
         12    1    3    3    0    0 -0.87913689016E+01 -0.19570765783E+02  0.71445939170E+01  0.22613010917E+02  0.00000000000E+00 0. -1.
</event>
<event>
 7    1  0.1400974E-009  0.4778727E+02  0.7816164E-02  0.1312668E+00
        -11   -1    0    0    0    0  0.00000000000E+00  0.00000000000E+00  0.45593999997E+02  0.45594000000E+02  0.51100000000E-03 0.  1.
         11   -1    0    0    0    0 -0.00000000000E+00 -0.00000000000E+00 -0.45593999997E+02  0.45594000000E+02  0.51100000000E-03 0. -1.
    9900012    2    1    2    0    0 -0.37044315162E+02 -0.21262482732E+02 -0.76973193215E+01  0.47787272098E+02  0.20000004802E+02 0.  0.
        -12    1    1    2    0    0  0.37044315162E+02  0.21262482732E+02  0.76973193215E+01  0.43400727902E+02  0.00000000000E+00 0.  1.
         11    1    3    3    0    0 -0.24263047718E+02 -0.15551114926E+02 -0.23744385982E+01  0.28916614928E+02  0.51100000000E-03 0. -1.
        -11    1    3    3    0    0  0.73196674054E+00 -0.25501305965E+01  0.18636567772E+01  0.32422458594E+01  0.51100000000E-03 0.  1.
         12    1    3    3    0    0 -0.13513234185E+02 -0.31612372092E+01 -0.71865375005E+01  0.15628411310E+02  0.00000000000E+00 0. -1.
</event>
<event>
 7    1  0.1400974E-009  0.4778727E+02  0.7816164E-02  0.1312668E+00
        -11   -1    0    0    0    0  0.00000000000E+00  0.00000000000E+00  0.45593999997E+02  0.45594000000E+02  0.51100000000E-03 0. -1.
         11   -1    0    0    0    0 -0.00000000000E+00 -0.00000000000E+00 -0.45593999997E+02  0.45594000000E+02  0.51100000000E-03 0.  1.
    9900012    2    1    2    0    0  0.38365872404E+02  0.59893689373E+01  0.19385832207E+02  0.47787271942E+02  0.20000004093E+02 0.  0.
        -12    1    1    2    0    0 -0.38365872404E+02 -0.59893689373E+01 -0.19385832207E+02  0.43400728058E+02  0.00000000000E+00 0.  1.
         11    1    3    3    0    0  0.23533812146E+02 -0.51570059734E+01  0.59995056670E+01  0.24827990117E+02  0.51100000000E-03 0. -1.
        -11    1    3    3    0    0  0.46357119797E+01  0.30021161979E+01  0.49782510305E+01  0.74354227055E+01  0.51100000000E-03 0.  1.
         12    1    3    3    0    0  0.10196348278E+02  0.81442587127E+01  0.84080755093E+01  0.15523859119E+02  0.00000000000E+00 0. -1.
</event>
<event>
 7    1  0.1400974E-009  0.4778727E+02  0.7816164E-02  0.1312668E+00
        -11   -1    0    0    0    0  0.00000000000E+00  0.00000000000E+00  0.45593999997E+02  0.45594000000E+02  0.51100000000E-03 0. -1.
         11   -1    0    0    0    0 -0.00000000000E+00 -0.00000000000E+00 -0.45593999997E+02  0.45594000000E+02  0.51100000000E-03 0.  1.
    9900012    2    1    2    0    0  0.44930339712E+01 -0.36113381699E+02  0.23648670905E+02  0.47787270426E+02  0.19999997178E+02 0.  0.
        -12    1    1    2    0    0 -0.44930339712E+01  0.36113381699E+02 -0.23648670905E+02  0.43400729574E+02  0.00000000000E+00 0.  1.
         11    1    3    3    0    0  0.23778553512E+01 -0.74952960328E+01  0.86157525118E+01  0.11664683892E+02  0.51100000000E-03 0. -1.
        -11    1    3    3    0    0 -0.49667586436E+01 -0.77806376751E+01 -0.40530535786E+00  0.92396583675E+01  0.51100000000E-03 0.  1.
        -12    1    3    3    0    0  0.70819372636E+01 -0.20837447991E+02  0.15438223751E+02  0.26882928166E+02  0.00000000000E+00 0.  1.
</event>
<event>
 7    1  0.1400974E-009  0.4778728E+02  0.7816164E-02  0.1312668E+00
        -11   -1    0    0    0    0  0.00000000000E+00  0.00000000000E+00  0.45593999997E+02  0.45594000000E+02  0.51100000000E-03 0. -1.
         11   -1    0    0    0    0 -0.00000000000E+00 -0.00000000000E+00 -0.45593999997E+02  0.45594000000E+02  0.51100000000E-03 0.  1.
    9900012    2    1    2    0    0 -0.37074006199E-01 -0.34344336438E+02  0.26534653339E+02  0.47787278259E+02  0.20000032892E+02 0.  0.
        -12    1    1    2    0    0  0.37074006199E-01  0.34344336438E+02 -0.26534653339E+02  0.43400721741E+02  0.00000000000E+00 0.  1.
         11    1    3    3    0    0 -0.78020886411E-02 -0.70331468505E+01  0.16805326885E+00  0.70351586802E+01  0.51100000000E-03 0. -1.
        -11    1    3    3    0    0  0.31224495411E+00 -0.14210692438E+02  0.23299563788E+02  0.27293056799E+02  0.51100000000E-03 0.  1.
        -12    1    3    3    0    0 -0.34151687167E+00 -0.13100497149E+02  0.30670362823E+01  0.13459062779E+02  0.00000000000E+00 0.  1.
</event>
<event>
 7    1  0.1400974E-009  0.4778727E+02  0.7816164E-02  0.1312668E+00
        -11   -1    0    0    0    0  0.00000000000E+00  0.00000000000E+00  0.45593999997E+02  0.45594000000E+02  0.51100000000E-03 0.  1.
         11   -1    0    0    0    0 -0.00000000000E+00 -0.00000000000E+00 -0.45593999997E+02  0.45594000000E+02  0.51100000000E-03 0. -1.
    9900012    2    1    2    0    0  0.51203420797E+01 -0.18868705169E+01 -0.43056302603E+02  0.47787269854E+02  0.19999994572E+02 0.  0.
        -12    1    1    2    0    0 -0.51203420797E+01  0.18868705169E+01  0.43056302603E+02  0.43400730146E+02  0.00000000000E+00 0.  1.
         11    1    3    3    0    0 -0.79946974035E+00 -0.59572818087E+01 -0.19084324057E+02  0.20008492782E+02  0.51100000000E-03 0. -1.
        -11    1    3    3    0    0  0.25011928478E+01 -0.31783368386E+01 -0.22560610148E+01  0.46311556101E+01  0.51100000000E-03 0.  1.
        -12    1    3    3    0    0  0.34186189723E+01  0.72487481304E+01 -0.21715917531E+02  0.23147621462E+02  0.00000000000E+00 0.  1.
</event>
<event>
 7    1  0.1400974E-009  0.4778727E+02  0.7816164E-02  0.1312668E+00
        -11   -1    0    0    0    0  0.00000000000E+00  0.00000000000E+00  0.45593999997E+02  0.45594000000E+02  0.51100000000E-03 0.  1.
         11   -1    0    0    0    0 -0.00000000000E+00 -0.00000000000E+00 -0.45593999997E+02  0.45594000000E+02  0.51100000000E-03 0. -1.
    9900012    2    1    2    0    0 -0.38060705597E+02  0.52791320080E+01 -0.20177624737E+02  0.47787273216E+02  0.20000009903E+02 0.  0.
        -12    1    1    2    0    0  0.38060705597E+02 -0.52791320080E+01  0.20177624737E+02  0.43400726784E+02  0.00000000000E+00 0.  1.
         11    1    3    3    0    0 -0.31420108452E+02 -0.17953659335E+01 -0.16484334319E+02  0.35527170337E+02  0.51100000000E-03 0. -1.
        -11    1    3    3    0    0 -0.15577476239E+01  0.19713532923E+01 -0.43543364787E+01  0.50272316332E+01  0.51100000000E-03 0.  1.
        -12    1    3    3    0    0 -0.50828495219E+01  0.51031446492E+01  0.66104606040E+00  0.72328712464E+01  0.00000000000E+00 0.  1.
</event>
<event>
 7    1  0.1400974E-009  0.4778726E+02  0.7816164E-02  0.1312668E+00
        -11   -1    0    0    0    0  0.00000000000E+00  0.00000000000E+00  0.45593999997E+02  0.45594000000E+02  0.51100000000E-03 0.  1.
         11   -1    0    0    0    0 -0.00000000000E+00 -0.00000000000E+00 -0.45593999997E+02  0.45594000000E+02  0.51100000000E-03 0. -1.
    9900012    2    1    2    0    0  0.10464008244E+02 -0.32760042776E+02 -0.26474680930E+02  0.47787255748E+02  0.19999930259E+02 0.  0.
        -12    1    1    2    0    0 -0.10464008244E+02  0.32760042776E+02  0.26474680930E+02  0.43400744252E+02  0.00000000000E+00 0.  1.
         11    1    3    3    0    0 -0.11366619479E+01 -0.40117239502E+01 -0.76117155403E+01  0.86789482753E+01  0.51100000000E-03 0.  1.
        -11    1    3    3    0    0  0.12875976334E+02 -0.13771196623E+02 -0.13336391633E+02  0.23093201706E+02  0.51100000000E-03 0. -1.
         12    1    3    3    0    0 -0.12753061426E+01 -0.14977122203E+02 -0.55265737573E+01  0.16015105767E+02  0.00000000000E+00 0. -1.
</event>
<event>
 7    1  0.1400974E-009  0.4778727E+02  0.7816164E-02  0.1312668E+00
        -11   -1    0    0    0    0  0.00000000000E+00  0.00000000000E+00  0.45593999997E+02  0.45594000000E+02  0.51100000000E-03 0.  1.
         11   -1    0    0    0    0 -0.00000000000E+00 -0.00000000000E+00 -0.45593999997E+02  0.45594000000E+02  0.51100000000E-03 0. -1.
    9900012    2    1    2    0    0  0.25624798660E+02 -0.34087476896E+02 -0.80645699564E+01  0.47787266411E+02  0.19999978873E+02 0.  0.
        -12    1    1    2    0    0 -0.25624798660E+02  0.34087476896E+02  0.80645699564E+01  0.43400733589E+02  0.00000000000E+00 0.  1.
         11    1    3    3    0    0  0.21509378229E+01 -0.24285772981E+01 -0.57290518754E+01  0.65838102086E+01  0.51100000000E-03 0.  1.
        -11    1    3    3    0    0  0.16571340184E+02 -0.13308642204E+02  0.11738630574E+01  0.21286315499E+02  0.51100000000E-03 0. -1.
         12    1    3    3    0    0  0.69025206534E+01 -0.18350257394E+02 -0.35093811383E+01  0.19917140703E+02  0.00000000000E+00 0. -1.
</event>
<event>
 7    1  0.1400974E-009  0.4778727E+02  0.7816164E-02  0.1312668E+00
        -11   -1    0    0    0    0  0.00000000000E+00  0.00000000000E+00  0.45593999997E+02  0.45594000000E+02  0.51100000000E-03 0.  1.
         11   -1    0    0    0    0 -0.00000000000E+00 -0.00000000000E+00 -0.45593999997E+02  0.45594000000E+02  0.51100000000E-03 0. -1.
    9900012    2    1    2    0    0  0.99785968142E+01 -0.51417801063E+01 -0.41923900639E+02  0.47787265653E+02  0.19999975418E+02 0.  0.
        -12    1    1    2    0    0 -0.99785968142E+01  0.51417801063E+01  0.41923900639E+02  0.43400734347E+02  0.00000000000E+00 0.  1.
         11    1    3    3    0    0  0.46534983136E+01  0.36845729327E+01 -0.13630059327E+02  0.14866393031E+02  0.51100000000E-03 0. -1.
        -11    1    3    3    0    0 -0.41133931864E+01 -0.52785885015E+01 -0.12602242273E+02  0.14268847559E+02  0.51100000000E-03 0.  1.
         12    1    3    3    0    0  0.94384916870E+01 -0.35477645375E+01 -0.15691599039E+02  0.18652025063E+02  0.00000000000E+00 0. -1.
</event>
<event>
 7    1  0.1400974E-009  0.4778727E+02  0.7816164E-02  0.1312668E+00
        -11   -1    0    0    0    0  0.00000000000E+00  0.00000000000E+00  0.45593999997E+02  0.45594000000E+02  0.51100000000E-03 0. -1.
         11   -1    0    0    0    0 -0.00000000000E+00 -0.00000000000E+00 -0.45593999997E+02  0.45594000000E+02  0.51100000000E-03 0.  1.
    9900012    2    1    2    0    0 -0.34426469622E+02 -0.19045413565E+02  0.18322493494E+02  0.47787270095E+02  0.19999995671E+02 0.  0.
        -12    1    1    2    0    0  0.34426469622E+02  0.19045413565E+02 -0.18322493494E+02  0.43400729905E+02  0.00000000000E+00 0.  1.
         11    1    3    3    0    0 -0.14834095481E+02 -0.12162644246E+02  0.10805456186E+02  0.22016770595E+02  0.51100000000E-03 0. -1.
        -11    1    3    3    0    0 -0.19541249267E+02 -0.19927861234E+01  0.70016281709E+01  0.20853163231E+02  0.51100000000E-03 0.  1.
        -12    1    3    3    0    0 -0.51124873861E-01 -0.48899831950E+01  0.51540913693E+00  0.49173362687E+01  0.00000000000E+00 0.  1.
</event>
<event>
 7    1  0.1400974E-009  0.4778727E+02  0.7816164E-02  0.1312668E+00
        -11   -1    0    0    0    0  0.00000000000E+00  0.00000000000E+00  0.45593999997E+02  0.45594000000E+02  0.51100000000E-03 0.  1.
         11   -1    0    0    0    0 -0.00000000000E+00 -0.00000000000E+00 -0.45593999997E+02  0.45594000000E+02  0.51100000000E-03 0. -1.
    9900012    2    1    2    0    0  0.31042465668E+02 -0.29970760393E+02 -0.46628304556E+01  0.47787272573E+02  0.20000006971E+02 0.  0.
        -12    1    1    2    0    0 -0.31042465668E+02  0.29970760393E+02  0.46628304556E+01  0.43400727427E+02  0.00000000000E+00 0.  1.
         11    1    3    3    0    0  0.63127454362E+01 -0.15952491721E+02  0.14243636379E+01  0.17215154925E+02  0.51100000000E-03 0. -1.
        -11    1    3    3    0    0  0.28539505842E+01 -0.18602303844E+01 -0.42931518187E+01  0.54805696619E+01  0.51100000000E-03 0.  1.
        -12    1    3    3    0    0  0.21875769647E+02 -0.12158038288E+02 -0.17940422748E+01  0.25091547986E+02  0.00000000000E+00 0.  1.
</event>
<event>
 7    1  0.1400974E-009  0.4778727E+02  0.7816164E-02  0.1312668E+00
        -11   -1    0    0    0    0  0.00000000000E+00  0.00000000000E+00  0.45593999997E+02  0.45594000000E+02  0.51100000000E-03 0.  1.
         11   -1    0    0    0    0 -0.00000000000E+00 -0.00000000000E+00 -0.45593999997E+02  0.45594000000E+02  0.51100000000E-03 0. -1.
    9900012    2    1    2    0    0  0.89274614657E+01 -0.14261499318E+02 -0.40006669243E+02  0.47787268267E+02  0.19999987337E+02 0.  0.
        -12    1    1    2    0    0 -0.89274614657E+01  0.14261499318E+02  0.40006669243E+02  0.43400731733E+02  0.00000000000E+00 0.  1.
         11    1    3    3    0    0  0.58666886821E+01 -0.47794730437E+01 -0.20166560652E+02  0.21539534988E+02  0.51100000000E-03 0. -1.
        -11    1    3    3    0    0 -0.30420740778E+01  0.23466251412E+01 -0.37915745110E+01  0.53978608524E+01  0.51100000000E-03 0.  1.
        -12    1    3    3    0    0  0.61028468614E+01 -0.11828651416E+02 -0.16048534079E+02  0.20849872427E+02  0.00000000000E+00 0.  1.
</event>
<event>
 7    1  0.1400974E-009  0.4778727E+02  0.7816164E-02  0.1312668E+00
        -11   -1    0    0    0    0  0.00000000000E+00  0.00000000000E+00  0.45593999997E+02  0.45594000000E+02  0.51100000000E-03 0. -1.
         11   -1    0    0    0    0 -0.00000000000E+00 -0.00000000000E+00 -0.45593999997E+02  0.45594000000E+02  0.51100000000E-03 0.  1.
    9900012    2    1    2    0    0 -0.17321056900E+02  0.29514544944E+02  0.26692620187E+02  0.47787270193E+02  0.19999996116E+02 0.  0.
        -12    1    1    2    0    0  0.17321056900E+02 -0.29514544944E+02 -0.26692620187E+02  0.43400729807E+02  0.00000000000E+00 0.  1.
         11    1    3    3    0    0 -0.34046243115E+01  0.10009149626E+02  0.17216649229E+02  0.20203651993E+02  0.51100000000E-03 0. -1.
        -11    1    3    3    0    0 -0.19169753362E+01  0.10398265490E+02  0.19789528649E+01  0.10757089492E+02  0.51100000000E-03 0.  1.
        -12    1    3    3    0    0 -0.11999457252E+02  0.91071298279E+01  0.74970180934E+01  0.16826528707E+02  0.00000000000E+00 0.  1.
</event>
<event>
 7    1  0.1400974E-009  0.4778727E+02  0.7816164E-02  0.1312668E+00
        -11   -1    0    0    0    0  0.00000000000E+00  0.00000000000E+00  0.45593999997E+02  0.45594000000E+02  0.51100000000E-03 0.  1.
         11   -1    0    0    0    0 -0.00000000000E+00 -0.00000000000E+00 -0.45593999997E+02  0.45594000000E+02  0.51100000000E-03 0. -1.
    9900012    2    1    2    0    0  0.32217223129E+02  0.71701494590E+01 -0.28182669469E+02  0.47787269962E+02  0.19999995066E+02 0.  0.
        -12    1    1    2    0    0 -0.32217223129E+02 -0.71701494590E+01  0.28182669469E+02  0.43400730038E+02  0.00000000000E+00 0.  1.
         11    1    3    3    0    0  0.84736221548E+01  0.72364534266E+00 -0.10813976930E+02  0.13757471872E+02  0.51100000000E-03 0.  1.
        -11    1    3    3    0    0  0.30580212934E+01  0.15219453413E+01  0.30282721742E+01  0.45648926028E+01  0.51100000000E-03 0. -1.
         12    1    3    3    0    0  0.20685579681E+02  0.49245587750E+01 -0.20396964713E+02  0.29464905487E+02  0.00000000000E+00 0. -1.
</event>
<event>
 7    1  0.1400974E-009  0.4778727E+02  0.7816164E-02  0.1312668E+00
        -11   -1    0    0    0    0  0.00000000000E+00  0.00000000000E+00  0.45593999997E+02  0.45594000000E+02  0.51100000000E-03 0. -1.
         11   -1    0    0    0    0 -0.00000000000E+00 -0.00000000000E+00 -0.45593999997E+02  0.45594000000E+02  0.51100000000E-03 0.  1.
    9900012    2    1    2    0    0  0.17839511920E+02  0.16387529778E+01  0.39530866423E+02  0.47787273082E+02  0.20000009291E+02 0.  0.
        -12    1    1    2    0    0 -0.17839511920E+02 -0.16387529778E+01 -0.39530866423E+02  0.43400726918E+02  0.00000000000E+00 0.  1.
         11    1    3    3    0    0  0.18512881148E+01  0.18920436569E+01  0.50462323416E+01  0.56983820502E+01  0.51100000000E-03 0. -1.
        -11    1    3    3    0    0  0.10930657935E+02  0.33580697688E+01  0.33981661704E+02  0.35853999050E+02  0.51100000000E-03 0.  1.
        -12    1    3    3    0    0  0.50575658702E+01 -0.36113604479E+01  0.50297237736E+00  0.62348919821E+01  0.00000000000E+00 0.  1.
</event>
<event>
 7    1  0.1400974E-009  0.4778727E+02  0.7816164E-02  0.1312668E+00
        -11   -1    0    0    0    0  0.00000000000E+00  0.00000000000E+00  0.45593999997E+02  0.45594000000E+02  0.51100000000E-03 0.  1.
         11   -1    0    0    0    0 -0.00000000000E+00 -0.00000000000E+00 -0.45593999997E+02  0.45594000000E+02  0.51100000000E-03 0. -1.
    9900012    2    1    2    0    0  0.28216634129E+02 -0.79298363031E+01 -0.32008787296E+02  0.47787271786E+02  0.20000003383E+02 0.  0.
        -12    1    1    2    0    0 -0.28216634129E+02  0.79298363031E+01  0.32008787296E+02  0.43400728214E+02  0.00000000000E+00 0.  1.
         11    1    3    3    0    0  0.17230462276E+02 -0.65575187329E+01 -0.24492771529E+02  0.30655925033E+02  0.51100000000E-03 0. -1.
        -11    1    3    3    0    0  0.12617562433E+02  0.81999898255E+00 -0.58607575977E+01  0.13936418477E+02  0.51100000000E-03 0.  1.
         12    1    3    3    0    0 -0.16313905798E+01 -0.21923165527E+01 -0.16552581685E+01  0.31949282771E+01  0.00000000000E+00 0. -1.
</event>
<event>
 7    1  0.1400974E-009  0.4778727E+02  0.7816164E-02  0.1312668E+00
        -11   -1    0    0    0    0  0.00000000000E+00  0.00000000000E+00  0.45593999997E+02  0.45594000000E+02  0.51100000000E-03 0. -1.
         11   -1    0    0    0    0 -0.00000000000E+00 -0.00000000000E+00 -0.45593999997E+02  0.45594000000E+02  0.51100000000E-03 0.  1.
    9900012    2    1    2    0    0  0.16298562644E+02  0.31332359611E+02  0.25224261672E+02  0.47787270974E+02  0.19999999679E+02 0.  0.
        -12    1    1    2    0    0 -0.16298562644E+02 -0.31332359611E+02 -0.25224261672E+02  0.43400729026E+02  0.00000000000E+00 0.  1.
         11    1    3    3    0    0  0.12687427297E+02  0.20060386478E+02  0.24513797998E+02  0.34122078037E+02  0.51100000000E-03 0. -1.
        -11    1    3    3    0    0  0.38208161766E+01  0.21138125056E+01 -0.61351579610E+00  0.44094491104E+01  0.51100000000E-03 0.  1.
         12    1    3    3    0    0 -0.20968082940E+00  0.91581606279E+01  0.13239794705E+01  0.92557438262E+01  0.00000000000E+00 0. -1.
</event>
<event>
 7    1  0.1400974E-009  0.4778727E+02  0.7816164E-02  0.1312668E+00
        -11   -1    0    0    0    0  0.00000000000E+00  0.00000000000E+00  0.45593999997E+02  0.45594000000E+02  0.51100000000E-03 0.  1.
         11   -1    0    0    0    0 -0.00000000000E+00 -0.00000000000E+00 -0.45593999997E+02  0.45594000000E+02  0.51100000000E-03 0. -1.
    9900012    2    1    2    0    0  0.13502179196E+02 -0.37242267220E+02 -0.17729299030E+02  0.47787270112E+02  0.19999995749E+02 0.  0.
        -12    1    1    2    0    0 -0.13502179196E+02  0.37242267220E+02  0.17729299030E+02  0.43400729888E+02  0.00000000000E+00 0.  1.
         11    1    3    3    0    0  0.91775611663E+01 -0.29017763708E+02 -0.51825620639E+01  0.30872596091E+02  0.51100000000E-03 0. -1.
        -11    1    3    3    0    0 -0.12269474453E+01 -0.44781935321E+01 -0.49351045269E+01  0.67760515270E+01  0.51100000000E-03 0.  1.
         12    1    3    3    0    0  0.55515654754E+01 -0.37463099792E+01 -0.76116324390E+01  0.10138622494E+02  0.00000000000E+00 0. -1.
</event>
<event>
 7    1  0.1400974E-009  0.4778727E+02  0.7816164E-02  0.1312668E+00
        -11   -1    0    0    0    0  0.00000000000E+00  0.00000000000E+00  0.45593999997E+02  0.45594000000E+02  0.51100000000E-03 0.  1.
         11   -1    0    0    0    0 -0.00000000000E+00 -0.00000000000E+00 -0.45593999997E+02  0.45594000000E+02  0.51100000000E-03 0. -1.
    9900012    2    1    2    0    0 -0.11166190843E+01 -0.37512128781E+02  0.21799466339E+02  0.47787269861E+02  0.19999994606E+02 0.  0.
        -12    1    1    2    0    0  0.11166190843E+01  0.37512128781E+02 -0.21799466339E+02  0.43400730139E+02  0.00000000000E+00 0.  1.
         11    1    3    3    0    0  0.54174756273E+01 -0.25808990728E+01  0.50616204508E+01  0.78504830454E+01  0.51100000000E-03 0.  1.
        -11    1    3    3    0    0 -0.29942571478E+01 -0.93014470178E+01  0.14332494028E+01  0.98760668591E+01  0.51100000000E-03 0. -1.
        -12    1    3    3    0    0 -0.35398375638E+01 -0.25629782691E+02  0.15304596485E+02  0.30060719957E+02  0.00000000000E+00 0.  1.
</event>
<event>
 7    1  0.1400974E-009  0.4778727E+02  0.7816164E-02  0.1312668E+00
        -11   -1    0    0    0    0  0.00000000000E+00  0.00000000000E+00  0.45593999997E+02  0.45594000000E+02  0.51100000000E-03 0.  1.
         11   -1    0    0    0    0 -0.00000000000E+00 -0.00000000000E+00 -0.45593999997E+02  0.45594000000E+02  0.51100000000E-03 0. -1.
    9900012    2    1    2    0    0  0.21460688791E+02  0.89099515644E+00 -0.37712971064E+02  0.47787271639E+02  0.20000002712E+02 0.  0.
        -12    1    1    2    0    0 -0.21460688791E+02 -0.89099515644E+00  0.37712971064E+02  0.43400728361E+02  0.00000000000E+00 0.  1.
         11    1    3    3    0    0  0.22697326991E+01  0.92864682994E+00  0.81026466581E+00  0.25827505783E+01  0.51100000000E-03 0. -1.
        -11    1    3    3    0    0  0.17223114503E+01  0.68297454073E+00  0.91371544768E+00  0.20658381194E+01  0.51100000000E-03 0.  1.
         12    1    3    3    0    0  0.17468644642E+02 -0.72062621424E+00 -0.39436951177E+02  0.43138682942E+02  0.00000000000E+00 0. -1.
</event>
<event>
 7    1  0.1400974E-009  0.4778727E+02  0.7816164E-02  0.1312668E+00
        -11   -1    0    0    0    0  0.00000000000E+00  0.00000000000E+00  0.45593999997E+02  0.45594000000E+02  0.51100000000E-03 0. -1.
         11   -1    0    0    0    0 -0.00000000000E+00 -0.00000000000E+00 -0.45593999997E+02  0.45594000000E+02  0.51100000000E-03 0.  1.
    9900012    2    1    2    0    0  0.98436389476E+01  0.28695293835E+02  0.31037176370E+02  0.47787269211E+02  0.19999991639E+02 0.  0.
        -12    1    1    2    0    0 -0.98436389476E+01 -0.28695293835E+02 -0.31037176370E+02  0.43400730789E+02  0.00000000000E+00 0.  1.
         11    1    3    3    0    0  0.11926059635E+02  0.20572542974E+02  0.13321133717E+02  0.27256430922E+02  0.51100000000E-03 0. -1.
        -11    1    3    3    0    0  0.11169559490E+01  0.65411362571E+01  0.13206263440E+02  0.14779697170E+02  0.51100000000E-03 0.  1.
        -12    1    3    3    0    0 -0.31993766363E+01  0.15816146039E+01  0.45097792129E+01  0.57511411185E+01  0.00000000000E+00 0.  1.
</event>
<event>
 7    1  0.1400974E-009  0.4778727E+02  0.7816164E-02  0.1312668E+00
        -11   -1    0    0    0    0  0.00000000000E+00  0.00000000000E+00  0.45593999997E+02  0.45594000000E+02  0.51100000000E-03 0.  1.
         11   -1    0    0    0    0 -0.00000000000E+00 -0.00000000000E+00 -0.45593999997E+02  0.45594000000E+02  0.51100000000E-03 0. -1.
    9900012    2    1    2    0    0  0.11034073658E+02  0.41318763337E+02 -0.73913980221E+01  0.47787265560E+02  0.19999974996E+02 0.  0.
        -12    1    1    2    0    0 -0.11034073658E+02 -0.41318763337E+02  0.73913980221E+01  0.43400734440E+02  0.00000000000E+00 0.  1.
         11    1    3    3    0    0  0.10671337635E+02  0.16102241742E+02 -0.42099121416E+01  0.19770761153E+02  0.51100000000E-03 0. -1.
        -11    1    3    3    0    0 -0.47054121844E-01  0.10852567112E+02  0.44692831967E+01  0.11736904173E+02  0.51100000000E-03 0.  1.
         12    1    3    3    0    0  0.40979014496E+00  0.14363954482E+02 -0.76507690772E+01  0.16279600235E+02  0.00000000000E+00 0. -1.
</event>
<event>
 7    1  0.1400974E-009  0.4778727E+02  0.7816164E-02  0.1312668E+00
        -11   -1    0    0    0    0  0.00000000000E+00  0.00000000000E+00  0.45593999997E+02  0.45594000000E+02  0.51100000000E-03 0.  1.
         11   -1    0    0    0    0 -0.00000000000E+00 -0.00000000000E+00 -0.45593999997E+02  0.45594000000E+02  0.51100000000E-03 0. -1.
    9900012    2    1    2    0    0 -0.44296716211E+01 -0.16550558185E+02 -0.39875806795E+02  0.47787274955E+02  0.20000017830E+02 0.  0.
        -12    1    1    2    0    0  0.44296716211E+01  0.16550558185E+02  0.39875806795E+02  0.43400725045E+02  0.00000000000E+00 0.  1.
         11    1    3    3    0    0 -0.69633188799E+01 -0.11924233126E+02 -0.19577489645E+02  0.23957321355E+02  0.51100000000E-03 0. -1.
        -11    1    3    3    0    0 -0.16157331247E+01 -0.42008615408E+01 -0.17674834204E+01  0.48354761005E+01  0.51100000000E-03 0.  1.
        -12    1    3    3    0    0  0.41493803835E+01 -0.42546351811E+00 -0.18530833729E+02  0.18994477499E+02  0.00000000000E+00 0.  1.
</event>
<event>
 7    1  0.1400974E-009  0.4778727E+02  0.7816164E-02  0.1312668E+00
        -11   -1    0    0    0    0  0.00000000000E+00  0.00000000000E+00  0.45593999997E+02  0.45594000000E+02  0.51100000000E-03 0. -1.
         11   -1    0    0    0    0 -0.00000000000E+00 -0.00000000000E+00 -0.45593999997E+02  0.45594000000E+02  0.51100000000E-03 0.  1.
    9900012    2    1    2    0    0  0.21158794538E+02 -0.37875129272E+02  0.11847665999E+01  0.47787266416E+02  0.19999978899E+02 0.  0.
        -12    1    1    2    0    0 -0.21158794538E+02  0.37875129272E+02 -0.11847665999E+01  0.43400733584E+02  0.00000000000E+00 0.  1.
         11    1    3    3    0    0  0.11910622509E+02 -0.80190252757E+01  0.68682275976E+01  0.15916665653E+02  0.51100000000E-03 0. -1.
        -11    1    3    3    0    0  0.19414291592E+01 -0.78097741748E+01 -0.25060945573E+01  0.84286552920E+01  0.51100000000E-03 0.  1.
         12    1    3    3    0    0  0.73067428700E+01 -0.22046329822E+02 -0.31773664404E+01  0.23441945471E+02  0.00000000000E+00 0. -1.
</event>
<event>
 7    1  0.1400974E-009  0.4778728E+02  0.7816164E-02  0.1312668E+00
        -11   -1    0    0    0    0  0.00000000000E+00  0.00000000000E+00  0.45593999997E+02  0.45594000000E+02  0.51100000000E-03 0.  1.
         11   -1    0    0    0    0 -0.00000000000E+00 -0.00000000000E+00 -0.45593999997E+02  0.45594000000E+02  0.51100000000E-03 0. -1.
    9900012    2    1    2    0    0  0.15855344312E+02 -0.86453665014E+01 -0.39465023926E+02  0.47787280897E+02  0.20000044922E+02 0.  0.
        -12    1    1    2    0    0 -0.15855344312E+02  0.86453665014E+01  0.39465023926E+02  0.43400719103E+02  0.00000000000E+00 0.  1.
         11    1    3    3    0    0  0.50296819634E+01 -0.77168698617E+01 -0.26353986713E+02  0.27917385211E+02  0.51100000000E-03 0. -1.
        -11    1    3    3    0    0 -0.48036022754E+00 -0.25726810562E+01 -0.56438897435E+01  0.62211675322E+01  0.51100000000E-03 0.  1.
        -12    1    3    3    0    0  0.11306022576E+02  0.16441844165E+01 -0.74671474693E+01  0.13648728153E+02  0.00000000000E+00 0.  1.
</event>
<event>
 7    1  0.1400974E-009  0.4778727E+02  0.7816164E-02  0.1312668E+00
        -11   -1    0    0    0    0  0.00000000000E+00  0.00000000000E+00  0.45593999997E+02  0.45594000000E+02  0.51100000000E-03 0.  1.
         11   -1    0    0    0    0 -0.00000000000E+00 -0.00000000000E+00 -0.45593999997E+02  0.45594000000E+02  0.51100000000E-03 0. -1.
    9900012    2    1    2    0    0 -0.28540987143E+02 -0.27636382059E+02 -0.17471860799E+02  0.47787268668E+02  0.19999989163E+02 0.  0.
        -12    1    1    2    0    0  0.28540987143E+02  0.27636382059E+02  0.17471860799E+02  0.43400731332E+02  0.00000000000E+00 0.  1.
         11    1    3    3    0    0 -0.20520963302E+01 -0.19011173098E+01 -0.60114420132E+01  0.66304435533E+01  0.51100000000E-03 0. -1.
        -11    1    3    3    0    0 -0.90967672021E+01 -0.84836097344E+01  0.28843969368E+01  0.12768811754E+02  0.51100000000E-03 0.  1.
         12    1    3    3    0    0 -0.17392123611E+02 -0.17251655015E+02 -0.14344815722E+02  0.28388013360E+02  0.00000000000E+00 0. -1.
</event>
<event>
 7    1  0.1400974E-009  0.4778727E+02  0.7816164E-02  0.1312668E+00
        -11   -1    0    0    0    0  0.00000000000E+00  0.00000000000E+00  0.45593999997E+02  0.45594000000E+02  0.51100000000E-03 0.  1.
         11   -1    0    0    0    0 -0.00000000000E+00 -0.00000000000E+00 -0.45593999997E+02  0.45594000000E+02  0.51100000000E-03 0. -1.
    9900012    2    1    2    0    0  0.72693938887E+01 -0.79651232397E+00 -0.42780187572E+02  0.47787274567E+02  0.20000016062E+02 0.  0.
        -12    1    1    2    0    0 -0.72693938887E+01  0.79651232397E+00  0.42780187572E+02  0.43400725433E+02  0.00000000000E+00 0.  1.
         11    1    3    3    0    0  0.28907718196E+01 -0.78660043344E+01 -0.35929582597E+02  0.36893976361E+02  0.51100000000E-03 0. -1.
        -11    1    3    3    0    0  0.15325630255E+01  0.26012864566E+01 -0.35121961047E+01  0.46315183682E+01  0.51100000000E-03 0.  1.
         12    1    3    3    0    0  0.28460590437E+01  0.44682055538E+01 -0.33384088701E+01  0.62617798377E+01  0.00000000000E+00 0. -1.
</event>
<event>
 7    1  0.1400974E-009  0.4778727E+02  0.7816164E-02  0.1312668E+00
        -11   -1    0    0    0    0  0.00000000000E+00  0.00000000000E+00  0.45593999997E+02  0.45594000000E+02  0.51100000000E-03 0. -1.
         11   -1    0    0    0    0 -0.00000000000E+00 -0.00000000000E+00 -0.45593999997E+02  0.45594000000E+02  0.51100000000E-03 0.  1.
    9900012    2    1    2    0    0  0.20646711960E+02  0.26522624054E+02  0.27457002523E+02  0.47787270870E+02  0.19999999204E+02 0.  0.
        -12    1    1    2    0    0 -0.20646711960E+02 -0.26522624054E+02 -0.27457002523E+02  0.43400729130E+02  0.00000000000E+00 0.  1.
         11    1    3    3    0    0  0.17896532127E+02  0.18626994777E+02  0.12698467743E+02  0.28783708585E+02  0.51100000000E-03 0. -1.
        -11    1    3    3    0    0 -0.13713780135E+01  0.36258564318E+01  0.97574646099E+00  0.39974484283E+01  0.51100000000E-03 0.  1.
        -12    1    3    3    0    0  0.41215578463E+01  0.42697728448E+01  0.13782788319E+02  0.15006113856E+02  0.00000000000E+00 0.  1.
</event>
<event>
 7    1  0.1400974E-009  0.4778727E+02  0.7816164E-02  0.1312668E+00
        -11   -1    0    0    0    0  0.00000000000E+00  0.00000000000E+00  0.45593999997E+02  0.45594000000E+02  0.51100000000E-03 0.  1.
         11   -1    0    0    0    0 -0.00000000000E+00 -0.00000000000E+00 -0.45593999997E+02  0.45594000000E+02  0.51100000000E-03 0. -1.
    9900012    2    1    2    0    0 -0.32256070246E+02  0.28160426142E+02 -0.70823487069E+01  0.47787270382E+02  0.19999996980E+02 0.  0.
        -12    1    1    2    0    0  0.32256070246E+02 -0.28160426142E+02  0.70823487069E+01  0.43400729618E+02  0.00000000000E+00 0.  1.
         11    1    3    3    0    0 -0.82116705643E+01  0.61269053799E+01  0.12856719323E+01  0.10325863430E+02  0.51100000000E-03 0. -1.
        -11    1    3    3    0    0 -0.26044530019E+00  0.41615461734E+01 -0.64097758443E+01  0.76466675711E+01  0.51100000000E-03 0.  1.
         12    1    3    3    0    0 -0.23783954381E+02  0.17871974588E+02 -0.19582447949E+01  0.29814739381E+02  0.00000000000E+00 0. -1.
</event>
<event>
 7    1  0.1400974E-009  0.4778727E+02  0.7816164E-02  0.1312668E+00
        -11   -1    0    0    0    0  0.00000000000E+00  0.00000000000E+00  0.45593999997E+02  0.45594000000E+02  0.51100000000E-03 0.  1.
         11   -1    0    0    0    0 -0.00000000000E+00 -0.00000000000E+00 -0.45593999997E+02  0.45594000000E+02  0.51100000000E-03 0. -1.
    9900012    2    1    2    0    0  0.32185059080E+01  0.23855821667E+02 -0.36113213960E+02  0.47787271547E+02  0.20000002292E+02 0.  0.
        -12    1    1    2    0    0 -0.32185059080E+01 -0.23855821667E+02  0.36113213960E+02  0.43400728453E+02  0.00000000000E+00 0.  1.
         11    1    3    3    0    0 -0.51297607328E+00 -0.15415117667E+00  0.16547791268E+01  0.17393105693E+01  0.51100000000E-03 0. -1.
        -11    1    3    3    0    0  0.64768516250E+01  0.92776704887E+01 -0.14954118772E+02  0.18752345058E+02  0.51100000000E-03 0.  1.
         12    1    3    3    0    0 -0.27453696437E+01  0.14732302355E+02 -0.22813874315E+02  0.27295615920E+02  0.00000000000E+00 0. -1.
</event>
<event>
 7    1  0.1400974E-009  0.4778727E+02  0.7816164E-02  0.1312668E+00
        -11   -1    0    0    0    0  0.00000000000E+00  0.00000000000E+00  0.45593999997E+02  0.45594000000E+02  0.51100000000E-03 0.  1.
         11   -1    0    0    0    0 -0.00000000000E+00 -0.00000000000E+00 -0.45593999997E+02  0.45594000000E+02  0.51100000000E-03 0. -1.
    9900012    2    1    2    0    0 -0.19986544058E+02  0.94008923581E+01 -0.37360206517E+02  0.47787265542E+02  0.19999974910E+02 0.  0.
        -12    1    1    2    0    0  0.19986544058E+02 -0.94008923581E+01  0.37360206517E+02  0.43400734458E+02  0.00000000000E+00 0.  1.
         11    1    3    3    0    0 -0.21225198807E+02  0.96335651273E+01 -0.30643932565E+02  0.38501496656E+02  0.51100000000E-03 0. -1.
        -11    1    3    3    0    0  0.15015585832E+01  0.10441388858E+01 -0.75300822230E+01  0.77490026931E+01  0.51100000000E-03 0.  1.
        -12    1    3    3    0    0 -0.26290383496E+00 -0.12768116550E+01  0.81380827092E+00  0.15367661925E+01  0.00000000000E+00 0.  1.
</event>
<event>
 7    1  0.1400974E-009  0.4778727E+02  0.7816164E-02  0.1312668E+00
        -11   -1    0    0    0    0  0.00000000000E+00  0.00000000000E+00  0.45593999997E+02  0.45594000000E+02  0.51100000000E-03 0.  1.
         11   -1    0    0    0    0 -0.00000000000E+00 -0.00000000000E+00 -0.45593999997E+02  0.45594000000E+02  0.51100000000E-03 0. -1.
    9900012    2    1    2    0    0 -0.14333059105E+02 -0.34409665548E+02 -0.22229747899E+02  0.47787270074E+02  0.19999995575E+02 0.  0.
        -12    1    1    2    0    0  0.14333059105E+02  0.34409665548E+02  0.22229747899E+02  0.43400729926E+02  0.00000000000E+00 0.  1.
         11    1    3    3    0    0 -0.13020071736E+02 -0.17822684906E+02 -0.16219246119E+02  0.27390405441E+02  0.51100000000E-03 0. -1.
        -11    1    3    3    0    0 -0.10807355311E+01 -0.42387548194E+00  0.20332699470E+01  0.23413343740E+01  0.51100000000E-03 0.  1.
        -12    1    3    3    0    0 -0.23225183789E+00 -0.16163105160E+02 -0.80437717271E+01  0.18055530259E+02  0.00000000000E+00 0.  1.
</event>
<event>
 7    1  0.1400974E-009  0.4778727E+02  0.7816164E-02  0.1312668E+00
        -11   -1    0    0    0    0  0.00000000000E+00  0.00000000000E+00  0.45593999997E+02  0.45594000000E+02  0.51100000000E-03 0.  1.
         11   -1    0    0    0    0 -0.00000000000E+00 -0.00000000000E+00 -0.45593999997E+02  0.45594000000E+02  0.51100000000E-03 0. -1.
    9900012    2    1    2    0    0 -0.39982218226E+02 -0.11520121566E+02 -0.12342302188E+02  0.47787269609E+02  0.19999993456E+02 0.  0.
        -12    1    1    2    0    0  0.39982218226E+02  0.11520121566E+02  0.12342302188E+02  0.43400730391E+02  0.00000000000E+00 0.  1.
         11    1    3    3    0    0 -0.12399662192E+01  0.50031911613E+00 -0.69055166270E-02  0.13371175678E+01  0.51100000000E-03 0.  1.
        -11    1    3    3    0    0 -0.34044859237E+02 -0.13738395254E+02 -0.42700881985E+01  0.36959837636E+02  0.51100000000E-03 0. -1.
         12    1    3    3    0    0 -0.46973927700E+01  0.17179545722E+01 -0.80653084726E+01  0.94903144050E+01  0.00000000000E+00 0. -1.
</event>
<event>
 7    1  0.1400974E-009  0.4778727E+02  0.7816164E-02  0.1312668E+00
        -11   -1    0    0    0    0  0.00000000000E+00  0.00000000000E+00  0.45593999997E+02  0.45594000000E+02  0.51100000000E-03 0. -1.
         11   -1    0    0    0    0 -0.00000000000E+00 -0.00000000000E+00 -0.45593999997E+02  0.45594000000E+02  0.51100000000E-03 0.  1.
    9900012    2    1    2    0    0  0.34566814220E+02  0.26244209357E+02 -0.20776543586E-02  0.47787272191E+02  0.20000005225E+02 0.  0.
        -12    1    1    2    0    0 -0.34566814220E+02 -0.26244209357E+02  0.20776543586E-02  0.43400727809E+02  0.00000000000E+00 0.  1.
         11    1    3    3    0    0  0.96283625499E+01  0.83840015989E+01  0.34261494863E+01  0.13218749894E+02  0.51100000000E-03 0. -1.
        -11    1    3    3    0    0  0.11725494523E+02  0.88821648410E+01  0.61485951292E+01  0.15943189656E+02  0.51100000000E-03 0.  1.
        -12    1    3    3    0    0  0.13212957147E+02  0.89780429167E+01 -0.95768222698E+01  0.18625332641E+02  0.00000000000E+00 0.  1.
</event>
<event>
 7    1  0.1400974E-009  0.4778727E+02  0.7816164E-02  0.1312668E+00
        -11   -1    0    0    0    0  0.00000000000E+00  0.00000000000E+00  0.45593999997E+02  0.45594000000E+02  0.51100000000E-03 0.  1.
         11   -1    0    0    0    0 -0.00000000000E+00 -0.00000000000E+00 -0.45593999997E+02  0.45594000000E+02  0.51100000000E-03 0. -1.
    9900012    2    1    2    0    0 -0.19112167125E+02 -0.31763806517E+02 -0.22570086468E+02  0.47787272588E+02  0.20000007039E+02 0.  0.
        -12    1    1    2    0    0  0.19112167125E+02  0.31763806517E+02  0.22570086468E+02  0.43400727412E+02  0.00000000000E+00 0.  1.
         11    1    3    3    0    0 -0.14900341612E+02 -0.31370936704E+02 -0.15701066571E+02  0.38114030770E+02  0.51100000000E-03 0. -1.
        -11    1    3    3    0    0  0.72049493098E+00 -0.15641416602E+01 -0.14344749659E+01  0.22412877476E+01  0.51100000000E-03 0.  1.
         12    1    3    3    0    0 -0.49323204434E+01  0.11712718466E+01 -0.54345449311E+01  0.74319540703E+01  0.00000000000E+00 0. -1.
</event>
<event>
 7    1  0.1400974E-009  0.4778727E+02  0.7816164E-02  0.1312668E+00
        -11   -1    0    0    0    0  0.00000000000E+00  0.00000000000E+00  0.45593999997E+02  0.45594000000E+02  0.51100000000E-03 0.  1.
         11   -1    0    0    0    0 -0.00000000000E+00 -0.00000000000E+00 -0.45593999997E+02  0.45594000000E+02  0.51100000000E-03 0. -1.
    9900012    2    1    2    0    0 -0.26281374049E+02 -0.21260102539E+02 -0.27219859335E+02  0.47787270466E+02  0.19999997361E+02 0.  0.
        -12    1    1    2    0    0  0.26281374049E+02  0.21260102539E+02  0.27219859335E+02  0.43400729534E+02  0.00000000000E+00 0.  1.
         11    1    3    3    0    0 -0.69105403625E+01 -0.13908119398E+02 -0.11535107364E+02  0.19345543556E+02  0.51100000000E-03 0. -1.
        -11    1    3    3    0    0 -0.22380287561E+01  0.10671074361E+01 -0.70814955973E+01  0.75030041416E+01  0.51100000000E-03 0.  1.
        -12    1    3    3    0    0 -0.17132804931E+02 -0.84190905770E+01 -0.86032563734E+01  0.20938722768E+02  0.00000000000E+00 0.  1.
</event>
<event>
 7    1  0.1400974E-009  0.4778727E+02  0.7816164E-02  0.1312668E+00
        -11   -1    0    0    0    0  0.00000000000E+00  0.00000000000E+00  0.45593999997E+02  0.45594000000E+02  0.51100000000E-03 0.  1.
         11   -1    0    0    0    0 -0.00000000000E+00 -0.00000000000E+00 -0.45593999997E+02  0.45594000000E+02  0.51100000000E-03 0. -1.
    9900012    2    1    2    0    0 -0.12195972152E+02 -0.40347790356E+02 -0.10341049610E+02  0.47787271545E+02  0.20000002282E+02 0.  0.
        -12    1    1    2    0    0  0.12195972152E+02  0.40347790356E+02  0.10341049610E+02  0.43400728455E+02  0.00000000000E+00 0.  1.
         11    1    3    3    0    0 -0.88936497714E+01 -0.22268406324E+02 -0.92936214551E+01  0.25716732422E+02  0.51100000000E-03 0. -1.
        -11    1    3    3    0    0  0.44958048483E+01 -0.70495918629E+01 -0.17574020509E+01  0.85438556224E+01  0.51100000000E-03 0.  1.
         12    1    3    3    0    0 -0.77981272291E+01 -0.11029792170E+02  0.70997389567E+00  0.13526683500E+02  0.00000000000E+00 0. -1.
</event>
<event>
 7    1  0.1400974E-009  0.4778727E+02  0.7816164E-02  0.1312668E+00
        -11   -1    0    0    0    0  0.00000000000E+00  0.00000000000E+00  0.45593999997E+02  0.45594000000E+02  0.51100000000E-03 0. -1.
         11   -1    0    0    0    0 -0.00000000000E+00 -0.00000000000E+00 -0.45593999997E+02  0.45594000000E+02  0.51100000000E-03 0.  1.
    9900012    2    1    2    0    0  0.40042594041E+02 -0.16619182793E+02 -0.20042067132E+01  0.47787269375E+02  0.19999992388E+02 0.  0.
        -12    1    1    2    0    0 -0.40042594041E+02  0.16619182793E+02  0.20042067132E+01  0.43400730625E+02  0.00000000000E+00 0.  1.
         11    1    3    3    0    0  0.10887635190E+02 -0.16953912764E+01 -0.72850415200E+01  0.13209344489E+02  0.51100000000E-03 0. -1.
        -11    1    3    3    0    0  0.59778422968E+01 -0.75742062489E+01  0.32377581146E+01  0.10177734360E+02  0.51100000000E-03 0.  1.
        -12    1    3    3    0    0  0.23177116554E+02 -0.73495852676E+01  0.20430766921E+01  0.24400190527E+02  0.00000000000E+00 0.  1.
</event>
<event>
 7    1  0.1400974E-009  0.4778727E+02  0.7816164E-02  0.1312668E+00
        -11   -1    0    0    0    0  0.00000000000E+00  0.00000000000E+00  0.45593999997E+02  0.45594000000E+02  0.51100000000E-03 0. -1.
         11   -1    0    0    0    0 -0.00000000000E+00 -0.00000000000E+00 -0.45593999997E+02  0.45594000000E+02  0.51100000000E-03 0.  1.
    9900012    2    1    2    0    0 -0.37888228223E+02  0.76295917325E+01 -0.19745757307E+02  0.47787269136E+02  0.19999991300E+02 0.  0.
        -12    1    1    2    0    0  0.37888228223E+02 -0.76295917325E+01  0.19745757307E+02  0.43400730864E+02  0.00000000000E+00 0.  1.
         11    1    3    3    0    0 -0.47013026433E+01 -0.47513579838E+01 -0.73859612206E+01  0.99614292472E+01  0.51100000000E-03 0.  1.
        -11    1    3    3    0    0 -0.13649571146E+02  0.26711673774E+01 -0.41392799837E+01  0.14511359918E+02  0.51100000000E-03 0. -1.
        -12    1    3    3    0    0 -0.19537354433E+02  0.97097823389E+01 -0.82205161032E+01  0.23314479971E+02  0.00000000000E+00 0.  1.
</event>
<event>
 7    1  0.1400974E-009  0.4778727E+02  0.7816164E-02  0.1312668E+00
        -11   -1    0    0    0    0  0.00000000000E+00  0.00000000000E+00  0.45593999997E+02  0.45594000000E+02  0.51100000000E-03 0.  1.
         11   -1    0    0    0    0 -0.00000000000E+00 -0.00000000000E+00 -0.45593999997E+02  0.45594000000E+02  0.51100000000E-03 0. -1.
    9900012    2    1    2    0    0 -0.43467334657E+00 -0.10458745808E+02 -0.42119457524E+02  0.47787274120E+02  0.20000014024E+02 0.  0.
        -12    1    1    2    0    0  0.43467334657E+00  0.10458745808E+02  0.42119457524E+02  0.43400725880E+02  0.00000000000E+00 0.  1.
         11    1    3    3    0    0 -0.65916170708E+00  0.11601932236E+01 -0.22216975402E+01  0.25916177753E+01  0.51100000000E-03 0. -1.
        -11    1    3    3    0    0 -0.85441884848E+01 -0.50286488427E+01 -0.23050240825E+02  0.25091912410E+02  0.51100000000E-03 0.  1.
         12    1    3    3    0    0  0.87686768453E+01 -0.65902901892E+01 -0.16847519159E+02  0.20103743935E+02  0.00000000000E+00 0. -1.
</event>
<event>
 7    1  0.1400974E-009  0.4778726E+02  0.7816164E-02  0.1312668E+00
        -11   -1    0    0    0    0  0.00000000000E+00  0.00000000000E+00  0.45593999997E+02  0.45594000000E+02  0.51100000000E-03 0.  1.
         11   -1    0    0    0    0 -0.00000000000E+00 -0.00000000000E+00 -0.45593999997E+02  0.45594000000E+02  0.51100000000E-03 0. -1.
    9900012    2    1    2    0    0 -0.16348750810E+02 -0.14685105025E+02 -0.37425795806E+02  0.47787260901E+02  0.19999953754E+02 0.  0.
        -12    1    1    2    0    0  0.16348750810E+02  0.14685105025E+02  0.37425795806E+02  0.43400739099E+02  0.00000000000E+00 0.  1.
         11    1    3    3    0    0 -0.15579875402E+02 -0.14464400014E+02 -0.29329848650E+02  0.36224182633E+02  0.51100000000E-03 0. -1.
        -11    1    3    3    0    0 -0.30761036468E+01 -0.78984514848E+00 -0.52917178817E-01  0.31763295631E+01  0.51100000000E-03 0.  1.
         12    1    3    3    0    0  0.23072282394E+01  0.56914013772E+00 -0.80430299767E+01  0.83867487056E+01  0.00000000000E+00 0. -1.
</event>
<event>
 7    1  0.1400974E-009  0.4778727E+02  0.7816164E-02  0.1312668E+00
        -11   -1    0    0    0    0  0.00000000000E+00  0.00000000000E+00  0.45593999997E+02  0.45594000000E+02  0.51100000000E-03 0. -1.
         11   -1    0    0    0    0 -0.00000000000E+00 -0.00000000000E+00 -0.45593999997E+02  0.45594000000E+02  0.51100000000E-03 0.  1.
    9900012    2    1    2    0    0 -0.35292966762E+02  0.23384795571E+02  0.95488900113E+01  0.47787268817E+02  0.19999989846E+02 0.  0.
        -12    1    1    2    0    0  0.35292966762E+02 -0.23384795571E+02 -0.95488900113E+01  0.43400731183E+02  0.00000000000E+00 0.  1.
         11    1    3    3    0    0 -0.11603707869E+02  0.38269382925E+01 -0.17561623713E+01  0.12344051180E+02  0.51100000000E-03 0. -1.
        -11    1    3    3    0    0  0.87723926586E+00  0.48362307513E+01  0.10763821600E+01  0.50316275125E+01  0.51100000000E-03 0.  1.
         12    1    3    3    0    0 -0.24566498159E+02  0.14721626527E+02  0.10228670223E+02  0.30411590125E+02  0.00000000000E+00 0. -1.
</event>
<event>
 7    1  0.1400974E-009  0.4778727E+02  0.7816164E-02  0.1312668E+00
        -11   -1    0    0    0    0  0.00000000000E+00  0.00000000000E+00  0.45593999997E+02  0.45594000000E+02  0.51100000000E-03 0.  1.
         11   -1    0    0    0    0 -0.00000000000E+00 -0.00000000000E+00 -0.45593999997E+02  0.45594000000E+02  0.51100000000E-03 0. -1.
    9900012    2    1    2    0    0  0.45894397782E+01 -0.19322173298E+02 -0.38590336895E+02  0.47787269129E+02  0.19999991269E+02 0.  0.
        -12    1    1    2    0    0 -0.45894397782E+01  0.19322173298E+02  0.38590336895E+02  0.43400730871E+02  0.00000000000E+00 0.  1.
         11    1    3    3    0    0 -0.31621501281E+01 -0.18758884377E+02 -0.25077813843E+02  0.31476843614E+02  0.51100000000E-03 0. -1.
        -11    1    3    3    0    0  0.30275240663E+01  0.70451459600E+00 -0.94628481767E+01  0.99603081611E+01  0.51100000000E-03 0.  1.
         12    1    3    3    0    0  0.47240658400E+01 -0.12678035168E+01 -0.40496748758E+01  0.63501173546E+01  0.00000000000E+00 0. -1.
</event>
<event>
 7    1  0.1400974E-009  0.4778727E+02  0.7816164E-02  0.1312668E+00
        -11   -1    0    0    0    0  0.00000000000E+00  0.00000000000E+00  0.45593999997E+02  0.45594000000E+02  0.51100000000E-03 0. -1.
         11   -1    0    0    0    0 -0.00000000000E+00 -0.00000000000E+00 -0.45593999997E+02  0.45594000000E+02  0.51100000000E-03 0.  1.
    9900012    2    1    2    0    0 -0.89188429379E+01  0.21201821810E+02  0.36804347234E+02  0.47787274398E+02  0.20000015292E+02 0.  0.
        -12    1    1    2    0    0  0.89188429379E+01 -0.21201821810E+02 -0.36804347234E+02  0.43400725602E+02  0.00000000000E+00 0.  1.
         11    1    3    3    0    0 -0.41407904931E+01  0.94085054207E+01  0.27318608449E+02  0.29188567762E+02  0.51100000000E-03 0. -1.
        -11    1    3    3    0    0 -0.21395480424E+01  0.87330405161E+01  0.11067478654E+02  0.14259479181E+02  0.51100000000E-03 0.  1.
        -12    1    3    3    0    0 -0.26385044025E+01  0.30602758731E+01 -0.15817398687E+01  0.43392274559E+01  0.00000000000E+00 0.  1.
</event>
<event>
 7    1  0.1555320E-009  0.4778727E+02  0.7816164E-02  0.1312668E+00
        -11   -1    0    0    0    0  0.00000000000E+00  0.00000000000E+00  0.45593999997E+02  0.45594000000E+02  0.51100000000E-03 0. -1.
         11   -1    0    0    0    0 -0.00000000000E+00 -0.00000000000E+00 -0.45593999997E+02  0.45594000000E+02  0.51100000000E-03 0.  1.
    9900012    2    1    2    0    0  0.29714678975E+01  0.39509515190E+02  0.17714180739E+02  0.47787267158E+02  0.19999982278E+02 0.  0.
        -12    1    1    2    0    0 -0.29714678975E+01 -0.39509515190E+02 -0.17714180739E+02  0.43400732842E+02  0.00000000000E+00 0.  1.
         11    1    3    3    0    0 -0.13200190532E+01  0.28064171995E+02  0.88383901402E+01  0.29452628755E+02  0.51100000000E-03 0. -1.
        -11    1    3    3    0    0 -0.29024220686E+01  0.11175730770E+01  0.34024774240E+01  0.46097588146E+01  0.51100000000E-03 0.  1.
        -12    1    3    3    0    0  0.71939090193E+01  0.10327770118E+02  0.54733131753E+01  0.13724879588E+02  0.00000000000E+00 0.  1.
</event>
<event>
 7    1  0.1400974E-009  0.4778727E+02  0.7816164E-02  0.1312668E+00
        -11   -1    0    0    0    0  0.00000000000E+00  0.00000000000E+00  0.45593999997E+02  0.45594000000E+02  0.51100000000E-03 0.  1.
         11   -1    0    0    0    0 -0.00000000000E+00 -0.00000000000E+00 -0.45593999997E+02  0.45594000000E+02  0.51100000000E-03 0. -1.
    9900012    2    1    2    0    0  0.26326150860E+02 -0.26768457467E+02 -0.21771702609E+02  0.47787267647E+02  0.19999984510E+02 0.  0.
        -12    1    1    2    0    0 -0.26326150860E+02  0.26768457467E+02  0.21771702609E+02  0.43400732353E+02  0.00000000000E+00 0.  1.
         11    1    3    3    0    0  0.12819318551E+02 -0.97949912116E+01 -0.80370941229E+01  0.18024196602E+02  0.51100000000E-03 0. -1.
        -11    1    3    3    0    0  0.62976533770E+00 -0.19085021252E+01  0.31438178197E+01  0.37312967568E+01  0.51100000000E-03 0.  1.
        -12    1    3    3    0    0  0.12877066971E+02 -0.15064964130E+02 -0.16878426306E+02  0.26031774288E+02  0.00000000000E+00 0.  1.
</event>
<event>
 7    1  0.1400974E-009  0.4778727E+02  0.7816164E-02  0.1312668E+00
        -11   -1    0    0    0    0  0.00000000000E+00  0.00000000000E+00  0.45593999997E+02  0.45594000000E+02  0.51100000000E-03 0.  1.
         11   -1    0    0    0    0 -0.00000000000E+00 -0.00000000000E+00 -0.45593999997E+02  0.45594000000E+02  0.51100000000E-03 0. -1.
    9900012    2    1    2    0    0 -0.47807279767E+01  0.21377579196E+02 -0.37466875163E+02  0.47787274353E+02  0.20000015084E+02 0.  0.
        -12    1    1    2    0    0  0.47807279767E+01 -0.21377579196E+02  0.37466875163E+02  0.43400725647E+02  0.00000000000E+00 0.  1.
         11    1    3    3    0    0  0.30794037117E+01  0.25736143982E+01 -0.77002855848E+01  0.86833528455E+01  0.51100000000E-03 0. -1.
        -11    1    3    3    0    0 -0.92030863472E+01  0.20548913039E+02 -0.29119383934E+02  0.36808873201E+02  0.51100000000E-03 0.  1.
        -12    1    3    3    0    0  0.13429546589E+01 -0.17449482416E+01 -0.64720564418E+00  0.22950483061E+01  0.00000000000E+00 0.  1.
</event>
<event>
 7    1  0.2091806E-009  0.4778727E+02  0.7816164E-02  0.1312668E+00
        -11   -1    0    0    0    0  0.00000000000E+00  0.00000000000E+00  0.45593999997E+02  0.45594000000E+02  0.51100000000E-03 0. -1.
         11   -1    0    0    0    0 -0.00000000000E+00 -0.00000000000E+00 -0.45593999997E+02  0.45594000000E+02  0.51100000000E-03 0.  1.
    9900012    2    1    2    0    0 -0.14989876376E+02  0.32215120267E+02  0.24922132755E+02  0.47787273409E+02  0.20000010780E+02 0.  0.
        -12    1    1    2    0    0  0.14989876376E+02 -0.32215120267E+02 -0.24922132755E+02  0.43400726591E+02  0.00000000000E+00 0.  1.
         11    1    3    3    0    0 -0.10873768033E+02  0.16486235453E+02  0.16190711641E+02  0.25537696340E+02  0.51100000000E-03 0. -1.
        -11    1    3    3    0    0 -0.39125491868E+01  0.20105780411E+00 -0.84125745133E+00  0.40070163140E+01  0.51100000000E-03 0.  1.
         12    1    3    3    0    0 -0.20355915618E+00  0.15527827009E+02  0.95726785660E+01  0.18242560755E+02  0.00000000000E+00 0. -1.
</event>
<event>
 7    1  0.1400974E-009  0.4778727E+02  0.7816164E-02  0.1312668E+00
        -11   -1    0    0    0    0  0.00000000000E+00  0.00000000000E+00  0.45593999997E+02  0.45594000000E+02  0.51100000000E-03 0.  1.
         11   -1    0    0    0    0 -0.00000000000E+00 -0.00000000000E+00 -0.45593999997E+02  0.45594000000E+02  0.51100000000E-03 0. -1.
    9900012    2    1    2    0    0  0.21399912930E+02 -0.55197241222E+01 -0.37352374039E+02  0.47787268737E+02  0.19999989481E+02 0.  0.
        -12    1    1    2    0    0 -0.21399912930E+02  0.55197241222E+01  0.37352374039E+02  0.43400731263E+02  0.00000000000E+00 0.  1.
         11    1    3    3    0    0  0.14607418597E+02 -0.53081709517E+01 -0.14366012059E+02  0.21164490536E+02  0.51100000000E-03 0. -1.
        -11    1    3    3    0    0 -0.15531044412E+01 -0.15272724009E+01 -0.48861814398E-01  0.21787799636E+01  0.51100000000E-03 0.  1.
         12    1    3    3    0    0  0.83455987741E+01  0.13157192304E+01 -0.22937500165E+02  0.24443998237E+02  0.00000000000E+00 0. -1.
</event>
<event>
 7    1  0.1758513E-009  0.4778727E+02  0.7816164E-02  0.1312668E+00
        -11   -1    0    0    0    0  0.00000000000E+00  0.00000000000E+00  0.45593999997E+02  0.45594000000E+02  0.51100000000E-03 0.  1.
         11   -1    0    0    0    0 -0.00000000000E+00 -0.00000000000E+00 -0.45593999997E+02  0.45594000000E+02  0.51100000000E-03 0. -1.
    9900012    2    1    2    0    0  0.26067486280E+02  0.32572565828E+02 -0.11964002582E+02  0.47787271396E+02  0.20000001601E+02 0.  0.
        -12    1    1    2    0    0 -0.26067486280E+02 -0.32572565828E+02  0.11964002582E+02  0.43400728604E+02  0.00000000000E+00 0.  1.
         11    1    3    3    0    0  0.13762999224E+02  0.23829504278E+02 -0.98153388729E+01  0.29216541534E+02  0.51100000000E-03 0. -1.
        -11    1    3    3    0    0  0.38123969645E+01  0.10132769532E+01 -0.53523374542E+01  0.66489561048E+01  0.51100000000E-03 0.  1.
         12    1    3    3    0    0  0.84920900914E+01  0.77297845973E+01  0.32036737450E+01  0.11921773757E+02  0.00000000000E+00 0. -1.
</event>
<event>
 7    1  0.1400974E-009  0.4778727E+02  0.7816164E-02  0.1312668E+00
        -11   -1    0    0    0    0  0.00000000000E+00  0.00000000000E+00  0.45593999997E+02  0.45594000000E+02  0.51100000000E-03 0. -1.
         11   -1    0    0    0    0 -0.00000000000E+00 -0.00000000000E+00 -0.45593999997E+02  0.45594000000E+02  0.51100000000E-03 0.  1.
    9900012    2    1    2    0    0 -0.15540770241E+02  0.39960193338E+02 -0.67298314228E+01  0.47787271639E+02  0.20000002711E+02 0.  0.
        -12    1    1    2    0    0  0.15540770241E+02 -0.39960193338E+02  0.67298314228E+01  0.43400728361E+02  0.00000000000E+00 0.  1.
         11    1    3    3    0    0 -0.24228588260E+01  0.12452883038E+02  0.61608939903E+01  0.14103232107E+02  0.51100000000E-03 0. -1.
        -11    1    3    3    0    0 -0.10865387761E+02  0.17624191739E+02 -0.64982087632E+01  0.21700126798E+02  0.51100000000E-03 0.  1.
         12    1    3    3    0    0 -0.22525236542E+01  0.98831185608E+01 -0.63925166499E+01  0.11983912734E+02  0.00000000000E+00 0. -1.
</event>
<event>
 7    1  0.1400974E-009  0.4778727E+02  0.7816164E-02  0.1312668E+00
        -11   -1    0    0    0    0  0.00000000000E+00  0.00000000000E+00  0.45593999997E+02  0.45594000000E+02  0.51100000000E-03 0.  1.
         11   -1    0    0    0    0 -0.00000000000E+00 -0.00000000000E+00 -0.45593999997E+02  0.45594000000E+02  0.51100000000E-03 0. -1.
    9900012    2    1    2    0    0 -0.20863883481E+02  0.25972245746E+02 -0.27816614980E+02  0.47787271297E+02  0.20000001151E+02 0.  0.
        -12    1    1    2    0    0  0.20863883481E+02 -0.25972245746E+02  0.27816614980E+02  0.43400728703E+02  0.00000000000E+00 0.  1.
         11    1    3    3    0    0 -0.18406139990E+02  0.25398521223E+02 -0.17821811030E+02  0.36076139182E+02  0.51100000000E-03 0. -1.
        -11    1    3    3    0    0  0.13317767157E+01  0.16094746052E+01 -0.25780447492E+01  0.33181851539E+01  0.51100000000E-03 0.  1.
         12    1    3    3    0    0 -0.37895202072E+01 -0.10357500828E+01 -0.74167592012E+01  0.83929469606E+01  0.00000000000E+00 0. -1.
</event>
<event>
 7    1  0.1400974E-009  0.4778728E+02  0.7816164E-02  0.1312668E+00
        -11   -1    0    0    0    0  0.00000000000E+00  0.00000000000E+00  0.45593999997E+02  0.45594000000E+02  0.51100000000E-03 0. -1.
         11   -1    0    0    0    0 -0.00000000000E+00 -0.00000000000E+00 -0.45593999997E+02  0.45594000000E+02  0.51100000000E-03 0.  1.
    9900012    2    1    2    0    0  0.53506864656E+01  0.85106513235E+01  0.42220395961E+02  0.47787275735E+02  0.20000021385E+02 0.  0.
        -12    1    1    2    0    0 -0.53506864656E+01 -0.85106513235E+01 -0.42220395961E+02  0.43400724265E+02  0.00000000000E+00 0.  1.
         11    1    3    3    0    0  0.27401697357E+01  0.18894264362E+01  0.17231576381E+01  0.37480308090E+01  0.51100000000E-03 0. -1.
        -11    1    3    3    0    0  0.14291294827E-01 -0.33548166227E+01  0.26196762986E+02  0.26410705973E+02  0.51100000000E-03 0.  1.
         12    1    3    3    0    0  0.25962254351E+01  0.99760415101E+01  0.14300475337E+02  0.17628538952E+02  0.00000000000E+00 0. -1.
</event>
<event>
 7    1  0.1400974E-009  0.4778727E+02  0.7816164E-02  0.1312668E+00
        -11   -1    0    0    0    0  0.00000000000E+00  0.00000000000E+00  0.45593999997E+02  0.45594000000E+02  0.51100000000E-03 0. -1.
         11   -1    0    0    0    0 -0.00000000000E+00 -0.00000000000E+00 -0.45593999997E+02  0.45594000000E+02  0.51100000000E-03 0.  1.
    9900012    2    1    2    0    0 -0.17948938532E+02 -0.22164672768E+02  0.32713698872E+02  0.47787271812E+02  0.20000003500E+02 0.  0.
        -12    1    1    2    0    0  0.17948938532E+02  0.22164672768E+02 -0.32713698872E+02  0.43400728188E+02  0.00000000000E+00 0.  1.
         11    1    3    3    0    0 -0.34489812011E+01 -0.49118080313E+01  0.76070470088E+01  0.96896075213E+01  0.51100000000E-03 0. -1.
        -11    1    3    3    0    0 -0.37739128968E+00 -0.13929281991E+02  0.99920868963E+01  0.17146694193E+02  0.51100000000E-03 0.  1.
        -12    1    3    3    0    0 -0.14122566041E+02 -0.33235827457E+01  0.15114564967E+02  0.20950970097E+02  0.00000000000E+00 0.  1.
</event>
<event>
 7    1  0.1400974E-009  0.4778727E+02  0.7816164E-02  0.1312668E+00
        -11   -1    0    0    0    0  0.00000000000E+00  0.00000000000E+00  0.45593999997E+02  0.45594000000E+02  0.51100000000E-03 0.  1.
         11   -1    0    0    0    0 -0.00000000000E+00 -0.00000000000E+00 -0.45593999997E+02  0.45594000000E+02  0.51100000000E-03 0. -1.
    9900012    2    1    2    0    0 -0.15914877944E+02 -0.39356799237E+02 -0.90212239646E+01  0.47787268808E+02  0.19999989804E+02 0.  0.
        -12    1    1    2    0    0  0.15914877944E+02  0.39356799237E+02  0.90212239646E+01  0.43400731192E+02  0.00000000000E+00 0.  1.
         11    1    3    3    0    0 -0.76999334415E+01 -0.78837816019E+01 -0.47080996293E+01  0.11983705175E+02  0.51100000000E-03 0. -1.
        -11    1    3    3    0    0 -0.10723071639E+01  0.39336806485E+00  0.22226098120E+01  0.24989149096E+01  0.51100000000E-03 0.  1.
        -12    1    3    3    0    0 -0.71426373387E+01 -0.31866385700E+02 -0.65357341473E+01  0.33304648723E+02  0.00000000000E+00 0.  1.
</event>
<event>
 7    1  0.1400974E-009  0.4778726E+02  0.7816164E-02  0.1312668E+00
        -11   -1    0    0    0    0  0.00000000000E+00  0.00000000000E+00  0.45593999997E+02  0.45594000000E+02  0.51100000000E-03 0.  1.
         11   -1    0    0    0    0 -0.00000000000E+00 -0.00000000000E+00 -0.45593999997E+02  0.45594000000E+02  0.51100000000E-03 0. -1.
    9900012    2    1    2    0    0  0.12933343874E+02 -0.40913974397E+02 -0.65115193304E+01  0.47787256128E+02  0.19999931989E+02 0.  0.
        -12    1    1    2    0    0 -0.12933343874E+02  0.40913974397E+02  0.65115193304E+01  0.43400743872E+02  0.00000000000E+00 0.  1.
         11    1    3    3    0    0 -0.56183543513E+00  0.29394352260E+00  0.11526776153E+01  0.13155712815E+01  0.51100000000E-03 0.  1.
        -11    1    3    3    0    0  0.16460472418E+01 -0.15831363224E+01  0.29904837091E+01  0.37628161280E+01  0.51100000000E-03 0. -1.
         12    1    3    3    0    0  0.11849132067E+02 -0.39624781597E+02 -0.10654680655E+02  0.42708868718E+02  0.00000000000E+00 0. -1.
</event>
<event>
 7    1  0.1400974E-009  0.4778727E+02  0.7816164E-02  0.1312668E+00
        -11   -1    0    0    0    0  0.00000000000E+00  0.00000000000E+00  0.45593999997E+02  0.45594000000E+02  0.51100000000E-03 0. -1.
         11   -1    0    0    0    0 -0.00000000000E+00 -0.00000000000E+00 -0.45593999997E+02  0.45594000000E+02  0.51100000000E-03 0.  1.
    9900012    2    1    2    0    0  0.12077927129E+02  0.32050012517E+02  0.26656026962E+02  0.47787269597E+02  0.19999993403E+02 0.  0.
        -12    1    1    2    0    0 -0.12077927129E+02 -0.32050012517E+02 -0.26656026962E+02  0.43400730403E+02  0.00000000000E+00 0.  1.
         11    1    3    3    0    0  0.61822276577E+01  0.41313104569E+01  0.71163006843E+01  0.10292200960E+02  0.51100000000E-03 0.  1.
        -11    1    3    3    0    0 -0.92807730646E+00  0.28300446980E+01  0.89299805325E+01  0.94135558134E+01  0.51100000000E-03 0. -1.
        -12    1    3    3    0    0  0.68237767781E+01  0.25088657362E+02  0.10609745746E+02  0.28081512825E+02  0.00000000000E+00 0.  1.
</event>
<event>
 7    1  0.1400974E-009  0.4778727E+02  0.7816164E-02  0.1312668E+00
        -11   -1    0    0    0    0  0.00000000000E+00  0.00000000000E+00  0.45593999997E+02  0.45594000000E+02  0.51100000000E-03 0. -1.
         11   -1    0    0    0    0 -0.00000000000E+00 -0.00000000000E+00 -0.45593999997E+02  0.45594000000E+02  0.51100000000E-03 0.  1.
    9900012    2    1    2    0    0 -0.42525862979E+02  0.86495976101E+01  0.59868585180E+00  0.47787274365E+02  0.20000015138E+02 0.  0.
        -12    1    1    2    0    0  0.42525862979E+02 -0.86495976101E+01 -0.59868585180E+00  0.43400725635E+02  0.00000000000E+00 0.  1.
         11    1    3    3    0    0 -0.10821407824E+02  0.46564244191E+01 -0.32585531410E+01  0.12223065266E+02  0.51100000000E-03 0. -1.
        -11    1    3    3    0    0 -0.26694126775E+02  0.35277383496E+01  0.89793305487E+01  0.28383969411E+02  0.51100000000E-03 0.  1.
        -12    1    3    3    0    0 -0.50103283801E+01  0.46543484137E+00 -0.51220915559E+01  0.71802396878E+01  0.00000000000E+00 0.  1.
</event>
<event>
 7    1  0.1400974E-009  0.4778727E+02  0.7816164E-02  0.1312668E+00
        -11   -1    0    0    0    0  0.00000000000E+00  0.00000000000E+00  0.45593999997E+02  0.45594000000E+02  0.51100000000E-03 0. -1.
         11   -1    0    0    0    0 -0.00000000000E+00 -0.00000000000E+00 -0.45593999997E+02  0.45594000000E+02  0.51100000000E-03 0.  1.
    9900012    2    1    2    0    0  0.39744442977E+01  0.42720504936E+02 -0.65410648649E+01  0.47787270985E+02  0.19999999731E+02 0.  0.
        -12    1    1    2    0    0 -0.39744442977E+01 -0.42720504936E+02  0.65410648649E+01  0.43400729015E+02  0.00000000000E+00 0.  1.
         11    1    3    3    0    0 -0.25278295783E+01  0.10632521057E+02 -0.38231417482E+00  0.10935565408E+02  0.51100000000E-03 0. -1.
        -11    1    3    3    0    0  0.69097969123E+01  0.24193376735E+02 -0.11130867514E+02  0.27512923929E+02  0.51100000000E-03 0.  1.
        -12    1    3    3    0    0 -0.40752303630E+00  0.78946071436E+01  0.49721168239E+01  0.93387816490E+01  0.00000000000E+00 0.  1.
</event>
<event>
 7    1  0.1400974E-009  0.4778726E+02  0.7816164E-02  0.1312668E+00
        -11   -1    0    0    0    0  0.00000000000E+00  0.00000000000E+00  0.45593999997E+02  0.45594000000E+02  0.51100000000E-03 0.  1.
         11   -1    0    0    0    0 -0.00000000000E+00 -0.00000000000E+00 -0.45593999997E+02  0.45594000000E+02  0.51100000000E-03 0. -1.
    9900012    2    1    2    0    0 -0.10209573376E+02 -0.39518262258E+02 -0.14754506820E+02  0.47787263694E+02  0.19999966485E+02 0.  0.
        -12    1    1    2    0    0  0.10209573376E+02  0.39518262258E+02  0.14754506820E+02  0.43400736306E+02  0.00000000000E+00 0.  1.
         11    1    3    3    0    0 -0.85861159991E+01 -0.52058106815E+01 -0.31024074265E+00  0.10045800236E+02  0.51100000000E-03 0. -1.
        -11    1    3    3    0    0 -0.11642906468E+01 -0.82404379280E+01 -0.93748166130E+00  0.83749186314E+01  0.51100000000E-03 0.  1.
         12    1    3    3    0    0 -0.45916673032E+00 -0.26072013648E+02 -0.13506784416E+02  0.29366544826E+02  0.00000000000E+00 0. -1.
</event>
<event>
 7    1  0.1400974E-009  0.4778727E+02  0.7816164E-02  0.1312668E+00
        -11   -1    0    0    0    0  0.00000000000E+00  0.00000000000E+00  0.45593999997E+02  0.45594000000E+02  0.51100000000E-03 0. -1.
         11   -1    0    0    0    0 -0.00000000000E+00 -0.00000000000E+00 -0.45593999997E+02  0.45594000000E+02  0.51100000000E-03 0.  1.
    9900012    2    1    2    0    0 -0.32340539526E+02 -0.28739047668E+02  0.34322057664E+01  0.47787269660E+02  0.19999993686E+02 0.  0.
        -12    1    1    2    0    0  0.32340539526E+02  0.28739047668E+02 -0.34322057664E+01  0.43400730340E+02  0.00000000000E+00 0.  1.
         11    1    3    3    0    0 -0.14317801454E+02 -0.95986592284E+01  0.33018621094E+01  0.17550954137E+02  0.51100000000E-03 0. -1.
        -11    1    3    3    0    0  0.23055892032E+01 -0.46254872510E+01  0.89985629230E+00  0.52460094826E+01  0.51100000000E-03 0.  1.
        -12    1    3    3    0    0 -0.20328327274E+02 -0.14514901188E+02 -0.76951263533E+00  0.24990306040E+02  0.00000000000E+00 0.  1.
</event>
<event>
 7    1  0.1400974E-009  0.4778728E+02  0.7816164E-02  0.1312668E+00
        -11   -1    0    0    0    0  0.00000000000E+00  0.00000000000E+00  0.45593999997E+02  0.45594000000E+02  0.51100000000E-03 0.  1.
         11   -1    0    0    0    0 -0.00000000000E+00 -0.00000000000E+00 -0.45593999997E+02  0.45594000000E+02  0.51100000000E-03 0. -1.
    9900012    2    1    2    0    0  0.21096623478E+02 -0.15666858054E+02 -0.34541344008E+02  0.47787281004E+02  0.20000045409E+02 0.  0.
        -12    1    1    2    0    0 -0.21096623478E+02  0.15666858054E+02  0.34541344008E+02  0.43400718996E+02  0.00000000000E+00 0.  1.
         11    1    3    3    0    0  0.27461359198E+01 -0.41344513495E+00 -0.80046267655E+01  0.84726766305E+01  0.51100000000E-03 0. -1.
        -11    1    3    3    0    0  0.10390233163E+02 -0.16907317403E+02 -0.13680551465E+02  0.24103356936E+02  0.51100000000E-03 0.  1.
        -12    1    3    3    0    0  0.79602543959E+01  0.16539044837E+01 -0.12856165778E+02  0.15211247437E+02  0.00000000000E+00 0.  1.
</event>
<event>
 7    1  0.1400974E-009  0.4778727E+02  0.7816164E-02  0.1312668E+00
        -11   -1    0    0    0    0  0.00000000000E+00  0.00000000000E+00  0.45593999997E+02  0.45594000000E+02  0.51100000000E-03 0.  1.
         11   -1    0    0    0    0 -0.00000000000E+00 -0.00000000000E+00 -0.45593999997E+02  0.45594000000E+02  0.51100000000E-03 0. -1.
    9900012    2    1    2    0    0  0.40938889249E+02 -0.14146089140E+02 -0.27420313802E+01  0.47787271585E+02  0.20000002463E+02 0.  0.
        -12    1    1    2    0    0 -0.40938889249E+02  0.14146089140E+02  0.27420313802E+01  0.43400728415E+02  0.00000000000E+00 0.  1.
         11    1    3    3    0    0  0.59015456519E+01 -0.65571343662E+01 -0.17894224240E+01  0.90014601621E+01  0.51100000000E-03 0. -1.
        -11    1    3    3    0    0  0.21718892941E+02  0.44039212308E+00  0.47231334058E+01  0.22230884941E+02  0.51100000000E-03 0.  1.
        -12    1    3    3    0    0  0.13318450656E+02 -0.80293468968E+01 -0.56757423620E+01  0.16554926482E+02  0.00000000000E+00 0.  1.
</event>
<event>
 7    1  0.1400974E-009  0.4778727E+02  0.7816164E-02  0.1312668E+00
        -11   -1    0    0    0    0  0.00000000000E+00  0.00000000000E+00  0.45593999997E+02  0.45594000000E+02  0.51100000000E-03 0.  1.
         11   -1    0    0    0    0 -0.00000000000E+00 -0.00000000000E+00 -0.45593999997E+02  0.45594000000E+02  0.51100000000E-03 0. -1.
    9900012    2    1    2    0    0  0.77544306413E+01 -0.22563144929E+02 -0.36254604689E+02  0.47787273453E+02  0.20000010983E+02 0.  0.
        -12    1    1    2    0    0 -0.77544306413E+01  0.22563144929E+02  0.36254604689E+02  0.43400726547E+02  0.00000000000E+00 0.  1.
         11    1    3    3    0    0  0.83956401248E+01 -0.17159252342E+01 -0.10139380492E+02  0.13275473985E+02  0.51100000000E-03 0. -1.
        -11    1    3    3    0    0 -0.16802119387E+01 -0.93925163504E+01 -0.18200552761E+02  0.20550002351E+02  0.51100000000E-03 0.  1.
        -12    1    3    3    0    0  0.10390024553E+01 -0.11454703344E+02 -0.79146714360E+01  0.13961797117E+02  0.00000000000E+00 0.  1.
</event>
<event>
 7    1  0.1400974E-009  0.4778728E+02  0.7816164E-02  0.1312668E+00
        -11   -1    0    0    0    0  0.00000000000E+00  0.00000000000E+00  0.45593999997E+02  0.45594000000E+02  0.51100000000E-03 0.  1.
         11   -1    0    0    0    0 -0.00000000000E+00 -0.00000000000E+00 -0.45593999997E+02  0.45594000000E+02  0.51100000000E-03 0. -1.
    9900012    2    1    2    0    0  0.29548829853E+02  0.29513748829E+02 -0.11807960152E+02  0.47787278364E+02  0.20000033371E+02 0.  0.
        -12    1    1    2    0    0 -0.29548829853E+02 -0.29513748829E+02  0.11807960152E+02  0.43400721636E+02  0.00000000000E+00 0.  1.
         11    1    3    3    0    0 -0.26382077631E+01  0.15799017824E+01  0.81655266623E+00  0.31816644011E+01  0.51100000000E-03 0.  1.
        -11    1    3    3    0    0  0.98548400528E+01  0.63469988138E+01 -0.34657310824E+01  0.12223483898E+02  0.51100000000E-03 0. -1.
        -12    1    3    3    0    0  0.22332197563E+02  0.21586848233E+02 -0.91587817362E+01  0.32382130064E+02  0.00000000000E+00 0.  1.
</event>
<event>
 7    1  0.1400974E-009  0.4778726E+02  0.7816164E-02  0.1312668E+00
        -11   -1    0    0    0    0  0.00000000000E+00  0.00000000000E+00  0.45593999997E+02  0.45594000000E+02  0.51100000000E-03 0.  1.
         11   -1    0    0    0    0 -0.00000000000E+00 -0.00000000000E+00 -0.45593999997E+02  0.45594000000E+02  0.51100000000E-03 0. -1.
    9900012    2    1    2    0    0  0.15366481130E+02  0.31123358545E+02 -0.26054398482E+02  0.47787264181E+02  0.19999968705E+02 0.  0.
        -12    1    1    2    0    0 -0.15366481130E+02 -0.31123358545E+02  0.26054398482E+02  0.43400735819E+02  0.00000000000E+00 0.  1.
         11    1    3    3    0    0  0.57588212708E+01  0.10241166736E+02 -0.69323557591E+01  0.13641960093E+02  0.51100000000E-03 0. -1.
        -11    1    3    3    0    0 -0.45823105727E+01  0.33427490940E+01 -0.30033800514E+01  0.64180864504E+01  0.51100000000E-03 0.  1.
         12    1    3    3    0    0  0.14189970432E+02  0.17539442715E+02 -0.16118662671E+02  0.27727217638E+02  0.00000000000E+00 0. -1.
</event>
<event>
 7    1  0.1400974E-009  0.4778727E+02  0.7816164E-02  0.1312668E+00
        -11   -1    0    0    0    0  0.00000000000E+00  0.00000000000E+00  0.45593999997E+02  0.45594000000E+02  0.51100000000E-03 0.  1.
         11   -1    0    0    0    0 -0.00000000000E+00 -0.00000000000E+00 -0.45593999997E+02  0.45594000000E+02  0.51100000000E-03 0. -1.
    9900012    2    1    2    0    0  0.41477263112E+02  0.48883481429E+01 -0.11805262332E+02  0.47787268191E+02  0.19999986988E+02 0.  0.
        -12    1    1    2    0    0 -0.41477263112E+02 -0.48883481429E+01  0.11805262332E+02  0.43400731809E+02  0.00000000000E+00 0.  1.
         11    1    3    3    0    0  0.17030268576E+02 -0.24358834524E+01 -0.94937819010E+01  0.19649312228E+02  0.51100000000E-03 0. -1.
        -11    1    3    3    0    0  0.11278887383E+02 -0.11018117791E+01  0.28307015735E+01  0.11680760311E+02  0.51100000000E-03 0.  1.
         12    1    3    3    0    0  0.13168107153E+02  0.84260433744E+01 -0.51421820043E+01  0.16457195651E+02  0.00000000000E+00 0. -1.
</event>
<event>
 7    1  0.1400974E-009  0.4778727E+02  0.7816164E-02  0.1312668E+00
        -11   -1    0    0    0    0  0.00000000000E+00  0.00000000000E+00  0.45593999997E+02  0.45594000000E+02  0.51100000000E-03 0.  1.
         11   -1    0    0    0    0 -0.00000000000E+00 -0.00000000000E+00 -0.45593999997E+02  0.45594000000E+02  0.51100000000E-03 0. -1.
    9900012    2    1    2    0    0  0.26168115445E+02 -0.31589491075E+02  0.14175932381E+02  0.47787271075E+02  0.20000000141E+02 0.  0.
        -12    1    1    2    0    0 -0.26168115445E+02  0.31589491075E+02 -0.14175932381E+02  0.43400728925E+02  0.00000000000E+00 0.  1.
         11    1    3    3    0    0  0.48871373471E+01 -0.49969310849E+01 -0.27876353894E+01  0.75249148196E+01  0.51100000000E-03 0. -1.
        -11    1    3    3    0    0  0.15694916412E+01 -0.58453713097E+01  0.84706687356E+01  0.10410758803E+02  0.51100000000E-03 0.  1.
         12    1    3    3    0    0  0.19711486456E+02 -0.20747188681E+02  0.84928990343E+01  0.29851597453E+02  0.00000000000E+00 0. -1.
</event>
<event>
 7    1  0.1400974E-009  0.4778727E+02  0.7816164E-02  0.1312668E+00
        -11   -1    0    0    0    0  0.00000000000E+00  0.00000000000E+00  0.45593999997E+02  0.45594000000E+02  0.51100000000E-03 0.  1.
         11   -1    0    0    0    0 -0.00000000000E+00 -0.00000000000E+00 -0.45593999997E+02  0.45594000000E+02  0.51100000000E-03 0. -1.
    9900012    2    1    2    0    0  0.37643587220E+02  0.20122433144E+02 -0.78530962931E+01  0.47787273095E+02  0.20000009351E+02 0.  0.
        -12    1    1    2    0    0 -0.37643587220E+02 -0.20122433144E+02  0.78530962931E+01  0.43400726905E+02  0.00000000000E+00 0.  1.
         11    1    3    3    0    0  0.30903189692E+01 -0.19903026700E+01  0.14459848527E+01  0.39499681651E+01  0.51100000000E-03 0. -1.
        -11    1    3    3    0    0  0.34626789733E+01 -0.52070914434E+00  0.16237002991E+01  0.38597521432E+01  0.51100000000E-03 0.  1.
         12    1    3    3    0    0  0.31090589278E+02  0.22633444959E+02 -0.10922781445E+02  0.39977552787E+02  0.00000000000E+00 0. -1.
</event>
<event>
 7    1  0.1400974E-009  0.4778727E+02  0.7816164E-02  0.1312668E+00
        -11   -1    0    0    0    0  0.00000000000E+00  0.00000000000E+00  0.45593999997E+02  0.45594000000E+02  0.51100000000E-03 0.  1.
         11   -1    0    0    0    0 -0.00000000000E+00 -0.00000000000E+00 -0.45593999997E+02  0.45594000000E+02  0.51100000000E-03 0. -1.
    9900012    2    1    2    0    0 -0.30555435800E+02 -0.99090800637E+01 -0.29185590490E+02  0.47787271701E+02  0.20000002993E+02 0.  0.
        -12    1    1    2    0    0  0.30555435800E+02  0.99090800637E+01  0.29185590490E+02  0.43400728299E+02  0.00000000000E+00 0.  1.
         11    1    3    3    0    0 -0.16666764563E+02 -0.61502360691E+01 -0.18279250395E+02  0.25489947822E+02  0.51100000000E-03 0. -1.
        -11    1    3    3    0    0  0.11292348231E+01  0.16251907091E+00 -0.58691337362E+01  0.59789894471E+01  0.51100000000E-03 0.  1.
         12    1    3    3    0    0 -0.15017906060E+02 -0.39213630656E+01 -0.50372063587E+01  0.16318334432E+02  0.00000000000E+00 0. -1.
</event>
<event>
 7    1  0.1400974E-009  0.4778727E+02  0.7816164E-02  0.1312668E+00
        -11   -1    0    0    0    0  0.00000000000E+00  0.00000000000E+00  0.45593999997E+02  0.45594000000E+02  0.51100000000E-03 0. -1.
         11   -1    0    0    0    0 -0.00000000000E+00 -0.00000000000E+00 -0.45593999997E+02  0.45594000000E+02  0.51100000000E-03 0.  1.
    9900012    2    1    2    0    0 -0.10193210361E+02  0.34549889673E+02  0.24207990549E+02  0.47787271661E+02  0.20000002811E+02 0.  0.
        -12    1    1    2    0    0  0.10193210361E+02 -0.34549889673E+02 -0.24207990549E+02  0.43400728339E+02  0.00000000000E+00 0.  1.
         11    1    3    3    0    0 -0.79384208373E+01  0.18690594543E+02  0.87646366327E+01  0.22117316866E+02  0.51100000000E-03 0. -1.
        -11    1    3    3    0    0 -0.46957677093E+01  0.16126746223E+02  0.15949600429E+02  0.23162727219E+02  0.51100000000E-03 0.  1.
        -12    1    3    3    0    0  0.24409781854E+01 -0.26745109304E+00 -0.50624651190E+00  0.25072275764E+01  0.00000000000E+00 0.  1.
</event>
<event>
 7    1  0.1400974E-009  0.4778727E+02  0.7816164E-02  0.1312668E+00
        -11   -1    0    0    0    0  0.00000000000E+00  0.00000000000E+00  0.45593999997E+02  0.45594000000E+02  0.51100000000E-03 0. -1.
         11   -1    0    0    0    0 -0.00000000000E+00 -0.00000000000E+00 -0.45593999997E+02  0.45594000000E+02  0.51100000000E-03 0.  1.
    9900012    2    1    2    0    0 -0.42003549964E+01 -0.33322216957E+02  0.27488363976E+02  0.47787270985E+02  0.19999999728E+02 0.  0.
        -12    1    1    2    0    0  0.42003549964E+01  0.33322216957E+02 -0.27488363976E+02  0.43400729015E+02  0.00000000000E+00 0.  1.
         11    1    3    3    0    0 -0.23322815306E+01 -0.77022712227E+01  0.13068540563E+02  0.15347679689E+02  0.51100000000E-03 0. -1.
        -11    1    3    3    0    0  0.52911515119E+01 -0.12632224852E+02  0.38445153667E+01  0.14224967054E+02  0.51100000000E-03 0.  1.
         12    1    3    3    0    0 -0.71592249776E+01 -0.12987720882E+02  0.10575308046E+02  0.18214624241E+02  0.00000000000E+00 0. -1.
</event>
<event>
 7    1  0.1400974E-009  0.4778727E+02  0.7816164E-02  0.1312668E+00
        -11   -1    0    0    0    0  0.00000000000E+00  0.00000000000E+00  0.45593999997E+02  0.45594000000E+02  0.51100000000E-03 0. -1.
         11   -1    0    0    0    0 -0.00000000000E+00 -0.00000000000E+00 -0.45593999997E+02  0.45594000000E+02  0.51100000000E-03 0.  1.
    9900012    2    1    2    0    0 -0.27838857144E+02  0.32667492865E+02 -0.64386502996E+01  0.47787271033E+02  0.19999999949E+02 0.  0.
        -12    1    1    2    0    0  0.27838857144E+02 -0.32667492865E+02  0.64386502996E+01  0.43400728967E+02  0.00000000000E+00 0.  1.
         11    1    3    3    0    0  0.21541613536E+00 -0.21949151858E+00  0.79274044199E+00  0.85030483216E+00  0.51100000000E-03 0.  1.
        -11    1    3    3    0    0 -0.25799262123E+02  0.28802192222E+02 -0.11778803616E+02  0.40421633042E+02  0.51100000000E-03 0. -1.
         12    1    3    3    0    0 -0.22550111558E+01  0.40847921618E+01  0.45474128747E+01  0.65153331588E+01  0.00000000000E+00 0. -1.
</event>
<event>
 7    1  0.2512876E-009  0.4778727E+02  0.7816164E-02  0.1312668E+00
        -11   -1    0    0    0    0  0.00000000000E+00  0.00000000000E+00  0.45593999997E+02  0.45594000000E+02  0.51100000000E-03 0. -1.
         11   -1    0    0    0    0 -0.00000000000E+00 -0.00000000000E+00 -0.45593999997E+02  0.45594000000E+02  0.51100000000E-03 0.  1.
    9900012    2    1    2    0    0 -0.15764230402E+02  0.30774937546E+02  0.26230049659E+02  0.47787271362E+02  0.20000001450E+02 0.  0.
        -12    1    1    2    0    0  0.15764230402E+02 -0.30774937546E+02 -0.26230049659E+02  0.43400728638E+02  0.00000000000E+00 0.  1.
         11    1    3    3    0    0 -0.93442755273E+01  0.13462054776E+02  0.20524748550E+02  0.26264190588E+02  0.51100000000E-03 0.  1.
        -11    1    3    3    0    0 -0.87037970261E+01  0.11070171254E+02  0.43534812454E+01  0.14739659884E+02  0.51100000000E-03 0. -1.
        -12    1    3    3    0    0  0.22838421509E+01  0.62427115160E+01  0.13518198635E+01  0.67834208911E+01  0.00000000000E+00 0.  1.
</event>
<event>
 7    1  0.1400974E-009  0.4778725E+02  0.7816164E-02  0.1312668E+00
        -11   -1    0    0    0    0  0.00000000000E+00  0.00000000000E+00  0.45593999997E+02  0.45594000000E+02  0.51100000000E-03 0. -1.
         11   -1    0    0    0    0 -0.00000000000E+00 -0.00000000000E+00 -0.45593999997E+02  0.45594000000E+02  0.51100000000E-03 0.  1.
    9900012    2    1    2    0    0 -0.33073713695E+02  0.28096349863E+02 -0.59141084458E+00  0.47787249086E+02  0.19999899881E+02 0.  0.
        -12    1    1    2    0    0  0.33073713695E+02 -0.28096349863E+02  0.59141084458E+00  0.43400750914E+02  0.00000000000E+00 0.  1.
         11    1    3    3    0    0 -0.17164218226E+02  0.15064850488E+02 -0.45648933204E+01  0.23289447370E+02  0.51100000000E-03 0. -1.
        -11    1    3    3    0    0 -0.17917698713E+02  0.10048047314E+02  0.29128789810E+01  0.20748302249E+02  0.51100000000E-03 0.  1.
        -12    1    3    3    0    0  0.20082032448E+01  0.29834520614E+01  0.10606034948E+01  0.37494994664E+01  0.00000000000E+00 0.  1.
</event>
<event>
 7    1  0.1400974E-009  0.4778727E+02  0.7816164E-02  0.1312668E+00
        -11   -1    0    0    0    0  0.00000000000E+00  0.00000000000E+00  0.45593999997E+02  0.45594000000E+02  0.51100000000E-03 0.  1.
         11   -1    0    0    0    0 -0.00000000000E+00 -0.00000000000E+00 -0.45593999997E+02  0.45594000000E+02  0.51100000000E-03 0. -1.
    9900012    2    1    2    0    0 -0.25595771958E+02 -0.17923671111E+02 -0.30120125607E+02  0.47787268500E+02  0.19999988397E+02 0.  0.
        -12    1    1    2    0    0  0.25595771958E+02  0.17923671111E+02  0.30120125607E+02  0.43400731500E+02  0.00000000000E+00 0.  1.
         11    1    3    3    0    0 -0.50165156163E+01  0.25553000940E+01 -0.58616444906E+01  0.81273528220E+01  0.51100000000E-03 0. -1.
        -11    1    3    3    0    0 -0.27988573246E+01 -0.10746738135E+02 -0.84487506279E+01  0.13953758286E+02  0.51100000000E-03 0.  1.
         12    1    3    3    0    0 -0.17780399017E+02 -0.97322330692E+01 -0.15809730488E+02  0.25706157391E+02  0.00000000000E+00 0. -1.
</event>
<event>
 7    1  0.1400974E-009  0.4778727E+02  0.7816164E-02  0.1312668E+00
        -11   -1    0    0    0    0  0.00000000000E+00  0.00000000000E+00  0.45593999997E+02  0.45594000000E+02  0.51100000000E-03 0.  1.
         11   -1    0    0    0    0 -0.00000000000E+00 -0.00000000000E+00 -0.45593999997E+02  0.45594000000E+02  0.51100000000E-03 0. -1.
    9900012    2    1    2    0    0  0.68247817163E+01  0.36193068997E+02 -0.22958824905E+02  0.47787268095E+02  0.19999986551E+02 0.  0.
        -12    1    1    2    0    0 -0.68247817163E+01 -0.36193068997E+02  0.22958824905E+02  0.43400731905E+02  0.00000000000E+00 0.  1.
         11    1    3    3    0    0  0.31678362891E+01  0.33994977855E+01  0.25369269521E+01  0.52941260440E+01  0.51100000000E-03 0. -1.
        -11    1    3    3    0    0  0.40115649778E+01  0.13800439341E+02 -0.15068045883E+02  0.20822842903E+02  0.51100000000E-03 0.  1.
        -12    1    3    3    0    0 -0.35461955064E+00  0.18993131870E+02 -0.10427705974E+02  0.21670299148E+02  0.00000000000E+00 0.  1.
</event>
<event>
 7    1  0.1400974E-009  0.4778727E+02  0.7816164E-02  0.1312668E+00
        -11   -1    0    0    0    0  0.00000000000E+00  0.00000000000E+00  0.45593999997E+02  0.45594000000E+02  0.51100000000E-03 0. -1.
         11   -1    0    0    0    0 -0.00000000000E+00 -0.00000000000E+00 -0.45593999997E+02  0.45594000000E+02  0.51100000000E-03 0.  1.
    9900012    2    1    2    0    0 -0.57494350976E+01 -0.25619046773E+02  0.34557663151E+02  0.47787266781E+02  0.19999980560E+02 0.  0.
        -12    1    1    2    0    0  0.57494350976E+01  0.25619046773E+02 -0.34557663151E+02  0.43400733219E+02  0.00000000000E+00 0.  1.
         11    1    3    3    0    0  0.47695653484E+01 -0.12107011167E+02  0.17048507577E+02  0.21447146288E+02  0.51100000000E-03 0. -1.
        -11    1    3    3    0    0 -0.23130669667E+01  0.13582876096E+01  0.27059295868E+01  0.38101547491E+01  0.51100000000E-03 0.  1.
        -12    1    3    3    0    0 -0.82059334793E+01 -0.14870323215E+02  0.14803225987E+02  0.22529965744E+02  0.00000000000E+00 0.  1.
</event>
<event>
 7    1  0.1400974E-009  0.4778727E+02  0.7816164E-02  0.1312668E+00
        -11   -1    0    0    0    0  0.00000000000E+00  0.00000000000E+00  0.45593999997E+02  0.45594000000E+02  0.51100000000E-03 0.  1.
         11   -1    0    0    0    0 -0.00000000000E+00 -0.00000000000E+00 -0.45593999997E+02  0.45594000000E+02  0.51100000000E-03 0. -1.
    9900012    2    1    2    0    0 -0.31473766441E+02 -0.19376489302E+02 -0.22750326519E+02  0.47787266499E+02  0.19999979275E+02 0.  0.
        -12    1    1    2    0    0  0.31473766441E+02  0.19376489302E+02  0.22750326519E+02  0.43400733501E+02  0.00000000000E+00 0.  1.
         11    1    3    3    0    0 -0.63037828864E+01 -0.13553676115E+02 -0.50274358417E+01  0.15770698346E+02  0.51100000000E-03 0. -1.
        -11    1    3    3    0    0 -0.19825565333E-01 -0.55304578462E+00 -0.15708201803E+01  0.16654515882E+01  0.51100000000E-03 0.  1.
        -12    1    3    3    0    0 -0.25150157990E+02 -0.52697674026E+01 -0.16152070497E+02  0.30351116565E+02  0.00000000000E+00 0.  1.
</event>
<event>
 7    1  0.1400974E-009  0.4778727E+02  0.7816164E-02  0.1312668E+00
        -11   -1    0    0    0    0  0.00000000000E+00  0.00000000000E+00  0.45593999997E+02  0.45594000000E+02  0.51100000000E-03 0.  1.
         11   -1    0    0    0    0 -0.00000000000E+00 -0.00000000000E+00 -0.45593999997E+02  0.45594000000E+02  0.51100000000E-03 0. -1.
    9900012    2    1    2    0    0  0.41796744485E+02 -0.10920895694E+02 -0.41700922757E+01  0.47787268648E+02  0.19999989071E+02 0.  0.
        -12    1    1    2    0    0 -0.41796744485E+02  0.10920895694E+02  0.41700922757E+01  0.43400731352E+02  0.00000000000E+00 0.  1.
         11    1    3    3    0    0  0.19304199826E+02 -0.47861491327E+01 -0.71856795993E+01  0.21146946494E+02  0.51100000000E-03 0. -1.
        -11    1    3    3    0    0  0.22227007137E+02 -0.20596214457E+01  0.32104149925E+01  0.22551910151E+02  0.51100000000E-03 0.  1.
        -12    1    3    3    0    0  0.26553752219E+00 -0.40751251155E+01 -0.19482766888E+00  0.40884120027E+01  0.00000000000E+00 0.  1.
</event>
<event>
 7    1  0.1400974E-009  0.4778727E+02  0.7816164E-02  0.1312668E+00
        -11   -1    0    0    0    0  0.00000000000E+00  0.00000000000E+00  0.45593999997E+02  0.45594000000E+02  0.51100000000E-03 0.  1.
         11   -1    0    0    0    0 -0.00000000000E+00 -0.00000000000E+00 -0.45593999997E+02  0.45594000000E+02  0.51100000000E-03 0. -1.
    9900012    2    1    2    0    0 -0.17738913880E+01  0.34229358934E+02 -0.26623816725E+02  0.47787270505E+02  0.19999997542E+02 0.  0.
        -12    1    1    2    0    0  0.17738913880E+01 -0.34229358934E+02  0.26623816725E+02  0.43400729495E+02  0.00000000000E+00 0.  1.
         11    1    3    3    0    0  0.89691152863E-01  0.74992892850E+01 -0.32336732348E+00  0.75067936544E+01  0.51100000000E-03 0. -1.
        -11    1    3    3    0    0 -0.60426770802E+01  0.45269601560E+01 -0.94492370260E+01  0.12095263337E+02  0.51100000000E-03 0.  1.
        -12    1    3    3    0    0  0.41790945393E+01  0.22203109493E+02 -0.16851212376E+02  0.28185213514E+02  0.00000000000E+00 0.  1.
</event>
<event>
 7    1  0.1400974E-009  0.4778727E+02  0.7816164E-02  0.1312668E+00
        -11   -1    0    0    0    0  0.00000000000E+00  0.00000000000E+00  0.45593999997E+02  0.45594000000E+02  0.51100000000E-03 0.  1.
         11   -1    0    0    0    0 -0.00000000000E+00 -0.00000000000E+00 -0.45593999997E+02  0.45594000000E+02  0.51100000000E-03 0. -1.
    9900012    2    1    2    0    0 -0.10931062584E+02  0.40495440702E+02 -0.11146941543E+02  0.47787272442E+02  0.20000006371E+02 0.  0.
        -12    1    1    2    0    0  0.10931062584E+02 -0.40495440702E+02  0.11146941543E+02  0.43400727558E+02  0.00000000000E+00 0.  1.
         11    1    3    3    0    0  0.44827724711E+01  0.84461389817E+01 -0.44801523875E+01  0.10559558627E+02  0.51100000000E-03 0.  1.
        -11    1    3    3    0    0 -0.47662364528E+01  0.17552589605E+02 -0.43984582751E+00  0.18193511931E+02  0.51100000000E-03 0. -1.
        -12    1    3    3    0    0 -0.10647598602E+02  0.14496712115E+02 -0.62269433276E+01  0.19034201883E+02  0.00000000000E+00 0.  1.
</event>
<event>
 7    1  0.1400974E-009  0.4778727E+02  0.7816164E-02  0.1312668E+00
        -11   -1    0    0    0    0  0.00000000000E+00  0.00000000000E+00  0.45593999997E+02  0.45594000000E+02  0.51100000000E-03 0. -1.
         11   -1    0    0    0    0 -0.00000000000E+00 -0.00000000000E+00 -0.45593999997E+02  0.45594000000E+02  0.51100000000E-03 0.  1.
    9900012    2    1    2    0    0  0.26913963553E+02  0.22484272631E+02  0.25567934140E+02  0.47787271826E+02  0.20000003564E+02 0.  0.
        -12    1    1    2    0    0 -0.26913963553E+02 -0.22484272631E+02 -0.25567934140E+02  0.43400728174E+02  0.00000000000E+00 0.  1.
         11    1    3    3    0    0  0.86552248846E+00 -0.11038614255E+01  0.31830636121E+01  0.34784383629E+01  0.51100000000E-03 0.  1.
        -11    1    3    3    0    0  0.25714459704E+02  0.25338752697E+02  0.19815254055E+02  0.41181672132E+02  0.51100000000E-03 0. -1.
         12    1    3    3    0    0  0.33398135995E+00 -0.17506186402E+01  0.25696164729E+01  0.31271613310E+01  0.00000000000E+00 0. -1.
</event>
<event>
 7    1  0.2425060E-009  0.4778727E+02  0.7816164E-02  0.1312668E+00
        -11   -1    0    0    0    0  0.00000000000E+00  0.00000000000E+00  0.45593999997E+02  0.45594000000E+02  0.51100000000E-03 0. -1.
         11   -1    0    0    0    0 -0.00000000000E+00 -0.00000000000E+00 -0.45593999997E+02  0.45594000000E+02  0.51100000000E-03 0.  1.
    9900012    2    1    2    0    0  0.21735304420E+02 -0.27959395610E+02  0.25089282805E+02  0.47787269906E+02  0.19999994807E+02 0.  0.
        -12    1    1    2    0    0 -0.21735304420E+02  0.27959395610E+02 -0.25089282805E+02  0.43400730094E+02  0.00000000000E+00 0.  1.
         11    1    3    3    0    0  0.11856246418E+01 -0.11284704841E+02  0.12057536799E+02  0.16557006465E+02  0.51100000000E-03 0. -1.
        -11    1    3    3    0    0  0.27544138260E+01 -0.61599914876E+00 -0.15032332735E+01  0.31978056557E+01  0.51100000000E-03 0.  1.
         12    1    3    3    0    0  0.17795265952E+02 -0.16058691620E+02  0.14534979279E+02  0.28032457785E+02  0.00000000000E+00 0. -1.
</event>
<event>
 7    1  0.1400974E-009  0.4778733E+02  0.7816164E-02  0.1312667E+00
        -11   -1    0    0    0    0  0.00000000000E+00  0.00000000000E+00  0.45593999997E+02  0.45594000000E+02  0.51100000000E-03 0.  1.
         11   -1    0    0    0    0 -0.00000000000E+00 -0.00000000000E+00 -0.45593999997E+02  0.45594000000E+02  0.51100000000E-03 0. -1.
    9900012    2    1    2    0    0 -0.25103379327E+02 -0.23698531718E+02 -0.26302429897E+02  0.47787333211E+02  0.20000283442E+02 0.  0.
        -12    1    1    2    0    0  0.25103379327E+02  0.23698531718E+02  0.26302429897E+02  0.43400666789E+02  0.00000000000E+00 0.  1.
         11    1    3    3    0    0 -0.78077889385E+01 -0.92280821391E+01 -0.24431142236E+01  0.12332391311E+02  0.51100000000E-03 0. -1.
        -11    1    3    3    0    0 -0.32928239111E+01  0.25641237827E+01 -0.36797508362E+01  0.55639901653E+01  0.51100000000E-03 0.  1.
         12    1    3    3    0    0 -0.14002766477E+02 -0.17034573361E+02 -0.20179564837E+02  0.29890951735E+02  0.00000000000E+00 0. -1.
</event>
<event>
 7    1  0.1400974E-009  0.4778727E+02  0.7816164E-02  0.1312668E+00
        -11   -1    0    0    0    0  0.00000000000E+00  0.00000000000E+00  0.45593999997E+02  0.45594000000E+02  0.51100000000E-03 0. -1.
         11   -1    0    0    0    0 -0.00000000000E+00 -0.00000000000E+00 -0.45593999997E+02  0.45594000000E+02  0.51100000000E-03 0.  1.
    9900012    2    1    2    0    0 -0.66838823052E+00 -0.38322423419E+02  0.20360948370E+02  0.47787273070E+02  0.20000009236E+02 0.  0.
        -12    1    1    2    0    0  0.66838823052E+00  0.38322423419E+02 -0.20360948370E+02  0.43400726930E+02  0.00000000000E+00 0.  1.
         11    1    3    3    0    0 -0.93789375869E+01 -0.23812268363E+02  0.15182634190E+02  0.29757368433E+02  0.51100000000E-03 0. -1.
        -11    1    3    3    0    0  0.18334329794E+01 -0.13380286238E+01 -0.70330384037E-01  0.22708464748E+01  0.51100000000E-03 0.  1.
         12    1    3    3    0    0  0.68771163770E+01 -0.13172126432E+02  0.52486445638E+01  0.15759058163E+02  0.00000000000E+00 0. -1.
</event>
<event>
 7    1  0.1400974E-009  0.4778728E+02  0.7816164E-02  0.1312668E+00
        -11   -1    0    0    0    0  0.00000000000E+00  0.00000000000E+00  0.45593999997E+02  0.45594000000E+02  0.51100000000E-03 0.  1.
         11   -1    0    0    0    0 -0.00000000000E+00 -0.00000000000E+00 -0.45593999997E+02  0.45594000000E+02  0.51100000000E-03 0. -1.
    9900012    2    1    2    0    0 -0.13932817227E+02 -0.40576622717E+02 -0.65602620968E+01  0.47787277129E+02  0.20000027741E+02 0.  0.
        -12    1    1    2    0    0  0.13932817227E+02  0.40576622717E+02  0.65602620968E+01  0.43400722871E+02  0.00000000000E+00 0.  1.
         11    1    3    3    0    0 -0.17930307206E+01 -0.54661079124E+01 -0.39521527911E+01  0.69794560547E+01  0.51100000000E-03 0. -1.
        -11    1    3    3    0    0 -0.48170447335E+01 -0.89109910451E+01  0.65976413279E+01  0.12088777966E+02  0.51100000000E-03 0.  1.
         12    1    3    3    0    0 -0.73227417731E+01 -0.26199523759E+02 -0.92057506336E+01  0.28719043107E+02  0.00000000000E+00 0. -1.
</event>
<event>
 7    1  0.1400974E-009  0.4778727E+02  0.7816164E-02  0.1312668E+00
        -11   -1    0    0    0    0  0.00000000000E+00  0.00000000000E+00  0.45593999997E+02  0.45594000000E+02  0.51100000000E-03 0. -1.
         11   -1    0    0    0    0 -0.00000000000E+00 -0.00000000000E+00 -0.45593999997E+02  0.45594000000E+02  0.51100000000E-03 0.  1.
    9900012    2    1    2    0    0 -0.32894180928E+02  0.55858805541E+01  0.27755977683E+02  0.47787268467E+02  0.19999988247E+02 0.  0.
        -12    1    1    2    0    0  0.32894180928E+02 -0.55858805541E+01 -0.27755977683E+02  0.43400731533E+02  0.00000000000E+00 0.  1.
         11    1    3    3    0    0 -0.21708951855E+02 -0.26932327259E+01  0.14229835653E+02  0.26096365956E+02  0.51100000000E-03 0. -1.
        -11    1    3    3    0    0 -0.15653727508E+01 -0.17308344290E+01  0.46782999066E+01  0.52280656028E+01  0.51100000000E-03 0.  1.
        -12    1    3    3    0    0 -0.96198563223E+01  0.10009947709E+02  0.88478421235E+01  0.16462836907E+02  0.00000000000E+00 0.  1.
</event>
<event>
 7    1  0.1400974E-009  0.4778727E+02  0.7816164E-02  0.1312668E+00
        -11   -1    0    0    0    0  0.00000000000E+00  0.00000000000E+00  0.45593999997E+02  0.45594000000E+02  0.51100000000E-03 0.  1.
         11   -1    0    0    0    0 -0.00000000000E+00 -0.00000000000E+00 -0.45593999997E+02  0.45594000000E+02  0.51100000000E-03 0. -1.
    9900012    2    1    2    0    0 -0.59710703335E+01  0.16998776272E+02 -0.39484314931E+02  0.47787271881E+02  0.20000003814E+02 0.  0.
        -12    1    1    2    0    0  0.59710703335E+01 -0.16998776272E+02  0.39484314931E+02  0.43400728119E+02  0.00000000000E+00 0.  1.
         11    1    3    3    0    0 -0.29929535769E+01  0.14162262290E+02 -0.37857678896E+02  0.40530621706E+02  0.51100000000E-03 0. -1.
        -11    1    3    3    0    0 -0.43313062139E+01  0.22980662633E+01 -0.25555854132E+01  0.55292259073E+01  0.51100000000E-03 0.  1.
        -12    1    3    3    0    0  0.13531894572E+01  0.53844771885E+00  0.92894937771E+00  0.17274242673E+01  0.00000000000E+00 0.  1.
</event>
<event>
 7    1  0.1400974E-009  0.4778725E+02  0.7816164E-02  0.1312668E+00
        -11   -1    0    0    0    0  0.00000000000E+00  0.00000000000E+00  0.45593999997E+02  0.45594000000E+02  0.51100000000E-03 0.  1.
         11   -1    0    0    0    0 -0.00000000000E+00 -0.00000000000E+00 -0.45593999997E+02  0.45594000000E+02  0.51100000000E-03 0. -1.
    9900012    2    1    2    0    0  0.33547033693E+02  0.26304707224E+02 -0.81414976052E+01  0.47787250295E+02  0.19999905394E+02 0.  0.
        -12    1    1    2    0    0 -0.33547033693E+02 -0.26304707224E+02  0.81414976052E+01  0.43400749705E+02  0.00000000000E+00 0.  1.
         11    1    3    3    0    0  0.16523484924E+02  0.79283108719E+01 -0.58796901720E+01  0.19247192629E+02  0.51100000000E-03 0. -1.
        -11    1    3    3    0    0 -0.80045453156E+00  0.48542403456E+00 -0.31338251871E+01  0.32706611739E+01  0.51100000000E-03 0.  1.
        -12    1    3    3    0    0  0.17824003300E+02  0.17890972317E+02  0.87201775390E+00  0.25269396492E+02  0.00000000000E+00 0.  1.
</event>
<event>
 7    1  0.1400974E-009  0.4778727E+02  0.7816164E-02  0.1312668E+00
        -11   -1    0    0    0    0  0.00000000000E+00  0.00000000000E+00  0.45593999997E+02  0.45594000000E+02  0.51100000000E-03 0.  1.
         11   -1    0    0    0    0 -0.00000000000E+00 -0.00000000000E+00 -0.45593999997E+02  0.45594000000E+02  0.51100000000E-03 0. -1.
    9900012    2    1    2    0    0  0.33114471398E+02  0.18612722664E+02 -0.20990983477E+02  0.47787273643E+02  0.20000011848E+02 0.  0.
        -12    1    1    2    0    0 -0.33114471398E+02 -0.18612722664E+02  0.20990983477E+02  0.43400726357E+02  0.00000000000E+00 0.  1.
         11    1    3    3    0    0  0.72300812647E+01 -0.27460024172E+01  0.50627881458E+00  0.77505433919E+01  0.51100000000E-03 0. -1.
        -11    1    3    3    0    0  0.39047790425E+01  0.46114802354E+01 -0.50844389426E+01  0.78971240939E+01  0.51100000000E-03 0.  1.
         12    1    3    3    0    0  0.21979611091E+02  0.16747244846E+02 -0.16412823349E+02  0.32139606157E+02  0.00000000000E+00 0. -1.
</event>
<event>
 7    1  0.1400974E-009  0.4778727E+02  0.7816164E-02  0.1312668E+00
        -11   -1    0    0    0    0  0.00000000000E+00  0.00000000000E+00  0.45593999997E+02  0.45594000000E+02  0.51100000000E-03 0.  1.
         11   -1    0    0    0    0 -0.00000000000E+00 -0.00000000000E+00 -0.45593999997E+02  0.45594000000E+02  0.51100000000E-03 0. -1.
    9900012    2    1    2    0    0  0.17388762924E+02 -0.23074343710E+02 -0.32385634122E+02  0.47787266007E+02  0.19999977033E+02 0.  0.
        -12    1    1    2    0    0 -0.17388762924E+02  0.23074343710E+02  0.32385634122E+02  0.43400733993E+02  0.00000000000E+00 0.  1.
         11    1    3    3    0    0  0.46556270495E+01 -0.25497838665E+01 -0.50778033955E+01  0.73457707951E+01  0.51100000000E-03 0. -1.
        -11    1    3    3    0    0  0.10672743621E+02 -0.10409278659E+02 -0.26087088857E+02  0.30046576242E+02  0.51100000000E-03 0.  1.
        -12    1    3    3    0    0  0.20603922533E+01 -0.10115281185E+02 -0.12207418698E+01  0.10394918970E+02  0.00000000000E+00 0.  1.
</event>
<event>
 7    1  0.1400974E-009  0.4778728E+02  0.7816164E-02  0.1312668E+00
        -11   -1    0    0    0    0  0.00000000000E+00  0.00000000000E+00  0.45593999997E+02  0.45594000000E+02  0.51100000000E-03 0. -1.
         11   -1    0    0    0    0 -0.00000000000E+00 -0.00000000000E+00 -0.45593999997E+02  0.45594000000E+02  0.51100000000E-03 0.  1.
    9900012    2    1    2    0    0  0.97780259478E+01  0.33350971543E+02  0.25994719750E+02  0.47787279393E+02  0.20000038064E+02 0.  0.
        -12    1    1    2    0    0 -0.97780259478E+01 -0.33350971543E+02 -0.25994719750E+02  0.43400720607E+02  0.00000000000E+00 0.  1.
         11    1    3    3    0    0  0.19437388754E+01  0.15342194734E+02  0.94833800744E+01  0.18140991097E+02  0.51100000000E-03 0. -1.
        -11    1    3    3    0    0  0.11858862502E+02  0.10582509870E+02  0.12856042871E+02  0.20442601927E+02  0.51100000000E-03 0.  1.
        -12    1    3    3    0    0 -0.40245754297E+01  0.74262669398E+01  0.36552968050E+01  0.92036863693E+01  0.00000000000E+00 0.  1.
</event>
<event>
 7    1  0.1400974E-009  0.4778727E+02  0.7816164E-02  0.1312668E+00
        -11   -1    0    0    0    0  0.00000000000E+00  0.00000000000E+00  0.45593999997E+02  0.45594000000E+02  0.51100000000E-03 0.  1.
         11   -1    0    0    0    0 -0.00000000000E+00 -0.00000000000E+00 -0.45593999997E+02  0.45594000000E+02  0.51100000000E-03 0. -1.
    9900012    2    1    2    0    0  0.63582734732E+01  0.41334390662E+02 -0.11604471923E+02  0.47787271186E+02  0.20000000646E+02 0.  0.
        -12    1    1    2    0    0 -0.63582734732E+01 -0.41334390662E+02  0.11604471923E+02  0.43400728814E+02  0.00000000000E+00 0.  1.
         11    1    3    3    0    0  0.69453043416E+00  0.13566009682E+02 -0.69532434177E+01  0.15259966760E+02  0.51100000000E-03 0. -1.
        -11    1    3    3    0    0  0.74463408361E+01  0.26493377086E+02 -0.78791633178E+01  0.28625656955E+02  0.51100000000E-03 0.  1.
        -12    1    3    3    0    0 -0.17825977971E+01  0.12750038935E+01  0.32279348123E+01  0.39016474709E+01  0.00000000000E+00 0.  1.
</event>
<event>
 7    1  0.1400974E-009  0.4778728E+02  0.7816164E-02  0.1312668E+00
        -11   -1    0    0    0    0  0.00000000000E+00  0.00000000000E+00  0.45593999997E+02  0.45594000000E+02  0.51100000000E-03 0.  1.
         11   -1    0    0    0    0 -0.00000000000E+00 -0.00000000000E+00 -0.45593999997E+02  0.45594000000E+02  0.51100000000E-03 0. -1.
    9900012    2    1    2    0    0 -0.10378092655E+02 -0.32423282039E+02 -0.26919301082E+02  0.47787276549E+02  0.20000025095E+02 0.  0.
        -12    1    1    2    0    0  0.10378092655E+02  0.32423282039E+02  0.26919301082E+02  0.43400723451E+02  0.00000000000E+00 0.  1.
         11    1    3    3    0    0 -0.14407433939E+02 -0.26244908368E+02 -0.16872589734E+02  0.34366461158E+02  0.51100000000E-03 0. -1.
        -11    1    3    3    0    0 -0.38629667303E+00 -0.13948913023E+01 -0.49376709544E+01  0.51454389103E+01  0.51100000000E-03 0.  1.
         12    1    3    3    0    0  0.44156379567E+01 -0.47834823688E+01 -0.51090403939E+01  0.82753764799E+01  0.00000000000E+00 0. -1.
</event>
<event>
 7    1  0.1400974E-009  0.4778727E+02  0.7816164E-02  0.1312668E+00
        -11   -1    0    0    0    0  0.00000000000E+00  0.00000000000E+00  0.45593999997E+02  0.45594000000E+02  0.51100000000E-03 0.  1.
         11   -1    0    0    0    0 -0.00000000000E+00 -0.00000000000E+00 -0.45593999997E+02  0.45594000000E+02  0.51100000000E-03 0. -1.
    9900012    2    1    2    0    0  0.15476743850E+02 -0.38777532300E+02 -0.11848915972E+02  0.47787269348E+02  0.19999992264E+02 0.  0.
        -12    1    1    2    0    0 -0.15476743850E+02  0.38777532300E+02  0.11848915972E+02  0.43400730652E+02  0.00000000000E+00 0.  1.
         11    1    3    3    0    0  0.10184962599E+01 -0.33647486710E+01  0.48210187895E+00  0.35484208788E+01  0.51100000000E-03 0. -1.
        -11    1    3    3    0    0  0.73522408666E+01 -0.63830289927E+01  0.35883602632E+01  0.10376648521E+02  0.51100000000E-03 0.  1.
         12    1    3    3    0    0  0.71060067233E+01 -0.29029754636E+02 -0.15919378115E+02  0.33862199948E+02  0.00000000000E+00 0. -1.
</event>
<event>
 7    1  0.1400974E-009  0.4778727E+02  0.7816164E-02  0.1312668E+00
        -11   -1    0    0    0    0  0.00000000000E+00  0.00000000000E+00  0.45593999997E+02  0.45594000000E+02  0.51100000000E-03 0. -1.
         11   -1    0    0    0    0 -0.00000000000E+00 -0.00000000000E+00 -0.45593999997E+02  0.45594000000E+02  0.51100000000E-03 0.  1.
    9900012    2    1    2    0    0  0.14413263665E+02 -0.32354847629E+02  0.25080777049E+02  0.47787265997E+02  0.19999976989E+02 0.  0.
        -12    1    1    2    0    0 -0.14413263665E+02  0.32354847629E+02 -0.25080777049E+02  0.43400734003E+02  0.00000000000E+00 0.  1.
         11    1    3    3    0    0  0.61740370226E+01 -0.10811339717E+02  0.47649354265E+01  0.13330731770E+02  0.51100000000E-03 0. -1.
        -11    1    3    3    0    0  0.88247493720E+01 -0.81877726479E+01  0.26910146453E+01  0.12335209058E+02  0.51100000000E-03 0.  1.
         12    1    3    3    0    0 -0.58552272973E+00 -0.13355735264E+02  0.17624826977E+02  0.22121325170E+02  0.00000000000E+00 0. -1.
</event>
<event>
 7    1  0.1400974E-009  0.4778727E+02  0.7816164E-02  0.1312668E+00
        -11   -1    0    0    0    0  0.00000000000E+00  0.00000000000E+00  0.45593999997E+02  0.45594000000E+02  0.51100000000E-03 0.  1.
         11   -1    0    0    0    0 -0.00000000000E+00 -0.00000000000E+00 -0.45593999997E+02  0.45594000000E+02  0.51100000000E-03 0. -1.
    9900012    2    1    2    0    0  0.10471728578E+02 -0.35250573088E+01 -0.41970708567E+02  0.47787268369E+02  0.19999987802E+02 0.  0.
        -12    1    1    2    0    0 -0.10471728578E+02  0.35250573088E+01  0.41970708567E+02  0.43400731631E+02  0.00000000000E+00 0.  1.
         11    1    3    3    0    0  0.45409059085E+01 -0.76939283232E-01 -0.52630617843E+01  0.69516592070E+01  0.51100000000E-03 0. -1.
        -11    1    3    3    0    0  0.60376663218E+01  0.25418054806E+01 -0.42025221554E+01  0.77830188514E+01  0.51100000000E-03 0.  1.
        -12    1    3    3    0    0 -0.10684365212E+00 -0.59899235062E+01 -0.32505124628E+02  0.33052590311E+02  0.00000000000E+00 0.  1.
</event>
<event>
 7    1  0.1400974E-009  0.4778724E+02  0.7816164E-02  0.1312668E+00
        -11   -1    0    0    0    0  0.00000000000E+00  0.00000000000E+00  0.45593999997E+02  0.45594000000E+02  0.51100000000E-03 0. -1.
         11   -1    0    0    0    0 -0.00000000000E+00 -0.00000000000E+00 -0.45593999997E+02  0.45594000000E+02  0.51100000000E-03 0.  1.
    9900012    2    1    2    0    0 -0.27457264994E+02  0.33297521607E+02 -0.45824959219E+01  0.47787244074E+02  0.19999877029E+02 0.  0.
        -12    1    1    2    0    0  0.27457264994E+02 -0.33297521607E+02  0.45824959219E+01  0.43400755926E+02  0.00000000000E+00 0.  1.
         11    1    3    3    0    0 -0.22432798067E+02  0.17109256616E+02 -0.66356062345E+01  0.28982552707E+02  0.51100000000E-03 0. -1.
        -11    1    3    3    0    0 -0.10000071508E+01  0.65791132132E+01 -0.29122647898E+01  0.72640230892E+01  0.51100000000E-03 0.  1.
         12    1    3    3    0    0 -0.40244597765E+01  0.96091517773E+01  0.49653751023E+01  0.11540668277E+02  0.00000000000E+00 0. -1.
</event>
<event>
 7    1  0.1400974E-009  0.4778727E+02  0.7816164E-02  0.1312668E+00
        -11   -1    0    0    0    0  0.00000000000E+00  0.00000000000E+00  0.45593999997E+02  0.45594000000E+02  0.51100000000E-03 0.  1.
         11   -1    0    0    0    0 -0.00000000000E+00 -0.00000000000E+00 -0.45593999997E+02  0.45594000000E+02  0.51100000000E-03 0. -1.
    9900012    2    1    2    0    0  0.29363660785E+02 -0.59747977279E+01 -0.31395862333E+02  0.47787274727E+02  0.20000016790E+02 0.  0.
        -12    1    1    2    0    0 -0.29363660785E+02  0.59747977279E+01  0.31395862333E+02  0.43400725273E+02  0.00000000000E+00 0.  1.
         11    1    3    3    0    0  0.10897186105E+02 -0.15702303460E+01 -0.17413766251E+02  0.20602270352E+02  0.51100000000E-03 0. -1.
        -11    1    3    3    0    0  0.15341798046E+02  0.24263278525E+01 -0.74334191541E+01  0.17219568947E+02  0.51100000000E-03 0.  1.
         12    1    3    3    0    0  0.31246766341E+01 -0.68308952344E+01 -0.65486769279E+01  0.99654354284E+01  0.00000000000E+00 0. -1.
</event>
<event>
 7    1  0.1400974E-009  0.4778726E+02  0.7816164E-02  0.1312668E+00
        -11   -1    0    0    0    0  0.00000000000E+00  0.00000000000E+00  0.45593999997E+02  0.45594000000E+02  0.51100000000E-03 0.  1.
         11   -1    0    0    0    0 -0.00000000000E+00 -0.00000000000E+00 -0.45593999997E+02  0.45594000000E+02  0.51100000000E-03 0. -1.
    9900012    2    1    2    0    0  0.21094842173E+02  0.12924773855E+02 -0.35659253852E+02  0.47787256564E+02  0.19999933978E+02 0.  0.
        -12    1    1    2    0    0 -0.21094842173E+02 -0.12924773855E+02  0.35659253852E+02  0.43400743436E+02  0.00000000000E+00 0.  1.
         11    1    3    3    0    0 -0.10103005413E+01 -0.11158393431E+01 -0.89050719003E+01  0.90313958187E+01  0.51100000000E-03 0. -1.
        -11    1    3    3    0    0  0.11840901257E+02  0.16850725747E+01 -0.12084194856E+02  0.17002181558E+02  0.51100000000E-03 0.  1.
        -12    1    3    3    0    0  0.10264241457E+02  0.12355540623E+02 -0.14669987096E+02  0.21753679187E+02  0.00000000000E+00 0.  1.
</event>
<event>
 7    1  0.1400974E-009  0.4778727E+02  0.7816164E-02  0.1312668E+00
        -11   -1    0    0    0    0  0.00000000000E+00  0.00000000000E+00  0.45593999997E+02  0.45594000000E+02  0.51100000000E-03 0.  1.
         11   -1    0    0    0    0 -0.00000000000E+00 -0.00000000000E+00 -0.45593999997E+02  0.45594000000E+02  0.51100000000E-03 0. -1.
    9900012    2    1    2    0    0  0.43221399701E+02  0.12008278341E+01 -0.37539545123E+01  0.47787267816E+02  0.19999985282E+02 0.  0.
        -12    1    1    2    0    0 -0.43221399701E+02 -0.12008278341E+01  0.37539545123E+01  0.43400732184E+02  0.00000000000E+00 0.  1.
         11    1    3    3    0    0  0.91656551179E+01  0.46304929956E+00 -0.92356384061E+00  0.92236987604E+01  0.51100000000E-03 0.  1.
        -11    1    3    3    0    0  0.10672839312E+02  0.49038459510E+01  0.60431410905E+01  0.13208965084E+02  0.51100000000E-03 0. -1.
         12    1    3    3    0    0  0.23382905271E+02 -0.41660674165E+01 -0.88735317621E+01  0.25354603972E+02  0.00000000000E+00 0. -1.
</event>
<event>
 7    1  0.1400974E-009  0.4778727E+02  0.7816164E-02  0.1312668E+00
        -11   -1    0    0    0    0  0.00000000000E+00  0.00000000000E+00  0.45593999997E+02  0.45594000000E+02  0.51100000000E-03 0. -1.
         11   -1    0    0    0    0 -0.00000000000E+00 -0.00000000000E+00 -0.45593999997E+02  0.45594000000E+02  0.51100000000E-03 0.  1.
    9900012    2    1    2    0    0  0.30838338140E+02  0.18936022853E+02  0.23959282404E+02  0.47787271043E+02  0.19999999992E+02 0.  0.
        -12    1    1    2    0    0 -0.30838338140E+02 -0.18936022853E+02 -0.23959282404E+02  0.43400728957E+02  0.00000000000E+00 0.  1.
         11    1    3    3    0    0  0.52568375591E+01  0.55830723501E+01  0.33089196760E+01  0.83518852766E+01  0.51100000000E-03 0. -1.
        -11    1    3    3    0    0  0.14632222270E+02  0.45443866503E+01  0.11034484829E+01  0.15361346862E+02  0.51100000000E-03 0.  1.
         12    1    3    3    0    0  0.10949278311E+02  0.88085638522E+01  0.19546914245E+02  0.24074038905E+02  0.00000000000E+00 0. -1.
</event>
<event>
 7    1  0.1758486E-009  0.4778727E+02  0.7816164E-02  0.1312668E+00
        -11   -1    0    0    0    0  0.00000000000E+00  0.00000000000E+00  0.45593999997E+02  0.45594000000E+02  0.51100000000E-03 0. -1.
         11   -1    0    0    0    0 -0.00000000000E+00 -0.00000000000E+00 -0.45593999997E+02  0.45594000000E+02  0.51100000000E-03 0.  1.
    9900012    2    1    2    0    0  0.34959723330E+02  0.58949727881E+01  0.25033787661E+02  0.47787268622E+02  0.19999988956E+02 0.  0.
        -12    1    1    2    0    0 -0.34959723330E+02 -0.58949727881E+01 -0.25033787661E+02  0.43400731378E+02  0.00000000000E+00 0.  1.
         11    1    3    3    0    0  0.91731515536E+01  0.15670869791E+01  0.91314796930E+01  0.13037882983E+02  0.51100000000E-03 0. -1.
        -11    1    3    3    0    0  0.10447688740E+02 -0.23242272371E+01 -0.12749655308E+01  0.10778764754E+02  0.51100000000E-03 0.  1.
        -12    1    3    3    0    0  0.15338883036E+02  0.66521130462E+01  0.17177273499E+02  0.23970620885E+02  0.00000000000E+00 0.  1.
</event>
<event>
 7    1  0.1400974E-009  0.4778727E+02  0.7816164E-02  0.1312668E+00
        -11   -1    0    0    0    0  0.00000000000E+00  0.00000000000E+00  0.45593999997E+02  0.45594000000E+02  0.51100000000E-03 0.  1.
         11   -1    0    0    0    0 -0.00000000000E+00 -0.00000000000E+00 -0.45593999997E+02  0.45594000000E+02  0.51100000000E-03 0. -1.
    9900012    2    1    2    0    0  0.72860780593E+01  0.61418338727E+01 -0.42341633947E+02  0.47787273945E+02  0.20000013225E+02 0.  0.
        -12    1    1    2    0    0 -0.72860780593E+01 -0.61418338727E+01  0.42341633947E+02  0.43400726055E+02  0.00000000000E+00 0.  1.
         11    1    3    3    0    0  0.74356805772E+01  0.22423427051E+01 -0.87629883729E+01  0.11709287422E+02  0.51100000000E-03 0. -1.
        -11    1    3    3    0    0  0.16256331632E+01  0.76308930232E+01 -0.28403139920E+02  0.29455246885E+02  0.51100000000E-03 0.  1.
        -12    1    3    3    0    0 -0.17752356811E+01 -0.37314018555E+01 -0.51755056542E+01  0.66227396376E+01  0.00000000000E+00 0.  1.
</event>
<event>
 7    1  0.1400974E-009  0.4778727E+02  0.7816164E-02  0.1312668E+00
        -11   -1    0    0    0    0  0.00000000000E+00  0.00000000000E+00  0.45593999997E+02  0.45594000000E+02  0.51100000000E-03 0.  1.
         11   -1    0    0    0    0 -0.00000000000E+00 -0.00000000000E+00 -0.45593999997E+02  0.45594000000E+02  0.51100000000E-03 0. -1.
    9900012    2    1    2    0    0  0.34599385885E+02 -0.17208771976E+02 -0.19757626685E+02  0.47787272486E+02  0.20000006572E+02 0.  0.
        -12    1    1    2    0    0 -0.34599385885E+02  0.17208771976E+02  0.19757626685E+02  0.43400727514E+02  0.00000000000E+00 0.  1.
         11    1    3    3    0    0  0.14534014937E+02 -0.29957409441E+01 -0.41460621179E+01  0.15407851419E+02  0.51100000000E-03 0. -1.
        -11    1    3    3    0    0 -0.16787602861E+01  0.34320367130E+00 -0.27070875972E+01  0.32038021752E+01  0.51100000000E-03 0.  1.
        -12    1    3    3    0    0  0.21744131234E+02 -0.14556234703E+02 -0.12904476970E+02  0.29175618892E+02  0.00000000000E+00 0.  1.
</event>
<event>
 7    1  0.1400974E-009  0.4778728E+02  0.7816164E-02  0.1312668E+00
        -11   -1    0    0    0    0  0.00000000000E+00  0.00000000000E+00  0.45593999997E+02  0.45594000000E+02  0.51100000000E-03 0.  1.
         11   -1    0    0    0    0 -0.00000000000E+00 -0.00000000000E+00 -0.45593999997E+02  0.45594000000E+02  0.51100000000E-03 0. -1.
    9900012    2    1    2    0    0  0.10517091657E+02 -0.21452268109E+02 -0.36232766873E+02  0.47787280891E+02  0.20000044895E+02 0.  0.
        -12    1    1    2    0    0 -0.10517091657E+02  0.21452268109E+02  0.36232766873E+02  0.43400719109E+02  0.00000000000E+00 0.  1.
         11    1    3    3    0    0 -0.27885000147E+01 -0.90274151764E+01 -0.15678248872E+02  0.18305120733E+02  0.51100000000E-03 0. -1.
        -11    1    3    3    0    0  0.51645779288E+01  0.27482997968E+00 -0.19426342722E+01  0.55246922879E+01  0.51100000000E-03 0.  1.
        -12    1    3    3    0    0  0.81410137429E+01 -0.12699682912E+02 -0.18611883729E+02  0.23957467870E+02  0.00000000000E+00 0.  1.
</event>
<event>
 7    1  0.1400974E-009  0.4778727E+02  0.7816164E-02  0.1312668E+00
        -11   -1    0    0    0    0  0.00000000000E+00  0.00000000000E+00  0.45593999997E+02  0.45594000000E+02  0.51100000000E-03 0.  1.
         11   -1    0    0    0    0 -0.00000000000E+00 -0.00000000000E+00 -0.45593999997E+02  0.45594000000E+02  0.51100000000E-03 0. -1.
    9900012    2    1    2    0    0  0.24586422408E+01 -0.18465459431E+02 -0.39199555648E+02  0.47787271012E+02  0.19999999852E+02 0.  0.
        -12    1    1    2    0    0 -0.24586422408E+01  0.18465459431E+02  0.39199555648E+02  0.43400728988E+02  0.00000000000E+00 0.  1.
         11    1    3    3    0    0  0.27905243138E+01  0.27853827245E+01 -0.20822190667E+01  0.44588136730E+01  0.51100000000E-03 0.  1.
        -11    1    3    3    0    0 -0.16890463771E+01 -0.50725010748E+01 -0.14758235874E+02  0.15696772636E+02  0.51100000000E-03 0. -1.
        -12    1    3    3    0    0  0.13571643041E+01 -0.16178341081E+02 -0.22359100707E+02  0.27631684703E+02  0.00000000000E+00 0.  1.
</event>
<event>
 7    1  0.1400974E-009  0.4778727E+02  0.7816164E-02  0.1312668E+00
        -11   -1    0    0    0    0  0.00000000000E+00  0.00000000000E+00  0.45593999997E+02  0.45594000000E+02  0.51100000000E-03 0.  1.
         11   -1    0    0    0    0 -0.00000000000E+00 -0.00000000000E+00 -0.45593999997E+02  0.45594000000E+02  0.51100000000E-03 0. -1.
    9900012    2    1    2    0    0 -0.24203555415E+02 -0.15847082215E+02 -0.32352458680E+02  0.47787266226E+02  0.19999978032E+02 0.  0.
        -12    1    1    2    0    0  0.24203555415E+02  0.15847082215E+02  0.32352458680E+02  0.43400733774E+02  0.00000000000E+00 0.  1.
         11    1    3    3    0    0 -0.94819290553E+00 -0.29226841295E+01  0.55937787719E+00  0.31231484399E+01  0.51100000000E-03 0. -1.
        -11    1    3    3    0    0  0.18122547091E+01 -0.19156955540E+01 -0.16606677390E+01  0.31164040474E+01  0.51100000000E-03 0.  1.
         12    1    3    3    0    0 -0.25067617218E+02 -0.11008702531E+02 -0.31251168818E+02  0.41547713739E+02  0.00000000000E+00 0. -1.
</event>
<event>
 7    1  0.1400974E-009  0.4778727E+02  0.7816164E-02  0.1312668E+00
        -11   -1    0    0    0    0  0.00000000000E+00  0.00000000000E+00  0.45593999997E+02  0.45594000000E+02  0.51100000000E-03 0.  1.
         11   -1    0    0    0    0 -0.00000000000E+00 -0.00000000000E+00 -0.45593999997E+02  0.45594000000E+02  0.51100000000E-03 0. -1.
    9900012    2    1    2    0    0 -0.57851941023E+01 -0.39111714587E+02 -0.17900515957E+02  0.47787272354E+02  0.20000005969E+02 0.  0.
        -12    1    1    2    0    0  0.57851941023E+01  0.39111714587E+02  0.17900515957E+02  0.43400727646E+02  0.00000000000E+00 0.  1.
         11    1    3    3    0    0 -0.15234765261E+01 -0.14427525544E+01  0.17702009905E+01  0.27452008063E+01  0.51100000000E-03 0. -1.
        -11    1    3    3    0    0 -0.54983326565E+01 -0.21369267919E+02 -0.18248768924E+02  0.28633805910E+02  0.51100000000E-03 0.  1.
         12    1    3    3    0    0  0.12366150803E+01 -0.16299694113E+02 -0.14219480236E+01  0.16408265637E+02  0.00000000000E+00 0. -1.
</event>
<event>
 7    1  0.1400974E-009  0.4778727E+02  0.7816164E-02  0.1312668E+00
        -11   -1    0    0    0    0  0.00000000000E+00  0.00000000000E+00  0.45593999997E+02  0.45594000000E+02  0.51100000000E-03 0.  1.
         11   -1    0    0    0    0 -0.00000000000E+00 -0.00000000000E+00 -0.45593999997E+02  0.45594000000E+02  0.51100000000E-03 0. -1.
    9900012    2    1    2    0    0  0.36270392032E+02 -0.20744494535E+02 -0.11736593556E+02  0.47787273970E+02  0.20000013338E+02 0.  0.
        -12    1    1    2    0    0 -0.36270392032E+02  0.20744494535E+02  0.11736593556E+02  0.43400726030E+02  0.00000000000E+00 0.  1.
         11    1    3    3    0    0  0.30565692407E+02 -0.20790173237E+02 -0.12452890461E+02  0.39007272869E+02  0.51100000000E-03 0. -1.
        -11    1    3    3    0    0  0.46082577090E+01  0.15072862511E+01 -0.22113447003E+01  0.53289770688E+01  0.51100000000E-03 0.  1.
         12    1    3    3    0    0  0.10964419157E+01 -0.14616075491E+01  0.29276416056E+01  0.34510240325E+01  0.00000000000E+00 0. -1.
</event>
<event>
 7    1  0.1400974E-009  0.4778729E+02  0.7816164E-02  0.1312668E+00
        -11   -1    0    0    0    0  0.00000000000E+00  0.00000000000E+00  0.45593999997E+02  0.45594000000E+02  0.51100000000E-03 0.  1.
         11   -1    0    0    0    0 -0.00000000000E+00 -0.00000000000E+00 -0.45593999997E+02  0.45594000000E+02  0.51100000000E-03 0. -1.
    9900012    2    1    2    0    0  0.13446112566E+02 -0.12879206075E+02 -0.39203946213E+02  0.47787293889E+02  0.20000104158E+02 0.  0.
        -12    1    1    2    0    0 -0.13446112566E+02  0.12879206075E+02  0.39203946213E+02  0.43400706111E+02  0.00000000000E+00 0.  1.
         11    1    3    3    0    0 -0.25348254260E+01 -0.29555074389E+01 -0.81914360181E+01  0.90697292386E+01  0.51100000000E-03 0. -1.
        -11    1    3    3    0    0  0.93048196767E+01  0.15742993862E+01 -0.16703130226E+02  0.19184698262E+02  0.51100000000E-03 0.  1.
         12    1    3    3    0    0  0.66761183152E+01 -0.11497998022E+02 -0.14309379968E+02  0.19532866389E+02  0.00000000000E+00 0. -1.
</event>
<event>
 7    1  0.1400974E-009  0.4778727E+02  0.7816164E-02  0.1312668E+00
        -11   -1    0    0    0    0  0.00000000000E+00  0.00000000000E+00  0.45593999997E+02  0.45594000000E+02  0.51100000000E-03 0.  1.
         11   -1    0    0    0    0 -0.00000000000E+00 -0.00000000000E+00 -0.45593999997E+02  0.45594000000E+02  0.51100000000E-03 0. -1.
    9900012    2    1    2    0    0  0.15678633017E+02 -0.33334142981E+01 -0.40332270072E+02  0.47787271972E+02  0.20000004229E+02 0.  0.
        -12    1    1    2    0    0 -0.15678633017E+02  0.33334142981E+01  0.40332270072E+02  0.43400728028E+02  0.00000000000E+00 0.  1.
         11    1    3    3    0    0 -0.70315915031E-01 -0.86709885680E+00  0.59867520197E+00  0.10560383582E+01  0.51100000000E-03 0. -1.
        -11    1    3    3    0    0  0.46605788756E+01 -0.20659814647E+01 -0.88202814778E+00  0.51737074504E+01  0.51100000000E-03 0.  1.
         12    1    3    3    0    0  0.11088370057E+02 -0.40033397657E+00 -0.40048917127E+02  0.41557526163E+02  0.00000000000E+00 0. -1.
</event>
<event>
 7    1  0.1400974E-009  0.4778727E+02  0.7816164E-02  0.1312668E+00
        -11   -1    0    0    0    0  0.00000000000E+00  0.00000000000E+00  0.45593999997E+02  0.45594000000E+02  0.51100000000E-03 0.  1.
         11   -1    0    0    0    0 -0.00000000000E+00 -0.00000000000E+00 -0.45593999997E+02  0.45594000000E+02  0.51100000000E-03 0. -1.
    9900012    2    1    2    0    0 -0.41242052135E+02 -0.12234900378E+02  0.57466280641E+01  0.47787269756E+02  0.19999994126E+02 0.  0.
        -12    1    1    2    0    0  0.41242052135E+02  0.12234900378E+02 -0.57466280641E+01  0.43400730244E+02  0.00000000000E+00 0.  1.
         11    1    3    3    0    0 -0.20960420472E+02 -0.43359957902E+01  0.49296148572E+01  0.21964543901E+02  0.51100000000E-03 0. -1.
        -11    1    3    3    0    0 -0.12720814437E+02 -0.11749864353E+02  0.25072783530E+00  0.17318813382E+02  0.51100000000E-03 0.  1.
         12    1    3    3    0    0 -0.75608172267E+01  0.38509597644E+01  0.56628537164E+00  0.85039124739E+01  0.00000000000E+00 0. -1.
</event>
<event>
 7    1  0.1400974E-009  0.4778727E+02  0.7816164E-02  0.1312668E+00
        -11   -1    0    0    0    0  0.00000000000E+00  0.00000000000E+00  0.45593999997E+02  0.45594000000E+02  0.51100000000E-03 0.  1.
         11   -1    0    0    0    0 -0.00000000000E+00 -0.00000000000E+00 -0.45593999997E+02  0.45594000000E+02  0.51100000000E-03 0. -1.
    9900012    2    1    2    0    0 -0.24415800585E+02 -0.20997717915E+02  0.29096179015E+02  0.47787272942E+02  0.20000008653E+02 0.  0.
        -12    1    1    2    0    0  0.24415800585E+02  0.20997717915E+02 -0.29096179015E+02  0.43400727058E+02  0.00000000000E+00 0.  1.
         11    1    3    3    0    0 -0.21123672858E+01 -0.64058379088E+01 -0.10387823915E+01  0.68246555944E+01  0.51100000000E-03 0. -1.
        -11    1    3    3    0    0  0.17674354428E+00 -0.16280410451E+01  0.29899515221E+01  0.34090418434E+01  0.51100000000E-03 0.  1.
        -12    1    3    3    0    0 -0.22480176844E+02 -0.12963838961E+02  0.27145009884E+02  0.37553575504E+02  0.00000000000E+00 0.  1.
</event>
<event>
 7    1  0.1400974E-009  0.4778727E+02  0.7816164E-02  0.1312668E+00
        -11   -1    0    0    0    0  0.00000000000E+00  0.00000000000E+00  0.45593999997E+02  0.45594000000E+02  0.51100000000E-03 0.  1.
         11   -1    0    0    0    0 -0.00000000000E+00 -0.00000000000E+00 -0.45593999997E+02  0.45594000000E+02  0.51100000000E-03 0. -1.
    9900012    2    1    2    0    0  0.39896827813E+02  0.15266110448E+02 -0.76688983819E+01  0.47787274198E+02  0.20000014377E+02 0.  0.
        -12    1    1    2    0    0 -0.39896827813E+02 -0.15266110448E+02  0.76688983819E+01  0.43400725802E+02  0.00000000000E+00 0.  1.
         11    1    3    3    0    0  0.23676303045E+02  0.12304452783E+02 -0.51345519182E+01  0.27172237814E+02  0.51100000000E-03 0. -1.
        -11    1    3    3    0    0  0.10284495604E+02 -0.23827220269E+01  0.29075650983E+01  0.10949983979E+02  0.51100000000E-03 0.  1.
         12    1    3    3    0    0  0.59360291643E+01  0.53443796919E+01 -0.54419115619E+01  0.96650524043E+01  0.00000000000E+00 0. -1.
</event>
<event>
 7    1  0.1400974E-009  0.4778727E+02  0.7816164E-02  0.1312668E+00
        -11   -1    0    0    0    0  0.00000000000E+00  0.00000000000E+00  0.45593999997E+02  0.45594000000E+02  0.51100000000E-03 0.  1.
         11   -1    0    0    0    0 -0.00000000000E+00 -0.00000000000E+00 -0.45593999997E+02  0.45594000000E+02  0.51100000000E-03 0. -1.
    9900012    2    1    2    0    0  0.27057109507E+02 -0.26200572047E+02 -0.21565393090E+02  0.47787270403E+02  0.19999997074E+02 0.  0.
        -12    1    1    2    0    0 -0.27057109507E+02  0.26200572047E+02  0.21565393090E+02  0.43400729597E+02  0.00000000000E+00 0.  1.
         11    1    3    3    0    0  0.22416656456E+02 -0.20339503321E+02 -0.11226158380E+02  0.32283564151E+02  0.51100000000E-03 0. -1.
        -11    1    3    3    0    0  0.13230426116E+01 -0.72339325331E+01 -0.44178286112E+01  0.85788945410E+01  0.51100000000E-03 0.  1.
        -12    1    3    3    0    0  0.33174104392E+01  0.13728638072E+01 -0.59214060983E+01  0.69248117112E+01  0.00000000000E+00 0.  1.
</event>
<event>
 7    1  0.1400974E-009  0.4778727E+02  0.7816164E-02  0.1312668E+00
        -11   -1    0    0    0    0  0.00000000000E+00  0.00000000000E+00  0.45593999997E+02  0.45594000000E+02  0.51100000000E-03 0. -1.
         11   -1    0    0    0    0 -0.00000000000E+00 -0.00000000000E+00 -0.45593999997E+02  0.45594000000E+02  0.51100000000E-03 0.  1.
    9900012    2    1    2    0    0 -0.30145886536E+01 -0.17176014259E+01  0.43261824328E+02  0.47787270241E+02  0.19999996339E+02 0.  0.
        -12    1    1    2    0    0  0.30145886536E+01  0.17176014259E+01 -0.43261824328E+02  0.43400729759E+02  0.00000000000E+00 0.  1.
         11    1    3    3    0    0 -0.10074963759E+00  0.24975179090E+01  0.30550454665E+02  0.30652537035E+02  0.51100000000E-03 0. -1.
        -11    1    3    3    0    0 -0.49140662121E+01 -0.49231673155E+01  0.13232875922E+02  0.14949736740E+02  0.51100000000E-03 0.  1.
        -12    1    3    3    0    0  0.20002271960E+01  0.70804798058E+00 -0.52150625976E+00  0.21849964662E+01  0.00000000000E+00 0.  1.
</event>
<event>
 7    1  0.1400974E-009  0.4778728E+02  0.7816164E-02  0.1312668E+00
        -11   -1    0    0    0    0  0.00000000000E+00  0.00000000000E+00  0.45593999997E+02  0.45594000000E+02  0.51100000000E-03 0. -1.
         11   -1    0    0    0    0 -0.00000000000E+00 -0.00000000000E+00 -0.45593999997E+02  0.45594000000E+02  0.51100000000E-03 0.  1.
    9900012    2    1    2    0    0  0.16314506778E+02 -0.35476764418E+02 -0.18943567603E+02  0.47787277673E+02  0.20000030220E+02 0.  0.
        -12    1    1    2    0    0 -0.16314506778E+02  0.35476764418E+02  0.18943567603E+02  0.43400722327E+02  0.00000000000E+00 0.  1.
         11    1    3    3    0    0 -0.71125455976E+00 -0.73629946269E+01 -0.28277666608E+01  0.79193331457E+01  0.51100000000E-03 0. -1.
        -11    1    3    3    0    0  0.17565827640E+02 -0.22256180196E+02 -0.73136923603E+01  0.29281153560E+02  0.51100000000E-03 0.  1.
        -12    1    3    3    0    0 -0.54006630271E+00 -0.58575895957E+01 -0.88021085824E+01  0.10586790967E+02  0.00000000000E+00 0.  1.
</event>
<event>
 7    1  0.1692593E-009  0.4778727E+02  0.7816164E-02  0.1312668E+00
        -11   -1    0    0    0    0  0.00000000000E+00  0.00000000000E+00  0.45593999997E+02  0.45594000000E+02  0.51100000000E-03 0. -1.
         11   -1    0    0    0    0 -0.00000000000E+00 -0.00000000000E+00 -0.45593999997E+02  0.45594000000E+02  0.51100000000E-03 0.  1.
    9900012    2    1    2    0    0  0.30851787736E+02  0.20039514948E+02 -0.23026254742E+02  0.47787269899E+02  0.19999994778E+02 0.  0.
        -12    1    1    2    0    0 -0.30851787736E+02 -0.20039514948E+02  0.23026254742E+02  0.43400730101E+02  0.00000000000E+00 0.  1.
         11    1    3    3    0    0  0.12640017967E+02  0.53459477284E+01 -0.54952370094E+01  0.14783329847E+02  0.51100000000E-03 0. -1.
        -11    1    3    3    0    0  0.10168393381E+02  0.91504820421E+01 -0.18696236846E+02  0.23166286238E+02  0.51100000000E-03 0.  1.
        -12    1    3    3    0    0  0.80433763878E+01  0.55430851771E+01  0.11652191135E+01  0.98376538147E+01  0.00000000000E+00 0.  1.
</event>
<event>
 7    1  0.1400974E-009  0.4778727E+02  0.7816164E-02  0.1312668E+00
        -11   -1    0    0    0    0  0.00000000000E+00  0.00000000000E+00  0.45593999997E+02  0.45594000000E+02  0.51100000000E-03 0.  1.
         11   -1    0    0    0    0 -0.00000000000E+00 -0.00000000000E+00 -0.45593999997E+02  0.45594000000E+02  0.51100000000E-03 0. -1.
    9900012    2    1    2    0    0  0.23804869329E+02  0.31300314156E+02 -0.18364147790E+02  0.47787269660E+02  0.19999993687E+02 0.  0.
        -12    1    1    2    0    0 -0.23804869329E+02 -0.31300314156E+02  0.18364147790E+02  0.43400730340E+02  0.00000000000E+00 0.  1.
         11    1    3    3    0    0  0.42646789493E+01  0.17070666526E+02 -0.61660444060E+01  0.18644442766E+02  0.51100000000E-03 0. -1.
        -11    1    3    3    0    0  0.13213628645E+02  0.13378759276E+02 -0.12775354955E+02  0.22733254853E+02  0.51100000000E-03 0.  1.
        -12    1    3    3    0    0  0.63265617341E+01  0.85088835376E+00  0.57725157055E+00  0.64095720405E+01  0.00000000000E+00 0.  1.
</event>
<event>
 7    1  0.1400974E-009  0.4778727E+02  0.7816164E-02  0.1312668E+00
        -11   -1    0    0    0    0  0.00000000000E+00  0.00000000000E+00  0.45593999997E+02  0.45594000000E+02  0.51100000000E-03 0. -1.
         11   -1    0    0    0    0 -0.00000000000E+00 -0.00000000000E+00 -0.45593999997E+02  0.45594000000E+02  0.51100000000E-03 0.  1.
    9900012    2    1    2    0    0  0.16396177978E+02 -0.39813466003E+02 -0.54476249128E+01  0.47787270229E+02  0.19999996281E+02 0.  0.
        -12    1    1    2    0    0 -0.16396177978E+02  0.39813466003E+02  0.54476249128E+01  0.43400729771E+02  0.00000000000E+00 0.  1.
         11    1    3    3    0    0  0.14739529739E+01 -0.21700862399E+02 -0.93220920413E+01  0.23664348005E+02  0.51100000000E-03 0. -1.
        -11    1    3    3    0    0  0.50163891827E+01 -0.35288779502E+01  0.34288849610E+00  0.61428586832E+01  0.51100000000E-03 0.  1.
         12    1    3    3    0    0  0.99058358216E+01 -0.14583725654E+02  0.35315786324E+01  0.17980063540E+02  0.00000000000E+00 0. -1.
</event>
<event>
 7    1  0.1400974E-009  0.4778727E+02  0.7816164E-02  0.1312668E+00
        -11   -1    0    0    0    0  0.00000000000E+00  0.00000000000E+00  0.45593999997E+02  0.45594000000E+02  0.51100000000E-03 0. -1.
         11   -1    0    0    0    0 -0.00000000000E+00 -0.00000000000E+00 -0.45593999997E+02  0.45594000000E+02  0.51100000000E-03 0.  1.
    9900012    2    1    2    0    0 -0.43377197298E+02  0.14030369121E+01 -0.27133217603E+00  0.47787269831E+02  0.19999994469E+02 0.  0.
        -12    1    1    2    0    0  0.43377197298E+02 -0.14030369121E+01  0.27133217603E+00  0.43400730169E+02  0.00000000000E+00 0.  1.
         11    1    3    3    0    0 -0.94347355956E+01 -0.25127226715E+01  0.34602745092E+01  0.10358644261E+02  0.51100000000E-03 0. -1.
        -11    1    3    3    0    0 -0.28995180359E+02  0.12856861344E+01 -0.83134004012E+01  0.30190828067E+02  0.51100000000E-03 0.  1.
         12    1    3    3    0    0 -0.49472813435E+01  0.26300734492E+01  0.45817937161E+01  0.72377975032E+01  0.00000000000E+00 0. -1.
</event>
<event>
 7    1  0.1400974E-009  0.4778727E+02  0.7816164E-02  0.1312668E+00
        -11   -1    0    0    0    0  0.00000000000E+00  0.00000000000E+00  0.45593999997E+02  0.45594000000E+02  0.51100000000E-03 0.  1.
         11   -1    0    0    0    0 -0.00000000000E+00 -0.00000000000E+00 -0.45593999997E+02  0.45594000000E+02  0.51100000000E-03 0. -1.
    9900012    2    1    2    0    0  0.13994298642E+02  0.33100941456E+02 -0.24333318343E+02  0.47787273032E+02  0.20000009062E+02 0.  0.
        -12    1    1    2    0    0 -0.13994298642E+02 -0.33100941456E+02  0.24333318343E+02  0.43400726968E+02  0.00000000000E+00 0.  1.
         11    1    3    3    0    0  0.10425823958E+01  0.25951775498E+00 -0.15506256639E+01  0.18864696467E+01  0.51100000000E-03 0. -1.
        -11    1    3    3    0    0  0.14516130055E+02  0.34581337462E+02 -0.21582481673E+02  0.43271127185E+02  0.51100000000E-03 0.  1.
        -12    1    3    3    0    0 -0.15644138087E+01 -0.17399137608E+01 -0.12002110055E+01  0.26296762001E+01  0.00000000000E+00 0.  1.
</event>
<event>
 7    1  0.1400974E-009  0.4778728E+02  0.7816164E-02  0.1312668E+00
        -11   -1    0    0    0    0  0.00000000000E+00  0.00000000000E+00  0.45593999997E+02  0.45594000000E+02  0.51100000000E-03 0. -1.
         11   -1    0    0    0    0 -0.00000000000E+00 -0.00000000000E+00 -0.45593999997E+02  0.45594000000E+02  0.51100000000E-03 0.  1.
    9900012    2    1    2    0    0 -0.12624802049E+02  0.32596280335E+02  0.25723913870E+02  0.47787275775E+02  0.20000021569E+02 0.  0.
        -12    1    1    2    0    0  0.12624802049E+02 -0.32596280335E+02 -0.25723913870E+02  0.43400724225E+02  0.00000000000E+00 0.  1.
         11    1    3    3    0    0 -0.50630131793E-01  0.44844484422E+01 -0.48115091358E+00  0.45104708960E+01  0.51100000000E-03 0. -1.
        -11    1    3    3    0    0 -0.14472106109E+02  0.13990020655E+02  0.16629243931E+02  0.26109275883E+02  0.51100000000E-03 0.  1.
        -12    1    3    3    0    0  0.18979341919E+01  0.14121811238E+02  0.95758208526E+01  0.17167528996E+02  0.00000000000E+00 0.  1.
</event>
<event>
 7    1  0.1400974E-009  0.4778727E+02  0.7816164E-02  0.1312668E+00
        -11   -1    0    0    0    0  0.00000000000E+00  0.00000000000E+00  0.45593999997E+02  0.45594000000E+02  0.51100000000E-03 0.  1.
         11   -1    0    0    0    0 -0.00000000000E+00 -0.00000000000E+00 -0.45593999997E+02  0.45594000000E+02  0.51100000000E-03 0. -1.
    9900012    2    1    2    0    0  0.42473395658E+02 -0.80860396582E+01 -0.37749149123E+01  0.47787270067E+02  0.19999995545E+02 0.  0.
        -12    1    1    2    0    0 -0.42473395658E+02  0.80860396582E+01  0.37749149123E+01  0.43400729933E+02  0.00000000000E+00 0.  1.
         11    1    3    3    0    0  0.93080264960E+01 -0.54685322648E+01  0.12503468712E+01  0.10867730671E+02  0.51100000000E-03 0. -1.
        -11    1    3    3    0    0  0.10609852996E+01  0.33769650458E+01 -0.21325009692E+01  0.41324500446E+01  0.51100000000E-03 0.  1.
        -12    1    3    3    0    0  0.32104383863E+02 -0.59944724392E+01 -0.28927608143E+01  0.32787089352E+02  0.00000000000E+00 0.  1.
</event>
<event>
 7    1  0.1400974E-009  0.4778727E+02  0.7816164E-02  0.1312668E+00
        -11   -1    0    0    0    0  0.00000000000E+00  0.00000000000E+00  0.45593999997E+02  0.45594000000E+02  0.51100000000E-03 0.  1.
         11   -1    0    0    0    0 -0.00000000000E+00 -0.00000000000E+00 -0.45593999997E+02  0.45594000000E+02  0.51100000000E-03 0. -1.
    9900012    2    1    2    0    0 -0.90828673317E+01  0.41855196110E+02 -0.70190839701E+01  0.47787268898E+02  0.19999990213E+02 0.  0.
        -12    1    1    2    0    0  0.90828673317E+01 -0.41855196110E+02  0.70190839701E+01  0.43400731102E+02  0.00000000000E+00 0.  1.
         11    1    3    3    0    0  0.75226176572E+00  0.10925371996E+02  0.43403423977E+01  0.11779992504E+02  0.51100000000E-03 0.  1.
        -11    1    3    3    0    0 -0.82818236228E+01  0.28349688277E+02 -0.64234059402E+01  0.30225048752E+02  0.51100000000E-03 0. -1.
        -12    1    3    3    0    0 -0.15533054746E+01  0.25801358375E+01 -0.49360204276E+01  0.57822276416E+01  0.00000000000E+00 0.  1.
</event>
<event>
 7    1  0.1400974E-009  0.4778727E+02  0.7816164E-02  0.1312668E+00
        -11   -1    0    0    0    0  0.00000000000E+00  0.00000000000E+00  0.45593999997E+02  0.45594000000E+02  0.51100000000E-03 0. -1.
         11   -1    0    0    0    0 -0.00000000000E+00 -0.00000000000E+00 -0.45593999997E+02  0.45594000000E+02  0.51100000000E-03 0.  1.
    9900012    2    1    2    0    0  0.35805484435E+02 -0.17202875071E+02  0.17482893214E+02  0.47787272109E+02  0.20000004853E+02 0.  0.
        -12    1    1    2    0    0 -0.35805484435E+02  0.17202875071E+02 -0.17482893214E+02  0.43400727891E+02  0.00000000000E+00 0.  1.
         11    1    3    3    0    0  0.24236890716E+02 -0.13264243912E+02  0.14915911565E+02  0.31398271548E+02  0.51100000000E-03 0. -1.
        -11    1    3    3    0    0  0.10115604964E+02  0.17812620460E+01  0.19569094384E+01  0.10455996035E+02  0.51100000000E-03 0.  1.
        -12    1    3    3    0    0  0.14529887547E+01 -0.57198932052E+01  0.61007221088E+00  0.59330045258E+01  0.00000000000E+00 0.  1.
</event>
<event>
 7    1  0.1668756E-009  0.4778727E+02  0.7816164E-02  0.1312668E+00
        -11   -1    0    0    0    0  0.00000000000E+00  0.00000000000E+00  0.45593999997E+02  0.45594000000E+02  0.51100000000E-03 0.  1.
         11   -1    0    0    0    0 -0.00000000000E+00 -0.00000000000E+00 -0.45593999997E+02  0.45594000000E+02  0.51100000000E-03 0. -1.
    9900012    2    1    2    0    0 -0.12240379691E+02  0.41163288810E+02 -0.62753450722E+01  0.47787271937E+02  0.20000004071E+02 0.  0.
        -12    1    1    2    0    0  0.12240379691E+02 -0.41163288810E+02  0.62753450722E+01  0.43400728063E+02  0.00000000000E+00 0.  1.
         11    1    3    3    0    0 -0.82225307549E+01  0.15940382317E+02  0.20904251642E+01  0.18057565673E+02  0.51100000000E-03 0. -1.
        -11    1    3    3    0    0 -0.38566762470E+01  0.26804375200E+01 -0.51306066336E+01  0.69557042535E+01  0.51100000000E-03 0.  1.
         12    1    3    3    0    0 -0.16117268902E+00  0.22542468973E+02 -0.32351636028E+01  0.22774002010E+02  0.00000000000E+00 0. -1.
</event>
<event>
 7    1  0.1400974E-009  0.4778727E+02  0.7816164E-02  0.1312668E+00
        -11   -1    0    0    0    0  0.00000000000E+00  0.00000000000E+00  0.45593999997E+02  0.45594000000E+02  0.51100000000E-03 0.  1.
         11   -1    0    0    0    0 -0.00000000000E+00 -0.00000000000E+00 -0.45593999997E+02  0.45594000000E+02  0.51100000000E-03 0. -1.
    9900012    2    1    2    0    0 -0.13742679197E+02 -0.21566559635E+02 -0.35066300901E+02  0.47787272069E+02  0.20000004673E+02 0.  0.
        -12    1    1    2    0    0  0.13742679197E+02  0.21566559635E+02  0.35066300901E+02  0.43400727931E+02  0.00000000000E+00 0.  1.
         11    1    3    3    0    0  0.37824404217E+01 -0.41604261485E+01 -0.61705191529E+01  0.83481320161E+01  0.51100000000E-03 0. -1.
        -11    1    3    3    0    0 -0.81291333765E+01 -0.94843531037E+01 -0.69713083622E+01  0.14305065669E+02  0.51100000000E-03 0.  1.
         12    1    3    3    0    0 -0.93959862426E+01 -0.79217803824E+01 -0.21924473386E+02  0.25134074384E+02  0.00000000000E+00 0. -1.
</event>
<event>
 7    1  0.1400974E-009  0.4778727E+02  0.7816164E-02  0.1312668E+00
        -11   -1    0    0    0    0  0.00000000000E+00  0.00000000000E+00  0.45593999997E+02  0.45594000000E+02  0.51100000000E-03 0. -1.
         11   -1    0    0    0    0 -0.00000000000E+00 -0.00000000000E+00 -0.45593999997E+02  0.45594000000E+02  0.51100000000E-03 0.  1.
    9900012    2    1    2    0    0 -0.41019808287E+02  0.10500835935E+02  0.95252847902E+01  0.47787271002E+02  0.19999999808E+02 0.  0.
        -12    1    1    2    0    0  0.41019808287E+02 -0.10500835935E+02 -0.95252847902E+01  0.43400728998E+02  0.00000000000E+00 0.  1.
         11    1    3    3    0    0 -0.17968348462E+02  0.43163672228E+01  0.19558183258E+01  0.18582728488E+02  0.51100000000E-03 0. -1.
        -11    1    3    3    0    0 -0.10464859818E+02  0.74255006885E+01  0.10071059061E+02  0.16311884697E+02  0.51100000000E-03 0.  1.
        -12    1    3    3    0    0 -0.12586600007E+02 -0.12410319766E+01 -0.25015925969E+01  0.12892657818E+02  0.00000000000E+00 0.  1.
</event>
<event>
 7    1  0.1400974E-009  0.4778727E+02  0.7816164E-02  0.1312668E+00
        -11   -1    0    0    0    0  0.00000000000E+00  0.00000000000E+00  0.45593999997E+02  0.45594000000E+02  0.51100000000E-03 0.  1.
         11   -1    0    0    0    0 -0.00000000000E+00 -0.00000000000E+00 -0.45593999997E+02  0.45594000000E+02  0.51100000000E-03 0. -1.
    9900012    2    1    2    0    0  0.18591008070E+02 -0.38736066231E+02  0.61249309026E+01  0.47787272049E+02  0.20000004581E+02 0.  0.
        -12    1    1    2    0    0 -0.18591008070E+02  0.38736066231E+02 -0.61249309026E+01  0.43400727951E+02  0.00000000000E+00 0.  1.
         11    1    3    3    0    0  0.12919050619E+02 -0.28358066256E+02  0.76604736966E+01  0.32089946217E+02  0.51100000000E-03 0. -1.
        -11    1    3    3    0    0  0.53528844544E+01 -0.42440812571E+01  0.35722060446E+01  0.77088425841E+01  0.51100000000E-03 0.  1.
         12    1    3    3    0    0  0.31907299653E+00 -0.61339187173E+01 -0.51077488386E+01  0.79884832482E+01  0.00000000000E+00 0. -1.
</event>
<event>
 7    1  0.1400974E-009  0.4778727E+02  0.7816164E-02  0.1312668E+00
        -11   -1    0    0    0    0  0.00000000000E+00  0.00000000000E+00  0.45593999997E+02  0.45594000000E+02  0.51100000000E-03 0.  1.
         11   -1    0    0    0    0 -0.00000000000E+00 -0.00000000000E+00 -0.45593999997E+02  0.45594000000E+02  0.51100000000E-03 0. -1.
    9900012    2    1    2    0    0  0.11944418582E+02 -0.30489847560E+02 -0.28483734518E+02  0.47787273375E+02  0.20000010626E+02 0.  0.
        -12    1    1    2    0    0 -0.11944418582E+02  0.30489847560E+02  0.28483734518E+02  0.43400726625E+02  0.00000000000E+00 0.  1.
         11    1    3    3    0    0 -0.20203064551E+01 -0.98962049360E+01 -0.98404087287E+00  0.10148145003E+02  0.51100000000E-03 0. -1.
        -11    1    3    3    0    0  0.93864359863E+01 -0.11196927661E+02 -0.11813105353E+02  0.18788981556E+02  0.51100000000E-03 0.  1.
        -12    1    3    3    0    0  0.45782890503E+01 -0.93967149632E+01 -0.15686588292E+02  0.18850146816E+02  0.00000000000E+00 0.  1.
</event>
<event>
 7    1  0.1400974E-009  0.4778727E+02  0.7816164E-02  0.1312668E+00
        -11   -1    0    0    0    0  0.00000000000E+00  0.00000000000E+00  0.45593999997E+02  0.45594000000E+02  0.51100000000E-03 0.  1.
         11   -1    0    0    0    0 -0.00000000000E+00 -0.00000000000E+00 -0.45593999997E+02  0.45594000000E+02  0.51100000000E-03 0. -1.
    9900012    2    1    2    0    0  0.13704684627E+02  0.41165243748E+02 -0.11079534906E+01  0.47787271499E+02  0.20000002071E+02 0.  0.
        -12    1    1    2    0    0 -0.13704684627E+02 -0.41165243748E+02  0.11079534906E+01  0.43400728501E+02  0.00000000000E+00 0.  1.
         11    1    3    3    0    0  0.46864429232E+01  0.14738285151E+02 -0.56928072191E+01  0.16479922656E+02  0.51100000000E-03 0. -1.
        -11    1    3    3    0    0  0.12438196560E+02  0.18050191827E+02  0.31260009894E+01  0.22142494013E+02  0.51100000000E-03 0.  1.
        -12    1    3    3    0    0 -0.34199548565E+01  0.83767667696E+01  0.14588527391E+01  0.91648548296E+01  0.00000000000E+00 0.  1.
</event>
<event>
 7    1  0.1400974E-009  0.4778727E+02  0.7816164E-02  0.1312668E+00
        -11   -1    0    0    0    0  0.00000000000E+00  0.00000000000E+00  0.45593999997E+02  0.45594000000E+02  0.51100000000E-03 0.  1.
         11   -1    0    0    0    0 -0.00000000000E+00 -0.00000000000E+00 -0.45593999997E+02  0.45594000000E+02  0.51100000000E-03 0. -1.
    9900012    2    1    2    0    0 -0.17076287632E+02 -0.35170274130E+02 -0.18843457688E+02  0.47787266374E+02  0.19999978705E+02 0.  0.
        -12    1    1    2    0    0  0.17076287632E+02  0.35170274130E+02  0.18843457688E+02  0.43400733626E+02  0.00000000000E+00 0.  1.
         11    1    3    3    0    0 -0.92037103107E+01 -0.10294540022E+02 -0.84371959793E+01  0.16182463163E+02  0.51100000000E-03 0. -1.
        -11    1    3    3    0    0 -0.28643059167E+00 -0.30057091060E+01  0.34828021845E+01  0.46093644932E+01  0.51100000000E-03 0.  1.
        -12    1    3    3    0    0 -0.75861467301E+01 -0.21870025001E+02 -0.13889063893E+02  0.26995438718E+02  0.00000000000E+00 0.  1.
</event>
<event>
 7    1  0.1400974E-009  0.4778726E+02  0.7816164E-02  0.1312668E+00
        -11   -1    0    0    0    0  0.00000000000E+00  0.00000000000E+00  0.45593999997E+02  0.45594000000E+02  0.51100000000E-03 0. -1.
         11   -1    0    0    0    0 -0.00000000000E+00 -0.00000000000E+00 -0.45593999997E+02  0.45594000000E+02  0.51100000000E-03 0.  1.
    9900012    2    1    2    0    0 -0.77535012272E+01 -0.39867026875E+02 -0.15301229771E+02  0.47787259849E+02  0.19999948954E+02 0.  0.
        -12    1    1    2    0    0  0.77535012272E+01  0.39867026875E+02  0.15301229771E+02  0.43400740151E+02  0.00000000000E+00 0.  1.
         11    1    3    3    0    0  0.19364205808E+01  0.77932860732E+00  0.30039960498E+00  0.21088665030E+01  0.51100000000E-03 0.  1.
        -11    1    3    3    0    0  0.36849246820E+00 -0.18506341898E+02 -0.51764957969E+01  0.19220212958E+02  0.51100000000E-03 0. -1.
        -12    1    3    3    0    0 -0.10058414276E+02 -0.22140013584E+02 -0.10425133579E+02  0.26458180388E+02  0.00000000000E+00 0.  1.
</event>
<event>
 7    1  0.1400974E-009  0.4778727E+02  0.7816164E-02  0.1312668E+00
        -11   -1    0    0    0    0  0.00000000000E+00  0.00000000000E+00  0.45593999997E+02  0.45594000000E+02  0.51100000000E-03 0.  1.
         11   -1    0    0    0    0 -0.00000000000E+00 -0.00000000000E+00 -0.45593999997E+02  0.45594000000E+02  0.51100000000E-03 0. -1.
    9900012    2    1    2    0    0  0.19848616475E+02  0.89154122659E+01 -0.37552250485E+02  0.47787266500E+02  0.19999979278E+02 0.  0.
        -12    1    1    2    0    0 -0.19848616475E+02 -0.89154122659E+01  0.37552250485E+02  0.43400733500E+02  0.00000000000E+00 0.  1.
         11    1    3    3    0    0  0.60798666310E+01  0.99528242279E+01 -0.13319188773E+02  0.17703792763E+02  0.51100000000E-03 0.  1.
        -11    1    3    3    0    0  0.13998169489E+02  0.25391132082E+01 -0.18836811469E+02  0.23605535612E+02  0.51100000000E-03 0. -1.
        -12    1    3    3    0    0 -0.22941964440E+00 -0.35765251701E+01 -0.53962502431E+01  0.64779381251E+01  0.00000000000E+00 0.  1.
</event>
<event>
 7    1  0.1400974E-009  0.4778727E+02  0.7816164E-02  0.1312668E+00
        -11   -1    0    0    0    0  0.00000000000E+00  0.00000000000E+00  0.45593999997E+02  0.45594000000E+02  0.51100000000E-03 0.  1.
         11   -1    0    0    0    0 -0.00000000000E+00 -0.00000000000E+00 -0.45593999997E+02  0.45594000000E+02  0.51100000000E-03 0. -1.
    9900012    2    1    2    0    0  0.14002224270E+02 -0.39971751694E+02 -0.94773348344E+01  0.47787273122E+02  0.20000009473E+02 0.  0.
        -12    1    1    2    0    0 -0.14002224270E+02  0.39971751694E+02  0.94773348344E+01  0.43400726878E+02  0.00000000000E+00 0.  1.
         11    1    3    3    0    0  0.25221897213E+01 -0.82494056446E+01  0.43129755385E+01  0.96444747258E+01  0.51100000000E-03 0. -1.
        -11    1    3    3    0    0  0.27191471260E+01 -0.50953224320E+01 -0.74094380249E+01  0.93944581474E+01  0.51100000000E-03 0.  1.
        -12    1    3    3    0    0  0.87608874232E+01 -0.26627023617E+02 -0.63808723481E+01  0.28748340249E+02  0.00000000000E+00 0.  1.
</event>
<event>
 7    1  0.1400974E-009  0.4778727E+02  0.7816164E-02  0.1312668E+00
        -11   -1    0    0    0    0  0.00000000000E+00  0.00000000000E+00  0.45593999997E+02  0.45594000000E+02  0.51100000000E-03 0.  1.
         11   -1    0    0    0    0 -0.00000000000E+00 -0.00000000000E+00 -0.45593999997E+02  0.45594000000E+02  0.51100000000E-03 0. -1.
    9900012    2    1    2    0    0  0.12049855165E+02  0.36329530611E+02 -0.20459459016E+02  0.47787271122E+02  0.20000000355E+02 0.  0.
        -12    1    1    2    0    0 -0.12049855165E+02 -0.36329530611E+02  0.20459459016E+02  0.43400728878E+02  0.00000000000E+00 0.  1.
         11    1    3    3    0    0  0.12874921893E+02  0.20807378259E+02 -0.10308416297E+02  0.26551347434E+02  0.51100000000E-03 0. -1.
        -11    1    3    3    0    0 -0.14861754174E+00  0.16825340810E+02 -0.79986660871E+01  0.18630427799E+02  0.51100000000E-03 0.  1.
        -12    1    3    3    0    0 -0.67644918690E+00 -0.13031884581E+01 -0.21523766319E+01  0.26054958886E+01  0.00000000000E+00 0.  1.
</event>
<event>
 7    1  0.1400974E-009  0.4778727E+02  0.7816164E-02  0.1312668E+00
        -11   -1    0    0    0    0  0.00000000000E+00  0.00000000000E+00  0.45593999997E+02  0.45594000000E+02  0.51100000000E-03 0.  1.
         11   -1    0    0    0    0 -0.00000000000E+00 -0.00000000000E+00 -0.45593999997E+02  0.45594000000E+02  0.51100000000E-03 0. -1.
    9900012    2    1    2    0    0  0.34286504652E+02  0.18760892978E+02 -0.18870292036E+02  0.47787269268E+02  0.19999991901E+02 0.  0.
        -12    1    1    2    0    0 -0.34286504652E+02 -0.18760892978E+02  0.18870292036E+02  0.43400730732E+02  0.00000000000E+00 0.  1.
         11    1    3    3    0    0  0.26877665746E+02  0.14957604104E+02 -0.10291760782E+02  0.32435461717E+02  0.51100000000E-03 0. -1.
        -11    1    3    3    0    0  0.57728027058E+01 -0.79722394623E+00 -0.86954506734E+01  0.10467649200E+02  0.51100000000E-03 0.  1.
         12    1    3    3    0    0  0.16360361997E+01  0.46005128197E+01  0.11691941985E+00  0.48841583514E+01  0.00000000000E+00 0. -1.
</event>
<event>
 7    1  0.1400974E-009  0.4778727E+02  0.7816164E-02  0.1312668E+00
        -11   -1    0    0    0    0  0.00000000000E+00  0.00000000000E+00  0.45593999997E+02  0.45594000000E+02  0.51100000000E-03 0.  1.
         11   -1    0    0    0    0 -0.00000000000E+00 -0.00000000000E+00 -0.45593999997E+02  0.45594000000E+02  0.51100000000E-03 0. -1.
    9900012    2    1    2    0    0  0.37512624535E+02  0.12365995139E+02 -0.17986335333E+02  0.47787273117E+02  0.20000009448E+02 0.  0.
        -12    1    1    2    0    0 -0.37512624535E+02 -0.12365995139E+02  0.17986335333E+02  0.43400726883E+02  0.00000000000E+00 0.  1.
         11    1    3    3    0    0  0.12248904403E+02  0.42206149350E+01 -0.82437658396E+01  0.15356071274E+02  0.51100000000E-03 0. -1.
        -11    1    3    3    0    0  0.15338399734E+01  0.43455113110E+01  0.27289290687E+01  0.53556687483E+01  0.51100000000E-03 0.  1.
        -12    1    3    3    0    0  0.23729880159E+02  0.37998688935E+01 -0.12471498562E+02  0.27075533094E+02  0.00000000000E+00 0.  1.
</event>
<event>
 7    1  0.1400974E-009  0.4778727E+02  0.7816164E-02  0.1312668E+00
        -11   -1    0    0    0    0  0.00000000000E+00  0.00000000000E+00  0.45593999997E+02  0.45594000000E+02  0.51100000000E-03 0. -1.
         11   -1    0    0    0    0 -0.00000000000E+00 -0.00000000000E+00 -0.45593999997E+02  0.45594000000E+02  0.51100000000E-03 0.  1.
    9900012    2    1    2    0    0  0.11264732990E+02 -0.41877347481E+02 -0.17368870859E+01  0.47787271687E+02  0.20000002930E+02 0.  0.
        -12    1    1    2    0    0 -0.11264732990E+02  0.41877347481E+02  0.17368870859E+01  0.43400728313E+02  0.00000000000E+00 0.  1.
         11    1    3    3    0    0  0.12853153199E+02 -0.25024658576E+02  0.40352367848E+01  0.28420419071E+02  0.51100000000E-03 0. -1.
        -11    1    3    3    0    0 -0.69576870583E+00  0.46825300498E+00 -0.11395584626E+01  0.14149023710E+01  0.51100000000E-03 0.  1.
        -12    1    3    3    0    0 -0.89265150288E+00 -0.17320941909E+02 -0.46325654082E+01  0.17951950245E+02  0.00000000000E+00 0.  1.
</event>
<event>
 7    1  0.1400974E-009  0.4778727E+02  0.7816164E-02  0.1312668E+00
        -11   -1    0    0    0    0  0.00000000000E+00  0.00000000000E+00  0.45593999997E+02  0.45594000000E+02  0.51100000000E-03 0. -1.
         11   -1    0    0    0    0 -0.00000000000E+00 -0.00000000000E+00 -0.45593999997E+02  0.45594000000E+02  0.51100000000E-03 0.  1.
    9900012    2    1    2    0    0  0.26568150356E+02 -0.17301501941E+02  0.29638061093E+02  0.47787271341E+02  0.20000001354E+02 0.  0.
        -12    1    1    2    0    0 -0.26568150356E+02  0.17301501941E+02 -0.29638061093E+02  0.43400728659E+02  0.00000000000E+00 0.  1.
         11    1    3    3    0    0  0.72698658378E+01 -0.66966094915E+01  0.61563884057E+01  0.11644597307E+02  0.51100000000E-03 0. -1.
        -11    1    3    3    0    0  0.59478834358E+01  0.27256291880E+01  0.13016349369E+02  0.14568175005E+02  0.51100000000E-03 0.  1.
        -12    1    3    3    0    0  0.13350401082E+02 -0.13330521638E+02  0.10465323319E+02  0.21574499029E+02  0.00000000000E+00 0.  1.
</event>
<event>
 7    1  0.1400974E-009  0.4778728E+02  0.7816164E-02  0.1312668E+00
        -11   -1    0    0    0    0  0.00000000000E+00  0.00000000000E+00  0.45593999997E+02  0.45594000000E+02  0.51100000000E-03 0.  1.
         11   -1    0    0    0    0 -0.00000000000E+00 -0.00000000000E+00 -0.45593999997E+02  0.45594000000E+02  0.51100000000E-03 0. -1.
    9900012    2    1    2    0    0 -0.34579823878E+02 -0.24334120601E+02 -0.97830909239E+01  0.47787279812E+02  0.20000039974E+02 0.  0.
        -12    1    1    2    0    0  0.34579823878E+02  0.24334120601E+02  0.97830909239E+01  0.43400720188E+02  0.00000000000E+00 0.  1.
         11    1    3    3    0    0 -0.79604257916E+01 -0.84019808527E+01  0.89484156383E+00  0.11608720977E+02  0.51100000000E-03 0.  1.
        -11    1    3    3    0    0 -0.19875210955E+02 -0.31761629671E+01 -0.66562919094E+01  0.21199486880E+02  0.51100000000E-03 0. -1.
         12    1    3    3    0    0 -0.67441871304E+01 -0.12755976781E+02 -0.40216405783E+01  0.14979071955E+02  0.00000000000E+00 0. -1.
</event>
<event>
 7    1  0.1400974E-009  0.4778727E+02  0.7816164E-02  0.1312668E+00
        -11   -1    0    0    0    0  0.00000000000E+00  0.00000000000E+00  0.45593999997E+02  0.45594000000E+02  0.51100000000E-03 0. -1.
         11   -1    0    0    0    0 -0.00000000000E+00 -0.00000000000E+00 -0.45593999997E+02  0.45594000000E+02  0.51100000000E-03 0.  1.
    9900012    2    1    2    0    0 -0.36414510255E+02  0.67097411318E+01  0.22640360819E+02  0.47787272803E+02  0.20000008019E+02 0.  0.
        -12    1    1    2    0    0  0.36414510255E+02 -0.67097411318E+01 -0.22640360819E+02  0.43400727197E+02  0.00000000000E+00 0.  1.
         11    1    3    3    0    0 -0.31532092473E+01  0.41372086110E+01  0.51459201289E+01  0.73170839740E+01  0.51100000000E-03 0. -1.
        -11    1    3    3    0    0 -0.33036609961E+02  0.94567730647E+00  0.19100995002E+02  0.38172764029E+02  0.51100000000E-03 0.  1.
        -12    1    3    3    0    0 -0.22469104675E+00  0.16268552144E+01 -0.16065543117E+01  0.22974247999E+01  0.00000000000E+00 0.  1.
</event>
<event>
 7    1  0.1400974E-009  0.4778727E+02  0.7816164E-02  0.1312668E+00
        -11   -1    0    0    0    0  0.00000000000E+00  0.00000000000E+00  0.45593999997E+02  0.45594000000E+02  0.51100000000E-03 0. -1.
         11   -1    0    0    0    0 -0.00000000000E+00 -0.00000000000E+00 -0.45593999997E+02  0.45594000000E+02  0.51100000000E-03 0.  1.
    9900012    2    1    2    0    0  0.40114219510E+01 -0.39941494505E+02  0.16498755282E+02  0.47787269416E+02  0.19999992576E+02 0.  0.
        -12    1    1    2    0    0 -0.40114219510E+01  0.39941494505E+02 -0.16498755282E+02  0.43400730584E+02  0.00000000000E+00 0.  1.
         11    1    3    3    0    0 -0.77326644532E+00 -0.15247671272E+02  0.12977925810E+00  0.15267817890E+02  0.51100000000E-03 0. -1.
        -11    1    3    3    0    0  0.47104803341E+01 -0.34531538544E+01  0.74887636168E+01  0.94970773025E+01  0.51100000000E-03 0.  1.
         12    1    3    3    0    0  0.74208062257E-01 -0.21240669379E+02  0.88802124068E+01  0.23022374224E+02  0.00000000000E+00 0. -1.
</event>
<event>
 7    1  0.1400974E-009  0.4778725E+02  0.7816164E-02  0.1312668E+00
        -11   -1    0    0    0    0  0.00000000000E+00  0.00000000000E+00  0.45593999997E+02  0.45594000000E+02  0.51100000000E-03 0. -1.
         11   -1    0    0    0    0 -0.00000000000E+00 -0.00000000000E+00 -0.45593999997E+02  0.45594000000E+02  0.51100000000E-03 0.  1.
    9900012    2    1    2    0    0  0.28756939244E+02  0.32417593005E+02  0.24006351645E+01  0.47787251848E+02  0.19999912475E+02 0.  0.
        -12    1    1    2    0    0 -0.28756939244E+02 -0.32417593005E+02 -0.24006351645E+01  0.43400748152E+02  0.00000000000E+00 0.  1.
         11    1    3    3    0    0  0.14161225352E+02  0.80806662766E+01  0.68709810026E+01  0.17693158314E+02  0.51100000000E-03 0. -1.
        -11    1    3    3    0    0  0.31128350973E+01  0.10290778576E+02  0.17952415706E+01  0.10900126540E+02  0.51100000000E-03 0.  1.
        -12    1    3    3    0    0  0.11482878795E+02  0.14046148153E+02 -0.62655874086E+01  0.19193966993E+02  0.00000000000E+00 0.  1.
</event>
<event>
 7    1  0.1400974E-009  0.4778727E+02  0.7816164E-02  0.1312668E+00
        -11   -1    0    0    0    0  0.00000000000E+00  0.00000000000E+00  0.45593999997E+02  0.45594000000E+02  0.51100000000E-03 0.  1.
         11   -1    0    0    0    0 -0.00000000000E+00 -0.00000000000E+00 -0.45593999997E+02  0.45594000000E+02  0.51100000000E-03 0. -1.
    9900012    2    1    2    0    0 -0.26644922581E+02  0.31265652012E+02 -0.14004650658E+02  0.47787272643E+02  0.20000007289E+02 0.  0.
        -12    1    1    2    0    0  0.26644922581E+02 -0.31265652012E+02  0.14004650658E+02  0.43400727357E+02  0.00000000000E+00 0.  1.
         11    1    3    3    0    0 -0.17948151823E+02  0.20019566282E+02 -0.69552097539E+01  0.27772182683E+02  0.51100000000E-03 0. -1.
        -11    1    3    3    0    0 -0.75820713393E+00  0.93207140058E+01 -0.72675395774E+01  0.11843467373E+02  0.51100000000E-03 0.  1.
        -12    1    3    3    0    0 -0.79385636236E+01  0.19253717235E+01  0.21809867356E+00  0.81716225874E+01  0.00000000000E+00 0.  1.
</event>
<event>
 7    1  0.1400974E-009  0.4778727E+02  0.7816164E-02  0.1312668E+00
        -11   -1    0    0    0    0  0.00000000000E+00  0.00000000000E+00  0.45593999997E+02  0.45594000000E+02  0.51100000000E-03 0.  1.
         11   -1    0    0    0    0 -0.00000000000E+00 -0.00000000000E+00 -0.45593999997E+02  0.45594000000E+02  0.51100000000E-03 0. -1.
    9900012    2    1    2    0    0 -0.19665423834E+02  0.32028208255E+02 -0.21704575309E+02  0.47787267196E+02  0.19999982453E+02 0.  0.
        -12    1    1    2    0    0  0.19665423834E+02 -0.32028208255E+02  0.21704575309E+02  0.43400732804E+02  0.00000000000E+00 0.  1.
         11    1    3    3    0    0 -0.85109858532E+00 -0.93144096186E+00  0.15593110452E+01  0.20058420337E+01  0.51100000000E-03 0. -1.
        -11    1    3    3    0    0 -0.13808898417E+02  0.13690015162E+02 -0.10073858079E+02  0.21899424821E+02  0.51100000000E-03 0.  1.
         12    1    3    3    0    0 -0.50054268309E+01  0.19269634056E+02 -0.13190028275E+02  0.23882000341E+02  0.00000000000E+00 0. -1.
</event>
<event>
 7    1  0.1400974E-009  0.4778728E+02  0.7816164E-02  0.1312668E+00
        -11   -1    0    0    0    0  0.00000000000E+00  0.00000000000E+00  0.45593999997E+02  0.45594000000E+02  0.51100000000E-03 0. -1.
         11   -1    0    0    0    0 -0.00000000000E+00 -0.00000000000E+00 -0.45593999997E+02  0.45594000000E+02  0.51100000000E-03 0.  1.
    9900012    2    1    2    0    0  0.22060458437E+02 -0.18870129275E+02  0.32262629441E+02  0.47787275769E+02  0.20000021542E+02 0.  0.
        -12    1    1    2    0    0 -0.22060458437E+02  0.18870129275E+02 -0.32262629441E+02  0.43400724231E+02  0.00000000000E+00 0.  1.
         11    1    3    3    0    0  0.27651714161E+01 -0.63634444601E+01  0.17241719529E+01  0.71492914013E+01  0.51100000000E-03 0. -1.
        -11    1    3    3    0    0  0.52824535696E+01 -0.64664686195E+01  0.24997070132E+01  0.87159662421E+01  0.51100000000E-03 0.  1.
         12    1    3    3    0    0  0.14012833452E+02 -0.60402161957E+01  0.28038750475E+02  0.31922018126E+02  0.00000000000E+00 0. -1.
</event>
<event>
 7    1  0.1400974E-009  0.4778727E+02  0.7816164E-02  0.1312668E+00
        -11   -1    0    0    0    0  0.00000000000E+00  0.00000000000E+00  0.45593999997E+02  0.45594000000E+02  0.51100000000E-03 0.  1.
         11   -1    0    0    0    0 -0.00000000000E+00 -0.00000000000E+00 -0.45593999997E+02  0.45594000000E+02  0.51100000000E-03 0. -1.
    9900012    2    1    2    0    0 -0.50172733911E+01 -0.42675445632E+02  0.61038204429E+01  0.47787270557E+02  0.19999997779E+02 0.  0.
        -12    1    1    2    0    0  0.50172733911E+01  0.42675445632E+02 -0.61038204429E+01  0.43400729443E+02  0.00000000000E+00 0.  1.
         11    1    3    3    0    0  0.16411660581E+01 -0.16037360699E+02 -0.40363851824E+01  0.16618747541E+02  0.51100000000E-03 0. -1.
        -11    1    3    3    0    0 -0.43585446782E+01 -0.26075888734E+02  0.72135353417E+01  0.27404086874E+02  0.51100000000E-03 0.  1.
        -12    1    3    3    0    0 -0.22998947709E+01 -0.56219619803E+00  0.29266702836E+01  0.37644361426E+01  0.00000000000E+00 0.  1.
</event>
<event>
 7    1  0.1400974E-009  0.4778728E+02  0.7816164E-02  0.1312668E+00
        -11   -1    0    0    0    0  0.00000000000E+00  0.00000000000E+00  0.45593999997E+02  0.45594000000E+02  0.51100000000E-03 0.  1.
         11   -1    0    0    0    0 -0.00000000000E+00 -0.00000000000E+00 -0.45593999997E+02  0.45594000000E+02  0.51100000000E-03 0. -1.
    9900012    2    1    2    0    0 -0.43332955628E+01 -0.22833232641E+02 -0.36653628533E+02  0.47787280560E+02  0.20000043383E+02 0.  0.
        -12    1    1    2    0    0  0.43332955628E+01  0.22833232641E+02  0.36653628533E+02  0.43400719440E+02  0.00000000000E+00 0.  1.
         11    1    3    3    0    0 -0.39205119392E+01  0.14059807062E+01 -0.11263992486E+02  0.12009359791E+02  0.51100000000E-03 0. -1.
        -11    1    3    3    0    0  0.11500903639E+01 -0.67006793083E+01 -0.33826150324E+01  0.75936747202E+01  0.51100000000E-03 0.  1.
         12    1    3    3    0    0 -0.15628739874E+01 -0.17538534039E+02 -0.22007021015E+02  0.28184246048E+02  0.00000000000E+00 0. -1.
</event>
<event>
 7    1  0.1400974E-009  0.4778727E+02  0.7816164E-02  0.1312668E+00
        -11   -1    0    0    0    0  0.00000000000E+00  0.00000000000E+00  0.45593999997E+02  0.45594000000E+02  0.51100000000E-03 0. -1.
         11   -1    0    0    0    0 -0.00000000000E+00 -0.00000000000E+00 -0.45593999997E+02  0.45594000000E+02  0.51100000000E-03 0.  1.
    9900012    2    1    2    0    0 -0.38658366642E+02  0.19389991798E+02 -0.36306862394E+01  0.47787274477E+02  0.20000015651E+02 0.  0.
        -12    1    1    2    0    0  0.38658366642E+02 -0.19389991798E+02  0.36306862394E+01  0.43400725523E+02  0.00000000000E+00 0.  1.
         11    1    3    3    0    0 -0.68532734462E+01  0.19493465481E+01  0.31352010876E+01  0.77843943255E+01  0.51100000000E-03 0. -1.
        -11    1    3    3    0    0 -0.79897238812E+01  0.10418582791E+02 -0.75801077816E+01  0.15160494362E+02  0.51100000000E-03 0.  1.
         12    1    3    3    0    0 -0.23815369315E+02  0.70220624584E+01  0.81422045459E+00  0.24842385789E+02  0.00000000000E+00 0. -1.
</event>
<event>
 7    1  0.1400974E-009  0.4778727E+02  0.7816164E-02  0.1312668E+00
        -11   -1    0    0    0    0  0.00000000000E+00  0.00000000000E+00  0.45593999997E+02  0.45594000000E+02  0.51100000000E-03 0.  1.
         11   -1    0    0    0    0 -0.00000000000E+00 -0.00000000000E+00 -0.45593999997E+02  0.45594000000E+02  0.51100000000E-03 0. -1.
    9900012    2    1    2    0    0 -0.16310437372E+02 -0.13524952067E+02 -0.37877024928E+02  0.47787265985E+02  0.19999976931E+02 0.  0.
        -12    1    1    2    0    0  0.16310437372E+02  0.13524952067E+02  0.37877024928E+02  0.43400734015E+02  0.00000000000E+00 0.  1.
         11    1    3    3    0    0 -0.48257547692E+01 -0.61284513686E+00 -0.12558515051E+02  0.13467731391E+02  0.51100000000E-03 0. -1.
        -11    1    3    3    0    0 -0.37712012925E+01  0.32855457702E+01 -0.76458698649E+01  0.91365254035E+01  0.51100000000E-03 0.  1.
        -12    1    3    3    0    0 -0.77134813105E+01 -0.16197652700E+02 -0.17672640012E+02  0.25183009191E+02  0.00000000000E+00 0.  1.
</event>
<event>
 7    1  0.1400974E-009  0.4778727E+02  0.7816164E-02  0.1312668E+00
        -11   -1    0    0    0    0  0.00000000000E+00  0.00000000000E+00  0.45593999997E+02  0.45594000000E+02  0.51100000000E-03 0.  1.
         11   -1    0    0    0    0 -0.00000000000E+00 -0.00000000000E+00 -0.45593999997E+02  0.45594000000E+02  0.51100000000E-03 0. -1.
    9900012    2    1    2    0    0 -0.31753978552E+02  0.12978425540E+02 -0.26586999115E+02  0.47787271834E+02  0.20000003601E+02 0.  0.
        -12    1    1    2    0    0  0.31753978552E+02 -0.12978425540E+02  0.26586999115E+02  0.43400728166E+02  0.00000000000E+00 0.  1.
         11    1    3    3    0    0 -0.83058236417E+01  0.11346644221E+02 -0.11131986642E+02  0.17934719632E+02  0.51100000000E-03 0. -1.
        -11    1    3    3    0    0 -0.70805686357E+01 -0.12264587094E+01 -0.37471745812E-01  0.71861016945E+01  0.51100000000E-03 0.  1.
         12    1    3    3    0    0 -0.16367586275E+02  0.28582400285E+01 -0.15417540727E+02  0.22666450507E+02  0.00000000000E+00 0. -1.
</event>
<event>
 7    1  0.1400974E-009  0.4778727E+02  0.7816164E-02  0.1312668E+00
        -11   -1    0    0    0    0  0.00000000000E+00  0.00000000000E+00  0.45593999997E+02  0.45594000000E+02  0.51100000000E-03 0.  1.
         11   -1    0    0    0    0 -0.00000000000E+00 -0.00000000000E+00 -0.45593999997E+02  0.45594000000E+02  0.51100000000E-03 0. -1.
    9900012    2    1    2    0    0  0.22314839963E+00 -0.37946825575E+02 -0.21062104521E+02  0.47787267134E+02  0.19999982172E+02 0.  0.
        -12    1    1    2    0    0 -0.22314839963E+00  0.37946825575E+02  0.21062104521E+02  0.43400732866E+02  0.00000000000E+00 0.  1.
         11    1    3    3    0    0  0.19043183797E+01  0.24442192920E+00 -0.58744832837E+01  0.61802689814E+01  0.51100000000E-03 0. -1.
        -11    1    3    3    0    0 -0.49414299527E+00 -0.11127641447E+00 -0.66164289249E+00  0.83326545500E+00  0.51100000000E-03 0.  1.
         12    1    3    3    0    0 -0.11870269848E+01 -0.38079971090E+02 -0.14525978345E+02  0.40773732698E+02  0.00000000000E+00 0. -1.
</event>
<event>
 7    1  0.1400974E-009  0.4778733E+02  0.7816164E-02  0.1312668E+00
        -11   -1    0    0    0    0  0.00000000000E+00  0.00000000000E+00  0.45593999997E+02  0.45594000000E+02  0.51100000000E-03 0.  1.
         11   -1    0    0    0    0 -0.00000000000E+00 -0.00000000000E+00 -0.45593999997E+02  0.45594000000E+02  0.51100000000E-03 0. -1.
    9900012    2    1    2    0    0 -0.27738278391E+02 -0.17283558601E+02 -0.28556695195E+02  0.47787328041E+02  0.20000259870E+02 0.  0.
        -12    1    1    2    0    0  0.27738278391E+02  0.17283558601E+02  0.28556695195E+02  0.43400671959E+02  0.00000000000E+00 0.  1.
         11    1    3    3    0    0 -0.20816920783E+02 -0.13585072217E+02 -0.27452704838E+02  0.37034435074E+02  0.51100000000E-03 0. -1.
        -11    1    3    3    0    0 -0.24041406416E+01 -0.39082562861E+01 -0.33716691176E+01  0.56940769509E+01  0.51100000000E-03 0.  1.
        -12    1    3    3    0    0 -0.45172169658E+01  0.20976990215E+00  0.22676787607E+01  0.50588160165E+01  0.00000000000E+00 0.  1.
</event>
<event>
 7    1  0.1901287E-009  0.4778727E+02  0.7816164E-02  0.1312668E+00
        -11   -1    0    0    0    0  0.00000000000E+00  0.00000000000E+00  0.45593999997E+02  0.45594000000E+02  0.51100000000E-03 0. -1.
         11   -1    0    0    0    0 -0.00000000000E+00 -0.00000000000E+00 -0.45593999997E+02  0.45594000000E+02  0.51100000000E-03 0.  1.
    9900012    2    1    2    0    0 -0.31333682891E+02  0.53271195438E+01  0.29554108839E+02  0.47787271487E+02  0.20000002018E+02 0.  0.
        -12    1    1    2    0    0  0.31333682891E+02 -0.53271195438E+01 -0.29554108839E+02  0.43400728513E+02  0.00000000000E+00 0.  1.
         11    1    3    3    0    0 -0.21060759548E+02 -0.48927035715E+01  0.13562629861E+02  0.25523304449E+02  0.51100000000E-03 0. -1.
        -11    1    3    3    0    0  0.37895453358E+00  0.19998845005E+01  0.21509407823E+01  0.29613664184E+01  0.51100000000E-03 0.  1.
         12    1    3    3    0    0 -0.10651877877E+02  0.82199386147E+01  0.13840538196E+02  0.19302600620E+02  0.00000000000E+00 0. -1.
</event>
<event>
 7    1  0.1400974E-009  0.4778727E+02  0.7816164E-02  0.1312668E+00
        -11   -1    0    0    0    0  0.00000000000E+00  0.00000000000E+00  0.45593999997E+02  0.45594000000E+02  0.51100000000E-03 0. -1.
         11   -1    0    0    0    0 -0.00000000000E+00 -0.00000000000E+00 -0.45593999997E+02  0.45594000000E+02  0.51100000000E-03 0.  1.
    9900012    2    1    2    0    0 -0.40782722722E+02 -0.12121054417E+02 -0.85716259239E+01  0.47787271852E+02  0.20000003684E+02 0.  0.
        -12    1    1    2    0    0  0.40782722722E+02  0.12121054417E+02  0.85716259239E+01  0.43400728148E+02  0.00000000000E+00 0.  1.
         11    1    3    3    0    0 -0.16029363812E+02 -0.23396034862E+01  0.18277383786E+01  0.16301989957E+02  0.51100000000E-03 0. -1.
        -11    1    3    3    0    0 -0.24160143924E+02 -0.12300954323E+02 -0.98015768401E+01  0.28828751976E+02  0.51100000000E-03 0.  1.
         12    1    3    3    0    0 -0.59321498490E+00  0.25195033925E+01 -0.59778746242E+00  0.26565299196E+01  0.00000000000E+00 0. -1.
</event>
<event>
 7    1  0.1400974E-009  0.4778727E+02  0.7816164E-02  0.1312668E+00
        -11   -1    0    0    0    0  0.00000000000E+00  0.00000000000E+00  0.45593999997E+02  0.45594000000E+02  0.51100000000E-03 0.  1.
         11   -1    0    0    0    0 -0.00000000000E+00 -0.00000000000E+00 -0.45593999997E+02  0.45594000000E+02  0.51100000000E-03 0. -1.
    9900012    2    1    2    0    0  0.25211667373E+02 -0.85177961003E+01 -0.34284720873E+02  0.47787272962E+02  0.20000008742E+02 0.  0.
        -12    1    1    2    0    0 -0.25211667373E+02  0.85177961003E+01  0.34284720873E+02  0.43400727038E+02  0.00000000000E+00 0.  1.
         11    1    3    3    0    0  0.77176122326E+01  0.61800501448E+00 -0.58528201596E+01  0.97056155319E+01  0.51100000000E-03 0. -1.
        -11    1    3    3    0    0  0.27305261754E+01  0.42837180951E+01 -0.35922769612E+01  0.62217736973E+01  0.51100000000E-03 0.  1.
        -12    1    3    3    0    0  0.14763528965E+02 -0.13419519210E+02 -0.24839623752E+02  0.31859883733E+02  0.00000000000E+00 0.  1.
</event>
<event>
 7    1  0.1400974E-009  0.4778727E+02  0.7816164E-02  0.1312668E+00
        -11   -1    0    0    0    0  0.00000000000E+00  0.00000000000E+00  0.45593999997E+02  0.45594000000E+02  0.51100000000E-03 0.  1.
         11   -1    0    0    0    0 -0.00000000000E+00 -0.00000000000E+00 -0.45593999997E+02  0.45594000000E+02  0.51100000000E-03 0. -1.
    9900012    2    1    2    0    0  0.18412169570E+02 -0.18216196496E+02 -0.34825065270E+02  0.47787274498E+02  0.20000015745E+02 0.  0.
        -12    1    1    2    0    0 -0.18412169570E+02  0.18216196496E+02  0.34825065270E+02  0.43400725502E+02  0.00000000000E+00 0.  1.
         11    1    3    3    0    0  0.14896966000E+02 -0.81048922989E+01 -0.22584049662E+02  0.28242665855E+02  0.51100000000E-03 0. -1.
        -11    1    3    3    0    0  0.43221120778E+01 -0.43998001907E+01 -0.17424276887E+00  0.61700287953E+01  0.51100000000E-03 0.  1.
         12    1    3    3    0    0 -0.80690850768E+00 -0.57115040065E+01 -0.12066772839E+02  0.13374579847E+02  0.00000000000E+00 0. -1.
</event>
<event>
 7    1  0.1400974E-009  0.4778727E+02  0.7816164E-02  0.1312668E+00
        -11   -1    0    0    0    0  0.00000000000E+00  0.00000000000E+00  0.45593999997E+02  0.45594000000E+02  0.51100000000E-03 0.  1.
         11   -1    0    0    0    0 -0.00000000000E+00 -0.00000000000E+00 -0.45593999997E+02  0.45594000000E+02  0.51100000000E-03 0. -1.
    9900012    2    1    2    0    0  0.22600803455E+02  0.25370711080E+02 -0.27002847449E+02  0.47787273417E+02  0.20000010819E+02 0.  0.
        -12    1    1    2    0    0 -0.22600803455E+02 -0.25370711080E+02  0.27002847449E+02  0.43400726583E+02  0.00000000000E+00 0.  1.
         11    1    3    3    0    0  0.95914799552E+01  0.13645117771E+02 -0.25127055683E+02  0.30158823821E+02  0.51100000000E-03 0. -1.
        -11    1    3    3    0    0  0.35384955561E+01  0.28240704903E+01 -0.32771967411E+00  0.45391326683E+01  0.51100000000E-03 0.  1.
         12    1    3    3    0    0  0.94708279434E+01  0.89015228189E+01 -0.15480720919E+01  0.13089316928E+02  0.00000000000E+00 0. -1.
</event>
<event>
 7    1  0.1400974E-009  0.4778727E+02  0.7816164E-02  0.1312668E+00
        -11   -1    0    0    0    0  0.00000000000E+00  0.00000000000E+00  0.45593999997E+02  0.45594000000E+02  0.51100000000E-03 0. -1.
         11   -1    0    0    0    0 -0.00000000000E+00 -0.00000000000E+00 -0.45593999997E+02  0.45594000000E+02  0.51100000000E-03 0.  1.
    9900012    2    1    2    0    0  0.27550252435E+02  0.30514946921E+02  0.13908444614E+02  0.47787271591E+02  0.20000002493E+02 0.  0.
        -12    1    1    2    0    0 -0.27550252435E+02 -0.30514946921E+02 -0.13908444614E+02  0.43400728409E+02  0.00000000000E+00 0.  1.
         11    1    3    3    0    0  0.47121893617E+01  0.12616964790E+02  0.52873600761E+01  0.14468887516E+02  0.51100000000E-03 0. -1.
        -11    1    3    3    0    0  0.49463791063E+01  0.46415625797E+00 -0.29604337211E+01  0.57832754882E+01  0.51100000000E-03 0.  1.
         12    1    3    3    0    0  0.17891683967E+02  0.17433825873E+02  0.11581518259E+02  0.27535108587E+02  0.00000000000E+00 0. -1.
</event>
<event>
 7    1  0.1400974E-009  0.4778727E+02  0.7816164E-02  0.1312668E+00
        -11   -1    0    0    0    0  0.00000000000E+00  0.00000000000E+00  0.45593999997E+02  0.45594000000E+02  0.51100000000E-03 0. -1.
         11   -1    0    0    0    0 -0.00000000000E+00 -0.00000000000E+00 -0.45593999997E+02  0.45594000000E+02  0.51100000000E-03 0.  1.
    9900012    2    1    2    0    0  0.14101765160E+02 -0.10180357302E+02  0.39763347527E+02  0.47787271182E+02  0.20000000626E+02 0.  0.
        -12    1    1    2    0    0 -0.14101765160E+02  0.10180357302E+02 -0.39763347527E+02  0.43400728818E+02  0.00000000000E+00 0.  1.
         11    1    3    3    0    0 -0.18877462754E+01  0.22022346282E+01  0.10573517162E+02  0.10964154723E+02  0.51100000000E-03 0. -1.
        -11    1    3    3    0    0  0.11268433237E+02 -0.64201737323E+01  0.24941399108E+02  0.28111734349E+02  0.51100000000E-03 0.  1.
        -12    1    3    3    0    0  0.47210781984E+01 -0.59624181975E+01  0.42484312569E+01  0.87113821097E+01  0.00000000000E+00 0.  1.
</event>
<event>
 7    1  0.1400974E-009  0.4778728E+02  0.7816164E-02  0.1312668E+00
        -11   -1    0    0    0    0  0.00000000000E+00  0.00000000000E+00  0.45593999997E+02  0.45594000000E+02  0.51100000000E-03 0. -1.
         11   -1    0    0    0    0 -0.00000000000E+00 -0.00000000000E+00 -0.45593999997E+02  0.45594000000E+02  0.51100000000E-03 0.  1.
    9900012    2    1    2    0    0  0.27282884827E+02  0.32210086625E+02  0.10088447428E+02  0.47787282767E+02  0.20000053446E+02 0.  0.
        -12    1    1    2    0    0 -0.27282884827E+02 -0.32210086625E+02 -0.10088447428E+02  0.43400717233E+02  0.00000000000E+00 0.  1.
         11    1    3    3    0    0  0.48983024181E+01  0.10788553055E+02 -0.11505709841E+01  0.11904203352E+02  0.51100000000E-03 0. -1.
        -11    1    3    3    0    0  0.16602705983E+02  0.19391932183E+02  0.31305562253E+01  0.25719589077E+02  0.51100000000E-03 0.  1.
        -12    1    3    3    0    0  0.57818764257E+01  0.20296013865E+01  0.81084621872E+01  0.10163490337E+02  0.00000000000E+00 0.  1.
</event>
<event>
 7    1  0.1400974E-009  0.4778727E+02  0.7816164E-02  0.1312668E+00
        -11   -1    0    0    0    0  0.00000000000E+00  0.00000000000E+00  0.45593999997E+02  0.45594000000E+02  0.51100000000E-03 0.  1.
         11   -1    0    0    0    0 -0.00000000000E+00 -0.00000000000E+00 -0.45593999997E+02  0.45594000000E+02  0.51100000000E-03 0. -1.
    9900012    2    1    2    0    0 -0.25809572275E+02 -0.30199411679E+02 -0.17478123640E+02  0.47787270827E+02  0.19999999010E+02 0.  0.
        -12    1    1    2    0    0  0.25809572275E+02  0.30199411679E+02  0.17478123640E+02  0.43400729173E+02  0.00000000000E+00 0.  1.
         11    1    3    3    0    0 -0.12173811184E+02 -0.14799378313E+02 -0.12004587592E+02  0.22612682298E+02  0.51100000000E-03 0. -1.
        -11    1    3    3    0    0 -0.11249609600E+02 -0.26248272755E+01 -0.31363339127E+01  0.11969963453E+02  0.51100000000E-03 0.  1.
        -12    1    3    3    0    0 -0.23861514903E+01 -0.12775206090E+02 -0.23372021347E+01  0.13204625076E+02  0.00000000000E+00 0.  1.
</event>
<event>
 7    1  0.1400974E-009  0.4778727E+02  0.7816164E-02  0.1312668E+00
        -11   -1    0    0    0    0  0.00000000000E+00  0.00000000000E+00  0.45593999997E+02  0.45594000000E+02  0.51100000000E-03 0.  1.
         11   -1    0    0    0    0 -0.00000000000E+00 -0.00000000000E+00 -0.45593999997E+02  0.45594000000E+02  0.51100000000E-03 0. -1.
    9900012    2    1    2    0    0 -0.14568171770E+02  0.33323983679E+02 -0.23683408781E+02  0.47787269955E+02  0.19999995035E+02 0.  0.
        -12    1    1    2    0    0  0.14568171770E+02 -0.33323983679E+02  0.23683408781E+02  0.43400730045E+02  0.00000000000E+00 0.  1.
         11    1    3    3    0    0  0.85156347364E+00  0.29376279882E+01 -0.75564297815E+00  0.31505261653E+01  0.51100000000E-03 0. -1.
        -11    1    3    3    0    0  0.22131655844E+01  0.10563756514E+02 -0.11434855049E+02  0.15724088649E+02  0.51100000000E-03 0.  1.
         12    1    3    3    0    0 -0.17632900828E+02  0.19822599177E+02 -0.11492910754E+02  0.28912655141E+02  0.00000000000E+00 0. -1.
</event>
<event>
 7    1  0.1400974E-009  0.4778727E+02  0.7816164E-02  0.1312668E+00
        -11   -1    0    0    0    0  0.00000000000E+00  0.00000000000E+00  0.45593999997E+02  0.45594000000E+02  0.51100000000E-03 0.  1.
         11   -1    0    0    0    0 -0.00000000000E+00 -0.00000000000E+00 -0.45593999997E+02  0.45594000000E+02  0.51100000000E-03 0. -1.
    9900012    2    1    2    0    0  0.39961013421E+02  0.15191323402E+02 -0.74809381414E+01  0.47787270331E+02  0.19999996748E+02 0.  0.
        -12    1    1    2    0    0 -0.39961013421E+02 -0.15191323402E+02  0.74809381414E+01  0.43400729669E+02  0.00000000000E+00 0.  1.
         11    1    3    3    0    0  0.70745721384E+01  0.61464683383E+01  0.22259065804E+00  0.93743368212E+01  0.51100000000E-03 0.  1.
        -11    1    3    3    0    0  0.14566836047E+02 -0.60231617635E+00 -0.98539952315E+01  0.17597065650E+02  0.51100000000E-03 0. -1.
         12    1    3    3    0    0  0.18319605235E+02  0.96471712397E+01  0.21504664320E+01  0.20815867860E+02  0.00000000000E+00 0. -1.
</event>
<event>
 7    1  0.1400974E-009  0.4778727E+02  0.7816164E-02  0.1312668E+00
        -11   -1    0    0    0    0  0.00000000000E+00  0.00000000000E+00  0.45593999997E+02  0.45594000000E+02  0.51100000000E-03 0. -1.
         11   -1    0    0    0    0 -0.00000000000E+00 -0.00000000000E+00 -0.45593999997E+02  0.45594000000E+02  0.51100000000E-03 0.  1.
    9900012    2    1    2    0    0  0.18109633676E+02  0.10320404998E+02  0.38067753393E+02  0.47787269135E+02  0.19999991296E+02 0.  0.
        -12    1    1    2    0    0 -0.18109633676E+02 -0.10320404998E+02 -0.38067753393E+02  0.43400730865E+02  0.00000000000E+00 0.  1.
         11    1    3    3    0    0  0.20173838376E+00  0.29000382402E+00 -0.28376105214E+00  0.45312381229E+00  0.51100000000E-03 0. -1.
        -11    1    3    3    0    0  0.90971375721E+01  0.13122468570E+02  0.13934629931E+02  0.21192711128E+02  0.51100000000E-03 0.  1.
         12    1    3    3    0    0  0.88107577198E+01 -0.30920673967E+01  0.24416884514E+02  0.26141434195E+02  0.00000000000E+00 0. -1.
</event>
<event>
 7    1  0.1400974E-009  0.4778727E+02  0.7816164E-02  0.1312668E+00
        -11   -1    0    0    0    0  0.00000000000E+00  0.00000000000E+00  0.45593999997E+02  0.45594000000E+02  0.51100000000E-03 0. -1.
         11   -1    0    0    0    0 -0.00000000000E+00 -0.00000000000E+00 -0.45593999997E+02  0.45594000000E+02  0.51100000000E-03 0.  1.
    9900012    2    1    2    0    0  0.21130193583E+02 -0.37435976760E+02  0.59737562970E+01  0.47787271883E+02  0.20000003823E+02 0.  0.
        -12    1    1    2    0    0 -0.21130193583E+02  0.37435976760E+02 -0.59737562970E+01  0.43400728117E+02  0.00000000000E+00 0.  1.
         11    1    3    3    0    0  0.10625887120E+02 -0.56377172660E+01  0.32999479698E+01  0.12473291062E+02  0.51100000000E-03 0. -1.
        -11    1    3    3    0    0  0.25115260247E+01 -0.38829239608E+00  0.13460595660E+01  0.28758321533E+01  0.51100000000E-03 0.  1.
        -12    1    3    3    0    0  0.79927804381E+01 -0.31409967098E+02  0.13277487612E+01  0.32438148667E+02  0.00000000000E+00 0.  1.
</event>
<event>
 7    1  0.1400974E-009  0.4778727E+02  0.7816164E-02  0.1312668E+00
        -11   -1    0    0    0    0  0.00000000000E+00  0.00000000000E+00  0.45593999997E+02  0.45594000000E+02  0.51100000000E-03 0.  1.
         11   -1    0    0    0    0 -0.00000000000E+00 -0.00000000000E+00 -0.45593999997E+02  0.45594000000E+02  0.51100000000E-03 0. -1.
    9900012    2    1    2    0    0  0.12544815066E+02  0.63697715538E-01 -0.41548131957E+02  0.47787266002E+02  0.19999977009E+02 0.  0.
        -12    1    1    2    0    0 -0.12544815066E+02 -0.63697715538E-01  0.41548131957E+02  0.43400733998E+02  0.00000000000E+00 0.  1.
         11    1    3    3    0    0 -0.20000517455E+01  0.32481261080E+01 -0.19942071931E+02  0.20303614539E+02  0.51100000000E-03 0. -1.
        -11    1    3    3    0    0  0.53423691300E+01 -0.38820573282E+01 -0.14164417590E+02  0.15628243758E+02  0.51100000000E-03 0.  1.
        -12    1    3    3    0    0  0.92024976810E+01  0.69762893574E+00 -0.74416424367E+01  0.11855407705E+02  0.00000000000E+00 0.  1.
</event>
<event>
 7    1  0.1400974E-009  0.4778727E+02  0.7816164E-02  0.1312668E+00
        -11   -1    0    0    0    0  0.00000000000E+00  0.00000000000E+00  0.45593999997E+02  0.45594000000E+02  0.51100000000E-03 0.  1.
         11   -1    0    0    0    0 -0.00000000000E+00 -0.00000000000E+00 -0.45593999997E+02  0.45594000000E+02  0.51100000000E-03 0. -1.
    9900012    2    1    2    0    0 -0.89870859606E+01  0.39470627171E+02 -0.15650076494E+02  0.47787273997E+02  0.20000013462E+02 0.  0.
        -12    1    1    2    0    0  0.89870859606E+01 -0.39470627171E+02  0.15650076494E+02  0.43400726003E+02  0.00000000000E+00 0.  1.
         11    1    3    3    0    0 -0.46449870980E+01  0.31563929761E+01 -0.13408528444E+01  0.57737863116E+01  0.51100000000E-03 0. -1.
        -11    1    3    3    0    0  0.84216034247E+00  0.24051462962E+01  0.27104219848E+01  0.37202621339E+01  0.51100000000E-03 0.  1.
         12    1    3    3    0    0 -0.51842592051E+01  0.33909087899E+02 -0.17019645635E+02  0.38293225552E+02  0.00000000000E+00 0. -1.
</event>
<event>
 7    1  0.1400974E-009  0.4778727E+02  0.7816164E-02  0.1312668E+00
        -11   -1    0    0    0    0  0.00000000000E+00  0.00000000000E+00  0.45593999997E+02  0.45594000000E+02  0.51100000000E-03 0.  1.
         11   -1    0    0    0    0 -0.00000000000E+00 -0.00000000000E+00 -0.45593999997E+02  0.45594000000E+02  0.51100000000E-03 0. -1.
    9900012    2    1    2    0    0  0.32760302487E+00 -0.43175964922E+02 -0.43991289234E+01  0.47787267219E+02  0.19999982557E+02 0.  0.
        -12    1    1    2    0    0 -0.32760302487E+00  0.43175964922E+02  0.43991289234E+01  0.43400732781E+02  0.00000000000E+00 0.  1.
         11    1    3    3    0    0  0.17885335402E+01 -0.12631568203E+02 -0.35613439472E+01  0.13245321380E+02  0.51100000000E-03 0. -1.
        -11    1    3    3    0    0  0.62281076334E+00  0.50604059933E+00  0.30737806371E+01  0.31768062580E+01  0.51100000000E-03 0.  1.
        -12    1    3    3    0    0 -0.20837412786E+01 -0.31050437319E+02 -0.39115656133E+01  0.31365139581E+02  0.00000000000E+00 0.  1.
</event>
<event>
 7    1  0.1400974E-009  0.4778727E+02  0.7816164E-02  0.1312668E+00
        -11   -1    0    0    0    0  0.00000000000E+00  0.00000000000E+00  0.45593999997E+02  0.45594000000E+02  0.51100000000E-03 0. -1.
         11   -1    0    0    0    0 -0.00000000000E+00 -0.00000000000E+00 -0.45593999997E+02  0.45594000000E+02  0.51100000000E-03 0.  1.
    9900012    2    1    2    0    0  0.11580197579E+02  0.68573352911E+01  0.41261353599E+02  0.47787270466E+02  0.19999997362E+02 0.  0.
        -12    1    1    2    0    0 -0.11580197579E+02 -0.68573352911E+01 -0.41261353599E+02  0.43400729534E+02  0.00000000000E+00 0.  1.
         11    1    3    3    0    0  0.13326936258E+01 -0.15896239608E+01  0.12230977646E+02  0.12405635456E+02  0.51100000000E-03 0. -1.
        -11    1    3    3    0    0  0.72153565849E+01  0.12845462879E+02  0.23112759455E+02  0.27409249116E+02  0.51100000000E-03 0.  1.
        -12    1    3    3    0    0  0.30321473684E+01 -0.43985036268E+01  0.59176164982E+01  0.79723858937E+01  0.00000000000E+00 0.  1.
</event>
<event>
 7    1  0.1400974E-009  0.4778727E+02  0.7816164E-02  0.1312668E+00
        -11   -1    0    0    0    0  0.00000000000E+00  0.00000000000E+00  0.45593999997E+02  0.45594000000E+02  0.51100000000E-03 0. -1.
         11   -1    0    0    0    0 -0.00000000000E+00 -0.00000000000E+00 -0.45593999997E+02  0.45594000000E+02  0.51100000000E-03 0.  1.
    9900012    2    1    2    0    0  0.24321463088E+02 -0.98492804550E+01  0.34569948287E+02  0.47787271702E+02  0.20000002999E+02 0.  0.
        -12    1    1    2    0    0 -0.24321463088E+02  0.98492804550E+01 -0.34569948287E+02  0.43400728298E+02  0.00000000000E+00 0.  1.
         11    1    3    3    0    0 -0.13730787584E+01 -0.24720221240E+01  0.18576846013E+01  0.33833756808E+01  0.51100000000E-03 0. -1.
        -11    1    3    3    0    0  0.16294216433E+01 -0.39893736722E+01  0.95345166163E+00  0.44135232547E+01  0.51100000000E-03 0.  1.
         12    1    3    3    0    0  0.24065120203E+02 -0.33878846588E+01  0.31758812024E+02  0.39990372767E+02  0.00000000000E+00 0. -1.
</event>
<event>
 7    1  0.1400974E-009  0.4778726E+02  0.7816164E-02  0.1312668E+00
        -11   -1    0    0    0    0  0.00000000000E+00  0.00000000000E+00  0.45593999997E+02  0.45594000000E+02  0.51100000000E-03 0.  1.
         11   -1    0    0    0    0 -0.00000000000E+00 -0.00000000000E+00 -0.45593999997E+02  0.45594000000E+02  0.51100000000E-03 0. -1.
    9900012    2    1    2    0    0 -0.13861671207E+02 -0.40969273815E+02 -0.36050668496E+01  0.47787264608E+02  0.19999970653E+02 0.  0.
        -12    1    1    2    0    0  0.13861671207E+02  0.40969273815E+02  0.36050668496E+01  0.43400735392E+02  0.00000000000E+00 0.  1.
         11    1    3    3    0    0 -0.60770825418E+01 -0.35081526505E+02 -0.82332762971E+01  0.36543553097E+02  0.51100000000E-03 0. -1.
        -11    1    3    3    0    0 -0.94782562568E+00 -0.88582934773E+00  0.19820472146E+01  0.23688770487E+01  0.51100000000E-03 0.  1.
         12    1    3    3    0    0 -0.68367630395E+01 -0.50019179629E+01  0.26461622329E+01  0.88748344620E+01  0.00000000000E+00 0. -1.
</event>
<event>
 7    1  0.1400974E-009  0.4778727E+02  0.7816164E-02  0.1312668E+00
        -11   -1    0    0    0    0  0.00000000000E+00  0.00000000000E+00  0.45593999997E+02  0.45594000000E+02  0.51100000000E-03 0. -1.
         11   -1    0    0    0    0 -0.00000000000E+00 -0.00000000000E+00 -0.45593999997E+02  0.45594000000E+02  0.51100000000E-03 0.  1.
    9900012    2    1    2    0    0  0.87649856220E+01 -0.41911452408E+02  0.70871954826E+01  0.47787272406E+02  0.20000006209E+02 0.  0.
        -12    1    1    2    0    0 -0.87649856220E+01  0.41911452408E+02 -0.70871954826E+01  0.43400727594E+02  0.00000000000E+00 0.  1.
         11    1    3    3    0    0  0.52580853532E+01 -0.32399511502E+02  0.96818425252E+01  0.34221541200E+02  0.51100000000E-03 0. -1.
        -11    1    3    3    0    0  0.26060854003E+01 -0.10903149834E+02 -0.34116398810E+01  0.11717919796E+02  0.51100000000E-03 0.  1.
        -12    1    3    3    0    0  0.90081486847E+00  0.13912089282E+01  0.81699283842E+00  0.18478114101E+01  0.00000000000E+00 0.  1.
</event>
<event>
 7    1  0.1400974E-009  0.4778727E+02  0.7816164E-02  0.1312668E+00
        -11   -1    0    0    0    0  0.00000000000E+00  0.00000000000E+00  0.45593999997E+02  0.45594000000E+02  0.51100000000E-03 0. -1.
         11   -1    0    0    0    0 -0.00000000000E+00 -0.00000000000E+00 -0.45593999997E+02  0.45594000000E+02  0.51100000000E-03 0.  1.
    9900012    2    1    2    0    0 -0.34900982851E+02  0.24866838141E+02  0.68691290591E+01  0.47787272159E+02  0.20000005082E+02 0.  0.
        -12    1    1    2    0    0  0.34900982851E+02 -0.24866838141E+02 -0.68691290591E+01  0.43400727841E+02  0.00000000000E+00 0.  1.
         11    1    3    3    0    0 -0.22945034155E+02  0.74663531977E+01  0.69707387404E+01  0.25115975420E+02  0.51100000000E-03 0. -1.
        -11    1    3    3    0    0 -0.40263065816E+01  0.87298332099E+01  0.37309349573E+01  0.10312177679E+02  0.51100000000E-03 0.  1.
        -12    1    3    3    0    0 -0.79296421144E+01  0.86706517332E+01 -0.38325446386E+01  0.12359119060E+02  0.00000000000E+00 0.  1.
</event>
<event>
 7    1  0.1400974E-009  0.4778727E+02  0.7816164E-02  0.1312668E+00
        -11   -1    0    0    0    0  0.00000000000E+00  0.00000000000E+00  0.45593999997E+02  0.45594000000E+02  0.51100000000E-03 0.  1.
         11   -1    0    0    0    0 -0.00000000000E+00 -0.00000000000E+00 -0.45593999997E+02  0.45594000000E+02  0.51100000000E-03 0. -1.
    9900012    2    1    2    0    0 -0.14300246651E+02  0.22709501027E+02 -0.34108723503E+02  0.47787268322E+02  0.19999987586E+02 0.  0.
        -12    1    1    2    0    0  0.14300246651E+02 -0.22709501027E+02  0.34108723503E+02  0.43400731678E+02  0.00000000000E+00 0.  1.
         11    1    3    3    0    0 -0.82436096688E+01  0.21885550009E+02 -0.33141623631E+02  0.40562317695E+02  0.51100000000E-03 0. -1.
        -11    1    3    3    0    0 -0.31881294787E+00 -0.49166163672E+00 -0.11980766389E+01  0.13337018987E+01  0.51100000000E-03 0.  1.
         12    1    3    3    0    0 -0.57378240347E+01  0.13156126546E+01  0.23097676698E+00  0.58912487282E+01  0.00000000000E+00 0. -1.
</event>
<event>
 7    1  0.1400974E-009  0.4778732E+02  0.7816164E-02  0.1312668E+00
        -11   -1    0    0    0    0  0.00000000000E+00  0.00000000000E+00  0.45593999997E+02  0.45594000000E+02  0.51100000000E-03 0.  1.
         11   -1    0    0    0    0 -0.00000000000E+00 -0.00000000000E+00 -0.45593999997E+02  0.45594000000E+02  0.51100000000E-03 0. -1.
    9900012    2    1    2    0    0 -0.75898225952E+01 -0.39491791449E+02 -0.16322130931E+02  0.47787320777E+02  0.20000226751E+02 0.  0.
        -12    1    1    2    0    0  0.75898225952E+01  0.39491791449E+02  0.16322130931E+02  0.43400679223E+02  0.00000000000E+00 0.  1.
         11    1    3    3    0    0 -0.31688323721E+01 -0.15497300391E+01 -0.21226013492E+01  0.41168675647E+01  0.51100000000E-03 0.  1.
        -11    1    3    3    0    0 -0.21676732815E+01 -0.52383792840E+00 -0.43872408400E+01  0.49214932774E+01  0.51100000000E-03 0. -1.
         12    1    3    3    0    0 -0.22533169416E+01 -0.37418223481E+02 -0.98122887421E+01  0.38748959935E+02  0.00000000000E+00 0. -1.
</event>
<event>
 7    1  0.1400974E-009  0.4778727E+02  0.7816164E-02  0.1312668E+00
        -11   -1    0    0    0    0  0.00000000000E+00  0.00000000000E+00  0.45593999997E+02  0.45594000000E+02  0.51100000000E-03 0. -1.
         11   -1    0    0    0    0 -0.00000000000E+00 -0.00000000000E+00 -0.45593999997E+02  0.45594000000E+02  0.51100000000E-03 0.  1.
    9900012    2    1    2    0    0  0.98128784857E+01  0.23075763364E+02  0.35423719098E+02  0.47787270585E+02  0.19999997905E+02 0.  0.
        -12    1    1    2    0    0 -0.98128784857E+01 -0.23075763364E+02 -0.35423719098E+02  0.43400729415E+02  0.00000000000E+00 0.  1.
         11    1    3    3    0    0  0.81115960976E+01  0.17101503395E+02  0.11412890581E+02  0.22102341082E+02  0.51100000000E-03 0. -1.
        -11    1    3    3    0    0 -0.19407749460E+01 -0.86067532789E-01  0.37066257373E+01  0.41848643501E+01  0.51100000000E-03 0.  1.
         12    1    3    3    0    0  0.36420573341E+01  0.60603275014E+01  0.20304202780E+02  0.21500065153E+02  0.00000000000E+00 0. -1.
</event>
<event>
 7    1  0.1400974E-009  0.4778727E+02  0.7816164E-02  0.1312668E+00
        -11   -1    0    0    0    0  0.00000000000E+00  0.00000000000E+00  0.45593999997E+02  0.45594000000E+02  0.51100000000E-03 0.  1.
         11   -1    0    0    0    0 -0.00000000000E+00 -0.00000000000E+00 -0.45593999997E+02  0.45594000000E+02  0.51100000000E-03 0. -1.
    9900012    2    1    2    0    0 -0.54094389321E+01  0.25704791851E+02 -0.34548878163E+02  0.47787270328E+02  0.19999996736E+02 0.  0.
        -12    1    1    2    0    0  0.54094389321E+01 -0.25704791851E+02  0.34548878163E+02  0.43400729672E+02  0.00000000000E+00 0.  1.
         11    1    3    3    0    0 -0.92689193060E+01  0.20393103312E+02 -0.28460738647E+02  0.36218851064E+02  0.51100000000E-03 0.  1.
        -11    1    3    3    0    0  0.21274660676E+01  0.70593402175E+01 -0.44331205635E+01  0.86030781913E+01  0.51100000000E-03 0. -1.
        -12    1    3    3    0    0  0.17320143063E+01 -0.17476516783E+01 -0.16550189529E+01  0.29653410732E+01  0.00000000000E+00 0.  1.
</event>
<event>
 7    1  0.1400974E-009  0.4778727E+02  0.7816164E-02  0.1312668E+00
        -11   -1    0    0    0    0  0.00000000000E+00  0.00000000000E+00  0.45593999997E+02  0.45594000000E+02  0.51100000000E-03 0. -1.
         11   -1    0    0    0    0 -0.00000000000E+00 -0.00000000000E+00 -0.45593999997E+02  0.45594000000E+02  0.51100000000E-03 0.  1.
    9900012    2    1    2    0    0 -0.24091935197E+02  0.35729908661E+02 -0.51551340123E+01  0.47787272804E+02  0.20000008024E+02 0.  0.
        -12    1    1    2    0    0  0.24091935197E+02 -0.35729908661E+02  0.51551340123E+01  0.43400727196E+02  0.00000000000E+00 0.  1.
         11    1    3    3    0    0 -0.13899570663E+02  0.30392531498E+02 -0.95100002266E+01  0.34746857988E+02  0.51100000000E-03 0. -1.
        -11    1    3    3    0    0 -0.81804331316E+00 -0.57096121531E+00 -0.26939473581E+00  0.10333273230E+01  0.51100000000E-03 0.  1.
         12    1    3    3    0    0 -0.93743212205E+01  0.59083383784E+01  0.46242609500E+01  0.12007087493E+02  0.00000000000E+00 0. -1.
</event>
<event>
 7    1  0.1400974E-009  0.4778727E+02  0.7816164E-02  0.1312668E+00
        -11   -1    0    0    0    0  0.00000000000E+00  0.00000000000E+00  0.45593999997E+02  0.45594000000E+02  0.51100000000E-03 0.  1.
         11   -1    0    0    0    0 -0.00000000000E+00 -0.00000000000E+00 -0.45593999997E+02  0.45594000000E+02  0.51100000000E-03 0. -1.
    9900012    2    1    2    0    0  0.34161719476E+01  0.30335088053E+02 -0.30850210542E+02  0.47787270877E+02  0.19999999236E+02 0.  0.
        -12    1    1    2    0    0 -0.34161719476E+01 -0.30335088053E+02  0.30850210542E+02  0.43400729123E+02  0.00000000000E+00 0.  1.
         11    1    3    3    0    0  0.14742431671E+01  0.30487734949E+02 -0.23507002213E+02  0.38526024043E+02  0.51100000000E-03 0. -1.
        -11    1    3    3    0    0 -0.97276423061E+00 -0.30416394613E+00  0.31414652318E+00  0.10665243802E+01  0.51100000000E-03 0.  1.
         12    1    3    3    0    0  0.29146930111E+01  0.15151704998E+00 -0.76573548523E+01  0.81947224540E+01  0.00000000000E+00 0. -1.
</event>
<event>
 7    1  0.1400974E-009  0.4778727E+02  0.7816164E-02  0.1312668E+00
        -11   -1    0    0    0    0  0.00000000000E+00  0.00000000000E+00  0.45593999997E+02  0.45594000000E+02  0.51100000000E-03 0. -1.
         11   -1    0    0    0    0 -0.00000000000E+00 -0.00000000000E+00 -0.45593999997E+02  0.45594000000E+02  0.51100000000E-03 0.  1.
    9900012    2    1    2    0    0 -0.21086957430E+02  0.25697980751E+02  0.27903001298E+02  0.47787268788E+02  0.19999989711E+02 0.  0.
        -12    1    1    2    0    0  0.21086957430E+02 -0.25697980751E+02 -0.27903001298E+02  0.43400731212E+02  0.00000000000E+00 0.  1.
         11    1    3    3    0    0 -0.31402741370E+01  0.85326965600E+01  0.21019999404E+01  0.93320220880E+01  0.51100000000E-03 0. -1.
        -11    1    3    3    0    0 -0.10390860490E+02  0.10701602705E+01  0.69776165040E+01  0.12561940816E+02  0.51100000000E-03 0.  1.
         12    1    3    3    0    0 -0.75558228025E+01  0.16095123920E+02  0.18823384854E+02  0.25893305883E+02  0.00000000000E+00 0. -1.
</event>
<event>
 7    1  0.1400974E-009  0.4778727E+02  0.7816164E-02  0.1312668E+00
        -11   -1    0    0    0    0  0.00000000000E+00  0.00000000000E+00  0.45593999997E+02  0.45594000000E+02  0.51100000000E-03 0.  1.
         11   -1    0    0    0    0 -0.00000000000E+00 -0.00000000000E+00 -0.45593999997E+02  0.45594000000E+02  0.51100000000E-03 0. -1.
    9900012    2    1    2    0    0 -0.30344449849E+02  0.30629156706E+02  0.49691447832E+01  0.47787271007E+02  0.19999999831E+02 0.  0.
        -12    1    1    2    0    0  0.30344449849E+02 -0.30629156706E+02 -0.49691447832E+01  0.43400728993E+02  0.00000000000E+00 0.  1.
         11    1    3    3    0    0 -0.11397058289E+02  0.39722491529E+01  0.29890329376E+01  0.12434066878E+02  0.51100000000E-03 0. -1.
        -11    1    3    3    0    0 -0.84704209960E+01  0.10762768039E+02 -0.56879365557E+01  0.14830301084E+02  0.51100000000E-03 0.  1.
        -12    1    3    3    0    0 -0.10476970565E+02  0.15894139515E+02  0.76680484013E+01  0.20522903045E+02  0.00000000000E+00 0.  1.
</event>
<event>
 7    1  0.1400974E-009  0.4778727E+02  0.7816164E-02  0.1312668E+00
        -11   -1    0    0    0    0  0.00000000000E+00  0.00000000000E+00  0.45593999997E+02  0.45594000000E+02  0.51100000000E-03 0. -1.
         11   -1    0    0    0    0 -0.00000000000E+00 -0.00000000000E+00 -0.45593999997E+02  0.45594000000E+02  0.51100000000E-03 0.  1.
    9900012    2    1    2    0    0 -0.40951779914E+02  0.49803905207E+00 -0.14364082842E+02  0.47787271931E+02  0.20000004041E+02 0.  0.
        -12    1    1    2    0    0  0.40951779914E+02 -0.49803905207E+00  0.14364082842E+02  0.43400728069E+02  0.00000000000E+00 0.  1.
         11    1    3    3    0    0 -0.52598555882E+01 -0.31490815728E+01  0.40372627182E+01  0.73404554408E+01  0.51100000000E-03 0. -1.
        -11    1    3    3    0    0 -0.83469279222E+01  0.54235214816E+00 -0.57976609871E+01  0.10177338786E+02  0.51100000000E-03 0.  1.
         12    1    3    3    0    0 -0.27344996404E+02  0.31047684767E+01 -0.12603684573E+02  0.30269477704E+02  0.00000000000E+00 0. -1.
</event>
<event>
 7    1  0.1400974E-009  0.4778725E+02  0.7816164E-02  0.1312668E+00
        -11   -1    0    0    0    0  0.00000000000E+00  0.00000000000E+00  0.45593999997E+02  0.45594000000E+02  0.51100000000E-03 0.  1.
         11   -1    0    0    0    0 -0.00000000000E+00 -0.00000000000E+00 -0.45593999997E+02  0.45594000000E+02  0.51100000000E-03 0. -1.
    9900012    2    1    2    0    0  0.37886802183E+02 -0.13738228198E+02  0.16108263389E+02  0.47787252966E+02  0.19999917574E+02 0.  0.
        -12    1    1    2    0    0 -0.37886802183E+02  0.13738228198E+02 -0.16108263389E+02  0.43400747034E+02  0.00000000000E+00 0.  1.
         11    1    3    3    0    0  0.21000425791E+02 -0.85277526480E+01  0.25939350315E+01  0.22813788547E+02  0.51100000000E-03 0. -1.
        -11    1    3    3    0    0  0.86603754322E+01 -0.84598431312E+01  0.86524854357E+01  0.14880744367E+02  0.51100000000E-03 0.  1.
         12    1    3    3    0    0  0.82260009596E+01  0.32493675817E+01  0.48618429216E+01  0.10092720053E+02  0.00000000000E+00 0. -1.
</event>
<event>
 7    1  0.1400974E-009  0.4778727E+02  0.7816164E-02  0.1312668E+00
        -11   -1    0    0    0    0  0.00000000000E+00  0.00000000000E+00  0.45593999997E+02  0.45594000000E+02  0.51100000000E-03 0. -1.
         11   -1    0    0    0    0 -0.00000000000E+00 -0.00000000000E+00 -0.45593999997E+02  0.45594000000E+02  0.51100000000E-03 0.  1.
    9900012    2    1    2    0    0  0.20276240210E+02 -0.12111549048E+02  0.36411643018E+02  0.47787270920E+02  0.19999999432E+02 0.  0.
        -12    1    1    2    0    0 -0.20276240210E+02  0.12111549048E+02 -0.36411643018E+02  0.43400729080E+02  0.00000000000E+00 0.  1.
         11    1    3    3    0    0  0.10031937676E+02 -0.12510437776E+02  0.28382117078E+02  0.32599009141E+02  0.51100000000E-03 0. -1.
        -11    1    3    3    0    0  0.17177079777E+00  0.23398013288E+01  0.28670517303E+01  0.37046135225E+01  0.51100000000E-03 0.  1.
         12    1    3    3    0    0  0.10072531737E+02 -0.19409126001E+01  0.51624742103E+01  0.11483648257E+02  0.00000000000E+00 0. -1.
</event>
<event>
 7    1  0.1400974E-009  0.4778728E+02  0.7816164E-02  0.1312668E+00
        -11   -1    0    0    0    0  0.00000000000E+00  0.00000000000E+00  0.45593999997E+02  0.45594000000E+02  0.51100000000E-03 0.  1.
         11   -1    0    0    0    0 -0.00000000000E+00 -0.00000000000E+00 -0.45593999997E+02  0.45594000000E+02  0.51100000000E-03 0. -1.
    9900012    2    1    2    0    0  0.23197553628E+02  0.14915978375E+02 -0.33511338277E+02  0.47787277675E+02  0.20000030230E+02 0.  0.
        -12    1    1    2    0    0 -0.23197553628E+02 -0.14915978375E+02  0.33511338277E+02  0.43400722325E+02  0.00000000000E+00 0.  1.
         11    1    3    3    0    0 -0.15415970739E+01  0.70160908541E+01 -0.10846020194E+02  0.13009158570E+02  0.51100000000E-03 0. -1.
        -11    1    3    3    0    0  0.84142220734E+01  0.40710939231E+01 -0.58268640160E+01  0.11014775683E+02  0.51100000000E-03 0.  1.
        -12    1    3    3    0    0  0.16324928629E+02  0.38287935982E+01 -0.16838454068E+02  0.23763343421E+02  0.00000000000E+00 0.  1.
</event>
<event>
 7    1  0.1400974E-009  0.4778727E+02  0.7816164E-02  0.1312668E+00
        -11   -1    0    0    0    0  0.00000000000E+00  0.00000000000E+00  0.45593999997E+02  0.45594000000E+02  0.51100000000E-03 0.  1.
         11   -1    0    0    0    0 -0.00000000000E+00 -0.00000000000E+00 -0.45593999997E+02  0.45594000000E+02  0.51100000000E-03 0. -1.
    9900012    2    1    2    0    0 -0.14563774498E+02 -0.28266123759E+02 -0.29538889486E+02  0.47787271065E+02  0.20000000095E+02 0.  0.
        -12    1    1    2    0    0  0.14563774498E+02  0.28266123759E+02  0.29538889486E+02  0.43400728935E+02  0.00000000000E+00 0.  1.
         11    1    3    3    0    0 -0.57425158330E+01 -0.24275165933E+02 -0.16110013250E+02  0.29694994466E+02  0.51100000000E-03 0. -1.
        -11    1    3    3    0    0  0.71249356946E+00  0.94880111371E+00 -0.25207213989E+01  0.27860199698E+01  0.51100000000E-03 0.  1.
        -12    1    3    3    0    0 -0.95337522343E+01 -0.49397589393E+01 -0.10908154838E+02  0.15306256629E+02  0.00000000000E+00 0.  1.
</event>
<event>
 7    1  0.1400974E-009  0.4778727E+02  0.7816164E-02  0.1312668E+00
        -11   -1    0    0    0    0  0.00000000000E+00  0.00000000000E+00  0.45593999997E+02  0.45594000000E+02  0.51100000000E-03 0. -1.
         11   -1    0    0    0    0 -0.00000000000E+00 -0.00000000000E+00 -0.45593999997E+02  0.45594000000E+02  0.51100000000E-03 0.  1.
    9900012    2    1    2    0    0 -0.13278570153E+01 -0.20930398849E+02  0.37997082556E+02  0.47787273244E+02  0.20000010027E+02 0.  0.
        -12    1    1    2    0    0  0.13278570153E+01  0.20930398849E+02 -0.37997082556E+02  0.43400726756E+02  0.00000000000E+00 0.  1.
         11    1    3    3    0    0 -0.49683193887E+01 -0.28009688144E+01  0.89921496857E+01  0.10648398005E+02  0.51100000000E-03 0. -1.
        -11    1    3    3    0    0 -0.38366234609E+01 -0.31786999116E+01  0.19789489811E+01  0.53609749150E+01  0.51100000000E-03 0.  1.
         12    1    3    3    0    0  0.74770858343E+01 -0.14950730123E+02  0.27025983889E+02  0.31777900323E+02  0.00000000000E+00 0. -1.
</event>
<event>
 7    1  0.1400974E-009  0.4778727E+02  0.7816164E-02  0.1312668E+00
        -11   -1    0    0    0    0  0.00000000000E+00  0.00000000000E+00  0.45593999997E+02  0.45594000000E+02  0.51100000000E-03 0.  1.
         11   -1    0    0    0    0 -0.00000000000E+00 -0.00000000000E+00 -0.45593999997E+02  0.45594000000E+02  0.51100000000E-03 0. -1.
    9900012    2    1    2    0    0 -0.41382595856E+02  0.52346746910E+01 -0.11987595973E+02  0.47787268253E+02  0.19999987275E+02 0.  0.
        -12    1    1    2    0    0  0.41382595856E+02 -0.52346746910E+01  0.11987595973E+02  0.43400731747E+02  0.00000000000E+00 0.  1.
         11    1    3    3    0    0 -0.20533527702E+02 -0.53449939139E+01 -0.96496036613E+01  0.23309001929E+02  0.51100000000E-03 0. -1.
        -11    1    3    3    0    0 -0.74398732386E+01  0.41681911455E+00  0.24665807898E+00  0.74556215334E+01  0.51100000000E-03 0.  1.
        -12    1    3    3    0    0 -0.13409194915E+02  0.10162849490E+02 -0.25846503912E+01  0.17022644791E+02  0.00000000000E+00 0.  1.
</event>
<event>
 7    1  0.2397905E-009  0.4778727E+02  0.7816164E-02  0.1312668E+00
        -11   -1    0    0    0    0  0.00000000000E+00  0.00000000000E+00  0.45593999997E+02  0.45594000000E+02  0.51100000000E-03 0. -1.
         11   -1    0    0    0    0 -0.00000000000E+00 -0.00000000000E+00 -0.45593999997E+02  0.45594000000E+02  0.51100000000E-03 0.  1.
    9900012    2    1    2    0    0 -0.23246905559E+02 -0.45848746056E+01  0.36361842958E+02  0.47787270553E+02  0.19999997759E+02 0.  0.
        -12    1    1    2    0    0  0.23246905559E+02  0.45848746056E+01 -0.36361842958E+02  0.43400729447E+02  0.00000000000E+00 0.  1.
         11    1    3    3    0    0 -0.69410220321E+01  0.25125316392E+01  0.18730292503E+02  0.20132423093E+02  0.51100000000E-03 0. -1.
        -11    1    3    3    0    0 -0.33615400633E+01  0.46781908400E+00 -0.11855920762E+01  0.35950570406E+01  0.51100000000E-03 0.  1.
         12    1    3    3    0    0 -0.12944343464E+02 -0.75652253288E+01  0.18817142531E+02  0.24059790419E+02  0.00000000000E+00 0. -1.
</event>
<event>
 7    1  0.1400974E-009  0.4778727E+02  0.7816164E-02  0.1312668E+00
        -11   -1    0    0    0    0  0.00000000000E+00  0.00000000000E+00  0.45593999997E+02  0.45594000000E+02  0.51100000000E-03 0.  1.
         11   -1    0    0    0    0 -0.00000000000E+00 -0.00000000000E+00 -0.45593999997E+02  0.45594000000E+02  0.51100000000E-03 0. -1.
    9900012    2    1    2    0    0 -0.22980419570E+02  0.24959825307E+02 -0.27065307714E+02  0.47787269077E+02  0.19999991030E+02 0.  0.
        -12    1    1    2    0    0  0.22980419570E+02 -0.24959825307E+02  0.27065307714E+02  0.43400730923E+02  0.00000000000E+00 0.  1.
         11    1    3    3    0    0 -0.13465490448E+02  0.17979599289E+02 -0.92737576297E+01  0.24302016469E+02  0.51100000000E-03 0. -1.
        -11    1    3    3    0    0 -0.22544677029E+01  0.75763893883E+01 -0.10838079929E+02  0.13414480146E+02  0.51100000000E-03 0.  1.
         12    1    3    3    0    0 -0.72604614189E+01 -0.59616337004E+00 -0.69534701561E+01  0.10070772462E+02  0.00000000000E+00 0. -1.
</event>
<event>
 7    1  0.1400974E-009  0.4778727E+02  0.7816164E-02  0.1312668E+00
        -11   -1    0    0    0    0  0.00000000000E+00  0.00000000000E+00  0.45593999997E+02  0.45594000000E+02  0.51100000000E-03 0.  1.
         11   -1    0    0    0    0 -0.00000000000E+00 -0.00000000000E+00 -0.45593999997E+02  0.45594000000E+02  0.51100000000E-03 0. -1.
    9900012    2    1    2    0    0 -0.13546904379E+02  0.13445582321E+02 -0.38978469238E+02  0.47787269979E+02  0.19999995143E+02 0.  0.
        -12    1    1    2    0    0  0.13546904379E+02 -0.13445582321E+02  0.38978469238E+02  0.43400730021E+02  0.00000000000E+00 0.  1.
         11    1    3    3    0    0  0.18183161409E+01  0.33804811422E+01 -0.59678824816E+01  0.70957415339E+01  0.51100000000E-03 0. -1.
        -11    1    3    3    0    0  0.96430951081E+00 -0.24553241583E+01 -0.14351350231E+01  0.30030188728E+01  0.51100000000E-03 0.  1.
         12    1    3    3    0    0 -0.16329530030E+02  0.12520425337E+02 -0.31575451733E+02  0.37688509573E+02  0.00000000000E+00 0. -1.
</event>
<event>
 7    1  0.1400974E-009  0.4778727E+02  0.7816164E-02  0.1312668E+00
        -11   -1    0    0    0    0  0.00000000000E+00  0.00000000000E+00  0.45593999997E+02  0.45594000000E+02  0.51100000000E-03 0.  1.
         11   -1    0    0    0    0 -0.00000000000E+00 -0.00000000000E+00 -0.45593999997E+02  0.45594000000E+02  0.51100000000E-03 0. -1.
    9900012    2    1    2    0    0 -0.31625079636E+01 -0.42870372587E+02 -0.59793628140E+01  0.47787273255E+02  0.20000010078E+02 0.  0.
        -12    1    1    2    0    0  0.31625079636E+01  0.42870372587E+02  0.59793628140E+01  0.43400726745E+02  0.00000000000E+00 0.  1.
         11    1    3    3    0    0 -0.24119432158E+01 -0.23125629404E+02 -0.62609783697E+01  0.24079286862E+02  0.51100000000E-03 0. -1.
        -11    1    3    3    0    0  0.51156436900E+01 -0.66235293248E+01 -0.31310105198E+01  0.89355569617E+01  0.51100000000E-03 0.  1.
         12    1    3    3    0    0 -0.58662084378E+01 -0.13121213858E+02  0.34126260754E+01  0.14772429431E+02  0.00000000000E+00 0. -1.
</event>
<event>
 7    1  0.1400974E-009  0.4778727E+02  0.7816164E-02  0.1312668E+00
        -11   -1    0    0    0    0  0.00000000000E+00  0.00000000000E+00  0.45593999997E+02  0.45594000000E+02  0.51100000000E-03 0.  1.
         11   -1    0    0    0    0 -0.00000000000E+00 -0.00000000000E+00 -0.45593999997E+02  0.45594000000E+02  0.51100000000E-03 0. -1.
    9900012    2    1    2    0    0  0.16440673383E+02 -0.26872406911E+01 -0.40076257291E+02  0.47787269566E+02  0.19999993257E+02 0.  0.
        -12    1    1    2    0    0 -0.16440673383E+02  0.26872406911E+01  0.40076257291E+02  0.43400730434E+02  0.00000000000E+00 0.  1.
         11    1    3    3    0    0  0.20943330236E+00 -0.49839131871E+01 -0.14633930657E+02  0.15460762585E+02  0.51100000000E-03 0. -1.
        -11    1    3    3    0    0  0.46612844814E+00  0.33498562950E+01 -0.16436893268E+01  0.37603893138E+01  0.51100000000E-03 0.  1.
         12    1    3    3    0    0  0.15765111633E+02 -0.10531837990E+01 -0.23798637307E+02  0.28566117667E+02  0.00000000000E+00 0. -1.
</event>
<event>
 7    1  0.1400974E-009  0.4778728E+02  0.7816164E-02  0.1312668E+00
        -11   -1    0    0    0    0  0.00000000000E+00  0.00000000000E+00  0.45593999997E+02  0.45594000000E+02  0.51100000000E-03 0. -1.
         11   -1    0    0    0    0 -0.00000000000E+00 -0.00000000000E+00 -0.45593999997E+02  0.45594000000E+02  0.51100000000E-03 0.  1.
    9900012    2    1    2    0    0 -0.19348741891E+02 -0.15138653814E+01  0.38819547346E+02  0.47787275843E+02  0.20000021879E+02 0.  0.
        -12    1    1    2    0    0  0.19348741891E+02  0.15138653814E+01 -0.38819547346E+02  0.43400724157E+02  0.00000000000E+00 0.  1.
         11    1    3    3    0    0 -0.13042602829E+02 -0.78476801628E+01  0.17359212277E+02  0.23087611908E+02  0.51100000000E-03 0.  1.
        -11    1    3    3    0    0 -0.63050970650E+01  0.45277545459E+01  0.81042378203E+01  0.11222008783E+02  0.51100000000E-03 0. -1.
        -12    1    3    3    0    0 -0.10419976002E-02  0.18060602355E+01  0.13356097249E+02  0.13477655152E+02  0.00000000000E+00 0.  1.
</event>
<event>
 7    1  0.1400974E-009  0.4778727E+02  0.7816164E-02  0.1312668E+00
        -11   -1    0    0    0    0  0.00000000000E+00  0.00000000000E+00  0.45593999997E+02  0.45594000000E+02  0.51100000000E-03 0. -1.
         11   -1    0    0    0    0 -0.00000000000E+00 -0.00000000000E+00 -0.45593999997E+02  0.45594000000E+02  0.51100000000E-03 0.  1.
    9900012    2    1    2    0    0 -0.37740964479E+02  0.44362727098E+01  0.20965743023E+02  0.47787270791E+02  0.19999998846E+02 0.  0.
        -12    1    1    2    0    0  0.37740964479E+02 -0.44362727098E+01 -0.20965743023E+02  0.43400729209E+02  0.00000000000E+00 0.  1.
         11    1    3    3    0    0 -0.95833012666E+01  0.29379501484E+01  0.14954327262E+02  0.18002864171E+02  0.51100000000E-03 0. -1.
        -11    1    3    3    0    0 -0.59375493844E+01 -0.27092125570E+01  0.78597951332E+00  0.65735902996E+01  0.51100000000E-03 0.  1.
         12    1    3    3    0    0 -0.22220113828E+02  0.42075351184E+01  0.52254362476E+01  0.23210816321E+02  0.00000000000E+00 0. -1.
</event>
<event>
 7    1  0.1400974E-009  0.4778727E+02  0.7816164E-02  0.1312668E+00
        -11   -1    0    0    0    0  0.00000000000E+00  0.00000000000E+00  0.45593999997E+02  0.45594000000E+02  0.51100000000E-03 0.  1.
         11   -1    0    0    0    0 -0.00000000000E+00 -0.00000000000E+00 -0.45593999997E+02  0.45594000000E+02  0.51100000000E-03 0. -1.
    9900012    2    1    2    0    0 -0.13827949565E+02 -0.30322307242E+01 -0.41027029466E+02  0.47787265454E+02  0.19999974511E+02 0.  0.
        -12    1    1    2    0    0  0.13827949565E+02  0.30322307242E+01  0.41027029466E+02  0.43400734546E+02  0.00000000000E+00 0.  1.
         11    1    3    3    0    0 -0.20094216937E+01  0.36580307937E+01 -0.89849157220E+01  0.99069508742E+01  0.51100000000E-03 0. -1.
        -11    1    3    3    0    0 -0.12838145448E+02 -0.10195769733E+02 -0.27889029734E+02  0.32350729185E+02  0.51100000000E-03 0.  1.
         12    1    3    3    0    0  0.10196175770E+01  0.35055082151E+01 -0.41530840096E+01  0.55295853950E+01  0.00000000000E+00 0. -1.
</event>
<event>
 7    1  0.1400974E-009  0.4778726E+02  0.7816164E-02  0.1312668E+00
        -11   -1    0    0    0    0  0.00000000000E+00  0.00000000000E+00  0.45593999997E+02  0.45594000000E+02  0.51100000000E-03 0.  1.
         11   -1    0    0    0    0 -0.00000000000E+00 -0.00000000000E+00 -0.45593999997E+02  0.45594000000E+02  0.51100000000E-03 0. -1.
    9900012    2    1    2    0    0 -0.84593735382E+01 -0.28216464510E+02 -0.31873097206E+02  0.47787260426E+02  0.19999951584E+02 0.  0.
        -12    1    1    2    0    0  0.84593735382E+01  0.28216464510E+02  0.31873097206E+02  0.43400739574E+02  0.00000000000E+00 0.  1.
         11    1    3    3    0    0 -0.98233955568E+01 -0.16159126292E+02 -0.17247235179E+02  0.25594600688E+02  0.51100000000E-03 0. -1.
        -11    1    3    3    0    0 -0.35843725303E+01 -0.83212750299E+01 -0.12886585947E+02  0.15752950269E+02  0.51100000000E-03 0.  1.
        -12    1    3    3    0    0  0.49483945488E+01 -0.37360631875E+01 -0.17392760806E+01  0.64397094683E+01  0.00000000000E+00 0.  1.
</event>
<event>
 7    1  0.1400974E-009  0.4778727E+02  0.7816164E-02  0.1312668E+00
        -11   -1    0    0    0    0  0.00000000000E+00  0.00000000000E+00  0.45593999997E+02  0.45594000000E+02  0.51100000000E-03 0. -1.
         11   -1    0    0    0    0 -0.00000000000E+00 -0.00000000000E+00 -0.45593999997E+02  0.45594000000E+02  0.51100000000E-03 0.  1.
    9900012    2    1    2    0    0  0.20063475511E+02 -0.38342906565E+02 -0.33018196865E+01  0.47787267902E+02  0.19999985672E+02 0.  0.
        -12    1    1    2    0    0 -0.20063475511E+02  0.38342906565E+02  0.33018196865E+01  0.43400732098E+02  0.00000000000E+00 0.  1.
         11    1    3    3    0    0  0.49234882913E+01 -0.18511197497E+02  0.80284033961E-01  0.19154937106E+02  0.51100000000E-03 0. -1.
        -11    1    3    3    0    0  0.64698841951E+01 -0.74718123485E+01 -0.81384851387E+01  0.12803215295E+02  0.51100000000E-03 0.  1.
         12    1    3    3    0    0  0.86701030246E+01 -0.12359896719E+02  0.47563814182E+01  0.15829115502E+02  0.00000000000E+00 0. -1.
</event>
<event>
 7    1  0.1400974E-009  0.4778723E+02  0.7816164E-02  0.1312668E+00
        -11   -1    0    0    0    0  0.00000000000E+00  0.00000000000E+00  0.45593999997E+02  0.45594000000E+02  0.51100000000E-03 0.  1.
         11   -1    0    0    0    0 -0.00000000000E+00 -0.00000000000E+00 -0.45593999997E+02  0.45594000000E+02  0.51100000000E-03 0. -1.
    9900012    2    1    2    0    0  0.13425216580E+02 -0.19553282039E+01 -0.41225808079E+02  0.47787228113E+02  0.19999804257E+02 0.  0.
        -12    1    1    2    0    0 -0.13425216580E+02  0.19553282039E+01  0.41225808079E+02  0.43400771887E+02  0.00000000000E+00 0.  1.
         11    1    3    3    0    0  0.70587702448E+01  0.30460413170E+01 -0.14783892440E+02  0.16663375439E+02  0.51100000000E-03 0. -1.
        -11    1    3    3    0    0  0.18035827668E+01 -0.60424755279E+01 -0.25899350119E+01  0.68170510435E+01  0.51100000000E-03 0.  1.
         12    1    3    3    0    0  0.45628635682E+01  0.10411060070E+01 -0.23851980627E+02  0.24306801630E+02  0.00000000000E+00 0. -1.
</event>
<event>
 7    1  0.1400974E-009  0.4778726E+02  0.7816164E-02  0.1312668E+00
        -11   -1    0    0    0    0  0.00000000000E+00  0.00000000000E+00  0.45593999997E+02  0.45594000000E+02  0.51100000000E-03 0.  1.
         11   -1    0    0    0    0 -0.00000000000E+00 -0.00000000000E+00 -0.45593999997E+02  0.45594000000E+02  0.51100000000E-03 0. -1.
    9900012    2    1    2    0    0  0.22157338598E+02  0.21751756074E+02 -0.30323875922E+02  0.47787262714E+02  0.19999962019E+02 0.  0.
        -12    1    1    2    0    0 -0.22157338598E+02 -0.21751756074E+02  0.30323875922E+02  0.43400737286E+02  0.00000000000E+00 0.  1.
         11    1    3    3    0    0  0.34784536918E+01  0.74104022694E+01 -0.14200639122E+02  0.16391212695E+02  0.51100000000E-03 0. -1.
        -11    1    3    3    0    0  0.13927043807E+01  0.55152595469E+01  0.67351209761E+00  0.57281176811E+01  0.51100000000E-03 0.  1.
         12    1    3    3    0    0  0.17286180525E+02  0.88260942573E+01 -0.16796748898E+02  0.25667932338E+02  0.00000000000E+00 0. -1.
</event>
<event>
 7    1  0.1400974E-009  0.4778727E+02  0.7816164E-02  0.1312668E+00
        -11   -1    0    0    0    0  0.00000000000E+00  0.00000000000E+00  0.45593999997E+02  0.45594000000E+02  0.51100000000E-03 0. -1.
         11   -1    0    0    0    0 -0.00000000000E+00 -0.00000000000E+00 -0.45593999997E+02  0.45594000000E+02  0.51100000000E-03 0.  1.
    9900012    2    1    2    0    0  0.29994782467E+02 -0.28837294397E+02 -0.12342884129E+02  0.47787270605E+02  0.19999997996E+02 0.  0.
        -12    1    1    2    0    0 -0.29994782467E+02  0.28837294397E+02  0.12342884129E+02  0.43400729395E+02  0.00000000000E+00 0.  1.
         11    1    3    3    0    0 -0.36051828801E+00 -0.53646562772E+01  0.38718748609E+00  0.53906794395E+01  0.51100000000E-03 0. -1.
        -11    1    3    3    0    0 -0.10913348204E+01 -0.22544203398E+01 -0.80875811637E+00  0.26320168523E+01  0.51100000000E-03 0.  1.
         12    1    3    3    0    0  0.31446635575E+02 -0.21218217780E+02 -0.11921313499E+02  0.39764574313E+02  0.00000000000E+00 0. -1.
</event>
<event>
 7    1  0.1400974E-009  0.4778728E+02  0.7816164E-02  0.1312668E+00
        -11   -1    0    0    0    0  0.00000000000E+00  0.00000000000E+00  0.45593999997E+02  0.45594000000E+02  0.51100000000E-03 0. -1.
         11   -1    0    0    0    0 -0.00000000000E+00 -0.00000000000E+00 -0.45593999997E+02  0.45594000000E+02  0.51100000000E-03 0.  1.
    9900012    2    1    2    0    0 -0.20030503574E+02  0.20290809765E+02  0.32721317466E+02  0.47787278219E+02  0.20000032713E+02 0.  0.
        -12    1    1    2    0    0  0.20030503574E+02 -0.20290809765E+02 -0.32721317466E+02  0.43400721781E+02  0.00000000000E+00 0.  1.
         11    1    3    3    0    0 -0.16011693808E+02  0.14871297879E+02  0.20449534909E+02  0.29928470015E+02  0.51100000000E-03 0. -1.
        -11    1    3    3    0    0 -0.54598186603E+01 -0.98416619500E+00  0.88797285412E+01  0.10470328654E+02  0.51100000000E-03 0.  1.
         12    1    3    3    0    0  0.14410088944E+01  0.64036780815E+01  0.33920540160E+01  0.73884795495E+01  0.00000000000E+00 0. -1.
</event>
<event>
 7    1  0.1400974E-009  0.4778727E+02  0.7816164E-02  0.1312668E+00
        -11   -1    0    0    0    0  0.00000000000E+00  0.00000000000E+00  0.45593999997E+02  0.45594000000E+02  0.51100000000E-03 0. -1.
         11   -1    0    0    0    0 -0.00000000000E+00 -0.00000000000E+00 -0.45593999997E+02  0.45594000000E+02  0.51100000000E-03 0.  1.
    9900012    2    1    2    0    0  0.27768705529E+02 -0.31583918286E+02  0.10722790175E+02  0.47787272700E+02  0.20000007546E+02 0.  0.
        -12    1    1    2    0    0 -0.27768705529E+02  0.31583918286E+02 -0.10722790175E+02  0.43400727300E+02  0.00000000000E+00 0.  1.
         11    1    3    3    0    0  0.71276351465E+01 -0.42475735511E+01  0.30603205086E+01  0.88436771611E+01  0.51100000000E-03 0. -1.
        -11    1    3    3    0    0 -0.16447293903E+00 -0.74469027488E+01 -0.32956198837E+01  0.81452147041E+01  0.51100000000E-03 0.  1.
        -12    1    3    3    0    0  0.20805543321E+02 -0.19889441987E+02  0.10958089550E+02  0.30798380834E+02  0.00000000000E+00 0.  1.
</event>
<event>
 7    1  0.1400974E-009  0.4778727E+02  0.7816164E-02  0.1312668E+00
        -11   -1    0    0    0    0  0.00000000000E+00  0.00000000000E+00  0.45593999997E+02  0.45594000000E+02  0.51100000000E-03 0.  1.
         11   -1    0    0    0    0 -0.00000000000E+00 -0.00000000000E+00 -0.45593999997E+02  0.45594000000E+02  0.51100000000E-03 0. -1.
    9900012    2    1    2    0    0 -0.18144562770E+02  0.89486018209E+01 -0.38396884258E+02  0.47787270129E+02  0.19999995826E+02 0.  0.
        -12    1    1    2    0    0  0.18144562770E+02 -0.89486018209E+01  0.38396884258E+02  0.43400729871E+02  0.00000000000E+00 0.  1.
         11    1    3    3    0    0 -0.14713141893E+02  0.53727782609E+01 -0.25439201473E+02  0.29874675938E+02  0.51100000000E-03 0. -1.
        -11    1    3    3    0    0 -0.44428681421E+01 -0.84550540287E+00 -0.37581324688E+00  0.45381926548E+01  0.51100000000E-03 0.  1.
         12    1    3    3    0    0  0.10114472653E+01  0.44213289629E+01 -0.12581869538E+02  0.13374401536E+02  0.00000000000E+00 0. -1.
</event>
<event>
 7    1  0.1400974E-009  0.4778727E+02  0.7816164E-02  0.1312668E+00
        -11   -1    0    0    0    0  0.00000000000E+00  0.00000000000E+00  0.45593999997E+02  0.45594000000E+02  0.51100000000E-03 0.  1.
         11   -1    0    0    0    0 -0.00000000000E+00 -0.00000000000E+00 -0.45593999997E+02  0.45594000000E+02  0.51100000000E-03 0. -1.
    9900012    2    1    2    0    0 -0.26320920605E+02 -0.77019784396E+00 -0.34499842318E+02  0.47787272055E+02  0.20000004607E+02 0.  0.
        -12    1    1    2    0    0  0.26320920605E+02  0.77019784396E+00  0.34499842318E+02  0.43400727945E+02  0.00000000000E+00 0.  1.
         11    1    3    3    0    0 -0.59444334743E+01  0.39330621149E+01 -0.19313784773E+02  0.20587072387E+02  0.51100000000E-03 0. -1.
        -11    1    3    3    0    0 -0.24397702087E+01 -0.71167253844E+00  0.98183567423E+00  0.27245106029E+01  0.51100000000E-03 0.  1.
        -12    1    3    3    0    0 -0.17936716922E+02 -0.39915874205E+01 -0.16167893219E+02  0.24475689065E+02  0.00000000000E+00 0.  1.
</event>
<event>
 7    1  0.1400974E-009  0.4778727E+02  0.7816164E-02  0.1312668E+00
        -11   -1    0    0    0    0  0.00000000000E+00  0.00000000000E+00  0.45593999997E+02  0.45594000000E+02  0.51100000000E-03 0.  1.
         11   -1    0    0    0    0 -0.00000000000E+00 -0.00000000000E+00 -0.45593999997E+02  0.45594000000E+02  0.51100000000E-03 0. -1.
    9900012    2    1    2    0    0  0.16384539284E+02 -0.32267070572E+01 -0.40059439730E+02  0.47787268699E+02  0.19999989305E+02 0.  0.
        -12    1    1    2    0    0 -0.16384539284E+02  0.32267070572E+01  0.40059439730E+02  0.43400731301E+02  0.00000000000E+00 0.  1.
         11    1    3    3    0    0  0.45782721108E+00 -0.66533129159E+01 -0.20703240290E+02  0.21750869805E+02  0.51100000000E-03 0. -1.
        -11    1    3    3    0    0  0.40109850644E+01  0.53732677754E+00 -0.13775238401E+01  0.42748442596E+01  0.51100000000E-03 0.  1.
         12    1    3    3    0    0  0.11915727009E+02  0.28892790812E+01 -0.17978675601E+02  0.21761554634E+02  0.00000000000E+00 0. -1.
</event>
<event>
 7    1  0.1400974E-009  0.4778726E+02  0.7816164E-02  0.1312668E+00
        -11   -1    0    0    0    0  0.00000000000E+00  0.00000000000E+00  0.45593999997E+02  0.45594000000E+02  0.51100000000E-03 0. -1.
         11   -1    0    0    0    0 -0.00000000000E+00 -0.00000000000E+00 -0.45593999997E+02  0.45594000000E+02  0.51100000000E-03 0.  1.
    9900012    2    1    2    0    0  0.10116486213E+02  0.23295407644E+02  0.35193813413E+02  0.47787264832E+02  0.19999971674E+02 0.  0.
        -12    1    1    2    0    0 -0.10116486213E+02 -0.23295407644E+02 -0.35193813413E+02  0.43400735168E+02  0.00000000000E+00 0.  1.
         11    1    3    3    0    0 -0.20488913401E+01  0.42498350316E+01  0.58764101885E+01  0.75359969801E+01  0.51100000000E-03 0. -1.
        -11    1    3    3    0    0 -0.89917068059E+00 -0.87787984102E+00 -0.10609684421E+01  0.16446383263E+01  0.51100000000E-03 0.  1.
         12    1    3    3    0    0  0.13064548233E+02  0.19923452454E+02  0.30378371667E+02  0.38606629525E+02  0.00000000000E+00 0. -1.
</event>
<event>
 7    1  0.1400974E-009  0.4778727E+02  0.7816164E-02  0.1312668E+00
        -11   -1    0    0    0    0  0.00000000000E+00  0.00000000000E+00  0.45593999997E+02  0.45594000000E+02  0.51100000000E-03 0. -1.
         11   -1    0    0    0    0 -0.00000000000E+00 -0.00000000000E+00 -0.45593999997E+02  0.45594000000E+02  0.51100000000E-03 0.  1.
    9900012    2    1    2    0    0  0.12041916745E+02 -0.40693610911E+02 -0.90909683056E+01  0.47787269215E+02  0.19999991661E+02 0.  0.
        -12    1    1    2    0    0 -0.12041916745E+02  0.40693610911E+02  0.90909683056E+01  0.43400730785E+02  0.00000000000E+00 0.  1.
         11    1    3    3    0    0  0.32992924696E+01 -0.14714141954E+02  0.19825282573E+01  0.15209264374E+02  0.51100000000E-03 0. -1.
        -11    1    3    3    0    0  0.73368634428E+01 -0.35720778844E+01 -0.35567211178E+01  0.89016611350E+01  0.51100000000E-03 0.  1.
         12    1    3    3    0    0  0.14057608324E+01 -0.22407391073E+02 -0.75167754451E+01  0.23676343706E+02  0.00000000000E+00 0. -1.
</event>
<event>
 7    1  0.1694527E-009  0.4778726E+02  0.7816164E-02  0.1312668E+00
        -11   -1    0    0    0    0  0.00000000000E+00  0.00000000000E+00  0.45593999997E+02  0.45594000000E+02  0.51100000000E-03 0.  1.
         11   -1    0    0    0    0 -0.00000000000E+00 -0.00000000000E+00 -0.45593999997E+02  0.45594000000E+02  0.51100000000E-03 0. -1.
    9900012    2    1    2    0    0 -0.43368313641E+02 -0.14434172873E+01  0.85453995337E+00  0.47787258992E+02  0.19999945048E+02 0.  0.
        -12    1    1    2    0    0  0.43368313641E+02  0.14434172873E+01 -0.85453995337E+00  0.43400741008E+02  0.00000000000E+00 0.  1.
         11    1    3    3    0    0 -0.26969508458E+02  0.12532930094E+01 -0.47750866360E+01  0.27417632693E+02  0.51100000000E-03 0. -1.
        -11    1    3    3    0    0 -0.68800885835E+00  0.28322592565E+01  0.65539717636E+00  0.29874059659E+01  0.51100000000E-03 0.  1.
         12    1    3    3    0    0 -0.15710796324E+02 -0.55289695531E+01  0.49742294130E+01  0.17382220333E+02  0.00000000000E+00 0. -1.
</event>
<event>
 7    1  0.1400974E-009  0.4778727E+02  0.7816164E-02  0.1312668E+00
        -11   -1    0    0    0    0  0.00000000000E+00  0.00000000000E+00  0.45593999997E+02  0.45594000000E+02  0.51100000000E-03 0.  1.
         11   -1    0    0    0    0 -0.00000000000E+00 -0.00000000000E+00 -0.45593999997E+02  0.45594000000E+02  0.51100000000E-03 0. -1.
    9900012    2    1    2    0    0 -0.22416978602E+02 -0.30139851898E+02 -0.21741482098E+02  0.47787266759E+02  0.19999980461E+02 0.  0.
        -12    1    1    2    0    0  0.22416978602E+02  0.30139851898E+02  0.21741482098E+02  0.43400733241E+02  0.00000000000E+00 0.  1.
         11    1    3    3    0    0 -0.15960348744E+02 -0.17501981842E+02 -0.11936162612E+02  0.26524028325E+02  0.51100000000E-03 0. -1.
        -11    1    3    3    0    0 -0.48154840176E+01 -0.18055671702E+00 -0.68162937118E+01  0.83476551964E+01  0.51100000000E-03 0.  1.
        -12    1    3    3    0    0 -0.16411458405E+01 -0.12457313339E+02 -0.29890257738E+01  0.12915583238E+02  0.00000000000E+00 0.  1.
</event>
<event>
 7    1  0.1400974E-009  0.4778727E+02  0.7816164E-02  0.1312668E+00
        -11   -1    0    0    0    0  0.00000000000E+00  0.00000000000E+00  0.45593999997E+02  0.45594000000E+02  0.51100000000E-03 0.  1.
         11   -1    0    0    0    0 -0.00000000000E+00 -0.00000000000E+00 -0.45593999997E+02  0.45594000000E+02  0.51100000000E-03 0. -1.
    9900012    2    1    2    0    0 -0.22746765025E+02  0.36837220925E+02 -0.30376301927E+01  0.47787270032E+02  0.19999995383E+02 0.  0.
        -12    1    1    2    0    0  0.22746765025E+02 -0.36837220925E+02  0.30376301927E+01  0.43400729968E+02  0.00000000000E+00 0.  1.
         11    1    3    3    0    0 -0.10497381929E+02  0.73074616208E+01 -0.55969150443E+01  0.13961356702E+02  0.51100000000E-03 0.  1.
        -11    1    3    3    0    0 -0.62566752642E+01  0.20816203024E+02 -0.28928831351E+01  0.21927814911E+02  0.51100000000E-03 0. -1.
        -12    1    3    3    0    0 -0.59927078324E+01  0.87135562801E+01  0.54521679867E+01  0.11898098418E+02  0.00000000000E+00 0.  1.
</event>
<event>
 7    1  0.1400974E-009  0.4778727E+02  0.7816164E-02  0.1312668E+00
        -11   -1    0    0    0    0  0.00000000000E+00  0.00000000000E+00  0.45593999997E+02  0.45594000000E+02  0.51100000000E-03 0.  1.
         11   -1    0    0    0    0 -0.00000000000E+00 -0.00000000000E+00 -0.45593999997E+02  0.45594000000E+02  0.51100000000E-03 0. -1.
    9900012    2    1    2    0    0 -0.21100246269E+02 -0.58058306329E+01 -0.37479262553E+02  0.47787272086E+02  0.20000004748E+02 0.  0.
        -12    1    1    2    0    0  0.21100246269E+02  0.58058306329E+01  0.37479262553E+02  0.43400727914E+02  0.00000000000E+00 0.  1.
         11    1    3    3    0    0 -0.15264101245E+02 -0.44940000477E+01 -0.17553989585E+02  0.23692432840E+02  0.51100000000E-03 0. -1.
        -11    1    3    3    0    0 -0.33109872101E+01 -0.53898247431E+01 -0.17720911542E+02  0.18816045100E+02  0.51100000000E-03 0.  1.
         12    1    3    3    0    0 -0.25251578139E+01  0.40779941580E+01 -0.22043614259E+01  0.52787941458E+01  0.00000000000E+00 0. -1.
</event>
<event>
 7    1  0.1400974E-009  0.4778727E+02  0.7816164E-02  0.1312668E+00
        -11   -1    0    0    0    0  0.00000000000E+00  0.00000000000E+00  0.45593999997E+02  0.45594000000E+02  0.51100000000E-03 0. -1.
         11   -1    0    0    0    0 -0.00000000000E+00 -0.00000000000E+00 -0.45593999997E+02  0.45594000000E+02  0.51100000000E-03 0.  1.
    9900012    2    1    2    0    0 -0.38509783653E+02 -0.12156403787E+02  0.15900993758E+02  0.47787271982E+02  0.20000004273E+02 0.  0.
        -12    1    1    2    0    0  0.38509783653E+02  0.12156403787E+02 -0.15900993758E+02  0.43400728018E+02  0.00000000000E+00 0.  1.
         11    1    3    3    0    0 -0.20239923755E+02 -0.15253987038E+02  0.62603621900E+01  0.26106144280E+02  0.51100000000E-03 0. -1.
        -11    1    3    3    0    0 -0.65663915860E+00  0.12767217994E+01  0.18350789792E+01  0.23299589393E+01  0.51100000000E-03 0.  1.
         12    1    3    3    0    0 -0.17613220740E+02  0.18208614517E+01  0.78055525884E+01  0.19351168762E+02  0.00000000000E+00 0. -1.
</event>
<event>
 7    1  0.1400974E-009  0.4778727E+02  0.7816164E-02  0.1312668E+00
        -11   -1    0    0    0    0  0.00000000000E+00  0.00000000000E+00  0.45593999997E+02  0.45594000000E+02  0.51100000000E-03 0.  1.
         11   -1    0    0    0    0 -0.00000000000E+00 -0.00000000000E+00 -0.45593999997E+02  0.45594000000E+02  0.51100000000E-03 0. -1.
    9900012    2    1    2    0    0 -0.31901459593E+02 -0.27583405049E+01 -0.29296955764E+02  0.47787272085E+02  0.20000004744E+02 0.  0.
        -12    1    1    2    0    0  0.31901459593E+02  0.27583405049E+01  0.29296955764E+02  0.43400727915E+02  0.00000000000E+00 0.  1.
         11    1    3    3    0    0 -0.23676127085E+02  0.18019842889E+00 -0.18708792761E+02  0.30176321712E+02  0.51100000000E-03 0. -1.
        -11    1    3    3    0    0 -0.45187396353E+01 -0.71431089308E+01 -0.67625913491E+01  0.10824770441E+02  0.51100000000E-03 0.  1.
         12    1    3    3    0    0 -0.37065928725E+01  0.42045699970E+01 -0.38255716538E+01  0.67861799314E+01  0.00000000000E+00 0. -1.
</event>
<event>
 7    1  0.1400974E-009  0.4778727E+02  0.7816164E-02  0.1312668E+00
        -11   -1    0    0    0    0  0.00000000000E+00  0.00000000000E+00  0.45593999997E+02  0.45594000000E+02  0.51100000000E-03 0. -1.
         11   -1    0    0    0    0 -0.00000000000E+00 -0.00000000000E+00 -0.45593999997E+02  0.45594000000E+02  0.51100000000E-03 0.  1.
    9900012    2    1    2    0    0  0.24797658761E+02  0.35268677183E+02  0.49819370136E+01  0.47787272280E+02  0.20000005632E+02 0.  0.
        -12    1    1    2    0    0 -0.24797658761E+02 -0.35268677183E+02 -0.49819370136E+01  0.43400727720E+02  0.00000000000E+00 0.  1.
         11    1    3    3    0    0  0.59405667126E+01  0.15534046294E+01  0.21212599105E+01  0.64963945908E+01  0.51100000000E-03 0.  1.
        -11    1    3    3    0    0  0.19829149757E+02  0.34586494224E+02  0.29878992492E+01  0.39979348481E+02  0.51100000000E-03 0. -1.
         12    1    3    3    0    0 -0.97205770832E+00 -0.87122167079E+00 -0.12722214611E+00  0.13115292076E+01  0.00000000000E+00 0. -1.
</event>
<event>
 7    1  0.1400974E-009  0.4778727E+02  0.7816164E-02  0.1312668E+00
        -11   -1    0    0    0    0  0.00000000000E+00  0.00000000000E+00  0.45593999997E+02  0.45594000000E+02  0.51100000000E-03 0.  1.
         11   -1    0    0    0    0 -0.00000000000E+00 -0.00000000000E+00 -0.45593999997E+02  0.45594000000E+02  0.51100000000E-03 0. -1.
    9900012    2    1    2    0    0 -0.26136546848E+02 -0.40748343505E+01 -0.34407848808E+02  0.47787269410E+02  0.19999992547E+02 0.  0.
        -12    1    1    2    0    0  0.26136546848E+02  0.40748343505E+01  0.34407848808E+02  0.43400730590E+02  0.00000000000E+00 0.  1.
         11    1    3    3    0    0 -0.13707268988E+02 -0.12172222846E+00 -0.24613189049E+02  0.28172914561E+02  0.51100000000E-03 0. -1.
        -11    1    3    3    0    0 -0.13566855351E+02 -0.82236987746E+00 -0.71281694817E+01  0.15347529337E+02  0.51100000000E-03 0.  1.
         12    1    3    3    0    0  0.11375774908E+01 -0.31307422446E+01 -0.26664902774E+01  0.42668255119E+01  0.00000000000E+00 0. -1.
</event>
<event>
 7    1  0.1400974E-009  0.4778728E+02  0.7816164E-02  0.1312668E+00
        -11   -1    0    0    0    0  0.00000000000E+00  0.00000000000E+00  0.45593999997E+02  0.45594000000E+02  0.51100000000E-03 0.  1.
         11   -1    0    0    0    0 -0.00000000000E+00 -0.00000000000E+00 -0.45593999997E+02  0.45594000000E+02  0.51100000000E-03 0. -1.
    9900012    2    1    2    0    0 -0.43945131380E+01  0.88917352795E+00 -0.43168513177E+02  0.47787275292E+02  0.20000019365E+02 0.  0.
        -12    1    1    2    0    0  0.43945131380E+01 -0.88917352795E+00  0.43168513177E+02  0.43400724708E+02  0.00000000000E+00 0.  1.
         11    1    3    3    0    0 -0.71133472370E+01 -0.20631585372E+00 -0.16878777076E+02  0.18317625146E+02  0.51100000000E-03 0. -1.
        -11    1    3    3    0    0 -0.44497827580E+01  0.45682487496E+00 -0.38427361717E+01  0.58971075203E+01  0.51100000000E-03 0.  1.
         12    1    3    3    0    0  0.71686168569E+01  0.63866450670E+00 -0.22446999929E+02  0.23572542625E+02  0.00000000000E+00 0. -1.
</event>
<event>
 7    1  0.1400974E-009  0.4778727E+02  0.7816164E-02  0.1312668E+00
        -11   -1    0    0    0    0  0.00000000000E+00  0.00000000000E+00  0.45593999997E+02  0.45594000000E+02  0.51100000000E-03 0. -1.
         11   -1    0    0    0    0 -0.00000000000E+00 -0.00000000000E+00 -0.45593999997E+02  0.45594000000E+02  0.51100000000E-03 0.  1.
    9900012    2    1    2    0    0 -0.37417307111E+02  0.74542490386E+01  0.20688234081E+02  0.47787265795E+02  0.19999976064E+02 0.  0.
        -12    1    1    2    0    0  0.37417307111E+02 -0.74542490386E+01 -0.20688234081E+02  0.43400734205E+02  0.00000000000E+00 0.  1.
         11    1    3    3    0    0 -0.23985350795E+02 -0.16901616608E+00  0.89999366603E+01  0.25618830563E+02  0.51100000000E-03 0. -1.
        -11    1    3    3    0    0 -0.47555595852E-01 -0.21770758681E+01  0.20059943139E+01  0.29607320579E+01  0.51100000000E-03 0.  1.
         12    1    3    3    0    0 -0.13384400720E+02  0.98003410727E+01  0.96823031065E+01  0.19207703174E+02  0.00000000000E+00 0. -1.
</event>
<event>
 7    1  0.1400974E-009  0.4778727E+02  0.7816164E-02  0.1312668E+00
        -11   -1    0    0    0    0  0.00000000000E+00  0.00000000000E+00  0.45593999997E+02  0.45594000000E+02  0.51100000000E-03 0. -1.
         11   -1    0    0    0    0 -0.00000000000E+00 -0.00000000000E+00 -0.45593999997E+02  0.45594000000E+02  0.51100000000E-03 0.  1.
    9900012    2    1    2    0    0  0.37001300252E+02 -0.16290646912E+02  0.15784229081E+02  0.47787270918E+02  0.19999999426E+02 0.  0.
        -12    1    1    2    0    0 -0.37001300252E+02  0.16290646912E+02 -0.15784229081E+02  0.43400729082E+02  0.00000000000E+00 0.  1.
         11    1    3    3    0    0  0.14903694813E+02 -0.14039329337E+01 -0.39232555804E+00  0.14974814402E+02  0.51100000000E-03 0. -1.
        -11    1    3    3    0    0  0.21865804818E+02 -0.11756357406E+02  0.11962148828E+02  0.27557546419E+02  0.51100000000E-03 0.  1.
        -12    1    3    3    0    0  0.23180062100E+00 -0.31303565722E+01  0.42144058109E+01  0.52549100978E+01  0.00000000000E+00 0.  1.
</event>
<event>
 7    1  0.1400974E-009  0.4778727E+02  0.7816164E-02  0.1312668E+00
        -11   -1    0    0    0    0  0.00000000000E+00  0.00000000000E+00  0.45593999997E+02  0.45594000000E+02  0.51100000000E-03 0.  1.
         11   -1    0    0    0    0 -0.00000000000E+00 -0.00000000000E+00 -0.45593999997E+02  0.45594000000E+02  0.51100000000E-03 0. -1.
    9900012    2    1    2    0    0  0.20146710034E+02 -0.28430661729E+02 -0.25873364080E+02  0.47787269356E+02  0.19999992304E+02 0.  0.
        -12    1    1    2    0    0 -0.20146710034E+02  0.28430661729E+02  0.25873364080E+02  0.43400730644E+02  0.00000000000E+00 0.  1.
         11    1    3    3    0    0 -0.20893113142E+01 -0.11339312198E+00 -0.25638196377E+01  0.33092674663E+01  0.51100000000E-03 0.  1.
        -11    1    3    3    0    0  0.32256761490E+01 -0.11730590990E+02 -0.11019099061E+02  0.16414392952E+02  0.51100000000E-03 0. -1.
         12    1    3    3    0    0  0.19010345199E+02 -0.16586677617E+02 -0.12290445382E+02  0.28063608938E+02  0.00000000000E+00 0. -1.
</event>
<event>
 7    1  0.1400974E-009  0.4778727E+02  0.7816164E-02  0.1312668E+00
        -11   -1    0    0    0    0  0.00000000000E+00  0.00000000000E+00  0.45593999997E+02  0.45594000000E+02  0.51100000000E-03 0.  1.
         11   -1    0    0    0    0 -0.00000000000E+00 -0.00000000000E+00 -0.45593999997E+02  0.45594000000E+02  0.51100000000E-03 0. -1.
    9900012    2    1    2    0    0 -0.11099536246E+02 -0.25566983702E+02 -0.33267899346E+02  0.47787268585E+02  0.19999988788E+02 0.  0.
        -12    1    1    2    0    0  0.11099536246E+02  0.25566983702E+02  0.33267899346E+02  0.43400731415E+02  0.00000000000E+00 0.  1.
         11    1    3    3    0    0  0.37415609956E+01 -0.96567516477E+01 -0.14769505120E+02  0.18038581231E+02  0.51100000000E-03 0. -1.
        -11    1    3    3    0    0 -0.28585216418E+01 -0.58986216168E+00 -0.17402148610E-01  0.29187988013E+01  0.51100000000E-03 0.  1.
         12    1    3    3    0    0 -0.11982575599E+02 -0.15320369892E+02 -0.18480992077E+02  0.26829888553E+02  0.00000000000E+00 0. -1.
</event>
<event>
 7    1  0.1400974E-009  0.4778726E+02  0.7816164E-02  0.1312668E+00
        -11   -1    0    0    0    0  0.00000000000E+00  0.00000000000E+00  0.45593999997E+02  0.45594000000E+02  0.51100000000E-03 0.  1.
         11   -1    0    0    0    0 -0.00000000000E+00 -0.00000000000E+00 -0.45593999997E+02  0.45594000000E+02  0.51100000000E-03 0. -1.
    9900012    2    1    2    0    0 -0.21671489375E+02  0.35724734232E+02 -0.11735151153E+02  0.47787264289E+02  0.19999969200E+02 0.  0.
        -12    1    1    2    0    0  0.21671489375E+02 -0.35724734232E+02  0.11735151153E+02  0.43400735711E+02  0.00000000000E+00 0.  1.
         11    1    3    3    0    0 -0.85560070476E+01  0.14614512493E+02 -0.21488822642E+01  0.17070645191E+02  0.51100000000E-03 0. -1.
        -11    1    3    3    0    0  0.28995338870E+01  0.69474051735E+01 -0.43914875989E+01  0.87154402642E+01  0.51100000000E-03 0.  1.
        -12    1    3    3    0    0 -0.16015016215E+02  0.14162816565E+02 -0.51947812894E+01  0.22001178834E+02  0.00000000000E+00 0.  1.
</event>
<event>
 7    1  0.1400974E-009  0.4778724E+02  0.7816164E-02  0.1312668E+00
        -11   -1    0    0    0    0  0.00000000000E+00  0.00000000000E+00  0.45593999997E+02  0.45594000000E+02  0.51100000000E-03 0.  1.
         11   -1    0    0    0    0 -0.00000000000E+00 -0.00000000000E+00 -0.45593999997E+02  0.45594000000E+02  0.51100000000E-03 0. -1.
    9900012    2    1    2    0    0 -0.19536314706E+02  0.37982342513E+02 -0.77006683952E+01  0.47787237002E+02  0.19999844787E+02 0.  0.
        -12    1    1    2    0    0  0.19536314706E+02 -0.37982342513E+02  0.77006683952E+01  0.43400762998E+02  0.00000000000E+00 0.  1.
         11    1    3    3    0    0 -0.66326239183E+01  0.12031906859E+02  0.51108733298E+01  0.14658769019E+02  0.51100000000E-03 0. -1.
        -11    1    3    3    0    0  0.95285241753E+00  0.69548247863E+01 -0.34369842321E+01  0.78160332913E+01  0.51100000000E-03 0.  1.
         12    1    3    3    0    0 -0.13856543205E+02  0.18995610868E+02 -0.93745574928E+01  0.25312434692E+02  0.00000000000E+00 0. -1.
</event>
<event>
 7    1  0.1400974E-009  0.4778728E+02  0.7816164E-02  0.1312668E+00
        -11   -1    0    0    0    0  0.00000000000E+00  0.00000000000E+00  0.45593999997E+02  0.45594000000E+02  0.51100000000E-03 0. -1.
         11   -1    0    0    0    0 -0.00000000000E+00 -0.00000000000E+00 -0.45593999997E+02  0.45594000000E+02  0.51100000000E-03 0.  1.
    9900012    2    1    2    0    0  0.30160349222E+02  0.86497105860E+01  0.29985970487E+02  0.47787278987E+02  0.20000036213E+02 0.  0.
        -12    1    1    2    0    0 -0.30160349222E+02 -0.86497105860E+01 -0.29985970487E+02  0.43400721013E+02  0.00000000000E+00 0.  1.
         11    1    3    3    0    0  0.14794074878E+02  0.22631756548E+01  0.14738332363E+02  0.21004881734E+02  0.51100000000E-03 0. -1.
        -11    1    3    3    0    0  0.58386758707E+01 -0.41679785875E+01  0.82572469195E+01  0.10938204075E+02  0.51100000000E-03 0.  1.
         12    1    3    3    0    0  0.95275984733E+01  0.10554513519E+02  0.69903912042E+01  0.15844193178E+02  0.00000000000E+00 0. -1.
</event>
<event>
 7    1  0.1400974E-009  0.4778727E+02  0.7816164E-02  0.1312668E+00
        -11   -1    0    0    0    0  0.00000000000E+00  0.00000000000E+00  0.45593999997E+02  0.45594000000E+02  0.51100000000E-03 0.  1.
         11   -1    0    0    0    0 -0.00000000000E+00 -0.00000000000E+00 -0.45593999997E+02  0.45594000000E+02  0.51100000000E-03 0. -1.
    9900012    2    1    2    0    0  0.20318027208E+02 -0.20663308532E+02 -0.32308345783E+02  0.47787265486E+02  0.19999974657E+02 0.  0.
        -12    1    1    2    0    0 -0.20318027208E+02  0.20663308532E+02  0.32308345783E+02  0.43400734514E+02  0.00000000000E+00 0.  1.
         11    1    3    3    0    0  0.10397346920E+02 -0.13099616934E+01 -0.89304431780E+01  0.13768574299E+02  0.51100000000E-03 0. -1.
        -11    1    3    3    0    0  0.12579855784E+02 -0.16012497351E+02 -0.20315595418E+02  0.28764148873E+02  0.51100000000E-03 0.  1.
        -12    1    3    3    0    0 -0.26591754962E+01 -0.33408494877E+01 -0.30623071873E+01  0.52545423139E+01  0.00000000000E+00 0.  1.
</event>
<event>
 7    1  0.1400974E-009  0.4778727E+02  0.7816164E-02  0.1312668E+00
        -11   -1    0    0    0    0  0.00000000000E+00  0.00000000000E+00  0.45593999997E+02  0.45594000000E+02  0.51100000000E-03 0. -1.
         11   -1    0    0    0    0 -0.00000000000E+00 -0.00000000000E+00 -0.45593999997E+02  0.45594000000E+02  0.51100000000E-03 0.  1.
    9900012    2    1    2    0    0  0.38517912902E+02  0.16910838482E+02 -0.10677882640E+02  0.47787271317E+02  0.20000001245E+02 0.  0.
        -12    1    1    2    0    0 -0.38517912902E+02 -0.16910838482E+02  0.10677882640E+02  0.43400728683E+02  0.00000000000E+00 0.  1.
         11    1    3    3    0    0  0.86770757286E+01 -0.42367417133E+01 -0.32530174585E+00  0.96616481530E+01  0.51100000000E-03 0.  1.
        -11    1    3    3    0    0  0.63613578964E+01  0.55140219450E+01 -0.33563189351E+01  0.90629018174E+01  0.51100000000E-03 0. -1.
        -12    1    3    3    0    0  0.23479479277E+02  0.15633558251E+02 -0.69962619590E+01  0.29062721347E+02  0.00000000000E+00 0.  1.
</event>
<event>
 7    1  0.1400974E-009  0.4778727E+02  0.7816164E-02  0.1312668E+00
        -11   -1    0    0    0    0  0.00000000000E+00  0.00000000000E+00  0.45593999997E+02  0.45594000000E+02  0.51100000000E-03 0.  1.
         11   -1    0    0    0    0 -0.00000000000E+00 -0.00000000000E+00 -0.45593999997E+02  0.45594000000E+02  0.51100000000E-03 0. -1.
    9900012    2    1    2    0    0 -0.14229058688E+02  0.12097149371E+02 -0.39176730544E+02  0.47787270165E+02  0.19999995992E+02 0.  0.
        -12    1    1    2    0    0  0.14229058688E+02 -0.12097149371E+02  0.39176730544E+02  0.43400729835E+02  0.00000000000E+00 0.  1.
         11    1    3    3    0    0 -0.18422520286E+01  0.42137253413E+01 -0.17413740770E+01  0.49174950662E+01  0.51100000000E-03 0. -1.
        -11    1    3    3    0    0 -0.13408823319E+02  0.10796303084E+01 -0.19777165628E+02  0.23918579074E+02  0.51100000000E-03 0.  1.
         12    1    3    3    0    0  0.10220166594E+01  0.68037937213E+01 -0.17658190839E+02  0.18951196025E+02  0.00000000000E+00 0. -1.
</event>
<event>
 7    1  0.1400974E-009  0.4778727E+02  0.7816164E-02  0.1312668E+00
        -11   -1    0    0    0    0  0.00000000000E+00  0.00000000000E+00  0.45593999997E+02  0.45594000000E+02  0.51100000000E-03 0.  1.
         11   -1    0    0    0    0 -0.00000000000E+00 -0.00000000000E+00 -0.45593999997E+02  0.45594000000E+02  0.51100000000E-03 0. -1.
    9900012    2    1    2    0    0  0.35809836732E+02  0.50199425166E+01 -0.24001650767E+02  0.47787268795E+02  0.19999989743E+02 0.  0.
        -12    1    1    2    0    0 -0.35809836732E+02 -0.50199425166E+01  0.24001650767E+02  0.43400731205E+02  0.00000000000E+00 0.  1.
         11    1    3    3    0    0  0.61414648557E+01 -0.14606300398E+01 -0.39797479052E+01  0.74625347126E+01  0.51100000000E-03 0. -1.
        -11    1    3    3    0    0  0.12196445516E+02  0.20412721199E+01 -0.18474690147E+02  0.22231379881E+02  0.51100000000E-03 0.  1.
         12    1    3    3    0    0  0.17471926359E+02  0.44393004365E+01 -0.15472127144E+01  0.18093354201E+02  0.00000000000E+00 0. -1.
</event>
<event>
 7    1  0.1400974E-009  0.4778727E+02  0.7816164E-02  0.1312668E+00
        -11   -1    0    0    0    0  0.00000000000E+00  0.00000000000E+00  0.45593999997E+02  0.45594000000E+02  0.51100000000E-03 0.  1.
         11   -1    0    0    0    0 -0.00000000000E+00 -0.00000000000E+00 -0.45593999997E+02  0.45594000000E+02  0.51100000000E-03 0. -1.
    9900012    2    1    2    0    0 -0.34089684005E+02 -0.18896444037E+02 -0.19090339698E+02  0.47787271636E+02  0.20000002696E+02 0.  0.
        -12    1    1    2    0    0  0.34089684005E+02  0.18896444037E+02  0.19090339698E+02  0.43400728364E+02  0.00000000000E+00 0.  1.
         11    1    3    3    0    0 -0.18384527440E+02 -0.17446056796E+02 -0.16440028054E+02  0.30209771095E+02  0.51100000000E-03 0. -1.
        -11    1    3    3    0    0 -0.91796235711E+01 -0.42957345614E+01 -0.25800132575E+01  0.10458264340E+02  0.51100000000E-03 0.  1.
         12    1    3    3    0    0 -0.65255329933E+01  0.28453473205E+01 -0.70298386074E-01  0.71192362009E+01  0.00000000000E+00 0. -1.
</event>
<event>
 7    1  0.1400974E-009  0.4778727E+02  0.7816164E-02  0.1312668E+00
        -11   -1    0    0    0    0  0.00000000000E+00  0.00000000000E+00  0.45593999997E+02  0.45594000000E+02  0.51100000000E-03 0. -1.
         11   -1    0    0    0    0 -0.00000000000E+00 -0.00000000000E+00 -0.45593999997E+02  0.45594000000E+02  0.51100000000E-03 0.  1.
    9900012    2    1    2    0    0  0.31375690663E+02 -0.28724315404E+02 -0.86083110744E+01  0.47787270979E+02  0.19999999703E+02 0.  0.
        -12    1    1    2    0    0 -0.31375690663E+02  0.28724315404E+02  0.86083110744E+01  0.43400729021E+02  0.00000000000E+00 0.  1.
         11    1    3    3    0    0  0.11501664161E+02 -0.52823825392E+01  0.96365966569E-01  0.12657058522E+02  0.51100000000E-03 0. -1.
        -11    1    3    3    0    0  0.12229290573E+02 -0.14696413909E+02  0.21405368037E+01  0.19238555761E+02  0.51100000000E-03 0.  1.
        -12    1    3    3    0    0  0.76447359293E+01 -0.87455189560E+01 -0.10845213845E+02  0.15891656697E+02  0.00000000000E+00 0.  1.
</event>
<event>
 7    1  0.1400974E-009  0.4778728E+02  0.7816164E-02  0.1312668E+00
        -11   -1    0    0    0    0  0.00000000000E+00  0.00000000000E+00  0.45593999997E+02  0.45594000000E+02  0.51100000000E-03 0.  1.
         11   -1    0    0    0    0 -0.00000000000E+00 -0.00000000000E+00 -0.45593999997E+02  0.45594000000E+02  0.51100000000E-03 0. -1.
    9900012    2    1    2    0    0  0.39520999342E+02  0.17352302381E+02 -0.45399048239E+01  0.47787279699E+02  0.20000039457E+02 0.  0.
        -12    1    1    2    0    0 -0.39520999342E+02 -0.17352302381E+02  0.45399048239E+01  0.43400720301E+02  0.00000000000E+00 0.  1.
         11    1    3    3    0    0  0.93622453752E+01 -0.24697018617E+01 -0.47555177002E+01  0.10787308034E+02  0.51100000000E-03 0. -1.
        -11    1    3    3    0    0  0.20984449655E+02  0.93738135284E+01  0.15285511739E+01  0.23033713907E+02  0.51100000000E-03 0.  1.
        -12    1    3    3    0    0  0.91743043116E+01  0.10448190714E+02 -0.13129382975E+01  0.13966257758E+02  0.00000000000E+00 0.  1.
</event>
<event>
 7    1  0.1400974E-009  0.4778727E+02  0.7816164E-02  0.1312668E+00
        -11   -1    0    0    0    0  0.00000000000E+00  0.00000000000E+00  0.45593999997E+02  0.45594000000E+02  0.51100000000E-03 0.  1.
         11   -1    0    0    0    0 -0.00000000000E+00 -0.00000000000E+00 -0.45593999997E+02  0.45594000000E+02  0.51100000000E-03 0. -1.
    9900012    2    1    2    0    0  0.18257904651E+02  0.14954142056E+02 -0.36423146435E+02  0.47787273703E+02  0.20000012123E+02 0.  0.
        -12    1    1    2    0    0 -0.18257904651E+02 -0.14954142056E+02  0.36423146435E+02  0.43400726297E+02  0.00000000000E+00 0.  1.
         11    1    3    3    0    0  0.77490005619E+01  0.85114987089E+01 -0.19746624280E+02  0.22856548092E+02  0.51100000000E-03 0. -1.
        -11    1    3    3    0    0  0.13072552900E+02  0.81926791653E+01 -0.13940120317E+02  0.20792753208E+02  0.51100000000E-03 0.  1.
        -12    1    3    3    0    0 -0.25636488113E+01 -0.17500358181E+01 -0.27364018374E+01  0.41379724030E+01  0.00000000000E+00 0.  1.
</event>
<event>
 7    1  0.1400974E-009  0.4778726E+02  0.7816164E-02  0.1312668E+00
        -11   -1    0    0    0    0  0.00000000000E+00  0.00000000000E+00  0.45593999997E+02  0.45594000000E+02  0.51100000000E-03 0. -1.
         11   -1    0    0    0    0 -0.00000000000E+00 -0.00000000000E+00 -0.45593999997E+02  0.45594000000E+02  0.51100000000E-03 0.  1.
    9900012    2    1    2    0    0 -0.63048176686E+01  0.39942286562E+02  0.15763470205E+02  0.47787262972E+02  0.19999963195E+02 0.  0.
        -12    1    1    2    0    0  0.63048176686E+01 -0.39942286562E+02 -0.15763470205E+02  0.43400737028E+02  0.00000000000E+00 0.  1.
         11    1    3    3    0    0  0.10040191054E+01  0.89788088597E+01  0.69616654999E+01  0.11405781415E+02  0.51100000000E-03 0. -1.
        -11    1    3    3    0    0  0.30532965050E+01  0.19784684382E+02  0.58441514546E+01  0.20854506998E+02  0.51100000000E-03 0.  1.
         12    1    3    3    0    0 -0.10362133279E+02  0.11178793320E+02  0.29576532504E+01  0.15526974559E+02  0.00000000000E+00 0. -1.
</event>
<event>
 7    1  0.1400974E-009  0.4778727E+02  0.7816164E-02  0.1312668E+00
        -11   -1    0    0    0    0  0.00000000000E+00  0.00000000000E+00  0.45593999997E+02  0.45594000000E+02  0.51100000000E-03 0.  1.
         11   -1    0    0    0    0 -0.00000000000E+00 -0.00000000000E+00 -0.45593999997E+02  0.45594000000E+02  0.51100000000E-03 0. -1.
    9900012    2    1    2    0    0  0.24583672169E+02 -0.27735907610E+02 -0.22582866580E+02  0.47787269923E+02  0.19999994886E+02 0.  0.
        -12    1    1    2    0    0 -0.24583672169E+02  0.27735907610E+02  0.22582866580E+02  0.43400730077E+02  0.00000000000E+00 0.  1.
         11    1    3    3    0    0  0.17609875894E+02 -0.22250331826E+02 -0.89771475982E+01  0.29761958515E+02  0.51100000000E-03 0. -1.
        -11    1    3    3    0    0  0.20349420763E+01  0.14947275896E+01 -0.84112066925E+00  0.26613312575E+01  0.51100000000E-03 0.  1.
         12    1    3    3    0    0  0.49388541991E+01 -0.69803033733E+01 -0.12764598312E+02  0.15363980150E+02  0.00000000000E+00 0. -1.
</event>
<event>
 7    1  0.1400974E-009  0.4778726E+02  0.7816164E-02  0.1312668E+00
        -11   -1    0    0    0    0  0.00000000000E+00  0.00000000000E+00  0.45593999997E+02  0.45594000000E+02  0.51100000000E-03 0. -1.
         11   -1    0    0    0    0 -0.00000000000E+00 -0.00000000000E+00 -0.45593999997E+02  0.45594000000E+02  0.51100000000E-03 0.  1.
    9900012    2    1    2    0    0 -0.41872687247E+02  0.87653125222E+01 -0.73124436414E+01  0.47787257231E+02  0.19999937021E+02 0.  0.
        -12    1    1    2    0    0  0.41872687247E+02 -0.87653125222E+01  0.73124436414E+01  0.43400742769E+02  0.00000000000E+00 0.  1.
         11    1    3    3    0    0 -0.18473974976E+02  0.33070453925E+01 -0.64176567361E+00  0.18778609216E+02  0.51100000000E-03 0. -1.
        -11    1    3    3    0    0 -0.13135584774E+00 -0.28266035243E+01 -0.28506660193E+01  0.40166203277E+01  0.51100000000E-03 0.  1.
        -12    1    3    3    0    0 -0.23267356423E+02  0.82848706540E+01 -0.38200119486E+01  0.24992027688E+02  0.00000000000E+00 0.  1.
</event>
<event>
 7    1  0.1400974E-009  0.4778727E+02  0.7816164E-02  0.1312668E+00
        -11   -1    0    0    0    0  0.00000000000E+00  0.00000000000E+00  0.45593999997E+02  0.45594000000E+02  0.51100000000E-03 0. -1.
         11   -1    0    0    0    0 -0.00000000000E+00 -0.00000000000E+00 -0.45593999997E+02  0.45594000000E+02  0.51100000000E-03 0.  1.
    9900012    2    1    2    0    0  0.30055492060E+02 -0.92433742680E+01  0.29914051032E+02  0.47787273969E+02  0.20000013335E+02 0.  0.
        -12    1    1    2    0    0 -0.30055492060E+02  0.92433742680E+01 -0.29914051032E+02  0.43400726031E+02  0.00000000000E+00 0.  1.
         11    1    3    3    0    0  0.14571006713E+02 -0.75599677969E+00  0.13742281898E+02  0.20043355003E+02  0.51100000000E-03 0. -1.
        -11    1    3    3    0    0  0.89349905995E+01  0.13230785744E+01  0.19029898656E+01  0.92307076986E+01  0.51100000000E-03 0.  1.
         12    1    3    3    0    0  0.65494947482E+01 -0.98104560628E+01  0.14268779269E+02  0.18513211268E+02  0.00000000000E+00 0. -1.
</event>
<event>
 7    1  0.1400974E-009  0.4778726E+02  0.7816164E-02  0.1312668E+00
        -11   -1    0    0    0    0  0.00000000000E+00  0.00000000000E+00  0.45593999997E+02  0.45594000000E+02  0.51100000000E-03 0.  1.
         11   -1    0    0    0    0 -0.00000000000E+00 -0.00000000000E+00 -0.45593999997E+02  0.45594000000E+02  0.51100000000E-03 0. -1.
    9900012    2    1    2    0    0 -0.25513255790E+02  0.31406378309E+02 -0.15695136014E+02  0.47787261366E+02  0.19999955874E+02 0.  0.
        -12    1    1    2    0    0  0.25513255790E+02 -0.31406378309E+02  0.15695136014E+02  0.43400738634E+02  0.00000000000E+00 0.  1.
         11    1    3    3    0    0 -0.14225659014E+02  0.26722750880E+02 -0.10709719891E+02  0.32111880814E+02  0.51100000000E-03 0. -1.
        -11    1    3    3    0    0  0.10032476281E+01 -0.72224370127E+00 -0.12047108799E+01  0.17261142293E+01  0.51100000000E-03 0.  1.
        -12    1    3    3    0    0 -0.12290844404E+02  0.54058711302E+01 -0.37807052427E+01  0.13949266324E+02  0.00000000000E+00 0.  1.
</event>
<event>
 7    1  0.1400974E-009  0.4778727E+02  0.7816164E-02  0.1312668E+00
        -11   -1    0    0    0    0  0.00000000000E+00  0.00000000000E+00  0.45593999997E+02  0.45594000000E+02  0.51100000000E-03 0.  1.
         11   -1    0    0    0    0 -0.00000000000E+00 -0.00000000000E+00 -0.45593999997E+02  0.45594000000E+02  0.51100000000E-03 0. -1.
    9900012    2    1    2    0    0 -0.14888473939E+02  0.31571432123E+02 -0.25791490373E+02  0.47787274681E+02  0.20000016582E+02 0.  0.
        -12    1    1    2    0    0  0.14888473939E+02 -0.31571432123E+02  0.25791490373E+02  0.43400725319E+02  0.00000000000E+00 0.  1.
         11    1    3    3    0    0  0.12545999939E+01  0.91155936069E+01 -0.79857192569E+01  0.12183586511E+02  0.51100000000E-03 0. -1.
        -11    1    3    3    0    0 -0.97315668970E+01  0.60139341881E+01 -0.12992825033E+02  0.17311392240E+02  0.51100000000E-03 0.  1.
        -12    1    3    3    0    0 -0.64115070358E+01  0.16441904328E+02 -0.48129460824E+01  0.18292295930E+02  0.00000000000E+00 0.  1.
</event>
<event>
 7    1  0.1400974E-009  0.4778727E+02  0.7816164E-02  0.1312668E+00
        -11   -1    0    0    0    0  0.00000000000E+00  0.00000000000E+00  0.45593999997E+02  0.45594000000E+02  0.51100000000E-03 0.  1.
         11   -1    0    0    0    0 -0.00000000000E+00 -0.00000000000E+00 -0.45593999997E+02  0.45594000000E+02  0.51100000000E-03 0. -1.
    9900012    2    1    2    0    0 -0.20682208295E+02 -0.33216816303E+02 -0.18775325449E+02  0.47787268774E+02  0.19999989647E+02 0.  0.
        -12    1    1    2    0    0  0.20682208295E+02  0.33216816303E+02  0.18775325449E+02  0.43400731226E+02  0.00000000000E+00 0.  1.
         11    1    3    3    0    0 -0.13205974623E+01 -0.95741107190E+01 -0.20954938170E+01  0.98893209228E+01  0.51100000000E-03 0. -1.
        -11    1    3    3    0    0  0.21478464077E+01 -0.52436386369E+01 -0.36290582207E+01  0.67289712569E+01  0.51100000000E-03 0.  1.
        -12    1    3    3    0    0 -0.21509457241E+02 -0.18399066947E+02 -0.13050773411E+02  0.31168976594E+02  0.00000000000E+00 0.  1.
</event>
<event>
 7    1  0.1400974E-009  0.4778728E+02  0.7816164E-02  0.1312668E+00
        -11   -1    0    0    0    0  0.00000000000E+00  0.00000000000E+00  0.45593999997E+02  0.45594000000E+02  0.51100000000E-03 0.  1.
         11   -1    0    0    0    0 -0.00000000000E+00 -0.00000000000E+00 -0.45593999997E+02  0.45594000000E+02  0.51100000000E-03 0. -1.
    9900012    2    1    2    0    0 -0.31132016185E+02 -0.13275639079E+02 -0.27169427990E+02  0.47787276020E+02  0.20000022685E+02 0.  0.
        -12    1    1    2    0    0  0.31132016185E+02  0.13275639079E+02  0.27169427990E+02  0.43400723980E+02  0.00000000000E+00 0.  1.
         11    1    3    3    0    0 -0.59859499993E+01 -0.22100334235E+01 -0.10816844114E+02  0.12558660835E+02  0.51100000000E-03 0. -1.
        -11    1    3    3    0    0 -0.51004759398E+01 -0.65188600962E+01  0.98863159285E+00  0.83359333283E+01  0.51100000000E-03 0.  1.
         12    1    3    3    0    0 -0.20045590246E+02 -0.45467455590E+01 -0.17341215469E+02  0.26892681857E+02  0.00000000000E+00 0. -1.
</event>
<event>
 7    1  0.1400974E-009  0.4778727E+02  0.7816164E-02  0.1312668E+00
        -11   -1    0    0    0    0  0.00000000000E+00  0.00000000000E+00  0.45593999997E+02  0.45594000000E+02  0.51100000000E-03 0.  1.
         11   -1    0    0    0    0 -0.00000000000E+00 -0.00000000000E+00 -0.45593999997E+02  0.45594000000E+02  0.51100000000E-03 0. -1.
    9900012    2    1    2    0    0  0.27760371458E+02 -0.10090943200E+02 -0.31798706339E+02  0.47787273243E+02  0.20000010024E+02 0.  0.
        -12    1    1    2    0    0 -0.27760371458E+02  0.10090943200E+02  0.31798706339E+02  0.43400726757E+02  0.00000000000E+00 0.  1.
         11    1    3    3    0    0  0.18160462170E+01  0.10986770366E+01  0.75092639651E+00  0.22514452707E+01  0.51100000000E-03 0. -1.
        -11    1    3    3    0    0  0.24677692580E+01 -0.14727280930E+01  0.13469050283E+01  0.31737937178E+01  0.51100000000E-03 0.  1.
         12    1    3    3    0    0  0.23476555983E+02 -0.97168921436E+01 -0.33896537764E+02  0.42362034254E+02  0.00000000000E+00 0. -1.
</event>
<event>
 7    1  0.1400974E-009  0.4778727E+02  0.7816164E-02  0.1312668E+00
        -11   -1    0    0    0    0  0.00000000000E+00  0.00000000000E+00  0.45593999997E+02  0.45594000000E+02  0.51100000000E-03 0.  1.
         11   -1    0    0    0    0 -0.00000000000E+00 -0.00000000000E+00 -0.45593999997E+02  0.45594000000E+02  0.51100000000E-03 0. -1.
    9900012    2    1    2    0    0 -0.15913031165E+02 -0.13201705467E+02 -0.38159056624E+02  0.47787272004E+02  0.20000004375E+02 0.  0.
        -12    1    1    2    0    0  0.15913031165E+02  0.13201705467E+02  0.38159056624E+02  0.43400727996E+02  0.00000000000E+00 0.  1.
         11    1    3    3    0    0 -0.84808277517E+01 -0.20318880336E+01 -0.12146053532E+02  0.14952579209E+02  0.51100000000E-03 0. -1.
        -11    1    3    3    0    0  0.14468197071E+01  0.16170952867E+01  0.37011395320E+00  0.22011971812E+01  0.51100000000E-03 0.  1.
         12    1    3    3    0    0 -0.88790231206E+01 -0.12786912720E+02 -0.26383117045E+02  0.30633495614E+02  0.00000000000E+00 0. -1.
</event>
<event>
 7    1  0.1400974E-009  0.4778727E+02  0.7816164E-02  0.1312668E+00
        -11   -1    0    0    0    0  0.00000000000E+00  0.00000000000E+00  0.45593999997E+02  0.45594000000E+02  0.51100000000E-03 0.  1.
         11   -1    0    0    0    0 -0.00000000000E+00 -0.00000000000E+00 -0.45593999997E+02  0.45594000000E+02  0.51100000000E-03 0. -1.
    9900012    2    1    2    0    0 -0.19028821827E+02 -0.38453262752E+02  0.65478095178E+01  0.47787270906E+02  0.19999999370E+02 0.  0.
        -12    1    1    2    0    0  0.19028821827E+02  0.38453262752E+02 -0.65478095178E+01  0.43400729094E+02  0.00000000000E+00 0.  1.
         11    1    3    3    0    0 -0.21917402952E+02 -0.30038823516E+02  0.53130243859E+01  0.37562370782E+02  0.51100000000E-03 0. -1.
        -11    1    3    3    0    0  0.37785946399E+00 -0.13839638854E+01 -0.16813471426E+01  0.22102177010E+01  0.51100000000E-03 0.  1.
        -12    1    3    3    0    0  0.25107216605E+01 -0.70304753501E+01  0.29161322746E+01  0.80146824234E+01  0.00000000000E+00 0.  1.
</event>
<event>
 7    1  0.1400974E-009  0.4778727E+02  0.7816164E-02  0.1312668E+00
        -11   -1    0    0    0    0  0.00000000000E+00  0.00000000000E+00  0.45593999997E+02  0.45594000000E+02  0.51100000000E-03 0.  1.
         11   -1    0    0    0    0 -0.00000000000E+00 -0.00000000000E+00 -0.45593999997E+02  0.45594000000E+02  0.51100000000E-03 0. -1.
    9900012    2    1    2    0    0 -0.25896577591E+02 -0.31102581200E+02 -0.15672266053E+02  0.47787271764E+02  0.20000003279E+02 0.  0.
        -12    1    1    2    0    0  0.25896577591E+02  0.31102581200E+02  0.15672266053E+02  0.43400728236E+02  0.00000000000E+00 0.  1.
         11    1    3    3    0    0 -0.82838420405E+01 -0.10151160849E+02 -0.87325220507E+01  0.15745635813E+02  0.51100000000E-03 0. -1.
        -11    1    3    3    0    0 -0.51210790551E+01 -0.70630204785E+01  0.48213850537E+01  0.99678213801E+01  0.51100000000E-03 0.  1.
        -12    1    3    3    0    0 -0.12491656495E+02 -0.13888399872E+02 -0.11761129056E+02  0.22073814570E+02  0.00000000000E+00 0.  1.
</event>
<event>
 7    1  0.1400974E-009  0.4778727E+02  0.7816164E-02  0.1312668E+00
        -11   -1    0    0    0    0  0.00000000000E+00  0.00000000000E+00  0.45593999997E+02  0.45594000000E+02  0.51100000000E-03 0. -1.
         11   -1    0    0    0    0 -0.00000000000E+00 -0.00000000000E+00 -0.45593999997E+02  0.45594000000E+02  0.51100000000E-03 0.  1.
    9900012    2    1    2    0    0  0.38933845420E+02 -0.45702866106E+01 -0.18625022762E+02  0.47787270608E+02  0.19999998010E+02 0.  0.
        -12    1    1    2    0    0 -0.38933845420E+02  0.45702866106E+01  0.18625022762E+02  0.43400729392E+02  0.00000000000E+00 0.  1.
         11    1    3    3    0    0  0.16997531265E+02 -0.17431892654E+01 -0.84586185963E-02  0.17086686330E+02  0.51100000000E-03 0. -1.
        -11    1    3    3    0    0  0.18050517912E+02  0.11444743804E+01 -0.10655136802E+02  0.20991973681E+02  0.51100000000E-03 0.  1.
        -12    1    3    3    0    0  0.38857962425E+01 -0.39715717256E+01 -0.79614273410E+01  0.97086105966E+01  0.00000000000E+00 0.  1.
</event>
<event>
 7    1  0.1400974E-009  0.4778726E+02  0.7816164E-02  0.1312668E+00
        -11   -1    0    0    0    0  0.00000000000E+00  0.00000000000E+00  0.45593999997E+02  0.45594000000E+02  0.51100000000E-03 0. -1.
         11   -1    0    0    0    0 -0.00000000000E+00 -0.00000000000E+00 -0.45593999997E+02  0.45594000000E+02  0.51100000000E-03 0.  1.
    9900012    2    1    2    0    0  0.21978794001E+02 -0.29234590982E+02  0.23364398577E+02  0.47787264793E+02  0.19999971499E+02 0.  0.
        -12    1    1    2    0    0 -0.21978794001E+02  0.29234590982E+02 -0.23364398577E+02  0.43400735207E+02  0.00000000000E+00 0.  1.
         11    1    3    3    0    0  0.83286975755E+01 -0.13833289971E+02  0.28036809200E+01  0.16388646731E+02  0.51100000000E-03 0. -1.
        -11    1    3    3    0    0  0.85388651834E+01 -0.13715278960E+01  0.58746924306E+01  0.10454918403E+02  0.51100000000E-03 0.  1.
         12    1    3    3    0    0  0.51112312421E+01 -0.14029773115E+02  0.14686025227E+02  0.20943699660E+02  0.00000000000E+00 0. -1.
</event>
<event>
 7    1  0.1400974E-009  0.4778727E+02  0.7816164E-02  0.1312668E+00
        -11   -1    0    0    0    0  0.00000000000E+00  0.00000000000E+00  0.45593999997E+02  0.45594000000E+02  0.51100000000E-03 0. -1.
         11   -1    0    0    0    0 -0.00000000000E+00 -0.00000000000E+00 -0.45593999997E+02  0.45594000000E+02  0.51100000000E-03 0.  1.
    9900012    2    1    2    0    0  0.40450528372E+02 -0.11313909623E+02  0.10925817172E+02  0.47787271003E+02  0.19999999813E+02 0.  0.
        -12    1    1    2    0    0 -0.40450528372E+02  0.11313909623E+02 -0.10925817172E+02  0.43400728997E+02  0.00000000000E+00 0.  1.
         11    1    3    3    0    0  0.16248820051E+02 -0.14193261033E+02  0.59031189570E+01  0.22367825676E+02  0.51100000000E-03 0. -1.
        -11    1    3    3    0    0  0.31049176095E+01  0.13539362959E+01 -0.80061855661E+00  0.34806101749E+01  0.51100000000E-03 0.  1.
        -12    1    3    3    0    0  0.21096790712E+02  0.15254151142E+01  0.58233167719E+01  0.21938835153E+02  0.00000000000E+00 0.  1.
</event>
<event>
 7    1  0.1400974E-009  0.4778727E+02  0.7816164E-02  0.1312668E+00
        -11   -1    0    0    0    0  0.00000000000E+00  0.00000000000E+00  0.45593999997E+02  0.45594000000E+02  0.51100000000E-03 0.  1.
         11   -1    0    0    0    0 -0.00000000000E+00 -0.00000000000E+00 -0.45593999997E+02  0.45594000000E+02  0.51100000000E-03 0. -1.
    9900012    2    1    2    0    0 -0.20671378944E+02 -0.14285279101E+02 -0.35387118768E+02  0.47787270961E+02  0.19999999620E+02 0.  0.
        -12    1    1    2    0    0  0.20671378944E+02  0.14285279101E+02  0.35387118768E+02  0.43400729039E+02  0.00000000000E+00 0.  1.
         11    1    3    3    0    0 -0.73413917244E+01 -0.10167463296E+02 -0.10697617811E+02  0.16483700113E+02  0.51100000000E-03 0. -1.
        -11    1    3    3    0    0  0.22535081162E+01 -0.24175533946E+00 -0.72541878075E+01  0.75999990448E+01  0.51100000000E-03 0.  1.
        -12    1    3    3    0    0 -0.15583495336E+02 -0.38760604654E+01 -0.17435313149E+02  0.23703571803E+02  0.00000000000E+00 0.  1.
</event>
<event>
 7    1  0.1400974E-009  0.4778727E+02  0.7816164E-02  0.1312668E+00
        -11   -1    0    0    0    0  0.00000000000E+00  0.00000000000E+00  0.45593999997E+02  0.45594000000E+02  0.51100000000E-03 0.  1.
         11   -1    0    0    0    0 -0.00000000000E+00 -0.00000000000E+00 -0.45593999997E+02  0.45594000000E+02  0.51100000000E-03 0. -1.
    9900012    2    1    2    0    0  0.99189755861E+01 -0.38459021879E+02 -0.17496877119E+02  0.47787272477E+02  0.20000006533E+02 0.  0.
        -12    1    1    2    0    0 -0.99189755861E+01  0.38459021879E+02  0.17496877119E+02  0.43400727523E+02  0.00000000000E+00 0.  1.
         11    1    3    3    0    0  0.80396652681E+01 -0.28937081802E+01 -0.41633069008E+01  0.95048876515E+01  0.51100000000E-03 0. -1.
        -11    1    3    3    0    0  0.36555833229E+00 -0.11122720481E+02 -0.20393169976E+01  0.11314033669E+02  0.51100000000E-03 0.  1.
         12    1    3    3    0    0  0.15137519857E+01 -0.24442593218E+02 -0.11294253221E+02  0.26968351157E+02  0.00000000000E+00 0. -1.
</event>
<event>
 7    1  0.1400974E-009  0.4778727E+02  0.7816164E-02  0.1312668E+00
        -11   -1    0    0    0    0  0.00000000000E+00  0.00000000000E+00  0.45593999997E+02  0.45594000000E+02  0.51100000000E-03 0. -1.
         11   -1    0    0    0    0 -0.00000000000E+00 -0.00000000000E+00 -0.45593999997E+02  0.45594000000E+02  0.51100000000E-03 0.  1.
    9900012    2    1    2    0    0 -0.19259421232E+02  0.19134138556E+02  0.33861226171E+02  0.47787271869E+02  0.20000003762E+02 0.  0.
        -12    1    1    2    0    0  0.19259421232E+02 -0.19134138556E+02 -0.33861226171E+02  0.43400728131E+02  0.00000000000E+00 0.  1.
         11    1    3    3    0    0 -0.68939378127E+01  0.59396330919E+01  0.13645826855E+02  0.16401652681E+02  0.51100000000E-03 0. -1.
        -11    1    3    3    0    0 -0.46781842546E+00  0.32762992693E+01 -0.23189548853E+01  0.40411066557E+01  0.51100000000E-03 0.  1.
        -12    1    3    3    0    0 -0.11897664994E+02  0.99182061951E+01  0.22534354201E+02  0.27344512533E+02  0.00000000000E+00 0.  1.
</event>
<event>
 7    1  0.1400974E-009  0.4778727E+02  0.7816164E-02  0.1312668E+00
        -11   -1    0    0    0    0  0.00000000000E+00  0.00000000000E+00  0.45593999997E+02  0.45594000000E+02  0.51100000000E-03 0.  1.
         11   -1    0    0    0    0 -0.00000000000E+00 -0.00000000000E+00 -0.45593999997E+02  0.45594000000E+02  0.51100000000E-03 0. -1.
    9900012    2    1    2    0    0  0.10670173315E+02  0.10180968845E+02 -0.40818113449E+02  0.47787272924E+02  0.20000008571E+02 0.  0.
        -12    1    1    2    0    0 -0.10670173315E+02 -0.10180968845E+02  0.40818113449E+02  0.43400727076E+02  0.00000000000E+00 0.  1.
         11    1    3    3    0    0  0.92632536529E+01  0.83518447074E+01 -0.21045460723E+02  0.24463699548E+02  0.51100000000E-03 0. -1.
        -11    1    3    3    0    0  0.32431979129E+01 -0.15187443159E+01 -0.42916552270E+00  0.36068130401E+01  0.51100000000E-03 0.  1.
         12    1    3    3    0    0 -0.18362782508E+01  0.33478684536E+01 -0.19343487203E+02  0.19716760337E+02  0.00000000000E+00 0. -1.
</event>
<event>
 7    1  0.1400974E-009  0.4778727E+02  0.7816164E-02  0.1312668E+00
        -11   -1    0    0    0    0  0.00000000000E+00  0.00000000000E+00  0.45593999997E+02  0.45594000000E+02  0.51100000000E-03 0.  1.
         11   -1    0    0    0    0 -0.00000000000E+00 -0.00000000000E+00 -0.45593999997E+02  0.45594000000E+02  0.51100000000E-03 0. -1.
    9900012    2    1    2    0    0  0.18218753999E+02 -0.10815729551E+02 -0.37877701334E+02  0.47787271189E+02  0.20000000658E+02 0.  0.
        -12    1    1    2    0    0 -0.18218753999E+02  0.10815729551E+02  0.37877701334E+02  0.43400728811E+02  0.00000000000E+00 0.  1.
         11    1    3    3    0    0  0.31116363798E+01 -0.41350979679E+01 -0.26617261832E+01  0.58194589697E+01  0.51100000000E-03 0. -1.
        -11    1    3    3    0    0  0.61907055187E+01  0.28357934388E+01 -0.34589734283E+01  0.76374771152E+01  0.51100000000E-03 0.  1.
         12    1    3    3    0    0  0.89164121003E+01 -0.95164250223E+01 -0.31757001722E+02  0.34330335104E+02  0.00000000000E+00 0. -1.
</event>
<event>
 7    1  0.1400974E-009  0.4778727E+02  0.7816164E-02  0.1312668E+00
        -11   -1    0    0    0    0  0.00000000000E+00  0.00000000000E+00  0.45593999997E+02  0.45594000000E+02  0.51100000000E-03 0.  1.
         11   -1    0    0    0    0 -0.00000000000E+00 -0.00000000000E+00 -0.45593999997E+02  0.45594000000E+02  0.51100000000E-03 0. -1.
    9900012    2    1    2    0    0  0.23118062767E+02 -0.36719591078E+02  0.92201109933E+00  0.47787270749E+02  0.19999998653E+02 0.  0.
        -12    1    1    2    0    0 -0.23118062767E+02  0.36719591078E+02 -0.92201109933E+00  0.43400729251E+02  0.00000000000E+00 0.  1.
         11    1    3    3    0    0  0.13703237742E+02 -0.12096001880E+02  0.17475471858E+01  0.18361533365E+02  0.51100000000E-03 0. -1.
        -11    1    3    3    0    0  0.99508735090E+01 -0.25475237727E+02 -0.25088568222E+01  0.27464558683E+02  0.51100000000E-03 0.  1.
        -12    1    3    3    0    0 -0.53604848396E+00  0.85164852939E+00  0.16833207357E+01  0.19611787002E+01  0.00000000000E+00 0.  1.
</event>
<event>
 7    1  0.1400974E-009  0.4778731E+02  0.7816164E-02  0.1312668E+00
        -11   -1    0    0    0    0  0.00000000000E+00  0.00000000000E+00  0.45593999997E+02  0.45594000000E+02  0.51100000000E-03 0.  1.
         11   -1    0    0    0    0 -0.00000000000E+00 -0.00000000000E+00 -0.45593999997E+02  0.45594000000E+02  0.51100000000E-03 0. -1.
    9900012    2    1    2    0    0 -0.38899362555E+01  0.47127377387E+01 -0.42968345923E+02  0.47787305853E+02  0.20000158706E+02 0.  0.
        -12    1    1    2    0    0  0.38899362555E+01 -0.47127377387E+01  0.42968345923E+02  0.43400694147E+02  0.00000000000E+00 0.  1.
         11    1    3    3    0    0  0.34398755433E+01 -0.25064718800E+01 -0.11457304132E+02  0.12222314154E+02  0.51100000000E-03 0. -1.
        -11    1    3    3    0    0 -0.10590327476E+02  0.34967945253E+01 -0.25100755561E+02  0.27466898951E+02  0.51100000000E-03 0.  1.
         12    1    3    3    0    0  0.32605156767E+01  0.37224150935E+01 -0.64102862299E+01  0.80980927480E+01  0.00000000000E+00 0. -1.
</event>
<event>
 7    1  0.1400974E-009  0.4778727E+02  0.7816164E-02  0.1312668E+00
        -11   -1    0    0    0    0  0.00000000000E+00  0.00000000000E+00  0.45593999997E+02  0.45594000000E+02  0.51100000000E-03 0. -1.
         11   -1    0    0    0    0 -0.00000000000E+00 -0.00000000000E+00 -0.45593999997E+02  0.45594000000E+02  0.51100000000E-03 0.  1.
    9900012    2    1    2    0    0 -0.34721810311E+02 -0.24410310105E+02  0.90639749013E+01  0.47787274295E+02  0.20000014821E+02 0.  0.
        -12    1    1    2    0    0  0.34721810311E+02  0.24410310105E+02 -0.90639749013E+01  0.43400725705E+02  0.00000000000E+00 0.  1.
         11    1    3    3    0    0 -0.22466208386E+02 -0.22227817738E+02  0.35960781461E+01  0.31807832038E+02  0.51100000000E-03 0. -1.
        -11    1    3    3    0    0 -0.77064067942E+00 -0.14442599323E+01  0.40691543086E+01  0.43860906121E+01  0.51100000000E-03 0.  1.
        -12    1    3    3    0    0 -0.11484961246E+02 -0.73823243462E+00  0.13987424466E+01  0.11593351646E+02  0.00000000000E+00 0.  1.
</event>
<event>
 7    1  0.1400974E-009  0.4778727E+02  0.7816164E-02  0.1312668E+00
        -11   -1    0    0    0    0  0.00000000000E+00  0.00000000000E+00  0.45593999997E+02  0.45594000000E+02  0.51100000000E-03 0.  1.
         11   -1    0    0    0    0 -0.00000000000E+00 -0.00000000000E+00 -0.45593999997E+02  0.45594000000E+02  0.51100000000E-03 0. -1.
    9900012    2    1    2    0    0 -0.23756054750E+02  0.19670146397E+02 -0.30534548693E+02  0.47787268895E+02  0.19999990201E+02 0.  0.
        -12    1    1    2    0    0  0.23756054750E+02 -0.19670146397E+02  0.30534548693E+02  0.43400731105E+02  0.00000000000E+00 0.  1.
         11    1    3    3    0    0 -0.81108554427E+01 -0.20126309355E+01 -0.95336997452E+01  0.12677858273E+02  0.51100000000E-03 0. -1.
        -11    1    3    3    0    0 -0.18540209201E+01  0.17848979626E+01  0.62362380269E+00  0.26480485678E+01  0.51100000000E-03 0.  1.
        -12    1    3    3    0    0 -0.13791178387E+02  0.19897879370E+02 -0.21624472750E+02  0.32461362055E+02  0.00000000000E+00 0.  1.
</event>
<event>
 7    1  0.1400974E-009  0.4778727E+02  0.7816164E-02  0.1312668E+00
        -11   -1    0    0    0    0  0.00000000000E+00  0.00000000000E+00  0.45593999997E+02  0.45594000000E+02  0.51100000000E-03 0. -1.
         11   -1    0    0    0    0 -0.00000000000E+00 -0.00000000000E+00 -0.45593999997E+02  0.45594000000E+02  0.51100000000E-03 0.  1.
    9900012    2    1    2    0    0 -0.61667582701E+00 -0.27946645950E+02  0.33199821048E+02  0.47787269286E+02  0.19999991983E+02 0.  0.
        -12    1    1    2    0    0  0.61667582701E+00  0.27946645950E+02 -0.33199821048E+02  0.43400730714E+02  0.00000000000E+00 0.  1.
         11    1    3    3    0    0  0.49495062399E+01 -0.62465868096E+01  0.85488181618E+01  0.11687589615E+02  0.51100000000E-03 0. -1.
        -11    1    3    3    0    0 -0.41654889044E+01  0.26220296645E+00  0.56533517978E+01  0.70271213893E+01  0.51100000000E-03 0.  1.
         12    1    3    3    0    0 -0.14006931625E+01 -0.21962262107E+02  0.18997651088E+02  0.29072558282E+02  0.00000000000E+00 0. -1.
</event>
<event>
 7    1  0.1801432E-009  0.4778727E+02  0.7816164E-02  0.1312668E+00
        -11   -1    0    0    0    0  0.00000000000E+00  0.00000000000E+00  0.45593999997E+02  0.45594000000E+02  0.51100000000E-03 0. -1.
         11   -1    0    0    0    0 -0.00000000000E+00 -0.00000000000E+00 -0.45593999997E+02  0.45594000000E+02  0.51100000000E-03 0.  1.
    9900012    2    1    2    0    0  0.41077813823E+02 -0.24190552550E+01  0.13797997192E+02  0.47787270244E+02  0.19999996353E+02 0.  0.
        -12    1    1    2    0    0 -0.41077813823E+02  0.24190552550E+01 -0.13797997192E+02  0.43400729756E+02  0.00000000000E+00 0.  1.
         11    1    3    3    0    0  0.21937373363E+02 -0.83318595896E+01  0.17886108001E+01  0.23534386823E+02  0.51100000000E-03 0. -1.
        -11    1    3    3    0    0  0.39149405981E+01  0.33675691609E+01  0.91885151035E+00  0.52451473095E+01  0.51100000000E-03 0.  1.
         12    1    3    3    0    0  0.15225499862E+02  0.25452351738E+01  0.11090534881E+02  0.19007736112E+02  0.00000000000E+00 0. -1.
</event>
<event>
 7    1  0.1400974E-009  0.4778727E+02  0.7816164E-02  0.1312668E+00
        -11   -1    0    0    0    0  0.00000000000E+00  0.00000000000E+00  0.45593999997E+02  0.45594000000E+02  0.51100000000E-03 0. -1.
         11   -1    0    0    0    0 -0.00000000000E+00 -0.00000000000E+00 -0.45593999997E+02  0.45594000000E+02  0.51100000000E-03 0.  1.
    9900012    2    1    2    0    0  0.35812808933E+02  0.12530933464E+02  0.21072297867E+02  0.47787270576E+02  0.19999997862E+02 0.  0.
        -12    1    1    2    0    0 -0.35812808933E+02 -0.12530933464E+02 -0.21072297867E+02  0.43400729424E+02  0.00000000000E+00 0.  1.
         11    1    3    3    0    0  0.22039561562E+02  0.14041583718E+02  0.13606805862E+02  0.29462747890E+02  0.51100000000E-03 0. -1.
        -11    1    3    3    0    0  0.79795339856E+01  0.32438413549E+01  0.64505905343E+01  0.10761300473E+02  0.51100000000E-03 0.  1.
        -12    1    3    3    0    0  0.57937133853E+01 -0.47544916090E+01  0.10149014709E+01  0.75632222133E+01  0.00000000000E+00 0.  1.
</event>
<event>
 7    1  0.1400974E-009  0.4778727E+02  0.7816164E-02  0.1312668E+00
        -11   -1    0    0    0    0  0.00000000000E+00  0.00000000000E+00  0.45593999997E+02  0.45594000000E+02  0.51100000000E-03 0.  1.
         11   -1    0    0    0    0 -0.00000000000E+00 -0.00000000000E+00 -0.45593999997E+02  0.45594000000E+02  0.51100000000E-03 0. -1.
    9900012    2    1    2    0    0  0.34399668123E+01  0.28609021261E+02 -0.32454796149E+02  0.47787271178E+02  0.20000000611E+02 0.  0.
        -12    1    1    2    0    0 -0.34399668123E+01 -0.28609021261E+02  0.32454796149E+02  0.43400728822E+02  0.00000000000E+00 0.  1.
         11    1    3    3    0    0 -0.17509528132E+01  0.37928559228E+01  0.10436864501E+01  0.43059114566E+01  0.51100000000E-03 0. -1.
        -11    1    3    3    0    0  0.15302477215E+01  0.23255920664E+01  0.21206901726E+00  0.27919545265E+01  0.51100000000E-03 0.  1.
         12    1    3    3    0    0  0.36606719039E+01  0.22490573272E+02 -0.33710551616E+02  0.40689405195E+02  0.00000000000E+00 0. -1.
</event>
<event>
 7    1  0.1400974E-009  0.4778727E+02  0.7816164E-02  0.1312668E+00
        -11   -1    0    0    0    0  0.00000000000E+00  0.00000000000E+00  0.45593999997E+02  0.45594000000E+02  0.51100000000E-03 0.  1.
         11   -1    0    0    0    0 -0.00000000000E+00 -0.00000000000E+00 -0.45593999997E+02  0.45594000000E+02  0.51100000000E-03 0. -1.
    9900012    2    1    2    0    0 -0.31418033811E+02 -0.29937128037E+02  0.54660752012E+00  0.47787271165E+02  0.20000000548E+02 0.  0.
        -12    1    1    2    0    0  0.31418033811E+02  0.29937128037E+02 -0.54660752012E+00  0.43400728835E+02  0.00000000000E+00 0.  1.
         11    1    3    3    0    0 -0.35013155827E+01 -0.11114720610E+02  0.16779281389E+01  0.11773345665E+02  0.51100000000E-03 0. -1.
        -11    1    3    3    0    0 -0.56848378924E+01 -0.90221631120E+01 -0.43275899429E+01  0.11508468363E+02  0.51100000000E-03 0.  1.
        -12    1    3    3    0    0 -0.22231880336E+02 -0.98002443153E+01  0.31962693242E+01  0.24505457137E+02  0.00000000000E+00 0.  1.
</event>
<event>
 7    1  0.1400974E-009  0.4778727E+02  0.7816164E-02  0.1312668E+00
        -11   -1    0    0    0    0  0.00000000000E+00  0.00000000000E+00  0.45593999997E+02  0.45594000000E+02  0.51100000000E-03 0.  1.
         11   -1    0    0    0    0 -0.00000000000E+00 -0.00000000000E+00 -0.45593999997E+02  0.45594000000E+02  0.51100000000E-03 0. -1.
    9900012    2    1    2    0    0  0.12951944408E+02  0.32883949858E+02 -0.25189608646E+02  0.47787269522E+02  0.19999993059E+02 0.  0.
        -12    1    1    2    0    0 -0.12951944408E+02 -0.32883949858E+02  0.25189608646E+02  0.43400730478E+02  0.00000000000E+00 0.  1.
         11    1    3    3    0    0  0.15801889110E+01 -0.59084964282E+00 -0.44370134967E+01  0.47469136632E+01  0.51100000000E-03 0. -1.
        -11    1    3    3    0    0  0.50362655791E+00  0.15169380707E+02 -0.33479441623E+01  0.15542602135E+02  0.51100000000E-03 0.  1.
         12    1    3    3    0    0  0.10868128939E+02  0.18305418794E+02 -0.17404650987E+02  0.27497753724E+02  0.00000000000E+00 0. -1.
</event>
<event>
 7    1  0.1400974E-009  0.4778727E+02  0.7816164E-02  0.1312668E+00
        -11   -1    0    0    0    0  0.00000000000E+00  0.00000000000E+00  0.45593999997E+02  0.45594000000E+02  0.51100000000E-03 0.  1.
         11   -1    0    0    0    0 -0.00000000000E+00 -0.00000000000E+00 -0.45593999997E+02  0.45594000000E+02  0.51100000000E-03 0. -1.
    9900012    2    1    2    0    0  0.56343306972E+01 -0.19766601235E+01 -0.42988031660E+02  0.47787265748E+02  0.19999975850E+02 0.  0.
        -12    1    1    2    0    0 -0.56343306972E+01  0.19766601235E+01  0.42988031660E+02  0.43400734252E+02  0.00000000000E+00 0.  1.
         11    1    3    3    0    0  0.31332417539E+01 -0.33993450388E+01 -0.24781974788E+02  0.25209502677E+02  0.51100000000E-03 0. -1.
        -11    1    3    3    0    0 -0.12965734199E+01 -0.48095524057E+01 -0.32833402438E+01  0.59660053967E+01  0.51100000000E-03 0.  1.
         12    1    3    3    0    0  0.37976623633E+01  0.62322373210E+01 -0.14922716628E+02  0.16611757674E+02  0.00000000000E+00 0. -1.
</event>
<event>
 7    1  0.1400974E-009  0.4778727E+02  0.7816164E-02  0.1312668E+00
        -11   -1    0    0    0    0  0.00000000000E+00  0.00000000000E+00  0.45593999997E+02  0.45594000000E+02  0.51100000000E-03 0. -1.
         11   -1    0    0    0    0 -0.00000000000E+00 -0.00000000000E+00 -0.45593999997E+02  0.45594000000E+02  0.51100000000E-03 0.  1.
    9900012    2    1    2    0    0  0.28598099045E+02 -0.32342765700E+02  0.44404224954E+01  0.47787272885E+02  0.20000008394E+02 0.  0.
        -12    1    1    2    0    0 -0.28598099045E+02  0.32342765700E+02 -0.44404224954E+01  0.43400727115E+02  0.00000000000E+00 0.  1.
         11    1    3    3    0    0  0.16962731714E+02 -0.30921801632E+02  0.28276425115E+01  0.35382024332E+02  0.51100000000E-03 0. -1.
        -11    1    3    3    0    0  0.39319719417E+00 -0.71754373352E+00  0.74691949445E+00  0.11078637260E+01  0.51100000000E-03 0.  1.
         12    1    3    3    0    0  0.11242170137E+02 -0.70342033451E+00  0.86586048941E+00  0.11297384828E+02  0.00000000000E+00 0. -1.
</event>
<event>
 7    1  0.1400974E-009  0.4778727E+02  0.7816164E-02  0.1312668E+00
        -11   -1    0    0    0    0  0.00000000000E+00  0.00000000000E+00  0.45593999997E+02  0.45594000000E+02  0.51100000000E-03 0. -1.
         11   -1    0    0    0    0 -0.00000000000E+00 -0.00000000000E+00 -0.45593999997E+02  0.45594000000E+02  0.51100000000E-03 0.  1.
    9900012    2    1    2    0    0  0.16555185447E+02 -0.38939368140E+02  0.96578899006E+01  0.47787269665E+02  0.19999993708E+02 0.  0.
        -12    1    1    2    0    0 -0.16555185447E+02  0.38939368140E+02 -0.96578899006E+01  0.43400730335E+02  0.00000000000E+00 0.  1.
         11    1    3    3    0    0  0.67502749772E+01 -0.11953427335E+02  0.30168617429E+01  0.14055322563E+02  0.51100000000E-03 0. -1.
        -11    1    3    3    0    0 -0.32786614204E+01 -0.19561140915E+01 -0.18467187739E+01  0.42410344893E+01  0.51100000000E-03 0.  1.
        -12    1    3    3    0    0  0.13083571891E+02 -0.25029826713E+02  0.84877469316E+01  0.29490912612E+02  0.00000000000E+00 0.  1.
</event>
<event>
 7    1  0.1400974E-009  0.4778726E+02  0.7816164E-02  0.1312668E+00
        -11   -1    0    0    0    0  0.00000000000E+00  0.00000000000E+00  0.45593999997E+02  0.45594000000E+02  0.51100000000E-03 0. -1.
         11   -1    0    0    0    0 -0.00000000000E+00 -0.00000000000E+00 -0.45593999997E+02  0.45594000000E+02  0.51100000000E-03 0.  1.
    9900012    2    1    2    0    0  0.21984667279E+01  0.32020619509E+02  0.29214221580E+02  0.47787261847E+02  0.19999958065E+02 0.  0.
        -12    1    1    2    0    0 -0.21984667279E+01 -0.32020619509E+02 -0.29214221580E+02  0.43400738153E+02  0.00000000000E+00 0.  1.
         11    1    3    3    0    0  0.44358571410E+01  0.21976718569E+02  0.16618228411E+02  0.27907319890E+02  0.51100000000E-03 0. -1.
        -11    1    3    3    0    0  0.91502379994E+00  0.50046162073E+01  0.12961915365E+02  0.13924607791E+02  0.51100000000E-03 0.  1.
        -12    1    3    3    0    0 -0.31524142130E+01  0.50392847323E+01 -0.36592219543E+00  0.59553341666E+01  0.00000000000E+00 0.  1.
</event>
<event>
 7    1  0.1400974E-009  0.4778727E+02  0.7816164E-02  0.1312668E+00
        -11   -1    0    0    0    0  0.00000000000E+00  0.00000000000E+00  0.45593999997E+02  0.45594000000E+02  0.51100000000E-03 0. -1.
         11   -1    0    0    0    0 -0.00000000000E+00 -0.00000000000E+00 -0.45593999997E+02  0.45594000000E+02  0.51100000000E-03 0.  1.
    9900012    2    1    2    0    0 -0.12632220336E+02 -0.12734501870E+02  0.39520664526E+02  0.47787268980E+02  0.19999990589E+02 0.  0.
        -12    1    1    2    0    0  0.12632220336E+02  0.12734501870E+02 -0.39520664526E+02  0.43400731020E+02  0.00000000000E+00 0.  1.
         11    1    3    3    0    0 -0.10832408621E+02 -0.67248267910E+01  0.34994979019E+02  0.37245307472E+02  0.51100000000E-03 0. -1.
        -11    1    3    3    0    0  0.23925984403E+01 -0.27363629662E+00  0.13363538158E+01  0.27541325134E+01  0.51100000000E-03 0.  1.
         12    1    3    3    0    0 -0.41924101546E+01 -0.57360387822E+01  0.31893316916E+01  0.77878289949E+01  0.00000000000E+00 0. -1.
</event>
<event>
 7    1  0.1400974E-009  0.4778726E+02  0.7816164E-02  0.1312668E+00
        -11   -1    0    0    0    0  0.00000000000E+00  0.00000000000E+00  0.45593999997E+02  0.45594000000E+02  0.51100000000E-03 0. -1.
         11   -1    0    0    0    0 -0.00000000000E+00 -0.00000000000E+00 -0.45593999997E+02  0.45594000000E+02  0.51100000000E-03 0.  1.
    9900012    2    1    2    0    0 -0.38657771717E+02  0.18046254782E+02  0.79707777094E+01  0.47787263566E+02  0.19999965901E+02 0.  0.
        -12    1    1    2    0    0  0.38657771717E+02 -0.18046254782E+02 -0.79707777094E+01  0.43400736434E+02  0.00000000000E+00 0.  1.
         11    1    3    3    0    0 -0.11448765201E+02  0.26208602865E+01  0.24785099836E+01  0.12003588849E+02  0.51100000000E-03 0. -1.
        -11    1    3    3    0    0 -0.12425220789E+02  0.11415121019E+00 -0.31395658553E+01  0.12816240329E+02  0.51100000000E-03 0.  1.
         12    1    3    3    0    0 -0.14783785727E+02  0.15311243285E+02  0.86318335811E+01  0.22967434387E+02  0.00000000000E+00 0. -1.
</event>
<event>
 7    1  0.1400974E-009  0.4778728E+02  0.7816164E-02  0.1312668E+00
        -11   -1    0    0    0    0  0.00000000000E+00  0.00000000000E+00  0.45593999997E+02  0.45594000000E+02  0.51100000000E-03 0.  1.
         11   -1    0    0    0    0 -0.00000000000E+00 -0.00000000000E+00 -0.45593999997E+02  0.45594000000E+02  0.51100000000E-03 0. -1.
    9900012    2    1    2    0    0  0.42627350274E+02  0.69621771958E+01  0.42496245718E+01  0.47787283281E+02  0.20000055791E+02 0.  0.
        -12    1    1    2    0    0 -0.42627350274E+02 -0.69621771958E+01 -0.42496245718E+01  0.43400716719E+02  0.00000000000E+00 0.  1.
         11    1    3    3    0    0  0.14535959987E+02  0.49237596861E+01 -0.11039216133E+00  0.15347629423E+02  0.51100000000E-03 0. -1.
        -11    1    3    3    0    0  0.18194765877E+02 -0.62389864699E+01  0.29795996064E+01  0.19464132952E+02  0.51100000000E-03 0.  1.
        -12    1    3    3    0    0  0.98966244095E+01  0.82774039796E+01  0.13804171268E+01  0.12975520906E+02  0.00000000000E+00 0.  1.
</event>
<event>
 7    1  0.1400974E-009  0.4778727E+02  0.7816164E-02  0.1312668E+00
        -11   -1    0    0    0    0  0.00000000000E+00  0.00000000000E+00  0.45593999997E+02  0.45594000000E+02  0.51100000000E-03 0. -1.
         11   -1    0    0    0    0 -0.00000000000E+00 -0.00000000000E+00 -0.45593999997E+02  0.45594000000E+02  0.51100000000E-03 0.  1.
    9900012    2    1    2    0    0  0.25927923608E+02  0.30350000898E+02 -0.17036526604E+02  0.47787274017E+02  0.20000013552E+02 0.  0.
        -12    1    1    2    0    0 -0.25927923608E+02 -0.30350000898E+02  0.17036526604E+02  0.43400725983E+02  0.00000000000E+00 0.  1.
         11    1    3    3    0    0  0.27776555908E+01  0.24122661934E+01  0.15575827282E+01  0.39950548163E+01  0.51100000000E-03 0. -1.
        -11    1    3    3    0    0  0.24351097056E+02  0.29019038046E+02 -0.18538581621E+02  0.42175342390E+02  0.51100000000E-03 0.  1.
        -12    1    3    3    0    0 -0.12008290386E+01 -0.10813033407E+01 -0.55527711031E-01  0.16168768108E+01  0.00000000000E+00 0.  1.
</event>
<event>
 7    1  0.1400974E-009  0.4778728E+02  0.7816164E-02  0.1312668E+00
        -11   -1    0    0    0    0  0.00000000000E+00  0.00000000000E+00  0.45593999997E+02  0.45594000000E+02  0.51100000000E-03 0.  1.
         11   -1    0    0    0    0 -0.00000000000E+00 -0.00000000000E+00 -0.45593999997E+02  0.45594000000E+02  0.51100000000E-03 0. -1.
    9900012    2    1    2    0    0  0.19677106042E+01  0.28583067813E+02 -0.32599985049E+02  0.47787277934E+02  0.20000031413E+02 0.  0.
        -12    1    1    2    0    0 -0.19677106042E+01 -0.28583067813E+02  0.32599985049E+02  0.43400722066E+02  0.00000000000E+00 0.  1.
         11    1    3    3    0    0  0.56565266083E+00  0.10753225638E+02 -0.18620280431E+02  0.21509687774E+02  0.51100000000E-03 0. -1.
        -11    1    3    3    0    0 -0.43690447825E+01  0.31162952871E+01 -0.30028426078E+00  0.53749436765E+01  0.51100000000E-03 0.  1.
         12    1    3    3    0    0  0.57711027258E+01  0.14713546888E+02 -0.13679420358E+02  0.20902646484E+02  0.00000000000E+00 0. -1.
</event>
<event>
 7    1  0.1400974E-009  0.4778728E+02  0.7816164E-02  0.1312668E+00
        -11   -1    0    0    0    0  0.00000000000E+00  0.00000000000E+00  0.45593999997E+02  0.45594000000E+02  0.51100000000E-03 0. -1.
         11   -1    0    0    0    0 -0.00000000000E+00 -0.00000000000E+00 -0.45593999997E+02  0.45594000000E+02  0.51100000000E-03 0.  1.
    9900012    2    1    2    0    0  0.76368136357E+01  0.41562537179E+02  0.98922710160E+01  0.47787280592E+02  0.20000043531E+02 0.  0.
        -12    1    1    2    0    0 -0.76368136357E+01 -0.41562537179E+02 -0.98922710160E+01  0.43400719408E+02  0.00000000000E+00 0.  1.
         11    1    3    3    0    0 -0.25528350716E+01  0.21953352010E+02  0.12368961768E+02  0.25327018121E+02  0.51100000000E-03 0. -1.
        -11    1    3    3    0    0  0.18564516017E+01  0.58033011898E+01 -0.16534312189E+01  0.63133629950E+01  0.51100000000E-03 0.  1.
        -12    1    3    3    0    0  0.83331971056E+01  0.13805883979E+02 -0.82325953348E+00  0.16146899477E+02  0.00000000000E+00 0.  1.
</event>
<event>
 7    1  0.1400974E-009  0.4778727E+02  0.7816164E-02  0.1312668E+00
        -11   -1    0    0    0    0  0.00000000000E+00  0.00000000000E+00  0.45593999997E+02  0.45594000000E+02  0.51100000000E-03 0. -1.
         11   -1    0    0    0    0 -0.00000000000E+00 -0.00000000000E+00 -0.45593999997E+02  0.45594000000E+02  0.51100000000E-03 0.  1.
    9900012    2    1    2    0    0  0.21669569176E+02  0.35229600181E+02  0.13150219694E+02  0.47787271490E+02  0.20000002032E+02 0.  0.
        -12    1    1    2    0    0 -0.21669569176E+02 -0.35229600181E+02 -0.13150219694E+02  0.43400728510E+02  0.00000000000E+00 0.  1.
         11    1    3    3    0    0  0.12277956631E+02  0.30093528993E+02  0.81619645951E+01  0.33510988834E+02  0.51100000000E-03 0. -1.
        -11    1    3    3    0    0  0.21000634407E+01  0.21127820921E+01  0.56167454016E+01  0.63578253979E+01  0.51100000000E-03 0.  1.
        -12    1    3    3    0    0  0.72915491044E+01  0.30232890954E+01 -0.62849030229E+00  0.79184572586E+01  0.00000000000E+00 0.  1.
</event>
<event>
 7    1  0.1400974E-009  0.4778727E+02  0.7816164E-02  0.1312668E+00
        -11   -1    0    0    0    0  0.00000000000E+00  0.00000000000E+00  0.45593999997E+02  0.45594000000E+02  0.51100000000E-03 0. -1.
         11   -1    0    0    0    0 -0.00000000000E+00 -0.00000000000E+00 -0.45593999997E+02  0.45594000000E+02  0.51100000000E-03 0.  1.
    9900012    2    1    2    0    0  0.56166743371E+01 -0.25084315483E+02  0.34969319689E+02  0.47787271511E+02  0.20000002125E+02 0.  0.
        -12    1    1    2    0    0 -0.56166743371E+01  0.25084315483E+02 -0.34969319689E+02  0.43400728489E+02  0.00000000000E+00 0.  1.
         11    1    3    3    0    0  0.63105346198E+01 -0.13433444215E+02  0.17524807294E+02  0.22965172362E+02  0.51100000000E-03 0. -1.
        -11    1    3    3    0    0  0.57306771185E+01 -0.80733445783E+01  0.73374547670E+01  0.12323059508E+02  0.51100000000E-03 0.  1.
         12    1    3    3    0    0 -0.64245374012E+01 -0.35775266900E+01  0.10107057628E+02  0.12499039641E+02  0.00000000000E+00 0. -1.
</event>
<event>
 7    1  0.2518182E-009  0.4778728E+02  0.7816164E-02  0.1312668E+00
        -11   -1    0    0    0    0  0.00000000000E+00  0.00000000000E+00  0.45593999997E+02  0.45594000000E+02  0.51100000000E-03 0. -1.
         11   -1    0    0    0    0 -0.00000000000E+00 -0.00000000000E+00 -0.45593999997E+02  0.45594000000E+02  0.51100000000E-03 0.  1.
    9900012    2    1    2    0    0  0.20920568787E+02  0.35953734594E+02  0.12380681867E+02  0.47787279808E+02  0.20000039958E+02 0.  0.
        -12    1    1    2    0    0 -0.20920568787E+02 -0.35953734594E+02 -0.12380681867E+02  0.43400720192E+02  0.00000000000E+00 0.  1.
         11    1    3    3    0    0  0.25911493291E+01  0.82369511776E+01  0.92739352806E+01  0.12671515118E+02  0.51100000000E-03 0. -1.
        -11    1    3    3    0    0  0.13570805702E+01  0.79337369536E+01 -0.25498331439E+01  0.84431924676E+01  0.51100000000E-03 0.  1.
         12    1    3    3    0    0  0.16972338888E+02  0.19783046463E+02  0.56565797302E+01  0.26672572222E+02  0.00000000000E+00 0. -1.
</event>
<event>
 7    1  0.1400974E-009  0.4778728E+02  0.7816164E-02  0.1312668E+00
        -11   -1    0    0    0    0  0.00000000000E+00  0.00000000000E+00  0.45593999997E+02  0.45594000000E+02  0.51100000000E-03 0.  1.
         11   -1    0    0    0    0 -0.00000000000E+00 -0.00000000000E+00 -0.45593999997E+02  0.45594000000E+02  0.51100000000E-03 0. -1.
    9900012    2    1    2    0    0 -0.26167720240E+02 -0.16602732874E+02 -0.30384578366E+02  0.47787275076E+02  0.20000018383E+02 0.  0.
        -12    1    1    2    0    0  0.26167720240E+02  0.16602732874E+02  0.30384578366E+02  0.43400724924E+02  0.00000000000E+00 0.  1.
         11    1    3    3    0    0 -0.10105981035E+02 -0.12387466462E+02 -0.84656360145E+01  0.18089974334E+02  0.51100000000E-03 0.  1.
        -11    1    3    3    0    0 -0.80017014958E+01 -0.73957748267E+01 -0.89526985376E+01  0.14102323336E+02  0.51100000000E-03 0. -1.
        -12    1    3    3    0    0 -0.80600377087E+01  0.31805084148E+01 -0.12966243814E+02  0.15594977406E+02  0.00000000000E+00 0.  1.
</event>
<event>
 7    1  0.1400974E-009  0.4778727E+02  0.7816164E-02  0.1312668E+00
        -11   -1    0    0    0    0  0.00000000000E+00  0.00000000000E+00  0.45593999997E+02  0.45594000000E+02  0.51100000000E-03 0.  1.
         11   -1    0    0    0    0 -0.00000000000E+00 -0.00000000000E+00 -0.45593999997E+02  0.45594000000E+02  0.51100000000E-03 0. -1.
    9900012    2    1    2    0    0  0.33206271066E+02  0.24498318713E+02  0.13446163548E+02  0.47787269914E+02  0.19999994844E+02 0.  0.
        -12    1    1    2    0    0 -0.33206271066E+02 -0.24498318713E+02 -0.13446163548E+02  0.43400730086E+02  0.00000000000E+00 0.  1.
         11    1    3    3    0    0  0.96841006797E+01  0.51112278523E+01  0.45244935225E+01  0.11848101030E+02  0.51100000000E-03 0. -1.
        -11    1    3    3    0    0  0.15612261414E+02  0.10434807574E+02 -0.30525928859E+01  0.19024884734E+02  0.51100000000E-03 0.  1.
        -12    1    3    3    0    0  0.79099089723E+01  0.89522832872E+01  0.11974262911E+02  0.16914284149E+02  0.00000000000E+00 0.  1.
</event>
<event>
 7    1  0.1400974E-009  0.4778728E+02  0.7816164E-02  0.1312668E+00
        -11   -1    0    0    0    0  0.00000000000E+00  0.00000000000E+00  0.45593999997E+02  0.45594000000E+02  0.51100000000E-03 0. -1.
         11   -1    0    0    0    0 -0.00000000000E+00 -0.00000000000E+00 -0.45593999997E+02  0.45594000000E+02  0.51100000000E-03 0.  1.
    9900012    2    1    2    0    0 -0.34519929845E+02 -0.15770352134E+02 -0.21054524532E+02  0.47787279197E+02  0.20000037172E+02 0.  0.
        -12    1    1    2    0    0  0.34519929845E+02  0.15770352134E+02  0.21054524532E+02  0.43400720803E+02  0.00000000000E+00 0.  1.
         11    1    3    3    0    0 -0.14479118010E+02 -0.85727902070E+01 -0.89934216764E+01  0.19079287827E+02  0.51100000000E-03 0. -1.
        -11    1    3    3    0    0 -0.43253697471E+00 -0.49006081338E+01  0.10211796654E+01  0.50245254985E+01  0.51100000000E-03 0.  1.
        -12    1    3    3    0    0 -0.19608274861E+02 -0.22969537930E+01 -0.13082282521E+02  0.23683465872E+02  0.00000000000E+00 0.  1.
</event>
<event>
 7    1  0.1400974E-009  0.4778727E+02  0.7816164E-02  0.1312668E+00
        -11   -1    0    0    0    0  0.00000000000E+00  0.00000000000E+00  0.45593999997E+02  0.45594000000E+02  0.51100000000E-03 0.  1.
         11   -1    0    0    0    0 -0.00000000000E+00 -0.00000000000E+00 -0.45593999997E+02  0.45594000000E+02  0.51100000000E-03 0. -1.
    9900012    2    1    2    0    0  0.16934924105E+02  0.22357811737E+02 -0.33120383962E+02  0.47787271506E+02  0.20000002102E+02 0.  0.
        -12    1    1    2    0    0 -0.16934924105E+02 -0.22357811737E+02  0.33120383962E+02  0.43400728494E+02  0.00000000000E+00 0.  1.
         11    1    3    3    0    0  0.10337350631E+02  0.49284446234E+01 -0.93275899086E+01  0.14770048011E+02  0.51100000000E-03 0. -1.
        -11    1    3    3    0    0  0.29703913441E+01  0.71514046114E+00 -0.11644363936E+02  0.12038515787E+02  0.51100000000E-03 0.  1.
        -12    1    3    3    0    0  0.36271821295E+01  0.16714226652E+02 -0.12148430117E+02  0.20978707708E+02  0.00000000000E+00 0.  1.
</event>
<event>
 7    1  0.1400974E-009  0.4778728E+02  0.7816164E-02  0.1312668E+00
        -11   -1    0    0    0    0  0.00000000000E+00  0.00000000000E+00  0.45593999997E+02  0.45594000000E+02  0.51100000000E-03 0.  1.
         11   -1    0    0    0    0 -0.00000000000E+00 -0.00000000000E+00 -0.45593999997E+02  0.45594000000E+02  0.51100000000E-03 0. -1.
    9900012    2    1    2    0    0 -0.16643322336E+02 -0.26354990413E+02 -0.30199947625E+02  0.47787279561E+02  0.20000038832E+02 0.  0.
        -12    1    1    2    0    0  0.16643322336E+02  0.26354990413E+02  0.30199947625E+02  0.43400720439E+02  0.00000000000E+00 0.  1.
         11    1    3    3    0    0  0.14889004254E+01 -0.88624886039E+01 -0.85296555961E+01  0.12390139369E+02  0.51100000000E-03 0. -1.
        -11    1    3    3    0    0  0.44905794701E+00  0.10823486411E+00  0.10666578277E+01  0.11623798898E+01  0.51100000000E-03 0.  1.
         12    1    3    3    0    0 -0.18581280709E+02 -0.17600736673E+02 -0.22736949857E+02  0.34234760303E+02  0.00000000000E+00 0. -1.
</event>
<event>
 7    1  0.1400974E-009  0.4778727E+02  0.7816164E-02  0.1312668E+00
        -11   -1    0    0    0    0  0.00000000000E+00  0.00000000000E+00  0.45593999997E+02  0.45594000000E+02  0.51100000000E-03 0.  1.
         11   -1    0    0    0    0 -0.00000000000E+00 -0.00000000000E+00 -0.45593999997E+02  0.45594000000E+02  0.51100000000E-03 0. -1.
    9900012    2    1    2    0    0  0.24861475610E+02 -0.17404992342E+02 -0.31025742478E+02  0.47787269313E+02  0.19999992104E+02 0.  0.
        -12    1    1    2    0    0 -0.24861475610E+02  0.17404992342E+02  0.31025742478E+02  0.43400730687E+02  0.00000000000E+00 0.  1.
         11    1    3    3    0    0  0.14312421159E+02 -0.45460160202E+01 -0.14311921236E+02  0.20744704163E+02  0.51100000000E-03 0. -1.
        -11    1    3    3    0    0  0.28428809173E+01 -0.13144990266E-01  0.16942821484E+01  0.33094919489E+01  0.51100000000E-03 0.  1.
        -12    1    3    3    0    0  0.77061735337E+01 -0.12845831332E+02 -0.18408103390E+02  0.23733073201E+02  0.00000000000E+00 0.  1.
</event>
<event>
 7    1  0.1400974E-009  0.4778727E+02  0.7816164E-02  0.1312668E+00
        -11   -1    0    0    0    0  0.00000000000E+00  0.00000000000E+00  0.45593999997E+02  0.45594000000E+02  0.51100000000E-03 0. -1.
         11   -1    0    0    0    0 -0.00000000000E+00 -0.00000000000E+00 -0.45593999997E+02  0.45594000000E+02  0.51100000000E-03 0.  1.
    9900012    2    1    2    0    0  0.30927703573E+02 -0.18081383878E+02  0.24498253269E+02  0.47787266083E+02  0.19999977380E+02 0.  0.
        -12    1    1    2    0    0 -0.30927703573E+02  0.18081383878E+02 -0.24498253269E+02  0.43400733917E+02  0.00000000000E+00 0.  1.
         11    1    3    3    0    0  0.18248495889E+01 -0.65163529492E+01  0.65509757898E+01  0.94185039067E+01  0.51100000000E-03 0. -1.
        -11    1    3    3    0    0  0.20566328034E+02 -0.89570190574E+01  0.18978420474E+02  0.29383370861E+02  0.51100000000E-03 0.  1.
        -12    1    3    3    0    0  0.85365259501E+01 -0.26080118714E+01 -0.10311429945E+01  0.89853913155E+01  0.00000000000E+00 0.  1.
</event>
<event>
 7    1  0.1400974E-009  0.4778727E+02  0.7816164E-02  0.1312668E+00
        -11   -1    0    0    0    0  0.00000000000E+00  0.00000000000E+00  0.45593999997E+02  0.45594000000E+02  0.51100000000E-03 0. -1.
         11   -1    0    0    0    0 -0.00000000000E+00 -0.00000000000E+00 -0.45593999997E+02  0.45594000000E+02  0.51100000000E-03 0.  1.
    9900012    2    1    2    0    0 -0.28236608039E+02  0.72829154053E+01  0.32144615536E+02  0.47787271915E+02  0.20000003968E+02 0.  0.
        -12    1    1    2    0    0  0.28236608039E+02 -0.72829154053E+01 -0.32144615536E+02  0.43400728085E+02  0.00000000000E+00 0.  1.
         11    1    3    3    0    0 -0.48420012628E+01  0.57521901055E+01  0.10479586715E+02  0.12897844983E+02  0.51100000000E-03 0. -1.
        -11    1    3    3    0    0 -0.43140670207E+01  0.62598586316E+01  0.73236991858E+01  0.10556210228E+02  0.51100000000E-03 0.  1.
         12    1    3    3    0    0 -0.19080539755E+02 -0.47291333318E+01  0.14341329636E+02  0.24333216704E+02  0.00000000000E+00 0. -1.
</event>
<event>
 7    1  0.1400974E-009  0.4778727E+02  0.7816164E-02  0.1312668E+00
        -11   -1    0    0    0    0  0.00000000000E+00  0.00000000000E+00  0.45593999997E+02  0.45594000000E+02  0.51100000000E-03 0.  1.
         11   -1    0    0    0    0 -0.00000000000E+00 -0.00000000000E+00 -0.45593999997E+02  0.45594000000E+02  0.51100000000E-03 0. -1.
    9900012    2    1    2    0    0  0.23547122179E+02 -0.17266226323E+02 -0.32109713858E+02  0.47787271223E+02  0.20000000813E+02 0.  0.
        -12    1    1    2    0    0 -0.23547122179E+02  0.17266226323E+02  0.32109713858E+02  0.43400728777E+02  0.00000000000E+00 0.  1.
         11    1    3    3    0    0  0.28487129638E+01 -0.56127909875E+01 -0.14165195746E+02  0.15500688985E+02  0.51100000000E-03 0.  1.
        -11    1    3    3    0    0  0.27799034311E+01 -0.12637183059E+01  0.19042349183E+01  0.35987439376E+01  0.51100000000E-03 0. -1.
         12    1    3    3    0    0  0.17918505784E+02 -0.10389717030E+02 -0.19848753030E+02  0.28687838300E+02  0.00000000000E+00 0. -1.
</event>
<event>
 7    1  0.1400974E-009  0.4778727E+02  0.7816164E-02  0.1312668E+00
        -11   -1    0    0    0    0  0.00000000000E+00  0.00000000000E+00  0.45593999997E+02  0.45594000000E+02  0.51100000000E-03 0.  1.
         11   -1    0    0    0    0 -0.00000000000E+00 -0.00000000000E+00 -0.45593999997E+02  0.45594000000E+02  0.51100000000E-03 0. -1.
    9900012    2    1    2    0    0 -0.64407606701E+01  0.29571673357E+02 -0.31107168430E+02  0.47787272001E+02  0.20000004363E+02 0.  0.
        -12    1    1    2    0    0  0.64407606701E+01 -0.29571673357E+02  0.31107168430E+02  0.43400727999E+02  0.00000000000E+00 0.  1.
         11    1    3    3    0    0 -0.19075385485E+01  0.11684112481E+02 -0.60228074040E+01  0.13282748100E+02  0.51100000000E-03 0. -1.
        -11    1    3    3    0    0  0.20862554303E+01  0.15576022295E+02 -0.12426735623E+02  0.20034687189E+02  0.51100000000E-03 0.  1.
        -12    1    3    3    0    0 -0.66194775518E+01  0.23115385803E+01 -0.12657625402E+02  0.14469836713E+02  0.00000000000E+00 0.  1.
</event>
<event>
 7    1  0.1400974E-009  0.4778726E+02  0.7816164E-02  0.1312668E+00
        -11   -1    0    0    0    0  0.00000000000E+00  0.00000000000E+00  0.45593999997E+02  0.45594000000E+02  0.51100000000E-03 0.  1.
         11   -1    0    0    0    0 -0.00000000000E+00 -0.00000000000E+00 -0.45593999997E+02  0.45594000000E+02  0.51100000000E-03 0. -1.
    9900012    2    1    2    0    0 -0.93449227895E+00 -0.40194902136E+02 -0.16343824276E+02  0.47787262386E+02  0.19999960521E+02 0.  0.
        -12    1    1    2    0    0  0.93449227895E+00  0.40194902136E+02  0.16343824276E+02  0.43400737614E+02  0.00000000000E+00 0.  1.
         11    1    3    3    0    0 -0.74926269864E+01 -0.16804425902E+02 -0.85073454243E+01  0.20270745311E+02  0.51100000000E-03 0. -1.
        -11    1    3    3    0    0  0.42300190257E+01 -0.18163458790E+02 -0.10279356302E+02  0.21294822432E+02  0.51100000000E-03 0.  1.
         12    1    3    3    0    0  0.23281156818E+01 -0.52270174438E+01  0.24428774503E+01  0.62216946424E+01  0.00000000000E+00 0. -1.
</event>
<event>
 7    1  0.1400974E-009  0.4778727E+02  0.7816164E-02  0.1312668E+00
        -11   -1    0    0    0    0  0.00000000000E+00  0.00000000000E+00  0.45593999997E+02  0.45594000000E+02  0.51100000000E-03 0. -1.
         11   -1    0    0    0    0 -0.00000000000E+00 -0.00000000000E+00 -0.45593999997E+02  0.45594000000E+02  0.51100000000E-03 0.  1.
    9900012    2    1    2    0    0 -0.12438058324E+02 -0.18233748885E+02  0.37369087515E+02  0.47787267346E+02  0.19999983136E+02 0.  0.
        -12    1    1    2    0    0  0.12438058324E+02  0.18233748885E+02 -0.37369087515E+02  0.43400732654E+02  0.00000000000E+00 0.  1.
         11    1    3    3    0    0 -0.14652554327E+02 -0.21145907756E+02  0.33197185062E+02  0.41998807833E+02  0.51100000000E-03 0. -1.
        -11    1    3    3    0    0  0.57042204650E+00 -0.10030930978E+00  0.66088236013E+00  0.87875424540E+00  0.51100000000E-03 0.  1.
        -12    1    3    3    0    0  0.16440739568E+01  0.30124681811E+01  0.35110200927E+01  0.49097052670E+01  0.00000000000E+00 0.  1.
</event>
<event>
 7    1  0.1873033E-009  0.4778727E+02  0.7816164E-02  0.1312668E+00
        -11   -1    0    0    0    0  0.00000000000E+00  0.00000000000E+00  0.45593999997E+02  0.45594000000E+02  0.51100000000E-03 0. -1.
         11   -1    0    0    0    0 -0.00000000000E+00 -0.00000000000E+00 -0.45593999997E+02  0.45594000000E+02  0.51100000000E-03 0.  1.
    9900012    2    1    2    0    0  0.14986961592E+02  0.39918569761E+02  0.80945598771E+01  0.47787272712E+02  0.20000007603E+02 0.  0.
        -12    1    1    2    0    0 -0.14986961592E+02 -0.39918569761E+02 -0.80945598771E+01  0.43400727288E+02  0.00000000000E+00 0.  1.
         11    1    3    3    0    0 -0.18278816466E+01  0.11710250236E+02  0.15804153437E+01  0.11956957172E+02  0.51100000000E-03 0. -1.
        -11    1    3    3    0    0  0.69557831602E+01  0.23015656622E+01 -0.12202910123E+00  0.73276882597E+01  0.51100000000E-03 0.  1.
         12    1    3    3    0    0  0.98590600786E+01  0.25906753863E+02  0.66361736346E+01  0.28502627280E+02  0.00000000000E+00 0. -1.
</event>
<event>
 7    1  0.1400974E-009  0.4778728E+02  0.7816164E-02  0.1312668E+00
        -11   -1    0    0    0    0  0.00000000000E+00  0.00000000000E+00  0.45593999997E+02  0.45594000000E+02  0.51100000000E-03 0. -1.
         11   -1    0    0    0    0 -0.00000000000E+00 -0.00000000000E+00 -0.45593999997E+02  0.45594000000E+02  0.51100000000E-03 0.  1.
    9900012    2    1    2    0    0  0.13613205028E+02  0.41193036118E+02 -0.11986545688E+01  0.47787281705E+02  0.20000048605E+02 0.  0.
        -12    1    1    2    0    0 -0.13613205028E+02 -0.41193036118E+02  0.11986545688E+01  0.43400718295E+02  0.00000000000E+00 0.  1.
         11    1    3    3    0    0  0.10963456681E+02  0.13099369746E+02  0.30859473126E+01  0.17358396850E+02  0.51100000000E-03 0. -1.
        -11    1    3    3    0    0  0.40859140468E+01  0.26598382918E+02 -0.14932180636E+01  0.26951778566E+02  0.51100000000E-03 0.  1.
        -12    1    3    3    0    0 -0.14361656991E+01  0.14952834548E+01 -0.27913838179E+01  0.34771062889E+01  0.00000000000E+00 0.  1.
</event>
<event>
 7    1  0.1400974E-009  0.4778728E+02  0.7816164E-02  0.1312668E+00
        -11   -1    0    0    0    0  0.00000000000E+00  0.00000000000E+00  0.45593999997E+02  0.45594000000E+02  0.51100000000E-03 0.  1.
         11   -1    0    0    0    0 -0.00000000000E+00 -0.00000000000E+00 -0.45593999997E+02  0.45594000000E+02  0.51100000000E-03 0. -1.
    9900012    2    1    2    0    0  0.41741674562E+02 -0.11885048267E+02 -0.26102620105E-01  0.47787280549E+02  0.20000043335E+02 0.  0.
        -12    1    1    2    0    0 -0.41741674562E+02  0.11885048267E+02  0.26102620105E-01  0.43400719451E+02  0.00000000000E+00 0.  1.
         11    1    3    3    0    0  0.82541395196E+01  0.32813083168E+01 -0.18699530420E+01  0.90771431695E+01  0.51100000000E-03 0. -1.
        -11    1    3    3    0    0  0.57322359626E+01 -0.80668378513E+01 -0.86300601994E+00  0.99336388952E+01  0.51100000000E-03 0.  1.
        -12    1    3    3    0    0  0.27755299079E+02 -0.70995187329E+01  0.27068564418E+01  0.28776498484E+02  0.00000000000E+00 0.  1.
</event>
<event>
 7    1  0.1400974E-009  0.4778727E+02  0.7816164E-02  0.1312668E+00
        -11   -1    0    0    0    0  0.00000000000E+00  0.00000000000E+00  0.45593999997E+02  0.45594000000E+02  0.51100000000E-03 0. -1.
         11   -1    0    0    0    0 -0.00000000000E+00 -0.00000000000E+00 -0.45593999997E+02  0.45594000000E+02  0.51100000000E-03 0.  1.
    9900012    2    1    2    0    0 -0.32390710279E+02  0.93352687848E+01  0.27337115920E+02  0.47787271176E+02  0.20000000598E+02 0.  0.
        -12    1    1    2    0    0  0.32390710279E+02 -0.93352687848E+01 -0.27337115920E+02  0.43400728824E+02  0.00000000000E+00 0.  1.
         11    1    3    3    0    0 -0.12025002000E+02  0.20200683521E+01  0.65977061798E+01  0.13864020929E+02  0.51100000000E-03 0. -1.
        -11    1    3    3    0    0  0.24480195942E+01  0.21155749757E+01  0.40432148954E+01  0.51784210299E+01  0.51100000000E-03 0.  1.
         12    1    3    3    0    0 -0.22813727873E+02  0.51996254570E+01  0.16696194845E+02  0.28744829216E+02  0.00000000000E+00 0. -1.
</event>
<event>
 7    1  0.1400974E-009  0.4778727E+02  0.7816164E-02  0.1312668E+00
        -11   -1    0    0    0    0  0.00000000000E+00  0.00000000000E+00  0.45593999997E+02  0.45594000000E+02  0.51100000000E-03 0.  1.
         11   -1    0    0    0    0 -0.00000000000E+00 -0.00000000000E+00 -0.45593999997E+02  0.45594000000E+02  0.51100000000E-03 0. -1.
    9900012    2    1    2    0    0  0.24207486991E+02 -0.11447683721E+02 -0.34155105955E+02  0.47787272451E+02  0.20000006413E+02 0.  0.
        -12    1    1    2    0    0 -0.24207486991E+02  0.11447683721E+02  0.34155105955E+02  0.43400727549E+02  0.00000000000E+00 0.  1.
         11    1    3    3    0    0  0.17448039544E+02  0.82700699290E+00 -0.21477634920E+02  0.27684053650E+02  0.51100000000E-03 0. -1.
        -11    1    3    3    0    0  0.59407539326E+01 -0.70429340656E+01 -0.42422539988E+01  0.10143579092E+02  0.51100000000E-03 0.  1.
        -12    1    3    3    0    0  0.81869351508E+00 -0.52317566479E+01 -0.84352170362E+01  0.99596397094E+01  0.00000000000E+00 0.  1.
</event>
<event>
 7    1  0.1400974E-009  0.4778727E+02  0.7816164E-02  0.1312668E+00
        -11   -1    0    0    0    0  0.00000000000E+00  0.00000000000E+00  0.45593999997E+02  0.45594000000E+02  0.51100000000E-03 0. -1.
         11   -1    0    0    0    0 -0.00000000000E+00 -0.00000000000E+00 -0.45593999997E+02  0.45594000000E+02  0.51100000000E-03 0.  1.
    9900012    2    1    2    0    0  0.39498413269E+02  0.52378644004E+01  0.17206490040E+02  0.47787272198E+02  0.20000005260E+02 0.  0.
        -12    1    1    2    0    0 -0.39498413269E+02 -0.52378644004E+01 -0.17206490040E+02  0.43400727802E+02  0.00000000000E+00 0.  1.
         11    1    3    3    0    0  0.46276149697E+01 -0.24140145701E+00 -0.23665771322E+01  0.52032473087E+01  0.51100000000E-03 0. -1.
        -11    1    3    3    0    0  0.17508563295E+00  0.24216034108E+01  0.34106231631E+01  0.41865461517E+01  0.51100000000E-03 0.  1.
         12    1    3    3    0    0  0.34695712666E+02  0.30576624466E+01  0.16162444009E+02  0.38397478738E+02  0.00000000000E+00 0. -1.
</event>
<event>
 7    1  0.1400974E-009  0.4778727E+02  0.7816164E-02  0.1312668E+00
        -11   -1    0    0    0    0  0.00000000000E+00  0.00000000000E+00  0.45593999997E+02  0.45594000000E+02  0.51100000000E-03 0.  1.
         11   -1    0    0    0    0 -0.00000000000E+00 -0.00000000000E+00 -0.45593999997E+02  0.45594000000E+02  0.51100000000E-03 0. -1.
    9900012    2    1    2    0    0  0.33296672376E+01  0.16421097700E+02 -0.40036038349E+02  0.47787268437E+02  0.19999988110E+02 0.  0.
        -12    1    1    2    0    0 -0.33296672376E+01 -0.16421097700E+02  0.40036038349E+02  0.43400731563E+02  0.00000000000E+00 0.  1.
         11    1    3    3    0    0  0.31012068813E+01  0.13613948441E+02 -0.15619363303E+02  0.20950455521E+02  0.51100000000E-03 0. -1.
        -11    1    3    3    0    0 -0.81748212971E+00 -0.16606671623E+01  0.13891176155E+00  0.18561759601E+01  0.51100000000E-03 0.  1.
         12    1    3    3    0    0  0.10459424860E+01  0.44678164208E+01 -0.24555586807E+02  0.24980636955E+02  0.00000000000E+00 0. -1.
</event>
<event>
 7    1  0.1400974E-009  0.4778725E+02  0.7816164E-02  0.1312668E+00
        -11   -1    0    0    0    0  0.00000000000E+00  0.00000000000E+00  0.45593999997E+02  0.45594000000E+02  0.51100000000E-03 0. -1.
         11   -1    0    0    0    0 -0.00000000000E+00 -0.00000000000E+00 -0.45593999997E+02  0.45594000000E+02  0.51100000000E-03 0.  1.
    9900012    2    1    2    0    0 -0.80729090971E+01  0.20422259569E+02  0.37435065513E+02  0.47787254878E+02  0.19999926291E+02 0.  0.
        -12    1    1    2    0    0  0.80729090971E+01 -0.20422259569E+02 -0.37435065513E+02  0.43400745122E+02  0.00000000000E+00 0.  1.
         11    1    3    3    0    0  0.40841455272E+01  0.14208678236E+02  0.13772165174E+02  0.20204932956E+02  0.51100000000E-03 0.  1.
        -11    1    3    3    0    0 -0.46582403729E+01  0.45042143851E+01  0.11005629221E+02  0.12771492686E+02  0.51100000000E-03 0. -1.
        -12    1    3    3    0    0 -0.74988142513E+01  0.17093669477E+01  0.12657271118E+02  0.14810829237E+02  0.00000000000E+00 0.  1.
</event>
<event>
 7    1  0.1400974E-009  0.4778727E+02  0.7816164E-02  0.1312668E+00
        -11   -1    0    0    0    0  0.00000000000E+00  0.00000000000E+00  0.45593999997E+02  0.45594000000E+02  0.51100000000E-03 0.  1.
         11   -1    0    0    0    0 -0.00000000000E+00 -0.00000000000E+00 -0.45593999997E+02  0.45594000000E+02  0.51100000000E-03 0. -1.
    9900012    2    1    2    0    0 -0.25185846414E+02  0.17823936931E+02 -0.30522185140E+02  0.47787269902E+02  0.19999994791E+02 0.  0.
        -12    1    1    2    0    0  0.25185846414E+02 -0.17823936931E+02  0.30522185140E+02  0.43400730098E+02  0.00000000000E+00 0.  1.
         11    1    3    3    0    0 -0.71546519419E+01  0.92193595205E+01 -0.13384587264E+01  0.11746365668E+02  0.51100000000E-03 0. -1.
        -11    1    3    3    0    0 -0.55356737595E+00  0.23912692179E+01 -0.21975871299E+01  0.32945401449E+01  0.51100000000E-03 0.  1.
        -12    1    3    3    0    0 -0.17477627097E+02  0.62133081922E+01 -0.26986139284E+02  0.32746364089E+02  0.00000000000E+00 0.  1.
</event>
<event>
 7    1  0.1400974E-009  0.4778727E+02  0.7816164E-02  0.1312668E+00
        -11   -1    0    0    0    0  0.00000000000E+00  0.00000000000E+00  0.45593999997E+02  0.45594000000E+02  0.51100000000E-03 0.  1.
         11   -1    0    0    0    0 -0.00000000000E+00 -0.00000000000E+00 -0.45593999997E+02  0.45594000000E+02  0.51100000000E-03 0. -1.
    9900012    2    1    2    0    0 -0.90282424465E+01  0.12666115354E+02 -0.40517696098E+02  0.47787270318E+02  0.19999996689E+02 0.  0.
        -12    1    1    2    0    0  0.90282424465E+01 -0.12666115354E+02  0.40517696098E+02  0.43400729682E+02  0.00000000000E+00 0.  1.
         11    1    3    3    0    0  0.81258999568E+00 -0.20520334580E+01 -0.27301199477E+01  0.35106550676E+01  0.51100000000E-03 0.  1.
        -11    1    3    3    0    0 -0.13498819541E+02  0.96700794612E+01 -0.30125928227E+02  0.34399129605E+02  0.51100000000E-03 0. -1.
         12    1    3    3    0    0  0.36579870984E+01  0.50480693511E+01 -0.76616479228E+01  0.98774856455E+01  0.00000000000E+00 0. -1.
</event>
<event>
 7    1  0.1400974E-009  0.4778727E+02  0.7816164E-02  0.1312668E+00
        -11   -1    0    0    0    0  0.00000000000E+00  0.00000000000E+00  0.45593999997E+02  0.45594000000E+02  0.51100000000E-03 0.  1.
         11   -1    0    0    0    0 -0.00000000000E+00 -0.00000000000E+00 -0.45593999997E+02  0.45594000000E+02  0.51100000000E-03 0. -1.
    9900012    2    1    2    0    0 -0.90532313146E+01  0.41290914046E+02 -0.98347781390E+01  0.47787269119E+02  0.19999991220E+02 0.  0.
        -12    1    1    2    0    0  0.90532313146E+01 -0.41290914046E+02  0.98347781390E+01  0.43400730881E+02  0.00000000000E+00 0.  1.
         11    1    3    3    0    0  0.26683932399E-01  0.39205206424E+01 -0.84285295734E+01  0.92957681323E+01  0.51100000000E-03 0. -1.
        -11    1    3    3    0    0 -0.22474242556E+01  0.97057411687E+01 -0.34405866656E-01  0.99626056553E+01  0.51100000000E-03 0.  1.
         12    1    3    3    0    0 -0.68324909915E+01  0.27664652235E+02 -0.13718426990E+01  0.28528895331E+02  0.00000000000E+00 0. -1.
</event>
<event>
 7    1  0.1400974E-009  0.4778727E+02  0.7816164E-02  0.1312668E+00
        -11   -1    0    0    0    0  0.00000000000E+00  0.00000000000E+00  0.45593999997E+02  0.45594000000E+02  0.51100000000E-03 0.  1.
         11   -1    0    0    0    0 -0.00000000000E+00 -0.00000000000E+00 -0.45593999997E+02  0.45594000000E+02  0.51100000000E-03 0. -1.
    9900012    2    1    2    0    0 -0.21054972470E+02  0.18201371388E+01 -0.37907760542E+02  0.47787273345E+02  0.20000010489E+02 0.  0.
        -12    1    1    2    0    0  0.21054972470E+02 -0.18201371388E+01  0.37907760542E+02  0.43400726655E+02  0.00000000000E+00 0.  1.
         11    1    3    3    0    0 -0.14308530783E+02 -0.79463711115E+01 -0.18021935660E+02  0.24344794766E+02  0.51100000000E-03 0. -1.
        -11    1    3    3    0    0 -0.88729106781E+00  0.33746483978E+01 -0.37357076028E+01  0.51118537540E+01  0.51100000000E-03 0.  1.
        -12    1    3    3    0    0 -0.58591506188E+01  0.63918598525E+01 -0.16150117278E+02  0.18330624825E+02  0.00000000000E+00 0.  1.
</event>
<event>
 7    1  0.1400974E-009  0.4778727E+02  0.7816164E-02  0.1312668E+00
        -11   -1    0    0    0    0  0.00000000000E+00  0.00000000000E+00  0.45593999997E+02  0.45594000000E+02  0.51100000000E-03 0. -1.
         11   -1    0    0    0    0 -0.00000000000E+00 -0.00000000000E+00 -0.45593999997E+02  0.45594000000E+02  0.51100000000E-03 0.  1.
    9900012    2    1    2    0    0 -0.14543187085E+02  0.16262256320E+02  0.37518767988E+02  0.47787271636E+02  0.20000002698E+02 0.  0.
        -12    1    1    2    0    0  0.14543187085E+02 -0.16262256320E+02 -0.37518767988E+02  0.43400728364E+02  0.00000000000E+00 0.  1.
         11    1    3    3    0    0 -0.33445064057E+01  0.11945321406E+02  0.13813960455E+02  0.18566150120E+02  0.51100000000E-03 0. -1.
        -11    1    3    3    0    0 -0.24049742068E+00 -0.21413159623E+01 -0.17819823229E+00  0.21621350400E+01  0.51100000000E-03 0.  1.
        -12    1    3    3    0    0 -0.10958183258E+02  0.64582508762E+01  0.23883005765E+02  0.27058986476E+02  0.00000000000E+00 0.  1.
</event>
<event>
 7    1  0.1400974E-009  0.4778725E+02  0.7816164E-02  0.1312668E+00
        -11   -1    0    0    0    0  0.00000000000E+00  0.00000000000E+00  0.45593999997E+02  0.45594000000E+02  0.51100000000E-03 0.  1.
         11   -1    0    0    0    0 -0.00000000000E+00 -0.00000000000E+00 -0.45593999997E+02  0.45594000000E+02  0.51100000000E-03 0. -1.
    9900012    2    1    2    0    0  0.31894366789E+02  0.19677601729E+02 -0.21889877993E+02  0.47787246537E+02  0.19999888259E+02 0.  0.
        -12    1    1    2    0    0 -0.31894366789E+02 -0.19677601729E+02  0.21889877993E+02  0.43400753463E+02  0.00000000000E+00 0.  1.
         11    1    3    3    0    0  0.20930480099E+02  0.21038682908E+02 -0.21225650465E+02  0.36486153725E+02  0.51100000000E-03 0. -1.
        -11    1    3    3    0    0  0.13576917107E+01 -0.96777791838E+00 -0.95162280275E-01  0.16700230541E+01  0.51100000000E-03 0.  1.
         12    1    3    3    0    0  0.96061949786E+01 -0.39330326145E+00 -0.56906524730E+00  0.96310697577E+01  0.00000000000E+00 0. -1.
</event>
<event>
 7    1  0.1400974E-009  0.4778727E+02  0.7816164E-02  0.1312668E+00
        -11   -1    0    0    0    0  0.00000000000E+00  0.00000000000E+00  0.45593999997E+02  0.45594000000E+02  0.51100000000E-03 0.  1.
         11   -1    0    0    0    0 -0.00000000000E+00 -0.00000000000E+00 -0.45593999997E+02  0.45594000000E+02  0.51100000000E-03 0. -1.
    9900012    2    1    2    0    0  0.68632990628E+01  0.31960991621E+02 -0.28548437523E+02  0.47787272536E+02  0.20000006799E+02 0.  0.
        -12    1    1    2    0    0 -0.68632990628E+01 -0.31960991621E+02  0.28548437523E+02  0.43400727464E+02  0.00000000000E+00 0.  1.
         11    1    3    3    0    0  0.95825177709E+01  0.25319994675E+02 -0.18946490179E+02  0.33043853703E+02  0.51100000000E-03 0. -1.
        -11    1    3    3    0    0  0.47197991166E+00 -0.11270195252E+01 -0.50407583840E+01  0.51867314751E+01  0.51100000000E-03 0.  1.
        -12    1    3    3    0    0 -0.31911986198E+01  0.77680164715E+01 -0.45611889602E+01  0.95566873582E+01  0.00000000000E+00 0.  1.
</event>
<event>
 7    1  0.1400974E-009  0.4778727E+02  0.7816164E-02  0.1312668E+00
        -11   -1    0    0    0    0  0.00000000000E+00  0.00000000000E+00  0.45593999997E+02  0.45594000000E+02  0.51100000000E-03 0.  1.
         11   -1    0    0    0    0 -0.00000000000E+00 -0.00000000000E+00 -0.45593999997E+02  0.45594000000E+02  0.51100000000E-03 0. -1.
    9900012    2    1    2    0    0 -0.37110165911E+02  0.13947926002E+02 -0.17661085193E+02  0.47787274385E+02  0.20000015230E+02 0.  0.
        -12    1    1    2    0    0  0.37110165911E+02 -0.13947926002E+02  0.17661085193E+02  0.43400725615E+02  0.00000000000E+00 0.  1.
         11    1    3    3    0    0 -0.24667728635E+02  0.54822531123E+01 -0.98042672286E+01  0.27104899766E+02  0.51100000000E-03 0. -1.
        -11    1    3    3    0    0 -0.74776819310E+01 -0.62333766822E+00 -0.70474428047E+01  0.10294208433E+02  0.51100000000E-03 0.  1.
         12    1    3    3    0    0 -0.49647553458E+01  0.90890105577E+01 -0.80937515989E+00  0.10388166186E+02  0.00000000000E+00 0. -1.
</event>
<event>
 7    1  0.1400974E-009  0.4778727E+02  0.7816164E-02  0.1312668E+00
        -11   -1    0    0    0    0  0.00000000000E+00  0.00000000000E+00  0.45593999997E+02  0.45594000000E+02  0.51100000000E-03 0. -1.
         11   -1    0    0    0    0 -0.00000000000E+00 -0.00000000000E+00 -0.45593999997E+02  0.45594000000E+02  0.51100000000E-03 0.  1.
    9900012    2    1    2    0    0 -0.32706876934E+02  0.28479280419E+02 -0.16775582852E+01  0.47787269433E+02  0.19999992652E+02 0.  0.
        -12    1    1    2    0    0  0.32706876934E+02 -0.28479280419E+02  0.16775582852E+01  0.43400730567E+02  0.00000000000E+00 0.  1.
         11    1    3    3    0    0 -0.99372465132E+01  0.14568986529E+02  0.26058900026E+01  0.17826802846E+02  0.51100000000E-03 0. -1.
        -11    1    3    3    0    0 -0.61391891244E+01 -0.80672930401E+00  0.25929283585E+01  0.67129526297E+01  0.51100000000E-03 0.  1.
        -12    1    3    3    0    0 -0.16630441296E+02  0.14717023195E+02 -0.68763766463E+01  0.23247513957E+02  0.00000000000E+00 0.  1.
</event>
<event>
 7    1  0.1400974E-009  0.4778727E+02  0.7816164E-02  0.1312668E+00
        -11   -1    0    0    0    0  0.00000000000E+00  0.00000000000E+00  0.45593999997E+02  0.45594000000E+02  0.51100000000E-03 0.  1.
         11   -1    0    0    0    0 -0.00000000000E+00 -0.00000000000E+00 -0.45593999997E+02  0.45594000000E+02  0.51100000000E-03 0. -1.
    9900012    2    1    2    0    0 -0.22604103216E+02 -0.10892656060E+02 -0.35412255006E+02  0.47787271402E+02  0.20000001630E+02 0.  0.
        -12    1    1    2    0    0  0.22604103216E+02  0.10892656060E+02  0.35412255006E+02  0.43400728598E+02  0.00000000000E+00 0.  1.
         11    1    3    3    0    0 -0.12771055358E+02 -0.27976329976E+01 -0.75806333241E+01  0.15112663803E+02  0.51100000000E-03 0. -1.
        -11    1    3    3    0    0 -0.67435814593E+01 -0.73454992577E+01 -0.27757938913E+02  0.29494667708E+02  0.51100000000E-03 0.  1.
        -12    1    3    3    0    0 -0.30894663982E+01 -0.74952380467E+00 -0.73682768616E-01  0.31799398909E+01  0.00000000000E+00 0.  1.
</event>
<event>
 7    1  0.1400974E-009  0.4778727E+02  0.7816164E-02  0.1312668E+00
        -11   -1    0    0    0    0  0.00000000000E+00  0.00000000000E+00  0.45593999997E+02  0.45594000000E+02  0.51100000000E-03 0.  1.
         11   -1    0    0    0    0 -0.00000000000E+00 -0.00000000000E+00 -0.45593999997E+02  0.45594000000E+02  0.51100000000E-03 0. -1.
    9900012    2    1    2    0    0  0.28095899565E+02  0.14739303377E+02 -0.29614124286E+02  0.47787274273E+02  0.20000014723E+02 0.  0.
        -12    1    1    2    0    0 -0.28095899565E+02 -0.14739303377E+02  0.29614124286E+02  0.43400725727E+02  0.00000000000E+00 0.  1.
         11    1    3    3    0    0 -0.97954163567E+00  0.33058696799E+01  0.27643138344E+00  0.34590014061E+01  0.51100000000E-03 0. -1.
        -11    1    3    3    0    0  0.15051429178E+02  0.25715743871E+01 -0.92706531885E+01  0.17863469034E+02  0.51100000000E-03 0.  1.
        -12    1    3    3    0    0  0.14024012022E+02  0.88618593102E+01 -0.20619902481E+02  0.26464803833E+02  0.00000000000E+00 0.  1.
</event>
<event>
 7    1  0.1400974E-009  0.4778727E+02  0.7816164E-02  0.1312668E+00
        -11   -1    0    0    0    0  0.00000000000E+00  0.00000000000E+00  0.45593999997E+02  0.45594000000E+02  0.51100000000E-03 0.  1.
         11   -1    0    0    0    0 -0.00000000000E+00 -0.00000000000E+00 -0.45593999997E+02  0.45594000000E+02  0.51100000000E-03 0. -1.
    9900012    2    1    2    0    0 -0.29128660522E+02 -0.19522459567E+02 -0.25573784364E+02  0.47787265697E+02  0.19999975619E+02 0.  0.
        -12    1    1    2    0    0  0.29128660522E+02  0.19522459567E+02  0.25573784364E+02  0.43400734303E+02  0.00000000000E+00 0.  1.
         11    1    3    3    0    0 -0.58936008569E+00 -0.50798312672E+01 -0.77841002864E+00  0.51728090480E+01  0.51100000000E-03 0.  1.
        -11    1    3    3    0    0 -0.21074723280E+02 -0.16650656363E+02 -0.19742833147E+02  0.33334183350E+02  0.51100000000E-03 0. -1.
         12    1    3    3    0    0 -0.74645771563E+01  0.22080280637E+01 -0.50525411881E+01  0.92802732993E+01  0.00000000000E+00 0. -1.
</event>
<event>
 7    1  0.1748431E-009  0.4778727E+02  0.7816164E-02  0.1312668E+00
        -11   -1    0    0    0    0  0.00000000000E+00  0.00000000000E+00  0.45593999997E+02  0.45594000000E+02  0.51100000000E-03 0. -1.
         11   -1    0    0    0    0 -0.00000000000E+00 -0.00000000000E+00 -0.45593999997E+02  0.45594000000E+02  0.51100000000E-03 0.  1.
    9900012    2    1    2    0    0  0.21281160970E+02 -0.35363759267E+02 -0.13421627319E+02  0.47787270033E+02  0.19999995389E+02 0.  0.
        -12    1    1    2    0    0 -0.21281160970E+02  0.35363759267E+02  0.13421627319E+02  0.43400729967E+02  0.00000000000E+00 0.  1.
         11    1    3    3    0    0  0.13114498510E+02 -0.83982649512E+01 -0.69842886915E+01  0.17067548569E+02  0.51100000000E-03 0. -1.
        -11    1    3    3    0    0 -0.15751235899E+01 -0.48525335022E+01 -0.39028976175E+01  0.64234496796E+01  0.51100000000E-03 0.  1.
         12    1    3    3    0    0  0.97417860504E+01 -0.22112960814E+02 -0.25344410106E+01  0.24296271785E+02  0.00000000000E+00 0. -1.
</event>
<event>
 7    1  0.1400974E-009  0.4778728E+02  0.7816164E-02  0.1312668E+00
        -11   -1    0    0    0    0  0.00000000000E+00  0.00000000000E+00  0.45593999997E+02  0.45594000000E+02  0.51100000000E-03 0.  1.
         11   -1    0    0    0    0 -0.00000000000E+00 -0.00000000000E+00 -0.45593999997E+02  0.45594000000E+02  0.51100000000E-03 0. -1.
    9900012    2    1    2    0    0 -0.21293850217E+02 -0.32403189188E+02 -0.19499429888E+02  0.47787280045E+02  0.20000041038E+02 0.  0.
        -12    1    1    2    0    0  0.21293850217E+02  0.32403189188E+02  0.19499429888E+02  0.43400719955E+02  0.00000000000E+00 0.  1.
         11    1    3    3    0    0 -0.67549257668E+01 -0.51274917185E+01 -0.10659549821E+02  0.13621534278E+02  0.51100000000E-03 0. -1.
        -11    1    3    3    0    0 -0.71134290157E+01 -0.56115707600E+01  0.12388530506E+01  0.91446900384E+01  0.51100000000E-03 0.  1.
        -12    1    3    3    0    0 -0.74254954348E+01 -0.21664126710E+02 -0.10078733118E+02  0.25021055729E+02  0.00000000000E+00 0.  1.
</event>
<event>
 7    1  0.1400974E-009  0.4778727E+02  0.7816164E-02  0.1312668E+00
        -11   -1    0    0    0    0  0.00000000000E+00  0.00000000000E+00  0.45593999997E+02  0.45594000000E+02  0.51100000000E-03 0.  1.
         11   -1    0    0    0    0 -0.00000000000E+00 -0.00000000000E+00 -0.45593999997E+02  0.45594000000E+02  0.51100000000E-03 0. -1.
    9900012    2    1    2    0    0  0.90046200486E+01 -0.41961153668E+02 -0.64654110088E+01  0.47787272600E+02  0.20000007091E+02 0.  0.
        -12    1    1    2    0    0 -0.90046200486E+01  0.41961153668E+02  0.64654110088E+01  0.43400727400E+02  0.00000000000E+00 0.  1.
         11    1    3    3    0    0  0.33429046987E+01 -0.79215052478E+01 -0.33828685032E+01  0.92395376933E+01  0.51100000000E-03 0. -1.
        -11    1    3    3    0    0 -0.48056973250E+01 -0.69201326742E+01  0.28209536478E+01  0.88848603114E+01  0.51100000000E-03 0.  1.
        -12    1    3    3    0    0  0.10467412675E+02 -0.27119515746E+02 -0.59034961534E+01  0.29662874595E+02  0.00000000000E+00 0.  1.
</event>
<event>
 7    1  0.1400974E-009  0.4778727E+02  0.7816164E-02  0.1312668E+00
        -11   -1    0    0    0    0  0.00000000000E+00  0.00000000000E+00  0.45593999997E+02  0.45594000000E+02  0.51100000000E-03 0. -1.
         11   -1    0    0    0    0 -0.00000000000E+00 -0.00000000000E+00 -0.45593999997E+02  0.45594000000E+02  0.51100000000E-03 0.  1.
    9900012    2    1    2    0    0 -0.30652561646E+02 -0.25661642516E+02  0.16897462749E+02  0.47787266372E+02  0.19999978697E+02 0.  0.
        -12    1    1    2    0    0  0.30652561646E+02  0.25661642516E+02 -0.16897462749E+02  0.43400733628E+02  0.00000000000E+00 0.  1.
         11    1    3    3    0    0 -0.20486046428E+02 -0.17839846668E+02  0.93920841623E+01  0.28742816016E+02  0.51100000000E-03 0. -1.
        -11    1    3    3    0    0 -0.55592214236E+01 -0.68624868313E+01  0.10302514013E+02  0.13569836535E+02  0.51100000000E-03 0.  1.
        -12    1    3    3    0    0 -0.46072937946E+01 -0.95930901679E+00 -0.27971354254E+01  0.54746138209E+01  0.00000000000E+00 0.  1.
</event>
<event>
 7    1  0.1400974E-009  0.4778727E+02  0.7816164E-02  0.1312668E+00
        -11   -1    0    0    0    0  0.00000000000E+00  0.00000000000E+00  0.45593999997E+02  0.45594000000E+02  0.51100000000E-03 0.  1.
         11   -1    0    0    0    0 -0.00000000000E+00 -0.00000000000E+00 -0.45593999997E+02  0.45594000000E+02  0.51100000000E-03 0. -1.
    9900012    2    1    2    0    0  0.18590844445E+02  0.74303319221E+01 -0.38507062410E+02  0.47787272067E+02  0.20000004664E+02 0.  0.
        -12    1    1    2    0    0 -0.18590844445E+02 -0.74303319221E+01  0.38507062410E+02  0.43400727933E+02  0.00000000000E+00 0.  1.
         11    1    3    3    0    0  0.85324561585E+01  0.10051398030E+02 -0.16239721958E+02  0.20917982216E+02  0.51100000000E-03 0. -1.
        -11    1    3    3    0    0  0.89559484414E+01 -0.10585314227E+01 -0.23089161229E+02  0.24787877436E+02  0.51100000000E-03 0.  1.
         12    1    3    3    0    0  0.11024398449E+01 -0.15625346853E+01  0.82182077679E+00  0.20814124156E+01  0.00000000000E+00 0. -1.
</event>
<event>
 7    1  0.1400974E-009  0.4778727E+02  0.7816164E-02  0.1312668E+00
        -11   -1    0    0    0    0  0.00000000000E+00  0.00000000000E+00  0.45593999997E+02  0.45594000000E+02  0.51100000000E-03 0. -1.
         11   -1    0    0    0    0 -0.00000000000E+00 -0.00000000000E+00 -0.45593999997E+02  0.45594000000E+02  0.51100000000E-03 0.  1.
    9900012    2    1    2    0    0  0.29135131563E+02  0.30544014205E+02 -0.10091112034E+02  0.47787271468E+02  0.20000001933E+02 0.  0.
        -12    1    1    2    0    0 -0.29135131563E+02 -0.30544014205E+02  0.10091112034E+02  0.43400728532E+02  0.00000000000E+00 0.  1.
         11    1    3    3    0    0  0.21682024300E+02  0.23945837829E+02 -0.29994774251E+01  0.32442413476E+02  0.51100000000E-03 0. -1.
        -11    1    3    3    0    0  0.43304924631E+01  0.66611910245E+01 -0.39407878104E+00  0.79548682695E+01  0.51100000000E-03 0.  1.
        -12    1    3    3    0    0  0.31226148002E+01 -0.63014647875E-01 -0.66975558278E+01  0.73899897228E+01  0.00000000000E+00 0.  1.
</event>
<event>
 7    1  0.1400974E-009  0.4778727E+02  0.7816164E-02  0.1312668E+00
        -11   -1    0    0    0    0  0.00000000000E+00  0.00000000000E+00  0.45593999997E+02  0.45594000000E+02  0.51100000000E-03 0.  1.
         11   -1    0    0    0    0 -0.00000000000E+00 -0.00000000000E+00 -0.45593999997E+02  0.45594000000E+02  0.51100000000E-03 0. -1.
    9900012    2    1    2    0    0 -0.31893275184E+02 -0.23392507681E+02 -0.17867094496E+02  0.47787268632E+02  0.19999989002E+02 0.  0.
        -12    1    1    2    0    0  0.31893275184E+02  0.23392507681E+02  0.17867094496E+02  0.43400731368E+02  0.00000000000E+00 0.  1.
         11    1    3    3    0    0 -0.11847716335E+02 -0.15671685498E+02 -0.32932848488E+01  0.19920236798E+02  0.51100000000E-03 0. -1.
        -11    1    3    3    0    0 -0.15479455786E+02 -0.51173342688E+01 -0.51867297896E+01  0.17108560069E+02  0.51100000000E-03 0.  1.
         12    1    3    3    0    0 -0.45661030624E+01 -0.26034879139E+01 -0.93870798574E+01  0.10758471766E+02  0.00000000000E+00 0. -1.
</event>
<event>
 7    1  0.1400974E-009  0.4778727E+02  0.7816164E-02  0.1312668E+00
        -11   -1    0    0    0    0  0.00000000000E+00  0.00000000000E+00  0.45593999997E+02  0.45594000000E+02  0.51100000000E-03 0.  1.
         11   -1    0    0    0    0 -0.00000000000E+00 -0.00000000000E+00 -0.45593999997E+02  0.45594000000E+02  0.51100000000E-03 0. -1.
    9900012    2    1    2    0    0  0.21315234960E+02 -0.27557990134E+02 -0.25881290236E+02  0.47787271367E+02  0.20000001470E+02 0.  0.
        -12    1    1    2    0    0 -0.21315234960E+02  0.27557990134E+02  0.25881290236E+02  0.43400728633E+02  0.00000000000E+00 0.  1.
         11    1    3    3    0    0  0.13764397027E+02 -0.17363956542E+02 -0.20137749978E+02  0.29941519446E+02  0.51100000000E-03 0. -1.
        -11    1    3    3    0    0 -0.22049130894E+01 -0.49336127905E+01 -0.37669347175E+01  0.65872584833E+01  0.51100000000E-03 0.  1.
        -12    1    3    3    0    0  0.97557510227E+01 -0.52604208011E+01 -0.19766055411E+01  0.11258493438E+02  0.00000000000E+00 0.  1.
</event>
<event>
 7    1  0.1400974E-009  0.4778723E+02  0.7816164E-02  0.1312668E+00
        -11   -1    0    0    0    0  0.00000000000E+00  0.00000000000E+00  0.45593999997E+02  0.45594000000E+02  0.51100000000E-03 0. -1.
         11   -1    0    0    0    0 -0.00000000000E+00 -0.00000000000E+00 -0.45593999997E+02  0.45594000000E+02  0.51100000000E-03 0.  1.
    9900012    2    1    2    0    0 -0.90752906826E+00  0.39662611340E+02 -0.17597732190E+02  0.47787233584E+02  0.19999829200E+02 0.  0.
        -12    1    1    2    0    0  0.90752906826E+00 -0.39662611340E+02  0.17597732190E+02  0.43400766416E+02  0.00000000000E+00 0.  1.
         11    1    3    3    0    0  0.47060311924E+01  0.48491280221E+01 -0.85495552465E+01  0.10897507391E+02  0.51100000000E-03 0. -1.
        -11    1    3    3    0    0 -0.44319243646E+01  0.15585507295E+02 -0.64964942058E+01  0.17457217088E+02  0.51100000000E-03 0.  1.
         12    1    3    3    0    0 -0.11816358961E+01  0.19227976023E+02 -0.25516827373E+01  0.19432509105E+02  0.00000000000E+00 0. -1.
</event>
<event>
 7    1  0.1400974E-009  0.4778728E+02  0.7816164E-02  0.1312668E+00
        -11   -1    0    0    0    0  0.00000000000E+00  0.00000000000E+00  0.45593999997E+02  0.45594000000E+02  0.51100000000E-03 0.  1.
         11   -1    0    0    0    0 -0.00000000000E+00 -0.00000000000E+00 -0.45593999997E+02  0.45594000000E+02  0.51100000000E-03 0. -1.
    9900012    2    1    2    0    0 -0.25788988410E+02 -0.29364702766E+02 -0.18874986072E+02  0.47787276608E+02  0.20000025365E+02 0.  0.
        -12    1    1    2    0    0  0.25788988410E+02  0.29364702766E+02  0.18874986072E+02  0.43400723392E+02  0.00000000000E+00 0.  1.
         11    1    3    3    0    0 -0.10896837724E+02 -0.12037309407E+02 -0.33746527168E+01  0.16583913030E+02  0.51100000000E-03 0. -1.
        -11    1    3    3    0    0 -0.66819533702E+01 -0.78262913294E+01 -0.15549402451E+02  0.18646266481E+02  0.51100000000E-03 0.  1.
        -12    1    3    3    0    0 -0.82101973156E+01 -0.95011020293E+01  0.49069095771E-01  0.12557097097E+02  0.00000000000E+00 0.  1.
</event>
<event>
 7    1  0.1400974E-009  0.4778729E+02  0.7816164E-02  0.1312668E+00
        -11   -1    0    0    0    0  0.00000000000E+00  0.00000000000E+00  0.45593999997E+02  0.45594000000E+02  0.51100000000E-03 0.  1.
         11   -1    0    0    0    0 -0.00000000000E+00 -0.00000000000E+00 -0.45593999997E+02  0.45594000000E+02  0.51100000000E-03 0. -1.
    9900012    2    1    2    0    0  0.76948223550E+01  0.18129254900E+02 -0.38674815107E+02  0.47787291505E+02  0.20000093289E+02 0.  0.
        -12    1    1    2    0    0 -0.76948223550E+01 -0.18129254900E+02  0.38674815107E+02  0.43400708495E+02  0.00000000000E+00 0.  1.
         11    1    3    3    0    0  0.42497178953E+01  0.11163851744E+02 -0.27503191482E+02  0.29985283556E+02  0.51100000000E-03 0. -1.
        -11    1    3    3    0    0  0.40644255094E+01 -0.17498547473E+01 -0.65859554669E+01  0.79345041453E+01  0.51100000000E-03 0.  1.
        -12    1    3    3    0    0 -0.61932104970E+00  0.87152579028E+01 -0.45856681580E+01  0.98675038044E+01  0.00000000000E+00 0.  1.
</event>
<event>
 7    1  0.1400974E-009  0.4778722E+02  0.7816164E-02  0.1312668E+00
        -11   -1    0    0    0    0  0.00000000000E+00  0.00000000000E+00  0.45593999997E+02  0.45594000000E+02  0.51100000000E-03 0. -1.
         11   -1    0    0    0    0 -0.00000000000E+00 -0.00000000000E+00 -0.45593999997E+02  0.45594000000E+02  0.51100000000E-03 0.  1.
    9900012    2    1    2    0    0  0.30418872416E+02 -0.77684801070E+01  0.29966151790E+02  0.47787224254E+02  0.19999786662E+02 0.  0.
        -12    1    1    2    0    0 -0.30418872416E+02  0.77684801070E+01 -0.29966151790E+02  0.43400775746E+02  0.00000000000E+00 0.  1.
         11    1    3    3    0    0  0.10558417011E+02 -0.71237445038E+01  0.56085164532E+01  0.13917017015E+02  0.51100000000E-03 0.  1.
        -11    1    3    3    0    0  0.20420089767E+02  0.28324818450E+00  0.17402302774E+02  0.26830960433E+02  0.51100000000E-03 0. -1.
        -12    1    3    3    0    0 -0.55963436225E+00 -0.92798378768E+00  0.69553325633E+01  0.70392468060E+01  0.00000000000E+00 0.  1.
</event>
<event>
 7    1  0.1400974E-009  0.4778727E+02  0.7816164E-02  0.1312668E+00
        -11   -1    0    0    0    0  0.00000000000E+00  0.00000000000E+00  0.45593999997E+02  0.45594000000E+02  0.51100000000E-03 0. -1.
         11   -1    0    0    0    0 -0.00000000000E+00 -0.00000000000E+00 -0.45593999997E+02  0.45594000000E+02  0.51100000000E-03 0.  1.
    9900012    2    1    2    0    0 -0.22562579551E+02 -0.31603942931E+02  0.19384114096E+02  0.47787273231E+02  0.20000009968E+02 0.  0.
        -12    1    1    2    0    0  0.22562579551E+02  0.31603942931E+02 -0.19384114096E+02  0.43400726769E+02  0.00000000000E+00 0.  1.
         11    1    3    3    0    0 -0.11790762232E+02 -0.10617049881E+02  0.73240109080E+01  0.17475267043E+02  0.51100000000E-03 0. -1.
        -11    1    3    3    0    0  0.53447744731E+00 -0.19953394994E+01  0.74539042779E+01  0.77348390484E+01  0.51100000000E-03 0.  1.
        -12    1    3    3    0    0 -0.11306294766E+02 -0.18991553551E+02  0.46061989106E+01  0.22577167139E+02  0.00000000000E+00 0.  1.
</event>
<event>
 7    1  0.1400974E-009  0.4778727E+02  0.7816164E-02  0.1312668E+00
        -11   -1    0    0    0    0  0.00000000000E+00  0.00000000000E+00  0.45593999997E+02  0.45594000000E+02  0.51100000000E-03 0.  1.
         11   -1    0    0    0    0 -0.00000000000E+00 -0.00000000000E+00 -0.45593999997E+02  0.45594000000E+02  0.51100000000E-03 0. -1.
    9900012    2    1    2    0    0 -0.30162415935E+02  0.17235911446E+02 -0.26014906547E+02  0.47787270270E+02  0.19999996470E+02 0.  0.
        -12    1    1    2    0    0  0.30162415935E+02 -0.17235911446E+02  0.26014906547E+02  0.43400729730E+02  0.00000000000E+00 0.  1.
         11    1    3    3    0    0 -0.22068377807E+02  0.51132440110E+01 -0.19428102708E+02  0.29843085270E+02  0.51100000000E-03 0. -1.
        -11    1    3    3    0    0 -0.61560163462E+01  0.41097657147E+01 -0.15737811660E-01  0.74018213586E+01  0.51100000000E-03 0.  1.
        -12    1    3    3    0    0 -0.19380217818E+01  0.80129017205E+01 -0.65710660274E+01  0.10542363641E+02  0.00000000000E+00 0.  1.
</event>
<event>
 7    1  0.1400974E-009  0.4778726E+02  0.7816164E-02  0.1312668E+00
        -11   -1    0    0    0    0  0.00000000000E+00  0.00000000000E+00  0.45593999997E+02  0.45594000000E+02  0.51100000000E-03 0. -1.
         11   -1    0    0    0    0 -0.00000000000E+00 -0.00000000000E+00 -0.45593999997E+02  0.45594000000E+02  0.51100000000E-03 0.  1.
    9900012    2    1    2    0    0 -0.24656483416E+02 -0.24533322836E+02  0.25957613604E+02  0.47787264893E+02  0.19999971952E+02 0.  0.
        -12    1    1    2    0    0  0.24656483416E+02  0.24533322836E+02 -0.25957613604E+02  0.43400735107E+02  0.00000000000E+00 0.  1.
         11    1    3    3    0    0 -0.53883111370E+01 -0.25603408720E+01  0.12805928275E+02  0.14127315440E+02  0.51100000000E-03 0. -1.
        -11    1    3    3    0    0 -0.57157883489E+01 -0.14281582894E+02  0.59514150492E+01  0.16494034914E+02  0.51100000000E-03 0.  1.
        -12    1    3    3    0    0 -0.13552383930E+02 -0.76913990706E+01  0.72002702801E+01  0.17165914539E+02  0.00000000000E+00 0.  1.
</event>
<event>
 7    1  0.1400974E-009  0.4778727E+02  0.7816164E-02  0.1312668E+00
        -11   -1    0    0    0    0  0.00000000000E+00  0.00000000000E+00  0.45593999997E+02  0.45594000000E+02  0.51100000000E-03 0.  1.
         11   -1    0    0    0    0 -0.00000000000E+00 -0.00000000000E+00 -0.45593999997E+02  0.45594000000E+02  0.51100000000E-03 0. -1.
    9900012    2    1    2    0    0  0.47367219027E+01 -0.27514243025E+01 -0.43053647440E+02  0.47787269269E+02  0.19999991906E+02 0.  0.
        -12    1    1    2    0    0 -0.47367219027E+01  0.27514243025E+01  0.43053647440E+02  0.43400730731E+02  0.00000000000E+00 0.  1.
         11    1    3    3    0    0 -0.30709228199E+01 -0.65325745990E+01 -0.22260241850E+02  0.23401356058E+02  0.51100000000E-03 0. -1.
        -11    1    3    3    0    0  0.58211743328E+01 -0.23107147065E+01 -0.90086225324E+01  0.10971816315E+02  0.51100000000E-03 0.  1.
        -12    1    3    3    0    0  0.19864703898E+01  0.60918650030E+01 -0.11784783058E+02  0.13414096896E+02  0.00000000000E+00 0.  1.
</event>
<event>
 7    1  0.1400974E-009  0.4778727E+02  0.7816164E-02  0.1312668E+00
        -11   -1    0    0    0    0  0.00000000000E+00  0.00000000000E+00  0.45593999997E+02  0.45594000000E+02  0.51100000000E-03 0.  1.
         11   -1    0    0    0    0 -0.00000000000E+00 -0.00000000000E+00 -0.45593999997E+02  0.45594000000E+02  0.51100000000E-03 0. -1.
    9900012    2    1    2    0    0  0.14217857186E+02  0.17989499873E+02 -0.36849068996E+02  0.47787268964E+02  0.19999990513E+02 0.  0.
        -12    1    1    2    0    0 -0.14217857186E+02 -0.17989499873E+02  0.36849068996E+02  0.43400731036E+02  0.00000000000E+00 0.  1.
         11    1    3    3    0    0  0.42527561493E+01  0.36782849889E+01 -0.11609001622E+01  0.57413765573E+01  0.51100000000E-03 0.  1.
        -11    1    3    3    0    0  0.25086154647E+01  0.26874893034E+01 -0.23000848712E+02  0.23292805585E+02  0.51100000000E-03 0. -1.
         12    1    3    3    0    0  0.74564855715E+01  0.11623725581E+02 -0.12687320122E+02  0.18753086821E+02  0.00000000000E+00 0. -1.
</event>
<event>
 7    1  0.1400974E-009  0.4778727E+02  0.7816164E-02  0.1312668E+00
        -11   -1    0    0    0    0  0.00000000000E+00  0.00000000000E+00  0.45593999997E+02  0.45594000000E+02  0.51100000000E-03 0.  1.
         11   -1    0    0    0    0 -0.00000000000E+00 -0.00000000000E+00 -0.45593999997E+02  0.45594000000E+02  0.51100000000E-03 0. -1.
    9900012    2    1    2    0    0  0.24265089748E+02 -0.13414335861E+02 -0.33389880138E+02  0.47787273247E+02  0.20000010044E+02 0.  0.
        -12    1    1    2    0    0 -0.24265089748E+02  0.13414335861E+02  0.33389880138E+02  0.43400726753E+02  0.00000000000E+00 0.  1.
         11    1    3    3    0    0  0.21662895015E+02 -0.16785225306E+02 -0.29205621820E+02  0.40049883335E+02  0.51100000000E-03 0. -1.
        -11    1    3    3    0    0  0.27303879589E+01  0.21764332513E+01 -0.51320258811E+01  0.62072191848E+01  0.51100000000E-03 0.  1.
         12    1    3    3    0    0 -0.12819322645E+00  0.11944561935E+01  0.94776756311E+00  0.15301707274E+01  0.00000000000E+00 0. -1.
</event>
<event>
 7    1  0.1400974E-009  0.4778727E+02  0.7816164E-02  0.1312668E+00
        -11   -1    0    0    0    0  0.00000000000E+00  0.00000000000E+00  0.45593999997E+02  0.45594000000E+02  0.51100000000E-03 0. -1.
         11   -1    0    0    0    0 -0.00000000000E+00 -0.00000000000E+00 -0.45593999997E+02  0.45594000000E+02  0.51100000000E-03 0.  1.
    9900012    2    1    2    0    0 -0.30242445794E+02  0.22984495907E+02  0.20993590007E+02  0.47787269579E+02  0.19999993317E+02 0.  0.
        -12    1    1    2    0    0  0.30242445794E+02 -0.22984495907E+02 -0.20993590007E+02  0.43400730421E+02  0.00000000000E+00 0.  1.
         11    1    3    3    0    0  0.13831414686E+00  0.52709347974E+01  0.78476147571E+00  0.53308287607E+01  0.51100000000E-03 0.  1.
        -11    1    3    3    0    0  0.24506446452E+00  0.35119461285E+01  0.26373702505E+01  0.43988116919E+01  0.51100000000E-03 0. -1.
         12    1    3    3    0    0 -0.30625824406E+02  0.14201614982E+02  0.17571458280E+02  0.38057629126E+02  0.00000000000E+00 0. -1.
</event>
<event>
 7    1  0.1400974E-009  0.4778726E+02  0.7816164E-02  0.1312668E+00
        -11   -1    0    0    0    0  0.00000000000E+00  0.00000000000E+00  0.45593999997E+02  0.45594000000E+02  0.51100000000E-03 0.  1.
         11   -1    0    0    0    0 -0.00000000000E+00 -0.00000000000E+00 -0.45593999997E+02  0.45594000000E+02  0.51100000000E-03 0. -1.
    9900012    2    1    2    0    0 -0.31654566438E+02  0.28910844458E+02  0.67657695130E+01  0.47787261058E+02  0.19999954466E+02 0.  0.
        -12    1    1    2    0    0  0.31654566438E+02 -0.28910844458E+02 -0.67657695130E+01  0.43400738942E+02  0.00000000000E+00 0.  1.
         11    1    3    3    0    0 -0.25918157446E+02  0.23480168881E+02  0.36960510430E+01  0.35167172330E+02  0.51100000000E-03 0. -1.
        -11    1    3    3    0    0 -0.51103988791E+01 -0.14204916471E+01  0.19424664768E+01  0.56486413851E+01  0.51100000000E-03 0.  1.
        -12    1    3    3    0    0 -0.62601011223E+00  0.68511672244E+01  0.11272519931E+01  0.69714473428E+01  0.00000000000E+00 0.  1.
</event>
<event>
 7    1  0.1400974E-009  0.4778727E+02  0.7816164E-02  0.1312668E+00
        -11   -1    0    0    0    0  0.00000000000E+00  0.00000000000E+00  0.45593999997E+02  0.45594000000E+02  0.51100000000E-03 0.  1.
         11   -1    0    0    0    0 -0.00000000000E+00 -0.00000000000E+00 -0.45593999997E+02  0.45594000000E+02  0.51100000000E-03 0. -1.
    9900012    2    1    2    0    0 -0.67714496734E+01  0.37923439222E+02 -0.19989581899E+02  0.47787272384E+02  0.20000006109E+02 0.  0.
        -12    1    1    2    0    0  0.67714496734E+01 -0.37923439222E+02  0.19989581899E+02  0.43400727616E+02  0.00000000000E+00 0.  1.
         11    1    3    3    0    0 -0.77752319598E+00  0.32907720650E+01 -0.12990216649E+01  0.36223170279E+01  0.51100000000E-03 0. -1.
        -11    1    3    3    0    0 -0.50002991077E+01 -0.26068298263E+00 -0.34191515090E+01  0.60631298919E+01  0.51100000000E-03 0.  1.
        -12    1    3    3    0    0 -0.99362736982E+00  0.34893350139E+02 -0.15271408725E+02  0.38101825465E+02  0.00000000000E+00 0.  1.
</event>
<event>
 7    1  0.1400974E-009  0.4778727E+02  0.7816164E-02  0.1312668E+00
        -11   -1    0    0    0    0  0.00000000000E+00  0.00000000000E+00  0.45593999997E+02  0.45594000000E+02  0.51100000000E-03 0.  1.
         11   -1    0    0    0    0 -0.00000000000E+00 -0.00000000000E+00 -0.45593999997E+02  0.45594000000E+02  0.51100000000E-03 0. -1.
    9900012    2    1    2    0    0 -0.19293945774E+02  0.23064959035E+02 -0.31294958057E+02  0.47787273294E+02  0.20000010258E+02 0.  0.
        -12    1    1    2    0    0  0.19293945774E+02 -0.23064959035E+02  0.31294958057E+02  0.43400726706E+02  0.00000000000E+00 0.  1.
         11    1    3    3    0    0 -0.13416014457E+01  0.48727654441E+01 -0.88023551947E+01  0.10150132745E+02  0.51100000000E-03 0. -1.
        -11    1    3    3    0    0 -0.14664544135E+02  0.18629208624E+02 -0.11880329530E+02  0.26518644359E+02  0.51100000000E-03 0.  1.
        -12    1    3    3    0    0 -0.32878001931E+01 -0.43701503288E+00 -0.10612273332E+02  0.11118496190E+02  0.00000000000E+00 0.  1.
</event>
<event>
 7    1  0.1400974E-009  0.4778728E+02  0.7816164E-02  0.1312668E+00
        -11   -1    0    0    0    0  0.00000000000E+00  0.00000000000E+00  0.45593999997E+02  0.45594000000E+02  0.51100000000E-03 0.  1.
         11   -1    0    0    0    0 -0.00000000000E+00 -0.00000000000E+00 -0.45593999997E+02  0.45594000000E+02  0.51100000000E-03 0. -1.
    9900012    2    1    2    0    0 -0.39298060094E+02 -0.11429658653E+02 -0.14444661335E+02  0.47787275753E+02  0.20000021469E+02 0.  0.
        -12    1    1    2    0    0  0.39298060094E+02  0.11429658653E+02  0.14444661335E+02  0.43400724247E+02  0.00000000000E+00 0.  1.
         11    1    3    3    0    0 -0.78986830681E+01  0.11919222526E+01 -0.53003411696E+01  0.95866307763E+01  0.51100000000E-03 0. -1.
        -11    1    3    3    0    0 -0.54004839850E+00  0.24780307811E+01  0.34303096195E+00  0.25592888323E+01  0.51100000000E-03 0.  1.
         12    1    3    3    0    0 -0.30859328627E+02 -0.15099611687E+02 -0.94873511272E+01  0.35641356145E+02  0.00000000000E+00 0. -1.
</event>
<event>
 7    1  0.1400974E-009  0.4778727E+02  0.7816164E-02  0.1312668E+00
        -11   -1    0    0    0    0  0.00000000000E+00  0.00000000000E+00  0.45593999997E+02  0.45594000000E+02  0.51100000000E-03 0. -1.
         11   -1    0    0    0    0 -0.00000000000E+00 -0.00000000000E+00 -0.45593999997E+02  0.45594000000E+02  0.51100000000E-03 0.  1.
    9900012    2    1    2    0    0 -0.35707576499E+02 -0.89983149080E+01 -0.22970040336E+02  0.47787269088E+02  0.19999991080E+02 0.  0.
        -12    1    1    2    0    0  0.35707576499E+02  0.89983149080E+01  0.22970040336E+02  0.43400730912E+02  0.00000000000E+00 0.  1.
         11    1    3    3    0    0 -0.17086004489E+02 -0.11852182326E+02 -0.53320764288E+01  0.21467110066E+02  0.51100000000E-03 0. -1.
        -11    1    3    3    0    0 -0.68180922712E+01 -0.10440203889E+01 -0.81845119397E+01  0.10703391834E+02  0.51100000000E-03 0.  1.
         12    1    3    3    0    0 -0.11803479739E+02  0.38978878070E+01 -0.94534519677E+01  0.15616767188E+02  0.00000000000E+00 0. -1.
</event>
<event>
 7    1  0.1400974E-009  0.4778726E+02  0.7816164E-02  0.1312668E+00
        -11   -1    0    0    0    0  0.00000000000E+00  0.00000000000E+00  0.45593999997E+02  0.45594000000E+02  0.51100000000E-03 0. -1.
         11   -1    0    0    0    0 -0.00000000000E+00 -0.00000000000E+00 -0.45593999997E+02  0.45594000000E+02  0.51100000000E-03 0.  1.
    9900012    2    1    2    0    0 -0.10193559934E+02 -0.32435637098E+01  0.42061792988E+02  0.47787264994E+02  0.19999972414E+02 0.  0.
        -12    1    1    2    0    0  0.10193559934E+02  0.32435637098E+01 -0.42061792988E+02  0.43400735006E+02  0.00000000000E+00 0.  1.
         11    1    3    3    0    0 -0.44369453466E+01 -0.44492485196E+01  0.12104774556E+02  0.13638469992E+02  0.51100000000E-03 0. -1.
        -11    1    3    3    0    0  0.26766383417E+01 -0.40837565325E+01  0.17686088008E+02  0.18347729274E+02  0.51100000000E-03 0.  1.
         12    1    3    3    0    0 -0.84332529289E+01  0.52894413422E+01  0.12270930424E+02  0.15801065728E+02  0.00000000000E+00 0. -1.
</event>
<event>
 7    1  0.1400974E-009  0.4778727E+02  0.7816164E-02  0.1312668E+00
        -11   -1    0    0    0    0  0.00000000000E+00  0.00000000000E+00  0.45593999997E+02  0.45594000000E+02  0.51100000000E-03 0.  1.
         11   -1    0    0    0    0 -0.00000000000E+00 -0.00000000000E+00 -0.45593999997E+02  0.45594000000E+02  0.51100000000E-03 0. -1.
    9900012    2    1    2    0    0 -0.80338024466E+01  0.46693090613E+01 -0.42394326312E+02  0.47787270371E+02  0.19999996931E+02 0.  0.
        -12    1    1    2    0    0  0.80338024466E+01 -0.46693090613E+01  0.42394326312E+02  0.43400729629E+02  0.00000000000E+00 0.  1.
         11    1    3    3    0    0 -0.10467148963E+02  0.21972969061E+01 -0.29369623796E+02  0.31256425312E+02  0.51100000000E-03 0. -1.
        -11    1    3    3    0    0  0.34118980231E+01 -0.25012948783E+00 -0.13196829169E+02  0.13633044901E+02  0.51100000000E-03 0.  1.
        -12    1    3    3    0    0 -0.97855150672E+00  0.27221416431E+01  0.17212665302E+00  0.28978001589E+01  0.00000000000E+00 0.  1.
</event>
<event>
 7    1  0.1400974E-009  0.4778727E+02  0.7816164E-02  0.1312668E+00
        -11   -1    0    0    0    0  0.00000000000E+00  0.00000000000E+00  0.45593999997E+02  0.45594000000E+02  0.51100000000E-03 0. -1.
         11   -1    0    0    0    0 -0.00000000000E+00 -0.00000000000E+00 -0.45593999997E+02  0.45594000000E+02  0.51100000000E-03 0.  1.
    9900012    2    1    2    0    0  0.16820114329E+02  0.39073666608E+02  0.85997431896E+01  0.47787271306E+02  0.20000001192E+02 0.  0.
        -12    1    1    2    0    0 -0.16820114329E+02 -0.39073666608E+02 -0.85997431896E+01  0.43400728694E+02  0.00000000000E+00 0.  1.
         11    1    3    3    0    0 -0.63373533398E+00 -0.19520051431E+00 -0.11155007485E+01  0.12977156450E+01  0.51100000000E-03 0.  1.
        -11    1    3    3    0    0  0.19327884873E+02  0.38448671454E+02  0.78955147180E+01  0.43751647091E+02  0.51100000000E-03 0. -1.
         12    1    3    3    0    0 -0.18740352102E+01  0.82019566890E+00  0.18197292201E+01  0.27379085702E+01  0.00000000000E+00 0. -1.
</event>
<event>
 7    1  0.1400974E-009  0.4778726E+02  0.7816164E-02  0.1312668E+00
        -11   -1    0    0    0    0  0.00000000000E+00  0.00000000000E+00  0.45593999997E+02  0.45594000000E+02  0.51100000000E-03 0.  1.
         11   -1    0    0    0    0 -0.00000000000E+00 -0.00000000000E+00 -0.45593999997E+02  0.45594000000E+02  0.51100000000E-03 0. -1.
    9900012    2    1    2    0    0  0.12611272744E+02 -0.41007032505E+02  0.65576622713E+01  0.47787264413E+02  0.19999969763E+02 0.  0.
        -12    1    1    2    0    0 -0.12611272744E+02  0.41007032505E+02 -0.65576622713E+01  0.43400735587E+02  0.00000000000E+00 0.  1.
         11    1    3    3    0    0  0.12215680054E+02 -0.17907530410E+02  0.25219957742E+01  0.21823449488E+02  0.51100000000E-03 0. -1.
        -11    1    3    3    0    0 -0.13555763973E+01  0.81315266798E+00  0.79404327549E+00  0.17689854761E+01  0.51100000000E-03 0.  1.
        -12    1    3    3    0    0  0.17511690869E+01 -0.23912654762E+02  0.32416232217E+01  0.24194829449E+02  0.00000000000E+00 0.  1.
</event>
<event>
 7    1  0.1400974E-009  0.4778727E+02  0.7816164E-02  0.1312668E+00
        -11   -1    0    0    0    0  0.00000000000E+00  0.00000000000E+00  0.45593999997E+02  0.45594000000E+02  0.51100000000E-03 0.  1.
         11   -1    0    0    0    0 -0.00000000000E+00 -0.00000000000E+00 -0.45593999997E+02  0.45594000000E+02  0.51100000000E-03 0. -1.
    9900012    2    1    2    0    0 -0.13953917658E+02  0.37593406385E+02 -0.16602641032E+02  0.47787266010E+02  0.19999977046E+02 0.  0.
        -12    1    1    2    0    0  0.13953917658E+02 -0.37593406385E+02  0.16602641032E+02  0.43400733990E+02  0.00000000000E+00 0.  1.
         11    1    3    3    0    0 -0.71282017280E+01  0.21027616571E+02 -0.41395140353E+01  0.22585559440E+02  0.51100000000E-03 0. -1.
        -11    1    3    3    0    0 -0.10216250448E+02  0.12384613711E+02 -0.11461907524E+02  0.19726270664E+02  0.51100000000E-03 0.  1.
        -12    1    3    3    0    0  0.33905345177E+01  0.41811761032E+01 -0.10012194732E+01  0.54754359055E+01  0.00000000000E+00 0.  1.
</event>
<event>
 7    1  0.1400974E-009  0.4778727E+02  0.7816164E-02  0.1312668E+00
        -11   -1    0    0    0    0  0.00000000000E+00  0.00000000000E+00  0.45593999997E+02  0.45594000000E+02  0.51100000000E-03 0.  1.
         11   -1    0    0    0    0 -0.00000000000E+00 -0.00000000000E+00 -0.45593999997E+02  0.45594000000E+02  0.51100000000E-03 0. -1.
    9900012    2    1    2    0    0  0.25981446927E+02  0.34099021756E+02  0.67708776398E+01  0.47787266675E+02  0.19999980079E+02 0.  0.
        -12    1    1    2    0    0 -0.25981446927E+02 -0.34099021756E+02 -0.67708776398E+01  0.43400733325E+02  0.00000000000E+00 0.  1.
         11    1    3    3    0    0  0.13415375100E+01  0.72069536236E+01 -0.47669729463E+01  0.87443658864E+01  0.51100000000E-03 0. -1.
        -11    1    3    3    0    0  0.36898906578E+01  0.50583520293E+01  0.51727888149E+01  0.81215739056E+01  0.51100000000E-03 0.  1.
         12    1    3    3    0    0  0.20950018759E+02  0.21833716103E+02  0.63650617712E+01  0.30921326883E+02  0.00000000000E+00 0. -1.
</event>
<event>
 7    1  0.1400974E-009  0.4778726E+02  0.7816164E-02  0.1312668E+00
        -11   -1    0    0    0    0  0.00000000000E+00  0.00000000000E+00  0.45593999997E+02  0.45594000000E+02  0.51100000000E-03 0. -1.
         11   -1    0    0    0    0 -0.00000000000E+00 -0.00000000000E+00 -0.45593999997E+02  0.45594000000E+02  0.51100000000E-03 0.  1.
    9900012    2    1    2    0    0  0.35980643482E+02  0.14269974497E+02  0.19631237961E+02  0.47787258285E+02  0.19999941826E+02 0.  0.
        -12    1    1    2    0    0 -0.35980643482E+02 -0.14269974497E+02 -0.19631237961E+02  0.43400741715E+02  0.00000000000E+00 0.  1.
         11    1    3    3    0    0  0.10605765920E+02  0.29849029673E+01 -0.32285437240E+01  0.11481089291E+02  0.51100000000E-03 0. -1.
        -11    1    3    3    0    0  0.92882221943E+01  0.62913655570E+01  0.73697276565E+01  0.13422564513E+02  0.51100000000E-03 0.  1.
         12    1    3    3    0    0  0.16086655367E+02  0.49937059723E+01  0.15490054028E+02  0.22883604481E+02  0.00000000000E+00 0. -1.
</event>
<event>
 7    1  0.1400974E-009  0.4778727E+02  0.7816164E-02  0.1312668E+00
        -11   -1    0    0    0    0  0.00000000000E+00  0.00000000000E+00  0.45593999997E+02  0.45594000000E+02  0.51100000000E-03 0.  1.
         11   -1    0    0    0    0 -0.00000000000E+00 -0.00000000000E+00 -0.45593999997E+02  0.45594000000E+02  0.51100000000E-03 0. -1.
    9900012    2    1    2    0    0  0.19580780523E+02  0.21230945320E+02 -0.32395416549E+02  0.47787273987E+02  0.20000013416E+02 0.  0.
        -12    1    1    2    0    0 -0.19580780523E+02 -0.21230945320E+02  0.32395416549E+02  0.43400726013E+02  0.00000000000E+00 0.  1.
         11    1    3    3    0    0  0.24269009690E+01  0.32293467057E+01 -0.15670416539E+00  0.40426581497E+01  0.51100000000E-03 0. -1.
        -11    1    3    3    0    0  0.25189057770E+01  0.73863591608E+01 -0.21129922401E+02  0.22525026280E+02  0.51100000000E-03 0.  1.
        -12    1    3    3    0    0  0.14634973777E+02  0.10615239454E+02 -0.11108789982E+02  0.21219589558E+02  0.00000000000E+00 0.  1.
</event>
<event>
 7    1  0.1400974E-009  0.4778727E+02  0.7816164E-02  0.1312668E+00
        -11   -1    0    0    0    0  0.00000000000E+00  0.00000000000E+00  0.45593999997E+02  0.45594000000E+02  0.51100000000E-03 0.  1.
         11   -1    0    0    0    0 -0.00000000000E+00 -0.00000000000E+00 -0.45593999997E+02  0.45594000000E+02  0.51100000000E-03 0. -1.
    9900012    2    1    2    0    0 -0.16363734024E+02 -0.30533749153E+02 -0.26144629044E+02  0.47787271246E+02  0.20000000918E+02 0.  0.
        -12    1    1    2    0    0  0.16363734024E+02  0.30533749153E+02  0.26144629044E+02  0.43400728754E+02  0.00000000000E+00 0.  1.
         11    1    3    3    0    0 -0.69083154479E+01 -0.99659026784E+01 -0.96610884629E+01  0.15504214558E+02  0.51100000000E-03 0. -1.
        -11    1    3    3    0    0 -0.12605652088E+02 -0.12202482966E+02 -0.60828163261E+01  0.18568890915E+02  0.51100000000E-03 0.  1.
         12    1    3    3    0    0  0.31502335115E+01 -0.83653635081E+01 -0.10400724255E+02  0.13714165772E+02  0.00000000000E+00 0. -1.
</event>
<event>
 7    1  0.1400974E-009  0.4778725E+02  0.7816164E-02  0.1312668E+00
        -11   -1    0    0    0    0  0.00000000000E+00  0.00000000000E+00  0.45593999997E+02  0.45594000000E+02  0.51100000000E-03 0.  1.
         11   -1    0    0    0    0 -0.00000000000E+00 -0.00000000000E+00 -0.45593999997E+02  0.45594000000E+02  0.51100000000E-03 0. -1.
    9900012    2    1    2    0    0  0.28796828190E+02  0.27341928792E+02 -0.17515331304E+02  0.47787248687E+02  0.19999898062E+02 0.  0.
        -12    1    1    2    0    0 -0.28796828190E+02 -0.27341928792E+02  0.17515331304E+02  0.43400751313E+02  0.00000000000E+00 0.  1.
         11    1    3    3    0    0  0.15105524578E+02  0.13268506175E+02 -0.30379911079E+01  0.20333704019E+02  0.51100000000E-03 0. -1.
        -11    1    3    3    0    0  0.69001540668E+00 -0.74546678917E+00 -0.58450132167E+01  0.59326235141E+01  0.51100000000E-03 0.  1.
         12    1    3    3    0    0  0.13001288205E+02  0.14818889406E+02 -0.86323269794E+01  0.21520921154E+02  0.00000000000E+00 0. -1.
</event>
<event>
 7    1  0.1400974E-009  0.4778727E+02  0.7816164E-02  0.1312668E+00
        -11   -1    0    0    0    0  0.00000000000E+00  0.00000000000E+00  0.45593999997E+02  0.45594000000E+02  0.51100000000E-03 0.  1.
         11   -1    0    0    0    0 -0.00000000000E+00 -0.00000000000E+00 -0.45593999997E+02  0.45594000000E+02  0.51100000000E-03 0. -1.
    9900012    2    1    2    0    0  0.86496205734E+01  0.37921797417E+02 -0.19254723392E+02  0.47787273873E+02  0.20000012897E+02 0.  0.
        -12    1    1    2    0    0 -0.86496205734E+01 -0.37921797417E+02  0.19254723392E+02  0.43400726127E+02  0.00000000000E+00 0.  1.
         11    1    3    3    0    0  0.62729237759E+01  0.27298711105E+02 -0.11580607057E+02  0.30309728813E+02  0.51100000000E-03 0. -1.
        -11    1    3    3    0    0 -0.36698895844E+01  0.37752856913E+01  0.40718431786E+00  0.52807831751E+01  0.51100000000E-03 0.  1.
         12    1    3    3    0    0  0.60465863818E+01  0.68478006216E+01 -0.80813006531E+01  0.12196761885E+02  0.00000000000E+00 0. -1.
</event>
<event>
 7    1  0.1400974E-009  0.4778727E+02  0.7816164E-02  0.1312668E+00
        -11   -1    0    0    0    0  0.00000000000E+00  0.00000000000E+00  0.45593999997E+02  0.45594000000E+02  0.51100000000E-03 0.  1.
         11   -1    0    0    0    0 -0.00000000000E+00 -0.00000000000E+00 -0.45593999997E+02  0.45594000000E+02  0.51100000000E-03 0. -1.
    9900012    2    1    2    0    0  0.23238426618E+02  0.20381037797E+02 -0.30466571751E+02  0.47787272268E+02  0.20000005581E+02 0.  0.
        -12    1    1    2    0    0 -0.23238426618E+02 -0.20381037797E+02  0.30466571751E+02  0.43400727732E+02  0.00000000000E+00 0.  1.
         11    1    3    3    0    0  0.99085543562E+01  0.13751841711E+02 -0.18199176843E+02  0.24869713265E+02  0.51100000000E-03 0. -1.
        -11    1    3    3    0    0  0.15633630145E+02  0.64843524342E+01 -0.98847571514E+01  0.19600143933E+02  0.51100000000E-03 0.  1.
        -12    1    3    3    0    0 -0.23037578829E+01  0.14484365141E+00 -0.23826377572E+01  0.33174150702E+01  0.00000000000E+00 0.  1.
</event>
<event>
 7    1  0.1400974E-009  0.4778727E+02  0.7816164E-02  0.1312668E+00
        -11   -1    0    0    0    0  0.00000000000E+00  0.00000000000E+00  0.45593999997E+02  0.45594000000E+02  0.51100000000E-03 0.  1.
         11   -1    0    0    0    0 -0.00000000000E+00 -0.00000000000E+00 -0.45593999997E+02  0.45594000000E+02  0.51100000000E-03 0. -1.
    9900012    2    1    2    0    0  0.34916597279E+02 -0.92193687661E+01 -0.24071935414E+02  0.47787267280E+02  0.19999982838E+02 0.  0.
        -12    1    1    2    0    0 -0.34916597279E+02  0.92193687661E+01  0.24071935414E+02  0.43400732720E+02  0.00000000000E+00 0.  1.
         11    1    3    3    0    0  0.75653591536E-01  0.69605773096E+00 -0.22441452474E+01  0.23508313387E+01  0.51100000000E-03 0. -1.
        -11    1    3    3    0    0  0.16166035881E+01  0.25257735236E+01  0.11010987048E+01  0.31945825506E+01  0.51100000000E-03 0.  1.
         12    1    3    3    0    0  0.33224340100E+02 -0.12441200021E+02 -0.22928888872E+02  0.42241853391E+02  0.00000000000E+00 0. -1.
</event>
<event>
 7    1  0.1400974E-009  0.4778727E+02  0.7816164E-02  0.1312668E+00
        -11   -1    0    0    0    0  0.00000000000E+00  0.00000000000E+00  0.45593999997E+02  0.45594000000E+02  0.51100000000E-03 0. -1.
         11   -1    0    0    0    0 -0.00000000000E+00 -0.00000000000E+00 -0.45593999997E+02  0.45594000000E+02  0.51100000000E-03 0.  1.
    9900012    2    1    2    0    0 -0.34430489412E+00  0.20550366750E+02  0.38225475291E+02  0.47787273271E+02  0.20000010150E+02 0.  0.
        -12    1    1    2    0    0  0.34430489412E+00 -0.20550366750E+02 -0.38225475291E+02  0.43400726729E+02  0.00000000000E+00 0.  1.
         11    1    3    3    0    0  0.32966474959E+01  0.40459609703E+01  0.22706131905E+01  0.56915173203E+01  0.51100000000E-03 0. -1.
        -11    1    3    3    0    0 -0.79059425856E+01  0.78949057129E+01  0.12591239963E+02  0.16833680182E+02  0.51100000000E-03 0.  1.
         12    1    3    3    0    0  0.42649901956E+01  0.86095000663E+01  0.23363622138E+02  0.25262075769E+02  0.00000000000E+00 0. -1.
</event>
<event>
 7    1  0.1400974E-009  0.4778727E+02  0.7816164E-02  0.1312668E+00
        -11   -1    0    0    0    0  0.00000000000E+00  0.00000000000E+00  0.45593999997E+02  0.45594000000E+02  0.51100000000E-03 0.  1.
         11   -1    0    0    0    0 -0.00000000000E+00 -0.00000000000E+00 -0.45593999997E+02  0.45594000000E+02  0.51100000000E-03 0. -1.
    9900012    2    1    2    0    0 -0.36387818443E+02  0.13360604797E+01 -0.23617048123E+02  0.47787270160E+02  0.19999995966E+02 0.  0.
        -12    1    1    2    0    0  0.36387818443E+02 -0.13360604797E+01  0.23617048123E+02  0.43400729840E+02  0.00000000000E+00 0.  1.
         11    1    3    3    0    0 -0.11226513440E+02 -0.86501510190E+00 -0.10019636592E+02  0.15072357906E+02  0.51100000000E-03 0. -1.
        -11    1    3    3    0    0 -0.14860088511E+02  0.25131941892E+01  0.70338013757E+00  0.15087515351E+02  0.51100000000E-03 0.  1.
        -12    1    3    3    0    0 -0.10301216493E+02 -0.31211860763E+00 -0.14300791668E+02  0.17627396904E+02  0.00000000000E+00 0.  1.
</event>
<event>
 7    1  0.1400974E-009  0.4778728E+02  0.7816164E-02  0.1312668E+00
        -11   -1    0    0    0    0  0.00000000000E+00  0.00000000000E+00  0.45593999997E+02  0.45594000000E+02  0.51100000000E-03 0.  1.
         11   -1    0    0    0    0 -0.00000000000E+00 -0.00000000000E+00 -0.45593999997E+02  0.45594000000E+02  0.51100000000E-03 0. -1.
    9900012    2    1    2    0    0  0.36150402742E+01  0.11496378734E+02 -0.41693969494E+02  0.47787281892E+02  0.20000049457E+02 0.  0.
        -12    1    1    2    0    0 -0.36150402742E+01 -0.11496378734E+02  0.41693969494E+02  0.43400718108E+02  0.00000000000E+00 0.  1.
         11    1    3    3    0    0 -0.14499096192E+01  0.27986301797E+01 -0.24940287358E+01  0.40192970011E+01  0.51100000000E-03 0.  1.
        -11    1    3    3    0    0  0.77193583723E+01 -0.25716367942E+00 -0.28672164650E+02  0.29694236021E+02  0.51100000000E-03 0. -1.
         12    1    3    3    0    0 -0.26544084790E+01  0.89549122338E+01 -0.10527776107E+02  0.14073748870E+02  0.00000000000E+00 0. -1.
</event>
<event>
 7    1  0.1400974E-009  0.4778727E+02  0.7816164E-02  0.1312668E+00
        -11   -1    0    0    0    0  0.00000000000E+00  0.00000000000E+00  0.45593999997E+02  0.45594000000E+02  0.51100000000E-03 0.  1.
         11   -1    0    0    0    0 -0.00000000000E+00 -0.00000000000E+00 -0.45593999997E+02  0.45594000000E+02  0.51100000000E-03 0. -1.
    9900012    2    1    2    0    0  0.82770998467E+01  0.28893819003E+02 -0.31309106145E+02  0.47787270904E+02  0.19999999361E+02 0.  0.
        -12    1    1    2    0    0 -0.82770998467E+01 -0.28893819003E+02  0.31309106145E+02  0.43400729096E+02  0.00000000000E+00 0.  1.
         11    1    3    3    0    0  0.20622871634E+01  0.19329126132E+02 -0.30346468695E+02  0.36038539203E+02  0.51100000000E-03 0. -1.
        -11    1    3    3    0    0  0.12970530838E+01  0.27860125899E+01  0.83235411022E+00  0.31838697333E+01  0.51100000000E-03 0.  1.
        -12    1    3    3    0    0  0.49177595995E+01  0.67786802808E+01 -0.17949915603E+01  0.85648619679E+01  0.00000000000E+00 0.  1.
</event>
<event>
 7    1  0.1400974E-009  0.4778727E+02  0.7816164E-02  0.1312668E+00
        -11   -1    0    0    0    0  0.00000000000E+00  0.00000000000E+00  0.45593999997E+02  0.45594000000E+02  0.51100000000E-03 0. -1.
         11   -1    0    0    0    0 -0.00000000000E+00 -0.00000000000E+00 -0.45593999997E+02  0.45594000000E+02  0.51100000000E-03 0.  1.
    9900012    2    1    2    0    0 -0.68034044207E+00 -0.22170808148E+02  0.37304370807E+02  0.47787266384E+02  0.19999978752E+02 0.  0.
        -12    1    1    2    0    0  0.68034044207E+00  0.22170808148E+02 -0.37304370807E+02  0.43400733616E+02  0.00000000000E+00 0.  1.
         11    1    3    3    0    0 -0.25493120944E+01 -0.81130047677E+01  0.37158460683E+01  0.92804822493E+01  0.51100000000E-03 0. -1.
        -11    1    3    3    0    0  0.30809601486E+01  0.13558716417E+01  0.57442744418E+01  0.66578819808E+01  0.51100000000E-03 0.  1.
         12    1    3    3    0    0 -0.12119884963E+01 -0.15413675022E+02  0.27844250297E+02  0.31848902154E+02  0.00000000000E+00 0. -1.
</event>
<event>
 7    1  0.1400974E-009  0.4778727E+02  0.7816164E-02  0.1312668E+00
        -11   -1    0    0    0    0  0.00000000000E+00  0.00000000000E+00  0.45593999997E+02  0.45594000000E+02  0.51100000000E-03 0.  1.
         11   -1    0    0    0    0 -0.00000000000E+00 -0.00000000000E+00 -0.45593999997E+02  0.45594000000E+02  0.51100000000E-03 0. -1.
    9900012    2    1    2    0    0  0.39451963756E+02 -0.18493630857E+01 -0.17992939169E+02  0.47787269038E+02  0.19999990854E+02 0.  0.
        -12    1    1    2    0    0 -0.39451963756E+02  0.18493630857E+01  0.17992939169E+02  0.43400730962E+02  0.00000000000E+00 0.  1.
         11    1    3    3    0    0  0.31568093674E+02  0.35827801188E+00 -0.90596833864E+01  0.32844341440E+02  0.51100000000E-03 0. -1.
        -11    1    3    3    0    0  0.60412380228E+00 -0.87437454924E+00  0.16896945067E+01  0.19961373219E+01  0.51100000000E-03 0.  1.
        -12    1    3    3    0    0  0.72797462803E+01 -0.13332665483E+01 -0.10622950290E+02  0.12946790276E+02  0.00000000000E+00 0.  1.
</event>
<event>
 7    1  0.1400974E-009  0.4778727E+02  0.7816164E-02  0.1312668E+00
        -11   -1    0    0    0    0  0.00000000000E+00  0.00000000000E+00  0.45593999997E+02  0.45594000000E+02  0.51100000000E-03 0.  1.
         11   -1    0    0    0    0 -0.00000000000E+00 -0.00000000000E+00 -0.45593999997E+02  0.45594000000E+02  0.51100000000E-03 0. -1.
    9900012    2    1    2    0    0  0.37051725869E+02 -0.21079699891E+02 -0.81510109848E+01  0.47787272847E+02  0.20000008217E+02 0.  0.
        -12    1    1    2    0    0 -0.37051725869E+02  0.21079699891E+02  0.81510109848E+01  0.43400727153E+02  0.00000000000E+00 0.  1.
         11    1    3    3    0    0  0.92025411786E+00  0.66969874185E+00 -0.14052575483E+01  0.18083453997E+01  0.51100000000E-03 0. -1.
        -11    1    3    3    0    0  0.11913659749E+02  0.13784129891E+01 -0.19111456796E+01  0.12144455074E+02  0.51100000000E-03 0.  1.
         12    1    3    3    0    0  0.24217812002E+02 -0.23127811622E+02 -0.48346077569E+01  0.33834472373E+02  0.00000000000E+00 0. -1.
</event>
<event>
 7    1  0.1400974E-009  0.4778725E+02  0.7816164E-02  0.1312668E+00
        -11   -1    0    0    0    0  0.00000000000E+00  0.00000000000E+00  0.45593999997E+02  0.45594000000E+02  0.51100000000E-03 0.  1.
         11   -1    0    0    0    0 -0.00000000000E+00 -0.00000000000E+00 -0.45593999997E+02  0.45594000000E+02  0.51100000000E-03 0. -1.
    9900012    2    1    2    0    0 -0.18335993345E+02  0.15556394347E+01 -0.39306442743E+02  0.47787249924E+02  0.19999903706E+02 0.  0.
        -12    1    1    2    0    0  0.18335993345E+02 -0.15556394347E+01  0.39306442743E+02  0.43400750076E+02  0.00000000000E+00 0.  1.
         11    1    3    3    0    0 -0.53421243460E+01  0.23960090010E+01 -0.23292555582E+02  0.24017125087E+02  0.51100000000E-03 0. -1.
        -11    1    3    3    0    0  0.64556084947E+00  0.18081846636E+01  0.69251964900E+00  0.20410449073E+01  0.51100000000E-03 0.  1.
         12    1    3    3    0    0 -0.13639429848E+02 -0.26485542299E+01 -0.16706406811E+02  0.21729079930E+02  0.00000000000E+00 0. -1.
</event>
<event>
 7    1  0.1400974E-009  0.4778727E+02  0.7816164E-02  0.1312668E+00
        -11   -1    0    0    0    0  0.00000000000E+00  0.00000000000E+00  0.45593999997E+02  0.45594000000E+02  0.51100000000E-03 0. -1.
         11   -1    0    0    0    0 -0.00000000000E+00 -0.00000000000E+00 -0.45593999997E+02  0.45594000000E+02  0.51100000000E-03 0.  1.
    9900012    2    1    2    0    0 -0.27666096475E+02 -0.33230488747E+02 -0.37343034841E+01  0.47787270755E+02  0.19999998680E+02 0.  0.
        -12    1    1    2    0    0  0.27666096475E+02  0.33230488747E+02  0.37343034841E+01  0.43400729245E+02  0.00000000000E+00 0.  1.
         11    1    3    3    0    0 -0.15392883402E+02 -0.19158767413E+02  0.42487748746E+01  0.24940956605E+02  0.51100000000E-03 0. -1.
        -11    1    3    3    0    0  0.17085112909E+01 -0.32086792856E+01 -0.70436765934E+00  0.37028053756E+01  0.51100000000E-03 0.  1.
         12    1    3    3    0    0 -0.13981724364E+02 -0.10863042049E+02 -0.72787106993E+01  0.19143508774E+02  0.00000000000E+00 0. -1.
</event>
<event>
 7    1  0.1400974E-009  0.4778727E+02  0.7816164E-02  0.1312668E+00
        -11   -1    0    0    0    0  0.00000000000E+00  0.00000000000E+00  0.45593999997E+02  0.45594000000E+02  0.51100000000E-03 0.  1.
         11   -1    0    0    0    0 -0.00000000000E+00 -0.00000000000E+00 -0.45593999997E+02  0.45594000000E+02  0.51100000000E-03 0. -1.
    9900012    2    1    2    0    0  0.47842637076E+00  0.27405693286E+02 -0.33649997370E+02  0.47787271444E+02  0.20000001820E+02 0.  0.
        -12    1    1    2    0    0 -0.47842637076E+00 -0.27405693286E+02  0.33649997370E+02  0.43400728556E+02  0.00000000000E+00 0.  1.
         11    1    3    3    0    0 -0.46704239779E+01  0.68609344768E+01 -0.19093658954E+02  0.20819536367E+02  0.51100000000E-03 0. -1.
        -11    1    3    3    0    0 -0.39280481821E+00  0.10871310566E+02 -0.39306914296E+01  0.11566763783E+02  0.51100000000E-03 0.  1.
        -12    1    3    3    0    0  0.55416551669E+01  0.96734482429E+01 -0.10625646986E+02  0.15400971293E+02  0.00000000000E+00 0.  1.
</event>
<event>
 7    1  0.1400974E-009  0.4778727E+02  0.7816164E-02  0.1312668E+00
        -11   -1    0    0    0    0  0.00000000000E+00  0.00000000000E+00  0.45593999997E+02  0.45594000000E+02  0.51100000000E-03 0.  1.
         11   -1    0    0    0    0 -0.00000000000E+00 -0.00000000000E+00 -0.45593999997E+02  0.45594000000E+02  0.51100000000E-03 0. -1.
    9900012    2    1    2    0    0 -0.27210732082E+02  0.26555505449E+01 -0.33706785989E+02  0.47787270618E+02  0.19999998056E+02 0.  0.
        -12    1    1    2    0    0  0.27210732082E+02 -0.26555505449E+01  0.33706785989E+02  0.43400729382E+02  0.00000000000E+00 0.  1.
         11    1    3    3    0    0 -0.66635405095E+01 -0.28772690315E+01 -0.95079878906E+01  0.11961742481E+02  0.51100000000E-03 0. -1.
        -11    1    3    3    0    0 -0.69074720027E+01  0.97837648521E+01 -0.91215876215E+01  0.15054520422E+02  0.51100000000E-03 0.  1.
        -12    1    3    3    0    0 -0.13639719570E+02 -0.42509452757E+01 -0.15077210477E+02  0.20771007714E+02  0.00000000000E+00 0.  1.
</event>
<event>
 7    1  0.1400974E-009  0.4778727E+02  0.7816164E-02  0.1312668E+00
        -11   -1    0    0    0    0  0.00000000000E+00  0.00000000000E+00  0.45593999997E+02  0.45594000000E+02  0.51100000000E-03 0. -1.
         11   -1    0    0    0    0 -0.00000000000E+00 -0.00000000000E+00 -0.45593999997E+02  0.45594000000E+02  0.51100000000E-03 0.  1.
    9900012    2    1    2    0    0  0.23798895048E+02 -0.18323188673E+02  0.31328852742E+02  0.47787266564E+02  0.19999979571E+02 0.  0.
        -12    1    1    2    0    0 -0.23798895048E+02  0.18323188673E+02 -0.31328852742E+02  0.43400733436E+02  0.00000000000E+00 0.  1.
         11    1    3    3    0    0  0.19541365030E+02 -0.15223188393E+02  0.21198956413E+02  0.32603775323E+02  0.51100000000E-03 0. -1.
        -11    1    3    3    0    0 -0.57962376190E+00 -0.55386615607E+01  0.33261953825E+01  0.64866255922E+01  0.51100000000E-03 0.  1.
        -12    1    3    3    0    0  0.48371537804E+01  0.24386612805E+01  0.68037009468E+01  0.86968656486E+01  0.00000000000E+00 0.  1.
</event>
<event>
 7    1  0.1400974E-009  0.4778729E+02  0.7816164E-02  0.1312668E+00
        -11   -1    0    0    0    0  0.00000000000E+00  0.00000000000E+00  0.45593999997E+02  0.45594000000E+02  0.51100000000E-03 0.  1.
         11   -1    0    0    0    0 -0.00000000000E+00 -0.00000000000E+00 -0.45593999997E+02  0.45594000000E+02  0.51100000000E-03 0. -1.
    9900012    2    1    2    0    0  0.36432071361E+02  0.23334907282E+02  0.34362458905E+01  0.47787291395E+02  0.20000092788E+02 0.  0.
        -12    1    1    2    0    0 -0.36432071361E+02 -0.23334907282E+02 -0.34362458905E+01  0.43400708605E+02  0.00000000000E+00 0.  1.
         11    1    3    3    0    0  0.36431993303E+01  0.13693030238E+01  0.66255157242E+01  0.76840972797E+01  0.51100000000E-03 0. -1.
        -11    1    3    3    0    0  0.73494845851E+01  0.80459814636E+01 -0.20060189363E+01  0.11080471723E+02  0.51100000000E-03 0.  1.
         12    1    3    3    0    0  0.25439387446E+02  0.13919622795E+02 -0.11832508973E+01  0.29022722392E+02  0.00000000000E+00 0. -1.
</event>
<event>
 7    1  0.1400974E-009  0.4778728E+02  0.7816164E-02  0.1312668E+00
        -11   -1    0    0    0    0  0.00000000000E+00  0.00000000000E+00  0.45593999997E+02  0.45594000000E+02  0.51100000000E-03 0.  1.
         11   -1    0    0    0    0 -0.00000000000E+00 -0.00000000000E+00 -0.45593999997E+02  0.45594000000E+02  0.51100000000E-03 0. -1.
    9900012    2    1    2    0    0  0.37114604957E+02  0.19727551225E+02  0.10814461939E+02  0.47787276902E+02  0.20000026705E+02 0.  0.
        -12    1    1    2    0    0 -0.37114604957E+02 -0.19727551225E+02 -0.10814461939E+02  0.43400723098E+02  0.00000000000E+00 0.  1.
         11    1    3    3    0    0  0.12266194618E+02  0.41779658003E+01 -0.27306771928E+01  0.13242791504E+02  0.51100000000E-03 0. -1.
        -11    1    3    3    0    0  0.11151283398E+02  0.68153079829E+00  0.74565779069E+01  0.13431908278E+02  0.51100000000E-03 0.  1.
         12    1    3    3    0    0  0.13697126941E+02  0.14868054627E+02  0.60885612248E+01  0.21112577119E+02  0.00000000000E+00 0. -1.
</event>
<event>
 7    1  0.1400974E-009  0.4778727E+02  0.7816164E-02  0.1312668E+00
        -11   -1    0    0    0    0  0.00000000000E+00  0.00000000000E+00  0.45593999997E+02  0.45594000000E+02  0.51100000000E-03 0.  1.
         11   -1    0    0    0    0 -0.00000000000E+00 -0.00000000000E+00 -0.45593999997E+02  0.45594000000E+02  0.51100000000E-03 0. -1.
    9900012    2    1    2    0    0  0.35695316702E+02 -0.41423177261E+01 -0.24337400168E+02  0.47787268698E+02  0.19999989304E+02 0.  0.
        -12    1    1    2    0    0 -0.35695316702E+02  0.41423177261E+01  0.24337400168E+02  0.43400731302E+02  0.00000000000E+00 0.  1.
         11    1    3    3    0    0  0.44635577657E+01 -0.37611081503E+01 -0.13759702417E+01  0.59968805902E+01  0.51100000000E-03 0. -1.
        -11    1    3    3    0    0  0.75027556576E+01  0.19020574719E+01  0.12183558251E+01  0.78354040268E+01  0.51100000000E-03 0.  1.
         12    1    3    3    0    0  0.23729003278E+02 -0.22832670477E+01 -0.24179785751E+02  0.33954984081E+02  0.00000000000E+00 0. -1.
</event>
<event>
 7    1  0.1400974E-009  0.4778727E+02  0.7816164E-02  0.1312668E+00
        -11   -1    0    0    0    0  0.00000000000E+00  0.00000000000E+00  0.45593999997E+02  0.45594000000E+02  0.51100000000E-03 0.  1.
         11   -1    0    0    0    0 -0.00000000000E+00 -0.00000000000E+00 -0.45593999997E+02  0.45594000000E+02  0.51100000000E-03 0. -1.
    9900012    2    1    2    0    0 -0.26705878546E+02 -0.29129149964E+02 -0.17941899461E+02  0.47787273246E+02  0.20000010037E+02 0.  0.
        -12    1    1    2    0    0  0.26705878546E+02  0.29129149964E+02  0.17941899461E+02  0.43400726754E+02  0.00000000000E+00 0.  1.
         11    1    3    3    0    0 -0.64528272749E+01 -0.10943142856E+02 -0.82172069091E+01  0.15129899043E+02  0.51100000000E-03 0. -1.
        -11    1    3    3    0    0 -0.16281745440E+01 -0.34741102902E+00  0.33514727326E+01  0.37421940766E+01  0.51100000000E-03 0.  1.
        -12    1    3    3    0    0 -0.18624876727E+02 -0.17838596078E+02 -0.13076165285E+02  0.28915180126E+02  0.00000000000E+00 0.  1.
</event>
<event>
 7    1  0.1400974E-009  0.4778727E+02  0.7816164E-02  0.1312668E+00
        -11   -1    0    0    0    0  0.00000000000E+00  0.00000000000E+00  0.45593999997E+02  0.45594000000E+02  0.51100000000E-03 0.  1.
         11   -1    0    0    0    0 -0.00000000000E+00 -0.00000000000E+00 -0.45593999997E+02  0.45594000000E+02  0.51100000000E-03 0. -1.
    9900012    2    1    2    0    0 -0.42774913991E+02  0.33392475840E+01 -0.65406153565E+01  0.47787268547E+02  0.19999988614E+02 0.  0.
        -12    1    1    2    0    0  0.42774913991E+02 -0.33392475840E+01  0.65406153565E+01  0.43400731453E+02  0.00000000000E+00 0.  1.
         11    1    3    3    0    0 -0.79905102491E+01  0.36863412529E+01  0.32849684596E+01  0.93929965354E+01  0.51100000000E-03 0. -1.
        -11    1    3    3    0    0  0.28073582652E+00  0.13842410641E+01  0.91178840881E+00  0.16811586158E+01  0.51100000000E-03 0.  1.
        -12    1    3    3    0    0 -0.35065139569E+02 -0.17313347330E+01 -0.10737372225E+02  0.36713113396E+02  0.00000000000E+00 0.  1.
</event>
<event>
 7    1  0.1400974E-009  0.4778727E+02  0.7816164E-02  0.1312668E+00
        -11   -1    0    0    0    0  0.00000000000E+00  0.00000000000E+00  0.45593999997E+02  0.45594000000E+02  0.51100000000E-03 0.  1.
         11   -1    0    0    0    0 -0.00000000000E+00 -0.00000000000E+00 -0.45593999997E+02  0.45594000000E+02  0.51100000000E-03 0. -1.
    9900012    2    1    2    0    0  0.33326053282E+02  0.26931680036E+02  0.69051964604E+01  0.47787274717E+02  0.20000016745E+02 0.  0.
        -12    1    1    2    0    0 -0.33326053282E+02 -0.26931680036E+02 -0.69051964604E+01  0.43400725283E+02  0.00000000000E+00 0.  1.
         11    1    3    3    0    0  0.13679740674E+02  0.11912257216E+02  0.11423598390E+02  0.21436785611E+02  0.51100000000E-03 0. -1.
        -11    1    3    3    0    0 -0.67168992977E+00  0.14419382907E+00  0.23200415241E+00  0.72511061911E+00  0.51100000000E-03 0.  1.
        -12    1    3    3    0    0  0.20318002538E+02  0.14875228991E+02 -0.47504060822E+01  0.25625378487E+02  0.00000000000E+00 0.  1.
</event>
<event>
 7    1  0.1400974E-009  0.4778727E+02  0.7816164E-02  0.1312668E+00
        -11   -1    0    0    0    0  0.00000000000E+00  0.00000000000E+00  0.45593999997E+02  0.45594000000E+02  0.51100000000E-03 0. -1.
         11   -1    0    0    0    0 -0.00000000000E+00 -0.00000000000E+00 -0.45593999997E+02  0.45594000000E+02  0.51100000000E-03 0.  1.
    9900012    2    1    2    0    0 -0.43042416273E+02 -0.51048896645E+01 -0.22167592663E+01  0.47787268224E+02  0.19999987138E+02 0.  0.
        -12    1    1    2    0    0  0.43042416273E+02  0.51048896645E+01  0.22167592663E+01  0.43400731776E+02  0.00000000000E+00 0.  1.
         11    1    3    3    0    0 -0.11552335219E+02 -0.53496549072E+01 -0.13450514556E+01  0.12801735051E+02  0.51100000000E-03 0. -1.
        -11    1    3    3    0    0 -0.66756416258E+01  0.62304729299E+01  0.18425413442E+01  0.93154679385E+01  0.51100000000E-03 0.  1.
         12    1    3    3    0    0 -0.24814439428E+02 -0.59857076872E+01 -0.27142491550E+01  0.25670065234E+02  0.00000000000E+00 0. -1.
</event>
<event>
 7    1  0.1400974E-009  0.4778726E+02  0.7816164E-02  0.1312668E+00
        -11   -1    0    0    0    0  0.00000000000E+00  0.00000000000E+00  0.45593999997E+02  0.45594000000E+02  0.51100000000E-03 0. -1.
         11   -1    0    0    0    0 -0.00000000000E+00 -0.00000000000E+00 -0.45593999997E+02  0.45594000000E+02  0.51100000000E-03 0.  1.
    9900012    2    1    2    0    0  0.12477770746E+02  0.32420055392E+02  0.26016714917E+02  0.47787260265E+02  0.19999950853E+02 0.  0.
        -12    1    1    2    0    0 -0.12477770746E+02 -0.32420055392E+02 -0.26016714917E+02  0.43400739735E+02  0.00000000000E+00 0.  1.
         11    1    3    3    0    0 -0.26488101546E+01  0.52917679035E+01  0.38783468397E-01  0.59178127038E+01  0.51100000000E-03 0. -1.
        -11    1    3    3    0    0  0.24717352013E+01  0.44293615865E-01  0.35678666631E+00  0.24977457469E+01  0.51100000000E-03 0.  1.
        -12    1    3    3    0    0  0.12654845699E+02  0.27083993873E+02  0.25621144783E+02  0.39371701814E+02  0.00000000000E+00 0.  1.
</event>
<event>
 7    1  0.1400974E-009  0.4778727E+02  0.7816164E-02  0.1312668E+00
        -11   -1    0    0    0    0  0.00000000000E+00  0.00000000000E+00  0.45593999997E+02  0.45594000000E+02  0.51100000000E-03 0. -1.
         11   -1    0    0    0    0 -0.00000000000E+00 -0.00000000000E+00 -0.45593999997E+02  0.45594000000E+02  0.51100000000E-03 0.  1.
    9900012    2    1    2    0    0 -0.28147507665E+02 -0.24326721101E+02  0.22350654726E+02  0.47787270582E+02  0.19999997893E+02 0.  0.
        -12    1    1    2    0    0  0.28147507665E+02  0.24326721101E+02 -0.22350654726E+02  0.43400729418E+02  0.00000000000E+00 0.  1.
         11    1    3    3    0    0 -0.24234546228E+02 -0.17318227710E+02  0.11023831356E+02  0.31760968183E+02  0.51100000000E-03 0. -1.
        -11    1    3    3    0    0 -0.75118409797E+00 -0.55585719608E+01  0.18102756061E+01  0.58939882782E+01  0.51100000000E-03 0.  1.
         12    1    3    3    0    0 -0.31617773393E+01 -0.14499214300E+01  0.95165477645E+01  0.10132314121E+02  0.00000000000E+00 0. -1.
</event>
<event>
 7    1  0.1400974E-009  0.4778727E+02  0.7816164E-02  0.1312668E+00
        -11   -1    0    0    0    0  0.00000000000E+00  0.00000000000E+00  0.45593999997E+02  0.45594000000E+02  0.51100000000E-03 0.  1.
         11   -1    0    0    0    0 -0.00000000000E+00 -0.00000000000E+00 -0.45593999997E+02  0.45594000000E+02  0.51100000000E-03 0. -1.
    9900012    2    1    2    0    0 -0.31836403297E+02  0.29491989117E+02  0.53827128350E+00  0.47787265756E+02  0.19999975889E+02 0.  0.
        -12    1    1    2    0    0  0.31836403297E+02 -0.29491989117E+02 -0.53827128350E+00  0.43400734244E+02  0.00000000000E+00 0.  1.
         11    1    3    3    0    0 -0.13390370970E+02  0.10225128753E+02 -0.25808332122E+01  0.17044529711E+02  0.51100000000E-03 0. -1.
        -11    1    3    3    0    0 -0.10406222976E+02  0.18599485128E+02 -0.16407884839E+01  0.21375745852E+02  0.51100000000E-03 0.  1.
         12    1    3    3    0    0 -0.80398093507E+01  0.66737523650E+00  0.47598929796E+01  0.93669901932E+01  0.00000000000E+00 0. -1.
</event>
<event>
 7    1  0.1400974E-009  0.4778728E+02  0.7816164E-02  0.1312668E+00
        -11   -1    0    0    0    0  0.00000000000E+00  0.00000000000E+00  0.45593999997E+02  0.45594000000E+02  0.51100000000E-03 0. -1.
         11   -1    0    0    0    0 -0.00000000000E+00 -0.00000000000E+00 -0.45593999997E+02  0.45594000000E+02  0.51100000000E-03 0.  1.
    9900012    2    1    2    0    0  0.16799925048E+02 -0.97164225659E+01  0.38819785996E+02  0.47787284178E+02  0.20000059880E+02 0.  0.
        -12    1    1    2    0    0 -0.16799925048E+02  0.97164225659E+01 -0.38819785996E+02  0.43400715822E+02  0.00000000000E+00 0.  1.
         11    1    3    3    0    0  0.72323311072E+01 -0.71106112750E+01  0.11246361011E+02  0.15144241222E+02  0.51100000000E-03 0.  1.
        -11    1    3    3    0    0 -0.19478295392E+01  0.34314197716E+01  0.10248896549E+02  0.10982192964E+02  0.51100000000E-03 0. -1.
         12    1    3    3    0    0  0.11515423480E+02 -0.60372310625E+01  0.17324528436E+02  0.21660849991E+02  0.00000000000E+00 0. -1.
</event>
<event>
 7    1  0.1400974E-009  0.4778727E+02  0.7816164E-02  0.1312668E+00
        -11   -1    0    0    0    0  0.00000000000E+00  0.00000000000E+00  0.45593999997E+02  0.45594000000E+02  0.51100000000E-03 0.  1.
         11   -1    0    0    0    0 -0.00000000000E+00 -0.00000000000E+00 -0.45593999997E+02  0.45594000000E+02  0.51100000000E-03 0. -1.
    9900012    2    1    2    0    0  0.56607800178E+01 -0.72411415866E+01 -0.42416323801E+02  0.47787273201E+02  0.20000009834E+02 0.  0.
        -12    1    1    2    0    0 -0.56607800178E+01  0.72411415866E+01  0.42416323801E+02  0.43400726799E+02  0.00000000000E+00 0.  1.
         11    1    3    3    0    0  0.26079116727E+01 -0.30939167848E+01 -0.16524664902E+01  0.43708317431E+01  0.51100000000E-03 0.  1.
        -11    1    3    3    0    0 -0.22766902278E+01  0.33611764610E+01 -0.23524707009E+02  0.23872424798E+02  0.51100000000E-03 0. -1.
         12    1    3    3    0    0  0.53295585729E+01 -0.75084012628E+01 -0.17239150301E+02  0.19544016660E+02  0.00000000000E+00 0. -1.
</event>
<event>
 7    1  0.1400974E-009  0.4778727E+02  0.7816164E-02  0.1312668E+00
        -11   -1    0    0    0    0  0.00000000000E+00  0.00000000000E+00  0.45593999997E+02  0.45594000000E+02  0.51100000000E-03 0.  1.
         11   -1    0    0    0    0 -0.00000000000E+00 -0.00000000000E+00 -0.45593999997E+02  0.45594000000E+02  0.51100000000E-03 0. -1.
    9900012    2    1    2    0    0  0.14494962297E+02 -0.39636838904E+02 -0.10121303880E+02  0.47787265875E+02  0.19999976431E+02 0.  0.
        -12    1    1    2    0    0 -0.14494962297E+02  0.39636838904E+02  0.10121303880E+02  0.43400734125E+02  0.00000000000E+00 0.  1.
         11    1    3    3    0    0  0.21060587755E+01 -0.13917654799E+02 -0.12284553025E+02  0.18682795347E+02  0.51100000000E-03 0. -1.
        -11    1    3    3    0    0  0.30165431002E+01 -0.48701916714E+01  0.24825589887E+01  0.62435085156E+01  0.51100000000E-03 0.  1.
         12    1    3    3    0    0  0.93723604216E+01 -0.20848992434E+02 -0.31930984378E+00  0.22860962013E+02  0.00000000000E+00 0. -1.
</event>
<event>
 7    1  0.1400974E-009  0.4778727E+02  0.7816164E-02  0.1312668E+00
        -11   -1    0    0    0    0  0.00000000000E+00  0.00000000000E+00  0.45593999997E+02  0.45594000000E+02  0.51100000000E-03 0.  1.
         11   -1    0    0    0    0 -0.00000000000E+00 -0.00000000000E+00 -0.45593999997E+02  0.45594000000E+02  0.51100000000E-03 0. -1.
    9900012    2    1    2    0    0  0.10932760809E+02  0.82965063255E+01 -0.41173605973E+02  0.47787272991E+02  0.20000008875E+02 0.  0.
        -12    1    1    2    0    0 -0.10932760809E+02 -0.82965063255E+01  0.41173605973E+02  0.43400727009E+02  0.00000000000E+00 0.  1.
         11    1    3    3    0    0  0.32587522569E+01  0.49807649197E+01 -0.37317346411E+01  0.70251924636E+01  0.51100000000E-03 0. -1.
        -11    1    3    3    0    0  0.78188437042E+00 -0.21989170051E+01 -0.26950843450E+02  0.27051701279E+02  0.51100000000E-03 0.  1.
         12    1    3    3    0    0  0.68921241814E+01  0.55146584109E+01 -0.10491027881E+02  0.13710379248E+02  0.00000000000E+00 0. -1.
</event>
<event>
 7    1  0.1400974E-009  0.4778727E+02  0.7816164E-02  0.1312668E+00
        -11   -1    0    0    0    0  0.00000000000E+00  0.00000000000E+00  0.45593999997E+02  0.45594000000E+02  0.51100000000E-03 0.  1.
         11   -1    0    0    0    0 -0.00000000000E+00 -0.00000000000E+00 -0.45593999997E+02  0.45594000000E+02  0.51100000000E-03 0. -1.
    9900012    2    1    2    0    0 -0.22372501101E+02  0.34461150273E+02 -0.13982982453E+02  0.47787268647E+02  0.19999989070E+02 0.  0.
        -12    1    1    2    0    0  0.22372501101E+02 -0.34461150273E+02  0.13982982453E+02  0.43400731353E+02  0.00000000000E+00 0.  1.
         11    1    3    3    0    0  0.20105549263E+01  0.16049377840E+01 -0.20482642624E+01  0.32883952244E+01  0.51100000000E-03 0. -1.
        -11    1    3    3    0    0 -0.99156774985E+01  0.14451194094E+02  0.13568030193E+01  0.17578355603E+02  0.51100000000E-03 0.  1.
         12    1    3    3    0    0 -0.14467378529E+02  0.18405018395E+02 -0.13291521210E+02  0.26920517820E+02  0.00000000000E+00 0. -1.
</event>
<event>
 7    1  0.1400974E-009  0.4778727E+02  0.7816164E-02  0.1312668E+00
        -11   -1    0    0    0    0  0.00000000000E+00  0.00000000000E+00  0.45593999997E+02  0.45594000000E+02  0.51100000000E-03 0. -1.
         11   -1    0    0    0    0 -0.00000000000E+00 -0.00000000000E+00 -0.45593999997E+02  0.45594000000E+02  0.51100000000E-03 0.  1.
    9900012    2    1    2    0    0  0.14517484733E+01 -0.42262448674E+02 -0.97673409582E+01  0.47787273152E+02  0.20000009611E+02 0.  0.
        -12    1    1    2    0    0 -0.14517484733E+01  0.42262448674E+02  0.97673409582E+01  0.43400726848E+02  0.00000000000E+00 0.  1.
         11    1    3    3    0    0  0.41757892498E+00 -0.28638766733E+02 -0.15302317892E+02  0.32473285410E+02  0.51100000000E-03 0. -1.
        -11    1    3    3    0    0  0.20187084162E+01 -0.84226329367E+01  0.18289138470E+01  0.88521667052E+01  0.51100000000E-03 0.  1.
         12    1    3    3    0    0 -0.98453886788E+00 -0.52010490035E+01  0.37060630867E+01  0.64618210376E+01  0.00000000000E+00 0. -1.
</event>
<event>
 7    1  0.1400974E-009  0.4778726E+02  0.7816164E-02  0.1312668E+00
        -11   -1    0    0    0    0  0.00000000000E+00  0.00000000000E+00  0.45593999997E+02  0.45594000000E+02  0.51100000000E-03 0. -1.
         11   -1    0    0    0    0 -0.00000000000E+00 -0.00000000000E+00 -0.45593999997E+02  0.45594000000E+02  0.51100000000E-03 0.  1.
    9900012    2    1    2    0    0  0.10500914064E+02  0.34990219311E+02  0.23431595615E+02  0.47787259030E+02  0.19999945223E+02 0.  0.
        -12    1    1    2    0    0 -0.10500914064E+02 -0.34990219311E+02 -0.23431595615E+02  0.43400740970E+02  0.00000000000E+00 0.  1.
         11    1    3    3    0    0 -0.23447229228E+01  0.17731808499E+01  0.68839332956E+00  0.30192352589E+01  0.51100000000E-03 0. -1.
        -11    1    3    3    0    0 -0.10436463436E+01  0.91968353797E+01  0.61184498328E+00  0.92760623778E+01  0.51100000000E-03 0.  1.
         12    1    3    3    0    0  0.13889283330E+02  0.24020203082E+02  0.22131357303E+02  0.35491961394E+02  0.00000000000E+00 0. -1.
</event>
<event>
 7    1  0.1400974E-009  0.4778727E+02  0.7816164E-02  0.1312668E+00
        -11   -1    0    0    0    0  0.00000000000E+00  0.00000000000E+00  0.45593999997E+02  0.45594000000E+02  0.51100000000E-03 0.  1.
         11   -1    0    0    0    0 -0.00000000000E+00 -0.00000000000E+00 -0.45593999997E+02  0.45594000000E+02  0.51100000000E-03 0. -1.
    9900012    2    1    2    0    0  0.22709754115E+02 -0.25659178596E+02 -0.26636384717E+02  0.47787269949E+02  0.19999995004E+02 0.  0.
        -12    1    1    2    0    0 -0.22709754115E+02  0.25659178596E+02  0.26636384717E+02  0.43400730051E+02  0.00000000000E+00 0.  1.
         11    1    3    3    0    0  0.21292364381E+02 -0.16614416466E+02 -0.21190894768E+02  0.34328670769E+02  0.51100000000E-03 0. -1.
        -11    1    3    3    0    0  0.56281766799E+00 -0.63222254802E+01 -0.75862528833E+01  0.98913362000E+01  0.51100000000E-03 0.  1.
         12    1    3    3    0    0  0.85457206656E+00 -0.27225366499E+01  0.21407629342E+01  0.35672629798E+01  0.00000000000E+00 0. -1.
</event>
<event>
 7    1  0.1400974E-009  0.4778727E+02  0.7816164E-02  0.1312668E+00
        -11   -1    0    0    0    0  0.00000000000E+00  0.00000000000E+00  0.45593999997E+02  0.45594000000E+02  0.51100000000E-03 0.  1.
         11   -1    0    0    0    0 -0.00000000000E+00 -0.00000000000E+00 -0.45593999997E+02  0.45594000000E+02  0.51100000000E-03 0. -1.
    9900012    2    1    2    0    0 -0.32123548257E+02  0.28698141644E+02 -0.53026048233E+01  0.47787270693E+02  0.19999998399E+02 0.  0.
        -12    1    1    2    0    0  0.32123548257E+02 -0.28698141644E+02  0.53026048233E+01  0.43400729307E+02  0.00000000000E+00 0.  1.
         11    1    3    3    0    0 -0.17673468163E+02  0.84557321212E+01 -0.50490530706E+01  0.20232247027E+02  0.51100000000E-03 0. -1.
        -11    1    3    3    0    0  0.28851907969E+00  0.86236512609E+00  0.28673393539E+01  0.30080811328E+01  0.51100000000E-03 0.  1.
         12    1    3    3    0    0 -0.14738599174E+02  0.19380044397E+02 -0.31208911066E+01  0.24546942533E+02  0.00000000000E+00 0. -1.
</event>
<event>
 7    1  0.1400974E-009  0.4778728E+02  0.7816164E-02  0.1312668E+00
        -11   -1    0    0    0    0  0.00000000000E+00  0.00000000000E+00  0.45593999997E+02  0.45594000000E+02  0.51100000000E-03 0.  1.
         11   -1    0    0    0    0 -0.00000000000E+00 -0.00000000000E+00 -0.45593999997E+02  0.45594000000E+02  0.51100000000E-03 0. -1.
    9900012    2    1    2    0    0  0.27466274197E+02 -0.32442486841E+02 -0.87585169026E+01  0.47787276630E+02  0.20000025466E+02 0.  0.
        -12    1    1    2    0    0 -0.27466274197E+02  0.32442486841E+02  0.87585169026E+01  0.43400723370E+02  0.00000000000E+00 0.  1.
         11    1    3    3    0    0  0.14153308259E+02 -0.17200957525E+02 -0.10547500407E+02  0.24646274354E+02  0.51100000000E-03 0. -1.
        -11    1    3    3    0    0 -0.12194256559E+01  0.47848941039E+00 -0.86379803590E+00  0.15691075024E+01  0.51100000000E-03 0.  1.
        -12    1    3    3    0    0  0.14532391594E+02 -0.15720018727E+02  0.26527815400E+01  0.21571894773E+02  0.00000000000E+00 0.  1.
</event>
<event>
 7    1  0.1400974E-009  0.4778727E+02  0.7816164E-02  0.1312668E+00
        -11   -1    0    0    0    0  0.00000000000E+00  0.00000000000E+00  0.45593999997E+02  0.45594000000E+02  0.51100000000E-03 0.  1.
         11   -1    0    0    0    0 -0.00000000000E+00 -0.00000000000E+00 -0.45593999997E+02  0.45594000000E+02  0.51100000000E-03 0. -1.
    9900012    2    1    2    0    0 -0.41482035616E+02 -0.12653371016E+02 -0.16600993421E+01  0.47787274122E+02  0.20000014034E+02 0.  0.
        -12    1    1    2    0    0  0.41482035616E+02  0.12653371016E+02  0.16600993421E+01  0.43400725878E+02  0.00000000000E+00 0.  1.
         11    1    3    3    0    0 -0.58398221284E+01 -0.61031533507E+01 -0.26512437475E+01  0.88533099450E+01  0.51100000000E-03 0. -1.
        -11    1    3    3    0    0 -0.16830219862E+02  0.37008056282E+01 -0.18135188664E+01  0.17327467034E+02  0.51100000000E-03 0.  1.
         12    1    3    3    0    0 -0.18811993625E+02 -0.10251023293E+02  0.28046632717E+01  0.21606497143E+02  0.00000000000E+00 0. -1.
</event>
<event>
 7    1  0.1428780E-009  0.4778728E+02  0.7816164E-02  0.1312668E+00
        -11   -1    0    0    0    0  0.00000000000E+00  0.00000000000E+00  0.45593999997E+02  0.45594000000E+02  0.51100000000E-03 0. -1.
         11   -1    0    0    0    0 -0.00000000000E+00 -0.00000000000E+00 -0.45593999997E+02  0.45594000000E+02  0.51100000000E-03 0.  1.
    9900012    2    1    2    0    0  0.35332725246E+02  0.25162149245E+02  0.14448610489E+01  0.47787275911E+02  0.20000022191E+02 0.  0.
        -12    1    1    2    0    0 -0.35332725246E+02 -0.25162149245E+02 -0.14448610489E+01  0.43400724089E+02  0.00000000000E+00 0.  1.
         11    1    3    3    0    0  0.14576850617E+02  0.78374579525E+01  0.20897843987E+00  0.16551555616E+02  0.51100000000E-03 0. -1.
        -11    1    3    3    0    0  0.39052708507E+01  0.12887067443E+02  0.27541621814E+01  0.13744564645E+02  0.51100000000E-03 0.  1.
        -12    1    3    3    0    0  0.16850603778E+02  0.44376238500E+01 -0.15182795724E+01  0.17491155651E+02  0.00000000000E+00 0.  1.
</event>
<event>
 7    1  0.1400974E-009  0.4778728E+02  0.7816164E-02  0.1312668E+00
        -11   -1    0    0    0    0  0.00000000000E+00  0.00000000000E+00  0.45593999997E+02  0.45594000000E+02  0.51100000000E-03 0.  1.
         11   -1    0    0    0    0 -0.00000000000E+00 -0.00000000000E+00 -0.45593999997E+02  0.45594000000E+02  0.51100000000E-03 0. -1.
    9900012    2    1    2    0    0  0.13076389203E+02  0.24090391105E+02 -0.33649422021E+02  0.47787279954E+02  0.20000040623E+02 0.  0.
        -12    1    1    2    0    0 -0.13076389203E+02 -0.24090391105E+02  0.33649422021E+02  0.43400720046E+02  0.00000000000E+00 0.  1.
         11    1    3    3    0    0  0.39304664816E-01  0.10992084935E+02 -0.13254606445E+02  0.17219525787E+02  0.51100000000E-03 0. -1.
        -11    1    3    3    0    0  0.13122026484E+02  0.11650199976E+02 -0.22170759912E+02  0.28274676547E+02  0.51100000000E-03 0.  1.
         12    1    3    3    0    0 -0.84941946271E-01  0.14481061947E+01  0.17759443360E+01  0.22930776197E+01  0.00000000000E+00 0. -1.
</event>
<event>
 7    1  0.1400974E-009  0.4778728E+02  0.7816164E-02  0.1312668E+00
        -11   -1    0    0    0    0  0.00000000000E+00  0.00000000000E+00  0.45593999997E+02  0.45594000000E+02  0.51100000000E-03 0.  1.
         11   -1    0    0    0    0 -0.00000000000E+00 -0.00000000000E+00 -0.45593999997E+02  0.45594000000E+02  0.51100000000E-03 0. -1.
    9900012    2    1    2    0    0 -0.11537151126E+02 -0.23599456974E+01 -0.41772566370E+02  0.47787279949E+02  0.20000040600E+02 0.  0.
        -12    1    1    2    0    0  0.11537151126E+02  0.23599456974E+01  0.41772566370E+02  0.43400720051E+02  0.00000000000E+00 0.  1.
         11    1    3    3    0    0  0.22603025295E+01 -0.54830188532E+01 -0.13014906683E+02  0.14302456415E+02  0.51100000000E-03 0.  1.
        -11    1    3    3    0    0 -0.85071364492E+01 -0.14580237846E+01 -0.87588250209E+01  0.12296919123E+02  0.51100000000E-03 0. -1.
        -12    1    3    3    0    0 -0.52903172061E+01  0.45810969404E+01 -0.19998834666E+02  0.21187904410E+02  0.00000000000E+00 0.  1.
</event>
<event>
 7    1  0.1400974E-009  0.4778727E+02  0.7816164E-02  0.1312668E+00
        -11   -1    0    0    0    0  0.00000000000E+00  0.00000000000E+00  0.45593999997E+02  0.45594000000E+02  0.51100000000E-03 0.  1.
         11   -1    0    0    0    0 -0.00000000000E+00 -0.00000000000E+00 -0.45593999997E+02  0.45594000000E+02  0.51100000000E-03 0. -1.
    9900012    2    1    2    0    0 -0.11798753028E+02 -0.86510912102E+01 -0.40860386287E+02  0.47787272821E+02  0.20000008100E+02 0.  0.
        -12    1    1    2    0    0  0.11798753028E+02  0.86510912102E+01  0.40860386287E+02  0.43400727179E+02  0.00000000000E+00 0.  1.
         11    1    3    3    0    0  0.21056456641E+01 -0.12626427276E+01 -0.13063795129E+02  0.13292507429E+02  0.51100000000E-03 0.  1.
        -11    1    3    3    0    0 -0.14529573594E+02 -0.96983612122E+01 -0.26589365805E+02  0.31814479301E+02  0.51100000000E-03 0. -1.
         12    1    3    3    0    0  0.62517490191E+00  0.23099127296E+01 -0.12072253535E+01  0.26802860912E+01  0.00000000000E+00 0. -1.
</event>
<event>
 7    1  0.1400974E-009  0.4778727E+02  0.7816164E-02  0.1312668E+00
        -11   -1    0    0    0    0  0.00000000000E+00  0.00000000000E+00  0.45593999997E+02  0.45594000000E+02  0.51100000000E-03 0. -1.
         11   -1    0    0    0    0 -0.00000000000E+00 -0.00000000000E+00 -0.45593999997E+02  0.45594000000E+02  0.51100000000E-03 0.  1.
    9900012    2    1    2    0    0  0.32531935996E+02 -0.95193121501E+01 -0.27104964607E+02  0.47787271091E+02  0.20000000211E+02 0.  0.
        -12    1    1    2    0    0 -0.32531935996E+02  0.95193121501E+01  0.27104964607E+02  0.43400728909E+02  0.00000000000E+00 0.  1.
         11    1    3    3    0    0  0.23417743239E+02 -0.90618273655E+01 -0.25449788197E+02  0.35751910902E+02  0.51100000000E-03 0. -1.
        -11    1    3    3    0    0  0.10422890527E+02 -0.54291546073E+00 -0.21082480117E+01  0.10647822034E+02  0.51100000000E-03 0.  1.
        -12    1    3    3    0    0 -0.13086977701E+01  0.85430676161E-01  0.45307160112E+00  0.13875381543E+01  0.00000000000E+00 0.  1.
</event>
<event>
 7    1  0.1400974E-009  0.4778727E+02  0.7816164E-02  0.1312668E+00
        -11   -1    0    0    0    0  0.00000000000E+00  0.00000000000E+00  0.45593999997E+02  0.45594000000E+02  0.51100000000E-03 0.  1.
         11   -1    0    0    0    0 -0.00000000000E+00 -0.00000000000E+00 -0.45593999997E+02  0.45594000000E+02  0.51100000000E-03 0. -1.
    9900012    2    1    2    0    0 -0.16851179754E+02  0.13367690925E+02 -0.37695705680E+02  0.47787266752E+02  0.19999980430E+02 0.  0.
        -12    1    1    2    0    0  0.16851179754E+02 -0.13367690925E+02  0.37695705680E+02  0.43400733248E+02  0.00000000000E+00 0.  1.
         11    1    3    3    0    0 -0.88637972662E+01  0.65939461033E+01 -0.27098367322E+02  0.29263775200E+02  0.51100000000E-03 0. -1.
        -11    1    3    3    0    0 -0.91107478654E+01  0.87658586341E+00 -0.57658588211E+01  0.10817543975E+02  0.51100000000E-03 0.  1.
        -12    1    3    3    0    0  0.11233653772E+01  0.58971589582E+01 -0.48314795364E+01  0.77059475770E+01  0.00000000000E+00 0.  1.
</event>
<event>
 7    1  0.1400974E-009  0.4778727E+02  0.7816164E-02  0.1312668E+00
        -11   -1    0    0    0    0  0.00000000000E+00  0.00000000000E+00  0.45593999997E+02  0.45594000000E+02  0.51100000000E-03 0. -1.
         11   -1    0    0    0    0 -0.00000000000E+00 -0.00000000000E+00 -0.45593999997E+02  0.45594000000E+02  0.51100000000E-03 0.  1.
    9900012    2    1    2    0    0 -0.25754414538E+02 -0.22714107349E+02  0.26540589135E+02  0.47787269448E+02  0.19999992720E+02 0.  0.
        -12    1    1    2    0    0  0.25754414538E+02  0.22714107349E+02 -0.26540589135E+02  0.43400730552E+02  0.00000000000E+00 0.  1.
         11    1    3    3    0    0  0.30607771402E+00  0.72742933223E+00  0.39226982769E+00  0.88131315618E+00  0.51100000000E-03 0. -1.
        -11    1    3    3    0    0 -0.26474812095E+01  0.27122807510E+01  0.18778544503E+01  0.42298890322E+01  0.51100000000E-03 0.  1.
         12    1    3    3    0    0 -0.23413011042E+02 -0.26153817433E+02  0.24270464857E+02  0.42676067259E+02  0.00000000000E+00 0. -1.
</event>
<event>
 7    1  0.1400974E-009  0.4778727E+02  0.7816164E-02  0.1312668E+00
        -11   -1    0    0    0    0  0.00000000000E+00  0.00000000000E+00  0.45593999997E+02  0.45594000000E+02  0.51100000000E-03 0.  1.
         11   -1    0    0    0    0 -0.00000000000E+00 -0.00000000000E+00 -0.45593999997E+02  0.45594000000E+02  0.51100000000E-03 0. -1.
    9900012    2    1    2    0    0  0.15128576294E+01 -0.13113512284E+01 -0.43354529851E+02  0.47787266839E+02  0.19999980827E+02 0.  0.
        -12    1    1    2    0    0 -0.15128576294E+01  0.13113512284E+01  0.43354529851E+02  0.43400733161E+02  0.00000000000E+00 0.  1.
         11    1    3    3    0    0 -0.38800747603E+01  0.54099514256E+00 -0.73824057440E+01  0.83574859091E+01  0.51100000000E-03 0. -1.
        -11    1    3    3    0    0 -0.25988298918E+01 -0.21573993981E+01 -0.27767444605E+02  0.27972115922E+02  0.51100000000E-03 0.  1.
        -12    1    3    3    0    0  0.79917622815E+01  0.30505302718E+00 -0.82046795022E+01  0.11457665008E+02  0.00000000000E+00 0.  1.
</event>
<event>
 7    1  0.1400974E-009  0.4778727E+02  0.7816164E-02  0.1312668E+00
        -11   -1    0    0    0    0  0.00000000000E+00  0.00000000000E+00  0.45593999997E+02  0.45594000000E+02  0.51100000000E-03 0.  1.
         11   -1    0    0    0    0 -0.00000000000E+00 -0.00000000000E+00 -0.45593999997E+02  0.45594000000E+02  0.51100000000E-03 0. -1.
    9900012    2    1    2    0    0  0.96720365094E+01  0.14999801452E+02 -0.39561101874E+02  0.47787272871E+02  0.20000008329E+02 0.  0.
        -12    1    1    2    0    0 -0.96720365094E+01 -0.14999801452E+02  0.39561101874E+02  0.43400727129E+02  0.00000000000E+00 0.  1.
         11    1    3    3    0    0  0.78784260850E-01  0.64909463458E+01 -0.11933159024E+02  0.13584508676E+02  0.51100000000E-03 0. -1.
        -11    1    3    3    0    0  0.12778498464E+01  0.11047152632E+02 -0.12309568520E+02  0.16589091564E+02  0.51100000000E-03 0.  1.
        -12    1    3    3    0    0  0.83154024022E+01 -0.25382975259E+01 -0.15318374329E+02  0.17613672630E+02  0.00000000000E+00 0.  1.
</event>
<event>
 7    1  0.1400974E-009  0.4778728E+02  0.7816164E-02  0.1312668E+00
        -11   -1    0    0    0    0  0.00000000000E+00  0.00000000000E+00  0.45593999997E+02  0.45594000000E+02  0.51100000000E-03 0.  1.
         11   -1    0    0    0    0 -0.00000000000E+00 -0.00000000000E+00 -0.45593999997E+02  0.45594000000E+02  0.51100000000E-03 0. -1.
    9900012    2    1    2    0    0 -0.33456513005E+02  0.26747421111E+02 -0.69899741880E+01  0.47787279526E+02  0.20000038670E+02 0.  0.
        -12    1    1    2    0    0  0.33456513005E+02 -0.26747421111E+02  0.69899741880E+01  0.43400720474E+02  0.00000000000E+00 0.  1.
         11    1    3    3    0    0 -0.84982045670E+01  0.10935254428E+02  0.49665485224E+00  0.13858063954E+02  0.51100000000E-03 0. -1.
        -11    1    3    3    0    0 -0.47639833255E+01  0.18821246540E+01 -0.78738696620E+01  0.93933888482E+01  0.51100000000E-03 0.  1.
         12    1    3    3    0    0 -0.20194325112E+02  0.13930042029E+02  0.38724062179E+00  0.24535826723E+02  0.00000000000E+00 0. -1.
</event>
<event>
 7    1  0.1400974E-009  0.4778727E+02  0.7816164E-02  0.1312668E+00
        -11   -1    0    0    0    0  0.00000000000E+00  0.00000000000E+00  0.45593999997E+02  0.45594000000E+02  0.51100000000E-03 0. -1.
         11   -1    0    0    0    0 -0.00000000000E+00 -0.00000000000E+00 -0.45593999997E+02  0.45594000000E+02  0.51100000000E-03 0.  1.
    9900012    2    1    2    0    0  0.27603819101E+02 -0.40367429335E+00  0.33488646231E+02  0.47787271800E+02  0.20000003445E+02 0.  0.
        -12    1    1    2    0    0 -0.27603819101E+02  0.40367429335E+00 -0.33488646231E+02  0.43400728200E+02  0.00000000000E+00 0.  1.
         11    1    3    3    0    0  0.14771876385E+02  0.33229888108E+01  0.12311864529E+02  0.19514932617E+02  0.51100000000E-03 0. -1.
        -11    1    3    3    0    0  0.50199548329E+01 -0.43136328728E+01  0.19031986562E+02  0.20150034438E+02  0.51100000000E-03 0.  1.
         12    1    3    3    0    0  0.78119878824E+01  0.58696976864E+00  0.21447951400E+01  0.81223047454E+01  0.00000000000E+00 0. -1.
</event>
<event>
 7    1  0.1400974E-009  0.4778727E+02  0.7816164E-02  0.1312668E+00
        -11   -1    0    0    0    0  0.00000000000E+00  0.00000000000E+00  0.45593999997E+02  0.45594000000E+02  0.51100000000E-03 0.  1.
         11   -1    0    0    0    0 -0.00000000000E+00 -0.00000000000E+00 -0.45593999997E+02  0.45594000000E+02  0.51100000000E-03 0. -1.
    9900012    2    1    2    0    0 -0.85017951113E+01  0.11020104121E+02 -0.41108398724E+02  0.47787266590E+02  0.19999979689E+02 0.  0.
        -12    1    1    2    0    0  0.85017951113E+01 -0.11020104121E+02  0.41108398724E+02  0.43400733410E+02  0.00000000000E+00 0.  1.
         11    1    3    3    0    0 -0.46536074480E+00  0.32803746001E+01 -0.88415424857E+01  0.94419432283E+01  0.51100000000E-03 0. -1.
        -11    1    3    3    0    0  0.85429005054E+00  0.10744407270E+02 -0.12793760841E+02  0.16728790027E+02  0.51100000000E-03 0.  1.
         12    1    3    3    0    0 -0.88907244170E+01 -0.30046777490E+01 -0.19473095397E+02  0.21616533334E+02  0.00000000000E+00 0. -1.
</event>
<event>
 7    1  0.1400974E-009  0.4778727E+02  0.7816164E-02  0.1312668E+00
        -11   -1    0    0    0    0  0.00000000000E+00  0.00000000000E+00  0.45593999997E+02  0.45594000000E+02  0.51100000000E-03 0.  1.
         11   -1    0    0    0    0 -0.00000000000E+00 -0.00000000000E+00 -0.45593999997E+02  0.45594000000E+02  0.51100000000E-03 0. -1.
    9900012    2    1    2    0    0 -0.84578353874E+01  0.38207529315E+02 -0.18768939892E+02  0.47787269816E+02  0.19999994401E+02 0.  0.
        -12    1    1    2    0    0  0.84578353874E+01 -0.38207529315E+02  0.18768939892E+02  0.43400730184E+02  0.00000000000E+00 0.  1.
         11    1    3    3    0    0 -0.54173782335E+01  0.10709410716E+02 -0.63145110245E+01  0.13561434826E+02  0.51100000000E-03 0. -1.
        -11    1    3    3    0    0 -0.77213663680E+01  0.57609479004E+01 -0.41646850955E+01  0.10495361904E+02  0.51100000000E-03 0.  1.
         12    1    3    3    0    0  0.46809092141E+01  0.21737170699E+02 -0.82897437717E+01  0.23730473085E+02  0.00000000000E+00 0. -1.
</event>
<event>
 7    1  0.1400974E-009  0.4778726E+02  0.7816164E-02  0.1312668E+00
        -11   -1    0    0    0    0  0.00000000000E+00  0.00000000000E+00  0.45593999997E+02  0.45594000000E+02  0.51100000000E-03 0. -1.
         11   -1    0    0    0    0 -0.00000000000E+00 -0.00000000000E+00 -0.45593999997E+02  0.45594000000E+02  0.51100000000E-03 0.  1.
    9900012    2    1    2    0    0 -0.94933533716E+01  0.26462729318E+02  0.33063942620E+02  0.47787261495E+02  0.19999956459E+02 0.  0.
        -12    1    1    2    0    0  0.94933533716E+01 -0.26462729318E+02 -0.33063942620E+02  0.43400738505E+02  0.00000000000E+00 0.  1.
         11    1    3    3    0    0  0.61941511530E+00  0.94164537037E+01  0.70939209481E+01  0.11805803239E+02  0.51100000000E-03 0. -1.
        -11    1    3    3    0    0 -0.12178945688E+02  0.94616062984E+01  0.22753841129E+02  0.27487924589E+02  0.51100000000E-03 0.  1.
        -12    1    3    3    0    0  0.20661772016E+01  0.75846693158E+01  0.32161805433E+01  0.84935336666E+01  0.00000000000E+00 0.  1.
</event>
<event>
 7    1  0.1400974E-009  0.4778727E+02  0.7816164E-02  0.1312668E+00
        -11   -1    0    0    0    0  0.00000000000E+00  0.00000000000E+00  0.45593999997E+02  0.45594000000E+02  0.51100000000E-03 0.  1.
         11   -1    0    0    0    0 -0.00000000000E+00 -0.00000000000E+00 -0.45593999997E+02  0.45594000000E+02  0.51100000000E-03 0. -1.
    9900012    2    1    2    0    0 -0.19608091670E+02  0.38559109989E+02 -0.35130228954E+01  0.47787267841E+02  0.19999985393E+02 0.  0.
        -12    1    1    2    0    0  0.19608091670E+02 -0.38559109989E+02  0.35130228954E+01  0.43400732159E+02  0.00000000000E+00 0.  1.
         11    1    3    3    0    0 -0.83386984578E+01  0.17424253190E+02 -0.31164655584E+01  0.19566574791E+02  0.51100000000E-03 0. -1.
        -11    1    3    3    0    0 -0.65612150438E+01  0.66507792003E+01 -0.69463698089E+01  0.11641926842E+02  0.51100000000E-03 0.  1.
         12    1    3    3    0    0 -0.47081781682E+01  0.14484077599E+02  0.65498124719E+01  0.16578766208E+02  0.00000000000E+00 0. -1.
</event>
<event>
 7    1  0.1400974E-009  0.4778730E+02  0.7816164E-02  0.1312668E+00
        -11   -1    0    0    0    0  0.00000000000E+00  0.00000000000E+00  0.45593999997E+02  0.45594000000E+02  0.51100000000E-03 0.  1.
         11   -1    0    0    0    0 -0.00000000000E+00 -0.00000000000E+00 -0.45593999997E+02  0.45594000000E+02  0.51100000000E-03 0. -1.
    9900012    2    1    2    0    0  0.10472363340E+02 -0.32484495276E+02 -0.26808727213E+02  0.47787300904E+02  0.20000136140E+02 0.  0.
        -12    1    1    2    0    0 -0.10472363340E+02  0.32484495276E+02  0.26808727213E+02  0.43400699096E+02  0.00000000000E+00 0.  1.
         11    1    3    3    0    0  0.16115677535E+01 -0.13371365403E+02 -0.10697557676E+02  0.17199659992E+02  0.51100000000E-03 0. -1.
        -11    1    3    3    0    0  0.40265307109E+01 -0.15800419287E+02 -0.18135237129E+02  0.24387558821E+02  0.51100000000E-03 0.  1.
        -12    1    3    3    0    0  0.48342648757E+01 -0.33127105856E+01  0.20240675924E+01  0.62000820907E+01  0.00000000000E+00 0.  1.
</event>
<event>
 7    1  0.1400974E-009  0.4778727E+02  0.7816164E-02  0.1312668E+00
        -11   -1    0    0    0    0  0.00000000000E+00  0.00000000000E+00  0.45593999997E+02  0.45594000000E+02  0.51100000000E-03 0.  1.
         11   -1    0    0    0    0 -0.00000000000E+00 -0.00000000000E+00 -0.45593999997E+02  0.45594000000E+02  0.51100000000E-03 0. -1.
    9900012    2    1    2    0    0 -0.30745483039E+02 -0.27932347751E+02 -0.12574679824E+02  0.47787270158E+02  0.19999995958E+02 0.  0.
        -12    1    1    2    0    0  0.30745483039E+02  0.27932347751E+02  0.12574679824E+02  0.43400729842E+02  0.00000000000E+00 0.  1.
         11    1    3    3    0    0 -0.14988268378E+02 -0.18051343393E+02 -0.10363771767E+02  0.25649696933E+02  0.51100000000E-03 0. -1.
        -11    1    3    3    0    0 -0.16810906972E+02 -0.10905963755E+02 -0.73140757767E+00  0.20051972371E+02  0.51100000000E-03 0.  1.
         12    1    3    3    0    0  0.10536923115E+01  0.10249593977E+01 -0.14795004787E+01  0.20856008536E+01  0.00000000000E+00 0. -1.
</event>
<event>
 7    1  0.1400974E-009  0.4778726E+02  0.7816164E-02  0.1312668E+00
        -11   -1    0    0    0    0  0.00000000000E+00  0.00000000000E+00  0.45593999997E+02  0.45594000000E+02  0.51100000000E-03 0.  1.
         11   -1    0    0    0    0 -0.00000000000E+00 -0.00000000000E+00 -0.45593999997E+02  0.45594000000E+02  0.51100000000E-03 0. -1.
    9900012    2    1    2    0    0 -0.15291510591E+02  0.38404384501E+02 -0.13224880666E+02  0.47787256761E+02  0.19999934877E+02 0.  0.
        -12    1    1    2    0    0  0.15291510591E+02 -0.38404384501E+02  0.13224880666E+02  0.43400743239E+02  0.00000000000E+00 0.  1.
         11    1    3    3    0    0 -0.11249250432E+02  0.19090477215E+02 -0.12161995513E+02  0.25276591754E+02  0.51100000000E-03 0. -1.
        -11    1    3    3    0    0 -0.45048730722E+01  0.20535522801E+02 -0.35918155579E+00  0.21026901573E+02  0.51100000000E-03 0.  1.
        -12    1    3    3    0    0  0.46261291270E+00 -0.12216155157E+01 -0.70370359700E+00  0.14837634338E+01  0.00000000000E+00 0.  1.
</event>
<event>
 7    1  0.1400974E-009  0.4778724E+02  0.7816164E-02  0.1312668E+00
        -11   -1    0    0    0    0  0.00000000000E+00  0.00000000000E+00  0.45593999997E+02  0.45594000000E+02  0.51100000000E-03 0.  1.
         11   -1    0    0    0    0 -0.00000000000E+00 -0.00000000000E+00 -0.45593999997E+02  0.45594000000E+02  0.51100000000E-03 0. -1.
    9900012    2    1    2    0    0 -0.94917797359E+01  0.26411605644E+02 -0.33105277120E+02  0.47787237697E+02  0.19999847956E+02 0.  0.
        -12    1    1    2    0    0  0.94917797359E+01 -0.26411605644E+02  0.33105277120E+02  0.43400762303E+02  0.00000000000E+00 0.  1.
         11    1    3    3    0    0 -0.15699565870E+01  0.45020421373E+01 -0.90835408350E+01  0.10258843086E+02  0.51100000000E-03 0. -1.
        -11    1    3    3    0    0  0.47030795129E+01  0.11651643897E+02 -0.10620240184E+02  0.16452029183E+02  0.51100000000E-03 0.  1.
        -12    1    3    3    0    0 -0.12624902662E+02  0.10257919610E+02 -0.13401496101E+02  0.21076365429E+02  0.00000000000E+00 0.  1.
</event>
<event>
 7    1  0.1400974E-009  0.4778727E+02  0.7816164E-02  0.1312668E+00
        -11   -1    0    0    0    0  0.00000000000E+00  0.00000000000E+00  0.45593999997E+02  0.45594000000E+02  0.51100000000E-03 0.  1.
         11   -1    0    0    0    0 -0.00000000000E+00 -0.00000000000E+00 -0.45593999997E+02  0.45594000000E+02  0.51100000000E-03 0. -1.
    9900012    2    1    2    0    0 -0.85897173825E+01 -0.88879889722E-01 -0.42542122977E+02  0.47787269917E+02  0.19999994861E+02 0.  0.
        -12    1    1    2    0    0  0.85897173825E+01  0.88879889722E-01  0.42542122977E+02  0.43400730083E+02  0.00000000000E+00 0.  1.
         11    1    3    3    0    0 -0.32887335096E+01  0.31880256035E+01 -0.16230800103E+02  0.16864701231E+02  0.51100000000E-03 0. -1.
        -11    1    3    3    0    0 -0.27843060393E+01 -0.21613790062E+01  0.84699090579E+00  0.36250949208E+01  0.51100000000E-03 0.  1.
        -12    1    3    3    0    0 -0.25166778335E+01 -0.11155264871E+01 -0.27158313779E+02  0.27297473766E+02  0.00000000000E+00 0.  1.
</event>
<event>
 7    1  0.1400974E-009  0.4778727E+02  0.7816164E-02  0.1312668E+00
        -11   -1    0    0    0    0  0.00000000000E+00  0.00000000000E+00  0.45593999997E+02  0.45594000000E+02  0.51100000000E-03 0.  1.
         11   -1    0    0    0    0 -0.00000000000E+00 -0.00000000000E+00 -0.45593999997E+02  0.45594000000E+02  0.51100000000E-03 0. -1.
    9900012    2    1    2    0    0  0.21819280173E+02 -0.35330613160E+01 -0.37350495793E+02  0.47787273675E+02  0.20000011995E+02 0.  0.
        -12    1    1    2    0    0 -0.21819280173E+02  0.35330613160E+01  0.37350495793E+02  0.43400726325E+02  0.00000000000E+00 0.  1.
         11    1    3    3    0    0  0.71865230740E+01 -0.29597227411E+01 -0.29417832786E+02  0.30427207540E+02  0.51100000000E-03 0. -1.
        -11    1    3    3    0    0  0.85176910108E+01 -0.54817082569E+00 -0.72650917952E+01  0.11208617687E+02  0.51100000000E-03 0.  1.
        -12    1    3    3    0    0  0.61150660886E+01 -0.25167749285E-01 -0.66757121141E+00  0.61514484478E+01  0.00000000000E+00 0.  1.
</event>
<event>
 7    1  0.1400974E-009  0.4778726E+02  0.7816164E-02  0.1312668E+00
        -11   -1    0    0    0    0  0.00000000000E+00  0.00000000000E+00  0.45593999997E+02  0.45594000000E+02  0.51100000000E-03 0.  1.
         11   -1    0    0    0    0 -0.00000000000E+00 -0.00000000000E+00 -0.45593999997E+02  0.45594000000E+02  0.51100000000E-03 0. -1.
    9900012    2    1    2    0    0  0.26545907946E+02 -0.32234837377E+02  0.11825988773E+02  0.47787262911E+02  0.19999962917E+02 0.  0.
        -12    1    1    2    0    0 -0.26545907946E+02  0.32234837377E+02 -0.11825988773E+02  0.43400737089E+02  0.00000000000E+00 0.  1.
         11    1    3    3    0    0  0.15385603457E+02 -0.77322692496E+01  0.69741517850E+01  0.18578040124E+02  0.51100000000E-03 0. -1.
        -11    1    3    3    0    0  0.61861720899E+01 -0.88512969969E+01 -0.27033271344E+01  0.11132033126E+02  0.51100000000E-03 0.  1.
         12    1    3    3    0    0  0.49741323990E+01 -0.15651271131E+02  0.75551641221E+01  0.18077189661E+02  0.00000000000E+00 0. -1.
</event>
<event>
 7    1  0.1400974E-009  0.4778727E+02  0.7816164E-02  0.1312668E+00
        -11   -1    0    0    0    0  0.00000000000E+00  0.00000000000E+00  0.45593999997E+02  0.45594000000E+02  0.51100000000E-03 0.  1.
         11   -1    0    0    0    0 -0.00000000000E+00 -0.00000000000E+00 -0.45593999997E+02  0.45594000000E+02  0.51100000000E-03 0. -1.
    9900012    2    1    2    0    0  0.37404910717E+02 -0.58393710015E+01 -0.21222574458E+02  0.47787271134E+02  0.20000000409E+02 0.  0.
        -12    1    1    2    0    0 -0.37404910717E+02  0.58393710015E+01  0.21222574458E+02  0.43400728866E+02  0.00000000000E+00 0.  1.
         11    1    3    3    0    0  0.33004445425E+02 -0.59587988127E+01 -0.10774447131E+02  0.35226260266E+02  0.51100000000E-03 0. -1.
        -11    1    3    3    0    0  0.11084914329E+00 -0.21230801626E+01 -0.34340191340E+01  0.40388419854E+01  0.51100000000E-03 0.  1.
        -12    1    3    3    0    0  0.42896161492E+01  0.22425079738E+01 -0.70141081933E+01  0.85221688828E+01  0.00000000000E+00 0.  1.
</event>
<event>
 7    1  0.1400974E-009  0.4778727E+02  0.7816164E-02  0.1312668E+00
        -11   -1    0    0    0    0  0.00000000000E+00  0.00000000000E+00  0.45593999997E+02  0.45594000000E+02  0.51100000000E-03 0.  1.
         11   -1    0    0    0    0 -0.00000000000E+00 -0.00000000000E+00 -0.45593999997E+02  0.45594000000E+02  0.51100000000E-03 0. -1.
    9900012    2    1    2    0    0 -0.32426944140E+02 -0.49086691220E+01 -0.28425717159E+02  0.47787272646E+02  0.20000007303E+02 0.  0.
        -12    1    1    2    0    0  0.32426944140E+02  0.49086691220E+01  0.28425717159E+02  0.43400727354E+02  0.00000000000E+00 0.  1.
         11    1    3    3    0    0 -0.21364337431E+02 -0.76121646695E+01 -0.12772293130E+02  0.26029049865E+02  0.51100000000E-03 0. -1.
        -11    1    3    3    0    0 -0.93617702254E+01 -0.13827597746E+01 -0.14266705000E+02  0.17119977750E+02  0.51100000000E-03 0.  1.
        -12    1    3    3    0    0 -0.17008364839E+01  0.40862553221E+01 -0.13867190295E+01  0.46382450312E+01  0.00000000000E+00 0.  1.
</event>
<event>
 7    1  0.1400974E-009  0.4778727E+02  0.7816164E-02  0.1312668E+00
        -11   -1    0    0    0    0  0.00000000000E+00  0.00000000000E+00  0.45593999997E+02  0.45594000000E+02  0.51100000000E-03 0.  1.
         11   -1    0    0    0    0 -0.00000000000E+00 -0.00000000000E+00 -0.45593999997E+02  0.45594000000E+02  0.51100000000E-03 0. -1.
    9900012    2    1    2    0    0  0.41769104731E+02 -0.11483301492E+02 -0.26643895162E+01  0.47787270805E+02  0.19999998907E+02 0.  0.
        -12    1    1    2    0    0 -0.41769104731E+02  0.11483301492E+02  0.26643895162E+01  0.43400729195E+02  0.00000000000E+00 0.  1.
         11    1    3    3    0    0  0.29234934999E+02 -0.53466113559E+01 -0.26946456060E+01  0.29841729048E+02  0.51100000000E-03 0. -1.
        -11    1    3    3    0    0  0.95828326727E+01 -0.94049974187E+01 -0.85337010359E+00  0.13454103436E+02  0.51100000000E-03 0.  1.
        -12    1    3    3    0    0  0.29513370597E+01  0.32683072830E+01  0.88362619340E+00  0.44914383204E+01  0.00000000000E+00 0.  1.
</event>
<event>
 7    1  0.1400974E-009  0.4778727E+02  0.7816164E-02  0.1312668E+00
        -11   -1    0    0    0    0  0.00000000000E+00  0.00000000000E+00  0.45593999997E+02  0.45594000000E+02  0.51100000000E-03 0.  1.
         11   -1    0    0    0    0 -0.00000000000E+00 -0.00000000000E+00 -0.45593999997E+02  0.45594000000E+02  0.51100000000E-03 0. -1.
    9900012    2    1    2    0    0 -0.14873592619E+02  0.39420649440E+02 -0.10412112442E+02  0.47787269071E+02  0.19999991001E+02 0.  0.
        -12    1    1    2    0    0  0.14873592619E+02 -0.39420649440E+02  0.10412112442E+02  0.43400730929E+02  0.00000000000E+00 0.  1.
         11    1    3    3    0    0 -0.63721116801E+01  0.11591191633E+02 -0.98393033263E+01  0.16485491225E+02  0.51100000000E-03 0. -1.
        -11    1    3    3    0    0  0.21561275670E+01  0.17190958313E+01 -0.13903317676E+01  0.30882356204E+01  0.51100000000E-03 0.  1.
        -12    1    3    3    0    0 -0.10657608506E+02  0.26110361976E+02  0.81752265207E+00  0.28213542225E+02  0.00000000000E+00 0.  1.
</event>
<event>
 7    1  0.1400974E-009  0.4778727E+02  0.7816164E-02  0.1312668E+00
        -11   -1    0    0    0    0  0.00000000000E+00  0.00000000000E+00  0.45593999997E+02  0.45594000000E+02  0.51100000000E-03 0. -1.
         11   -1    0    0    0    0 -0.00000000000E+00 -0.00000000000E+00 -0.45593999997E+02  0.45594000000E+02  0.51100000000E-03 0.  1.
    9900012    2    1    2    0    0 -0.16119852353E+02 -0.39002584483E+02 -0.10127793322E+02  0.47787269202E+02  0.19999991598E+02 0.  0.
        -12    1    1    2    0    0  0.16119852353E+02  0.39002584483E+02  0.10127793322E+02  0.43400730798E+02  0.00000000000E+00 0.  1.
         11    1    3    3    0    0 -0.11858274058E+02 -0.35139286676E+02 -0.10684900311E+02  0.38594756466E+02  0.51100000000E-03 0. -1.
        -11    1    3    3    0    0  0.16801518853E+01 -0.25768698622E+01  0.47413356155E+00  0.31125506486E+01  0.51100000000E-03 0.  1.
         12    1    3    3    0    0 -0.59417301804E+01 -0.12864279451E+01  0.82973427121E-01  0.60799620874E+01  0.00000000000E+00 0. -1.
</event>
<event>
 7    1  0.1400974E-009  0.4778727E+02  0.7816164E-02  0.1312668E+00
        -11   -1    0    0    0    0  0.00000000000E+00  0.00000000000E+00  0.45593999997E+02  0.45594000000E+02  0.51100000000E-03 0.  1.
         11   -1    0    0    0    0 -0.00000000000E+00 -0.00000000000E+00 -0.45593999997E+02  0.45594000000E+02  0.51100000000E-03 0. -1.
    9900012    2    1    2    0    0 -0.15427841978E+02  0.51430640028E+00 -0.40562796580E+02  0.47787270910E+02  0.19999999388E+02 0.  0.
        -12    1    1    2    0    0  0.15427841978E+02 -0.51430640028E+00  0.40562796580E+02  0.43400729090E+02  0.00000000000E+00 0.  1.
         11    1    3    3    0    0 -0.19843893616E+01 -0.46647068170E+01 -0.12888114069E+02  0.13849215695E+02  0.51100000000E-03 0. -1.
        -11    1    3    3    0    0  0.16012716224E+01 -0.21352082463E+01 -0.21849176903E+01  0.34492101471E+01  0.51100000000E-03 0.  1.
         12    1    3    3    0    0 -0.15044724239E+02  0.73142214637E+01 -0.25489764820E+02  0.30488845068E+02  0.00000000000E+00 0. -1.
</event>
<event>
 7    1  0.1400974E-009  0.4778727E+02  0.7816164E-02  0.1312668E+00
        -11   -1    0    0    0    0  0.00000000000E+00  0.00000000000E+00  0.45593999997E+02  0.45594000000E+02  0.51100000000E-03 0.  1.
         11   -1    0    0    0    0 -0.00000000000E+00 -0.00000000000E+00 -0.45593999997E+02  0.45594000000E+02  0.51100000000E-03 0. -1.
    9900012    2    1    2    0    0  0.73615594395E+01 -0.37313968525E+02 -0.20906899959E+02  0.47787271086E+02  0.20000000187E+02 0.  0.
        -12    1    1    2    0    0 -0.73615594395E+01  0.37313968525E+02  0.20906899959E+02  0.43400728914E+02  0.00000000000E+00 0.  1.
         11    1    3    3    0    0  0.58111412126E+01 -0.75410541228E+01 -0.45584721449E+01  0.10555402789E+02  0.51100000000E-03 0. -1.
        -11    1    3    3    0    0 -0.40186435916E+01 -0.99710173640E+00 -0.20774887156E+01  0.46324580746E+01  0.51100000000E-03 0.  1.
         12    1    3    3    0    0  0.55690618184E+01 -0.28775812665E+02 -0.14270939098E+02  0.32599410222E+02  0.00000000000E+00 0. -1.
</event>
<event>
 7    1  0.1400974E-009  0.4778727E+02  0.7816164E-02  0.1312668E+00
        -11   -1    0    0    0    0  0.00000000000E+00  0.00000000000E+00  0.45593999997E+02  0.45594000000E+02  0.51100000000E-03 0. -1.
         11   -1    0    0    0    0 -0.00000000000E+00 -0.00000000000E+00 -0.45593999997E+02  0.45594000000E+02  0.51100000000E-03 0.  1.
    9900012    2    1    2    0    0 -0.20369820165E+02 -0.17918508336E+02  0.33876548116E+02  0.47787273891E+02  0.20000012977E+02 0.  0.
        -12    1    1    2    0    0  0.20369820165E+02  0.17918508336E+02 -0.33876548116E+02  0.43400726109E+02  0.00000000000E+00 0.  1.
         11    1    3    3    0    0 -0.15987736417E+02 -0.59882871060E+01  0.13404252003E+02  0.21705788864E+02  0.51100000000E-03 0. -1.
        -11    1    3    3    0    0  0.25096417290E+01 -0.15525719567E+00  0.33170263473E+01  0.41623395410E+01  0.51100000000E-03 0.  1.
        -12    1    3    3    0    0 -0.68917254773E+01 -0.11774964034E+02  0.17155269766E+02  0.21919145485E+02  0.00000000000E+00 0.  1.
</event>
<event>
 7    1  0.1400974E-009  0.4778727E+02  0.7816164E-02  0.1312668E+00
        -11   -1    0    0    0    0  0.00000000000E+00  0.00000000000E+00  0.45593999997E+02  0.45594000000E+02  0.51100000000E-03 0.  1.
         11   -1    0    0    0    0 -0.00000000000E+00 -0.00000000000E+00 -0.45593999997E+02  0.45594000000E+02  0.51100000000E-03 0. -1.
    9900012    2    1    2    0    0  0.15297625694E+02  0.33279006142E+02 -0.23283333820E+02  0.47787271487E+02  0.20000002019E+02 0.  0.
        -12    1    1    2    0    0 -0.15297625694E+02 -0.33279006142E+02  0.23283333820E+02  0.43400728513E+02  0.00000000000E+00 0.  1.
         11    1    3    3    0    0  0.33877704949E+01  0.10842940620E+02 -0.12455916787E+02  0.16858120105E+02  0.51100000000E-03 0. -1.
        -11    1    3    3    0    0 -0.15485535950E+00  0.13200195599E+02 -0.19852423527E+01  0.13349544243E+02  0.51100000000E-03 0.  1.
        -12    1    3    3    0    0  0.12064710559E+02  0.92358699233E+01 -0.88421746805E+01  0.17579607140E+02  0.00000000000E+00 0.  1.
</event>
<event>
 7    1  0.1400974E-009  0.4778727E+02  0.7816164E-02  0.1312668E+00
        -11   -1    0    0    0    0  0.00000000000E+00  0.00000000000E+00  0.45593999997E+02  0.45594000000E+02  0.51100000000E-03 0.  1.
         11   -1    0    0    0    0 -0.00000000000E+00 -0.00000000000E+00 -0.45593999997E+02  0.45594000000E+02  0.51100000000E-03 0. -1.
    9900012    2    1    2    0    0  0.29412204822E+02 -0.75138556801E+01 -0.31017536554E+02  0.47787269666E+02  0.19999993716E+02 0.  0.
        -12    1    1    2    0    0 -0.29412204822E+02  0.75138556801E+01  0.31017536554E+02  0.43400730334E+02  0.00000000000E+00 0.  1.
         11    1    3    3    0    0 -0.82425892127E-01 -0.24963382635E+01 -0.12438498086E+01  0.27902797997E+01  0.51100000000E-03 0. -1.
        -11    1    3    3    0    0  0.27041896907E+02 -0.27213709376E+01 -0.17626877555E+02  0.32394086817E+02  0.51100000000E-03 0.  1.
         12    1    3    3    0    0  0.24527338068E+01 -0.22961464790E+01 -0.12146809190E+02  0.12602903050E+02  0.00000000000E+00 0. -1.
</event>
<event>
 7    1  0.1400974E-009  0.4778727E+02  0.7816164E-02  0.1312668E+00
        -11   -1    0    0    0    0  0.00000000000E+00  0.00000000000E+00  0.45593999997E+02  0.45594000000E+02  0.51100000000E-03 0.  1.
         11   -1    0    0    0    0 -0.00000000000E+00 -0.00000000000E+00 -0.45593999997E+02  0.45594000000E+02  0.51100000000E-03 0. -1.
    9900012    2    1    2    0    0  0.31803341814E+02  0.23867661349E+02 -0.17392687346E+02  0.47787269799E+02  0.19999994323E+02 0.  0.
        -12    1    1    2    0    0 -0.31803341814E+02 -0.23867661349E+02  0.17392687346E+02  0.43400730201E+02  0.00000000000E+00 0.  1.
         11    1    3    3    0    0  0.50379412299E+01  0.68402707326E+01 -0.10019510466E+02  0.13136237885E+02  0.51100000000E-03 0. -1.
        -11    1    3    3    0    0  0.24747284546E+02  0.15742690139E+02 -0.10102822170E+02  0.31021402310E+02  0.51100000000E-03 0.  1.
        -12    1    3    3    0    0  0.20181160379E+01  0.12847004771E+01  0.27296452893E+01  0.36296296042E+01  0.00000000000E+00 0.  1.
</event>
<event>
 7    1  0.1400974E-009  0.4778727E+02  0.7816164E-02  0.1312668E+00
        -11   -1    0    0    0    0  0.00000000000E+00  0.00000000000E+00  0.45593999997E+02  0.45594000000E+02  0.51100000000E-03 0.  1.
         11   -1    0    0    0    0 -0.00000000000E+00 -0.00000000000E+00 -0.45593999997E+02  0.45594000000E+02  0.51100000000E-03 0. -1.
    9900012    2    1    2    0    0 -0.20138059890E+02  0.30494545362E+02 -0.23412919283E+02  0.47787267952E+02  0.19999985898E+02 0.  0.
        -12    1    1    2    0    0  0.20138059890E+02 -0.30494545362E+02  0.23412919283E+02  0.43400732048E+02  0.00000000000E+00 0.  1.
         11    1    3    3    0    0 -0.79353791317E+01  0.15149498787E+02 -0.60303484559E+01  0.18134019362E+02  0.51100000000E-03 0. -1.
        -11    1    3    3    0    0  0.23753714930E+01 -0.48803602712E+00 -0.10850608653E+01  0.26566757868E+01  0.51100000000E-03 0.  1.
         12    1    3    3    0    0 -0.14578052251E+02  0.15833082602E+02 -0.16297509962E+02  0.26996572803E+02  0.00000000000E+00 0. -1.
</event>
<event>
 7    1  0.1400974E-009  0.4778726E+02  0.7816164E-02  0.1312668E+00
        -11   -1    0    0    0    0  0.00000000000E+00  0.00000000000E+00  0.45593999997E+02  0.45594000000E+02  0.51100000000E-03 0.  1.
         11   -1    0    0    0    0 -0.00000000000E+00 -0.00000000000E+00 -0.45593999997E+02  0.45594000000E+02  0.51100000000E-03 0. -1.
    9900012    2    1    2    0    0 -0.15031283074E+02  0.39336458543E+02 -0.10503709090E+02  0.47787258691E+02  0.19999943674E+02 0.  0.
        -12    1    1    2    0    0  0.15031283074E+02 -0.39336458543E+02  0.10503709090E+02  0.43400741309E+02  0.00000000000E+00 0.  1.
         11    1    3    3    0    0 -0.43541417444E+01  0.10688876107E+02 -0.91459775615E+01  0.14726151180E+02  0.51100000000E-03 0. -1.
        -11    1    3    3    0    0 -0.11656854667E+02  0.13540948360E+02 -0.61958731846E-01  0.17867383199E+02  0.51100000000E-03 0.  1.
        -12    1    3    3    0    0  0.97971333705E+00  0.15106634076E+02 -0.12957727964E+01  0.15193724312E+02  0.00000000000E+00 0.  1.
</event>
<event>
 7    1  0.1400974E-009  0.4778727E+02  0.7816164E-02  0.1312668E+00
        -11   -1    0    0    0    0  0.00000000000E+00  0.00000000000E+00  0.45593999997E+02  0.45594000000E+02  0.51100000000E-03 0.  1.
         11   -1    0    0    0    0 -0.00000000000E+00 -0.00000000000E+00 -0.45593999997E+02  0.45594000000E+02  0.51100000000E-03 0. -1.
    9900012    2    1    2    0    0  0.17263778665E+02  0.27816710778E+02 -0.28492380895E+02  0.47787271649E+02  0.20000002758E+02 0.  0.
        -12    1    1    2    0    0 -0.17263778665E+02 -0.27816710778E+02  0.28492380895E+02  0.43400728351E+02  0.00000000000E+00 0.  1.
         11    1    3    3    0    0  0.72270599608E+01  0.13534254086E+02 -0.29143277386E+01  0.15617289642E+02  0.51100000000E-03 0. -1.
        -11    1    3    3    0    0  0.84796666309E+01  0.53510030063E+01 -0.10098523414E+02  0.14230887350E+02  0.51100000000E-03 0.  1.
        -12    1    3    3    0    0  0.15570520734E+01  0.89314536854E+01 -0.15479529742E+02  0.17939094658E+02  0.00000000000E+00 0.  1.
</event>
<event>
 7    1  0.1400974E-009  0.4778727E+02  0.7816164E-02  0.1312668E+00
        -11   -1    0    0    0    0  0.00000000000E+00  0.00000000000E+00  0.45593999997E+02  0.45594000000E+02  0.51100000000E-03 0.  1.
         11   -1    0    0    0    0 -0.00000000000E+00 -0.00000000000E+00 -0.45593999997E+02  0.45594000000E+02  0.51100000000E-03 0. -1.
    9900012    2    1    2    0    0  0.71706294545E+01  0.29018838545E+02 -0.31466053190E+02  0.47787269354E+02  0.19999992294E+02 0.  0.
        -12    1    1    2    0    0 -0.71706294545E+01 -0.29018838545E+02  0.31466053190E+02  0.43400730646E+02  0.00000000000E+00 0.  1.
         11    1    3    3    0    0  0.46237267342E+01 -0.11672436719E+01 -0.41126058326E+01  0.62972084051E+01  0.51100000000E-03 0. -1.
        -11    1    3    3    0    0  0.35902458032E+01  0.12958428239E+02 -0.83944941646E+01  0.15851758889E+02  0.51100000000E-03 0.  1.
        -12    1    3    3    0    0 -0.10433430829E+01  0.17227653978E+02 -0.18958953192E+02  0.25638302060E+02  0.00000000000E+00 0.  1.
</event>
<event>
 7    1  0.1400974E-009  0.4778728E+02  0.7816164E-02  0.1312668E+00
        -11   -1    0    0    0    0  0.00000000000E+00  0.00000000000E+00  0.45593999997E+02  0.45594000000E+02  0.51100000000E-03 0.  1.
         11   -1    0    0    0    0 -0.00000000000E+00 -0.00000000000E+00 -0.45593999997E+02  0.45594000000E+02  0.51100000000E-03 0. -1.
    9900012    2    1    2    0    0  0.15130262112E+02  0.37986420483E+02 -0.14550934369E+02  0.47787278074E+02  0.20000032051E+02 0.  0.
        -12    1    1    2    0    0 -0.15130262112E+02 -0.37986420483E+02  0.14550934369E+02  0.43400721926E+02  0.00000000000E+00 0.  1.
         11    1    3    3    0    0  0.43397301552E+01  0.20747335096E+01 -0.26886817431E+01  0.55106067481E+01  0.51100000000E-03 0. -1.
        -11    1    3    3    0    0  0.83673484223E+00  0.62954483802E-01 -0.42101234709E+01  0.42929277148E+01  0.51100000000E-03 0.  1.
        -12    1    3    3    0    0  0.99537971147E+01  0.35848732490E+02 -0.76521291546E+01  0.37983743611E+02  0.00000000000E+00 0.  1.
</event>
<event>
 7    1  0.1400974E-009  0.4778727E+02  0.7816164E-02  0.1312668E+00
        -11   -1    0    0    0    0  0.00000000000E+00  0.00000000000E+00  0.45593999997E+02  0.45594000000E+02  0.51100000000E-03 0.  1.
         11   -1    0    0    0    0 -0.00000000000E+00 -0.00000000000E+00 -0.45593999997E+02  0.45594000000E+02  0.51100000000E-03 0. -1.
    9900012    2    1    2    0    0  0.91085913972E+01 -0.25274453388E+02 -0.34086045967E+02  0.47787274650E+02  0.20000016439E+02 0.  0.
        -12    1    1    2    0    0 -0.91085913972E+01  0.25274453388E+02  0.34086045967E+02  0.43400725350E+02  0.00000000000E+00 0.  1.
         11    1    3    3    0    0  0.38506290721E+01 -0.51272342165E+01 -0.13044358663E+02  0.14535170042E+02  0.51100000000E-03 0. -1.
        -11    1    3    3    0    0 -0.50775680607E+01 -0.10218283898E+02 -0.96681685302E+01  0.14955551017E+02  0.51100000000E-03 0.  1.
         12    1    3    3    0    0  0.10335530386E+02 -0.99289352727E+01 -0.11373518773E+02  0.18296553591E+02  0.00000000000E+00 0. -1.
</event>
<event>
 7    1  0.1400974E-009  0.4778727E+02  0.7816164E-02  0.1312668E+00
        -11   -1    0    0    0    0  0.00000000000E+00  0.00000000000E+00  0.45593999997E+02  0.45594000000E+02  0.51100000000E-03 0.  1.
         11   -1    0    0    0    0 -0.00000000000E+00 -0.00000000000E+00 -0.45593999997E+02  0.45594000000E+02  0.51100000000E-03 0. -1.
    9900012    2    1    2    0    0 -0.22718864843E+02  0.36388866098E+02 -0.65823123427E+01  0.47787271534E+02  0.20000002232E+02 0.  0.
        -12    1    1    2    0    0  0.22718864843E+02 -0.36388866098E+02  0.65823123427E+01  0.43400728466E+02  0.00000000000E+00 0.  1.
         11    1    3    3    0    0 -0.11534073970E+02  0.13173750575E+02 -0.89624900575E+01  0.19669997327E+02  0.51100000000E-03 0. -1.
        -11    1    3    3    0    0 -0.45065068952E+01  0.10662302605E+02 -0.43759212790E+01  0.12375055092E+02  0.51100000000E-03 0.  1.
        -12    1    3    3    0    0 -0.66782839775E+01  0.12552812918E+02  0.67560989939E+01  0.15742219115E+02  0.00000000000E+00 0.  1.
</event>
<event>
 7    1  0.1400974E-009  0.4778727E+02  0.7816164E-02  0.1312668E+00
        -11   -1    0    0    0    0  0.00000000000E+00  0.00000000000E+00  0.45593999997E+02  0.45594000000E+02  0.51100000000E-03 0.  1.
         11   -1    0    0    0    0 -0.00000000000E+00 -0.00000000000E+00 -0.45593999997E+02  0.45594000000E+02  0.51100000000E-03 0. -1.
    9900012    2    1    2    0    0 -0.12421936369E+02  0.82747243341E+01 -0.40753503054E+02  0.47787267551E+02  0.19999984072E+02 0.  0.
        -12    1    1    2    0    0  0.12421936369E+02 -0.82747243341E+01  0.40753503054E+02  0.43400732449E+02  0.00000000000E+00 0.  1.
         11    1    3    3    0    0 -0.12521728231E+02  0.10417964548E+01 -0.23075996501E+02  0.26275095291E+02  0.51100000000E-03 0. -1.
        -11    1    3    3    0    0 -0.62874299203E+00  0.51508320297E+01 -0.18457044081E+02  0.19172607147E+02  0.51100000000E-03 0.  1.
        -12    1    3    3    0    0  0.72853485351E+00  0.20820958495E+01  0.77953752908E+00  0.23395651132E+01  0.00000000000E+00 0.  1.
</event>
<event>
 7    1  0.1400974E-009  0.4778728E+02  0.7816164E-02  0.1312668E+00
        -11   -1    0    0    0    0  0.00000000000E+00  0.00000000000E+00  0.45593999997E+02  0.45594000000E+02  0.51100000000E-03 0.  1.
         11   -1    0    0    0    0 -0.00000000000E+00 -0.00000000000E+00 -0.45593999997E+02  0.45594000000E+02  0.51100000000E-03 0. -1.
    9900012    2    1    2    0    0 -0.64915026905E+00 -0.12845814569E+02 -0.41451009858E+02  0.47787279196E+02  0.20000037167E+02 0.  0.
        -12    1    1    2    0    0  0.64915026905E+00  0.12845814569E+02  0.41451009858E+02  0.43400720804E+02  0.00000000000E+00 0.  1.
         11    1    3    3    0    0 -0.16047887975E+01 -0.12143901188E+02 -0.40114833366E+02  0.41943408771E+02  0.51100000000E-03 0. -1.
        -11    1    3    3    0    0 -0.19687642484E+01 -0.16807988621E+01 -0.83181771105E+00  0.27190142416E+01  0.51100000000E-03 0.  1.
        -12    1    3    3    0    0  0.29244027768E+01  0.97888548083E+00 -0.50435878153E+00  0.31248561832E+01  0.00000000000E+00 0.  1.
</event>
<event>
 7    1  0.1400974E-009  0.4778727E+02  0.7816164E-02  0.1312668E+00
        -11   -1    0    0    0    0  0.00000000000E+00  0.00000000000E+00  0.45593999997E+02  0.45594000000E+02  0.51100000000E-03 0.  1.
         11   -1    0    0    0    0 -0.00000000000E+00 -0.00000000000E+00 -0.45593999997E+02  0.45594000000E+02  0.51100000000E-03 0. -1.
    9900012    2    1    2    0    0 -0.33489686165E+02  0.62870057471E+01 -0.26880059799E+02  0.47787272638E+02  0.20000007268E+02 0.  0.
        -12    1    1    2    0    0  0.33489686165E+02 -0.62870057471E+01  0.26880059799E+02  0.43400727362E+02  0.00000000000E+00 0.  1.
         11    1    3    3    0    0 -0.27025166056E+02 -0.12113334081E+01 -0.13221960785E+02  0.30110582463E+02  0.51100000000E-03 0. -1.
        -11    1    3    3    0    0 -0.20300432453E+01  0.40149458580E+01 -0.24328431696E+01  0.51146448528E+01  0.51100000000E-03 0.  1.
        -12    1    3    3    0    0 -0.44344768638E+01  0.34833932971E+01 -0.11225255845E+02  0.12562045323E+02  0.00000000000E+00 0.  1.
</event>
<event>
 7    1  0.1400974E-009  0.4778727E+02  0.7816164E-02  0.1312668E+00
        -11   -1    0    0    0    0  0.00000000000E+00  0.00000000000E+00  0.45593999997E+02  0.45594000000E+02  0.51100000000E-03 0.  1.
         11   -1    0    0    0    0 -0.00000000000E+00 -0.00000000000E+00 -0.45593999997E+02  0.45594000000E+02  0.51100000000E-03 0. -1.
    9900012    2    1    2    0    0 -0.34554127312E+02  0.20525648508E+02 -0.16380875448E+02  0.47787273722E+02  0.20000012209E+02 0.  0.
        -12    1    1    2    0    0  0.34554127312E+02 -0.20525648508E+02  0.16380875448E+02  0.43400726278E+02  0.00000000000E+00 0.  1.
         11    1    3    3    0    0 -0.15097822210E+02  0.46964749234E+01 -0.13152653477E+02  0.20566803493E+02  0.51100000000E-03 0. -1.
        -11    1    3    3    0    0 -0.10711649816E+02  0.28314463287E+01  0.59362324735E+00  0.11095445864E+02  0.51100000000E-03 0.  1.
        -12    1    3    3    0    0 -0.87446552863E+01  0.12997727256E+02 -0.38218452188E+01  0.16125024365E+02  0.00000000000E+00 0.  1.
</event>
<event>
 7    1  0.1400974E-009  0.4778727E+02  0.7816164E-02  0.1312668E+00
        -11   -1    0    0    0    0  0.00000000000E+00  0.00000000000E+00  0.45593999997E+02  0.45594000000E+02  0.51100000000E-03 0.  1.
         11   -1    0    0    0    0 -0.00000000000E+00 -0.00000000000E+00 -0.45593999997E+02  0.45594000000E+02  0.51100000000E-03 0. -1.
    9900012    2    1    2    0    0  0.74204359850E+01  0.37047700646E+02 -0.21354816467E+02  0.47787272129E+02  0.20000004946E+02 0.  0.
        -12    1    1    2    0    0 -0.74204359850E+01 -0.37047700646E+02  0.21354816467E+02  0.43400727871E+02  0.00000000000E+00 0.  1.
         11    1    3    3    0    0  0.21444542113E+01  0.67448443912E+01  0.15399228369E+01  0.72431327705E+01  0.51100000000E-03 0. -1.
        -11    1    3    3    0    0  0.47413072729E+01  0.86001119625E+01 -0.13959760384E+02  0.17068006054E+02  0.51100000000E-03 0.  1.
         12    1    3    3    0    0  0.53467450079E+00  0.21702744292E+02 -0.89349789198E+01  0.23476133305E+02  0.00000000000E+00 0. -1.
</event>
<event>
 7    1  0.1400974E-009  0.4778727E+02  0.7816164E-02  0.1312668E+00
        -11   -1    0    0    0    0  0.00000000000E+00  0.00000000000E+00  0.45593999997E+02  0.45594000000E+02  0.51100000000E-03 0.  1.
         11   -1    0    0    0    0 -0.00000000000E+00 -0.00000000000E+00 -0.45593999997E+02  0.45594000000E+02  0.51100000000E-03 0. -1.
    9900012    2    1    2    0    0  0.10171012168E+02 -0.42062609089E+02  0.33031201676E+01  0.47787272187E+02  0.20000005209E+02 0.  0.
        -12    1    1    2    0    0 -0.10171012168E+02  0.42062609089E+02 -0.33031201676E+01  0.43400727813E+02  0.00000000000E+00 0.  1.
         11    1    3    3    0    0 -0.85948948607E+00 -0.73538885471E+01  0.74351804308E+01  0.10492869352E+02  0.51100000000E-03 0.  1.
        -11    1    3    3    0    0  0.21424763054E+01 -0.61094291634E+01 -0.34544880311E+01  0.73381753345E+01  0.51100000000E-03 0. -1.
        -12    1    3    3    0    0  0.88880253489E+01 -0.28599291378E+02 -0.67757223200E+00  0.29956227500E+02  0.00000000000E+00 0.  1.
</event>
<event>
 7    1  0.1400974E-009  0.4778731E+02  0.7816164E-02  0.1312668E+00
        -11   -1    0    0    0    0  0.00000000000E+00  0.00000000000E+00  0.45593999997E+02  0.45594000000E+02  0.51100000000E-03 0. -1.
         11   -1    0    0    0    0 -0.00000000000E+00 -0.00000000000E+00 -0.45593999997E+02  0.45594000000E+02  0.51100000000E-03 0.  1.
    9900012    2    1    2    0    0  0.34512012222E+02  0.23027546692E+02 -0.12738643997E+02  0.47787309393E+02  0.20000174844E+02 0.  0.
        -12    1    1    2    0    0 -0.34512012222E+02 -0.23027546692E+02  0.12738643997E+02  0.43400690607E+02  0.00000000000E+00 0.  1.
         11    1    3    3    0    0  0.20167018895E+02  0.15896204075E+02 -0.30830504912E+01  0.25863162137E+02  0.51100000000E-03 0. -1.
        -11    1    3    3    0    0  0.12924067394E+02  0.10040384146E+01 -0.42835806283E+01  0.13652423756E+02  0.51100000000E-03 0.  1.
         12    1    3    3    0    0  0.14209259327E+01  0.61273042029E+01 -0.53720128780E+01  0.82717235001E+01  0.00000000000E+00 0. -1.
</event>
<event>
 7    1  0.1400974E-009  0.4778727E+02  0.7816164E-02  0.1312668E+00
        -11   -1    0    0    0    0  0.00000000000E+00  0.00000000000E+00  0.45593999997E+02  0.45594000000E+02  0.51100000000E-03 0.  1.
         11   -1    0    0    0    0 -0.00000000000E+00 -0.00000000000E+00 -0.45593999997E+02  0.45594000000E+02  0.51100000000E-03 0. -1.
    9900012    2    1    2    0    0  0.22700522617E+02  0.45255131490E+01 -0.36712791982E+02  0.47787273146E+02  0.20000009582E+02 0.  0.
        -12    1    1    2    0    0 -0.22700522617E+02 -0.45255131490E+01  0.36712791982E+02  0.43400726854E+02  0.00000000000E+00 0.  1.
         11    1    3    3    0    0  0.85414878993E+01  0.86528025174E+00 -0.50251035309E+01  0.99477329682E+01  0.51100000000E-03 0. -1.
        -11    1    3    3    0    0  0.12376939072E+02 -0.31653557694E+01 -0.25210093732E+02  0.28262288021E+02  0.51100000000E-03 0.  1.
         12    1    3    3    0    0  0.17820956459E+01  0.68255886667E+01 -0.64775947184E+01  0.95772521567E+01  0.00000000000E+00 0. -1.
</event>
<event>
 7    1  0.1400974E-009  0.4778727E+02  0.7816164E-02  0.1312668E+00
        -11   -1    0    0    0    0  0.00000000000E+00  0.00000000000E+00  0.45593999997E+02  0.45594000000E+02  0.51100000000E-03 0.  1.
         11   -1    0    0    0    0 -0.00000000000E+00 -0.00000000000E+00 -0.45593999997E+02  0.45594000000E+02  0.51100000000E-03 0. -1.
    9900012    2    1    2    0    0  0.28012119472E+02 -0.14479408634E+02 -0.29820985402E+02  0.47787270950E+02  0.19999999571E+02 0.  0.
        -12    1    1    2    0    0 -0.28012119472E+02  0.14479408634E+02  0.29820985402E+02  0.43400729050E+02  0.00000000000E+00 0.  1.
         11    1    3    3    0    0  0.13302815517E+02 -0.67469990866E+01 -0.93796865409E+01  0.17620028865E+02  0.51100000000E-03 0. -1.
        -11    1    3    3    0    0  0.16956314460E+02 -0.92021082998E+01 -0.16431150239E+02  0.25341233113E+02  0.51100000000E-03 0.  1.
        -12    1    3    3    0    0 -0.22470105047E+01  0.14696987525E+01 -0.40101486217E+01  0.48260089722E+01  0.00000000000E+00 0.  1.
</event>
<event>
 7    1  0.1400974E-009  0.4778727E+02  0.7816164E-02  0.1312668E+00
        -11   -1    0    0    0    0  0.00000000000E+00  0.00000000000E+00  0.45593999997E+02  0.45594000000E+02  0.51100000000E-03 0.  1.
         11   -1    0    0    0    0 -0.00000000000E+00 -0.00000000000E+00 -0.45593999997E+02  0.45594000000E+02  0.51100000000E-03 0. -1.
    9900012    2    1    2    0    0 -0.13454223211E+02 -0.36045417951E+02 -0.20083201400E+02  0.47787271251E+02  0.20000000943E+02 0.  0.
        -12    1    1    2    0    0  0.13454223211E+02  0.36045417951E+02  0.20083201400E+02  0.43400728749E+02  0.00000000000E+00 0.  1.
         11    1    3    3    0    0  0.19152258738E+01 -0.11603770465E+02 -0.81626513659E+01  0.14315881277E+02  0.51100000000E-03 0. -1.
        -11    1    3    3    0    0 -0.60256827972E+01 -0.19456627674E+02 -0.10065815261E+02  0.22719811856E+02  0.51100000000E-03 0.  1.
        -12    1    3    3    0    0 -0.93437662877E+01 -0.49850198117E+01 -0.18547347726E+01  0.10751578119E+02  0.00000000000E+00 0.  1.
</event>
<event>
 7    1  0.1400974E-009  0.4778731E+02  0.7816164E-02  0.1312668E+00
        -11   -1    0    0    0    0  0.00000000000E+00  0.00000000000E+00  0.45593999997E+02  0.45594000000E+02  0.51100000000E-03 0. -1.
         11   -1    0    0    0    0 -0.00000000000E+00 -0.00000000000E+00 -0.45593999997E+02  0.45594000000E+02  0.51100000000E-03 0.  1.
    9900012    2    1    2    0    0 -0.14945012979E+02  0.85209402676E+01  0.39845449843E+02  0.47787312112E+02  0.20000187243E+02 0.  0.
        -12    1    1    2    0    0  0.14945012979E+02 -0.85209402676E+01 -0.39845449843E+02  0.43400687888E+02  0.00000000000E+00 0.  1.
         11    1    3    3    0    0 -0.96337078617E+01 -0.49236290282E+00  0.18650838681E+02  0.20997726833E+02  0.51100000000E-03 0. -1.
        -11    1    3    3    0    0  0.33120808841E+01 -0.56385937140E+00  0.58980707211E+01  0.67878609050E+01  0.51100000000E-03 0.  1.
        -12    1    3    3    0    0 -0.86233860009E+01  0.95771625418E+01  0.15296540441E+02  0.20001724374E+02  0.00000000000E+00 0.  1.
</event>
<event>
 7    1  0.1400974E-009  0.4778727E+02  0.7816164E-02  0.1312668E+00
        -11   -1    0    0    0    0  0.00000000000E+00  0.00000000000E+00  0.45593999997E+02  0.45594000000E+02  0.51100000000E-03 0.  1.
         11   -1    0    0    0    0 -0.00000000000E+00 -0.00000000000E+00 -0.45593999997E+02  0.45594000000E+02  0.51100000000E-03 0. -1.
    9900012    2    1    2    0    0 -0.13804202333E+02  0.36506012908E+02 -0.18983625300E+02  0.47787274084E+02  0.20000013858E+02 0.  0.
        -12    1    1    2    0    0  0.13804202333E+02 -0.36506012908E+02  0.18983625300E+02  0.43400725916E+02  0.00000000000E+00 0.  1.
         11    1    3    3    0    0 -0.63397681283E+01  0.16560572915E+01 -0.32313175084E+01  0.73059290152E+01  0.51100000000E-03 0.  1.
        -11    1    3    3    0    0 -0.54895341194E+01  0.19214137120E+02 -0.29972561111E+01  0.20206474076E+02  0.51100000000E-03 0. -1.
         12    1    3    3    0    0 -0.19749000849E+01  0.15635818497E+02 -0.12755051681E+02  0.20274870993E+02  0.00000000000E+00 0. -1.
</event>
<event>
 7    1  0.1400974E-009  0.4778727E+02  0.7816164E-02  0.1312668E+00
        -11   -1    0    0    0    0  0.00000000000E+00  0.00000000000E+00  0.45593999997E+02  0.45594000000E+02  0.51100000000E-03 0.  1.
         11   -1    0    0    0    0 -0.00000000000E+00 -0.00000000000E+00 -0.45593999997E+02  0.45594000000E+02  0.51100000000E-03 0. -1.
    9900012    2    1    2    0    0 -0.40138331027E+02  0.70200305166E+01 -0.14941777413E+02  0.47787272376E+02  0.20000006070E+02 0.  0.
        -12    1    1    2    0    0  0.40138331027E+02 -0.70200305166E+01  0.14941777413E+02  0.43400727624E+02  0.00000000000E+00 0.  1.
         11    1    3    3    0    0 -0.20343016724E+02 -0.78402974917E+00 -0.11790574036E+02  0.23525957333E+02  0.51100000000E-03 0.  1.
        -11    1    3    3    0    0 -0.10487911633E+02  0.86940899910E+01 -0.53845137917E+01  0.14648429275E+02  0.51100000000E-03 0. -1.
        -12    1    3    3    0    0 -0.93074026695E+01 -0.89002972522E+00  0.22333104151E+01  0.96128857672E+01  0.00000000000E+00 0.  1.
</event>
<event>
 7    1  0.1400974E-009  0.4778727E+02  0.7816164E-02  0.1312668E+00
        -11   -1    0    0    0    0  0.00000000000E+00  0.00000000000E+00  0.45593999997E+02  0.45594000000E+02  0.51100000000E-03 0.  1.
         11   -1    0    0    0    0 -0.00000000000E+00 -0.00000000000E+00 -0.45593999997E+02  0.45594000000E+02  0.51100000000E-03 0. -1.
    9900012    2    1    2    0    0 -0.19759719502E+02 -0.35689516085E+02 -0.14813341148E+02  0.47787272482E+02  0.20000006552E+02 0.  0.
        -12    1    1    2    0    0  0.19759719502E+02  0.35689516085E+02  0.14813341148E+02  0.43400727518E+02  0.00000000000E+00 0.  1.
         11    1    3    3    0    0 -0.84155070894E+01 -0.11286650370E+02 -0.10707887433E+01  0.14119342227E+02  0.51100000000E-03 0.  1.
        -11    1    3    3    0    0  0.34566598243E+01 -0.24598009902E+01 -0.14394074121E+01  0.44800683044E+01  0.51100000000E-03 0. -1.
         12    1    3    3    0    0 -0.14800872237E+02 -0.21943064725E+02 -0.12303144993E+02  0.29187861950E+02  0.00000000000E+00 0. -1.
</event>
<event>
 7    1  0.1400974E-009  0.4778727E+02  0.7816164E-02  0.1312668E+00
        -11   -1    0    0    0    0  0.00000000000E+00  0.00000000000E+00  0.45593999997E+02  0.45594000000E+02  0.51100000000E-03 0.  1.
         11   -1    0    0    0    0 -0.00000000000E+00 -0.00000000000E+00 -0.45593999997E+02  0.45594000000E+02  0.51100000000E-03 0. -1.
    9900012    2    1    2    0    0 -0.33772645483E+02 -0.75335215796E+01 -0.26196899280E+02  0.47787273483E+02  0.20000011118E+02 0.  0.
        -12    1    1    2    0    0  0.33772645483E+02  0.75335215796E+01  0.26196899280E+02  0.43400726517E+02  0.00000000000E+00 0.  1.
         11    1    3    3    0    0 -0.24943067481E+02 -0.91922769254E+01 -0.21164472254E+02  0.33979250382E+02  0.51100000000E-03 0. -1.
        -11    1    3    3    0    0 -0.10720335670E+02  0.18651229287E+01 -0.47959191146E+01  0.11891388516E+02  0.51100000000E-03 0.  1.
        -12    1    3    3    0    0  0.18907576685E+01 -0.20636758292E+00 -0.23650791090E+00  0.19166345850E+01  0.00000000000E+00 0.  1.
</event>
<event>
 7    1  0.1400974E-009  0.4778727E+02  0.7816164E-02  0.1312668E+00
        -11   -1    0    0    0    0  0.00000000000E+00  0.00000000000E+00  0.45593999997E+02  0.45594000000E+02  0.51100000000E-03 0.  1.
         11   -1    0    0    0    0 -0.00000000000E+00 -0.00000000000E+00 -0.45593999997E+02  0.45594000000E+02  0.51100000000E-03 0. -1.
    9900012    2    1    2    0    0 -0.32738028391E+02  0.31652021773E+01 -0.28316537024E+02  0.47787271011E+02  0.19999999848E+02 0.  0.
        -12    1    1    2    0    0  0.32738028391E+02 -0.31652021773E+01  0.28316537024E+02  0.43400728989E+02  0.00000000000E+00 0.  1.
         11    1    3    3    0    0 -0.10257130974E+02  0.60293244804E+01 -0.11839272691E+02  0.16784810622E+02  0.51100000000E-03 0. -1.
        -11    1    3    3    0    0 -0.48922901179E+01 -0.53666092164E+01 -0.79493514243E+00  0.73052665400E+01  0.51100000000E-03 0.  1.
         12    1    3    3    0    0 -0.17588607299E+02  0.25024869133E+01 -0.15682329190E+02  0.23697193849E+02  0.00000000000E+00 0. -1.
</event>
<event>
 7    1  0.1991945E-009  0.4778727E+02  0.7816164E-02  0.1312668E+00
        -11   -1    0    0    0    0  0.00000000000E+00  0.00000000000E+00  0.45593999997E+02  0.45594000000E+02  0.51100000000E-03 0.  1.
         11   -1    0    0    0    0 -0.00000000000E+00 -0.00000000000E+00 -0.45593999997E+02  0.45594000000E+02  0.51100000000E-03 0. -1.
    9900012    2    1    2    0    0  0.40808004878E+02 -0.13835589757E+02  0.51871118127E+01  0.47787274949E+02  0.20000017801E+02 0.  0.
        -12    1    1    2    0    0 -0.40808004878E+02  0.13835589757E+02 -0.51871118127E+01  0.43400725051E+02  0.00000000000E+00 0.  1.
         11    1    3    3    0    0  0.42180795899E+02 -0.13617706856E+02  0.48538382831E+01  0.44589474420E+02  0.51100000000E-03 0. -1.
        -11    1    3    3    0    0  0.55005011416E-01  0.95258585076E+00  0.85293386451E+00  0.12798210003E+01  0.51100000000E-03 0.  1.
         12    1    3    3    0    0 -0.14277960324E+01 -0.11704687519E+01 -0.51966033489E+00  0.19179795288E+01  0.00000000000E+00 0. -1.
</event>
<event>
 7    1  0.1400974E-009  0.4778727E+02  0.7816164E-02  0.1312668E+00
        -11   -1    0    0    0    0  0.00000000000E+00  0.00000000000E+00  0.45593999997E+02  0.45594000000E+02  0.51100000000E-03 0.  1.
         11   -1    0    0    0    0 -0.00000000000E+00 -0.00000000000E+00 -0.45593999997E+02  0.45594000000E+02  0.51100000000E-03 0. -1.
    9900012    2    1    2    0    0  0.33321499904E+02  0.23852575276E+02 -0.14295307704E+02  0.47787268146E+02  0.19999986783E+02 0.  0.
        -12    1    1    2    0    0 -0.33321499904E+02 -0.23852575276E+02  0.14295307704E+02  0.43400731854E+02  0.00000000000E+00 0.  1.
         11    1    3    3    0    0  0.34066117899E+01  0.14789472600E+01 -0.14773613777E+01  0.39968594905E+01  0.51100000000E-03 0. -1.
        -11    1    3    3    0    0  0.37544139416E+01 -0.19322308793E+01  0.25302449615E+01  0.49225278102E+01  0.51100000000E-03 0.  1.
        -12    1    3    3    0    0  0.26160474173E+02  0.24305858895E+02 -0.15348191288E+02  0.38867880845E+02  0.00000000000E+00 0.  1.
</event>
<event>
 7    1  0.1400974E-009  0.4778727E+02  0.7816164E-02  0.1312668E+00
        -11   -1    0    0    0    0  0.00000000000E+00  0.00000000000E+00  0.45593999997E+02  0.45594000000E+02  0.51100000000E-03 0.  1.
         11   -1    0    0    0    0 -0.00000000000E+00 -0.00000000000E+00 -0.45593999997E+02  0.45594000000E+02  0.51100000000E-03 0. -1.
    9900012    2    1    2    0    0 -0.15710293825E+02  0.25627139792E+02 -0.31305906187E+02  0.47787269728E+02  0.19999993996E+02 0.  0.
        -12    1    1    2    0    0  0.15710293825E+02 -0.25627139792E+02  0.31305906187E+02  0.43400730272E+02  0.00000000000E+00 0.  1.
         11    1    3    3    0    0 -0.68669218963E+01  0.98928843343E+01 -0.14146434400E+02  0.18578088795E+02  0.51100000000E-03 0. -1.
        -11    1    3    3    0    0 -0.55231167239E+01  0.96917195227E+01 -0.48505252441E+00  0.11165550675E+02  0.51100000000E-03 0.  1.
         12    1    3    3    0    0 -0.33202552051E+01  0.60425359348E+01 -0.16674419262E+02  0.18043630258E+02  0.00000000000E+00 0. -1.
</event>
<event>
 7    1  0.1400974E-009  0.4778727E+02  0.7816164E-02  0.1312668E+00
        -11   -1    0    0    0    0  0.00000000000E+00  0.00000000000E+00  0.45593999997E+02  0.45594000000E+02  0.51100000000E-03 0. -1.
         11   -1    0    0    0    0 -0.00000000000E+00 -0.00000000000E+00 -0.45593999997E+02  0.45594000000E+02  0.51100000000E-03 0.  1.
    9900012    2    1    2    0    0  0.14523745547E+01  0.17819851409E+02  0.39547018945E+02  0.47787271855E+02  0.20000003696E+02 0.  0.
        -12    1    1    2    0    0 -0.14523745547E+01 -0.17819851409E+02 -0.39547018945E+02  0.43400728145E+02  0.00000000000E+00 0.  1.
         11    1    3    3    0    0  0.42701332736E+01  0.53901787805E+01  0.17270007804E+02  0.18588739475E+02  0.51100000000E-03 0. -1.
        -11    1    3    3    0    0 -0.31822815558E+00 -0.14767691047E+01 -0.11100870164E+01  0.18746758634E+01  0.51100000000E-03 0.  1.
         12    1    3    3    0    0 -0.24995305633E+01  0.13906441734E+02  0.23387098158E+02  0.27323856517E+02  0.00000000000E+00 0. -1.
</event>
<event>
 7    1  0.1400974E-009  0.4778727E+02  0.7816164E-02  0.1312668E+00
        -11   -1    0    0    0    0  0.00000000000E+00  0.00000000000E+00  0.45593999997E+02  0.45594000000E+02  0.51100000000E-03 0. -1.
         11   -1    0    0    0    0 -0.00000000000E+00 -0.00000000000E+00 -0.45593999997E+02  0.45594000000E+02  0.51100000000E-03 0.  1.
    9900012    2    1    2    0    0  0.15696214682E+02 -0.32293530626E+02 -0.24379906161E+02  0.47787273047E+02  0.20000009130E+02 0.  0.
        -12    1    1    2    0    0 -0.15696214682E+02  0.32293530626E+02  0.24379906161E+02  0.43400726953E+02  0.00000000000E+00 0.  1.
         11    1    3    3    0    0  0.18828167850E+02 -0.22056791737E+02 -0.17889026356E+02  0.34073732266E+02  0.51100000000E-03 0. -1.
        -11    1    3    3    0    0 -0.20365947750E+01 -0.49419704178E+01 -0.63562517384E+01  0.83049820175E+01  0.51100000000E-03 0.  1.
        -12    1    3    3    0    0 -0.10953583933E+01 -0.52947684716E+01 -0.13462806600E+00  0.54085587631E+01  0.00000000000E+00 0.  1.
</event>
<event>
 7    1  0.1400974E-009  0.4778727E+02  0.7816164E-02  0.1312668E+00
        -11   -1    0    0    0    0  0.00000000000E+00  0.00000000000E+00  0.45593999997E+02  0.45594000000E+02  0.51100000000E-03 0. -1.
         11   -1    0    0    0    0 -0.00000000000E+00 -0.00000000000E+00 -0.45593999997E+02  0.45594000000E+02  0.51100000000E-03 0.  1.
    9900012    2    1    2    0    0 -0.16542598835E+02  0.49081870121E+01  0.39823049750E+02  0.47787272272E+02  0.20000005597E+02 0.  0.
        -12    1    1    2    0    0  0.16542598835E+02 -0.49081870121E+01 -0.39823049750E+02  0.43400727728E+02  0.00000000000E+00 0.  1.
         11    1    3    3    0    0 -0.57540295778E+01  0.93077756670E+01  0.27573754747E+02  0.29665729308E+02  0.51100000000E-03 0. -1.
        -11    1    3    3    0    0 -0.72395653130E+01  0.54942330571E+00  0.68876642969E+01  0.10007651653E+02  0.51100000000E-03 0.  1.
        -12    1    3    3    0    0 -0.35490039440E+01 -0.49490119607E+01  0.53616307057E+01  0.81138913110E+01  0.00000000000E+00 0.  1.
</event>
<event>
 7    1  0.1400974E-009  0.4778727E+02  0.7816164E-02  0.1312668E+00
        -11   -1    0    0    0    0  0.00000000000E+00  0.00000000000E+00  0.45593999997E+02  0.45594000000E+02  0.51100000000E-03 0. -1.
         11   -1    0    0    0    0 -0.00000000000E+00 -0.00000000000E+00 -0.45593999997E+02  0.45594000000E+02  0.51100000000E-03 0.  1.
    9900012    2    1    2    0    0 -0.17343726480E+02  0.39671889371E+02 -0.29932514371E+01  0.47787271796E+02  0.20000003427E+02 0.  0.
        -12    1    1    2    0    0  0.17343726480E+02 -0.39671889371E+02  0.29932514371E+01  0.43400728204E+02  0.00000000000E+00 0.  1.
         11    1    3    3    0    0 -0.89161660040E+01  0.22264502324E+02  0.60522200543E+00  0.23991089469E+02  0.51100000000E-03 0. -1.
        -11    1    3    3    0    0 -0.89353640096E+01  0.42005440635E+01  0.69973078896E+00  0.98982283188E+01  0.51100000000E-03 0.  1.
        -12    1    3    3    0    0  0.50780353404E+00  0.13206842983E+02 -0.42982042315E+01  0.13897954009E+02  0.00000000000E+00 0.  1.
</event>
<event>
 7    1  0.1400974E-009  0.4778726E+02  0.7816164E-02  0.1312668E+00
        -11   -1    0    0    0    0  0.00000000000E+00  0.00000000000E+00  0.45593999997E+02  0.45594000000E+02  0.51100000000E-03 0.  1.
         11   -1    0    0    0    0 -0.00000000000E+00 -0.00000000000E+00 -0.45593999997E+02  0.45594000000E+02  0.51100000000E-03 0. -1.
    9900012    2    1    2    0    0 -0.10248873840E+02 -0.27999745985E+02 -0.31537259280E+02  0.47787263680E+02  0.19999966423E+02 0.  0.
        -12    1    1    2    0    0  0.10248873840E+02  0.27999745985E+02  0.31537259280E+02  0.43400736320E+02  0.00000000000E+00 0.  1.
         11    1    3    3    0    0 -0.75901048493E+01 -0.12048400001E+02 -0.12437010924E+02  0.18906424177E+02  0.51100000000E-03 0. -1.
        -11    1    3    3    0    0 -0.81558036537E+01 -0.12309372269E+02 -0.15330665782E+02  0.21285372735E+02  0.51100000000E-03 0.  1.
        -12    1    3    3    0    0  0.54970346634E+01 -0.36419737160E+01 -0.37695825746E+01  0.75954667681E+01  0.00000000000E+00 0.  1.
</event>
<event>
 7    1  0.1400974E-009  0.4778727E+02  0.7816164E-02  0.1312668E+00
        -11   -1    0    0    0    0  0.00000000000E+00  0.00000000000E+00  0.45593999997E+02  0.45594000000E+02  0.51100000000E-03 0.  1.
         11   -1    0    0    0    0 -0.00000000000E+00 -0.00000000000E+00 -0.45593999997E+02  0.45594000000E+02  0.51100000000E-03 0. -1.
    9900012    2    1    2    0    0  0.54924108636E+01  0.22453006306E+02 -0.36733080779E+02  0.47787270826E+02  0.19999999005E+02 0.  0.
        -12    1    1    2    0    0 -0.54924108636E+01 -0.22453006306E+02  0.36733080779E+02  0.43400729174E+02  0.00000000000E+00 0.  1.
         11    1    3    3    0    0  0.32069851247E+01  0.16014060529E+00 -0.84276521091E+01  0.90186317663E+01  0.51100000000E-03 0. -1.
        -11    1    3    3    0    0 -0.39621605792E+01  0.15891340708E+02 -0.23414220969E+02  0.28573749663E+02  0.51100000000E-03 0.  1.
         12    1    3    3    0    0  0.62475863180E+01  0.64015249928E+01 -0.48912077012E+01  0.10194889397E+02  0.00000000000E+00 0. -1.
</event>
<event>
 7    1  0.1400974E-009  0.4778727E+02  0.7816164E-02  0.1312668E+00
        -11   -1    0    0    0    0  0.00000000000E+00  0.00000000000E+00  0.45593999997E+02  0.45594000000E+02  0.51100000000E-03 0. -1.
         11   -1    0    0    0    0 -0.00000000000E+00 -0.00000000000E+00 -0.45593999997E+02  0.45594000000E+02  0.51100000000E-03 0.  1.
    9900012    2    1    2    0    0 -0.30039942661E+02  0.30299798574E+02 -0.79465521873E+01  0.47787266822E+02  0.19999980750E+02 0.  0.
        -12    1    1    2    0    0  0.30039942661E+02 -0.30299798574E+02  0.79465521873E+01  0.43400733178E+02  0.00000000000E+00 0.  1.
         11    1    3    3    0    0 -0.10657841132E+02  0.58072152480E+01 -0.10977616532E+00  0.12137766582E+02  0.51100000000E-03 0. -1.
        -11    1    3    3    0    0 -0.15017191546E+02  0.26085635443E+02 -0.62668238735E+01  0.30744910150E+02  0.51100000000E-03 0.  1.
        -12    1    3    3    0    0 -0.43649099831E+01 -0.15930521171E+01 -0.15699521485E+01  0.49045900906E+01  0.00000000000E+00 0.  1.
</event>
<event>
 7    1  0.1400974E-009  0.4778727E+02  0.7816164E-02  0.1312668E+00
        -11   -1    0    0    0    0  0.00000000000E+00  0.00000000000E+00  0.45593999997E+02  0.45594000000E+02  0.51100000000E-03 0.  1.
         11   -1    0    0    0    0 -0.00000000000E+00 -0.00000000000E+00 -0.45593999997E+02  0.45594000000E+02  0.51100000000E-03 0. -1.
    9900012    2    1    2    0    0  0.29645687270E+02  0.31468015687E+02  0.38105516112E+01  0.47787273179E+02  0.20000009733E+02 0.  0.
        -12    1    1    2    0    0 -0.29645687270E+02 -0.31468015687E+02 -0.38105516112E+01  0.43400726821E+02  0.00000000000E+00 0.  1.
         11    1    3    3    0    0  0.18377536261E+02  0.20906702347E+02  0.70432085190E+01  0.28712903520E+02  0.51100000000E-03 0. -1.
        -11    1    3    3    0    0  0.84954195571E+01  0.93634779041E+00  0.77565283782E-02  0.85468684944E+01  0.51100000000E-03 0.  1.
        -12    1    3    3    0    0  0.27727314520E+01  0.96249655492E+01 -0.32404134362E+01  0.10527501164E+02  0.00000000000E+00 0.  1.
</event>
<event>
 7    1  0.1400974E-009  0.4778727E+02  0.7816164E-02  0.1312668E+00
        -11   -1    0    0    0    0  0.00000000000E+00  0.00000000000E+00  0.45593999997E+02  0.45594000000E+02  0.51100000000E-03 0.  1.
         11   -1    0    0    0    0 -0.00000000000E+00 -0.00000000000E+00 -0.45593999997E+02  0.45594000000E+02  0.51100000000E-03 0. -1.
    9900012    2    1    2    0    0  0.42475043520E+02  0.65603567338E+01  0.60378378052E+01  0.47787273188E+02  0.20000009772E+02 0.  0.
        -12    1    1    2    0    0 -0.42475043520E+02 -0.65603567338E+01 -0.60378378052E+01  0.43400726812E+02  0.00000000000E+00 0.  1.
         11    1    3    3    0    0  0.75731348974E+01  0.84388292696E+01  0.36326706559E+01  0.11906406174E+02  0.51100000000E-03 0. -1.
        -11    1    3    3    0    0  0.50091640626E+01 -0.30320785305E+01 -0.14697325577E+00  0.58572029349E+01  0.51100000000E-03 0.  1.
         12    1    3    3    0    0  0.29892744560E+02  0.11536059947E+01  0.25521404050E+01  0.30023664079E+02  0.00000000000E+00 0. -1.
</event>
<event>
 7    1  0.1400974E-009  0.4778727E+02  0.7816164E-02  0.1312668E+00
        -11   -1    0    0    0    0  0.00000000000E+00  0.00000000000E+00  0.45593999997E+02  0.45594000000E+02  0.51100000000E-03 0.  1.
         11   -1    0    0    0    0 -0.00000000000E+00 -0.00000000000E+00 -0.45593999997E+02  0.45594000000E+02  0.51100000000E-03 0. -1.
    9900012    2    1    2    0    0  0.16326842122E+02 -0.14040842205E+02 -0.37681723581E+02  0.47787270564E+02  0.19999997811E+02 0.  0.
        -12    1    1    2    0    0 -0.16326842122E+02  0.14040842205E+02  0.37681723581E+02  0.43400729436E+02  0.00000000000E+00 0.  1.
         11    1    3    3    0    0 -0.16050039511E+01 -0.20170505932E+01 -0.71385239773E+00  0.26747179824E+01  0.51100000000E-03 0. -1.
        -11    1    3    3    0    0  0.14636663814E+02 -0.34816624224E+01 -0.14693063492E+02  0.21029503462E+02  0.51100000000E-03 0.  1.
         12    1    3    3    0    0  0.32951822593E+01 -0.85421291895E+01 -0.22274807692E+02  0.24083049120E+02  0.00000000000E+00 0. -1.
</event>
<event>
 7    1  0.1400974E-009  0.4778728E+02  0.7816164E-02  0.1312668E+00
        -11   -1    0    0    0    0  0.00000000000E+00  0.00000000000E+00  0.45593999997E+02  0.45594000000E+02  0.51100000000E-03 0. -1.
         11   -1    0    0    0    0 -0.00000000000E+00 -0.00000000000E+00 -0.45593999997E+02  0.45594000000E+02  0.51100000000E-03 0.  1.
    9900012    2    1    2    0    0 -0.39998985733E+02 -0.11887446029E+02 -0.11932834995E+02  0.47787276691E+02  0.20000025744E+02 0.  0.
        -12    1    1    2    0    0  0.39998985733E+02  0.11887446029E+02  0.11932834995E+02  0.43400723309E+02  0.00000000000E+00 0.  1.
         11    1    3    3    0    0 -0.25129125504E+01 -0.19157949342E+01  0.12497565581E+01  0.33980717225E+01  0.51100000000E-03 0.  1.
        -11    1    3    3    0    0 -0.19891699915E+02 -0.54115580134E+01  0.19933562653E+01  0.20710822174E+02  0.51100000000E-03 0. -1.
         12    1    3    3    0    0 -0.17594373267E+02 -0.45600930815E+01 -0.15175947818E+02  0.23678382794E+02  0.00000000000E+00 0. -1.
</event>
<event>
 7    1  0.1400974E-009  0.4778727E+02  0.7816164E-02  0.1312668E+00
        -11   -1    0    0    0    0  0.00000000000E+00  0.00000000000E+00  0.45593999997E+02  0.45594000000E+02  0.51100000000E-03 0. -1.
         11   -1    0    0    0    0 -0.00000000000E+00 -0.00000000000E+00 -0.45593999997E+02  0.45594000000E+02  0.51100000000E-03 0.  1.
    9900012    2    1    2    0    0  0.33185044042E+01 -0.37542007365E+02  0.21522271671E+02  0.47787274587E+02  0.20000016152E+02 0.  0.
        -12    1    1    2    0    0 -0.33185044042E+01  0.37542007365E+02 -0.21522271671E+02  0.43400725413E+02  0.00000000000E+00 0.  1.
         11    1    3    3    0    0  0.31831498382E+01 -0.90661690577E+01  0.13280903129E+01  0.97000870314E+01  0.51100000000E-03 0. -1.
        -11    1    3    3    0    0 -0.31794177636E+00  0.77424998994E+00 -0.14655911647E+01  0.16877522755E+01  0.51100000000E-03 0.  1.
         12    1    3    3    0    0  0.45329634238E+00 -0.29250088298E+02  0.21659772523E+02  0.36399435280E+02  0.00000000000E+00 0. -1.
</event>
<event>
 7    1  0.1400974E-009  0.4778727E+02  0.7816164E-02  0.1312668E+00
        -11   -1    0    0    0    0  0.00000000000E+00  0.00000000000E+00  0.45593999997E+02  0.45594000000E+02  0.51100000000E-03 0. -1.
         11   -1    0    0    0    0 -0.00000000000E+00 -0.00000000000E+00 -0.45593999997E+02  0.45594000000E+02  0.51100000000E-03 0.  1.
    9900012    2    1    2    0    0 -0.15002677383E+02  0.39382363615E+02 -0.10371713856E+02  0.47787270273E+02  0.19999996482E+02 0.  0.
        -12    1    1    2    0    0  0.15002677383E+02 -0.39382363615E+02  0.10371713856E+02  0.43400729727E+02  0.00000000000E+00 0.  1.
         11    1    3    3    0    0 -0.18115526852E+02  0.33557549030E+02 -0.46160972231E+01  0.38413406044E+02  0.51100000000E-03 0. -1.
        -11    1    3    3    0    0  0.54902522254E+00 -0.38629599649E+00 -0.65367516104E+00  0.93698706990E+00  0.51100000000E-03 0.  1.
         12    1    3    3    0    0  0.25638242465E+01  0.62111105810E+01 -0.51019414719E+01  0.84368771592E+01  0.00000000000E+00 0. -1.
</event>
<event>
 7    1  0.1400974E-009  0.4778727E+02  0.7816164E-02  0.1312668E+00
        -11   -1    0    0    0    0  0.00000000000E+00  0.00000000000E+00  0.45593999997E+02  0.45594000000E+02  0.51100000000E-03 0.  1.
         11   -1    0    0    0    0 -0.00000000000E+00 -0.00000000000E+00 -0.45593999997E+02  0.45594000000E+02  0.51100000000E-03 0. -1.
    9900012    2    1    2    0    0 -0.24944187672E+02  0.35516195405E+02 -0.10272605799E+00  0.47787272042E+02  0.20000004548E+02 0.  0.
        -12    1    1    2    0    0  0.24944187672E+02 -0.35516195405E+02  0.10272605799E+00  0.43400727958E+02  0.00000000000E+00 0.  1.
         11    1    3    3    0    0 -0.12324445616E+02  0.16723699207E+02  0.61913448107E+01  0.21677334378E+02  0.51100000000E-03 0. -1.
        -11    1    3    3    0    0 -0.63289003863E+00 -0.13622298305E+01 -0.16004710595E+01  0.21949322963E+01  0.51100000000E-03 0.  1.
         12    1    3    3    0    0 -0.11986852017E+02  0.20154726029E+02 -0.46935998092E+01  0.23915005368E+02  0.00000000000E+00 0. -1.
</event>
<event>
 7    1  0.1400974E-009  0.4778727E+02  0.7816164E-02  0.1312668E+00
        -11   -1    0    0    0    0  0.00000000000E+00  0.00000000000E+00  0.45593999997E+02  0.45594000000E+02  0.51100000000E-03 0.  1.
         11   -1    0    0    0    0 -0.00000000000E+00 -0.00000000000E+00 -0.45593999997E+02  0.45594000000E+02  0.51100000000E-03 0. -1.
    9900012    2    1    2    0    0 -0.26636345149E+01 -0.42009273162E+02 -0.10571160724E+02  0.47787269367E+02  0.19999992353E+02 0.  0.
        -12    1    1    2    0    0  0.26636345149E+01  0.42009273162E+02  0.10571160724E+02  0.43400730633E+02  0.00000000000E+00 0.  1.
         11    1    3    3    0    0  0.39462854815E+01 -0.36131087358E+02 -0.11467764455E+02  0.38112180004E+02  0.51100000000E-03 0. -1.
        -11    1    3    3    0    0 -0.43743197510E+01 -0.54011901431E+01 -0.54641415991E+00  0.69718072937E+01  0.51100000000E-03 0.  1.
        -12    1    3    3    0    0 -0.22356002455E+01 -0.47699566058E+00  0.14430178905E+01  0.27032820700E+01  0.00000000000E+00 0.  1.
</event>
<event>
 7    1  0.1400974E-009  0.4778728E+02  0.7816164E-02  0.1312668E+00
        -11   -1    0    0    0    0  0.00000000000E+00  0.00000000000E+00  0.45593999997E+02  0.45594000000E+02  0.51100000000E-03 0. -1.
         11   -1    0    0    0    0 -0.00000000000E+00 -0.00000000000E+00 -0.45593999997E+02  0.45594000000E+02  0.51100000000E-03 0.  1.
    9900012    2    1    2    0    0  0.22698930590E+02  0.11268718321E+02  0.35233468450E+02  0.47787276946E+02  0.20000026910E+02 0.  0.
        -12    1    1    2    0    0 -0.22698930590E+02 -0.11268718321E+02 -0.35233468450E+02  0.43400723054E+02  0.00000000000E+00 0.  1.
         11    1    3    3    0    0  0.75053699859E+01  0.20370708182E+01  0.29499942303E+01  0.83176139826E+01  0.51100000000E-03 0. -1.
        -11    1    3    3    0    0  0.87676761961E+01 -0.16544611780E+01  0.75301208578E+01  0.11675277644E+02  0.51100000000E-03 0.  1.
         12    1    3    3    0    0  0.64258844080E+01  0.10886108681E+02  0.24753353362E+02  0.27794385320E+02  0.00000000000E+00 0. -1.
</event>
<event>
 7    1  0.1400974E-009  0.4778727E+02  0.7816164E-02  0.1312668E+00
        -11   -1    0    0    0    0  0.00000000000E+00  0.00000000000E+00  0.45593999997E+02  0.45594000000E+02  0.51100000000E-03 0.  1.
         11   -1    0    0    0    0 -0.00000000000E+00 -0.00000000000E+00 -0.45593999997E+02  0.45594000000E+02  0.51100000000E-03 0. -1.
    9900012    2    1    2    0    0 -0.59499136357E+00  0.19400562797E+02 -0.38818644966E+02  0.47787273641E+02  0.20000011837E+02 0.  0.
        -12    1    1    2    0    0  0.59499136357E+00 -0.19400562797E+02  0.38818644966E+02  0.43400726359E+02  0.00000000000E+00 0.  1.
         11    1    3    3    0    0  0.31171515664E+01 -0.31758934046E+00 -0.16310921066E+02  0.16609143360E+02  0.51100000000E-03 0. -1.
        -11    1    3    3    0    0 -0.11540454039E+01  0.15826746200E+00 -0.38631029735E+01  0.40349020099E+01  0.51100000000E-03 0.  1.
        -12    1    3    3    0    0 -0.25580975260E+01  0.19559884675E+02 -0.18644620926E+02  0.27143228271E+02  0.00000000000E+00 0.  1.
</event>
<event>
 7    1  0.1400974E-009  0.4778726E+02  0.7816164E-02  0.1312668E+00
        -11   -1    0    0    0    0  0.00000000000E+00  0.00000000000E+00  0.45593999997E+02  0.45594000000E+02  0.51100000000E-03 0.  1.
         11   -1    0    0    0    0 -0.00000000000E+00 -0.00000000000E+00 -0.45593999997E+02  0.45594000000E+02  0.51100000000E-03 0. -1.
    9900012    2    1    2    0    0 -0.12435447257E+02 -0.30810269856E+02 -0.27923301293E+02  0.47787264613E+02  0.19999970674E+02 0.  0.
        -12    1    1    2    0    0  0.12435447257E+02  0.30810269856E+02  0.27923301293E+02  0.43400735387E+02  0.00000000000E+00 0.  1.
         11    1    3    3    0    0 -0.60664565279E+01 -0.89956254388E+01 -0.84891139680E+01  0.13776364835E+02  0.51100000000E-03 0. -1.
        -11    1    3    3    0    0  0.21714073184E+01  0.10689902022E+01  0.51457632131E+00  0.24743764561E+01  0.51100000000E-03 0.  1.
        -12    1    3    3    0    0 -0.85403980476E+01 -0.22883634620E+02 -0.19948763646E+02  0.31536523322E+02  0.00000000000E+00 0.  1.
</event>
<event>
 7    1  0.1400974E-009  0.4778727E+02  0.7816164E-02  0.1312668E+00
        -11   -1    0    0    0    0  0.00000000000E+00  0.00000000000E+00  0.45593999997E+02  0.45594000000E+02  0.51100000000E-03 0. -1.
         11   -1    0    0    0    0 -0.00000000000E+00 -0.00000000000E+00 -0.45593999997E+02  0.45594000000E+02  0.51100000000E-03 0.  1.
    9900012    2    1    2    0    0 -0.13741586998E+02 -0.34808164858E+02  0.21981440401E+02  0.47787271019E+02  0.19999999883E+02 0.  0.
        -12    1    1    2    0    0  0.13741586998E+02  0.34808164858E+02 -0.21981440401E+02  0.43400728981E+02  0.00000000000E+00 0.  1.
         11    1    3    3    0    0 -0.11031482285E+02 -0.23194416907E+02  0.89396620293E+01  0.27195443268E+02  0.51100000000E-03 0. -1.
        -11    1    3    3    0    0 -0.47733209363E+01 -0.11910931300E+02  0.13312360510E+02  0.18489830172E+02  0.51100000000E-03 0.  1.
        -12    1    3    3    0    0  0.20632162235E+01  0.29718334856E+00 -0.27058213856E+00  0.21019975788E+01  0.00000000000E+00 0.  1.
</event>
<event>
 7    1  0.1400974E-009  0.4778727E+02  0.7816164E-02  0.1312668E+00
        -11   -1    0    0    0    0  0.00000000000E+00  0.00000000000E+00  0.45593999997E+02  0.45594000000E+02  0.51100000000E-03 0.  1.
         11   -1    0    0    0    0 -0.00000000000E+00 -0.00000000000E+00 -0.45593999997E+02  0.45594000000E+02  0.51100000000E-03 0. -1.
    9900012    2    1    2    0    0  0.29190114148E+02  0.86856767175E+01 -0.30921182423E+02  0.47787271130E+02  0.20000000391E+02 0.  0.
        -12    1    1    2    0    0 -0.29190114148E+02 -0.86856767175E+01  0.30921182423E+02  0.43400728870E+02  0.00000000000E+00 0.  1.
         11    1    3    3    0    0  0.15360189106E+02  0.23732875309E+01 -0.38660398350E+01  0.16016059670E+02  0.51100000000E-03 0. -1.
        -11    1    3    3    0    0  0.58405011378E+01 -0.86637935819E+00 -0.10153415305E+02  0.11745378213E+02  0.51100000000E-03 0.  1.
        -12    1    3    3    0    0  0.79894239036E+01  0.71787685448E+01 -0.16901727283E+02  0.20025833248E+02  0.00000000000E+00 0.  1.
</event>
<event>
 7    1  0.1400974E-009  0.4778727E+02  0.7816164E-02  0.1312668E+00
        -11   -1    0    0    0    0  0.00000000000E+00  0.00000000000E+00  0.45593999997E+02  0.45594000000E+02  0.51100000000E-03 0.  1.
         11   -1    0    0    0    0 -0.00000000000E+00 -0.00000000000E+00 -0.45593999997E+02  0.45594000000E+02  0.51100000000E-03 0. -1.
    9900012    2    1    2    0    0 -0.31754748573E+02 -0.18584057534E+02 -0.23019387797E+02  0.47787268832E+02  0.19999989912E+02 0.  0.
        -12    1    1    2    0    0  0.31754748573E+02  0.18584057534E+02  0.23019387797E+02  0.43400731168E+02  0.00000000000E+00 0.  1.
         11    1    3    3    0    0 -0.16683582418E+02 -0.86815606449E+01 -0.17689539151E+02  0.25819202411E+02  0.51100000000E-03 0. -1.
        -11    1    3    3    0    0 -0.11187042063E+02 -0.58399890463E+00 -0.31985186142E+01  0.11649956499E+02  0.51100000000E-03 0.  1.
        -12    1    3    3    0    0 -0.38841240917E+01 -0.93184979844E+01 -0.21313300325E+01  0.10318109921E+02  0.00000000000E+00 0.  1.
</event>
<event>
 7    1  0.1400974E-009  0.4778727E+02  0.7816164E-02  0.1312668E+00
        -11   -1    0    0    0    0  0.00000000000E+00  0.00000000000E+00  0.45593999997E+02  0.45594000000E+02  0.51100000000E-03 0.  1.
         11   -1    0    0    0    0 -0.00000000000E+00 -0.00000000000E+00 -0.45593999997E+02  0.45594000000E+02  0.51100000000E-03 0. -1.
    9900012    2    1    2    0    0  0.18730098288E+02  0.24530444784E+01 -0.39074148899E+02  0.47787272803E+02  0.20000008018E+02 0.  0.
        -12    1    1    2    0    0 -0.18730098288E+02 -0.24530444784E+01  0.39074148899E+02  0.43400727197E+02  0.00000000000E+00 0.  1.
         11    1    3    3    0    0  0.94177749985E+00 -0.10221566005E+01 -0.12458229567E+02  0.12535518863E+02  0.51100000000E-03 0. -1.
        -11    1    3    3    0    0  0.88902982096E+00 -0.14405622085E+01 -0.12707477704E+02  0.12819734138E+02  0.51100000000E-03 0.  1.
         12    1    3    3    0    0  0.16899290967E+02  0.49157632873E+01 -0.13908441628E+02  0.22432019802E+02  0.00000000000E+00 0. -1.
</event>
<event>
 7    1  0.1400974E-009  0.4778727E+02  0.7816164E-02  0.1312668E+00
        -11   -1    0    0    0    0  0.00000000000E+00  0.00000000000E+00  0.45593999997E+02  0.45594000000E+02  0.51100000000E-03 0.  1.
         11   -1    0    0    0    0 -0.00000000000E+00 -0.00000000000E+00 -0.45593999997E+02  0.45594000000E+02  0.51100000000E-03 0. -1.
    9900012    2    1    2    0    0 -0.80785319070E+01 -0.17559027649E+02 -0.38859250245E+02  0.47787268908E+02  0.19999990257E+02 0.  0.
        -12    1    1    2    0    0  0.80785319070E+01  0.17559027649E+02  0.38859250245E+02  0.43400731092E+02  0.00000000000E+00 0.  1.
         11    1    3    3    0    0  0.10397302872E+01 -0.27760070434E+00  0.11161838313E+01  0.15504734205E+01  0.51100000000E-03 0.  1.
        -11    1    3    3    0    0 -0.10608100258E+02 -0.77482374235E+01 -0.18461595741E+02  0.22658276453E+02  0.51100000000E-03 0. -1.
         12    1    3    3    0    0  0.14898380642E+01 -0.95331895216E+01 -0.21513838335E+02  0.23578519034E+02  0.00000000000E+00 0. -1.
</event>
<event>
 7    1  0.1400974E-009  0.4778727E+02  0.7816164E-02  0.1312668E+00
        -11   -1    0    0    0    0  0.00000000000E+00  0.00000000000E+00  0.45593999997E+02  0.45594000000E+02  0.51100000000E-03 0.  1.
         11   -1    0    0    0    0 -0.00000000000E+00 -0.00000000000E+00 -0.45593999997E+02  0.45594000000E+02  0.51100000000E-03 0. -1.
    9900012    2    1    2    0    0 -0.11063934897E+02 -0.37821305753E+02  0.18186847126E+02  0.47787271520E+02  0.20000002167E+02 0.  0.
        -12    1    1    2    0    0  0.11063934897E+02  0.37821305753E+02 -0.18186847126E+02  0.43400728480E+02  0.00000000000E+00 0.  1.
         11    1    3    3    0    0  0.47073596292E+01 -0.14046918447E+02  0.44901993056E+01  0.15480214553E+02  0.51100000000E-03 0. -1.
        -11    1    3    3    0    0 -0.58885722066E+01 -0.14247536119E+02  0.86803427195E+01  0.17692255879E+02  0.51100000000E-03 0.  1.
         12    1    3    3    0    0 -0.98827223195E+01 -0.95268511869E+01  0.50163051005E+01  0.14614801088E+02  0.00000000000E+00 0. -1.
</event>
<event>
 7    1  0.1400974E-009  0.4778727E+02  0.7816164E-02  0.1312668E+00
        -11   -1    0    0    0    0  0.00000000000E+00  0.00000000000E+00  0.45593999997E+02  0.45594000000E+02  0.51100000000E-03 0.  1.
         11   -1    0    0    0    0 -0.00000000000E+00 -0.00000000000E+00 -0.45593999997E+02  0.45594000000E+02  0.51100000000E-03 0. -1.
    9900012    2    1    2    0    0  0.22244187792E+02  0.26779216128E+02 -0.25917042127E+02  0.47787269827E+02  0.19999994450E+02 0.  0.
        -12    1    1    2    0    0 -0.22244187792E+02 -0.26779216128E+02  0.25917042127E+02  0.43400730173E+02  0.00000000000E+00 0.  1.
         11    1    3    3    0    0  0.85264820617E+01  0.78975036398E+01 -0.14824766743E+02  0.18837334454E+02  0.51100000000E-03 0. -1.
        -11    1    3    3    0    0 -0.22295393123E+01  0.19362313066E+01  0.42996145237E+00  0.29840751213E+01  0.51100000000E-03 0.  1.
         12    1    3    3    0    0  0.15947245042E+02  0.16945481181E+02 -0.11522236836E+02  0.25965860252E+02  0.00000000000E+00 0. -1.
</event>
<event>
 7    1  0.1400974E-009  0.4778727E+02  0.7816164E-02  0.1312668E+00
        -11   -1    0    0    0    0  0.00000000000E+00  0.00000000000E+00  0.45593999997E+02  0.45594000000E+02  0.51100000000E-03 0.  1.
         11   -1    0    0    0    0 -0.00000000000E+00 -0.00000000000E+00 -0.45593999997E+02  0.45594000000E+02  0.51100000000E-03 0. -1.
    9900012    2    1    2    0    0  0.16557272470E+02 -0.27442415665E+02 -0.29264207195E+02  0.47787271067E+02  0.20000000101E+02 0.  0.
        -12    1    1    2    0    0 -0.16557272470E+02  0.27442415665E+02  0.29264207195E+02  0.43400728933E+02  0.00000000000E+00 0.  1.
         11    1    3    3    0    0  0.64396098366E+01 -0.12913111482E+02 -0.18100259302E+02  0.23148140531E+02  0.51100000000E-03 0. -1.
        -11    1    3    3    0    0  0.48919359941E+01  0.14287579185E+01 -0.34902386817E+01  0.61769048298E+01  0.51100000000E-03 0.  1.
         12    1    3    3    0    0  0.52257266396E+01 -0.15958062101E+02 -0.76737092120E+01  0.18462225706E+02  0.00000000000E+00 0. -1.
</event>
<event>
 7    1  0.1400974E-009  0.4778727E+02  0.7816164E-02  0.1312668E+00
        -11   -1    0    0    0    0  0.00000000000E+00  0.00000000000E+00  0.45593999997E+02  0.45594000000E+02  0.51100000000E-03 0.  1.
         11   -1    0    0    0    0 -0.00000000000E+00 -0.00000000000E+00 -0.45593999997E+02  0.45594000000E+02  0.51100000000E-03 0. -1.
    9900012    2    1    2    0    0  0.13406787629E+02 -0.30872202579E+02 -0.27400518904E+02  0.47787270942E+02  0.19999999532E+02 0.  0.
        -12    1    1    2    0    0 -0.13406787629E+02  0.30872202579E+02  0.27400518904E+02  0.43400729058E+02  0.00000000000E+00 0.  1.
         11    1    3    3    0    0  0.55860432406E+01 -0.15687939009E+01 -0.36194079585E+01  0.68385018550E+01  0.51100000000E-03 0. -1.
        -11    1    3    3    0    0  0.51461424575E+01 -0.52751112301E+01 -0.50221760984E+00  0.73865962034E+01  0.51100000000E-03 0.  1.
         12    1    3    3    0    0  0.26746019304E+01 -0.24028297448E+02 -0.23278893336E+02  0.33562172883E+02  0.00000000000E+00 0. -1.
</event>
<event>
 7    1  0.1400974E-009  0.4778727E+02  0.7816164E-02  0.1312668E+00
        -11   -1    0    0    0    0  0.00000000000E+00  0.00000000000E+00  0.45593999997E+02  0.45594000000E+02  0.51100000000E-03 0.  1.
         11   -1    0    0    0    0 -0.00000000000E+00 -0.00000000000E+00 -0.45593999997E+02  0.45594000000E+02  0.51100000000E-03 0. -1.
    9900012    2    1    2    0    0 -0.34892215025E+02 -0.17814467596E+02 -0.18676220341E+02  0.47787272687E+02  0.20000007491E+02 0.  0.
        -12    1    1    2    0    0  0.34892215025E+02  0.17814467596E+02  0.18676220341E+02  0.43400727313E+02  0.00000000000E+00 0.  1.
         11    1    3    3    0    0 -0.32405843694E+02 -0.18034943594E+02 -0.10502511806E+02  0.38544787591E+02  0.51100000000E-03 0. -1.
        -11    1    3    3    0    0  0.82260065631E+00  0.21129164840E+00 -0.82914230374E+00  0.11869259545E+01  0.51100000000E-03 0.  1.
         12    1    3    3    0    0 -0.33089719870E+01  0.91843496135E-02 -0.73445662312E+01  0.80555591418E+01  0.00000000000E+00 0. -1.
</event>
<event>
 7    1  0.1400974E-009  0.4778727E+02  0.7816164E-02  0.1312668E+00
        -11   -1    0    0    0    0  0.00000000000E+00  0.00000000000E+00  0.45593999997E+02  0.45594000000E+02  0.51100000000E-03 0.  1.
         11   -1    0    0    0    0 -0.00000000000E+00 -0.00000000000E+00 -0.45593999997E+02  0.45594000000E+02  0.51100000000E-03 0. -1.
    9900012    2    1    2    0    0 -0.26318502818E+01  0.16911404908E+02 -0.39883594152E+02  0.47787270348E+02  0.19999996823E+02 0.  0.
        -12    1    1    2    0    0  0.26318502818E+01 -0.16911404908E+02  0.39883594152E+02  0.43400729652E+02  0.00000000000E+00 0.  1.
         11    1    3    3    0    0  0.98343854469E+00  0.54150640008E+01 -0.54985608750E+01  0.77797327371E+01  0.51100000000E-03 0. -1.
        -11    1    3    3    0    0 -0.63589294845E+01  0.26267888067E+01 -0.27765270117E+02  0.28605003558E+02  0.51100000000E-03 0.  1.
        -12    1    3    3    0    0  0.27436406579E+01  0.88695521007E+01 -0.66197631604E+01  0.11402534053E+02  0.00000000000E+00 0.  1.
</event>
<event>
 7    1  0.1400974E-009  0.4778731E+02  0.7816164E-02  0.1312668E+00
        -11   -1    0    0    0    0  0.00000000000E+00  0.00000000000E+00  0.45593999997E+02  0.45594000000E+02  0.51100000000E-03 0. -1.
         11   -1    0    0    0    0 -0.00000000000E+00 -0.00000000000E+00 -0.45593999997E+02  0.45594000000E+02  0.51100000000E-03 0.  1.
    9900012    2    1    2    0    0  0.27792505249E+02 -0.24345276891E+02 -0.22770686516E+02  0.47787308539E+02  0.20000170951E+02 0.  0.
        -12    1    1    2    0    0 -0.27792505249E+02  0.24345276891E+02  0.22770686516E+02  0.43400691461E+02  0.00000000000E+00 0.  1.
         11    1    3    3    0    0  0.10140811898E+01  0.10281930374E+01  0.96338471971E+00  0.17359873159E+01  0.51100000000E-03 0. -1.
        -11    1    3    3    0    0  0.26135929899E+02 -0.17371209220E+02 -0.19849668658E+02  0.37132938041E+02  0.51100000000E-03 0.  1.
        -12    1    3    3    0    0  0.64249416006E+00 -0.80022607089E+01 -0.38844025770E+01  0.89183831819E+01  0.00000000000E+00 0.  1.
</event>
<event>
 7    1  0.1400974E-009  0.4778727E+02  0.7816164E-02  0.1312668E+00
        -11   -1    0    0    0    0  0.00000000000E+00  0.00000000000E+00  0.45593999997E+02  0.45594000000E+02  0.51100000000E-03 0.  1.
         11   -1    0    0    0    0 -0.00000000000E+00 -0.00000000000E+00 -0.45593999997E+02  0.45594000000E+02  0.51100000000E-03 0. -1.
    9900012    2    1    2    0    0 -0.15045982740E+02  0.40442122088E+02  0.46557940746E+01  0.47787271273E+02  0.20000001041E+02 0.  0.
        -12    1    1    2    0    0  0.15045982740E+02 -0.40442122088E+02 -0.46557940746E+01  0.43400728727E+02  0.00000000000E+00 0.  1.
         11    1    3    3    0    0 -0.70571989102E+01  0.33769238038E+02  0.55555973182E+01  0.34943241921E+02  0.51100000000E-03 0. -1.
        -11    1    3    3    0    0 -0.40290058336E-01  0.67632807248E+00 -0.26494445909E+01  0.27347028818E+01  0.51100000000E-03 0.  1.
        -12    1    3    3    0    0 -0.79484937719E+01  0.59965559777E+01  0.17496413474E+01  0.10109326470E+02  0.00000000000E+00 0.  1.
</event>
<event>
 7    1  0.1400974E-009  0.4778727E+02  0.7816164E-02  0.1312668E+00
        -11   -1    0    0    0    0  0.00000000000E+00  0.00000000000E+00  0.45593999997E+02  0.45594000000E+02  0.51100000000E-03 0.  1.
         11   -1    0    0    0    0 -0.00000000000E+00 -0.00000000000E+00 -0.45593999997E+02  0.45594000000E+02  0.51100000000E-03 0. -1.
    9900012    2    1    2    0    0  0.35502327359E+02 -0.19074774050E+02 -0.16104690329E+02  0.47787270702E+02  0.19999998440E+02 0.  0.
        -12    1    1    2    0    0 -0.35502327359E+02  0.19074774050E+02  0.16104690329E+02  0.43400729298E+02  0.00000000000E+00 0.  1.
         11    1    3    3    0    0  0.17155521836E+02 -0.64987469594E+01 -0.16193637431E+02  0.24469972108E+02  0.51100000000E-03 0. -1.
        -11    1    3    3    0    0  0.13132019753E+02 -0.93129790933E+01 -0.30898976962E+01  0.16392955512E+02  0.51100000000E-03 0.  1.
        -12    1    3    3    0    0  0.52147857710E+01 -0.32630479973E+01  0.31788447979E+01  0.69243430821E+01  0.00000000000E+00 0.  1.
</event>
<event>
 7    1  0.1400974E-009  0.4778727E+02  0.7816164E-02  0.1312668E+00
        -11   -1    0    0    0    0  0.00000000000E+00  0.00000000000E+00  0.45593999997E+02  0.45594000000E+02  0.51100000000E-03 0. -1.
         11   -1    0    0    0    0 -0.00000000000E+00 -0.00000000000E+00 -0.45593999997E+02  0.45594000000E+02  0.51100000000E-03 0.  1.
    9900012    2    1    2    0    0  0.38036003364E+02  0.20793131364E+02 -0.21286840035E+01  0.47787272363E+02  0.20000006014E+02 0.  0.
        -12    1    1    2    0    0 -0.38036003364E+02 -0.20793131364E+02  0.21286840035E+01  0.43400727637E+02  0.00000000000E+00 0.  1.
         11    1    3    3    0    0  0.25639295083E+01  0.43909127601E+01 -0.50501522793E+01  0.71664417737E+01  0.51100000000E-03 0. -1.
        -11    1    3    3    0    0  0.22777070018E+02  0.12603591993E+02 -0.28108867993E+01  0.26182943581E+02  0.51100000000E-03 0.  1.
        -12    1    3    3    0    0  0.12695003838E+02  0.37986266109E+01  0.57323550752E+01  0.14437887009E+02  0.00000000000E+00 0.  1.
</event>
<event>
 7    1  0.1400974E-009  0.4778727E+02  0.7816164E-02  0.1312668E+00
        -11   -1    0    0    0    0  0.00000000000E+00  0.00000000000E+00  0.45593999997E+02  0.45594000000E+02  0.51100000000E-03 0. -1.
         11   -1    0    0    0    0 -0.00000000000E+00 -0.00000000000E+00 -0.45593999997E+02  0.45594000000E+02  0.51100000000E-03 0.  1.
    9900012    2    1    2    0    0  0.17281152292E+02  0.19874566951E+02  0.34496184600E+02  0.47787269729E+02  0.19999994004E+02 0.  0.
        -12    1    1    2    0    0 -0.17281152292E+02 -0.19874566951E+02 -0.34496184600E+02  0.43400730271E+02  0.00000000000E+00 0.  1.
         11    1    3    3    0    0 -0.10820125474E+00  0.53021617256E+01  0.56485975695E+01  0.77479856246E+01  0.51100000000E-03 0.  1.
        -11    1    3    3    0    0  0.13801727179E+02  0.27568834062E+01  0.91367678795E+01  0.16780006161E+02  0.51100000000E-03 0. -1.
         12    1    3    3    0    0  0.35876263682E+01  0.11815521820E+02  0.19710819151E+02  0.23259277943E+02  0.00000000000E+00 0. -1.
</event>
<event>
 7    1  0.1400974E-009  0.4778727E+02  0.7816164E-02  0.1312668E+00
        -11   -1    0    0    0    0  0.00000000000E+00  0.00000000000E+00  0.45593999997E+02  0.45594000000E+02  0.51100000000E-03 0.  1.
         11   -1    0    0    0    0 -0.00000000000E+00 -0.00000000000E+00 -0.45593999997E+02  0.45594000000E+02  0.51100000000E-03 0. -1.
    9900012    2    1    2    0    0 -0.95029611106E+00  0.43295907472E+02  0.28609080811E+01  0.47787268882E+02  0.19999990140E+02 0.  0.
        -12    1    1    2    0    0  0.95029611106E+00 -0.43295907472E+02 -0.28609080811E+01  0.43400731118E+02  0.00000000000E+00 0.  1.
         11    1    3    3    0    0  0.42497408139E+01  0.86423653140E+01  0.88079839087E+00  0.96709141901E+01  0.51100000000E-03 0. -1.
        -11    1    3    3    0    0 -0.78557233662E+01  0.78534386018E+01  0.12127733392E+01  0.11174064028E+02  0.51100000000E-03 0.  1.
        -12    1    3    3    0    0  0.26556864412E+01  0.26800103556E+02  0.76733635104E+00  0.26942290663E+02  0.00000000000E+00 0.  1.
</event>
<event>
 7    1  0.1400974E-009  0.4778727E+02  0.7816164E-02  0.1312668E+00
        -11   -1    0    0    0    0  0.00000000000E+00  0.00000000000E+00  0.45593999997E+02  0.45594000000E+02  0.51100000000E-03 0.  1.
         11   -1    0    0    0    0 -0.00000000000E+00 -0.00000000000E+00 -0.45593999997E+02  0.45594000000E+02  0.51100000000E-03 0. -1.
    9900012    2    1    2    0    0  0.16480188454E+02  0.83686500448E+01 -0.39268209636E+02  0.47787271860E+02  0.20000003720E+02 0.  0.
        -12    1    1    2    0    0 -0.16480188454E+02 -0.83686500448E+01  0.39268209636E+02  0.43400728140E+02  0.00000000000E+00 0.  1.
         11    1    3    3    0    0  0.22361731934E+01  0.90149541637E+01 -0.27019068676E+02  0.28570963258E+02  0.51100000000E-03 0. -1.
        -11    1    3    3    0    0  0.69437737298E+01  0.31778930760E+00 -0.35052775065E+01  0.77848541613E+01  0.51100000000E-03 0.  1.
        -12    1    3    3    0    0  0.73002415304E+01 -0.96409342645E+00 -0.87438634533E+01  0.11431454441E+02  0.00000000000E+00 0.  1.
</event>
<event>
 7    1  0.1400974E-009  0.4778727E+02  0.7816164E-02  0.1312668E+00
        -11   -1    0    0    0    0  0.00000000000E+00  0.00000000000E+00  0.45593999997E+02  0.45594000000E+02  0.51100000000E-03 0. -1.
         11   -1    0    0    0    0 -0.00000000000E+00 -0.00000000000E+00 -0.45593999997E+02  0.45594000000E+02  0.51100000000E-03 0.  1.
    9900012    2    1    2    0    0 -0.77731183455E+01 -0.30615337727E+02  0.29764123469E+02  0.47787270526E+02  0.19999997636E+02 0.  0.
        -12    1    1    2    0    0  0.77731183455E+01  0.30615337727E+02 -0.29764123469E+02  0.43400729474E+02  0.00000000000E+00 0.  1.
         11    1    3    3    0    0 -0.48805327122E+01 -0.16728805448E+02  0.17999941994E+02  0.25053351938E+02  0.51100000000E-03 0. -1.
        -11    1    3    3    0    0  0.24332859057E+01 -0.90888737707E+01  0.12368270816E+02  0.15540354885E+02  0.51100000000E-03 0.  1.
        -12    1    3    3    0    0 -0.53258715389E+01 -0.47976585091E+01 -0.60408934097E+00  0.71935637032E+01  0.00000000000E+00 0.  1.
</event>
<event>
 7    1  0.1400974E-009  0.4778726E+02  0.7816164E-02  0.1312668E+00
        -11   -1    0    0    0    0  0.00000000000E+00  0.00000000000E+00  0.45593999997E+02  0.45594000000E+02  0.51100000000E-03 0. -1.
         11   -1    0    0    0    0 -0.00000000000E+00 -0.00000000000E+00 -0.45593999997E+02  0.45594000000E+02  0.51100000000E-03 0.  1.
    9900012    2    1    2    0    0  0.75188645529E+01  0.41679725488E+02 -0.94811252360E+01  0.47787256036E+02  0.19999931568E+02 0.  0.
        -12    1    1    2    0    0 -0.75188645529E+01 -0.41679725488E+02  0.94811252360E+01  0.43400743964E+02  0.00000000000E+00 0.  1.
         11    1    3    3    0    0 -0.34359321731E+01  0.31825878991E+01 -0.46359137346E+00  0.47063162724E+01  0.51100000000E-03 0. -1.
        -11    1    3    3    0    0  0.31464004497E+01  0.12728031422E+01  0.13595369431E+01  0.36562555422E+01  0.51100000000E-03 0.  1.
        -12    1    3    3    0    0  0.78083962763E+01  0.37224334447E+02 -0.10377070806E+02  0.39424684221E+02  0.00000000000E+00 0.  1.
</event>
<event>
 7    1  0.1400974E-009  0.4778727E+02  0.7816164E-02  0.1312668E+00
        -11   -1    0    0    0    0  0.00000000000E+00  0.00000000000E+00  0.45593999997E+02  0.45594000000E+02  0.51100000000E-03 0. -1.
         11   -1    0    0    0    0 -0.00000000000E+00 -0.00000000000E+00 -0.45593999997E+02  0.45594000000E+02  0.51100000000E-03 0.  1.
    9900012    2    1    2    0    0  0.28890944969E+02 -0.10582537584E+01 -0.32369993563E+02  0.47787273214E+02  0.20000009893E+02 0.  0.
        -12    1    1    2    0    0 -0.28890944969E+02  0.10582537584E+01  0.32369993563E+02  0.43400726786E+02  0.00000000000E+00 0.  1.
         11    1    3    3    0    0  0.21905535327E+02  0.33355162619E+01 -0.20193803982E+02  0.29979457404E+02  0.51100000000E-03 0. -1.
        -11    1    3    3    0    0  0.76162303863E+01  0.20689399507E+00 -0.45359580637E+01  0.88670562330E+01  0.51100000000E-03 0.  1.
        -12    1    3    3    0    0 -0.63082074336E+00 -0.46006640154E+01 -0.76402315171E+01  0.89407595778E+01  0.00000000000E+00 0.  1.
</event>
<event>
 7    1  0.1400974E-009  0.4778727E+02  0.7816164E-02  0.1312668E+00
        -11   -1    0    0    0    0  0.00000000000E+00  0.00000000000E+00  0.45593999997E+02  0.45594000000E+02  0.51100000000E-03 0. -1.
         11   -1    0    0    0    0 -0.00000000000E+00 -0.00000000000E+00 -0.45593999997E+02  0.45594000000E+02  0.51100000000E-03 0.  1.
    9900012    2    1    2    0    0 -0.35820101437E+02  0.22791434751E+02  0.90052355529E+01  0.47787269219E+02  0.19999991679E+02 0.  0.
        -12    1    1    2    0    0  0.35820101437E+02 -0.22791434751E+02 -0.90052355529E+01  0.43400730781E+02  0.00000000000E+00 0.  1.
         11    1    3    3    0    0 -0.28736219312E+02  0.11598543277E+02  0.43156834168E+01  0.31287723313E+02  0.51100000000E-03 0. -1.
        -11    1    3    3    0    0 -0.81057245748E+01  0.67287080599E+01  0.54440670791E+01  0.11858168057E+02  0.51100000000E-03 0.  1.
        -12    1    3    3    0    0  0.10218424504E+01  0.44641834134E+01 -0.75451494305E+00  0.46413778495E+01  0.00000000000E+00 0.  1.
</event>
<event>
 7    1  0.1400974E-009  0.4778727E+02  0.7816164E-02  0.1312668E+00
        -11   -1    0    0    0    0  0.00000000000E+00  0.00000000000E+00  0.45593999997E+02  0.45594000000E+02  0.51100000000E-03 0.  1.
         11   -1    0    0    0    0 -0.00000000000E+00 -0.00000000000E+00 -0.45593999997E+02  0.45594000000E+02  0.51100000000E-03 0. -1.
    9900012    2    1    2    0    0  0.28895002986E+02 -0.14677341002E+01 -0.32350391240E+02  0.47787271270E+02  0.20000001027E+02 0.  0.
        -12    1    1    2    0    0 -0.28895002986E+02  0.14677341002E+01  0.32350391240E+02  0.43400728730E+02  0.00000000000E+00 0.  1.
         11    1    3    3    0    0  0.10695798462E+02  0.60496301843E+00 -0.48890436695E+01  0.11775773149E+02  0.51100000000E-03 0. -1.
        -11    1    3    3    0    0  0.57982209093E+01  0.23673310592E+01 -0.85208935587E+00  0.63205758114E+01  0.51100000000E-03 0.  1.
        -12    1    3    3    0    0  0.12400983614E+02 -0.44400281778E+01 -0.26609258215E+02  0.29690922309E+02  0.00000000000E+00 0.  1.
</event>
<event>
 7    1  0.1400974E-009  0.4778727E+02  0.7816164E-02  0.1312668E+00
        -11   -1    0    0    0    0  0.00000000000E+00  0.00000000000E+00  0.45593999997E+02  0.45594000000E+02  0.51100000000E-03 0.  1.
         11   -1    0    0    0    0 -0.00000000000E+00 -0.00000000000E+00 -0.45593999997E+02  0.45594000000E+02  0.51100000000E-03 0. -1.
    9900012    2    1    2    0    0 -0.40072311197E+02 -0.12303928656E+02 -0.11244846469E+02  0.47787270085E+02  0.19999995627E+02 0.  0.
        -12    1    1    2    0    0  0.40072311197E+02  0.12303928656E+02  0.11244846469E+02  0.43400729915E+02  0.00000000000E+00 0.  1.
         11    1    3    3    0    0 -0.89366189557E+01 -0.56248290219E+01  0.15115272279E+01  0.10667079015E+02  0.51100000000E-03 0. -1.
        -11    1    3    3    0    0 -0.13912535656E+02 -0.92632883914E+01 -0.24767358816E+01  0.16896786117E+02  0.51100000000E-03 0.  1.
         12    1    3    3    0    0 -0.17223156585E+02  0.25841887577E+01 -0.10279637815E+02  0.20223404953E+02  0.00000000000E+00 0. -1.
</event>
<event>
 7    1  0.1400974E-009  0.4778727E+02  0.7816164E-02  0.1312668E+00
        -11   -1    0    0    0    0  0.00000000000E+00  0.00000000000E+00  0.45593999997E+02  0.45594000000E+02  0.51100000000E-03 0.  1.
         11   -1    0    0    0    0 -0.00000000000E+00 -0.00000000000E+00 -0.45593999997E+02  0.45594000000E+02  0.51100000000E-03 0. -1.
    9900012    2    1    2    0    0  0.22347789216E+02 -0.30263187951E+02 -0.21641138612E+02  0.47787272953E+02  0.20000008702E+02 0.  0.
        -12    1    1    2    0    0 -0.22347789216E+02  0.30263187951E+02  0.21641138612E+02  0.43400727047E+02  0.00000000000E+00 0.  1.
         11    1    3    3    0    0  0.17444174907E+02 -0.16094137055E+02 -0.16285276360E+02  0.28784209423E+02  0.51100000000E-03 0. -1.
        -11    1    3    3    0    0  0.80023224592E+01 -0.87471724271E+01 -0.24084311272E+01  0.12097550618E+02  0.51100000000E-03 0.  1.
        -12    1    3    3    0    0 -0.30987081506E+01 -0.54218784691E+01 -0.29474311252E+01  0.69055129117E+01  0.00000000000E+00 0.  1.
</event>
<event>
 7    1  0.1400974E-009  0.4778727E+02  0.7816164E-02  0.1312668E+00
        -11   -1    0    0    0    0  0.00000000000E+00  0.00000000000E+00  0.45593999997E+02  0.45594000000E+02  0.51100000000E-03 0. -1.
         11   -1    0    0    0    0 -0.00000000000E+00 -0.00000000000E+00 -0.45593999997E+02  0.45594000000E+02  0.51100000000E-03 0.  1.
    9900012    2    1    2    0    0  0.21696323147E+02  0.33276500588E+02  0.17480489147E+02  0.47787269242E+02  0.19999991784E+02 0.  0.
        -12    1    1    2    0    0 -0.21696323147E+02 -0.33276500588E+02 -0.17480489147E+02  0.43400730758E+02  0.00000000000E+00 0.  1.
         11    1    3    3    0    0  0.11469260651E+02  0.16085269609E+02  0.18275265889E+02  0.26912175346E+02  0.51100000000E-03 0. -1.
        -11    1    3    3    0    0  0.50867230989E+01  0.10742934396E+02  0.22256328330E+01  0.12092924919E+02  0.51100000000E-03 0.  1.
        -12    1    3    3    0    0  0.51403393971E+01  0.64482965826E+01 -0.30204095758E+01  0.87821689770E+01  0.00000000000E+00 0.  1.
</event>
<event>
 7    1  0.1400974E-009  0.4778727E+02  0.7816164E-02  0.1312668E+00
        -11   -1    0    0    0    0  0.00000000000E+00  0.00000000000E+00  0.45593999997E+02  0.45594000000E+02  0.51100000000E-03 0.  1.
         11   -1    0    0    0    0 -0.00000000000E+00 -0.00000000000E+00 -0.45593999997E+02  0.45594000000E+02  0.51100000000E-03 0. -1.
    9900012    2    1    2    0    0 -0.39628412045E+02  0.17697710070E+02 -0.57583787483E-01  0.47787270757E+02  0.19999998689E+02 0.  0.
        -12    1    1    2    0    0  0.39628412045E+02 -0.17697710070E+02  0.57583787483E-01  0.43400729243E+02  0.00000000000E+00 0.  1.
         11    1    3    3    0    0 -0.12885277724E+02  0.12672906328E+02  0.13327173499E+01  0.18122060385E+02  0.51100000000E-03 0. -1.
        -11    1    3    3    0    0 -0.58626829315E+01 -0.14379955601E+01  0.38866740364E+01  0.71794928590E+01  0.51100000000E-03 0.  1.
         12    1    3    3    0    0 -0.20880451390E+02  0.64627993021E+01 -0.52769751738E+01  0.22485717512E+02  0.00000000000E+00 0. -1.
</event>
<event>
 7    1  0.1400974E-009  0.4778727E+02  0.7816164E-02  0.1312668E+00
        -11   -1    0    0    0    0  0.00000000000E+00  0.00000000000E+00  0.45593999997E+02  0.45594000000E+02  0.51100000000E-03 0.  1.
         11   -1    0    0    0    0 -0.00000000000E+00 -0.00000000000E+00 -0.45593999997E+02  0.45594000000E+02  0.51100000000E-03 0. -1.
    9900012    2    1    2    0    0  0.69907945699E+01  0.99753145690E+01 -0.41656270511E+02  0.47787274403E+02  0.20000015313E+02 0.  0.
        -12    1    1    2    0    0 -0.69907945699E+01 -0.99753145690E+01  0.41656270511E+02  0.43400725597E+02  0.00000000000E+00 0.  1.
         11    1    3    3    0    0 -0.10749017121E+01  0.11729429341E+01 -0.23620983175E+02  0.23674502217E+02  0.51100000000E-03 0. -1.
        -11    1    3    3    0    0 -0.22620688141E+01  0.16407716361E+01 -0.64099939157E+01  0.69926467908E+01  0.51100000000E-03 0.  1.
         12    1    3    3    0    0  0.10327765096E+02  0.71615999988E+01 -0.11625293420E+02  0.17120125395E+02  0.00000000000E+00 0. -1.
</event>
<event>
 7    1  0.1400974E-009  0.4778727E+02  0.7816164E-02  0.1312668E+00
        -11   -1    0    0    0    0  0.00000000000E+00  0.00000000000E+00  0.45593999997E+02  0.45594000000E+02  0.51100000000E-03 0.  1.
         11   -1    0    0    0    0 -0.00000000000E+00 -0.00000000000E+00 -0.45593999997E+02  0.45594000000E+02  0.51100000000E-03 0. -1.
    9900012    2    1    2    0    0 -0.15825492303E+02 -0.34998199810E+02 -0.20206509553E+02  0.47787271609E+02  0.20000002574E+02 0.  0.
        -12    1    1    2    0    0  0.15825492303E+02  0.34998199810E+02  0.20206509553E+02  0.43400728391E+02  0.00000000000E+00 0.  1.
         11    1    3    3    0    0  0.30881958451E+01 -0.30289945193E+01 -0.96848036316E+00  0.44328000012E+01  0.51100000000E-03 0. -1.
        -11    1    3    3    0    0 -0.10463304378E+02 -0.86500592115E+01 -0.36433496403E+01  0.14056253403E+02  0.51100000000E-03 0.  1.
         12    1    3    3    0    0 -0.84503837700E+01 -0.23319146079E+02 -0.15594679549E+02  0.29298218204E+02  0.00000000000E+00 0. -1.
</event>
<event>
 7    1  0.1400974E-009  0.4778727E+02  0.7816164E-02  0.1312668E+00
        -11   -1    0    0    0    0  0.00000000000E+00  0.00000000000E+00  0.45593999997E+02  0.45594000000E+02  0.51100000000E-03 0. -1.
         11   -1    0    0    0    0 -0.00000000000E+00 -0.00000000000E+00 -0.45593999997E+02  0.45594000000E+02  0.51100000000E-03 0.  1.
    9900012    2    1    2    0    0  0.34325152908E+02  0.23699597218E+02  0.11989007449E+02  0.47787270397E+02  0.19999997048E+02 0.  0.
        -12    1    1    2    0    0 -0.34325152908E+02 -0.23699597218E+02 -0.11989007449E+02  0.43400729603E+02  0.00000000000E+00 0.  1.
         11    1    3    3    0    0  0.63002948877E+01  0.18919860477E+01  0.64670219115E+01  0.92247330337E+01  0.51100000000E-03 0. -1.
        -11    1    3    3    0    0  0.22658584469E+02  0.18820068248E+02 -0.11711914220E+01  0.29478434637E+02  0.51100000000E-03 0.  1.
        -12    1    3    3    0    0  0.53662735510E+01  0.29875429219E+01  0.66931769595E+01  0.90841027265E+01  0.00000000000E+00 0.  1.
</event>
<event>
 7    1  0.1400974E-009  0.4778727E+02  0.7816164E-02  0.1312668E+00
        -11   -1    0    0    0    0  0.00000000000E+00  0.00000000000E+00  0.45593999997E+02  0.45594000000E+02  0.51100000000E-03 0.  1.
         11   -1    0    0    0    0 -0.00000000000E+00 -0.00000000000E+00 -0.45593999997E+02  0.45594000000E+02  0.51100000000E-03 0. -1.
    9900012    2    1    2    0    0 -0.24443646555E+02 -0.22380844022E+02 -0.28021944530E+02  0.47787269461E+02  0.19999992781E+02 0.  0.
        -12    1    1    2    0    0  0.24443646555E+02  0.22380844022E+02  0.28021944530E+02  0.43400730539E+02  0.00000000000E+00 0.  1.
         11    1    3    3    0    0 -0.53588572736E+01  0.11409871235E+00 -0.27011826326E+01  0.60022293918E+01  0.51100000000E-03 0. -1.
        -11    1    3    3    0    0 -0.13417554256E+02 -0.16607675054E+02 -0.25932087545E+02  0.33590456943E+02  0.51100000000E-03 0.  1.
        -12    1    3    3    0    0 -0.56672350262E+01 -0.58872676797E+01  0.61132564705E+00  0.81945831268E+01  0.00000000000E+00 0.  1.
</event>
<event>
 7    1  0.1400974E-009  0.4778727E+02  0.7816164E-02  0.1312668E+00
        -11   -1    0    0    0    0  0.00000000000E+00  0.00000000000E+00  0.45593999997E+02  0.45594000000E+02  0.51100000000E-03 0.  1.
         11   -1    0    0    0    0 -0.00000000000E+00 -0.00000000000E+00 -0.45593999997E+02  0.45594000000E+02  0.51100000000E-03 0. -1.
    9900012    2    1    2    0    0 -0.27649830078E+02 -0.18946070182E+02 -0.27570933418E+02  0.47787273644E+02  0.20000011852E+02 0.  0.
        -12    1    1    2    0    0  0.27649830078E+02  0.18946070182E+02  0.27570933418E+02  0.43400726356E+02  0.00000000000E+00 0.  1.
         11    1    3    3    0    0 -0.86046007370E+01 -0.14054465762E+02 -0.14401980566E+02  0.21885707806E+02  0.51100000000E-03 0. -1.
        -11    1    3    3    0    0 -0.95356749932E+01 -0.33146380660E+01 -0.67031089445E+00  0.10117570857E+02  0.51100000000E-03 0.  1.
         12    1    3    3    0    0 -0.95095543479E+01 -0.15769663543E+01 -0.12498641957E+02  0.15783994981E+02  0.00000000000E+00 0. -1.
</event>
<event>
 7    1  0.1400974E-009  0.4778727E+02  0.7816164E-02  0.1312668E+00
        -11   -1    0    0    0    0  0.00000000000E+00  0.00000000000E+00  0.45593999997E+02  0.45594000000E+02  0.51100000000E-03 0.  1.
         11   -1    0    0    0    0 -0.00000000000E+00 -0.00000000000E+00 -0.45593999997E+02  0.45594000000E+02  0.51100000000E-03 0. -1.
    9900012    2    1    2    0    0  0.73860666424E+01  0.10381534952E+02 -0.41488471868E+02  0.47787267906E+02  0.19999985690E+02 0.  0.
        -12    1    1    2    0    0 -0.73860666424E+01 -0.10381534952E+02  0.41488471868E+02  0.43400732094E+02  0.00000000000E+00 0.  1.
         11    1    3    3    0    0 -0.10629568275E+01 -0.33791961562E+01 -0.29794938850E+01  0.46288473675E+01  0.51100000000E-03 0.  1.
        -11    1    3    3    0    0 -0.10513547270E+01  0.73010633729E+01 -0.20604644427E+02  0.21885206084E+02  0.51100000000E-03 0. -1.
        -12    1    3    3    0    0  0.95003781969E+01  0.64596677353E+01 -0.17904333556E+02  0.21273214454E+02  0.00000000000E+00 0.  1.
</event>
<event>
 7    1  0.1400974E-009  0.4778727E+02  0.7816164E-02  0.1312668E+00
        -11   -1    0    0    0    0  0.00000000000E+00  0.00000000000E+00  0.45593999997E+02  0.45594000000E+02  0.51100000000E-03 0.  1.
         11   -1    0    0    0    0 -0.00000000000E+00 -0.00000000000E+00 -0.45593999997E+02  0.45594000000E+02  0.51100000000E-03 0. -1.
    9900012    2    1    2    0    0  0.37307894467E+02  0.16536407519E+02 -0.14774688748E+02  0.47787272001E+02  0.20000004362E+02 0.  0.
        -12    1    1    2    0    0 -0.37307894467E+02 -0.16536407519E+02  0.14774688748E+02  0.43400727999E+02  0.00000000000E+00 0.  1.
         11    1    3    3    0    0  0.62368834260E+01 -0.26718839532E-01 -0.65653722443E+01  0.90555806955E+01  0.51100000000E-03 0. -1.
        -11    1    3    3    0    0  0.10398273171E+02  0.13353939832E+02 -0.33156101367E+01  0.17246595746E+02  0.51100000000E-03 0.  1.
         12    1    3    3    0    0  0.20672737870E+02  0.32091865267E+01 -0.48937063668E+01  0.21485095560E+02  0.00000000000E+00 0. -1.
</event>
<event>
 7    1  0.1400974E-009  0.4778731E+02  0.7816164E-02  0.1312668E+00
        -11   -1    0    0    0    0  0.00000000000E+00  0.00000000000E+00  0.45593999997E+02  0.45594000000E+02  0.51100000000E-03 0.  1.
         11   -1    0    0    0    0 -0.00000000000E+00 -0.00000000000E+00 -0.45593999997E+02  0.45594000000E+02  0.51100000000E-03 0. -1.
    9900012    2    1    2    0    0  0.13179185410E+02  0.15604159865E+00 -0.41350997725E+02  0.47787305422E+02  0.20000156740E+02 0.  0.
        -12    1    1    2    0    0 -0.13179185410E+02 -0.15604159865E+00  0.41350997725E+02  0.43400694578E+02  0.00000000000E+00 0.  1.
         11    1    3    3    0    0  0.77307804247E+01 -0.42611976701E+01 -0.32355045415E+02  0.33537616726E+02  0.51100000000E-03 0. -1.
        -11    1    3    3    0    0 -0.15412531242E+01 -0.75552079390E+00  0.29696520215E-01  0.17167279945E+01  0.51100000000E-03 0.  1.
        -12    1    3    3    0    0  0.69896581096E+01  0.51727600626E+01 -0.90256488297E+01  0.12532960702E+02  0.00000000000E+00 0.  1.
</event>
<event>
 7    1  0.1488250E-009  0.4778726E+02  0.7816164E-02  0.1312668E+00
        -11   -1    0    0    0    0  0.00000000000E+00  0.00000000000E+00  0.45593999997E+02  0.45594000000E+02  0.51100000000E-03 0. -1.
         11   -1    0    0    0    0 -0.00000000000E+00 -0.00000000000E+00 -0.45593999997E+02  0.45594000000E+02  0.51100000000E-03 0.  1.
    9900012    2    1    2    0    0 -0.14732629827E+02  0.34323752317E+02  0.22100990710E+02  0.47787261007E+02  0.19999954236E+02 0.  0.
        -12    1    1    2    0    0  0.14732629827E+02 -0.34323752317E+02 -0.22100990710E+02  0.43400738993E+02  0.00000000000E+00 0.  1.
         11    1    3    3    0    0 -0.80419944635E+01  0.26460677251E+02  0.10644541662E+02  0.29633551643E+02  0.51100000000E-03 0. -1.
        -11    1    3    3    0    0  0.19584013109E+01  0.19395917737E+00  0.13345082187E+00  0.19725022788E+01  0.51100000000E-03 0.  1.
        -12    1    3    3    0    0 -0.86490366745E+01  0.76691158893E+01  0.11322998226E+02  0.16181207085E+02  0.00000000000E+00 0.  1.
</event>
<event>
 7    1  0.1400974E-009  0.4778727E+02  0.7816164E-02  0.1312668E+00
        -11   -1    0    0    0    0  0.00000000000E+00  0.00000000000E+00  0.45593999997E+02  0.45594000000E+02  0.51100000000E-03 0.  1.
         11   -1    0    0    0    0 -0.00000000000E+00 -0.00000000000E+00 -0.45593999997E+02  0.45594000000E+02  0.51100000000E-03 0. -1.
    9900012    2    1    2    0    0 -0.19771182138E+02  0.65064202028E+01 -0.38083988842E+02  0.47787270131E+02  0.19999995835E+02 0.  0.
        -12    1    1    2    0    0  0.19771182138E+02 -0.65064202028E+01  0.38083988842E+02  0.43400729869E+02  0.00000000000E+00 0.  1.
         11    1    3    3    0    0 -0.36025662108E+01  0.62268463934E+01 -0.62609358821E+01  0.95368452693E+01  0.51100000000E-03 0. -1.
        -11    1    3    3    0    0 -0.17851828778E+02 -0.19193658008E+01 -0.29908028421E+02  0.34883547986E+02  0.51100000000E-03 0.  1.
         12    1    3    3    0    0  0.16832128505E+01  0.21989396102E+01 -0.19150245391E+01  0.33668768754E+01  0.00000000000E+00 0. -1.
</event>
<event>
 7    1  0.1400974E-009  0.4778727E+02  0.7816164E-02  0.1312668E+00
        -11   -1    0    0    0    0  0.00000000000E+00  0.00000000000E+00  0.45593999997E+02  0.45594000000E+02  0.51100000000E-03 0.  1.
         11   -1    0    0    0    0 -0.00000000000E+00 -0.00000000000E+00 -0.45593999997E+02  0.45594000000E+02  0.51100000000E-03 0. -1.
    9900012    2    1    2    0    0  0.56560914747E+01  0.21029847141E+02 -0.37541676246E+02  0.47787270779E+02  0.19999998789E+02 0.  0.
        -12    1    1    2    0    0 -0.56560914747E+01 -0.21029847141E+02  0.37541676246E+02  0.43400729221E+02  0.00000000000E+00 0.  1.
         11    1    3    3    0    0  0.23581311305E+00  0.30889321075E+01  0.17739199054E+00  0.31029949353E+01  0.51100000000E-03 0.  1.
        -11    1    3    3    0    0  0.82839748082E+01  0.39242152206E+01 -0.10527954211E+02  0.13959280922E+02  0.51100000000E-03 0. -1.
         12    1    3    3    0    0 -0.28636964466E+01  0.14016699813E+02 -0.27191114026E+02  0.30724994922E+02  0.00000000000E+00 0. -1.
</event>
<event>
 7    1  0.1400974E-009  0.4778728E+02  0.7816164E-02  0.1312668E+00
        -11   -1    0    0    0    0  0.00000000000E+00  0.00000000000E+00  0.45593999997E+02  0.45594000000E+02  0.51100000000E-03 0. -1.
         11   -1    0    0    0    0 -0.00000000000E+00 -0.00000000000E+00 -0.45593999997E+02  0.45594000000E+02  0.51100000000E-03 0.  1.
    9900012    2    1    2    0    0  0.15876530199E+02 -0.25769912510E+02  0.31104180615E+02  0.47787278189E+02  0.20000032577E+02 0.  0.
        -12    1    1    2    0    0 -0.15876530199E+02  0.25769912510E+02 -0.31104180615E+02  0.43400721811E+02  0.00000000000E+00 0.  1.
         11    1    3    3    0    0  0.67273531098E+01 -0.16442812336E+02  0.94279976720E+01  0.20112446339E+02  0.51100000000E-03 0.  1.
        -11    1    3    3    0    0  0.83097771609E+01 -0.54028379102E+01  0.62099172200E+01  0.11696415096E+02  0.51100000000E-03 0. -1.
         12    1    3    3    0    0  0.83939992819E+00 -0.39242622635E+01  0.15466265723E+02  0.15978416754E+02  0.00000000000E+00 0. -1.
</event>
<event>
 7    1  0.1400974E-009  0.4778727E+02  0.7816164E-02  0.1312668E+00
        -11   -1    0    0    0    0  0.00000000000E+00  0.00000000000E+00  0.45593999997E+02  0.45594000000E+02  0.51100000000E-03 0. -1.
         11   -1    0    0    0    0 -0.00000000000E+00 -0.00000000000E+00 -0.45593999997E+02  0.45594000000E+02  0.51100000000E-03 0.  1.
    9900012    2    1    2    0    0  0.17767571769E+02  0.36908767387E+02 -0.14341524529E+02  0.47787273711E+02  0.20000012158E+02 0.  0.
        -12    1    1    2    0    0 -0.17767571769E+02 -0.36908767387E+02  0.14341524529E+02  0.43400726289E+02  0.00000000000E+00 0.  1.
         11    1    3    3    0    0  0.30585015630E+01  0.12047924613E+02 -0.63474482483E+01  0.13956970259E+02  0.51100000000E-03 0. -1.
        -11    1    3    3    0    0  0.16525854293E+02  0.16482535687E+02 -0.21171189164E+01  0.23436297394E+02  0.51100000000E-03 0.  1.
        -12    1    3    3    0    0 -0.18167840866E+01  0.83783070868E+01 -0.58769573642E+01  0.10394006057E+02  0.00000000000E+00 0.  1.
</event>
<event>
 7    1  0.1400974E-009  0.4778727E+02  0.7816164E-02  0.1312668E+00
        -11   -1    0    0    0    0  0.00000000000E+00  0.00000000000E+00  0.45593999997E+02  0.45594000000E+02  0.51100000000E-03 0.  1.
         11   -1    0    0    0    0 -0.00000000000E+00 -0.00000000000E+00 -0.45593999997E+02  0.45594000000E+02  0.51100000000E-03 0. -1.
    9900012    2    1    2    0    0  0.26874515216E+02  0.31230654083E+02  0.13639277628E+02  0.47787271702E+02  0.20000002999E+02 0.  0.
        -12    1    1    2    0    0 -0.26874515216E+02 -0.31230654083E+02 -0.13639277628E+02  0.43400728298E+02  0.00000000000E+00 0.  1.
         11    1    3    3    0    0  0.70272023620E+01  0.18265129019E+02 -0.13280287131E+01  0.19615304526E+02  0.51100000000E-03 0. -1.
        -11    1    3    3    0    0  0.20414044877E+01  0.24349672931E+01  0.21422249127E+01  0.38321698603E+01  0.51100000000E-03 0.  1.
         12    1    3    3    0    0  0.17805908367E+02  0.10530557771E+02  0.12825081428E+02  0.24339797316E+02  0.00000000000E+00 0. -1.
</event>
<event>
 7    1  0.1400974E-009  0.4778727E+02  0.7816164E-02  0.1312668E+00
        -11   -1    0    0    0    0  0.00000000000E+00  0.00000000000E+00  0.45593999997E+02  0.45594000000E+02  0.51100000000E-03 0.  1.
         11   -1    0    0    0    0 -0.00000000000E+00 -0.00000000000E+00 -0.45593999997E+02  0.45594000000E+02  0.51100000000E-03 0. -1.
    9900012    2    1    2    0    0  0.61746758631E+01 -0.41754984490E+02 -0.10100398190E+02  0.47787269645E+02  0.19999993620E+02 0.  0.
        -12    1    1    2    0    0 -0.61746758631E+01  0.41754984490E+02  0.10100398190E+02  0.43400730355E+02  0.00000000000E+00 0.  1.
         11    1    3    3    0    0 -0.37206582584E+01 -0.23645567319E+02 -0.78883393956E+01  0.25202818303E+02  0.51100000000E-03 0. -1.
        -11    1    3    3    0    0  0.67079534396E+01 -0.17874883889E+02 -0.85198715106E+00  0.19111096142E+02  0.51100000000E-03 0.  1.
        -12    1    3    3    0    0  0.31873806818E+01 -0.23453328147E+00 -0.13600716430E+01  0.34733551999E+01  0.00000000000E+00 0.  1.
</event>
<event>
 7    1  0.1400974E-009  0.4778728E+02  0.7816164E-02  0.1312668E+00
        -11   -1    0    0    0    0  0.00000000000E+00  0.00000000000E+00  0.45593999997E+02  0.45594000000E+02  0.51100000000E-03 0.  1.
         11   -1    0    0    0    0 -0.00000000000E+00 -0.00000000000E+00 -0.45593999997E+02  0.45594000000E+02  0.51100000000E-03 0. -1.
    9900012    2    1    2    0    0 -0.24794347855E+02 -0.13568356203E+02 -0.32935739544E+02  0.47787275180E+02  0.20000018855E+02 0.  0.
        -12    1    1    2    0    0  0.24794347855E+02  0.13568356203E+02  0.32935739544E+02  0.43400724820E+02  0.00000000000E+00 0.  1.
         11    1    3    3    0    0 -0.16875111512E+02 -0.84561008968E+01 -0.27844450501E+02  0.33639091172E+02  0.51100000000E-03 0. -1.
        -11    1    3    3    0    0 -0.98866401306E+01 -0.33207568409E+01 -0.32941915045E+01  0.10937311233E+02  0.51100000000E-03 0.  1.
        -12    1    3    3    0    0  0.19674037878E+01 -0.17914984652E+01 -0.17970975384E+01  0.32108727750E+01  0.00000000000E+00 0.  1.
</event>
<event>
 7    1  0.1400974E-009  0.4778727E+02  0.7816164E-02  0.1312668E+00
        -11   -1    0    0    0    0  0.00000000000E+00  0.00000000000E+00  0.45593999997E+02  0.45594000000E+02  0.51100000000E-03 0.  1.
         11   -1    0    0    0    0 -0.00000000000E+00 -0.00000000000E+00 -0.45593999997E+02  0.45594000000E+02  0.51100000000E-03 0. -1.
    9900012    2    1    2    0    0  0.10804163170E+01  0.18259893404E+02 -0.39357746624E+02  0.47787271597E+02  0.20000002522E+02 0.  0.
        -12    1    1    2    0    0 -0.10804163170E+01 -0.18259893404E+02  0.39357746624E+02  0.43400728403E+02  0.00000000000E+00 0.  1.
         11    1    3    3    0    0 -0.40028085495E+01  0.59718039045E+01 -0.10417727194E+02  0.12657565260E+02  0.51100000000E-03 0. -1.
        -11    1    3    3    0    0  0.69148397787E+01  0.12008518136E+02 -0.12738432248E+02  0.18822517721E+02  0.51100000000E-03 0.  1.
        -12    1    3    3    0    0 -0.18316149121E+01  0.27957136364E+00 -0.16201587183E+02  0.16307188616E+02  0.00000000000E+00 0.  1.
</event>
<event>
 7    1  0.1400974E-009  0.4778723E+02  0.7816164E-02  0.1312668E+00
        -11   -1    0    0    0    0  0.00000000000E+00  0.00000000000E+00  0.45593999997E+02  0.45594000000E+02  0.51100000000E-03 0. -1.
         11   -1    0    0    0    0 -0.00000000000E+00 -0.00000000000E+00 -0.45593999997E+02  0.45594000000E+02  0.51100000000E-03 0.  1.
    9900012    2    1    2    0    0  0.28372541813E+02  0.13875706776E+01  0.32813109378E+02  0.47787232399E+02  0.19999823798E+02 0.  0.
        -12    1    1    2    0    0 -0.28372541813E+02 -0.13875706776E+01 -0.32813109378E+02  0.43400767601E+02  0.00000000000E+00 0.  1.
         11    1    3    3    0    0  0.30526598417E+01 -0.33632058208E+01  0.16514415358E+01  0.48329230192E+01  0.51100000000E-03 0.  1.
        -11    1    3    3    0    0  0.19481924849E+02  0.94185299653E+01  0.26209245439E+02  0.33987919166E+02  0.51100000000E-03 0. -1.
         12    1    3    3    0    0  0.58379571227E+01 -0.46677534670E+01  0.49524224033E+01  0.89663902132E+01  0.00000000000E+00 0. -1.
</event>
<event>
 7    1  0.1400974E-009  0.4778727E+02  0.7816164E-02  0.1312668E+00
        -11   -1    0    0    0    0  0.00000000000E+00  0.00000000000E+00  0.45593999997E+02  0.45594000000E+02  0.51100000000E-03 0. -1.
         11   -1    0    0    0    0 -0.00000000000E+00 -0.00000000000E+00 -0.45593999997E+02  0.45594000000E+02  0.51100000000E-03 0.  1.
    9900012    2    1    2    0    0  0.42245144400E+02 -0.77680443524E+01 -0.62151627769E+01  0.47787274352E+02  0.20000015081E+02 0.  0.
        -12    1    1    2    0    0 -0.42245144400E+02  0.77680443524E+01  0.62151627769E+01  0.43400725648E+02  0.00000000000E+00 0.  1.
         11    1    3    3    0    0  0.19335736359E+02  0.11917224537E-01 -0.49014752656E+01  0.19947313167E+02  0.51100000000E-03 0. -1.
        -11    1    3    3    0    0  0.97508557530E+01 -0.10284361210E+02 -0.25072354634E+01  0.14392133384E+02  0.51100000000E-03 0.  1.
        -12    1    3    3    0    0  0.13158552288E+02  0.25043996331E+01  0.11935479521E+01  0.13447827801E+02  0.00000000000E+00 0.  1.
</event>
<event>
 7    1  0.1400974E-009  0.4778727E+02  0.7816164E-02  0.1312668E+00
        -11   -1    0    0    0    0  0.00000000000E+00  0.00000000000E+00  0.45593999997E+02  0.45594000000E+02  0.51100000000E-03 0. -1.
         11   -1    0    0    0    0 -0.00000000000E+00 -0.00000000000E+00 -0.45593999997E+02  0.45594000000E+02  0.51100000000E-03 0.  1.
    9900012    2    1    2    0    0 -0.36927960156E+02  0.22787377730E+02  0.82730046930E+00  0.47787271306E+02  0.20000001194E+02 0.  0.
        -12    1    1    2    0    0  0.36927960156E+02 -0.22787377730E+02 -0.82730046930E+00  0.43400728694E+02  0.00000000000E+00 0.  1.
         11    1    3    3    0    0 -0.19562769101E+02  0.87067099311E+01 -0.22390628479E+01  0.21529564218E+02  0.51100000000E-03 0. -1.
        -11    1    3    3    0    0 -0.10045673599E+01 -0.21648584261E+01 -0.14086131804E+01  0.27712738837E+01  0.51100000000E-03 0.  1.
        -12    1    3    3    0    0 -0.16360623695E+02  0.16245526225E+02  0.44749764976E+01  0.23486433205E+02  0.00000000000E+00 0.  1.
</event>
<event>
 7    1  0.1400974E-009  0.4778727E+02  0.7816164E-02  0.1312668E+00
        -11   -1    0    0    0    0  0.00000000000E+00  0.00000000000E+00  0.45593999997E+02  0.45594000000E+02  0.51100000000E-03 0.  1.
         11   -1    0    0    0    0 -0.00000000000E+00 -0.00000000000E+00 -0.45593999997E+02  0.45594000000E+02  0.51100000000E-03 0. -1.
    9900012    2    1    2    0    0  0.24859028565E+02 -0.26838969776E+01 -0.35474618880E+02  0.47787272024E+02  0.20000004465E+02 0.  0.
        -12    1    1    2    0    0 -0.24859028565E+02  0.26838969776E+01  0.35474618880E+02  0.43400727976E+02  0.00000000000E+00 0.  1.
         11    1    3    3    0    0  0.15267077076E+02  0.35301380185E+01 -0.21999959957E+02  0.27010067665E+02  0.51100000000E-03 0. -1.
        -11    1    3    3    0    0  0.11001905680E+02 -0.21363716569E+01 -0.11411884303E+02  0.15994909067E+02  0.51100000000E-03 0.  1.
        -12    1    3    3    0    0 -0.14099541915E+01 -0.40776633391E+01 -0.20627746204E+01  0.47822952924E+01  0.00000000000E+00 0.  1.
</event>
<event>
 7    1  0.1400974E-009  0.4778727E+02  0.7816164E-02  0.1312668E+00
        -11   -1    0    0    0    0  0.00000000000E+00  0.00000000000E+00  0.45593999997E+02  0.45594000000E+02  0.51100000000E-03 0. -1.
         11   -1    0    0    0    0 -0.00000000000E+00 -0.00000000000E+00 -0.45593999997E+02  0.45594000000E+02  0.51100000000E-03 0.  1.
    9900012    2    1    2    0    0 -0.20559833159E+02  0.88911498602E+01  0.37173428907E+02  0.47787273024E+02  0.20000009025E+02 0.  0.
        -12    1    1    2    0    0  0.20559833159E+02 -0.88911498602E+01 -0.37173428907E+02  0.43400726976E+02  0.00000000000E+00 0.  1.
         11    1    3    3    0    0 -0.15445703313E+02  0.73359724965E+00  0.12584612671E+02  0.19936910295E+02  0.51100000000E-03 0. -1.
        -11    1    3    3    0    0 -0.52737408381E+01  0.94775792909E+01  0.17137126038E+02  0.20280974847E+02  0.51100000000E-03 0.  1.
        -12    1    3    3    0    0  0.15961099243E+00 -0.13200266803E+01  0.74516901979E+01  0.75693878822E+01  0.00000000000E+00 0.  1.
</event>
<event>
 7    1  0.1400974E-009  0.4778727E+02  0.7816164E-02  0.1312668E+00
        -11   -1    0    0    0    0  0.00000000000E+00  0.00000000000E+00  0.45593999997E+02  0.45594000000E+02  0.51100000000E-03 0.  1.
         11   -1    0    0    0    0 -0.00000000000E+00 -0.00000000000E+00 -0.45593999997E+02  0.45594000000E+02  0.51100000000E-03 0. -1.
    9900012    2    1    2    0    0 -0.40642579147E+01 -0.42525287555E+02 -0.76619209114E+01  0.47787270673E+02  0.19999998306E+02 0.  0.
        -12    1    1    2    0    0  0.40642579147E+01  0.42525287555E+02  0.76619209114E+01  0.43400729327E+02  0.00000000000E+00 0.  1.
         11    1    3    3    0    0  0.96583203310E+00 -0.40177564600E+01 -0.47758367602E+01  0.63153634503E+01  0.51100000000E-03 0. -1.
        -11    1    3    3    0    0  0.14975782387E+00 -0.88931164933E+01  0.52476640978E+01  0.10327048325E+02  0.51100000000E-03 0.  1.
         12    1    3    3    0    0 -0.51798477717E+01 -0.29614414602E+02 -0.81337482490E+01  0.31144858897E+02  0.00000000000E+00 0. -1.
</event>
<event>
 7    1  0.1400974E-009  0.4778727E+02  0.7816164E-02  0.1312668E+00
        -11   -1    0    0    0    0  0.00000000000E+00  0.00000000000E+00  0.45593999997E+02  0.45594000000E+02  0.51100000000E-03 0.  1.
         11   -1    0    0    0    0 -0.00000000000E+00 -0.00000000000E+00 -0.45593999997E+02  0.45594000000E+02  0.51100000000E-03 0. -1.
    9900012    2    1    2    0    0  0.26024163722E+02  0.56100725295E+01 -0.34276718383E+02  0.47787269196E+02  0.19999991572E+02 0.  0.
        -12    1    1    2    0    0 -0.26024163722E+02 -0.56100725295E+01  0.34276718383E+02  0.43400730804E+02  0.00000000000E+00 0.  1.
         11    1    3    3    0    0  0.27745360999E+01  0.56281149240E+01 -0.55367823403E+01  0.83683742216E+01  0.51100000000E-03 0.  1.
        -11    1    3    3    0    0 -0.18173211310E+01 -0.27074633642E+00 -0.27687029899E+01  0.33229017709E+01  0.51100000000E-03 0. -1.
         12    1    3    3    0    0  0.25066948753E+02  0.25270394191E+00 -0.25971233053E+02  0.36095993204E+02  0.00000000000E+00 0. -1.
</event>
<event>
 7    1  0.1400974E-009  0.4778728E+02  0.7816164E-02  0.1312668E+00
        -11   -1    0    0    0    0  0.00000000000E+00  0.00000000000E+00  0.45593999997E+02  0.45594000000E+02  0.51100000000E-03 0.  1.
         11   -1    0    0    0    0 -0.00000000000E+00 -0.00000000000E+00 -0.45593999997E+02  0.45594000000E+02  0.51100000000E-03 0. -1.
    9900012    2    1    2    0    0 -0.40388246029E+02 -0.78120723491E+00 -0.15868275837E+02  0.47787275582E+02  0.20000020686E+02 0.  0.
        -12    1    1    2    0    0  0.40388246029E+02  0.78120723491E+00  0.15868275837E+02  0.43400724418E+02  0.00000000000E+00 0.  1.
         11    1    3    3    0    0 -0.19503883809E+02 -0.73194572728E+01 -0.14190872411E+02  0.25206284900E+02  0.51100000000E-03 0. -1.
        -11    1    3    3    0    0 -0.40675253999E+01  0.11888754643E+01  0.17834157505E+01  0.45976906974E+01  0.51100000000E-03 0.  1.
        -12    1    3    3    0    0 -0.16816836819E+02  0.53493745736E+01 -0.34608191758E+01  0.17983299984E+02  0.00000000000E+00 0.  1.
</event>
<event>
 7    1  0.1400974E-009  0.4778727E+02  0.7816164E-02  0.1312668E+00
        -11   -1    0    0    0    0  0.00000000000E+00  0.00000000000E+00  0.45593999997E+02  0.45594000000E+02  0.51100000000E-03 0.  1.
         11   -1    0    0    0    0 -0.00000000000E+00 -0.00000000000E+00 -0.45593999997E+02  0.45594000000E+02  0.51100000000E-03 0. -1.
    9900012    2    1    2    0    0  0.37212121923E+02  0.15169891255E+02 -0.16393768718E+02  0.47787271072E+02  0.20000000126E+02 0.  0.
        -12    1    1    2    0    0 -0.37212121923E+02 -0.15169891255E+02  0.16393768718E+02  0.43400728928E+02  0.00000000000E+00 0.  1.
         11    1    3    3    0    0  0.14958959264E+02  0.52274931086E+01 -0.10309204962E+02  0.18904413603E+02  0.51100000000E-03 0. -1.
        -11    1    3    3    0    0  0.22305228013E+02  0.11979768940E+02 -0.74944992554E+01  0.26404650725E+02  0.51100000000E-03 0.  1.
        -12    1    3    3    0    0 -0.52065354303E-01 -0.20373707935E+01  0.14099354997E+01  0.24782067437E+01  0.00000000000E+00 0.  1.
</event>
<event>
 7    1  0.1400974E-009  0.4778726E+02  0.7816164E-02  0.1312668E+00
        -11   -1    0    0    0    0  0.00000000000E+00  0.00000000000E+00  0.45593999997E+02  0.45594000000E+02  0.51100000000E-03 0. -1.
         11   -1    0    0    0    0 -0.00000000000E+00 -0.00000000000E+00 -0.45593999997E+02  0.45594000000E+02  0.51100000000E-03 0.  1.
    9900012    2    1    2    0    0 -0.29896634265E+02 -0.13305899743E+02  0.28509101486E+02  0.47787256044E+02  0.19999931608E+02 0.  0.
        -12    1    1    2    0    0  0.29896634265E+02  0.13305899743E+02 -0.28509101486E+02  0.43400743956E+02  0.00000000000E+00 0.  1.
         11    1    3    3    0    0 -0.21719754281E+01 -0.55795324897E+00 -0.28482479639E+01  0.36250939040E+01  0.51100000000E-03 0. -1.
        -11    1    3    3    0    0 -0.12574619413E+02 -0.67817562938E+01  0.10647920945E+02  0.17818290954E+02  0.51100000000E-03 0.  1.
         12    1    3    3    0    0 -0.15150039424E+02 -0.59661902007E+01  0.20709428505E+02  0.26343871186E+02  0.00000000000E+00 0. -1.
</event>
<event>
 7    1  0.1400974E-009  0.4778727E+02  0.7816164E-02  0.1312668E+00
        -11   -1    0    0    0    0  0.00000000000E+00  0.00000000000E+00  0.45593999997E+02  0.45594000000E+02  0.51100000000E-03 0.  1.
         11   -1    0    0    0    0 -0.00000000000E+00 -0.00000000000E+00 -0.45593999997E+02  0.45594000000E+02  0.51100000000E-03 0. -1.
    9900012    2    1    2    0    0 -0.28391073371E+02 -0.16425109316E+02 -0.28421580268E+02  0.47787268577E+02  0.19999988748E+02 0.  0.
        -12    1    1    2    0    0  0.28391073371E+02  0.16425109316E+02  0.28421580268E+02  0.43400731423E+02  0.00000000000E+00 0.  1.
         11    1    3    3    0    0 -0.55215216692E+01 -0.79593275783E+01 -0.14595379586E+01  0.97963436218E+01  0.51100000000E-03 0. -1.
        -11    1    3    3    0    0 -0.58608110718E+01 -0.64915063034E+01 -0.14032210685E+02  0.16534560698E+02  0.51100000000E-03 0.  1.
        -12    1    3    3    0    0 -0.17008740630E+02 -0.19742754340E+01 -0.12929831624E+02  0.21456364257E+02  0.00000000000E+00 0.  1.
</event>
<event>
 7    1  0.1400974E-009  0.4778726E+02  0.7816164E-02  0.1312668E+00
        -11   -1    0    0    0    0  0.00000000000E+00  0.00000000000E+00  0.45593999997E+02  0.45594000000E+02  0.51100000000E-03 0.  1.
         11   -1    0    0    0    0 -0.00000000000E+00 -0.00000000000E+00 -0.45593999997E+02  0.45594000000E+02  0.51100000000E-03 0. -1.
    9900012    2    1    2    0    0 -0.28583141840E+02 -0.26100301538E+02 -0.19631662817E+02  0.47787263568E+02  0.19999965914E+02 0.  0.
        -12    1    1    2    0    0  0.28583141840E+02  0.26100301538E+02  0.19631662817E+02  0.43400736432E+02  0.00000000000E+00 0.  1.
         11    1    3    3    0    0 -0.14824172895E+02 -0.15693980493E+02 -0.15339543307E+02  0.26483177960E+02  0.51100000000E-03 0. -1.
        -11    1    3    3    0    0  0.14019206930E+01  0.24974935304E+00 -0.22472493549E+01  0.26604297196E+01  0.51100000000E-03 0.  1.
        -12    1    3    3    0    0 -0.15160889637E+02 -0.10656070398E+02 -0.20448701556E+01  0.18643655888E+02  0.00000000000E+00 0.  1.
</event>
<event>
 7    1  0.1400974E-009  0.4778727E+02  0.7816164E-02  0.1312668E+00
        -11   -1    0    0    0    0  0.00000000000E+00  0.00000000000E+00  0.45593999997E+02  0.45594000000E+02  0.51100000000E-03 0.  1.
         11   -1    0    0    0    0 -0.00000000000E+00 -0.00000000000E+00 -0.45593999997E+02  0.45594000000E+02  0.51100000000E-03 0. -1.
    9900012    2    1    2    0    0  0.12040243395E+02 -0.47994379369E+01 -0.41420057418E+02  0.47787271642E+02  0.20000002722E+02 0.  0.
        -12    1    1    2    0    0 -0.12040243395E+02  0.47994379369E+01  0.41420057418E+02  0.43400728358E+02  0.00000000000E+00 0.  1.
         11    1    3    3    0    0 -0.22867264741E+01  0.12329856638E+01 -0.40114485466E+01  0.47792354323E+01  0.51100000000E-03 0. -1.
        -11    1    3    3    0    0  0.13882364739E+02 -0.75494922561E+01 -0.19819959481E+02  0.25348484731E+02  0.51100000000E-03 0.  1.
        -12    1    3    3    0    0  0.44460512993E+00  0.15170686554E+01 -0.17588649391E+02  0.17659551478E+02  0.00000000000E+00 0.  1.
</event>
<event>
 7    1  0.1400974E-009  0.4778733E+02  0.7816164E-02  0.1312667E+00
        -11   -1    0    0    0    0  0.00000000000E+00  0.00000000000E+00  0.45593999997E+02  0.45594000000E+02  0.51100000000E-03 0. -1.
         11   -1    0    0    0    0 -0.00000000000E+00 -0.00000000000E+00 -0.45593999997E+02  0.45594000000E+02  0.51100000000E-03 0.  1.
    9900012    2    1    2    0    0  0.29143689799E+01 -0.42073441425E+02 -0.10244512926E+02  0.47787331053E+02  0.20000273603E+02 0.  0.
        -12    1    1    2    0    0 -0.29143689799E+01  0.42073441425E+02  0.10244512926E+02  0.43400668947E+02  0.00000000000E+00 0.  1.
         11    1    3    3    0    0 -0.22118674632E+01 -0.28291228884E+02 -0.55909725810E+01  0.28923087043E+02  0.51100000000E-03 0. -1.
        -11    1    3    3    0    0  0.37710113175E+01 -0.83549329106E+01  0.27636627152E+01  0.95740932815E+01  0.51100000000E-03 0.  1.
        -12    1    3    3    0    0  0.13552251257E+01 -0.54272796308E+01 -0.74172030602E+01  0.92901507290E+01  0.00000000000E+00 0.  1.
</event>
<event>
 7    1  0.1400974E-009  0.4778728E+02  0.7816164E-02  0.1312668E+00
        -11   -1    0    0    0    0  0.00000000000E+00  0.00000000000E+00  0.45593999997E+02  0.45594000000E+02  0.51100000000E-03 0. -1.
         11   -1    0    0    0    0 -0.00000000000E+00 -0.00000000000E+00 -0.45593999997E+02  0.45594000000E+02  0.51100000000E-03 0.  1.
    9900012    2    1    2    0    0 -0.38597878354E+02 -0.14912738823E+02  0.13093385685E+02  0.47787277179E+02  0.20000027972E+02 0.  0.
        -12    1    1    2    0    0  0.38597878354E+02  0.14912738823E+02 -0.13093385685E+02  0.43400722821E+02  0.00000000000E+00 0.  1.
         11    1    3    3    0    0 -0.90780780272E+01 -0.95072320698E+01  0.46594768365E+01  0.13946672971E+02  0.51100000000E-03 0. -1.
        -11    1    3    3    0    0 -0.27475721448E+02 -0.75165395398E+01  0.43593218884E+01  0.28816962424E+02  0.51100000000E-03 0.  1.
        -12    1    3    3    0    0 -0.20440788788E+01  0.21110327866E+01  0.40745869597E+01  0.50236417847E+01  0.00000000000E+00 0.  1.
</event>
<event>
 7    1  0.1400974E-009  0.4778729E+02  0.7816164E-02  0.1312668E+00
        -11   -1    0    0    0    0  0.00000000000E+00  0.00000000000E+00  0.45593999997E+02  0.45594000000E+02  0.51100000000E-03 0. -1.
         11   -1    0    0    0    0 -0.00000000000E+00 -0.00000000000E+00 -0.45593999997E+02  0.45594000000E+02  0.51100000000E-03 0.  1.
    9900012    2    1    2    0    0  0.72019046987E+01 -0.22803622232E+02  0.36218081088E+02  0.47787285537E+02  0.20000066079E+02 0.  0.
        -12    1    1    2    0    0 -0.72019046987E+01  0.22803622232E+02 -0.36218081088E+02  0.43400714463E+02  0.00000000000E+00 0.  1.
         11    1    3    3    0    0  0.79818213963E+01 -0.87940618190E+01  0.12701272979E+02  0.17388712765E+02  0.51100000000E-03 0. -1.
        -11    1    3    3    0    0 -0.28732223167E+01  0.37365195599E+00  0.17674222469E+00  0.29028021532E+01  0.51100000000E-03 0.  1.
         12    1    3    3    0    0  0.20933056191E+01 -0.14383212369E+02  0.23340065884E+02  0.27495770619E+02  0.00000000000E+00 0. -1.
</event>
<event>
 7    1  0.1400974E-009  0.4778727E+02  0.7816164E-02  0.1312668E+00
        -11   -1    0    0    0    0  0.00000000000E+00  0.00000000000E+00  0.45593999997E+02  0.45594000000E+02  0.51100000000E-03 0.  1.
         11   -1    0    0    0    0 -0.00000000000E+00 -0.00000000000E+00 -0.45593999997E+02  0.45594000000E+02  0.51100000000E-03 0. -1.
    9900012    2    1    2    0    0  0.15546985713E+02  0.66912104364E+01 -0.39964264243E+02  0.47787268688E+02  0.19999989257E+02 0.  0.
        -12    1    1    2    0    0 -0.15546985713E+02 -0.66912104364E+01  0.39964264243E+02  0.43400731312E+02  0.00000000000E+00 0.  1.
         11    1    3    3    0    0  0.92404674343E+01  0.94294536014E+01 -0.22880201377E+02  0.26415988509E+02  0.51100000000E-03 0. -1.
        -11    1    3    3    0    0  0.81038703780E+01  0.11561264936E+01 -0.86504062620E+01  0.11909612602E+02  0.51100000000E-03 0.  1.
        -12    1    3    3    0    0 -0.17973520988E+01 -0.38943696586E+01 -0.84336566049E+01  0.94616675768E+01  0.00000000000E+00 0.  1.
</event>
<event>
 7    1  0.1400974E-009  0.4778727E+02  0.7816164E-02  0.1312668E+00
        -11   -1    0    0    0    0  0.00000000000E+00  0.00000000000E+00  0.45593999997E+02  0.45594000000E+02  0.51100000000E-03 0.  1.
         11   -1    0    0    0    0 -0.00000000000E+00 -0.00000000000E+00 -0.45593999997E+02  0.45594000000E+02  0.51100000000E-03 0. -1.
    9900012    2    1    2    0    0  0.44680821528E+00 -0.42298774026E+01 -0.43191806928E+02  0.47787266295E+02  0.19999978344E+02 0.  0.
        -12    1    1    2    0    0 -0.44680821528E+00  0.42298774026E+01  0.43191806928E+02  0.43400733705E+02  0.00000000000E+00 0.  1.
         11    1    3    3    0    0  0.84266390921E+00  0.13873090006E+00 -0.18838472349E+02  0.18857819848E+02  0.51100000000E-03 0. -1.
        -11    1    3    3    0    0 -0.19571427380E-01 -0.47692088893E+01 -0.26391248860E+02  0.26818720199E+02  0.51100000000E-03 0.  1.
         12    1    3    3    0    0 -0.37628426655E+00  0.40060058666E+00  0.20379142801E+01  0.21107262476E+01  0.00000000000E+00 0. -1.
</event>
<event>
 7    1  0.1400974E-009  0.4778727E+02  0.7816164E-02  0.1312668E+00
        -11   -1    0    0    0    0  0.00000000000E+00  0.00000000000E+00  0.45593999997E+02  0.45594000000E+02  0.51100000000E-03 0.  1.
         11   -1    0    0    0    0 -0.00000000000E+00 -0.00000000000E+00 -0.45593999997E+02  0.45594000000E+02  0.51100000000E-03 0. -1.
    9900012    2    1    2    0    0 -0.18097285234E+02 -0.18113608894E+02 -0.35042953607E+02  0.47787272385E+02  0.20000006112E+02 0.  0.
        -12    1    1    2    0    0  0.18097285234E+02  0.18113608894E+02  0.35042953607E+02  0.43400727615E+02  0.00000000000E+00 0.  1.
         11    1    3    3    0    0 -0.59034119471E+01 -0.10927172065E+02 -0.28961927435E+02  0.31512641954E+02  0.51100000000E-03 0. -1.
        -11    1    3    3    0    0 -0.29289743992E+01  0.76151113789E-01  0.19046271312E+00  0.29361482132E+01  0.51100000000E-03 0.  1.
         12    1    3    3    0    0 -0.92648988875E+01 -0.72625879425E+01 -0.62714888859E+01  0.13338482217E+02  0.00000000000E+00 0. -1.
</event>
<event>
 7    1  0.1400974E-009  0.4778727E+02  0.7816164E-02  0.1312668E+00
        -11   -1    0    0    0    0  0.00000000000E+00  0.00000000000E+00  0.45593999997E+02  0.45594000000E+02  0.51100000000E-03 0.  1.
         11   -1    0    0    0    0 -0.00000000000E+00 -0.00000000000E+00 -0.45593999997E+02  0.45594000000E+02  0.51100000000E-03 0. -1.
    9900012    2    1    2    0    0  0.81609123682E+01 -0.41209873422E+02  0.10898130875E+02  0.47787269422E+02  0.19999992602E+02 0.  0.
        -12    1    1    2    0    0 -0.81609123682E+01  0.41209873422E+02 -0.10898130875E+02  0.43400730578E+02  0.00000000000E+00 0.  1.
         11    1    3    3    0    0 -0.20824535311E+01 -0.22462102163E+01 -0.17007770411E+01  0.35035290565E+01  0.51100000000E-03 0. -1.
        -11    1    3    3    0    0 -0.14635556447E+01 -0.65142260050E+00  0.25004203575E+01  0.29695873038E+01  0.51100000000E-03 0.  1.
         12    1    3    3    0    0  0.11706921544E+02 -0.38312240605E+02  0.10098487558E+02  0.41314153062E+02  0.00000000000E+00 0. -1.
</event>
<event>
 7    1  0.1400974E-009  0.4778728E+02  0.7816164E-02  0.1312668E+00
        -11   -1    0    0    0    0  0.00000000000E+00  0.00000000000E+00  0.45593999997E+02  0.45594000000E+02  0.51100000000E-03 0. -1.
         11   -1    0    0    0    0 -0.00000000000E+00 -0.00000000000E+00 -0.45593999997E+02  0.45594000000E+02  0.51100000000E-03 0.  1.
    9900012    2    1    2    0    0 -0.17542104827E+02 -0.24626045347E+02  0.31136073843E+02  0.47787278283E+02  0.20000033002E+02 0.  0.
        -12    1    1    2    0    0  0.17542104827E+02  0.24626045347E+02 -0.31136073843E+02  0.43400721717E+02  0.00000000000E+00 0.  1.
         11    1    3    3    0    0 -0.12085389031E+02 -0.23367401153E+02  0.28650426348E+02  0.38896516487E+02  0.51100000000E-03 0. -1.
        -11    1    3    3    0    0 -0.35453706132E+01 -0.23665074135E+01  0.42830572635E+01  0.60427303354E+01  0.51100000000E-03 0.  1.
        -12    1    3    3    0    0 -0.19113451832E+01  0.11078632197E+01 -0.17974097678E+01  0.28480314598E+01  0.00000000000E+00 0.  1.
</event>
<event>
 7    1  0.1400974E-009  0.4778727E+02  0.7816164E-02  0.1312668E+00
        -11   -1    0    0    0    0  0.00000000000E+00  0.00000000000E+00  0.45593999997E+02  0.45594000000E+02  0.51100000000E-03 0. -1.
         11   -1    0    0    0    0 -0.00000000000E+00 -0.00000000000E+00 -0.45593999997E+02  0.45594000000E+02  0.51100000000E-03 0.  1.
    9900012    2    1    2    0    0 -0.12143434507E+02  0.35257315713E+02  0.22205448907E+02  0.47787271042E+02  0.19999999990E+02 0.  0.
        -12    1    1    2    0    0  0.12143434507E+02 -0.35257315713E+02 -0.22205448907E+02  0.43400728958E+02  0.00000000000E+00 0.  1.
         11    1    3    3    0    0 -0.77370902456E+01  0.10006026891E+02  0.63308452222E+01  0.14144353683E+02  0.51100000000E-03 0. -1.
        -11    1    3    3    0    0  0.11872307470E+01  0.26610335173E-02 -0.19157343610E+01  0.22537884396E+01  0.51100000000E-03 0.  1.
         12    1    3    3    0    0 -0.55935750089E+01  0.25248627788E+02  0.17790338046E+02  0.31389128920E+02  0.00000000000E+00 0. -1.
</event>
<event>
 7    1  0.1400974E-009  0.4778726E+02  0.7816164E-02  0.1312668E+00
        -11   -1    0    0    0    0  0.00000000000E+00  0.00000000000E+00  0.45593999997E+02  0.45594000000E+02  0.51100000000E-03 0.  1.
         11   -1    0    0    0    0 -0.00000000000E+00 -0.00000000000E+00 -0.45593999997E+02  0.45594000000E+02  0.51100000000E-03 0. -1.
    9900012    2    1    2    0    0 -0.21422176899E+02  0.27511036263E+02 -0.25842940243E+02  0.47787258765E+02  0.19999944012E+02 0.  0.
        -12    1    1    2    0    0  0.21422176899E+02 -0.27511036263E+02  0.25842940243E+02  0.43400741235E+02  0.00000000000E+00 0.  1.
         11    1    3    3    0    0 -0.70947145497E+01  0.27089996226E+01 -0.40135971963E+01  0.85896807980E+01  0.51100000000E-03 0. -1.
        -11    1    3    3    0    0 -0.10424775876E+02  0.25639983975E+02 -0.21756071075E+02  0.35205274593E+02  0.51100000000E-03 0.  1.
        -12    1    3    3    0    0 -0.39026864733E+01 -0.83794733479E+00 -0.73271971789E-01  0.39923033736E+01  0.00000000000E+00 0.  1.
</event>
<event>
 7    1  0.1400974E-009  0.4778727E+02  0.7816164E-02  0.1312668E+00
        -11   -1    0    0    0    0  0.00000000000E+00  0.00000000000E+00  0.45593999997E+02  0.45594000000E+02  0.51100000000E-03 0.  1.
         11   -1    0    0    0    0 -0.00000000000E+00 -0.00000000000E+00 -0.45593999997E+02  0.45594000000E+02  0.51100000000E-03 0. -1.
    9900012    2    1    2    0    0 -0.37490611922E+02  0.21798165732E+02 -0.17079809721E+01  0.47787271774E+02  0.20000003327E+02 0.  0.
        -12    1    1    2    0    0  0.37490611922E+02 -0.21798165732E+02  0.17079809721E+01  0.43400728226E+02  0.00000000000E+00 0.  1.
         11    1    3    3    0    0 -0.18850314384E+02  0.79385822840E+01 -0.69848459377E+01  0.21613503050E+02  0.51100000000E-03 0. -1.
        -11    1    3    3    0    0 -0.16521825083E+01 -0.35451353070E+00 -0.22193041367E+01  0.27893902553E+01  0.51100000000E-03 0.  1.
        -12    1    3    3    0    0 -0.16988115030E+02  0.14214096979E+02  0.74961691023E+01  0.23384378469E+02  0.00000000000E+00 0.  1.
</event>
<event>
 7    1  0.1400974E-009  0.4778726E+02  0.7816164E-02  0.1312668E+00
        -11   -1    0    0    0    0  0.00000000000E+00  0.00000000000E+00  0.45593999997E+02  0.45594000000E+02  0.51100000000E-03 0. -1.
         11   -1    0    0    0    0 -0.00000000000E+00 -0.00000000000E+00 -0.45593999997E+02  0.45594000000E+02  0.51100000000E-03 0.  1.
    9900012    2    1    2    0    0  0.67679936510E+01  0.34255960073E+02  0.25774939131E+02  0.47787262382E+02  0.19999960503E+02 0.  0.
        -12    1    1    2    0    0 -0.67679936510E+01 -0.34255960073E+02 -0.25774939131E+02  0.43400737618E+02  0.00000000000E+00 0.  1.
         11    1    3    3    0    0  0.58032084672E+01  0.39904902462E+01  0.11242759196E+02  0.13266532159E+02  0.51100000000E-03 0. -1.
        -11    1    3    3    0    0  0.30612983468E+01  0.18564130402E+02  0.12149504632E+02  0.22396628054E+02  0.51100000000E-03 0.  1.
        -12    1    3    3    0    0 -0.20965131630E+01  0.11701339425E+02  0.23826753031E+01  0.12124102168E+02  0.00000000000E+00 0.  1.
</event>
<event>
 7    1  0.1400974E-009  0.4778727E+02  0.7816164E-02  0.1312668E+00
        -11   -1    0    0    0    0  0.00000000000E+00  0.00000000000E+00  0.45593999997E+02  0.45594000000E+02  0.51100000000E-03 0. -1.
         11   -1    0    0    0    0 -0.00000000000E+00 -0.00000000000E+00 -0.45593999997E+02  0.45594000000E+02  0.51100000000E-03 0.  1.
    9900012    2    1    2    0    0 -0.40761671409E+02  0.80165956447E+01 -0.12563586421E+02  0.47787269989E+02  0.19999995186E+02 0.  0.
        -12    1    1    2    0    0  0.40761671409E+02 -0.80165956447E+01  0.12563586421E+02  0.43400730011E+02  0.00000000000E+00 0.  1.
         11    1    3    3    0    0 -0.29058482353E+02  0.11490347407E+02 -0.58217886838E+01  0.31785479451E+02  0.51100000000E-03 0. -1.
        -11    1    3    3    0    0 -0.10172932936E+02 -0.10769516893E+01 -0.79062829918E+01  0.12928948158E+02  0.51100000000E-03 0.  1.
        -12    1    3    3    0    0 -0.15302561192E+01 -0.23968000731E+01  0.11644852546E+01  0.30728423794E+01  0.00000000000E+00 0.  1.
</event>
<event>
 7    1  0.1400974E-009  0.4778727E+02  0.7816164E-02  0.1312668E+00
        -11   -1    0    0    0    0  0.00000000000E+00  0.00000000000E+00  0.45593999997E+02  0.45594000000E+02  0.51100000000E-03 0.  1.
         11   -1    0    0    0    0 -0.00000000000E+00 -0.00000000000E+00 -0.45593999997E+02  0.45594000000E+02  0.51100000000E-03 0. -1.
    9900012    2    1    2    0    0  0.13646850436E+02  0.67140675626E+01 -0.40648590454E+02  0.47787272634E+02  0.20000007246E+02 0.  0.
        -12    1    1    2    0    0 -0.13646850436E+02 -0.67140675626E+01  0.40648590454E+02  0.43400727366E+02  0.00000000000E+00 0.  1.
         11    1    3    3    0    0  0.13660179599E+02  0.40271806912E+01 -0.18502856239E+02  0.23348969577E+02  0.51100000000E-03 0. -1.
        -11    1    3    3    0    0  0.13491101781E+01  0.63144085167E+01 -0.14094073436E+02  0.15502733936E+02  0.51100000000E-03 0.  1.
        -12    1    3    3    0    0 -0.13624393416E+01 -0.36275216453E+01 -0.80516607779E+01  0.89355691217E+01  0.00000000000E+00 0.  1.
</event>
<event>
 7    1  0.1400974E-009  0.4778727E+02  0.7816164E-02  0.1312668E+00
        -11   -1    0    0    0    0  0.00000000000E+00  0.00000000000E+00  0.45593999997E+02  0.45594000000E+02  0.51100000000E-03 0.  1.
         11   -1    0    0    0    0 -0.00000000000E+00 -0.00000000000E+00 -0.45593999997E+02  0.45594000000E+02  0.51100000000E-03 0. -1.
    9900012    2    1    2    0    0  0.17411991797E+02 -0.25610916890E+02 -0.30406033039E+02  0.47787269967E+02  0.19999995086E+02 0.  0.
        -12    1    1    2    0    0 -0.17411991797E+02  0.25610916890E+02  0.30406033039E+02  0.43400730033E+02  0.00000000000E+00 0.  1.
         11    1    3    3    0    0  0.10852338794E+02 -0.33430560198E+01 -0.50710059062E+01  0.12436413551E+02  0.51100000000E-03 0. -1.
        -11    1    3    3    0    0 -0.18760812850E+01 -0.27455508671E+01 -0.43294700379E+01  0.54591246204E+01  0.51100000000E-03 0.  1.
         12    1    3    3    0    0  0.84357342873E+01 -0.19522310003E+02 -0.21005557095E+02  0.29891731795E+02  0.00000000000E+00 0. -1.
</event>
<event>
 7    1  0.1400974E-009  0.4778727E+02  0.7816164E-02  0.1312668E+00
        -11   -1    0    0    0    0  0.00000000000E+00  0.00000000000E+00  0.45593999997E+02  0.45594000000E+02  0.51100000000E-03 0.  1.
         11   -1    0    0    0    0 -0.00000000000E+00 -0.00000000000E+00 -0.45593999997E+02  0.45594000000E+02  0.51100000000E-03 0. -1.
    9900012    2    1    2    0    0  0.26281556963E+02 -0.11509252072E+02 -0.32564404419E+02  0.47787267808E+02  0.19999985242E+02 0.  0.
        -12    1    1    2    0    0 -0.26281556963E+02  0.11509252072E+02  0.32564404419E+02  0.43400732192E+02  0.00000000000E+00 0.  1.
         11    1    3    3    0    0  0.17709499713E+02 -0.54526741430E+00 -0.80862016940E+01  0.19475891628E+02  0.51100000000E-03 0. -1.
        -11    1    3    3    0    0  0.10534156961E+01 -0.34008252152E+01 -0.60463326804E+01  0.70166541825E+01  0.51100000000E-03 0.  1.
         12    1    3    3    0    0  0.75186415547E+01 -0.75631594426E+01 -0.18431870044E+02  0.21294721997E+02  0.00000000000E+00 0. -1.
</event>
<event>
 7    1  0.1400974E-009  0.4778727E+02  0.7816164E-02  0.1312668E+00
        -11   -1    0    0    0    0  0.00000000000E+00  0.00000000000E+00  0.45593999997E+02  0.45594000000E+02  0.51100000000E-03 0.  1.
         11   -1    0    0    0    0 -0.00000000000E+00 -0.00000000000E+00 -0.45593999997E+02  0.45594000000E+02  0.51100000000E-03 0. -1.
    9900012    2    1    2    0    0  0.10825980115E+02 -0.26630705639E+02 -0.32515028947E+02  0.47787269180E+02  0.19999991497E+02 0.  0.
        -12    1    1    2    0    0 -0.10825980115E+02  0.26630705639E+02  0.32515028947E+02  0.43400730820E+02  0.00000000000E+00 0.  1.
         11    1    3    3    0    0  0.66315449748E+01 -0.72522548186E+01 -0.17123938856E+02  0.19743400693E+02  0.51100000000E-03 0. -1.
        -11    1    3    3    0    0  0.67754800711E+01 -0.69527456784E+01 -0.26559388318E+01  0.10064880228E+02  0.51100000000E-03 0.  1.
        -12    1    3    3    0    0 -0.25810449306E+01 -0.12425705142E+02 -0.12735151260E+02  0.17978988259E+02  0.00000000000E+00 0.  1.
</event>
<event>
 7    1  0.1400974E-009  0.4778727E+02  0.7816164E-02  0.1312668E+00
        -11   -1    0    0    0    0  0.00000000000E+00  0.00000000000E+00  0.45593999997E+02  0.45594000000E+02  0.51100000000E-03 0.  1.
         11   -1    0    0    0    0 -0.00000000000E+00 -0.00000000000E+00 -0.45593999997E+02  0.45594000000E+02  0.51100000000E-03 0. -1.
    9900012    2    1    2    0    0 -0.22909193705E+02  0.22583387987E+01 -0.36792556734E+02  0.47787268655E+02  0.19999989104E+02 0.  0.
        -12    1    1    2    0    0  0.22909193705E+02 -0.22583387987E+01  0.36792556734E+02  0.43400731345E+02  0.00000000000E+00 0.  1.
         11    1    3    3    0    0 -0.12087388568E+02  0.40485491605E+01 -0.21847038562E+02  0.25294046867E+02  0.51100000000E-03 0. -1.
        -11    1    3    3    0    0  0.21307720131E+01 -0.24137040818E+01 -0.82902779455E+00  0.33246720307E+01  0.51100000000E-03 0.  1.
         12    1    3    3    0    0 -0.12952577149E+02  0.62349371995E+00 -0.14116490377E+02  0.19168549757E+02  0.00000000000E+00 0. -1.
</event>
<event>
 7    1  0.1400974E-009  0.4778727E+02  0.7816164E-02  0.1312668E+00
        -11   -1    0    0    0    0  0.00000000000E+00  0.00000000000E+00  0.45593999997E+02  0.45594000000E+02  0.51100000000E-03 0.  1.
         11   -1    0    0    0    0 -0.00000000000E+00 -0.00000000000E+00 -0.45593999997E+02  0.45594000000E+02  0.51100000000E-03 0. -1.
    9900012    2    1    2    0    0  0.23411587622E+02 -0.69222917515E+01 -0.35883181150E+02  0.47787271347E+02  0.20000001381E+02 0.  0.
        -12    1    1    2    0    0 -0.23411587622E+02  0.69222917515E+01  0.35883181150E+02  0.43400728653E+02  0.00000000000E+00 0.  1.
         11    1    3    3    0    0  0.36519010557E+01 -0.20632624927E+01 -0.89684796605E+01  0.99008616350E+01  0.51100000000E-03 0. -1.
        -11    1    3    3    0    0  0.74898086821E+01 -0.12120089862E+01 -0.23418800858E+02  0.24617197927E+02  0.51100000000E-03 0.  1.
        -12    1    3    3    0    0  0.12269877885E+02 -0.36470202727E+01 -0.34959006315E+01  0.13269211785E+02  0.00000000000E+00 0.  1.
</event>
<event>
 7    1  0.1400974E-009  0.4778727E+02  0.7816164E-02  0.1312668E+00
        -11   -1    0    0    0    0  0.00000000000E+00  0.00000000000E+00  0.45593999997E+02  0.45594000000E+02  0.51100000000E-03 0.  1.
         11   -1    0    0    0    0 -0.00000000000E+00 -0.00000000000E+00 -0.45593999997E+02  0.45594000000E+02  0.51100000000E-03 0. -1.
    9900012    2    1    2    0    0  0.27098597833E+02 -0.14502325285E+02 -0.30642650155E+02  0.47787268996E+02  0.19999990659E+02 0.  0.
        -12    1    1    2    0    0 -0.27098597833E+02  0.14502325285E+02  0.30642650155E+02  0.43400731004E+02  0.00000000000E+00 0.  1.
         11    1    3    3    0    0  0.16320139156E+02 -0.10668303383E+01 -0.16912261608E+02  0.23526786054E+02  0.51100000000E-03 0. -1.
        -11    1    3    3    0    0  0.53068205926E+01 -0.81603870572E+01 -0.13516850972E+02  0.16657116262E+02  0.51100000000E-03 0.  1.
         12    1    3    3    0    0  0.54716380838E+01 -0.52751078897E+01 -0.21353757506E+00  0.76033666796E+01  0.00000000000E+00 0. -1.
</event>
<event>
 7    1  0.1400974E-009  0.4778727E+02  0.7816164E-02  0.1312668E+00
        -11   -1    0    0    0    0  0.00000000000E+00  0.00000000000E+00  0.45593999997E+02  0.45594000000E+02  0.51100000000E-03 0.  1.
         11   -1    0    0    0    0 -0.00000000000E+00 -0.00000000000E+00 -0.45593999997E+02  0.45594000000E+02  0.51100000000E-03 0. -1.
    9900012    2    1    2    0    0  0.32954753190E+02  0.15415503764E+02 -0.23663676876E+02  0.47787272846E+02  0.20000008216E+02 0.  0.
        -12    1    1    2    0    0 -0.32954753190E+02 -0.15415503764E+02  0.23663676876E+02  0.43400727154E+02  0.00000000000E+00 0.  1.
         11    1    3    3    0    0  0.78726001500E+01  0.56629241114E+01 -0.19723552837E+01  0.98962987141E+01  0.51100000000E-03 0. -1.
        -11    1    3    3    0    0  0.16527019041E+02  0.12099838192E+02 -0.89200849519E+01  0.22340912212E+02  0.51100000000E-03 0.  1.
         12    1    3    3    0    0  0.85551339995E+01 -0.23472585388E+01 -0.12771236641E+02  0.15550061920E+02  0.00000000000E+00 0. -1.
</event>
<event>
 7    1  0.1400974E-009  0.4778727E+02  0.7816164E-02  0.1312668E+00
        -11   -1    0    0    0    0  0.00000000000E+00  0.00000000000E+00  0.45593999997E+02  0.45594000000E+02  0.51100000000E-03 0.  1.
         11   -1    0    0    0    0 -0.00000000000E+00 -0.00000000000E+00 -0.45593999997E+02  0.45594000000E+02  0.51100000000E-03 0. -1.
    9900012    2    1    2    0    0  0.14443264170E+02  0.28039672915E+02 -0.29812618097E+02  0.47787270342E+02  0.19999996797E+02 0.  0.
        -12    1    1    2    0    0 -0.14443264170E+02 -0.28039672915E+02  0.29812618097E+02  0.43400729658E+02  0.00000000000E+00 0.  1.
         11    1    3    3    0    0  0.23216417216E+01  0.15267743815E+02 -0.70923318346E+01  0.16993975185E+02  0.51100000000E-03 0. -1.
        -11    1    3    3    0    0  0.89265467008E+01  0.28164051012E+01 -0.61495198990E+01  0.11199641465E+02  0.51100000000E-03 0.  1.
         12    1    3    3    0    0  0.31950757471E+01  0.99555239992E+01 -0.16570766363E+02  0.19593653692E+02  0.00000000000E+00 0. -1.
</event>
<event>
 7    1  0.1400974E-009  0.4778727E+02  0.7816164E-02  0.1312668E+00
        -11   -1    0    0    0    0  0.00000000000E+00  0.00000000000E+00  0.45593999997E+02  0.45594000000E+02  0.51100000000E-03 0.  1.
         11   -1    0    0    0    0 -0.00000000000E+00 -0.00000000000E+00 -0.45593999997E+02  0.45594000000E+02  0.51100000000E-03 0. -1.
    9900012    2    1    2    0    0 -0.60835245466E+01 -0.22492567364E+02 -0.36615550822E+02  0.47787269366E+02  0.19999992349E+02 0.  0.
        -12    1    1    2    0    0  0.60835245466E+01  0.22492567364E+02  0.36615550822E+02  0.43400730634E+02  0.00000000000E+00 0.  1.
         11    1    3    3    0    0 -0.87809274892E+01 -0.58337067754E+01 -0.80817892893E+01  0.13283528925E+02  0.51100000000E-03 0. -1.
        -11    1    3    3    0    0  0.14475848724E+01 -0.15536656933E+01 -0.11535870448E+02  0.11729692506E+02  0.51100000000E-03 0.  1.
        -12    1    3    3    0    0  0.12498180702E+01 -0.15105194895E+02 -0.16997891085E+02  0.22774047935E+02  0.00000000000E+00 0.  1.
</event>
<event>
 7    1  0.1400974E-009  0.4778727E+02  0.7816164E-02  0.1312668E+00
        -11   -1    0    0    0    0  0.00000000000E+00  0.00000000000E+00  0.45593999997E+02  0.45594000000E+02  0.51100000000E-03 0.  1.
         11   -1    0    0    0    0 -0.00000000000E+00 -0.00000000000E+00 -0.45593999997E+02  0.45594000000E+02  0.51100000000E-03 0. -1.
    9900012    2    1    2    0    0 -0.23130835527E+02  0.61779471608E+01 -0.36199734084E+02  0.47787270385E+02  0.19999996996E+02 0.  0.
        -12    1    1    2    0    0  0.23130835527E+02 -0.61779471608E+01  0.36199734084E+02  0.43400729615E+02  0.00000000000E+00 0.  1.
         11    1    3    3    0    0 -0.62539307203E+01  0.11383705754E+02 -0.11263586329E+02  0.17192113989E+02  0.51100000000E-03 0. -1.
        -11    1    3    3    0    0 -0.13099499429E+01 -0.85217015857E+00 -0.22328935381E+01  0.27254314604E+01  0.51100000000E-03 0.  1.
         12    1    3    3    0    0 -0.15566954864E+02 -0.43535884344E+01 -0.22703254217E+02  0.27869724936E+02  0.00000000000E+00 0. -1.
</event>
<event>
 7    1  0.1400974E-009  0.4778727E+02  0.7816164E-02  0.1312668E+00
        -11   -1    0    0    0    0  0.00000000000E+00  0.00000000000E+00  0.45593999997E+02  0.45594000000E+02  0.51100000000E-03 0.  1.
         11   -1    0    0    0    0 -0.00000000000E+00 -0.00000000000E+00 -0.45593999997E+02  0.45594000000E+02  0.51100000000E-03 0. -1.
    9900012    2    1    2    0    0  0.93214317163E+01 -0.34725460189E+01 -0.42245426557E+02  0.47787265788E+02  0.19999976035E+02 0.  0.
        -12    1    1    2    0    0 -0.93214317163E+01  0.34725460189E+01  0.42245426557E+02  0.43400734212E+02  0.00000000000E+00 0.  1.
         11    1    3    3    0    0  0.21350066601E+01 -0.82750587363E+01 -0.20817878547E+02  0.22503753420E+02  0.51100000000E-03 0. -1.
        -11    1    3    3    0    0  0.37405605987E+01  0.27668027677E+00 -0.73340533005E+00  0.38218096770E+01  0.51100000000E-03 0.  1.
         12    1    3    3    0    0  0.34458644575E+01  0.45258324406E+01 -0.20694142681E+02  0.21461702692E+02  0.00000000000E+00 0. -1.
</event>
<event>
 7    1  0.1400974E-009  0.4778727E+02  0.7816164E-02  0.1312668E+00
        -11   -1    0    0    0    0  0.00000000000E+00  0.00000000000E+00  0.45593999997E+02  0.45594000000E+02  0.51100000000E-03 0. -1.
         11   -1    0    0    0    0 -0.00000000000E+00 -0.00000000000E+00 -0.45593999997E+02  0.45594000000E+02  0.51100000000E-03 0.  1.
    9900012    2    1    2    0    0  0.40071625757E+02  0.69211745762E+00  0.16655593470E+02  0.47787274070E+02  0.20000013795E+02 0.  0.
        -12    1    1    2    0    0 -0.40071625757E+02 -0.69211745762E+00 -0.16655593470E+02  0.43400725930E+02  0.00000000000E+00 0.  1.
         11    1    3    3    0    0  0.17859627728E+02 -0.13895111685E+01  0.15855287974E+02  0.23922524969E+02  0.51100000000E-03 0. -1.
        -11    1    3    3    0    0  0.10252703583E+02 -0.19322943411E+01  0.34224188859E+01  0.10980193234E+02  0.51100000000E-03 0.  1.
        -12    1    3    3    0    0  0.11959294447E+02  0.40139229672E+01 -0.26221133906E+01  0.12884555867E+02  0.00000000000E+00 0.  1.
</event>
<event>
 7    1  0.1400974E-009  0.4778727E+02  0.7816164E-02  0.1312668E+00
        -11   -1    0    0    0    0  0.00000000000E+00  0.00000000000E+00  0.45593999997E+02  0.45594000000E+02  0.51100000000E-03 0.  1.
         11   -1    0    0    0    0 -0.00000000000E+00 -0.00000000000E+00 -0.45593999997E+02  0.45594000000E+02  0.51100000000E-03 0. -1.
    9900012    2    1    2    0    0  0.22426188459E+02  0.47101575396E+01 -0.36857888117E+02  0.47787269254E+02  0.19999991836E+02 0.  0.
        -12    1    1    2    0    0 -0.22426188459E+02 -0.47101575396E+01  0.36857888117E+02  0.43400730746E+02  0.00000000000E+00 0.  1.
         11    1    3    3    0    0  0.16916666132E+02  0.23861680609E+01 -0.29451144696E+02  0.34047574292E+02  0.51100000000E-03 0. -1.
        -11    1    3    3    0    0 -0.18116184631E+01 -0.63803460070E+00 -0.51942703027E+01  0.55380045004E+01  0.51100000000E-03 0.  1.
        -12    1    3    3    0    0  0.73211407904E+01  0.29620240795E+01 -0.22124731181E+01  0.82016904611E+01  0.00000000000E+00 0.  1.
</event>
<event>
 7    1  0.1400974E-009  0.4778723E+02  0.7816164E-02  0.1312668E+00
        -11   -1    0    0    0    0  0.00000000000E+00  0.00000000000E+00  0.45593999997E+02  0.45594000000E+02  0.51100000000E-03 0.  1.
         11   -1    0    0    0    0 -0.00000000000E+00 -0.00000000000E+00 -0.45593999997E+02  0.45594000000E+02  0.51100000000E-03 0. -1.
    9900012    2    1    2    0    0 -0.91475690973E+01  0.33965567107E+02  0.25422218083E+02  0.47787228790E+02  0.19999807346E+02 0.  0.
        -12    1    1    2    0    0  0.91475690973E+01 -0.33965567107E+02 -0.25422218083E+02  0.43400771210E+02  0.00000000000E+00 0.  1.
         11    1    3    3    0    0 -0.14835961598E+01  0.85851887569E+01  0.18169332300E+01  0.88998747284E+01  0.51100000000E-03 0. -1.
        -11    1    3    3    0    0 -0.94975942239E+01  0.15257643745E+02  0.22108053059E+02  0.28491507489E+02  0.51100000000E-03 0.  1.
        -12    1    3    3    0    0  0.18336212863E+01  0.10122734606E+02  0.14972317937E+01  0.10395846573E+02  0.00000000000E+00 0.  1.
</event>
<event>
 7    1  0.1400974E-009  0.4778727E+02  0.7816164E-02  0.1312668E+00
        -11   -1    0    0    0    0  0.00000000000E+00  0.00000000000E+00  0.45593999997E+02  0.45594000000E+02  0.51100000000E-03 0.  1.
         11   -1    0    0    0    0 -0.00000000000E+00 -0.00000000000E+00 -0.45593999997E+02  0.45594000000E+02  0.51100000000E-03 0. -1.
    9900012    2    1    2    0    0  0.24543435553E+01 -0.33684813081E+02 -0.27256790761E+02  0.47787273311E+02  0.20000010334E+02 0.  0.
        -12    1    1    2    0    0 -0.24543435553E+01  0.33684813081E+02  0.27256790761E+02  0.43400726689E+02  0.00000000000E+00 0.  1.
         11    1    3    3    0    0 -0.37210473989E+01 -0.13577456813E+02 -0.14696094246E+02  0.20351135438E+02  0.51100000000E-03 0. -1.
        -11    1    3    3    0    0  0.36092864742E+01 -0.50031929109E+00 -0.51717808786E+01  0.63264987128E+01  0.51100000000E-03 0.  1.
         12    1    3    3    0    0  0.25661044799E+01 -0.19607036977E+02 -0.73889156361E+01  0.21109639160E+02  0.00000000000E+00 0. -1.
</event>
<event>
 7    1  0.1400974E-009  0.4778728E+02  0.7816164E-02  0.1312668E+00
        -11   -1    0    0    0    0  0.00000000000E+00  0.00000000000E+00  0.45593999997E+02  0.45594000000E+02  0.51100000000E-03 0. -1.
         11   -1    0    0    0    0 -0.00000000000E+00 -0.00000000000E+00 -0.45593999997E+02  0.45594000000E+02  0.51100000000E-03 0.  1.
    9900012    2    1    2    0    0  0.15731183356E+02  0.38921997820E+02  0.11010457593E+02  0.47787283181E+02  0.20000055333E+02 0.  0.
        -12    1    1    2    0    0 -0.15731183356E+02 -0.38921997820E+02 -0.11010457593E+02  0.43400716819E+02  0.00000000000E+00 0.  1.
         11    1    3    3    0    0  0.40882681551E+01  0.78727774287E+01  0.60295759283E+01  0.10726152483E+02  0.51100000000E-03 0. -1.
        -11    1    3    3    0    0 -0.36204820858E+01  0.10593198384E+02  0.18558222443E+01  0.11347590890E+02  0.51100000000E-03 0.  1.
         12    1    3    3    0    0  0.15263397287E+02  0.20456022007E+02  0.31250594200E+01  0.25713539808E+02  0.00000000000E+00 0. -1.
</event>
<event>
 7    1  0.1400974E-009  0.4778727E+02  0.7816164E-02  0.1312668E+00
        -11   -1    0    0    0    0  0.00000000000E+00  0.00000000000E+00  0.45593999997E+02  0.45594000000E+02  0.51100000000E-03 0. -1.
         11   -1    0    0    0    0 -0.00000000000E+00 -0.00000000000E+00 -0.45593999997E+02  0.45594000000E+02  0.51100000000E-03 0.  1.
    9900012    2    1    2    0    0 -0.31138267616E+02  0.29961265199E+02  0.40440626625E+01  0.47787267687E+02  0.19999984693E+02 0.  0.
        -12    1    1    2    0    0  0.31138267616E+02 -0.29961265199E+02 -0.40440626625E+01  0.43400732313E+02  0.00000000000E+00 0.  1.
         11    1    3    3    0    0 -0.84070533899E+01  0.17530720175E+01 -0.20575317698E+01  0.88309255146E+01  0.51100000000E-03 0. -1.
        -11    1    3    3    0    0 -0.43030424820E+01  0.27789952692E+00  0.31984274217E+01  0.53687373732E+01  0.51100000000E-03 0.  1.
         12    1    3    3    0    0 -0.18428171745E+02  0.27930293654E+02  0.29031670107E+01  0.33587604799E+02  0.00000000000E+00 0. -1.
</event>
<event>
 7    1  0.1400974E-009  0.4778727E+02  0.7816164E-02  0.1312668E+00
        -11   -1    0    0    0    0  0.00000000000E+00  0.00000000000E+00  0.45593999997E+02  0.45594000000E+02  0.51100000000E-03 0.  1.
         11   -1    0    0    0    0 -0.00000000000E+00 -0.00000000000E+00 -0.45593999997E+02  0.45594000000E+02  0.51100000000E-03 0. -1.
    9900012    2    1    2    0    0  0.12450343518E+02  0.26056257160E+02 -0.32398826077E+02  0.47787268185E+02  0.19999986964E+02 0.  0.
        -12    1    1    2    0    0 -0.12450343518E+02 -0.26056257160E+02  0.32398826077E+02  0.43400731815E+02  0.00000000000E+00 0.  1.
         11    1    3    3    0    0  0.89422804173E+01  0.87799044787E+01 -0.21670663864E+02  0.25033353237E+02  0.51100000000E-03 0. -1.
        -11    1    3    3    0    0  0.42452114425E+01  0.15083683030E+02 -0.12330903390E+02  0.19939671327E+02  0.51100000000E-03 0.  1.
        -12    1    3    3    0    0 -0.73714834218E+00  0.21926696514E+01  0.16027411774E+01  0.28142436213E+01  0.00000000000E+00 0.  1.
</event>
<event>
 7    1  0.1400974E-009  0.4778727E+02  0.7816164E-02  0.1312668E+00
        -11   -1    0    0    0    0  0.00000000000E+00  0.00000000000E+00  0.45593999997E+02  0.45594000000E+02  0.51100000000E-03 0.  1.
         11   -1    0    0    0    0 -0.00000000000E+00 -0.00000000000E+00 -0.45593999997E+02  0.45594000000E+02  0.51100000000E-03 0. -1.
    9900012    2    1    2    0    0 -0.37649515177E+02 -0.13955368090E+02 -0.16473758523E+02  0.47787274068E+02  0.20000013784E+02 0.  0.
        -12    1    1    2    0    0  0.37649515177E+02  0.13955368090E+02  0.16473758523E+02  0.43400725932E+02  0.00000000000E+00 0.  1.
         11    1    3    3    0    0 -0.63753294223E+01  0.12775354601E+00  0.12198151558E+01  0.64922334745E+01  0.51100000000E-03 0. -1.
        -11    1    3    3    0    0 -0.27990736412E+02 -0.10289376614E+02 -0.88161304347E+01  0.31097857677E+02  0.51100000000E-03 0.  1.
        -12    1    3    3    0    0 -0.32834493423E+01 -0.37937450220E+01 -0.88774432438E+01  0.10197182916E+02  0.00000000000E+00 0.  1.
</event>
<event>
 7    1  0.1400974E-009  0.4778728E+02  0.7816164E-02  0.1312668E+00
        -11   -1    0    0    0    0  0.00000000000E+00  0.00000000000E+00  0.45593999997E+02  0.45594000000E+02  0.51100000000E-03 0. -1.
         11   -1    0    0    0    0 -0.00000000000E+00 -0.00000000000E+00 -0.45593999997E+02  0.45594000000E+02  0.51100000000E-03 0.  1.
    9900012    2    1    2    0    0 -0.95889526461E+01 -0.42256182199E+02 -0.24677529971E+01  0.47787277060E+02  0.20000027427E+02 0.  0.
        -12    1    1    2    0    0  0.95889526461E+01  0.42256182199E+02  0.24677529971E+01  0.43400722940E+02  0.00000000000E+00 0.  1.
         11    1    3    3    0    0 -0.91580258721E+01 -0.14776400989E+02 -0.19300703059E+01  0.17491044443E+02  0.51100000000E-03 0. -1.
        -11    1    3    3    0    0  0.37492946673E+01 -0.61640122337E+01 -0.40785233544E+01  0.82877385536E+01  0.51100000000E-03 0.  1.
         12    1    3    3    0    0 -0.41802214413E+01 -0.21315768976E+02  0.35408406631E+01  0.22008494063E+02  0.00000000000E+00 0. -1.
</event>
<event>
 7    1  0.1400974E-009  0.4778727E+02  0.7816164E-02  0.1312668E+00
        -11   -1    0    0    0    0  0.00000000000E+00  0.00000000000E+00  0.45593999997E+02  0.45594000000E+02  0.51100000000E-03 0. -1.
         11   -1    0    0    0    0 -0.00000000000E+00 -0.00000000000E+00 -0.45593999997E+02  0.45594000000E+02  0.51100000000E-03 0.  1.
    9900012    2    1    2    0    0 -0.40562107917E+02 -0.68007190931E+01  0.13859611298E+02  0.47787271847E+02  0.20000003660E+02 0.  0.
        -12    1    1    2    0    0  0.40562107917E+02  0.68007190931E+01 -0.13859611298E+02  0.43400728153E+02  0.00000000000E+00 0.  1.
         11    1    3    3    0    0 -0.57804470245E+01  0.27427562891E+01  0.29564590254E+01  0.70481862983E+01  0.51100000000E-03 0. -1.
        -11    1    3    3    0    0 -0.13607768180E+01  0.13905680522E+01  0.46269251720E+01  0.50193455613E+01  0.51100000000E-03 0.  1.
         12    1    3    3    0    0 -0.33420884075E+02 -0.10934043434E+02  0.62762271003E+01  0.35719739988E+02  0.00000000000E+00 0. -1.
</event>
<event>
 7    1  0.1400974E-009  0.4778727E+02  0.7816164E-02  0.1312668E+00
        -11   -1    0    0    0    0  0.00000000000E+00  0.00000000000E+00  0.45593999997E+02  0.45594000000E+02  0.51100000000E-03 0.  1.
         11   -1    0    0    0    0 -0.00000000000E+00 -0.00000000000E+00 -0.45593999997E+02  0.45594000000E+02  0.51100000000E-03 0. -1.
    9900012    2    1    2    0    0 -0.38467096184E+02  0.18032051261E+02  0.88741612218E+01  0.47787273061E+02  0.20000009192E+02 0.  0.
        -12    1    1    2    0    0  0.38467096184E+02 -0.18032051261E+02 -0.88741612218E+01  0.43400726939E+02  0.00000000000E+00 0.  1.
         11    1    3    3    0    0 -0.11705606859E+02  0.12026534424E+01 -0.18273656121E+01  0.11908269084E+02  0.51100000000E-03 0. -1.
        -11    1    3    3    0    0 -0.10569220789E+02 -0.37017695973E+00  0.24387271986E+01  0.10853241437E+02  0.51100000000E-03 0.  1.
         12    1    3    3    0    0 -0.16192268535E+02  0.17199574778E+02  0.82627996353E+01  0.25025762539E+02  0.00000000000E+00 0. -1.
</event>
<event>
 7    1  0.1400974E-009  0.4778727E+02  0.7816164E-02  0.1312668E+00
        -11   -1    0    0    0    0  0.00000000000E+00  0.00000000000E+00  0.45593999997E+02  0.45594000000E+02  0.51100000000E-03 0.  1.
         11   -1    0    0    0    0 -0.00000000000E+00 -0.00000000000E+00 -0.45593999997E+02  0.45594000000E+02  0.51100000000E-03 0. -1.
    9900012    2    1    2    0    0  0.39436816799E+01  0.11212444613E+02 -0.41741485546E+02  0.47787272414E+02  0.20000006246E+02 0.  0.
        -12    1    1    2    0    0 -0.39436816799E+01 -0.11212444613E+02  0.41741485546E+02  0.43400727586E+02  0.00000000000E+00 0.  1.
         11    1    3    3    0    0 -0.33514562714E+01 -0.12659962014E+01 -0.23485700660E+00  0.35902873974E+01  0.51100000000E-03 0.  1.
        -11    1    3    3    0    0  0.36365372125E+01  0.88445172406E+01 -0.21397337567E+02  0.23437063454E+02  0.51100000000E-03 0. -1.
        -12    1    3    3    0    0  0.36586007388E+01  0.36339235735E+01 -0.20109290972E+02  0.20759921563E+02  0.00000000000E+00 0.  1.
</event>
<event>
 7    1  0.1400974E-009  0.4778726E+02  0.7816164E-02  0.1312668E+00
        -11   -1    0    0    0    0  0.00000000000E+00  0.00000000000E+00  0.45593999997E+02  0.45594000000E+02  0.51100000000E-03 0.  1.
         11   -1    0    0    0    0 -0.00000000000E+00 -0.00000000000E+00 -0.45593999997E+02  0.45594000000E+02  0.51100000000E-03 0. -1.
    9900012    2    1    2    0    0 -0.53899588958E+01  0.34977552806E+01 -0.42922463236E+02  0.47787264993E+02  0.19999972408E+02 0.  0.
        -12    1    1    2    0    0  0.53899588958E+01 -0.34977552806E+01  0.42922463236E+02  0.43400735007E+02  0.00000000000E+00 0.  1.
         11    1    3    3    0    0 -0.27097682596E+00  0.71073677131E+01 -0.48261989648E+01  0.85953650858E+01  0.51100000000E-03 0. -1.
        -11    1    3    3    0    0  0.11301051254E+01 -0.19092689703E+01 -0.16408710007E+02  0.16558025545E+02  0.51100000000E-03 0.  1.
         12    1    3    3    0    0 -0.62490871952E+01 -0.17003434622E+01 -0.21687554264E+02  0.22633874362E+02  0.00000000000E+00 0. -1.
</event>
<event>
 7    1  0.1400974E-009  0.4778727E+02  0.7816164E-02  0.1312668E+00
        -11   -1    0    0    0    0  0.00000000000E+00  0.00000000000E+00  0.45593999997E+02  0.45594000000E+02  0.51100000000E-03 0. -1.
         11   -1    0    0    0    0 -0.00000000000E+00 -0.00000000000E+00 -0.45593999997E+02  0.45594000000E+02  0.51100000000E-03 0.  1.
    9900012    2    1    2    0    0 -0.11330593625E+02  0.76414587291E+00  0.41888625490E+02  0.47787271709E+02  0.20000003028E+02 0.  0.
        -12    1    1    2    0    0  0.11330593625E+02 -0.76414587291E+00 -0.41888625490E+02  0.43400728291E+02  0.00000000000E+00 0.  1.
         11    1    3    3    0    0 -0.44155183910E+01 -0.23181969820E+01  0.33680771667E+01  0.60178720467E+01  0.51100000000E-03 0.  1.
        -11    1    3    3    0    0 -0.10614710651E+02  0.34884070015E+01  0.34618692256E+02  0.36377120823E+02  0.51100000000E-03 0. -1.
        -12    1    3    3    0    0  0.36996354168E+01 -0.40606414660E+00  0.39018560670E+01  0.53922788388E+01  0.00000000000E+00 0.  1.
</event>
<event>
 7    1  0.1400974E-009  0.4778728E+02  0.7816164E-02  0.1312668E+00
        -11   -1    0    0    0    0  0.00000000000E+00  0.00000000000E+00  0.45593999997E+02  0.45594000000E+02  0.51100000000E-03 0.  1.
         11   -1    0    0    0    0 -0.00000000000E+00 -0.00000000000E+00 -0.45593999997E+02  0.45594000000E+02  0.51100000000E-03 0. -1.
    9900012    2    1    2    0    0  0.34058378214E+01  0.15053523262E+02 -0.40563704047E+02  0.47787281344E+02  0.20000046958E+02 0.  0.
        -12    1    1    2    0    0 -0.34058378214E+01 -0.15053523262E+02  0.40563704047E+02  0.43400718656E+02  0.00000000000E+00 0.  1.
         11    1    3    3    0    0  0.44012855124E+01  0.30256116085E+01 -0.16593709057E+02  0.17432062996E+02  0.51100000000E-03 0. -1.
        -11    1    3    3    0    0  0.28105944203E-01  0.15244660353E+02 -0.19368939294E+02  0.24648656532E+02  0.51100000000E-03 0.  1.
        -12    1    3    3    0    0 -0.10235536352E+01 -0.32167486988E+01 -0.46010556959E+01  0.57065618154E+01  0.00000000000E+00 0.  1.
</event>
<event>
 7    1  0.1400974E-009  0.4778727E+02  0.7816164E-02  0.1312668E+00
        -11   -1    0    0    0    0  0.00000000000E+00  0.00000000000E+00  0.45593999997E+02  0.45594000000E+02  0.51100000000E-03 0.  1.
         11   -1    0    0    0    0 -0.00000000000E+00 -0.00000000000E+00 -0.45593999997E+02  0.45594000000E+02  0.51100000000E-03 0. -1.
    9900012    2    1    2    0    0  0.16389339713E+02 -0.16658428500E+02 -0.36571981974E+02  0.47787267727E+02  0.19999984877E+02 0.  0.
        -12    1    1    2    0    0 -0.16389339713E+02  0.16658428500E+02  0.36571981974E+02  0.43400732273E+02  0.00000000000E+00 0.  1.
         11    1    3    3    0    0  0.92460134157E+01  0.41949764686E+00 -0.15695618921E+02  0.18221339027E+02  0.51100000000E-03 0. -1.
        -11    1    3    3    0    0  0.81339626370E+01 -0.98623327596E+01 -0.89999955708E+01  0.15634157354E+02  0.51100000000E-03 0.  1.
        -12    1    3    3    0    0 -0.99063633946E+00 -0.72155933872E+01 -0.11876367482E+02  0.13931771347E+02  0.00000000000E+00 0.  1.
</event>
<event>
 7    1  0.1400974E-009  0.4778727E+02  0.7816164E-02  0.1312668E+00
        -11   -1    0    0    0    0  0.00000000000E+00  0.00000000000E+00  0.45593999997E+02  0.45594000000E+02  0.51100000000E-03 0.  1.
         11   -1    0    0    0    0 -0.00000000000E+00 -0.00000000000E+00 -0.45593999997E+02  0.45594000000E+02  0.51100000000E-03 0. -1.
    9900012    2    1    2    0    0 -0.99325139415E+01  0.35774920794E+02 -0.22474959471E+02  0.47787267354E+02  0.19999983173E+02 0.  0.
        -12    1    1    2    0    0  0.99325139415E+01 -0.35774920794E+02  0.22474959471E+02  0.43400732646E+02  0.00000000000E+00 0.  1.
         11    1    3    3    0    0 -0.60021876048E+01  0.29540679561E+02 -0.13998500315E+02  0.33236064994E+02  0.51100000000E-03 0. -1.
        -11    1    3    3    0    0  0.52334725365E+00  0.52785892795E+01 -0.84726404187E+01  0.99961509120E+01  0.51100000000E-03 0.  1.
         12    1    3    3    0    0 -0.44536735903E+01  0.95565195330E+00 -0.38187371269E-02  0.45550514473E+01  0.00000000000E+00 0. -1.
</event>
<event>
 7    1  0.1400974E-009  0.4778727E+02  0.7816164E-02  0.1312668E+00
        -11   -1    0    0    0    0  0.00000000000E+00  0.00000000000E+00  0.45593999997E+02  0.45594000000E+02  0.51100000000E-03 0.  1.
         11   -1    0    0    0    0 -0.00000000000E+00 -0.00000000000E+00 -0.45593999997E+02  0.45594000000E+02  0.51100000000E-03 0. -1.
    9900012    2    1    2    0    0 -0.51683039003E+01  0.37504483023E+02 -0.21220881235E+02  0.47787269449E+02  0.19999992725E+02 0.  0.
        -12    1    1    2    0    0  0.51683039003E+01 -0.37504483023E+02  0.21220881235E+02  0.43400730551E+02  0.00000000000E+00 0.  1.
         11    1    3    3    0    0 -0.27865140715E+01  0.23274365873E+02 -0.16641800091E+02  0.28747352539E+02  0.51100000000E-03 0. -1.
        -11    1    3    3    0    0 -0.70844602081E+01  0.82884165772E+01 -0.27088867802E+01  0.11235011956E+02  0.51100000000E-03 0.  1.
         12    1    3    3    0    0  0.47026703792E+01  0.59417005727E+01 -0.18701943629E+01  0.78049049543E+01  0.00000000000E+00 0. -1.
</event>
<event>
 7    1  0.1485124E-009  0.4778727E+02  0.7816164E-02  0.1312668E+00
        -11   -1    0    0    0    0  0.00000000000E+00  0.00000000000E+00  0.45593999997E+02  0.45594000000E+02  0.51100000000E-03 0. -1.
         11   -1    0    0    0    0 -0.00000000000E+00 -0.00000000000E+00 -0.45593999997E+02  0.45594000000E+02  0.51100000000E-03 0.  1.
    9900012    2    1    2    0    0  0.32184918352E+02  0.14866270650E+02  0.25034943999E+02  0.47787269667E+02  0.19999993720E+02 0.  0.
        -12    1    1    2    0    0 -0.32184918352E+02 -0.14866270650E+02 -0.25034943999E+02  0.43400730333E+02  0.00000000000E+00 0.  1.
         11    1    3    3    0    0  0.20463253285E+02  0.41688103540E+01  0.14433399932E+02  0.25385955736E+02  0.51100000000E-03 0.  1.
        -11    1    3    3    0    0  0.17179228995E+01  0.20586757258E+01  0.86307421850E+01  0.90376499024E+01  0.51100000000E-03 0. -1.
        -12    1    3    3    0    0  0.10003742168E+02  0.86387845699E+01  0.19708018818E+01  0.13363664028E+02  0.00000000000E+00 0.  1.
</event>
<event>
 7    1  0.1400974E-009  0.4778727E+02  0.7816164E-02  0.1312668E+00
        -11   -1    0    0    0    0  0.00000000000E+00  0.00000000000E+00  0.45593999997E+02  0.45594000000E+02  0.51100000000E-03 0.  1.
         11   -1    0    0    0    0 -0.00000000000E+00 -0.00000000000E+00 -0.45593999997E+02  0.45594000000E+02  0.51100000000E-03 0. -1.
    9900012    2    1    2    0    0 -0.97644418834E+01 -0.18027840316E+02 -0.38252793513E+02  0.47787267710E+02  0.19999984796E+02 0.  0.
        -12    1    1    2    0    0  0.97644418834E+01  0.18027840316E+02  0.38252793513E+02  0.43400732290E+02  0.00000000000E+00 0.  1.
         11    1    3    3    0    0 -0.72554630001E+01 -0.15444490683E+02 -0.39930399158E+02  0.43423620450E+02  0.51100000000E-03 0. -1.
        -11    1    3    3    0    0 -0.21176564294E+00 -0.13397456881E+00  0.87612520866E+00  0.91125710696E+00  0.51100000000E-03 0.  1.
         12    1    3    3    0    0 -0.22972132404E+01 -0.24493750637E+01  0.80148043629E+00  0.34523901524E+01  0.00000000000E+00 0. -1.
</event>
<event>
 7    1  0.1400974E-009  0.4778726E+02  0.7816164E-02  0.1312668E+00
        -11   -1    0    0    0    0  0.00000000000E+00  0.00000000000E+00  0.45593999997E+02  0.45594000000E+02  0.51100000000E-03 0.  1.
         11   -1    0    0    0    0 -0.00000000000E+00 -0.00000000000E+00 -0.45593999997E+02  0.45594000000E+02  0.51100000000E-03 0. -1.
    9900012    2    1    2    0    0 -0.34732438340E+02 -0.93408807523E+01 -0.24290531050E+02  0.47787260087E+02  0.19999950041E+02 0.  0.
        -12    1    1    2    0    0  0.34732438340E+02  0.93408807523E+01  0.24290531050E+02  0.43400739913E+02  0.00000000000E+00 0.  1.
         11    1    3    3    0    0 -0.14680658728E+02 -0.52583420656E+01 -0.59836086618E+01  0.16702558931E+02  0.51100000000E-03 0. -1.
        -11    1    3    3    0    0  0.22977148629E+01 -0.16575455657E+00 -0.84695538343E+00  0.24544453237E+01  0.51100000000E-03 0.  1.
         12    1    3    3    0    0 -0.22349494475E+02 -0.39167841301E+01 -0.17459967005E+02  0.28630255832E+02  0.00000000000E+00 0. -1.
</event>
<event>
 7    1  0.1400974E-009  0.4778727E+02  0.7816164E-02  0.1312668E+00
        -11   -1    0    0    0    0  0.00000000000E+00  0.00000000000E+00  0.45593999997E+02  0.45594000000E+02  0.51100000000E-03 0.  1.
         11   -1    0    0    0    0 -0.00000000000E+00 -0.00000000000E+00 -0.45593999997E+02  0.45594000000E+02  0.51100000000E-03 0. -1.
    9900012    2    1    2    0    0  0.34295811871E+02 -0.73856615470E+01 -0.25551364667E+02  0.47787274837E+02  0.20000017292E+02 0.  0.
        -12    1    1    2    0    0 -0.34295811871E+02  0.73856615470E+01  0.25551364667E+02  0.43400725163E+02  0.00000000000E+00 0.  1.
         11    1    3    3    0    0  0.94926613021E+01  0.93747904175E+00 -0.28095003560E+01  0.99439820023E+01  0.51100000000E-03 0. -1.
        -11    1    3    3    0    0  0.12391865586E+01 -0.64347192831E+01 -0.40163426820E+01  0.76858444156E+01  0.51100000000E-03 0.  1.
        -12    1    3    3    0    0  0.23563964010E+02 -0.18884213056E+01 -0.18725521628E+02  0.30157448419E+02  0.00000000000E+00 0.  1.
</event>
<event>
 7    1  0.1400974E-009  0.4778727E+02  0.7816164E-02  0.1312668E+00
        -11   -1    0    0    0    0  0.00000000000E+00  0.00000000000E+00  0.45593999997E+02  0.45594000000E+02  0.51100000000E-03 0.  1.
         11   -1    0    0    0    0 -0.00000000000E+00 -0.00000000000E+00 -0.45593999997E+02  0.45594000000E+02  0.51100000000E-03 0. -1.
    9900012    2    1    2    0    0 -0.30677331317E+02 -0.20983457296E+02 -0.22410247307E+02  0.47787270499E+02  0.19999997514E+02 0.  0.
        -12    1    1    2    0    0  0.30677331317E+02  0.20983457296E+02  0.22410247307E+02  0.43400729501E+02  0.00000000000E+00 0.  1.
         11    1    3    3    0    0 -0.17755403205E+02 -0.14864839824E+01 -0.92299936506E+01  0.20066309094E+02  0.51100000000E-03 0. -1.
        -11    1    3    3    0    0 -0.71710094294E+01 -0.62967068975E+01 -0.78860251374E+01  0.12379874261E+02  0.51100000000E-03 0.  1.
        -12    1    3    3    0    0 -0.57509186832E+01 -0.13200266416E+02 -0.52942285186E+01  0.15341087144E+02  0.00000000000E+00 0.  1.
</event>
<event>
 7    1  0.1400974E-009  0.4778726E+02  0.7816164E-02  0.1312668E+00
        -11   -1    0    0    0    0  0.00000000000E+00  0.00000000000E+00  0.45593999997E+02  0.45594000000E+02  0.51100000000E-03 0.  1.
         11   -1    0    0    0    0 -0.00000000000E+00 -0.00000000000E+00 -0.45593999997E+02  0.45594000000E+02  0.51100000000E-03 0. -1.
    9900012    2    1    2    0    0  0.28374022257E+02  0.13493029807E+02 -0.29941230681E+02  0.47787259371E+02  0.19999946775E+02 0.  0.
        -12    1    1    2    0    0 -0.28374022257E+02 -0.13493029807E+02  0.29941230681E+02  0.43400740629E+02  0.00000000000E+00 0.  1.
         11    1    3    3    0    0  0.13664790194E+02  0.51960093544E+01 -0.20753749951E+02  0.25385884691E+02  0.51100000000E-03 0. -1.
        -11    1    3    3    0    0  0.16020044767E+01  0.43730222147E-01 -0.64825828792E+01  0.66777400161E+01  0.51100000000E-03 0.  1.
        -12    1    3    3    0    0  0.13107227587E+02  0.82532902308E+01 -0.27048978508E+01  0.15723634663E+02  0.00000000000E+00 0.  1.
</event>
<event>
 7    1  0.1400974E-009  0.4778722E+02  0.7816164E-02  0.1312668E+00
        -11   -1    0    0    0    0  0.00000000000E+00  0.00000000000E+00  0.45593999997E+02  0.45594000000E+02  0.51100000000E-03 0. -1.
         11   -1    0    0    0    0 -0.00000000000E+00 -0.00000000000E+00 -0.45593999997E+02  0.45594000000E+02  0.51100000000E-03 0.  1.
    9900012    2    1    2    0    0  0.36273902948E+02 -0.89729103449E+01  0.22075293508E+02  0.47787219609E+02  0.19999765483E+02 0.  0.
        -12    1    1    2    0    0 -0.36273902948E+02  0.89729103449E+01 -0.22075293508E+02  0.43400780391E+02  0.00000000000E+00 0.  1.
         11    1    3    3    0    0  0.30193387391E+02 -0.12740570352E+02  0.13695432685E+02  0.35517990536E+02  0.51100000000E-03 0. -1.
        -11    1    3    3    0    0 -0.88960689901E+00 -0.21311588500E+00  0.11223329011E+01  0.14479123652E+01  0.51100000000E-03 0.  1.
         12    1    3    3    0    0  0.69701224555E+01  0.39807758919E+01  0.72575279219E+01  0.10821316708E+02  0.00000000000E+00 0. -1.
</event>
<event>
 7    1  0.1400974E-009  0.4778727E+02  0.7816164E-02  0.1312668E+00
        -11   -1    0    0    0    0  0.00000000000E+00  0.00000000000E+00  0.45593999997E+02  0.45594000000E+02  0.51100000000E-03 0.  1.
         11   -1    0    0    0    0 -0.00000000000E+00 -0.00000000000E+00 -0.45593999997E+02  0.45594000000E+02  0.51100000000E-03 0. -1.
    9900012    2    1    2    0    0  0.34656545522E+02 -0.14133707841E+02 -0.21972381327E+02  0.47787269752E+02  0.19999994108E+02 0.  0.
        -12    1    1    2    0    0 -0.34656545522E+02  0.14133707841E+02  0.21972381327E+02  0.43400730248E+02  0.00000000000E+00 0.  1.
         11    1    3    3    0    0  0.84785682451E+01 -0.52282725422E+01 -0.10139902121E+02  0.14214027175E+02  0.51100000000E-03 0. -1.
        -11    1    3    3    0    0  0.27285501208E+02 -0.68578533251E+01 -0.82822932241E+01  0.29327889622E+02  0.51100000000E-03 0.  1.
        -12    1    3    3    0    0 -0.11075239310E+01 -0.20475819738E+01 -0.35501859827E+01  0.42453529546E+01  0.00000000000E+00 0.  1.
</event>
<event>
 7    1  0.1400974E-009  0.4778727E+02  0.7816164E-02  0.1312668E+00
        -11   -1    0    0    0    0  0.00000000000E+00  0.00000000000E+00  0.45593999997E+02  0.45594000000E+02  0.51100000000E-03 0.  1.
         11   -1    0    0    0    0 -0.00000000000E+00 -0.00000000000E+00 -0.45593999997E+02  0.45594000000E+02  0.51100000000E-03 0. -1.
    9900012    2    1    2    0    0 -0.24958384965E+02 -0.12389694399E+02 -0.33274578939E+02  0.47787272921E+02  0.20000008558E+02 0.  0.
        -12    1    1    2    0    0  0.24958384965E+02  0.12389694399E+02  0.33274578939E+02  0.43400727079E+02  0.00000000000E+00 0.  1.
         11    1    3    3    0    0 -0.81342129051E+01 -0.69342699545E+01 -0.17726629257E+02  0.20699828610E+02  0.51100000000E-03 0. -1.
        -11    1    3    3    0    0 -0.17005543603E+02 -0.80730054768E+01 -0.10906745311E+02  0.21755896309E+02  0.51100000000E-03 0.  1.
        -12    1    3    3    0    0  0.18137154239E+00  0.26175810325E+01 -0.46412043706E+01  0.53315480029E+01  0.00000000000E+00 0.  1.
</event>
<event>
 7    1  0.1400974E-009  0.4778727E+02  0.7816164E-02  0.1312668E+00
        -11   -1    0    0    0    0  0.00000000000E+00  0.00000000000E+00  0.45593999997E+02  0.45594000000E+02  0.51100000000E-03 0.  1.
         11   -1    0    0    0    0 -0.00000000000E+00 -0.00000000000E+00 -0.45593999997E+02  0.45594000000E+02  0.51100000000E-03 0. -1.
    9900012    2    1    2    0    0  0.14862357631E+02  0.31639659427E+02  0.25722857634E+02  0.47787272726E+02  0.20000007667E+02 0.  0.
        -12    1    1    2    0    0 -0.14862357631E+02 -0.31639659427E+02 -0.25722857634E+02  0.43400727274E+02  0.00000000000E+00 0.  1.
         11    1    3    3    0    0  0.91220015010E+01  0.12097319244E+02  0.57111081058E+01  0.16191750996E+02  0.51100000000E-03 0. -1.
        -11    1    3    3    0    0  0.72106467570E+01  0.17644113477E+02  0.21529801737E+02  0.28754834900E+02  0.51100000000E-03 0.  1.
         12    1    3    3    0    0 -0.14702906265E+01  0.18982267069E+01 -0.15180522085E+01  0.28406868298E+01  0.00000000000E+00 0. -1.
</event>
<event>
 7    1  0.1400974E-009  0.4778727E+02  0.7816164E-02  0.1312668E+00
        -11   -1    0    0    0    0  0.00000000000E+00  0.00000000000E+00  0.45593999997E+02  0.45594000000E+02  0.51100000000E-03 0.  1.
         11   -1    0    0    0    0 -0.00000000000E+00 -0.00000000000E+00 -0.45593999997E+02  0.45594000000E+02  0.51100000000E-03 0. -1.
    9900012    2    1    2    0    0  0.22585327689E+02 -0.35490099278E+02  0.10676100795E+02  0.47787270723E+02  0.19999998535E+02 0.  0.
        -12    1    1    2    0    0 -0.22585327689E+02  0.35490099278E+02 -0.10676100795E+02  0.43400729277E+02  0.00000000000E+00 0.  1.
         11    1    3    3    0    0  0.99219512962E+01 -0.20735368444E+02  0.16242398793E+01  0.23044278628E+02  0.51100000000E-03 0. -1.
        -11    1    3    3    0    0  0.28888371418E+01 -0.62765460378E+00 -0.26394885907E+01  0.39631087059E+01  0.51100000000E-03 0.  1.
        -12    1    3    3    0    0  0.97745392509E+01 -0.14127076230E+02  0.11691349507E+02  0.20779883389E+02  0.00000000000E+00 0.  1.
</event>
<event>
 7    1  0.1400974E-009  0.4778727E+02  0.7816164E-02  0.1312668E+00
        -11   -1    0    0    0    0  0.00000000000E+00  0.00000000000E+00  0.45593999997E+02  0.45594000000E+02  0.51100000000E-03 0.  1.
         11   -1    0    0    0    0 -0.00000000000E+00 -0.00000000000E+00 -0.45593999997E+02  0.45594000000E+02  0.51100000000E-03 0. -1.
    9900012    2    1    2    0    0  0.34473907712E+02  0.25892404791E+02 -0.49755476679E+01  0.47787274045E+02  0.20000013682E+02 0.  0.
        -12    1    1    2    0    0 -0.34473907712E+02 -0.25892404791E+02  0.49755476679E+01  0.43400725955E+02  0.00000000000E+00 0.  1.
         11    1    3    3    0    0  0.16133101631E+02  0.67113384383E+01 -0.34663234740E+01  0.17813883085E+02  0.51100000000E-03 0. -1.
        -11    1    3    3    0    0  0.79784193315E+01  0.83655018452E+00  0.27458367812E+01  0.84790690014E+01  0.51100000000E-03 0.  1.
         12    1    3    3    0    0  0.10362386750E+02  0.18344516168E+02 -0.42550609751E+01  0.21494321959E+02  0.00000000000E+00 0. -1.
</event>
<event>
 7    1  0.1400974E-009  0.4778727E+02  0.7816164E-02  0.1312668E+00
        -11   -1    0    0    0    0  0.00000000000E+00  0.00000000000E+00  0.45593999997E+02  0.45594000000E+02  0.51100000000E-03 0.  1.
         11   -1    0    0    0    0 -0.00000000000E+00 -0.00000000000E+00 -0.45593999997E+02  0.45594000000E+02  0.51100000000E-03 0. -1.
    9900012    2    1    2    0    0 -0.30999701215E+02  0.30270992472E+02 -0.25117361494E+01  0.47787270984E+02  0.19999999725E+02 0.  0.
        -12    1    1    2    0    0  0.30999701215E+02 -0.30270992472E+02  0.25117361494E+01  0.43400729016E+02  0.00000000000E+00 0.  1.
         11    1    3    3    0    0 -0.89255051714E+00  0.17746179694E+01  0.13834317753E+01  0.24207021918E+01  0.51100000000E-03 0.  1.
        -11    1    3    3    0    0 -0.14798283927E+02  0.22743404777E+02  0.36090470635E+01  0.27372922551E+02  0.51100000000E-03 0. -1.
         12    1    3    3    0    0 -0.15308866770E+02  0.57529697256E+01 -0.75042149883E+01  0.17993646241E+02  0.00000000000E+00 0. -1.
</event>
<event>
 7    1  0.1400974E-009  0.4778727E+02  0.7816164E-02  0.1312668E+00
        -11   -1    0    0    0    0  0.00000000000E+00  0.00000000000E+00  0.45593999997E+02  0.45594000000E+02  0.51100000000E-03 0.  1.
         11   -1    0    0    0    0 -0.00000000000E+00 -0.00000000000E+00 -0.45593999997E+02  0.45594000000E+02  0.51100000000E-03 0. -1.
    9900012    2    1    2    0    0 -0.14755515484E+02  0.18253272019E+01 -0.40774580143E+02  0.47787269103E+02  0.19999991146E+02 0.  0.
        -12    1    1    2    0    0  0.14755515484E+02 -0.18253272019E+01  0.40774580143E+02  0.43400730897E+02  0.00000000000E+00 0.  1.
         11    1    3    3    0    0 -0.62791629910E+01  0.60525855235E+01 -0.27049044452E+02  0.28420282993E+02  0.51100000000E-03 0. -1.
        -11    1    3    3    0    0 -0.10398809619E+02 -0.42049641415E+01 -0.13298893989E+02  0.17397630486E+02  0.51100000000E-03 0.  1.
        -12    1    3    3    0    0  0.19224571260E+01 -0.22294180120E-01 -0.42664170252E+00  0.19693556241E+01  0.00000000000E+00 0.  1.
</event>
<event>
 7    1  0.1400974E-009  0.4778727E+02  0.7816164E-02  0.1312668E+00
        -11   -1    0    0    0    0  0.00000000000E+00  0.00000000000E+00  0.45593999997E+02  0.45594000000E+02  0.51100000000E-03 0.  1.
         11   -1    0    0    0    0 -0.00000000000E+00 -0.00000000000E+00 -0.45593999997E+02  0.45594000000E+02  0.51100000000E-03 0. -1.
    9900012    2    1    2    0    0  0.36411765789E+02 -0.23614729530E+02  0.38896568480E+00  0.47787269212E+02  0.19999991644E+02 0.  0.
        -12    1    1    2    0    0 -0.36411765789E+02  0.23614729530E+02 -0.38896568480E+00  0.43400730788E+02  0.00000000000E+00 0.  1.
         11    1    3    3    0    0  0.10945760742E+02 -0.22302789934E+01 -0.26107784625E+01  0.11471703755E+02  0.51100000000E-03 0. -1.
        -11    1    3    3    0    0  0.70231293673E+00 -0.75635291302E+01 -0.10504690235E+01  0.76683571771E+01  0.51100000000E-03 0.  1.
         12    1    3    3    0    0  0.24763692111E+02 -0.13820921406E+02  0.40502131708E+01  0.28647208279E+02  0.00000000000E+00 0. -1.
</event>
<event>
 7    1  0.1400974E-009  0.4778728E+02  0.7816164E-02  0.1312668E+00
        -11   -1    0    0    0    0  0.00000000000E+00  0.00000000000E+00  0.45593999997E+02  0.45594000000E+02  0.51100000000E-03 0. -1.
         11   -1    0    0    0    0 -0.00000000000E+00 -0.00000000000E+00 -0.45593999997E+02  0.45594000000E+02  0.51100000000E-03 0.  1.
    9900012    2    1    2    0    0  0.35506994214E+01 -0.20702269805E+02  0.37979352900E+02  0.47787277793E+02  0.20000030767E+02 0.  0.
        -12    1    1    2    0    0 -0.35506994214E+01  0.20702269805E+02 -0.37979352900E+02  0.43400722207E+02  0.00000000000E+00 0.  1.
         11    1    3    3    0    0 -0.41877834073E+01 -0.15756788327E+01  0.44760747737E+01  0.63289445638E+01  0.51100000000E-03 0. -1.
        -11    1    3    3    0    0  0.48073675959E+01 -0.21450168812E+00  0.38366434868E+01  0.61543990512E+01  0.51100000000E-03 0.  1.
         12    1    3    3    0    0  0.29311152328E+01 -0.18912089284E+02  0.29666634639E+02  0.35303934178E+02  0.00000000000E+00 0. -1.
</event>
<event>
 7    1  0.1400974E-009  0.4778727E+02  0.7816164E-02  0.1312668E+00
        -11   -1    0    0    0    0  0.00000000000E+00  0.00000000000E+00  0.45593999997E+02  0.45594000000E+02  0.51100000000E-03 0.  1.
         11   -1    0    0    0    0 -0.00000000000E+00 -0.00000000000E+00 -0.45593999997E+02  0.45594000000E+02  0.51100000000E-03 0. -1.
    9900012    2    1    2    0    0  0.16039094941E+02  0.38625781670E+02 -0.11593950609E+02  0.47787271125E+02  0.20000000368E+02 0.  0.
        -12    1    1    2    0    0 -0.16039094941E+02 -0.38625781670E+02  0.11593950609E+02  0.43400728875E+02  0.00000000000E+00 0.  1.
         11    1    3    3    0    0  0.13532805847E+02  0.17622001278E+02 -0.69201880052E+01  0.23271458171E+02  0.51100000000E-03 0. -1.
        -11    1    3    3    0    0  0.29547666197E+01  0.12959674353E+02  0.27348363830E+01  0.13570671885E+02  0.51100000000E-03 0.  1.
         12    1    3    3    0    0 -0.44847752547E+00  0.80441060385E+01 -0.74085989873E+01  0.10945141068E+02  0.00000000000E+00 0. -1.
</event>
<event>
 7    1  0.1400974E-009  0.4778727E+02  0.7816164E-02  0.1312668E+00
        -11   -1    0    0    0    0  0.00000000000E+00  0.00000000000E+00  0.45593999997E+02  0.45594000000E+02  0.51100000000E-03 0. -1.
         11   -1    0    0    0    0 -0.00000000000E+00 -0.00000000000E+00 -0.45593999997E+02  0.45594000000E+02  0.51100000000E-03 0.  1.
    9900012    2    1    2    0    0 -0.29258873078E+02 -0.22966153705E+02  0.22362857507E+02  0.47787271139E+02  0.20000000432E+02 0.  0.
        -12    1    1    2    0    0  0.29258873078E+02  0.22966153705E+02 -0.22362857507E+02  0.43400728861E+02  0.00000000000E+00 0.  1.
         11    1    3    3    0    0 -0.20987318284E+02 -0.86173948400E+01  0.88027888322E+01  0.24335490833E+02  0.51100000000E-03 0. -1.
        -11    1    3    3    0    0 -0.72294739354E+01 -0.71737922337E+01  0.12500943013E+02  0.16124582627E+02  0.51100000000E-03 0.  1.
         12    1    3    3    0    0 -0.10420808583E+01 -0.71749666311E+01  0.10591256615E+01  0.73271976799E+01  0.00000000000E+00 0. -1.
</event>
<event>
 7    1  0.1400974E-009  0.4778727E+02  0.7816164E-02  0.1312668E+00
        -11   -1    0    0    0    0  0.00000000000E+00  0.00000000000E+00  0.45593999997E+02  0.45594000000E+02  0.51100000000E-03 0.  1.
         11   -1    0    0    0    0 -0.00000000000E+00 -0.00000000000E+00 -0.45593999997E+02  0.45594000000E+02  0.51100000000E-03 0. -1.
    9900012    2    1    2    0    0 -0.36519947590E+02 -0.22564803394E+02 -0.63832956658E+01  0.47787269733E+02  0.19999994019E+02 0.  0.
        -12    1    1    2    0    0  0.36519947590E+02  0.22564803394E+02  0.63832956658E+01  0.43400730267E+02  0.00000000000E+00 0.  1.
         11    1    3    3    0    0 -0.17966391719E+02 -0.10049164749E+02 -0.18853324658E+01  0.20671996089E+02  0.51100000000E-03 0. -1.
        -11    1    3    3    0    0 -0.15406125641E+02 -0.13444865766E+02  0.12612496823E+01  0.20486675517E+02  0.51100000000E-03 0.  1.
         12    1    3    3    0    0 -0.31474302305E+01  0.92922712095E+00 -0.57592128824E+01  0.66285981265E+01  0.00000000000E+00 0. -1.
</event>
<event>
 7    1  0.1400974E-009  0.4778728E+02  0.7816164E-02  0.1312668E+00
        -11   -1    0    0    0    0  0.00000000000E+00  0.00000000000E+00  0.45593999997E+02  0.45594000000E+02  0.51100000000E-03 0. -1.
         11   -1    0    0    0    0 -0.00000000000E+00 -0.00000000000E+00 -0.45593999997E+02  0.45594000000E+02  0.51100000000E-03 0.  1.
    9900012    2    1    2    0    0 -0.21240309936E+02  0.31242019881E+02 -0.21363713212E+02  0.47787276335E+02  0.20000024124E+02 0.  0.
        -12    1    1    2    0    0  0.21240309936E+02 -0.31242019881E+02  0.21363713212E+02  0.43400723665E+02  0.00000000000E+00 0.  1.
         11    1    3    3    0    0 -0.82783767809E+01  0.66977475178E+01  0.25826541417E+01  0.10957255433E+02  0.51100000000E-03 0. -1.
        -11    1    3    3    0    0 -0.88967413197E+01  0.13098620597E+02 -0.13329519935E+02  0.20697873553E+02  0.51100000000E-03 0.  1.
         12    1    3    3    0    0 -0.40651918349E+01  0.11445651767E+02 -0.10616847418E+02  0.16132147350E+02  0.00000000000E+00 0. -1.
</event>
<event>
 7    1  0.1400974E-009  0.4778727E+02  0.7816164E-02  0.1312668E+00
        -11   -1    0    0    0    0  0.00000000000E+00  0.00000000000E+00  0.45593999997E+02  0.45594000000E+02  0.51100000000E-03 0. -1.
         11   -1    0    0    0    0 -0.00000000000E+00 -0.00000000000E+00 -0.45593999997E+02  0.45594000000E+02  0.51100000000E-03 0.  1.
    9900012    2    1    2    0    0  0.16011876992E+02  0.32895738702E+02  0.23347663665E+02  0.47787271571E+02  0.20000002401E+02 0.  0.
        -12    1    1    2    0    0 -0.16011876992E+02 -0.32895738702E+02 -0.23347663665E+02  0.43400728429E+02  0.00000000000E+00 0.  1.
         11    1    3    3    0    0  0.37633471069E+01  0.19852621816E+02  0.56106966759E+01  0.20970676953E+02  0.51100000000E-03 0. -1.
        -11    1    3    3    0    0  0.78688850334E+01  0.38177202839E+01  0.37934545511E+01  0.95333434600E+01  0.51100000000E-03 0.  1.
        -12    1    3    3    0    0  0.43796448518E+01  0.92253966022E+01  0.13943512438E+02  0.17283251158E+02  0.00000000000E+00 0.  1.
</event>
<event>
 7    1  0.1400974E-009  0.4778727E+02  0.7816164E-02  0.1312668E+00
        -11   -1    0    0    0    0  0.00000000000E+00  0.00000000000E+00  0.45593999997E+02  0.45594000000E+02  0.51100000000E-03 0.  1.
         11   -1    0    0    0    0 -0.00000000000E+00 -0.00000000000E+00 -0.45593999997E+02  0.45594000000E+02  0.51100000000E-03 0. -1.
    9900012    2    1    2    0    0 -0.20273391405E+02  0.30244267400E+02 -0.23619843202E+02  0.47787273018E+02  0.20000009001E+02 0.  0.
        -12    1    1    2    0    0  0.20273391405E+02 -0.30244267400E+02  0.23619843202E+02  0.43400726982E+02  0.00000000000E+00 0.  1.
         11    1    3    3    0    0 -0.82712894852E+01  0.83709656346E+01 -0.12773808054E+02  0.17368289146E+02  0.51100000000E-03 0. -1.
        -11    1    3    3    0    0 -0.10438000309E+01 -0.69782353889E+00  0.18992845844E+01  0.22767868564E+01  0.51100000000E-03 0.  1.
        -12    1    3    3    0    0 -0.10958301888E+02  0.22571125304E+02 -0.12745319733E+02  0.28142197016E+02  0.00000000000E+00 0.  1.
</event>
<event>
 7    1  0.1400974E-009  0.4778727E+02  0.7816164E-02  0.1312668E+00
        -11   -1    0    0    0    0  0.00000000000E+00  0.00000000000E+00  0.45593999997E+02  0.45594000000E+02  0.51100000000E-03 0.  1.
         11   -1    0    0    0    0 -0.00000000000E+00 -0.00000000000E+00 -0.45593999997E+02  0.45594000000E+02  0.51100000000E-03 0. -1.
    9900012    2    1    2    0    0  0.33050469272E+02  0.28120817698E+02  0.71362574004E+00  0.47787272255E+02  0.20000005520E+02 0.  0.
        -12    1    1    2    0    0 -0.33050469272E+02 -0.28120817698E+02 -0.71362574004E+00  0.43400727745E+02  0.00000000000E+00 0.  1.
         11    1    3    3    0    0  0.21311135671E+01  0.91221356394E+01  0.81327886412E+00  0.94030009269E+01  0.51100000000E-03 0. -1.
        -11    1    3    3    0    0  0.15415576537E+02  0.73462009287E+01  0.59255944866E+01  0.18075379342E+02  0.51100000000E-03 0.  1.
         12    1    3    3    0    0  0.15503779167E+02  0.11652481130E+02 -0.60252476107E+01  0.20308891987E+02  0.00000000000E+00 0. -1.
</event>
<event>
 7    1  0.1400974E-009  0.4778726E+02  0.7816164E-02  0.1312668E+00
        -11   -1    0    0    0    0  0.00000000000E+00  0.00000000000E+00  0.45593999997E+02  0.45594000000E+02  0.51100000000E-03 0. -1.
         11   -1    0    0    0    0 -0.00000000000E+00 -0.00000000000E+00 -0.45593999997E+02  0.45594000000E+02  0.51100000000E-03 0.  1.
    9900012    2    1    2    0    0 -0.26435140896E+02 -0.32268163311E+02 -0.11982185580E+02  0.47787264880E+02  0.19999971895E+02 0.  0.
        -12    1    1    2    0    0  0.26435140896E+02  0.32268163311E+02  0.11982185580E+02  0.43400735120E+02  0.00000000000E+00 0.  1.
         11    1    3    3    0    0 -0.18953415723E+02 -0.22797116809E+02 -0.34178181450E+01  0.29843290427E+02  0.51100000000E-03 0. -1.
        -11    1    3    3    0    0 -0.68886757944E+01 -0.87053321047E+00 -0.24026657865E+01  0.73474135186E+01  0.51100000000E-03 0.  1.
         12    1    3    3    0    0 -0.59304937909E+00 -0.86005132911E+01 -0.61617016489E+01  0.10596560935E+02  0.00000000000E+00 0. -1.
</event>
<event>
 7    1  0.1400974E-009  0.4778727E+02  0.7816164E-02  0.1312668E+00
        -11   -1    0    0    0    0  0.00000000000E+00  0.00000000000E+00  0.45593999997E+02  0.45594000000E+02  0.51100000000E-03 0. -1.
         11   -1    0    0    0    0 -0.00000000000E+00 -0.00000000000E+00 -0.45593999997E+02  0.45594000000E+02  0.51100000000E-03 0.  1.
    9900012    2    1    2    0    0  0.13002200781E+02 -0.11915416370E+02  0.39655878804E+02  0.47787273092E+02  0.20000009336E+02 0.  0.
        -12    1    1    2    0    0 -0.13002200781E+02  0.11915416370E+02 -0.39655878804E+02  0.43400726908E+02  0.00000000000E+00 0.  1.
         11    1    3    3    0    0 -0.31399671484E+01  0.95945933392E+00  0.23371877557E+01  0.40301864440E+01  0.51100000000E-03 0. -1.
        -11    1    3    3    0    0  0.61417291813E+01 -0.13141369650E+01  0.18354313686E+02  0.19399191335E+02  0.51100000000E-03 0.  1.
         12    1    3    3    0    0  0.10000438748E+02 -0.11560738739E+02  0.18964377362E+02  0.24357895313E+02  0.00000000000E+00 0. -1.
</event>
<event>
 7    1  0.1400974E-009  0.4778729E+02  0.7816164E-02  0.1312668E+00
        -11   -1    0    0    0    0  0.00000000000E+00  0.00000000000E+00  0.45593999997E+02  0.45594000000E+02  0.51100000000E-03 0. -1.
         11   -1    0    0    0    0 -0.00000000000E+00 -0.00000000000E+00 -0.45593999997E+02  0.45594000000E+02  0.51100000000E-03 0.  1.
    9900012    2    1    2    0    0  0.40686068945E+02 -0.12933843279E+02  0.78090354435E+01  0.47787290988E+02  0.20000090932E+02 0.  0.
        -12    1    1    2    0    0 -0.40686068945E+02  0.12933843279E+02 -0.78090354435E+01  0.43400709012E+02  0.00000000000E+00 0.  1.
         11    1    3    3    0    0  0.26685664707E+02 -0.98963151292E+01  0.11702028628E+02  0.30773352568E+02  0.51100000000E-03 0. -1.
        -11    1    3    3    0    0 -0.51209615855E+00  0.13080207060E+01 -0.48620266662E+00  0.14864568399E+01  0.51100000000E-03 0.  1.
        -12    1    3    3    0    0  0.14512500396E+02 -0.43455488560E+01 -0.34067905174E+01  0.15527481581E+02  0.00000000000E+00 0.  1.
</event>
<event>
 7    1  0.1400974E-009  0.4778727E+02  0.7816164E-02  0.1312668E+00
        -11   -1    0    0    0    0  0.00000000000E+00  0.00000000000E+00  0.45593999997E+02  0.45594000000E+02  0.51100000000E-03 0. -1.
         11   -1    0    0    0    0 -0.00000000000E+00 -0.00000000000E+00 -0.45593999997E+02  0.45594000000E+02  0.51100000000E-03 0.  1.
    9900012    2    1    2    0    0 -0.22173701214E+02  0.36623156451E+02  0.71200113445E+01  0.47787272177E+02  0.20000005165E+02 0.  0.
        -12    1    1    2    0    0  0.22173701214E+02 -0.36623156451E+02 -0.71200113445E+01  0.43400727823E+02  0.00000000000E+00 0.  1.
         11    1    3    3    0    0 -0.64808255974E+01  0.17808889770E+02 -0.16020845582E+01  0.19019051776E+02  0.51100000000E-03 0. -1.
        -11    1    3    3    0    0 -0.15704634655E+02  0.12697045834E+02  0.30469060733E+01  0.20423862501E+02  0.51100000000E-03 0.  1.
         12    1    3    3    0    0  0.11759038405E-01  0.61172208471E+01  0.56751898294E+01  0.83443579002E+01  0.00000000000E+00 0. -1.
</event>
<event>
 7    1  0.1400974E-009  0.4778730E+02  0.7816164E-02  0.1312668E+00
        -11   -1    0    0    0    0  0.00000000000E+00  0.00000000000E+00  0.45593999997E+02  0.45594000000E+02  0.51100000000E-03 0.  1.
         11   -1    0    0    0    0 -0.00000000000E+00 -0.00000000000E+00 -0.45593999997E+02  0.45594000000E+02  0.51100000000E-03 0. -1.
    9900012    2    1    2    0    0  0.76301770186E+01  0.21627799906E+02 -0.36846162936E+02  0.47787296628E+02  0.20000116645E+02 0.  0.
        -12    1    1    2    0    0 -0.76301770186E+01 -0.21627799906E+02  0.36846162936E+02  0.43400703372E+02  0.00000000000E+00 0.  1.
         11    1    3    3    0    0  0.10512732109E+02  0.22063114181E+02 -0.35443048911E+02  0.43052389714E+02  0.51100000000E-03 0. -1.
        -11    1    3    3    0    0 -0.21816665201E+01 -0.99042222059E-01 -0.25449623047E+01  0.33535520810E+01  0.51100000000E-03 0.  1.
         12    1    3    3    0    0 -0.70088856989E+00 -0.33627205232E+00  0.11418482797E+01  0.13813548329E+01  0.00000000000E+00 0. -1.
</event>
<event>
 7    1  0.1400974E-009  0.4778732E+02  0.7816164E-02  0.1312668E+00
        -11   -1    0    0    0    0  0.00000000000E+00  0.00000000000E+00  0.45593999997E+02  0.45594000000E+02  0.51100000000E-03 0.  1.
         11   -1    0    0    0    0 -0.00000000000E+00 -0.00000000000E+00 -0.45593999997E+02  0.45594000000E+02  0.51100000000E-03 0. -1.
    9900012    2    1    2    0    0  0.36260069396E+02 -0.22454683582E+02  0.80382595863E+01  0.47787319538E+02  0.20000221101E+02 0.  0.
        -12    1    1    2    0    0 -0.36260069396E+02  0.22454683582E+02 -0.80382595863E+01  0.43400680462E+02  0.00000000000E+00 0.  1.
         11    1    3    3    0    0  0.14890598066E+02 -0.41837050735E+01  0.21102456775E+01  0.15610459186E+02  0.51100000000E-03 0. -1.
        -11    1    3    3    0    0  0.20373026608E+02 -0.90683471937E+01  0.51552101986E+01  0.22888235547E+02  0.51100000000E-03 0.  1.
        -12    1    3    3    0    0  0.99644472141E+00 -0.92026313146E+01  0.77280371019E+00  0.92886248051E+01  0.00000000000E+00 0.  1.
</event>
<event>
 7    1  0.1400974E-009  0.4778727E+02  0.7816164E-02  0.1312668E+00
        -11   -1    0    0    0    0  0.00000000000E+00  0.00000000000E+00  0.45593999997E+02  0.45594000000E+02  0.51100000000E-03 0.  1.
         11   -1    0    0    0    0 -0.00000000000E+00 -0.00000000000E+00 -0.45593999997E+02  0.45594000000E+02  0.51100000000E-03 0. -1.
    9900012    2    1    2    0    0  0.76292812545E+01  0.32093574043E+02 -0.28203188707E+02  0.47787270967E+02  0.19999999649E+02 0.  0.
        -12    1    1    2    0    0 -0.76292812545E+01 -0.32093574043E+02  0.28203188707E+02  0.43400729033E+02  0.00000000000E+00 0.  1.
         11    1    3    3    0    0 -0.44322508636E+01  0.79624019215E+01 -0.12391735236E+02  0.15381800756E+02  0.51100000000E-03 0. -1.
        -11    1    3    3    0    0  0.29159122378E+01  0.11872861060E+02 -0.33471197248E+01  0.12675590110E+02  0.51100000000E-03 0.  1.
        -12    1    3    3    0    0  0.91456198802E+01  0.12258311062E+02 -0.12464333745E+02  0.19729880101E+02  0.00000000000E+00 0.  1.
</event>
<event>
 7    1  0.1400974E-009  0.4778727E+02  0.7816164E-02  0.1312668E+00
        -11   -1    0    0    0    0  0.00000000000E+00  0.00000000000E+00  0.45593999997E+02  0.45594000000E+02  0.51100000000E-03 0.  1.
         11   -1    0    0    0    0 -0.00000000000E+00 -0.00000000000E+00 -0.45593999997E+02  0.45594000000E+02  0.51100000000E-03 0. -1.
    9900012    2    1    2    0    0 -0.82404918843E+01  0.25731459310E+02 -0.33964828123E+02  0.47787271272E+02  0.20000001036E+02 0.  0.
        -12    1    1    2    0    0  0.82404918843E+01 -0.25731459310E+02  0.33964828123E+02  0.43400728728E+02  0.00000000000E+00 0.  1.
         11    1    3    3    0    0 -0.52370897405E+01  0.19761664275E+01 -0.13990697945E+02  0.15068907457E+02  0.51100000000E-03 0. -1.
        -11    1    3    3    0    0  0.10365213489E+01  0.43764207806E+01  0.13653823302E+00  0.44995642351E+01  0.51100000000E-03 0.  1.
         12    1    3    3    0    0 -0.40399234927E+01  0.19378872102E+02 -0.20110668411E+02  0.28218799579E+02  0.00000000000E+00 0. -1.
</event>
<event>
 7    1  0.1400974E-009  0.4778727E+02  0.7816164E-02  0.1312668E+00
        -11   -1    0    0    0    0  0.00000000000E+00  0.00000000000E+00  0.45593999997E+02  0.45594000000E+02  0.51100000000E-03 0.  1.
         11   -1    0    0    0    0 -0.00000000000E+00 -0.00000000000E+00 -0.45593999997E+02  0.45594000000E+02  0.51100000000E-03 0. -1.
    9900012    2    1    2    0    0 -0.25280072573E+02 -0.35037875027E+02 -0.41095688006E+01  0.47787270612E+02  0.19999998027E+02 0.  0.
        -12    1    1    2    0    0  0.25280072573E+02  0.35037875027E+02  0.41095688006E+01  0.43400729388E+02  0.00000000000E+00 0.  1.
         11    1    3    3    0    0 -0.66874469582E+01 -0.19541611362E+02 -0.27655529350E+01  0.20838541329E+02  0.51100000000E-03 0. -1.
        -11    1    3    3    0    0 -0.54598287151E+01 -0.20304225529E+01 -0.51298841994E+01  0.77619622199E+01  0.51100000000E-03 0.  1.
         12    1    3    3    0    0 -0.13132796900E+02 -0.13465841112E+02  0.37858683339E+01  0.19186767062E+02  0.00000000000E+00 0. -1.
</event>
<event>
 7    1  0.1400974E-009  0.4778725E+02  0.7816164E-02  0.1312668E+00
        -11   -1    0    0    0    0  0.00000000000E+00  0.00000000000E+00  0.45593999997E+02  0.45594000000E+02  0.51100000000E-03 0.  1.
         11   -1    0    0    0    0 -0.00000000000E+00 -0.00000000000E+00 -0.45593999997E+02  0.45594000000E+02  0.51100000000E-03 0. -1.
    9900012    2    1    2    0    0  0.32782649332E+02 -0.20633821063E+02 -0.19574690300E+02  0.47787249209E+02  0.19999900444E+02 0.  0.
        -12    1    1    2    0    0 -0.32782649332E+02  0.20633821063E+02  0.19574690300E+02  0.43400750791E+02  0.00000000000E+00 0.  1.
         11    1    3    3    0    0  0.13155408983E+02 -0.13074527125E+02 -0.92957286617E+01  0.20746532642E+02  0.51100000000E-03 0. -1.
        -11    1    3    3    0    0  0.35080872850E+01  0.59324552331E+00 -0.80991049630E+01  0.88461357729E+01  0.51100000000E-03 0.  1.
         12    1    3    3    0    0  0.16119153064E+02 -0.81525394615E+01 -0.21798566753E+01  0.18194580795E+02  0.00000000000E+00 0. -1.
</event>
<event>
 7    1  0.1400974E-009  0.4778727E+02  0.7816164E-02  0.1312668E+00
        -11   -1    0    0    0    0  0.00000000000E+00  0.00000000000E+00  0.45593999997E+02  0.45594000000E+02  0.51100000000E-03 0.  1.
         11   -1    0    0    0    0 -0.00000000000E+00 -0.00000000000E+00 -0.45593999997E+02  0.45594000000E+02  0.51100000000E-03 0. -1.
    9900012    2    1    2    0    0 -0.13850651987E+02 -0.41125358563E+02 -0.69812447273E+00  0.47787273564E+02  0.20000011487E+02 0.  0.
        -12    1    1    2    0    0  0.13850651987E+02  0.41125358563E+02  0.69812447273E+00  0.43400726436E+02  0.00000000000E+00 0.  1.
         11    1    3    3    0    0 -0.56164675841E+01 -0.14902934278E+02 -0.10577795131E+01  0.15961236042E+02  0.51100000000E-03 0. -1.
        -11    1    3    3    0    0 -0.28633240060E+01  0.15348348448E+01  0.13936113514E+01  0.35350382210E+01  0.51100000000E-03 0.  1.
        -12    1    3    3    0    0 -0.53708603966E+01 -0.27757259130E+02 -0.10339563109E+01  0.28290999301E+02  0.00000000000E+00 0.  1.
</event>
<event>
 7    1  0.1400974E-009  0.4778727E+02  0.7816164E-02  0.1312668E+00
        -11   -1    0    0    0    0  0.00000000000E+00  0.00000000000E+00  0.45593999997E+02  0.45594000000E+02  0.51100000000E-03 0.  1.
         11   -1    0    0    0    0 -0.00000000000E+00 -0.00000000000E+00 -0.45593999997E+02  0.45594000000E+02  0.51100000000E-03 0. -1.
    9900012    2    1    2    0    0 -0.10751495783E+02  0.20001702503E+02 -0.36985948979E+02  0.47787272052E+02  0.20000004592E+02 0.  0.
        -12    1    1    2    0    0  0.10751495783E+02 -0.20001702503E+02  0.36985948979E+02  0.43400727948E+02  0.00000000000E+00 0.  1.
         11    1    3    3    0    0  0.20747695146E+01  0.70924251186E+01 -0.66335686316E+01  0.99303270668E+01  0.51100000000E-03 0. -1.
        -11    1    3    3    0    0 -0.58923660936E+01  0.17927073935E+01 -0.17598136334E+01  0.64055227941E+01  0.51100000000E-03 0.  1.
         12    1    3    3    0    0 -0.69338992039E+01  0.11116569991E+02 -0.28592566714E+02  0.31451422191E+02  0.00000000000E+00 0. -1.
</event>
<event>
 7    1  0.1400974E-009  0.4778727E+02  0.7816164E-02  0.1312668E+00
        -11   -1    0    0    0    0  0.00000000000E+00  0.00000000000E+00  0.45593999997E+02  0.45594000000E+02  0.51100000000E-03 0. -1.
         11   -1    0    0    0    0 -0.00000000000E+00 -0.00000000000E+00 -0.45593999997E+02  0.45594000000E+02  0.51100000000E-03 0.  1.
    9900012    2    1    2    0    0 -0.38579174963E+02  0.14181393934E+02  0.13934098331E+02  0.47787265316E+02  0.19999973884E+02 0.  0.
        -12    1    1    2    0    0  0.38579174963E+02 -0.14181393934E+02 -0.13934098331E+02  0.43400734684E+02  0.00000000000E+00 0.  1.
         11    1    3    3    0    0 -0.25650555747E+02  0.12478926008E+02  0.15359086416E+02  0.32397162534E+02  0.51100000000E-03 0. -1.
        -11    1    3    3    0    0 -0.44573993944E+01  0.37542394051E+01  0.17954049531E+01  0.60980490388E+01  0.51100000000E-03 0.  1.
        -12    1    3    3    0    0 -0.84712198216E+01 -0.20517714784E+01 -0.32203930377E+01  0.92920537440E+01  0.00000000000E+00 0.  1.
</event>
<event>
 7    1  0.1400974E-009  0.4778727E+02  0.7816164E-02  0.1312668E+00
        -11   -1    0    0    0    0  0.00000000000E+00  0.00000000000E+00  0.45593999997E+02  0.45594000000E+02  0.51100000000E-03 0.  1.
         11   -1    0    0    0    0 -0.00000000000E+00 -0.00000000000E+00 -0.45593999997E+02  0.45594000000E+02  0.51100000000E-03 0. -1.
    9900012    2    1    2    0    0  0.64276233199E+01 -0.41873261111E+02 -0.94307467305E+01  0.47787270495E+02  0.19999997496E+02 0.  0.
        -12    1    1    2    0    0 -0.64276233199E+01  0.41873261111E+02  0.94307467305E+01  0.43400729505E+02  0.00000000000E+00 0.  1.
         11    1    3    3    0    0 -0.80903795954E+00 -0.26511045673E+02 -0.56989311127E+01  0.27128728337E+02  0.51100000000E-03 0. -1.
        -11    1    3    3    0    0  0.32383370928E+01 -0.15719204459E+02 -0.16424880146E+01  0.16133133083E+02  0.51100000000E-03 0.  1.
        -12    1    3    3    0    0  0.39983241867E+01  0.35698902040E+00 -0.20893276033E+01  0.45254090750E+01  0.00000000000E+00 0.  1.
</event>
<event>
 7    1  0.1400974E-009  0.4778727E+02  0.7816164E-02  0.1312668E+00
        -11   -1    0    0    0    0  0.00000000000E+00  0.00000000000E+00  0.45593999997E+02  0.45594000000E+02  0.51100000000E-03 0.  1.
         11   -1    0    0    0    0 -0.00000000000E+00 -0.00000000000E+00 -0.45593999997E+02  0.45594000000E+02  0.51100000000E-03 0. -1.
    9900012    2    1    2    0    0  0.36597974154E+02  0.11475709995E+02 -0.20310583263E+02  0.47787269309E+02  0.19999992087E+02 0.  0.
        -12    1    1    2    0    0 -0.36597974154E+02 -0.11475709995E+02  0.20310583263E+02  0.43400730691E+02  0.00000000000E+00 0.  1.
         11    1    3    3    0    0  0.14623508586E+02  0.74245397732E+01 -0.26074048243E+01  0.16606304658E+02  0.51100000000E-03 0. -1.
        -11    1    3    3    0    0  0.20088600907E+02  0.69502330938E+01 -0.17793628775E+02  0.27721306818E+02  0.51100000000E-03 0.  1.
        -12    1    3    3    0    0  0.18858646609E+01 -0.28990628724E+01  0.90450336555E-01  0.34596578329E+01  0.00000000000E+00 0.  1.
</event>
<event>
 7    1  0.1710812E-009  0.4778727E+02  0.7816164E-02  0.1312668E+00
        -11   -1    0    0    0    0  0.00000000000E+00  0.00000000000E+00  0.45593999997E+02  0.45594000000E+02  0.51100000000E-03 0.  1.
         11   -1    0    0    0    0 -0.00000000000E+00 -0.00000000000E+00 -0.45593999997E+02  0.45594000000E+02  0.51100000000E-03 0. -1.
    9900012    2    1    2    0    0 -0.21747590965E+02 -0.34821982620E+02 -0.14074632840E+02  0.47787268716E+02  0.19999989384E+02 0.  0.
        -12    1    1    2    0    0  0.21747590965E+02  0.34821982620E+02  0.14074632840E+02  0.43400731284E+02  0.00000000000E+00 0.  1.
         11    1    3    3    0    0 -0.23241268739E+02 -0.34998986499E+02 -0.15717637865E+02  0.44856769488E+02  0.51100000000E-03 0. -1.
        -11    1    3    3    0    0  0.10318286232E+01 -0.74135859398E+00  0.43187876342E+00  0.13419397900E+01  0.51100000000E-03 0.  1.
         12    1    3    3    0    0  0.46184915050E+00  0.91836247269E+00  0.12111262614E+01  0.15885594386E+01  0.00000000000E+00 0. -1.
</event>
<event>
 7    1  0.1400974E-009  0.4778729E+02  0.7816164E-02  0.1312668E+00
        -11   -1    0    0    0    0  0.00000000000E+00  0.00000000000E+00  0.45593999997E+02  0.45594000000E+02  0.51100000000E-03 0.  1.
         11   -1    0    0    0    0 -0.00000000000E+00 -0.00000000000E+00 -0.45593999997E+02  0.45594000000E+02  0.51100000000E-03 0. -1.
    9900012    2    1    2    0    0  0.31505997280E+02 -0.30304048481E+00 -0.29847983020E+02  0.47787288157E+02  0.20000078023E+02 0.  0.
        -12    1    1    2    0    0 -0.31505997280E+02  0.30304048481E+00  0.29847983020E+02  0.43400711843E+02  0.00000000000E+00 0.  1.
         11    1    3    3    0    0  0.29479633723E+02 -0.25059568007E+01 -0.27208304523E+02  0.40194781492E+02  0.51100000000E-03 0. -1.
        -11    1    3    3    0    0 -0.46675625779E+00 -0.82908398777E+00 -0.34547675404E+01  0.35833867615E+01  0.51100000000E-03 0.  1.
        -12    1    3    3    0    0  0.24931198144E+01  0.30320003037E+01  0.81508904330E+00  0.40091199033E+01  0.00000000000E+00 0.  1.
</event>
<event>
 7    1  0.1543459E-009  0.4778726E+02  0.7816164E-02  0.1312668E+00
        -11   -1    0    0    0    0  0.00000000000E+00  0.00000000000E+00  0.45593999997E+02  0.45594000000E+02  0.51100000000E-03 0. -1.
         11   -1    0    0    0    0 -0.00000000000E+00 -0.00000000000E+00 -0.45593999997E+02  0.45594000000E+02  0.51100000000E-03 0.  1.
    9900012    2    1    2    0    0  0.28932194584E+02 -0.43778988576E+01  0.32052868926E+02  0.47787259359E+02  0.19999946720E+02 0.  0.
        -12    1    1    2    0    0 -0.28932194584E+02  0.43778988576E+01 -0.32052868926E+02  0.43400740641E+02  0.00000000000E+00 0.  1.
         11    1    3    3    0    0  0.68792892562E+01 -0.13586626558E+01  0.18566521875E+02  0.19846569469E+02  0.51100000000E-03 0. -1.
        -11    1    3    3    0    0  0.23732243729E+01  0.13801389053E+01 -0.11979004648E+01  0.29953202010E+01  0.51100000000E-03 0.  1.
         12    1    3    3    0    0  0.19679680955E+02 -0.43993751071E+01  0.14684247515E+02  0.24945369689E+02  0.00000000000E+00 0. -1.
</event>
<event>
 7    1  0.1400974E-009  0.4778727E+02  0.7816164E-02  0.1312668E+00
        -11   -1    0    0    0    0  0.00000000000E+00  0.00000000000E+00  0.45593999997E+02  0.45594000000E+02  0.51100000000E-03 0.  1.
         11   -1    0    0    0    0 -0.00000000000E+00 -0.00000000000E+00 -0.45593999997E+02  0.45594000000E+02  0.51100000000E-03 0. -1.
    9900012    2    1    2    0    0  0.11481464113E+02 -0.14657515576E+02 -0.39204034420E+02  0.47787273095E+02  0.20000009350E+02 0.  0.
        -12    1    1    2    0    0 -0.11481464113E+02  0.14657515576E+02  0.39204034420E+02  0.43400726905E+02  0.00000000000E+00 0.  1.
         11    1    3    3    0    0  0.33456709448E+01 -0.22553484819E+01 -0.18693109711E+02  0.19123610062E+02  0.51100000000E-03 0. -1.
        -11    1    3    3    0    0 -0.15836046398E+01  0.16122140908E+01 -0.54905537919E+01  0.59374421372E+01  0.51100000000E-03 0.  1.
         12    1    3    3    0    0  0.97193978075E+01 -0.14014381185E+02 -0.15020370917E+02  0.22726220896E+02  0.00000000000E+00 0. -1.
</event>
<event>
 7    1  0.1400974E-009  0.4778726E+02  0.7816164E-02  0.1312668E+00
        -11   -1    0    0    0    0  0.00000000000E+00  0.00000000000E+00  0.45593999997E+02  0.45594000000E+02  0.51100000000E-03 0. -1.
         11   -1    0    0    0    0 -0.00000000000E+00 -0.00000000000E+00 -0.45593999997E+02  0.45594000000E+02  0.51100000000E-03 0.  1.
    9900012    2    1    2    0    0  0.13135373716E+02  0.36850442830E+02  0.18791789869E+02  0.47787256390E+02  0.19999933186E+02 0.  0.
        -12    1    1    2    0    0 -0.13135373716E+02 -0.36850442830E+02 -0.18791789869E+02  0.43400743610E+02  0.00000000000E+00 0.  1.
         11    1    3    3    0    0  0.64254501961E+01  0.25150771652E+01  0.35434969399E+01  0.77568288749E+01  0.51100000000E-03 0.  1.
        -11    1    3    3    0    0  0.63689437494E+01  0.21149871586E+02  0.15249042025E+02  0.26840525247E+02  0.51100000000E-03 0. -1.
         12    1    3    3    0    0  0.34097977074E+00  0.13185494078E+02 -0.74909569513E-03  0.13189902269E+02  0.00000000000E+00 0. -1.
</event>
<event>
 7    1  0.1400974E-009  0.4778728E+02  0.7816164E-02  0.1312668E+00
        -11   -1    0    0    0    0  0.00000000000E+00  0.00000000000E+00  0.45593999997E+02  0.45594000000E+02  0.51100000000E-03 0. -1.
         11   -1    0    0    0    0 -0.00000000000E+00 -0.00000000000E+00 -0.45593999997E+02  0.45594000000E+02  0.51100000000E-03 0.  1.
    9900012    2    1    2    0    0 -0.15953213481E+02  0.40168853542E+02  0.39472459877E+01  0.47787279198E+02  0.20000037174E+02 0.  0.
        -12    1    1    2    0    0  0.15953213481E+02 -0.40168853542E+02 -0.39472459877E+01  0.43400720802E+02  0.00000000000E+00 0.  1.
         11    1    3    3    0    0 -0.11652178596E+02  0.12125732378E+02  0.45055271231E+01  0.17409951943E+02  0.51100000000E-03 0. -1.
        -11    1    3    3    0    0  0.11927924866E+01  0.76109906290E+01 -0.44024858245E+01  0.88730949486E+01  0.51100000000E-03 0.  1.
         12    1    3    3    0    0 -0.54938273719E+01  0.20432130535E+02  0.38442046891E+01  0.21504232306E+02  0.00000000000E+00 0. -1.
</event>
<event>
 7    1  0.1400974E-009  0.4778727E+02  0.7816164E-02  0.1312668E+00
        -11   -1    0    0    0    0  0.00000000000E+00  0.00000000000E+00  0.45593999997E+02  0.45594000000E+02  0.51100000000E-03 0.  1.
         11   -1    0    0    0    0 -0.00000000000E+00 -0.00000000000E+00 -0.45593999997E+02  0.45594000000E+02  0.51100000000E-03 0. -1.
    9900012    2    1    2    0    0 -0.26471229575E+02 -0.25928520771E+02 -0.22596666372E+02  0.47787268259E+02  0.19999987298E+02 0.  0.
        -12    1    1    2    0    0  0.26471229575E+02  0.25928520771E+02  0.22596666372E+02  0.43400731741E+02  0.00000000000E+00 0.  1.
         11    1    3    3    0    0 -0.13440364276E+02 -0.15171153298E+02 -0.10295640225E+02  0.22733400365E+02  0.51100000000E-03 0. -1.
        -11    1    3    3    0    0 -0.11757800742E+02 -0.86797461363E+00 -0.76268907888E+01  0.14041678019E+02  0.51100000000E-03 0.  1.
         12    1    3    3    0    0 -0.12730645572E+01 -0.98893928590E+01 -0.46741353578E+01  0.11012189874E+02  0.00000000000E+00 0. -1.
</event>
<event>
 7    1  0.1400974E-009  0.4778727E+02  0.7816164E-02  0.1312668E+00
        -11   -1    0    0    0    0  0.00000000000E+00  0.00000000000E+00  0.45593999997E+02  0.45594000000E+02  0.51100000000E-03 0.  1.
         11   -1    0    0    0    0 -0.00000000000E+00 -0.00000000000E+00 -0.45593999997E+02  0.45594000000E+02  0.51100000000E-03 0. -1.
    9900012    2    1    2    0    0 -0.18952277749E+02  0.21273772482E+02 -0.32739284240E+02  0.47787274660E+02  0.20000016485E+02 0.  0.
        -12    1    1    2    0    0  0.18952277749E+02 -0.21273772482E+02  0.32739284240E+02  0.43400725340E+02  0.00000000000E+00 0.  1.
         11    1    3    3    0    0 -0.75380890270E+01  0.88603267179E+01 -0.22118961631E+02  0.24991531358E+02  0.51100000000E-03 0. -1.
        -11    1    3    3    0    0 -0.12082330898E+01 -0.18890178802E+01  0.42811346906E-01  0.22427770339E+01  0.51100000000E-03 0.  1.
        -12    1    3    3    0    0 -0.10205955632E+02  0.14302463644E+02 -0.10663133956E+02  0.20552966268E+02  0.00000000000E+00 0.  1.
</event>
<event>
 7    1  0.1400974E-009  0.4778727E+02  0.7816164E-02  0.1312668E+00
        -11   -1    0    0    0    0  0.00000000000E+00  0.00000000000E+00  0.45593999997E+02  0.45594000000E+02  0.51100000000E-03 0.  1.
         11   -1    0    0    0    0 -0.00000000000E+00 -0.00000000000E+00 -0.45593999997E+02  0.45594000000E+02  0.51100000000E-03 0. -1.
    9900012    2    1    2    0    0 -0.18515672688E+02 -0.21085607049E+02 -0.33108771152E+02  0.47787266286E+02  0.19999978303E+02 0.  0.
        -12    1    1    2    0    0  0.18515672688E+02  0.21085607049E+02  0.33108771152E+02  0.43400733714E+02  0.00000000000E+00 0.  1.
         11    1    3    3    0    0 -0.13315550806E+02 -0.82308181955E+01 -0.22891961729E+02  0.27732511128E+02  0.51100000000E-03 0. -1.
        -11    1    3    3    0    0  0.15282923295E+01  0.10175581924E+01 -0.12069362772E+01  0.21972249675E+01  0.51100000000E-03 0.  1.
         12    1    3    3    0    0 -0.67284142122E+01 -0.13872347046E+02 -0.90098731456E+01  0.17857530190E+02  0.00000000000E+00 0. -1.
</event>
<event>
 7    1  0.1400974E-009  0.4778728E+02  0.7816164E-02  0.1312668E+00
        -11   -1    0    0    0    0  0.00000000000E+00  0.00000000000E+00  0.45593999997E+02  0.45594000000E+02  0.51100000000E-03 0. -1.
         11   -1    0    0    0    0 -0.00000000000E+00 -0.00000000000E+00 -0.45593999997E+02  0.45594000000E+02  0.51100000000E-03 0.  1.
    9900012    2    1    2    0    0 -0.25229437369E+02 -0.29168681354E+02  0.19906943868E+02  0.47787275398E+02  0.20000019848E+02 0.  0.
        -12    1    1    2    0    0  0.25229437369E+02  0.29168681354E+02 -0.19906943868E+02  0.43400724602E+02  0.00000000000E+00 0.  1.
         11    1    3    3    0    0 -0.65380269039E+01 -0.16281097151E+02  0.69255434164E+01  0.18862212810E+02  0.51100000000E-03 0. -1.
        -11    1    3    3    0    0 -0.13856187059E+02 -0.36012451007E+01  0.33593407318E+01  0.14705375089E+02  0.51100000000E-03 0.  1.
         12    1    3    3    0    0 -0.48352234062E+01 -0.92863391022E+01  0.96220597194E+01  0.14219687498E+02  0.00000000000E+00 0. -1.
</event>
<event>
 7    1  0.1400974E-009  0.4778727E+02  0.7816164E-02  0.1312668E+00
        -11   -1    0    0    0    0  0.00000000000E+00  0.00000000000E+00  0.45593999997E+02  0.45594000000E+02  0.51100000000E-03 0.  1.
         11   -1    0    0    0    0 -0.00000000000E+00 -0.00000000000E+00 -0.45593999997E+02  0.45594000000E+02  0.51100000000E-03 0. -1.
    9900012    2    1    2    0    0 -0.18153620431E+02 -0.19662779989E+02 -0.34167882335E+02  0.47787273797E+02  0.20000012552E+02 0.  0.
        -12    1    1    2    0    0  0.18153620431E+02  0.19662779989E+02  0.34167882335E+02  0.43400726203E+02  0.00000000000E+00 0.  1.
         11    1    3    3    0    0 -0.96246197457E+01 -0.15162536859E+02 -0.25950987140E+02  0.31559302322E+02  0.51100000000E-03 0. -1.
        -11    1    3    3    0    0  0.16852191620E+01  0.61377473161E+00 -0.33735221497E+01  0.38206458879E+01  0.51100000000E-03 0.  1.
         12    1    3    3    0    0 -0.10214219847E+02 -0.51140178616E+01 -0.48433730455E+01  0.12407325587E+02  0.00000000000E+00 0. -1.
</event>
<event>
 7    1  0.1400974E-009  0.4778727E+02  0.7816164E-02  0.1312668E+00
        -11   -1    0    0    0    0  0.00000000000E+00  0.00000000000E+00  0.45593999997E+02  0.45594000000E+02  0.51100000000E-03 0. -1.
         11   -1    0    0    0    0 -0.00000000000E+00 -0.00000000000E+00 -0.45593999997E+02  0.45594000000E+02  0.51100000000E-03 0.  1.
    9900012    2    1    2    0    0 -0.26299208271E+02  0.34422718320E+02 -0.26555014101E+01  0.47787267518E+02  0.19999983924E+02 0.  0.
        -12    1    1    2    0    0  0.26299208271E+02 -0.34422718320E+02  0.26555014101E+01  0.43400732482E+02  0.00000000000E+00 0.  1.
         11    1    3    3    0    0 -0.16153869036E+02  0.26795016479E+02  0.50354856158E+01  0.31690322002E+02  0.51100000000E-03 0. -1.
        -11    1    3    3    0    0  0.63994384845E+00  0.83672830672E+00 -0.17327478146E+01  0.20278209089E+01  0.51100000000E-03 0.  1.
         12    1    3    3    0    0 -0.10785283083E+02  0.67909735342E+01 -0.59582392113E+01  0.14069124608E+02  0.00000000000E+00 0. -1.
</event>
<event>
 7    1  0.1400974E-009  0.4778727E+02  0.7816164E-02  0.1312668E+00
        -11   -1    0    0    0    0  0.00000000000E+00  0.00000000000E+00  0.45593999997E+02  0.45594000000E+02  0.51100000000E-03 0. -1.
         11   -1    0    0    0    0 -0.00000000000E+00 -0.00000000000E+00 -0.45593999997E+02  0.45594000000E+02  0.51100000000E-03 0.  1.
    9900012    2    1    2    0    0  0.23604372974E+01  0.12637065066E+02  0.41453061145E+02  0.47787270098E+02  0.19999995683E+02 0.  0.
        -12    1    1    2    0    0 -0.23604372974E+01 -0.12637065066E+02 -0.41453061145E+02  0.43400729902E+02  0.00000000000E+00 0.  1.
         11    1    3    3    0    0  0.70645782326E+01  0.57039078908E+01  0.21549123308E+02  0.23383916405E+02  0.51100000000E-03 0. -1.
        -11    1    3    3    0    0 -0.36864234348E+01  0.58470886027E+01  0.21281143358E+02  0.22375549731E+02  0.51100000000E-03 0.  1.
        -12    1    3    3    0    0 -0.10177175004E+01  0.10860685729E+01 -0.13772055215E+01  0.20278039609E+01  0.00000000000E+00 0.  1.
</event>
<event>
 7    1  0.1400974E-009  0.4778727E+02  0.7816164E-02  0.1312668E+00
        -11   -1    0    0    0    0  0.00000000000E+00  0.00000000000E+00  0.45593999997E+02  0.45594000000E+02  0.51100000000E-03 0.  1.
         11   -1    0    0    0    0 -0.00000000000E+00 -0.00000000000E+00 -0.45593999997E+02  0.45594000000E+02  0.51100000000E-03 0. -1.
    9900012    2    1    2    0    0 -0.15112211731E+02  0.39808545210E+02 -0.83978499247E+01  0.47787273065E+02  0.20000009213E+02 0.  0.
        -12    1    1    2    0    0  0.15112211731E+02 -0.39808545210E+02  0.83978499247E+01  0.43400726935E+02  0.00000000000E+00 0.  1.
         11    1    3    3    0    0 -0.94079114955E+01  0.17090213897E+02 -0.92748864202E+01  0.21601104789E+02  0.51100000000E-03 0. -1.
        -11    1    3    3    0    0 -0.80582044513E+01  0.95767385875E+01  0.24161104714E+01  0.12747006355E+02  0.51100000000E-03 0.  1.
        -12    1    3    3    0    0  0.23539042156E+01  0.13141592726E+02 -0.15390739759E+01  0.13439161921E+02  0.00000000000E+00 0.  1.
</event>
<event>
 7    1  0.1400974E-009  0.4778727E+02  0.7816164E-02  0.1312668E+00
        -11   -1    0    0    0    0  0.00000000000E+00  0.00000000000E+00  0.45593999997E+02  0.45594000000E+02  0.51100000000E-03 0. -1.
         11   -1    0    0    0    0 -0.00000000000E+00 -0.00000000000E+00 -0.45593999997E+02  0.45594000000E+02  0.51100000000E-03 0.  1.
    9900012    2    1    2    0    0 -0.15093135264E+02  0.31376413180E+02  0.25910254735E+02  0.47787270322E+02  0.19999996705E+02 0.  0.
        -12    1    1    2    0    0  0.15093135264E+02 -0.31376413180E+02 -0.25910254735E+02  0.43400729678E+02  0.00000000000E+00 0.  1.
         11    1    3    3    0    0  0.29704221190E+01  0.14479095543E+02  0.11482215242E+02  0.18716540344E+02  0.51100000000E-03 0.  1.
        -11    1    3    3    0    0 -0.10332413063E+02  0.10747233384E+02  0.11304494372E+02  0.18709713477E+02  0.51100000000E-03 0. -1.
        -12    1    3    3    0    0 -0.77311443198E+01  0.61500842532E+01  0.31235451213E+01  0.10361016501E+02  0.00000000000E+00 0.  1.
</event>
<event>
 7    1  0.1400974E-009  0.4778727E+02  0.7816164E-02  0.1312668E+00
        -11   -1    0    0    0    0  0.00000000000E+00  0.00000000000E+00  0.45593999997E+02  0.45594000000E+02  0.51100000000E-03 0. -1.
         11   -1    0    0    0    0 -0.00000000000E+00 -0.00000000000E+00 -0.45593999997E+02  0.45594000000E+02  0.51100000000E-03 0.  1.
    9900012    2    1    2    0    0 -0.31216258383E+02  0.30016512810E+02 -0.28595958765E+01  0.47787272849E+02  0.20000008226E+02 0.  0.
        -12    1    1    2    0    0  0.31216258383E+02 -0.30016512810E+02  0.28595958765E+01  0.43400727151E+02  0.00000000000E+00 0.  1.
         11    1    3    3    0    0 -0.22122081004E+02  0.16234861348E+02 -0.58272654259E+01  0.28051991258E+02  0.51100000000E-03 0. -1.
        -11    1    3    3    0    0 -0.57028606472E+01  0.13451998661E+02 -0.82831838270E+00  0.14634377306E+02  0.51100000000E-03 0.  1.
        -12    1    3    3    0    0 -0.33913167312E+01  0.32965280182E+00  0.37959879321E+01  0.51009042847E+01  0.00000000000E+00 0.  1.
</event>
<event>
 7    1  0.1400974E-009  0.4778727E+02  0.7816164E-02  0.1312668E+00
        -11   -1    0    0    0    0  0.00000000000E+00  0.00000000000E+00  0.45593999997E+02  0.45594000000E+02  0.51100000000E-03 0.  1.
         11   -1    0    0    0    0 -0.00000000000E+00 -0.00000000000E+00 -0.45593999997E+02  0.45594000000E+02  0.51100000000E-03 0. -1.
    9900012    2    1    2    0    0  0.17870751939E+02  0.37646128672E+01 -0.39371148287E+02  0.47787269564E+02  0.19999993252E+02 0.  0.
        -12    1    1    2    0    0 -0.17870751939E+02 -0.37646128672E+01  0.39371148287E+02  0.43400730436E+02  0.00000000000E+00 0.  1.
         11    1    3    3    0    0  0.55989423201E+01 -0.38881453115E+01 -0.25441180134E+02  0.26338554933E+02  0.51100000000E-03 0. -1.
        -11    1    3    3    0    0  0.88836902372E+01  0.11730150859E+01 -0.83831928270E+01  0.12270853225E+02  0.51100000000E-03 0.  1.
        -12    1    3    3    0    0  0.33881193821E+01  0.64797430928E+01 -0.55467753258E+01  0.91778614072E+01  0.00000000000E+00 0.  1.
</event>
<event>
 7    1  0.1400974E-009  0.4778727E+02  0.7816164E-02  0.1312668E+00
        -11   -1    0    0    0    0  0.00000000000E+00  0.00000000000E+00  0.45593999997E+02  0.45594000000E+02  0.51100000000E-03 0.  1.
         11   -1    0    0    0    0 -0.00000000000E+00 -0.00000000000E+00 -0.45593999997E+02  0.45594000000E+02  0.51100000000E-03 0. -1.
    9900012    2    1    2    0    0  0.28377522335E+02  0.32707354952E+02  0.29272298471E+01  0.47787268251E+02  0.19999987262E+02 0.  0.
        -12    1    1    2    0    0 -0.28377522335E+02 -0.32707354952E+02 -0.29272298471E+01  0.43400731749E+02  0.00000000000E+00 0.  1.
         11    1    3    3    0    0  0.21437366494E+01 -0.72052433270E+00 -0.65063652174E+00  0.23533147432E+01  0.51100000000E-03 0. -1.
        -11    1    3    3    0    0  0.40262585478E+01 -0.11054050300E+01  0.10129824705E+01  0.42963719486E+01  0.51100000000E-03 0.  1.
         12    1    3    3    0    0  0.22207527138E+02  0.34533284314E+02  0.25648838984E+01  0.41137581559E+02  0.00000000000E+00 0. -1.
</event>
<event>
 7    1  0.1400974E-009  0.4778727E+02  0.7816164E-02  0.1312668E+00
        -11   -1    0    0    0    0  0.00000000000E+00  0.00000000000E+00  0.45593999997E+02  0.45594000000E+02  0.51100000000E-03 0.  1.
         11   -1    0    0    0    0 -0.00000000000E+00 -0.00000000000E+00 -0.45593999997E+02  0.45594000000E+02  0.51100000000E-03 0. -1.
    9900012    2    1    2    0    0 -0.38569116958E+02  0.19817349762E+02  0.18218700471E+01  0.47787270225E+02  0.19999996263E+02 0.  0.
        -12    1    1    2    0    0  0.38569116958E+02 -0.19817349762E+02 -0.18218700471E+01  0.43400729775E+02  0.00000000000E+00 0.  1.
         11    1    3    3    0    0 -0.83020807259E+01  0.76131739387E+01 -0.36818386569E+01  0.11850776260E+02  0.51100000000E-03 0. -1.
        -11    1    3    3    0    0 -0.16065888548E+02  0.10561345155E+02  0.89858919321E+01  0.21222653943E+02  0.51100000000E-03 0.  1.
         12    1    3    3    0    0 -0.14201147684E+02  0.16428306687E+01 -0.34821832282E+01  0.14713840022E+02  0.00000000000E+00 0. -1.
</event>
<event>
 7    1  0.1400974E-009  0.4778727E+02  0.7816164E-02  0.1312668E+00
        -11   -1    0    0    0    0  0.00000000000E+00  0.00000000000E+00  0.45593999997E+02  0.45594000000E+02  0.51100000000E-03 0.  1.
         11   -1    0    0    0    0 -0.00000000000E+00 -0.00000000000E+00 -0.45593999997E+02  0.45594000000E+02  0.51100000000E-03 0. -1.
    9900012    2    1    2    0    0  0.42408999092E+02  0.67929353542E+01 -0.62415143786E+01  0.47787266407E+02  0.19999978856E+02 0.  0.
        -12    1    1    2    0    0 -0.42408999092E+02 -0.67929353542E+01  0.62415143786E+01  0.43400733593E+02  0.00000000000E+00 0.  1.
         11    1    3    3    0    0  0.16502075461E+01  0.42608228258E+00  0.17369980435E+01  0.24334940972E+01  0.51100000000E-03 0. -1.
        -11    1    3    3    0    0  0.26841710727E+01  0.50365068450E+01 -0.41654806472E+01  0.70655788744E+01  0.51100000000E-03 0.  1.
         12    1    3    3    0    0  0.38074620473E+02  0.13303462266E+01 -0.38130317749E+01  0.38288193435E+02  0.00000000000E+00 0. -1.
</event>
<event>
 7    1  0.1400974E-009  0.4778727E+02  0.7816164E-02  0.1312668E+00
        -11   -1    0    0    0    0  0.00000000000E+00  0.00000000000E+00  0.45593999997E+02  0.45594000000E+02  0.51100000000E-03 0. -1.
         11   -1    0    0    0    0 -0.00000000000E+00 -0.00000000000E+00 -0.45593999997E+02  0.45594000000E+02  0.51100000000E-03 0.  1.
    9900012    2    1    2    0    0 -0.69456696846E+01  0.40135061642E+02  0.14985253685E+02  0.47787270417E+02  0.19999997138E+02 0.  0.
        -12    1    1    2    0    0  0.69456696846E+01 -0.40135061642E+02 -0.14985253685E+02  0.43400729583E+02  0.00000000000E+00 0.  1.
         11    1    3    3    0    0 -0.49713506552E+01  0.19096641050E+02  0.31299168133E+01  0.19979799955E+02  0.51100000000E-03 0. -1.
        -11    1    3    3    0    0 -0.78334637555E+01  0.11564634890E+02  0.74325066846E+01  0.15822328856E+02  0.51100000000E-03 0.  1.
        -12    1    3    3    0    0  0.58591447261E+01  0.94737857019E+01  0.44228301871E+01  0.11985141606E+02  0.00000000000E+00 0.  1.
</event>
<event>
 7    1  0.1400974E-009  0.4778728E+02  0.7816164E-02  0.1312668E+00
        -11   -1    0    0    0    0  0.00000000000E+00  0.00000000000E+00  0.45593999997E+02  0.45594000000E+02  0.51100000000E-03 0.  1.
         11   -1    0    0    0    0 -0.00000000000E+00 -0.00000000000E+00 -0.45593999997E+02  0.45594000000E+02  0.51100000000E-03 0. -1.
    9900012    2    1    2    0    0  0.34948445580E+02 -0.11600103965E+02 -0.22970994298E+02  0.47787276048E+02  0.20000022814E+02 0.  0.
        -12    1    1    2    0    0 -0.34948445580E+02  0.11600103965E+02  0.22970994298E+02  0.43400723952E+02  0.00000000000E+00 0.  1.
         11    1    3    3    0    0  0.14764415345E+02  0.17624727954E+01 -0.87893998623E+01  0.17272747930E+02  0.51100000000E-03 0. -1.
        -11    1    3    3    0    0  0.10736758964E+02 -0.72170063205E+01 -0.14246791402E+02  0.19244070224E+02  0.51100000000E-03 0.  1.
        -12    1    3    3    0    0  0.94472712714E+01 -0.61455704400E+01  0.65196966118E-01  0.11270457895E+02  0.00000000000E+00 0.  1.
</event>
<event>
 7    1  0.1400974E-009  0.4778729E+02  0.7816164E-02  0.1312668E+00
        -11   -1    0    0    0    0  0.00000000000E+00  0.00000000000E+00  0.45593999997E+02  0.45594000000E+02  0.51100000000E-03 0.  1.
         11   -1    0    0    0    0 -0.00000000000E+00 -0.00000000000E+00 -0.45593999997E+02  0.45594000000E+02  0.51100000000E-03 0. -1.
    9900012    2    1    2    0    0 -0.10611499655E+02 -0.42078379022E+02 -0.65392302895E+00  0.47787291234E+02  0.20000092054E+02 0.  0.
        -12    1    1    2    0    0  0.10611499655E+02  0.42078379022E+02  0.65392302895E+00  0.43400708766E+02  0.00000000000E+00 0.  1.
         11    1    3    3    0    0 -0.89273625016E+01 -0.13509224543E+02  0.32523001564E+01  0.16515883433E+02  0.51100000000E-03 0.  1.
        -11    1    3    3    0    0  0.12181463159E+01 -0.26869598918E+02 -0.11478924003E+01  0.26921680550E+02  0.51100000000E-03 0. -1.
         12    1    3    3    0    0 -0.29022834689E+01 -0.16995555610E+01 -0.27583307851E+01  0.43497272511E+01  0.00000000000E+00 0. -1.
</event>
<event>
 7    1  0.1400974E-009  0.4778727E+02  0.7816164E-02  0.1312668E+00
        -11   -1    0    0    0    0  0.00000000000E+00  0.00000000000E+00  0.45593999997E+02  0.45594000000E+02  0.51100000000E-03 0. -1.
         11   -1    0    0    0    0 -0.00000000000E+00 -0.00000000000E+00 -0.45593999997E+02  0.45594000000E+02  0.51100000000E-03 0.  1.
    9900012    2    1    2    0    0  0.30342068291E+02  0.44644334755E+01  0.30709143097E+02  0.47787265626E+02  0.19999975294E+02 0.  0.
        -12    1    1    2    0    0 -0.30342068291E+02 -0.44644334755E+01 -0.30709143097E+02  0.43400734374E+02  0.00000000000E+00 0.  1.
         11    1    3    3    0    0  0.99501144580E+01  0.18012974859E+01  0.98386146440E+01  0.14108429705E+02  0.51100000000E-03 0. -1.
        -11    1    3    3    0    0  0.39349906921E+01 -0.55245117455E+00 -0.26623383413E+01  0.47830324849E+01  0.51100000000E-03 0.  1.
        -12    1    3    3    0    0  0.16456963141E+02  0.32155871641E+01  0.23532866795E+02  0.28895803436E+02  0.00000000000E+00 0.  1.
</event>
<event>
 7    1  0.1400974E-009  0.4778727E+02  0.7816164E-02  0.1312668E+00
        -11   -1    0    0    0    0  0.00000000000E+00  0.00000000000E+00  0.45593999997E+02  0.45594000000E+02  0.51100000000E-03 0. -1.
         11   -1    0    0    0    0 -0.00000000000E+00 -0.00000000000E+00 -0.45593999997E+02  0.45594000000E+02  0.51100000000E-03 0.  1.
    9900012    2    1    2    0    0 -0.37325501041E+02 -0.18030563970E+02  0.12858037874E+02  0.47787269556E+02  0.19999993215E+02 0.  0.
        -12    1    1    2    0    0  0.37325501041E+02  0.18030563970E+02 -0.12858037874E+02  0.43400730444E+02  0.00000000000E+00 0.  1.
         11    1    3    3    0    0 -0.22517964056E+02 -0.13599255444E+02  0.16480286112E+02  0.31041879525E+02  0.51100000000E-03 0. -1.
        -11    1    3    3    0    0 -0.61830814566E+01 -0.46236779471E+01 -0.18294149695E+01  0.79344598713E+01  0.51100000000E-03 0.  1.
        -12    1    3    3    0    0 -0.86244555287E+01  0.19236942112E+00 -0.17928332676E+01  0.88109301601E+01  0.00000000000E+00 0.  1.
</event>
<event>
 7    1  0.1400974E-009  0.4778727E+02  0.7816164E-02  0.1312668E+00
        -11   -1    0    0    0    0  0.00000000000E+00  0.00000000000E+00  0.45593999997E+02  0.45594000000E+02  0.51100000000E-03 0. -1.
         11   -1    0    0    0    0 -0.00000000000E+00 -0.00000000000E+00 -0.45593999997E+02  0.45594000000E+02  0.51100000000E-03 0.  1.
    9900012    2    1    2    0    0 -0.26921708412E+02  0.12843720858E+02  0.31525922421E+02  0.47787270354E+02  0.19999996852E+02 0.  0.
        -12    1    1    2    0    0  0.26921708412E+02 -0.12843720858E+02 -0.31525922421E+02  0.43400729646E+02  0.00000000000E+00 0.  1.
         11    1    3    3    0    0 -0.12084062869E+02  0.11571041367E+02  0.18950349172E+02  0.25279029011E+02  0.51100000000E-03 0. -1.
        -11    1    3    3    0    0  0.16454901592E+01 -0.10181613012E+01  0.67499252382E+00  0.20493670895E+01  0.51100000000E-03 0.  1.
         12    1    3    3    0    0 -0.16483135702E+02  0.22908407926E+01  0.11900580725E+02  0.20458874253E+02  0.00000000000E+00 0. -1.
</event>
<event>
 7    1  0.1400974E-009  0.4778727E+02  0.7816164E-02  0.1312668E+00
        -11   -1    0    0    0    0  0.00000000000E+00  0.00000000000E+00  0.45593999997E+02  0.45594000000E+02  0.51100000000E-03 0. -1.
         11   -1    0    0    0    0 -0.00000000000E+00 -0.00000000000E+00 -0.45593999997E+02  0.45594000000E+02  0.51100000000E-03 0.  1.
    9900012    2    1    2    0    0  0.10755147187E+02  0.12874645454E+02  0.40027410720E+02  0.47787270795E+02  0.19999998862E+02 0.  0.
        -12    1    1    2    0    0 -0.10755147187E+02 -0.12874645454E+02 -0.40027410720E+02  0.43400729205E+02  0.00000000000E+00 0.  1.
         11    1    3    3    0    0  0.35456694186E+01  0.22916804638E+01  0.23227096974E+01  0.48185632271E+01  0.51100000000E-03 0. -1.
        -11    1    3    3    0    0 -0.28407394102E+01  0.85305309732E+01  0.25427459350E+02  0.26970269712E+02  0.51100000000E-03 0.  1.
        -12    1    3    3    0    0  0.10050217179E+02  0.20524340174E+01  0.12277241673E+02  0.15998437856E+02  0.00000000000E+00 0.  1.
</event>
<event>
 7    1  0.1400974E-009  0.4778727E+02  0.7816164E-02  0.1312668E+00
        -11   -1    0    0    0    0  0.00000000000E+00  0.00000000000E+00  0.45593999997E+02  0.45594000000E+02  0.51100000000E-03 0. -1.
         11   -1    0    0    0    0 -0.00000000000E+00 -0.00000000000E+00 -0.45593999997E+02  0.45594000000E+02  0.51100000000E-03 0.  1.
    9900012    2    1    2    0    0  0.29483073948E+00 -0.41618891756E+02  0.12304659007E+02  0.47787266027E+02  0.19999977122E+02 0.  0.
        -12    1    1    2    0    0 -0.29483073948E+00  0.41618891756E+02 -0.12304659007E+02  0.43400733973E+02  0.00000000000E+00 0.  1.
         11    1    3    3    0    0  0.37377559967E+01 -0.28769999365E+01  0.19836055914E+01  0.51168974905E+01  0.51100000000E-03 0. -1.
        -11    1    3    3    0    0 -0.12062633845E+01 -0.27862615773E+01 -0.29932862820E+01  0.42635768970E+01  0.51100000000E-03 0.  1.
         12    1    3    3    0    0 -0.22366618727E+01 -0.35955630242E+02  0.13314339697E+02  0.38406791639E+02  0.00000000000E+00 0. -1.
</event>
<event>
 7    1  0.1400974E-009  0.4778727E+02  0.7816164E-02  0.1312668E+00
        -11   -1    0    0    0    0  0.00000000000E+00  0.00000000000E+00  0.45593999997E+02  0.45594000000E+02  0.51100000000E-03 0. -1.
         11   -1    0    0    0    0 -0.00000000000E+00 -0.00000000000E+00 -0.45593999997E+02  0.45594000000E+02  0.51100000000E-03 0.  1.
    9900012    2    1    2    0    0 -0.40439822378E+02 -0.40597693085E+01  0.15223739929E+02  0.47787271686E+02  0.20000002923E+02 0.  0.
        -12    1    1    2    0    0  0.40439822378E+02  0.40597693085E+01 -0.15223739929E+02  0.43400728314E+02  0.00000000000E+00 0.  1.
         11    1    3    3    0    0 -0.28774626606E+02 -0.60373316444E+01  0.14745313719E+02  0.32891530622E+02  0.51100000000E-03 0. -1.
        -11    1    3    3    0    0 -0.41717801030E+01 -0.21570622850E+01  0.34594191316E+01  0.58330307661E+01  0.51100000000E-03 0.  1.
        -12    1    3    3    0    0 -0.74934156688E+01  0.41346246209E+01 -0.29809929216E+01  0.90627102977E+01  0.00000000000E+00 0.  1.
</event>
<event>
 7    1  0.2406467E-009  0.4778727E+02  0.7816164E-02  0.1312668E+00
        -11   -1    0    0    0    0  0.00000000000E+00  0.00000000000E+00  0.45593999997E+02  0.45594000000E+02  0.51100000000E-03 0. -1.
         11   -1    0    0    0    0 -0.00000000000E+00 -0.00000000000E+00 -0.45593999997E+02  0.45594000000E+02  0.51100000000E-03 0.  1.
    9900012    2    1    2    0    0  0.34737301195E+02  0.23883489544E+02  0.10320953784E+02  0.47787271272E+02  0.20000001037E+02 0.  0.
        -12    1    1    2    0    0 -0.34737301195E+02 -0.23883489544E+02 -0.10320953784E+02  0.43400728728E+02  0.00000000000E+00 0.  1.
         11    1    3    3    0    0  0.28407921138E+02  0.13307752766E+02  0.92976162138E+01  0.32719289946E+02  0.51100000000E-03 0. -1.
        -11    1    3    3    0    0 -0.98626576350E-01 -0.14133347930E+01 -0.85117431225E-01  0.14193264871E+01  0.51100000000E-03 0.  1.
        -12    1    3    3    0    0  0.64280066335E+01  0.11989071571E+02  0.11084550018E+01  0.13648654838E+02  0.00000000000E+00 0.  1.
</event>
<event>
 7    1  0.1400974E-009  0.4778727E+02  0.7816164E-02  0.1312668E+00
        -11   -1    0    0    0    0  0.00000000000E+00  0.00000000000E+00  0.45593999997E+02  0.45594000000E+02  0.51100000000E-03 0. -1.
         11   -1    0    0    0    0 -0.00000000000E+00 -0.00000000000E+00 -0.45593999997E+02  0.45594000000E+02  0.51100000000E-03 0.  1.
    9900012    2    1    2    0    0  0.67727520749E+01 -0.25363604419E+02  0.34560681425E+02  0.47787270739E+02  0.19999998608E+02 0.  0.
        -12    1    1    2    0    0 -0.67727520749E+01  0.25363604419E+02 -0.34560681425E+02  0.43400729261E+02  0.00000000000E+00 0.  1.
         11    1    3    3    0    0  0.42797072266E+01 -0.28803558001E+01  0.14803688845E+02  0.15676783700E+02  0.51100000000E-03 0. -1.
        -11    1    3    3    0    0 -0.50845973889E+00 -0.67772754255E+01  0.13163065006E+02  0.14814056639E+02  0.51100000000E-03 0.  1.
        -12    1    3    3    0    0  0.30015045872E+01 -0.15705973193E+02  0.65939275748E+01  0.17296430401E+02  0.00000000000E+00 0.  1.
</event>
<event>
 7    1  0.1400974E-009  0.4778727E+02  0.7816164E-02  0.1312668E+00
        -11   -1    0    0    0    0  0.00000000000E+00  0.00000000000E+00  0.45593999997E+02  0.45594000000E+02  0.51100000000E-03 0.  1.
         11   -1    0    0    0    0 -0.00000000000E+00 -0.00000000000E+00 -0.45593999997E+02  0.45594000000E+02  0.51100000000E-03 0. -1.
    9900012    2    1    2    0    0  0.95602353015E+01 -0.25705140971E+02  0.33637344187E+02  0.47787270797E+02  0.19999998873E+02 0.  0.
        -12    1    1    2    0    0 -0.95602353015E+01  0.25705140971E+02 -0.33637344187E+02  0.43400729203E+02  0.00000000000E+00 0.  1.
         11    1    3    3    0    0  0.17502824444E+01 -0.13267562512E+02  0.22101486694E+02  0.25837326061E+02  0.51100000000E-03 0. -1.
        -11    1    3    3    0    0  0.30152681420E+01 -0.20916091376E+00 -0.15605933624E+01  0.34016234595E+01  0.51100000000E-03 0.  1.
         12    1    3    3    0    0  0.47946847151E+01 -0.12228417545E+02  0.13096450856E+02  0.18548321277E+02  0.00000000000E+00 0. -1.
</event>
<event>
 7    1  0.1400974E-009  0.4778728E+02  0.7816164E-02  0.1312668E+00
        -11   -1    0    0    0    0  0.00000000000E+00  0.00000000000E+00  0.45593999997E+02  0.45594000000E+02  0.51100000000E-03 0. -1.
         11   -1    0    0    0    0 -0.00000000000E+00 -0.00000000000E+00 -0.45593999997E+02  0.45594000000E+02  0.51100000000E-03 0.  1.
    9900012    2    1    2    0    0  0.91911046181E+01  0.39388682038E+02 -0.15737771536E+02  0.47787284226E+02  0.20000060098E+02 0.  0.
        -12    1    1    2    0    0 -0.91911046181E+01 -0.39388682038E+02  0.15737771536E+02  0.43400715774E+02  0.00000000000E+00 0.  1.
         11    1    3    3    0    0  0.16875112981E+01  0.19283859529E+02 -0.13954976365E+02  0.23863283477E+02  0.51100000000E-03 0.  1.
        -11    1    3    3    0    0  0.70391140901E+01  0.21187176135E+02 -0.26197983246E+01  0.22479077011E+02  0.51100000000E-03 0. -1.
         12    1    3    3    0    0  0.46447922987E+00 -0.10823536257E+01  0.83700315406E+00  0.14449237370E+01  0.00000000000E+00 0. -1.
</event>
<event>
 7    1  0.1400974E-009  0.4778727E+02  0.7816164E-02  0.1312668E+00
        -11   -1    0    0    0    0  0.00000000000E+00  0.00000000000E+00  0.45593999997E+02  0.45594000000E+02  0.51100000000E-03 0. -1.
         11   -1    0    0    0    0 -0.00000000000E+00 -0.00000000000E+00 -0.45593999997E+02  0.45594000000E+02  0.51100000000E-03 0.  1.
    9900012    2    1    2    0    0 -0.40609718749E+02  0.15202796243E+02  0.18301397437E+01  0.47787266343E+02  0.19999978564E+02 0.  0.
        -12    1    1    2    0    0  0.40609718749E+02 -0.15202796243E+02 -0.18301397437E+01  0.43400733657E+02  0.00000000000E+00 0.  1.
         11    1    3    3    0    0 -0.13655279918E+02 -0.16849369536E+01  0.59155461285E+01  0.14976627406E+02  0.51100000000E-03 0. -1.
        -11    1    3    3    0    0 -0.61536330695E+01  0.61662501113E+01  0.12720145129E+01  0.88038549268E+01  0.51100000000E-03 0.  1.
         12    1    3    3    0    0 -0.20800805761E+02  0.10721483085E+02 -0.53574208976E+01  0.24006784011E+02  0.00000000000E+00 0. -1.
</event>
<event>
 7    1  0.1400974E-009  0.4778723E+02  0.7816164E-02  0.1312668E+00
        -11   -1    0    0    0    0  0.00000000000E+00  0.00000000000E+00  0.45593999997E+02  0.45594000000E+02  0.51100000000E-03 0.  1.
         11   -1    0    0    0    0 -0.00000000000E+00 -0.00000000000E+00 -0.45593999997E+02  0.45594000000E+02  0.51100000000E-03 0. -1.
    9900012    2    1    2    0    0 -0.29989253108E+02  0.28628300854E+02 -0.12833240490E+02  0.47787228426E+02  0.19999805684E+02 0.  0.
        -12    1    1    2    0    0  0.29989253108E+02 -0.28628300854E+02  0.12833240490E+02  0.43400771574E+02  0.00000000000E+00 0.  1.
         11    1    3    3    0    0 -0.43271782626E+01  0.65045732529E+01 -0.69191293627E+01  0.10435913775E+02  0.51100000000E-03 0. -1.
        -11    1    3    3    0    0 -0.19586993881E+02  0.22631438306E+02 -0.17757041266E+01  0.29983086140E+02  0.51100000000E-03 0.  1.
        -12    1    3    3    0    0 -0.60750809645E+01 -0.50771070499E+00 -0.41384070005E+01  0.73682285108E+01  0.00000000000E+00 0.  1.
</event>
<event>
 7    1  0.1400974E-009  0.4778727E+02  0.7816164E-02  0.1312668E+00
        -11   -1    0    0    0    0  0.00000000000E+00  0.00000000000E+00  0.45593999997E+02  0.45594000000E+02  0.51100000000E-03 0.  1.
         11   -1    0    0    0    0 -0.00000000000E+00 -0.00000000000E+00 -0.45593999997E+02  0.45594000000E+02  0.51100000000E-03 0. -1.
    9900012    2    1    2    0    0 -0.17406385991E+02 -0.18061457622E+02 -0.35417859016E+02  0.47787271182E+02  0.20000000627E+02 0.  0.
        -12    1    1    2    0    0  0.17406385991E+02  0.18061457622E+02  0.35417859016E+02  0.43400728818E+02  0.00000000000E+00 0.  1.
         11    1    3    3    0    0 -0.16142668922E+02 -0.19688667571E+02 -0.33988517968E+02  0.42467031266E+02  0.51100000000E-03 0. -1.
        -11    1    3    3    0    0  0.14074563059E+01 -0.51194605335E+00 -0.11470428044E+01  0.18864595067E+01  0.51100000000E-03 0.  1.
         12    1    3    3    0    0 -0.26711733750E+01  0.21391560017E+01 -0.28229824278E+00  0.34337804089E+01  0.00000000000E+00 0. -1.
</event>
<event>
 7    1  0.1400974E-009  0.4778727E+02  0.7816164E-02  0.1312668E+00
        -11   -1    0    0    0    0  0.00000000000E+00  0.00000000000E+00  0.45593999997E+02  0.45594000000E+02  0.51100000000E-03 0.  1.
         11   -1    0    0    0    0 -0.00000000000E+00 -0.00000000000E+00 -0.45593999997E+02  0.45594000000E+02  0.51100000000E-03 0. -1.
    9900012    2    1    2    0    0 -0.23584783957E+02  0.36142762423E+02 -0.45914951425E+01  0.47787272615E+02  0.20000007163E+02 0.  0.
        -12    1    1    2    0    0  0.23584783957E+02 -0.36142762423E+02  0.45914951425E+01  0.43400727385E+02  0.00000000000E+00 0.  1.
         11    1    3    3    0    0  0.13951118601E+01  0.60782100609E+01  0.18287701811E+01  0.64988749244E+01  0.51100000000E-03 0. -1.
        -11    1    3    3    0    0 -0.10358874320E+02  0.45044302363E+01 -0.92591816612E+00  0.11333732555E+02  0.51100000000E-03 0.  1.
         12    1    3    3    0    0 -0.14621021497E+02  0.25560122126E+02 -0.54943471575E+01  0.29954665136E+02  0.00000000000E+00 0. -1.
</event>
<event>
 7    1  0.1400974E-009  0.4778728E+02  0.7816164E-02  0.1312668E+00
        -11   -1    0    0    0    0  0.00000000000E+00  0.00000000000E+00  0.45593999997E+02  0.45594000000E+02  0.51100000000E-03 0.  1.
         11   -1    0    0    0    0 -0.00000000000E+00 -0.00000000000E+00 -0.45593999997E+02  0.45594000000E+02  0.51100000000E-03 0. -1.
    9900012    2    1    2    0    0 -0.41522331749E+02  0.56946438281E+01 -0.11273415796E+02  0.47787275284E+02  0.20000019329E+02 0.  0.
        -12    1    1    2    0    0  0.41522331749E+02 -0.56946438281E+01  0.11273415796E+02  0.43400724716E+02  0.00000000000E+00 0.  1.
         11    1    3    3    0    0 -0.11080931663E+02  0.29442411098E+01 -0.92528226595E+01  0.14733306814E+02  0.51100000000E-03 0. -1.
        -11    1    3    3    0    0 -0.76670032720E+01 -0.47340475398E+01 -0.89002824131E+00  0.90546284194E+01  0.51100000000E-03 0.  1.
        -12    1    3    3    0    0 -0.22774396813E+02  0.74844502581E+01 -0.11305648954E+01  0.23999340050E+02  0.00000000000E+00 0.  1.
</event>
<event>
 7    1  0.1400974E-009  0.4778727E+02  0.7816164E-02  0.1312668E+00
        -11   -1    0    0    0    0  0.00000000000E+00  0.00000000000E+00  0.45593999997E+02  0.45594000000E+02  0.51100000000E-03 0. -1.
         11   -1    0    0    0    0 -0.00000000000E+00 -0.00000000000E+00 -0.45593999997E+02  0.45594000000E+02  0.51100000000E-03 0.  1.
    9900012    2    1    2    0    0  0.36199047172E+02 -0.53725950877E+01  0.23332110158E+02  0.47787272373E+02  0.20000006058E+02 0.  0.
        -12    1    1    2    0    0 -0.36199047172E+02  0.53725950877E+01 -0.23332110158E+02  0.43400727627E+02  0.00000000000E+00 0.  1.
         11    1    3    3    0    0  0.45198120736E+01 -0.63109582520E+00 -0.35732232395E+00  0.45776263091E+01  0.51100000000E-03 0.  1.
        -11    1    3    3    0    0  0.25750797242E+02 -0.34073460297E+01  0.93003396107E+01  0.27590032307E+02  0.51100000000E-03 0. -1.
         12    1    3    3    0    0  0.59284378564E+01 -0.13341532327E+01  0.14389092871E+02  0.15619613757E+02  0.00000000000E+00 0. -1.
</event>
<event>
 7    1  0.1400974E-009  0.4778727E+02  0.7816164E-02  0.1312668E+00
        -11   -1    0    0    0    0  0.00000000000E+00  0.00000000000E+00  0.45593999997E+02  0.45594000000E+02  0.51100000000E-03 0.  1.
         11   -1    0    0    0    0 -0.00000000000E+00 -0.00000000000E+00 -0.45593999997E+02  0.45594000000E+02  0.51100000000E-03 0. -1.
    9900012    2    1    2    0    0  0.15665810674E+02  0.54289901719E+01 -0.40109002344E+02  0.47787266971E+02  0.19999981429E+02 0.  0.
        -12    1    1    2    0    0 -0.15665810674E+02 -0.54289901719E+01  0.40109002344E+02  0.43400733029E+02  0.00000000000E+00 0.  1.
         11    1    3    3    0    0  0.69286419449E+01  0.39716751074E+00 -0.29810352314E+02  0.30607530553E+02  0.51100000000E-03 0. -1.
        -11    1    3    3    0    0  0.68533115367E+01  0.62042812682E+01 -0.11420657531E+02  0.14693277503E+02  0.51100000000E-03 0.  1.
         12    1    3    3    0    0  0.18838571924E+01 -0.11724586070E+01  0.11220075003E+01  0.24864589153E+01  0.00000000000E+00 0. -1.
</event>
<event>
 7    1  0.1400974E-009  0.4778728E+02  0.7816164E-02  0.1312668E+00
        -11   -1    0    0    0    0  0.00000000000E+00  0.00000000000E+00  0.45593999997E+02  0.45594000000E+02  0.51100000000E-03 0.  1.
         11   -1    0    0    0    0 -0.00000000000E+00 -0.00000000000E+00 -0.45593999997E+02  0.45594000000E+02  0.51100000000E-03 0. -1.
    9900012    2    1    2    0    0  0.16819553561E+01  0.34106007035E+02 -0.26787565241E+02  0.47787281789E+02  0.20000048989E+02 0.  0.
        -12    1    1    2    0    0 -0.16819553561E+01 -0.34106007035E+02  0.26787565241E+02  0.43400718211E+02  0.00000000000E+00 0.  1.
         11    1    3    3    0    0  0.21050618284E+01  0.15511762798E+00 -0.77652394381E+00  0.22490745822E+01  0.51100000000E-03 0. -1.
        -11    1    3    3    0    0 -0.13624018330E+01  0.12354709774E+01 -0.79432143087E+01  0.81533539789E+01  0.51100000000E-03 0.  1.
         12    1    3    3    0    0  0.93929536066E+00  0.32715418430E+02 -0.18067826988E+02  0.37384853228E+02  0.00000000000E+00 0. -1.
</event>
<event>
 7    1  0.1400974E-009  0.4778727E+02  0.7816164E-02  0.1312668E+00
        -11   -1    0    0    0    0  0.00000000000E+00  0.00000000000E+00  0.45593999997E+02  0.45594000000E+02  0.51100000000E-03 0.  1.
         11   -1    0    0    0    0 -0.00000000000E+00 -0.00000000000E+00 -0.45593999997E+02  0.45594000000E+02  0.51100000000E-03 0. -1.
    9900012    2    1    2    0    0  0.45902265384E+00 -0.38874950643E+02 -0.19291210098E+02  0.47787271016E+02  0.19999999872E+02 0.  0.
        -12    1    1    2    0    0 -0.45902265384E+00  0.38874950643E+02  0.19291210098E+02  0.43400728984E+02  0.00000000000E+00 0.  1.
         11    1    3    3    0    0  0.20859276091E+01 -0.52017116077E+01 -0.97428085637E+01  0.11239716038E+02  0.51100000000E-03 0. -1.
        -11    1    3    3    0    0  0.36193303885E+01 -0.23123319286E+02 -0.75814461940E+01  0.24602149782E+02  0.51100000000E-03 0.  1.
        -12    1    3    3    0    0 -0.52462353438E+01 -0.10549919749E+02 -0.19669553401E+01  0.11945405196E+02  0.00000000000E+00 0.  1.
</event>
<event>
 7    1  0.1400974E-009  0.4778727E+02  0.7816164E-02  0.1312668E+00
        -11   -1    0    0    0    0  0.00000000000E+00  0.00000000000E+00  0.45593999997E+02  0.45594000000E+02  0.51100000000E-03 0.  1.
         11   -1    0    0    0    0 -0.00000000000E+00 -0.00000000000E+00 -0.45593999997E+02  0.45594000000E+02  0.51100000000E-03 0. -1.
    9900012    2    1    2    0    0  0.33959778024E+02 -0.77802848258E+01 -0.25880957187E+02  0.47787270740E+02  0.19999998613E+02 0.  0.
        -12    1    1    2    0    0 -0.33959778024E+02  0.77802848258E+01  0.25880957187E+02  0.43400729260E+02  0.00000000000E+00 0.  1.
         11    1    3    3    0    0  0.99773973207E+01 -0.37043584846E+01 -0.17969681709E+02  0.20884927342E+02  0.51100000000E-03 0. -1.
        -11    1    3    3    0    0  0.10589426326E+02  0.20196293803E+01 -0.50813164570E+01  0.11917828239E+02  0.51100000000E-03 0.  1.
         12    1    3    3    0    0  0.13392954377E+02 -0.60955557215E+01 -0.28299590204E+01  0.14984515159E+02  0.00000000000E+00 0. -1.
</event>
<event>
 7    1  0.1400974E-009  0.4778727E+02  0.7816164E-02  0.1312668E+00
        -11   -1    0    0    0    0  0.00000000000E+00  0.00000000000E+00  0.45593999997E+02  0.45594000000E+02  0.51100000000E-03 0.  1.
         11   -1    0    0    0    0 -0.00000000000E+00 -0.00000000000E+00 -0.45593999997E+02  0.45594000000E+02  0.51100000000E-03 0. -1.
    9900012    2    1    2    0    0  0.26961281778E+02 -0.10965477806E+02 -0.32194269335E+02  0.47787269630E+02  0.19999993549E+02 0.  0.
        -12    1    1    2    0    0 -0.26961281778E+02  0.10965477806E+02  0.32194269335E+02  0.43400730370E+02  0.00000000000E+00 0.  1.
         11    1    3    3    0    0  0.12022992862E+02 -0.68242560818E+01 -0.64732103695E+01  0.15265165613E+02  0.51100000000E-03 0.  1.
        -11    1    3    3    0    0  0.29465714291E+01  0.40186685143E+01 -0.39361220927E+01  0.63501997767E+01  0.51100000000E-03 0. -1.
         12    1    3    3    0    0  0.11991717487E+02 -0.81598902387E+01 -0.21784936873E+02  0.26171904240E+02  0.00000000000E+00 0. -1.
</event>
<event>
 7    1  0.1400974E-009  0.4778727E+02  0.7816164E-02  0.1312668E+00
        -11   -1    0    0    0    0  0.00000000000E+00  0.00000000000E+00  0.45593999997E+02  0.45594000000E+02  0.51100000000E-03 0.  1.
         11   -1    0    0    0    0 -0.00000000000E+00 -0.00000000000E+00 -0.45593999997E+02  0.45594000000E+02  0.51100000000E-03 0. -1.
    9900012    2    1    2    0    0  0.72408694201E+01 -0.28065568855E+02 -0.32303509254E+02  0.47787273564E+02  0.20000011486E+02 0.  0.
        -12    1    1    2    0    0 -0.72408694201E+01  0.28065568855E+02  0.32303509254E+02  0.43400726436E+02  0.00000000000E+00 0.  1.
         11    1    3    3    0    0  0.65187600722E+01 -0.23692406530E+02 -0.25762306628E+02  0.35602258399E+02  0.51100000000E-03 0.  1.
        -11    1    3    3    0    0  0.42239069786E+01 -0.29395017651E+01 -0.66389247879E+01  0.83998442480E+01  0.51100000000E-03 0. -1.
        -12    1    3    3    0    0 -0.35017976307E+01 -0.14336605597E+01  0.97722162297E-01  0.37851709166E+01  0.00000000000E+00 0.  1.
</event>
<event>
 7    1  0.1400974E-009  0.4778727E+02  0.7816164E-02  0.1312668E+00
        -11   -1    0    0    0    0  0.00000000000E+00  0.00000000000E+00  0.45593999997E+02  0.45594000000E+02  0.51100000000E-03 0. -1.
         11   -1    0    0    0    0 -0.00000000000E+00 -0.00000000000E+00 -0.45593999997E+02  0.45594000000E+02  0.51100000000E-03 0.  1.
    9900012    2    1    2    0    0 -0.36616816457E+02  0.16039499388E+02  0.16898712753E+02  0.47787270965E+02  0.19999999639E+02 0.  0.
        -12    1    1    2    0    0  0.36616816457E+02 -0.16039499388E+02 -0.16898712753E+02  0.43400729035E+02  0.00000000000E+00 0.  1.
         11    1    3    3    0    0 -0.24827927616E+02  0.55562239157E+01  0.13453209964E+02  0.28779966513E+02  0.51100000000E-03 0. -1.
        -11    1    3    3    0    0 -0.73563718004E+01  0.42333973001E+00  0.31406027400E+01  0.80099193769E+01  0.51100000000E-03 0.  1.
        -12    1    3    3    0    0 -0.44325170405E+01  0.10059935742E+02  0.30490004870E+00  0.10997385075E+02  0.00000000000E+00 0.  1.
</event>
<event>
 7    1  0.1400974E-009  0.4778727E+02  0.7816164E-02  0.1312668E+00
        -11   -1    0    0    0    0  0.00000000000E+00  0.00000000000E+00  0.45593999997E+02  0.45594000000E+02  0.51100000000E-03 0.  1.
         11   -1    0    0    0    0 -0.00000000000E+00 -0.00000000000E+00 -0.45593999997E+02  0.45594000000E+02  0.51100000000E-03 0. -1.
    9900012    2    1    2    0    0 -0.11498406286E+02 -0.28464775081E+02 -0.30678444873E+02  0.47787265590E+02  0.19999975129E+02 0.  0.
        -12    1    1    2    0    0  0.11498406286E+02  0.28464775081E+02  0.30678444873E+02  0.43400734410E+02  0.00000000000E+00 0.  1.
         11    1    3    3    0    0  0.44352453940E+01 -0.12414947681E+02 -0.11876072937E+02  0.17743828118E+02  0.51100000000E-03 0. -1.
        -11    1    3    3    0    0 -0.65049976667E+01 -0.97837264243E+01 -0.12202247824E+02  0.16939042169E+02  0.51100000000E-03 0.  1.
         12    1    3    3    0    0 -0.94286540133E+01 -0.62661009765E+01 -0.66001241119E+01  0.13104395302E+02  0.00000000000E+00 0. -1.
</event>
<event>
 7    1  0.1400974E-009  0.4778728E+02  0.7816164E-02  0.1312668E+00
        -11   -1    0    0    0    0  0.00000000000E+00  0.00000000000E+00  0.45593999997E+02  0.45594000000E+02  0.51100000000E-03 0.  1.
         11   -1    0    0    0    0 -0.00000000000E+00 -0.00000000000E+00 -0.45593999997E+02  0.45594000000E+02  0.51100000000E-03 0. -1.
    9900012    2    1    2    0    0  0.36671280590E+02 -0.32346140228E+01 -0.22986456296E+02  0.47787277413E+02  0.20000029036E+02 0.  0.
        -12    1    1    2    0    0 -0.36671280590E+02  0.32346140228E+01  0.22986456296E+02  0.43400722587E+02  0.00000000000E+00 0.  1.
         11    1    3    3    0    0  0.20904837363E+02 -0.75371738386E+01 -0.67234976794E+01  0.23216947172E+02  0.51100000000E-03 0.  1.
        -11    1    3    3    0    0  0.10734269690E+02 -0.80440106841E+00 -0.69332451561E+01  0.12803964054E+02  0.51100000000E-03 0. -1.
        -12    1    3    3    0    0  0.50321735375E+01  0.51069608842E+01 -0.93297134608E+01  0.11766366187E+02  0.00000000000E+00 0.  1.
</event>
<event>
 7    1  0.1400974E-009  0.4778727E+02  0.7816164E-02  0.1312668E+00
        -11   -1    0    0    0    0  0.00000000000E+00  0.00000000000E+00  0.45593999997E+02  0.45594000000E+02  0.51100000000E-03 0.  1.
         11   -1    0    0    0    0 -0.00000000000E+00 -0.00000000000E+00 -0.45593999997E+02  0.45594000000E+02  0.51100000000E-03 0. -1.
    9900012    2    1    2    0    0  0.67770207329E+01 -0.42812855911E+02 -0.21806039265E+01  0.47787266426E+02  0.19999978941E+02 0.  0.
        -12    1    1    2    0    0 -0.67770207329E+01  0.42812855911E+02  0.21806039265E+01  0.43400733574E+02  0.00000000000E+00 0.  1.
         11    1    3    3    0    0 -0.18355885825E+01  0.26901084494E+00  0.26450840752E+01  0.32308237812E+01  0.51100000000E-03 0. -1.
        -11    1    3    3    0    0  0.74049567561E+00 -0.17770328577E+02 -0.20960261029E+01  0.17908831264E+02  0.51100000000E-03 0.  1.
         12    1    3    3    0    0  0.78721136398E+01 -0.25311538180E+02 -0.27296618988E+01  0.26647611380E+02  0.00000000000E+00 0. -1.
</event>
<event>
 7    1  0.1400974E-009  0.4778725E+02  0.7816164E-02  0.1312668E+00
        -11   -1    0    0    0    0  0.00000000000E+00  0.00000000000E+00  0.45593999997E+02  0.45594000000E+02  0.51100000000E-03 0. -1.
         11   -1    0    0    0    0 -0.00000000000E+00 -0.00000000000E+00 -0.45593999997E+02  0.45594000000E+02  0.51100000000E-03 0.  1.
    9900012    2    1    2    0    0 -0.41901532471E+02 -0.87174886632E+01  0.72036160486E+01  0.47787249820E+02  0.19999903228E+02 0.  0.
        -12    1    1    2    0    0  0.41901532471E+02  0.87174886632E+01 -0.72036160486E+01  0.43400750180E+02  0.00000000000E+00 0.  1.
         11    1    3    3    0    0 -0.90470084542E+01 -0.53662420704E+01  0.90949511806E+01  0.13905504420E+02  0.51100000000E-03 0. -1.
        -11    1    3    3    0    0 -0.16600472770E+02 -0.53751043644E+01 -0.89809987177E+00  0.17472092798E+02  0.51100000000E-03 0.  1.
         12    1    3    3    0    0 -0.16254051247E+02  0.20238577716E+01 -0.99323526022E+00  0.16409652602E+02  0.00000000000E+00 0. -1.
</event>
<event>
 7    1  0.1400974E-009  0.4778727E+02  0.7816164E-02  0.1312668E+00
        -11   -1    0    0    0    0  0.00000000000E+00  0.00000000000E+00  0.45593999997E+02  0.45594000000E+02  0.51100000000E-03 0. -1.
         11   -1    0    0    0    0 -0.00000000000E+00 -0.00000000000E+00 -0.45593999997E+02  0.45594000000E+02  0.51100000000E-03 0.  1.
    9900012    2    1    2    0    0  0.23314547048E+01 -0.21889071942E+02  0.37403957893E+02  0.47787271693E+02  0.20000002958E+02 0.  0.
        -12    1    1    2    0    0 -0.23314547048E+01  0.21889071942E+02 -0.37403957893E+02  0.43400728307E+02  0.00000000000E+00 0.  1.
         11    1    3    3    0    0 -0.25971841897E+01  0.63926171300E+00  0.84111889472E+01  0.88262178208E+01  0.51100000000E-03 0. -1.
        -11    1    3    3    0    0  0.72651056895E+01 -0.94909198078E+01  0.18671021584E+02  0.22169040726E+02  0.51100000000E-03 0.  1.
        -12    1    3    3    0    0 -0.23364667950E+01 -0.13037413847E+02  0.10321747362E+02  0.16792013146E+02  0.00000000000E+00 0.  1.
</event>
<event>
 7    1  0.1400974E-009  0.4778729E+02  0.7816164E-02  0.1312668E+00
        -11   -1    0    0    0    0  0.00000000000E+00  0.00000000000E+00  0.45593999997E+02  0.45594000000E+02  0.51100000000E-03 0. -1.
         11   -1    0    0    0    0 -0.00000000000E+00 -0.00000000000E+00 -0.45593999997E+02  0.45594000000E+02  0.51100000000E-03 0.  1.
    9900012    2    1    2    0    0  0.40562104402E+02  0.12134350505E+02 -0.95443816176E+01  0.47787285764E+02  0.20000067114E+02 0.  0.
        -12    1    1    2    0    0 -0.40562104402E+02 -0.12134350505E+02  0.95443816176E+01  0.43400714236E+02  0.00000000000E+00 0.  1.
         11    1    3    3    0    0  0.10056106614E+00 -0.53087118373E+00  0.75432313747E+00  0.92786873995E+00  0.51100000000E-03 0. -1.
        -11    1    3    3    0    0  0.22136138337E+02  0.15348740482E+02 -0.36581558969E+01  0.27184086515E+02  0.51100000000E-03 0.  1.
        -12    1    3    3    0    0  0.18325405000E+02 -0.26835187935E+01 -0.66405488582E+01  0.19675330509E+02  0.00000000000E+00 0.  1.
</event>
<event>
 7    1  0.1400974E-009  0.4778728E+02  0.7816164E-02  0.1312668E+00
        -11   -1    0    0    0    0  0.00000000000E+00  0.00000000000E+00  0.45593999997E+02  0.45594000000E+02  0.51100000000E-03 0.  1.
         11   -1    0    0    0    0 -0.00000000000E+00 -0.00000000000E+00 -0.45593999997E+02  0.45594000000E+02  0.51100000000E-03 0. -1.
    9900012    2    1    2    0    0  0.28950371493E+02  0.32814767756E+01 -0.32167220490E+02  0.47787283721E+02  0.20000057799E+02 0.  0.
        -12    1    1    2    0    0 -0.28950371493E+02 -0.32814767756E+01  0.32167220490E+02  0.43400716279E+02  0.00000000000E+00 0.  1.
         11    1    3    3    0    0  0.37721638866E+01 -0.10908289583E+01 -0.16944276333E+02  0.17393321388E+02  0.51100000000E-03 0. -1.
        -11    1    3    3    0    0  0.93303768472E+01  0.42949951352E+00 -0.24363431166E+01  0.96527804277E+01  0.51100000000E-03 0.  1.
        -12    1    3    3    0    0  0.15847830759E+02  0.39428062204E+01 -0.12786601041E+02  0.20741181906E+02  0.00000000000E+00 0.  1.
</event>
<event>
 7    1  0.1400974E-009  0.4778727E+02  0.7816164E-02  0.1312668E+00
        -11   -1    0    0    0    0  0.00000000000E+00  0.00000000000E+00  0.45593999997E+02  0.45594000000E+02  0.51100000000E-03 0. -1.
         11   -1    0    0    0    0 -0.00000000000E+00 -0.00000000000E+00 -0.45593999997E+02  0.45594000000E+02  0.51100000000E-03 0.  1.
    9900012    2    1    2    0    0  0.24854276946E+02 -0.20755672439E+02  0.28897923528E+02  0.47787274140E+02  0.20000014114E+02 0.  0.
        -12    1    1    2    0    0 -0.24854276946E+02  0.20755672439E+02 -0.28897923528E+02  0.43400725860E+02  0.00000000000E+00 0.  1.
         11    1    3    3    0    0  0.37570883574E+01 -0.13197566825E+02  0.95665013363E+01  0.16727505227E+02  0.51100000000E-03 0. -1.
        -11    1    3    3    0    0  0.13552704159E+02 -0.90648667645E+01  0.15365887665E+02  0.22404421516E+02  0.51100000000E-03 0.  1.
        -12    1    3    3    0    0  0.75444844301E+01  0.15067611506E+01  0.39655345268E+01  0.86553473971E+01  0.00000000000E+00 0.  1.
</event>
<event>
 7    1  0.1400974E-009  0.4778727E+02  0.7816164E-02  0.1312668E+00
        -11   -1    0    0    0    0  0.00000000000E+00  0.00000000000E+00  0.45593999997E+02  0.45594000000E+02  0.51100000000E-03 0. -1.
         11   -1    0    0    0    0 -0.00000000000E+00 -0.00000000000E+00 -0.45593999997E+02  0.45594000000E+02  0.51100000000E-03 0.  1.
    9900012    2    1    2    0    0 -0.22262469614E+02 -0.17543147259E+02  0.32867068448E+02  0.47787265473E+02  0.19999974598E+02 0.  0.
        -12    1    1    2    0    0  0.22262469614E+02  0.17543147259E+02 -0.32867068448E+02  0.43400734527E+02  0.00000000000E+00 0.  1.
         11    1    3    3    0    0 -0.13620796314E+02 -0.77254118698E+01  0.14274161250E+02  0.21188670568E+02  0.51100000000E-03 0. -1.
        -11    1    3    3    0    0 -0.50217925712E+01 -0.13145482125E+02  0.14435909207E+02  0.20159800986E+02  0.51100000000E-03 0.  1.
         12    1    3    3    0    0 -0.36198807288E+01  0.33277467353E+01  0.41569979909E+01  0.64387939182E+01  0.00000000000E+00 0. -1.
</event>
<event>
 7    1  0.1400974E-009  0.4778727E+02  0.7816164E-02  0.1312668E+00
        -11   -1    0    0    0    0  0.00000000000E+00  0.00000000000E+00  0.45593999997E+02  0.45594000000E+02  0.51100000000E-03 0. -1.
         11   -1    0    0    0    0 -0.00000000000E+00 -0.00000000000E+00 -0.45593999997E+02  0.45594000000E+02  0.51100000000E-03 0.  1.
    9900012    2    1    2    0    0  0.32286514944E+02  0.27926415668E+02  0.78306868170E+01  0.47787269646E+02  0.19999993623E+02 0.  0.
        -12    1    1    2    0    0 -0.32286514944E+02 -0.27926415668E+02 -0.78306868170E+01  0.43400730354E+02  0.00000000000E+00 0.  1.
         11    1    3    3    0    0  0.23663430316E+02  0.14684621090E+02  0.15292887641E+01  0.27891481769E+02  0.51100000000E-03 0. -1.
        -11    1    3    3    0    0  0.52348909217E+01  0.59965178165E+01 -0.21645179678E+01  0.82490876574E+01  0.51100000000E-03 0.  1.
         12    1    3    3    0    0  0.33881937060E+01  0.72452767606E+01  0.84659160207E+01  0.11646700219E+02  0.00000000000E+00 0. -1.
</event>
<event>
 7    1  0.1400974E-009  0.4778727E+02  0.7816164E-02  0.1312668E+00
        -11   -1    0    0    0    0  0.00000000000E+00  0.00000000000E+00  0.45593999997E+02  0.45594000000E+02  0.51100000000E-03 0.  1.
         11   -1    0    0    0    0 -0.00000000000E+00 -0.00000000000E+00 -0.45593999997E+02  0.45594000000E+02  0.51100000000E-03 0. -1.
    9900012    2    1    2    0    0 -0.20480906784E+01 -0.40496610923E+02 -0.15474266100E+02  0.47787273243E+02  0.20000010024E+02 0.  0.
        -12    1    1    2    0    0  0.20480906784E+01  0.40496610923E+02  0.15474266100E+02  0.43400726757E+02  0.00000000000E+00 0.  1.
         11    1    3    3    0    0 -0.55906311753E+01 -0.19497691478E+02 -0.11909236640E+02  0.23521161696E+02  0.51100000000E-03 0. -1.
        -11    1    3    3    0    0 -0.19253348420E+00 -0.76051631019E+01  0.38298265283E+01  0.85172264527E+01  0.51100000000E-03 0.  1.
         12    1    3    3    0    0  0.37350739812E+01 -0.13393756344E+02 -0.73948559883E+01  0.15748885095E+02  0.00000000000E+00 0. -1.
</event>
<event>
 7    1  0.1400974E-009  0.4778727E+02  0.7816164E-02  0.1312668E+00
        -11   -1    0    0    0    0  0.00000000000E+00  0.00000000000E+00  0.45593999997E+02  0.45594000000E+02  0.51100000000E-03 0. -1.
         11   -1    0    0    0    0 -0.00000000000E+00 -0.00000000000E+00 -0.45593999997E+02  0.45594000000E+02  0.51100000000E-03 0.  1.
    9900012    2    1    2    0    0 -0.21236785023E+02  0.35437662041E+02  0.13296398151E+02  0.47787272669E+02  0.20000007407E+02 0.  0.
        -12    1    1    2    0    0  0.21236785023E+02 -0.35437662041E+02 -0.13296398151E+02  0.43400727331E+02  0.00000000000E+00 0.  1.
         11    1    3    3    0    0 -0.72165819256E+01  0.56117730300E+01  0.72134381993E+01  0.11644944918E+02  0.51100000000E-03 0. -1.
        -11    1    3    3    0    0 -0.14164476612E+02  0.16649470964E+02  0.59384839937E+00  0.21867554442E+02  0.51100000000E-03 0.  1.
        -12    1    3    3    0    0  0.14427351401E+00  0.13176418047E+02  0.54891115527E+01  0.14274773309E+02  0.00000000000E+00 0.  1.
</event>
<event>
 7    1  0.1400974E-009  0.4778727E+02  0.7816164E-02  0.1312668E+00
        -11   -1    0    0    0    0  0.00000000000E+00  0.00000000000E+00  0.45593999997E+02  0.45594000000E+02  0.51100000000E-03 0.  1.
         11   -1    0    0    0    0 -0.00000000000E+00 -0.00000000000E+00 -0.45593999997E+02  0.45594000000E+02  0.51100000000E-03 0. -1.
    9900012    2    1    2    0    0  0.34409596835E+02  0.14587601013E+02 -0.22063651613E+02  0.47787272124E+02  0.20000004922E+02 0.  0.
        -12    1    1    2    0    0 -0.34409596835E+02 -0.14587601013E+02  0.22063651613E+02  0.43400727876E+02  0.00000000000E+00 0.  1.
         11    1    3    3    0    0  0.14491998923E+02  0.28065600891E+01 -0.16219677161E+02  0.21931090711E+02  0.51100000000E-03 0. -1.
        -11    1    3    3    0    0  0.12581343067E+02  0.12017945067E+02 -0.62940135962E+01  0.18502318892E+02  0.51100000000E-03 0.  1.
        -12    1    3    3    0    0  0.73362548457E+01 -0.23690414300E+00  0.45003914478E+00  0.73538625202E+01  0.00000000000E+00 0.  1.
</event>
<event>
 7    1  0.1400974E-009  0.4778727E+02  0.7816164E-02  0.1312668E+00
        -11   -1    0    0    0    0  0.00000000000E+00  0.00000000000E+00  0.45593999997E+02  0.45594000000E+02  0.51100000000E-03 0.  1.
         11   -1    0    0    0    0 -0.00000000000E+00 -0.00000000000E+00 -0.45593999997E+02  0.45594000000E+02  0.51100000000E-03 0. -1.
    9900012    2    1    2    0    0 -0.86824502519E+01 -0.26424160520E+02 -0.33316700898E+02  0.47787265440E+02  0.19999974449E+02 0.  0.
        -12    1    1    2    0    0  0.86824502519E+01  0.26424160520E+02  0.33316700898E+02  0.43400734560E+02  0.00000000000E+00 0.  1.
         11    1    3    3    0    0 -0.12174171009E+01  0.38957036574E+00 -0.40888931682E-01  0.12788829631E+01  0.51100000000E-03 0.  1.
        -11    1    3    3    0    0 -0.67059129133E+01 -0.11419261035E+01 -0.65838446964E+01  0.94667985335E+01  0.51100000000E-03 0. -1.
        -12    1    3    3    0    0 -0.75912023767E+00 -0.25671804782E+02 -0.26691967270E+02  0.37041583944E+02  0.00000000000E+00 0.  1.
</event>
<event>
 7    1  0.1400974E-009  0.4778727E+02  0.7816164E-02  0.1312668E+00
        -11   -1    0    0    0    0  0.00000000000E+00  0.00000000000E+00  0.45593999997E+02  0.45594000000E+02  0.51100000000E-03 0. -1.
         11   -1    0    0    0    0 -0.00000000000E+00 -0.00000000000E+00 -0.45593999997E+02  0.45594000000E+02  0.51100000000E-03 0.  1.
    9900012    2    1    2    0    0 -0.23147058953E+02 -0.27805623358E+02  0.23972570666E+02  0.47787272208E+02  0.20000005307E+02 0.  0.
        -12    1    1    2    0    0  0.23147058953E+02  0.27805623358E+02 -0.23972570666E+02  0.43400727792E+02  0.00000000000E+00 0.  1.
         11    1    3    3    0    0 -0.68186654334E+01 -0.12552867293E+02  0.16359396265E+02  0.21718621549E+02  0.51100000000E-03 0. -1.
        -11    1    3    3    0    0 -0.14790997358E+02 -0.78880250362E+01  0.79182846710E+01  0.18538979859E+02  0.51100000000E-03 0.  1.
        -12    1    3    3    0    0 -0.15373961612E+01 -0.73647310285E+01 -0.30511027036E+00  0.75296707999E+01  0.00000000000E+00 0.  1.
</event>
<event>
 7    1  0.1400974E-009  0.4778727E+02  0.7816164E-02  0.1312668E+00
        -11   -1    0    0    0    0  0.00000000000E+00  0.00000000000E+00  0.45593999997E+02  0.45594000000E+02  0.51100000000E-03 0.  1.
         11   -1    0    0    0    0 -0.00000000000E+00 -0.00000000000E+00 -0.45593999997E+02  0.45594000000E+02  0.51100000000E-03 0. -1.
    9900012    2    1    2    0    0  0.32576017511E+02 -0.10380805976E+02 -0.26733218377E+02  0.47787274034E+02  0.20000013630E+02 0.  0.
        -12    1    1    2    0    0 -0.32576017511E+02  0.10380805976E+02  0.26733218377E+02  0.43400725966E+02  0.00000000000E+00 0.  1.
         11    1    3    3    0    0  0.44178423213E+01 -0.23136186835E+01 -0.60523173638E+00  0.50235911363E+01  0.51100000000E-03 0. -1.
        -11    1    3    3    0    0  0.92739608329E+01  0.51255896459E+01 -0.10564703099E+02  0.14962986687E+02  0.51100000000E-03 0.  1.
        -12    1    3    3    0    0  0.18884214357E+02 -0.13192776939E+02 -0.15563283541E+02  0.27800696211E+02  0.00000000000E+00 0.  1.
</event>
<event>
 7    1  0.1400974E-009  0.4778727E+02  0.7816164E-02  0.1312668E+00
        -11   -1    0    0    0    0  0.00000000000E+00  0.00000000000E+00  0.45593999997E+02  0.45594000000E+02  0.51100000000E-03 0. -1.
         11   -1    0    0    0    0 -0.00000000000E+00 -0.00000000000E+00 -0.45593999997E+02  0.45594000000E+02  0.51100000000E-03 0.  1.
    9900012    2    1    2    0    0  0.78590724442E+01  0.15031198406E+02  0.39948981633E+02  0.47787273293E+02  0.20000010252E+02 0.  0.
        -12    1    1    2    0    0 -0.78590724442E+01 -0.15031198406E+02 -0.39948981633E+02  0.43400726707E+02  0.00000000000E+00 0.  1.
         11    1    3    3    0    0 -0.12636462055E+01  0.58462785874E+00  0.17684245595E+02  0.17738972180E+02  0.51100000000E-03 0. -1.
        -11    1    3    3    0    0 -0.90892858923E+00  0.82381831985E+01  0.77849563218E+01  0.11370987591E+02  0.51100000000E-03 0.  1.
         12    1    3    3    0    0  0.10031647239E+02  0.62083873483E+01  0.14479779716E+02  0.18677313523E+02  0.00000000000E+00 0. -1.
</event>
<event>
 7    1  0.1400974E-009  0.4778726E+02  0.7816164E-02  0.1312668E+00
        -11   -1    0    0    0    0  0.00000000000E+00  0.00000000000E+00  0.45593999997E+02  0.45594000000E+02  0.51100000000E-03 0.  1.
         11   -1    0    0    0    0 -0.00000000000E+00 -0.00000000000E+00 -0.45593999997E+02  0.45594000000E+02  0.51100000000E-03 0. -1.
    9900012    2    1    2    0    0 -0.27824809567E+02  0.98829654153E+01 -0.31807723317E+02  0.47787259275E+02  0.19999946340E+02 0.  0.
        -12    1    1    2    0    0  0.27824809567E+02 -0.98829654153E+01  0.31807723317E+02  0.43400740725E+02  0.00000000000E+00 0.  1.
         11    1    3    3    0    0 -0.44214274811E+01  0.13468218581E+01 -0.18124129643E+02  0.18704198076E+02  0.51100000000E-03 0. -1.
        -11    1    3    3    0    0 -0.74327890031E+01  0.57708976897E+01 -0.58587263906E+01  0.11084867509E+02  0.51100000000E-03 0.  1.
         12    1    3    3    0    0 -0.15970593083E+02  0.27652458675E+01 -0.78248672836E+01  0.17998193691E+02  0.00000000000E+00 0. -1.
</event>
<event>
 7    1  0.1400974E-009  0.4778727E+02  0.7816164E-02  0.1312668E+00
        -11   -1    0    0    0    0  0.00000000000E+00  0.00000000000E+00  0.45593999997E+02  0.45594000000E+02  0.51100000000E-03 0.  1.
         11   -1    0    0    0    0 -0.00000000000E+00 -0.00000000000E+00 -0.45593999997E+02  0.45594000000E+02  0.51100000000E-03 0. -1.
    9900012    2    1    2    0    0  0.38923823345E+02 -0.13016088646E+02 -0.14111721367E+02  0.47787271119E+02  0.20000000342E+02 0.  0.
        -12    1    1    2    0    0 -0.38923823345E+02  0.13016088646E+02  0.14111721367E+02  0.43400728881E+02  0.00000000000E+00 0.  1.
         11    1    3    3    0    0  0.10903135150E+02  0.10995787002E+01 -0.62397925747E+01  0.12610410027E+02  0.51100000000E-03 0. -1.
        -11    1    3    3    0    0  0.21186101242E+02 -0.69937508732E+01  0.37583651221E+00  0.22313778041E+02  0.51100000000E-03 0.  1.
        -12    1    3    3    0    0  0.68345869529E+01 -0.71219164734E+01 -0.82477653045E+01  0.12863083051E+02  0.00000000000E+00 0.  1.
</event>
<event>
 7    1  0.1400974E-009  0.4778727E+02  0.7816164E-02  0.1312668E+00
        -11   -1    0    0    0    0  0.00000000000E+00  0.00000000000E+00  0.45593999997E+02  0.45594000000E+02  0.51100000000E-03 0.  1.
         11   -1    0    0    0    0 -0.00000000000E+00 -0.00000000000E+00 -0.45593999997E+02  0.45594000000E+02  0.51100000000E-03 0. -1.
    9900012    2    1    2    0    0 -0.47464337214E+01 -0.12591978952E+02 -0.41261809120E+02  0.47787268913E+02  0.19999990282E+02 0.  0.
        -12    1    1    2    0    0  0.47464337214E+01  0.12591978952E+02  0.41261809120E+02  0.43400731087E+02  0.00000000000E+00 0.  1.
         11    1    3    3    0    0  0.28298558895E+01 -0.11356749402E+02 -0.15038791999E+02  0.19056471509E+02  0.51100000000E-03 0. -1.
        -11    1    3    3    0    0  0.47479339969E+00  0.26979536607E+01 -0.51885729007E+01  0.58673394085E+01  0.51100000000E-03 0.  1.
        -12    1    3    3    0    0 -0.80510830106E+01 -0.39331832106E+01 -0.21034444221E+02  0.22863457995E+02  0.00000000000E+00 0.  1.
</event>
<event>
 7    1  0.1400974E-009  0.4778727E+02  0.7816164E-02  0.1312668E+00
        -11   -1    0    0    0    0  0.00000000000E+00  0.00000000000E+00  0.45593999997E+02  0.45594000000E+02  0.51100000000E-03 0.  1.
         11   -1    0    0    0    0 -0.00000000000E+00 -0.00000000000E+00 -0.45593999997E+02  0.45594000000E+02  0.51100000000E-03 0. -1.
    9900012    2    1    2    0    0 -0.40765225273E+02 -0.11058529089E+01  0.14852512521E+02  0.47787266937E+02  0.19999981271E+02 0.  0.
        -12    1    1    2    0    0  0.40765225273E+02  0.11058529089E+01 -0.14852512521E+02  0.43400733063E+02  0.00000000000E+00 0.  1.
         11    1    3    3    0    0 -0.23669843274E+02 -0.72185010716E+01  0.11374007155E+02  0.27234835732E+02  0.51100000000E-03 0. -1.
        -11    1    3    3    0    0 -0.16207258033E+02  0.23458733686E+01  0.25622520566E+01  0.16575387497E+02  0.51100000000E-03 0.  1.
        -12    1    3    3    0    0 -0.88812396712E+00  0.37667747941E+01  0.91625330939E+00  0.39770437083E+01  0.00000000000E+00 0.  1.
</event>
<event>
 7    1  0.1400974E-009  0.4778727E+02  0.7816164E-02  0.1312668E+00
        -11   -1    0    0    0    0  0.00000000000E+00  0.00000000000E+00  0.45593999997E+02  0.45594000000E+02  0.51100000000E-03 0.  1.
         11   -1    0    0    0    0 -0.00000000000E+00 -0.00000000000E+00 -0.45593999997E+02  0.45594000000E+02  0.51100000000E-03 0. -1.
    9900012    2    1    2    0    0 -0.89060674593E+01  0.39686157440E+02 -0.15143122613E+02  0.47787270831E+02  0.19999999027E+02 0.  0.
        -12    1    1    2    0    0  0.89060674593E+01 -0.39686157440E+02  0.15143122613E+02  0.43400729169E+02  0.00000000000E+00 0.  1.
         11    1    3    3    0    0 -0.18091113961E+01  0.40290317782E+00  0.11136757002E+01  0.21622878718E+01  0.51100000000E-03 0. -1.
        -11    1    3    3    0    0  0.16600109089E+01  0.25969659092E+02 -0.61002469201E+01  0.26728109591E+02  0.51100000000E-03 0.  1.
         12    1    3    3    0    0 -0.87569669721E+01  0.13313595170E+02 -0.10156551393E+02  0.18896873368E+02  0.00000000000E+00 0. -1.
</event>
<event>
 7    1  0.1400974E-009  0.4778727E+02  0.7816164E-02  0.1312668E+00
        -11   -1    0    0    0    0  0.00000000000E+00  0.00000000000E+00  0.45593999997E+02  0.45594000000E+02  0.51100000000E-03 0. -1.
         11   -1    0    0    0    0 -0.00000000000E+00 -0.00000000000E+00 -0.45593999997E+02  0.45594000000E+02  0.51100000000E-03 0.  1.
    9900012    2    1    2    0    0 -0.98371120183E+01 -0.42252589736E+02 -0.12542547861E+01  0.47787271119E+02  0.20000000342E+02 0.  0.
        -12    1    1    2    0    0  0.98371120183E+01  0.42252589736E+02  0.12542547861E+01  0.43400728881E+02  0.00000000000E+00 0.  1.
         11    1    3    3    0    0  0.10492428997E+00 -0.26148382324E+01  0.10305233001E+01  0.28125373991E+01  0.51100000000E-03 0. -1.
        -11    1    3    3    0    0 -0.12884131462E+02 -0.15881676309E+02  0.23742123211E+01  0.20587990925E+02  0.51100000000E-03 0.  1.
        -12    1    3    3    0    0  0.29420951535E+01 -0.23756075195E+02 -0.46589904073E+01  0.24386742795E+02  0.00000000000E+00 0.  1.
</event>
<event>
 7    1  0.1400974E-009  0.4778727E+02  0.7816164E-02  0.1312668E+00
        -11   -1    0    0    0    0  0.00000000000E+00  0.00000000000E+00  0.45593999997E+02  0.45594000000E+02  0.51100000000E-03 0. -1.
         11   -1    0    0    0    0 -0.00000000000E+00 -0.00000000000E+00 -0.45593999997E+02  0.45594000000E+02  0.51100000000E-03 0.  1.
    9900012    2    1    2    0    0 -0.23915738069E+02 -0.23880890113E+01  0.36138041048E+02  0.47787268355E+02  0.19999987739E+02 0.  0.
        -12    1    1    2    0    0  0.23915738069E+02  0.23880890113E+01 -0.36138041048E+02  0.43400731645E+02  0.00000000000E+00 0.  1.
         11    1    3    3    0    0 -0.37426075345E+01  0.21751378294E+00 -0.73899141583E+00  0.38210642466E+01  0.51100000000E-03 0. -1.
        -11    1    3    3    0    0 -0.34345538479E+01 -0.33077875003E+00  0.51211101169E-01  0.34508256336E+01  0.51100000000E-03 0.  1.
         12    1    3    3    0    0 -0.16738576686E+02 -0.22748240442E+01  0.36825821363E+02  0.40515378475E+02  0.00000000000E+00 0. -1.
</event>
<event>
 7    1  0.1400974E-009  0.4778727E+02  0.7816164E-02  0.1312668E+00
        -11   -1    0    0    0    0  0.00000000000E+00  0.00000000000E+00  0.45593999997E+02  0.45594000000E+02  0.51100000000E-03 0.  1.
         11   -1    0    0    0    0 -0.00000000000E+00 -0.00000000000E+00 -0.45593999997E+02  0.45594000000E+02  0.51100000000E-03 0. -1.
    9900012    2    1    2    0    0  0.18537398299E+01 -0.74445786182E+01 -0.42717270903E+02  0.47787270333E+02  0.19999996758E+02 0.  0.
        -12    1    1    2    0    0 -0.18537398299E+01  0.74445786182E+01  0.42717270903E+02  0.43400729667E+02  0.00000000000E+00 0.  1.
         11    1    3    3    0    0  0.80122777312E+01 -0.25304268618E+01 -0.28733731117E+02  0.29937049934E+02  0.51100000000E-03 0. -1.
        -11    1    3    3    0    0 -0.24902531409E+01  0.13551116405E+01 -0.10627792652E+01  0.30277364964E+01  0.51100000000E-03 0.  1.
        -12    1    3    3    0    0 -0.36682847604E+01 -0.62692633969E+01 -0.12920760521E+02  0.14822483903E+02  0.00000000000E+00 0.  1.
</event>
<event>
 7    1  0.1400974E-009  0.4778728E+02  0.7816164E-02  0.1312668E+00
        -11   -1    0    0    0    0  0.00000000000E+00  0.00000000000E+00  0.45593999997E+02  0.45594000000E+02  0.51100000000E-03 0.  1.
         11   -1    0    0    0    0 -0.00000000000E+00 -0.00000000000E+00 -0.45593999997E+02  0.45594000000E+02  0.51100000000E-03 0. -1.
    9900012    2    1    2    0    0  0.54839147663E+01  0.48269138807E+01 -0.42781425148E+02  0.47787277005E+02  0.20000027178E+02 0.  0.
        -12    1    1    2    0    0 -0.54839147663E+01 -0.48269138807E+01  0.42781425148E+02  0.43400722995E+02  0.00000000000E+00 0.  1.
         11    1    3    3    0    0  0.14162007309E+01 -0.57404012680E+00 -0.12739358252E+02  0.12830681802E+02  0.51100000000E-03 0. -1.
        -11    1    3    3    0    0  0.31148191713E+00  0.45308582209E+01  0.12583760591E+00  0.45432953422E+01  0.51100000000E-03 0.  1.
        -12    1    3    3    0    0  0.37562321183E+01  0.87009578660E+00 -0.30167904502E+02  0.30413299861E+02  0.00000000000E+00 0.  1.
</event>
<event>
 7    1  0.1400974E-009  0.4778727E+02  0.7816164E-02  0.1312668E+00
        -11   -1    0    0    0    0  0.00000000000E+00  0.00000000000E+00  0.45593999997E+02  0.45594000000E+02  0.51100000000E-03 0. -1.
         11   -1    0    0    0    0 -0.00000000000E+00 -0.00000000000E+00 -0.45593999997E+02  0.45594000000E+02  0.51100000000E-03 0.  1.
    9900012    2    1    2    0    0  0.26714039608E+02 -0.23270147579E+02  0.25069575248E+02  0.47787270932E+02  0.19999999488E+02 0.  0.
        -12    1    1    2    0    0 -0.26714039608E+02  0.23270147579E+02 -0.25069575248E+02  0.43400729068E+02  0.00000000000E+00 0.  1.
         11    1    3    3    0    0  0.17384627909E+02 -0.16826889130E+02  0.16726659661E+02  0.29413442998E+02  0.51100000000E-03 0. -1.
        -11    1    3    3    0    0  0.33183100586E+01 -0.57160575143E+01 -0.15373145219E+01  0.67858552410E+01  0.51100000000E-03 0.  1.
         12    1    3    3    0    0  0.60111016411E+01 -0.72720093446E+00  0.98802301086E+01  0.11587972693E+02  0.00000000000E+00 0. -1.
</event>
<event>
 7    1  0.1400974E-009  0.4778727E+02  0.7816164E-02  0.1312668E+00
        -11   -1    0    0    0    0  0.00000000000E+00  0.00000000000E+00  0.45593999997E+02  0.45594000000E+02  0.51100000000E-03 0. -1.
         11   -1    0    0    0    0 -0.00000000000E+00 -0.00000000000E+00 -0.45593999997E+02  0.45594000000E+02  0.51100000000E-03 0.  1.
    9900012    2    1    2    0    0 -0.73044989995E+01  0.42637972995E+02 -0.35029792654E+01  0.47787270623E+02  0.19999998078E+02 0.  0.
        -12    1    1    2    0    0  0.73044989995E+01 -0.42637972995E+02  0.35029792654E+01  0.43400729377E+02  0.00000000000E+00 0.  1.
         11    1    3    3    0    0 -0.84057045186E-01  0.79450854008E+01 -0.60483449357E+01  0.99856859721E+01  0.51100000000E-03 0. -1.
        -11    1    3    3    0    0  0.27621771430E+01  0.15986999666E+02  0.34209617370E+01  0.16580613992E+02  0.51100000000E-03 0.  1.
        -12    1    3    3    0    0 -0.99826190974E+01  0.18705887928E+02 -0.87559606682E+00  0.21220970659E+02  0.00000000000E+00 0.  1.
</event>
<event>
 7    1  0.1400974E-009  0.4778728E+02  0.7816164E-02  0.1312668E+00
        -11   -1    0    0    0    0  0.00000000000E+00  0.00000000000E+00  0.45593999997E+02  0.45594000000E+02  0.51100000000E-03 0.  1.
         11   -1    0    0    0    0 -0.00000000000E+00 -0.00000000000E+00 -0.45593999997E+02  0.45594000000E+02  0.51100000000E-03 0. -1.
    9900012    2    1    2    0    0  0.15640803036E+02 -0.21345914398E+02 -0.34399703390E+02  0.47787281406E+02  0.20000047242E+02 0.  0.
        -12    1    1    2    0    0 -0.15640803036E+02  0.21345914398E+02  0.34399703390E+02  0.43400718594E+02  0.00000000000E+00 0.  1.
         11    1    3    3    0    0  0.36246309580E+01 -0.73533374929E+01 -0.14143926517E+02  0.16348094061E+02  0.51100000000E-03 0. -1.
        -11    1    3    3    0    0 -0.14146332335E+01 -0.92897343950E+01 -0.10982851471E+02  0.14454182060E+02  0.51100000000E-03 0.  1.
         12    1    3    3    0    0  0.13430805312E+02 -0.47028425105E+01 -0.92729254022E+01  0.16985005285E+02  0.00000000000E+00 0. -1.
</event>
<event>
 7    1  0.1400974E-009  0.4778727E+02  0.7816164E-02  0.1312668E+00
        -11   -1    0    0    0    0  0.00000000000E+00  0.00000000000E+00  0.45593999997E+02  0.45594000000E+02  0.51100000000E-03 0.  1.
         11   -1    0    0    0    0 -0.00000000000E+00 -0.00000000000E+00 -0.45593999997E+02  0.45594000000E+02  0.51100000000E-03 0. -1.
    9900012    2    1    2    0    0 -0.19866616568E+02 -0.38365650569E+02  0.41252387140E+01  0.47787271989E+02  0.20000004307E+02 0.  0.
        -12    1    1    2    0    0  0.19866616568E+02  0.38365650569E+02 -0.41252387140E+01  0.43400728011E+02  0.00000000000E+00 0.  1.
         11    1    3    3    0    0 -0.29631106609E+01 -0.20243108670E+00  0.18018295237E+01  0.34738441282E+01  0.51100000000E-03 0. -1.
        -11    1    3    3    0    0 -0.82144557903E+01 -0.54712801228E+01  0.34838362771E+01  0.10466580415E+02  0.51100000000E-03 0.  1.
         12    1    3    3    0    0 -0.86890501163E+01 -0.32691939360E+02 -0.11604270867E+01  0.33846847446E+02  0.00000000000E+00 0. -1.
</event>
<event>
 7    1  0.1400974E-009  0.4778727E+02  0.7816164E-02  0.1312668E+00
        -11   -1    0    0    0    0  0.00000000000E+00  0.00000000000E+00  0.45593999997E+02  0.45594000000E+02  0.51100000000E-03 0. -1.
         11   -1    0    0    0    0 -0.00000000000E+00 -0.00000000000E+00 -0.45593999997E+02  0.45594000000E+02  0.51100000000E-03 0.  1.
    9900012    2    1    2    0    0  0.27765691338E+02  0.33035869884E+02  0.46175029372E+01  0.47787266736E+02  0.19999980356E+02 0.  0.
        -12    1    1    2    0    0 -0.27765691338E+02 -0.33035869884E+02 -0.46175029372E+01  0.43400733264E+02  0.00000000000E+00 0.  1.
         11    1    3    3    0    0  0.21253502601E+02  0.15873879604E+02  0.11596641661E+01  0.26552518671E+02  0.51100000000E-03 0. -1.
        -11    1    3    3    0    0  0.68467755066E+01  0.17250267347E+02  0.82333858339E+00  0.18577619467E+02  0.51100000000E-03 0.  1.
        -12    1    3    3    0    0 -0.33458677022E+00 -0.88277067205E-01  0.26345001877E+01  0.26571285981E+01  0.00000000000E+00 0.  1.
</event>
<event>
 7    1  0.1400974E-009  0.4778727E+02  0.7816164E-02  0.1312668E+00
        -11   -1    0    0    0    0  0.00000000000E+00  0.00000000000E+00  0.45593999997E+02  0.45594000000E+02  0.51100000000E-03 0. -1.
         11   -1    0    0    0    0 -0.00000000000E+00 -0.00000000000E+00 -0.45593999997E+02  0.45594000000E+02  0.51100000000E-03 0.  1.
    9900012    2    1    2    0    0 -0.24303864790E+02  0.35901420973E+02  0.20082863770E+01  0.47787273212E+02  0.20000009881E+02 0.  0.
        -12    1    1    2    0    0  0.24303864790E+02 -0.35901420973E+02 -0.20082863770E+01  0.43400726788E+02  0.00000000000E+00 0.  1.
         11    1    3    3    0    0 -0.20489733845E+02  0.22370994437E+02 -0.28544567604E+01  0.30470288952E+02  0.51100000000E-03 0. -1.
        -11    1    3    3    0    0 -0.27016428244E+01  0.23117370379E-01  0.22465459592E+01  0.35137412215E+01  0.51100000000E-03 0.  1.
        -12    1    3    3    0    0 -0.11124881205E+01  0.13507309165E+02  0.26161971781E+01  0.13803243038E+02  0.00000000000E+00 0.  1.
</event>
<event>
 7    1  0.1400974E-009  0.4778727E+02  0.7816164E-02  0.1312668E+00
        -11   -1    0    0    0    0  0.00000000000E+00  0.00000000000E+00  0.45593999997E+02  0.45594000000E+02  0.51100000000E-03 0.  1.
         11   -1    0    0    0    0 -0.00000000000E+00 -0.00000000000E+00 -0.45593999997E+02  0.45594000000E+02  0.51100000000E-03 0. -1.
    9900012    2    1    2    0    0 -0.15260628703E+02 -0.40203831848E+02 -0.58641467537E+01  0.47787273038E+02  0.20000009088E+02 0.  0.
        -12    1    1    2    0    0  0.15260628703E+02  0.40203831848E+02  0.58641467537E+01  0.43400726962E+02  0.00000000000E+00 0.  1.
         11    1    3    3    0    0 -0.96812907957E+01 -0.10088295853E+02 -0.17313807434E+01  0.14088959658E+02  0.51100000000E-03 0. -1.
        -11    1    3    3    0    0 -0.35514410461E+01 -0.22648960352E+02  0.30665080544E+01  0.23129885655E+02  0.51100000000E-03 0.  1.
         12    1    3    3    0    0 -0.20278968609E+01 -0.74665756435E+01 -0.71992740647E+01  0.10568427725E+02  0.00000000000E+00 0. -1.
</event>
<event>
 7    1  0.1400974E-009  0.4778727E+02  0.7816164E-02  0.1312668E+00
        -11   -1    0    0    0    0  0.00000000000E+00  0.00000000000E+00  0.45593999997E+02  0.45594000000E+02  0.51100000000E-03 0. -1.
         11   -1    0    0    0    0 -0.00000000000E+00 -0.00000000000E+00 -0.45593999997E+02  0.45594000000E+02  0.51100000000E-03 0.  1.
    9900012    2    1    2    0    0 -0.32260905821E+01  0.43280251935E+02  0.18865555206E+00  0.47787268913E+02  0.19999990281E+02 0.  0.
        -12    1    1    2    0    0  0.32260905821E+01 -0.43280251935E+02 -0.18865555206E+00  0.43400731087E+02  0.00000000000E+00 0.  1.
         11    1    3    3    0    0 -0.85527493339E+01  0.29728511149E+02  0.30826646155E+01  0.31087565323E+02  0.51100000000E-03 0. -1.
        -11    1    3    3    0    0  0.26746798190E+01  0.56411956128E+01  0.25430490983E+01  0.67412238543E+01  0.51100000000E-03 0.  1.
         12    1    3    3    0    0  0.26519789328E+01  0.79105451731E+01 -0.54370581617E+01  0.99584797359E+01  0.00000000000E+00 0. -1.
</event>
<event>
 7    1  0.1400974E-009  0.4778727E+02  0.7816164E-02  0.1312668E+00
        -11   -1    0    0    0    0  0.00000000000E+00  0.00000000000E+00  0.45593999997E+02  0.45594000000E+02  0.51100000000E-03 0.  1.
         11   -1    0    0    0    0 -0.00000000000E+00 -0.00000000000E+00 -0.45593999997E+02  0.45594000000E+02  0.51100000000E-03 0. -1.
    9900012    2    1    2    0    0 -0.36337958297E+02 -0.80989077962E+00  0.23717508886E+02  0.47787270006E+02  0.19999995267E+02 0.  0.
        -12    1    1    2    0    0  0.36337958297E+02  0.80989077962E+00 -0.23717508886E+02  0.43400729994E+02  0.00000000000E+00 0.  1.
         11    1    3    3    0    0 -0.27093423075E+01  0.37252446529E+01  0.25590331710E+01  0.52694055163E+01  0.51100000000E-03 0. -1.
        -11    1    3    3    0    0 -0.74601225843E+01 -0.33930203538E+00 -0.15382898757E+01  0.76246239807E+01  0.51100000000E-03 0.  1.
         12    1    3    3    0    0 -0.26168493405E+02 -0.41958333972E+01  0.22696765590E+02  0.34893240509E+02  0.00000000000E+00 0. -1.
</event>
<event>
 7    1  0.1400974E-009  0.4778727E+02  0.7816164E-02  0.1312668E+00
        -11   -1    0    0    0    0  0.00000000000E+00  0.00000000000E+00  0.45593999997E+02  0.45594000000E+02  0.51100000000E-03 0.  1.
         11   -1    0    0    0    0 -0.00000000000E+00 -0.00000000000E+00 -0.45593999997E+02  0.45594000000E+02  0.51100000000E-03 0. -1.
    9900012    2    1    2    0    0 -0.53518697074E+01  0.27827111464E+02 -0.32872974781E+02  0.47787272901E+02  0.20000008463E+02 0.  0.
        -12    1    1    2    0    0  0.53518697074E+01 -0.27827111464E+02  0.32872974781E+02  0.43400727099E+02  0.00000000000E+00 0.  1.
         11    1    3    3    0    0  0.42575363060E+00  0.22417278047E+02 -0.18422601398E+02  0.29019094812E+02  0.51100000000E-03 0. -1.
        -11    1    3    3    0    0 -0.58950741534E+01  0.49910815212E+01 -0.47705681142E+01  0.90786075154E+01  0.51100000000E-03 0.  1.
        -12    1    3    3    0    0  0.11745081541E+00  0.41875189587E+00 -0.96798052695E+01  0.96895705735E+01  0.00000000000E+00 0.  1.
</event>
<event>
 7    1  0.1400974E-009  0.4778727E+02  0.7816164E-02  0.1312668E+00
        -11   -1    0    0    0    0  0.00000000000E+00  0.00000000000E+00  0.45593999997E+02  0.45594000000E+02  0.51100000000E-03 0.  1.
         11   -1    0    0    0    0 -0.00000000000E+00 -0.00000000000E+00 -0.45593999997E+02  0.45594000000E+02  0.51100000000E-03 0. -1.
    9900012    2    1    2    0    0  0.21331971941E+01  0.43274037076E+02  0.25358224435E+01  0.47787271773E+02  0.20000003323E+02 0.  0.
        -12    1    1    2    0    0 -0.21331971941E+01 -0.43274037076E+02 -0.25358224435E+01  0.43400728227E+02  0.00000000000E+00 0.  1.
         11    1    3    3    0    0  0.56947439442E+00  0.23307060258E+02  0.17911400148E+01  0.23382718871E+02  0.51100000000E-03 0. -1.
        -11    1    3    3    0    0  0.47846921086E+01  0.18680834380E+02 -0.27523844146E+01  0.19479283147E+02  0.51100000000E-03 0.  1.
        -12    1    3    3    0    0 -0.32209693088E+01  0.12861424383E+01  0.34970668433E+01  0.49252697557E+01  0.00000000000E+00 0.  1.
</event>
<event>
 7    1  0.1400974E-009  0.4778728E+02  0.7816164E-02  0.1312668E+00
        -11   -1    0    0    0    0  0.00000000000E+00  0.00000000000E+00  0.45593999997E+02  0.45594000000E+02  0.51100000000E-03 0. -1.
         11   -1    0    0    0    0 -0.00000000000E+00 -0.00000000000E+00 -0.45593999997E+02  0.45594000000E+02  0.51100000000E-03 0.  1.
    9900012    2    1    2    0    0  0.13376544416E+02 -0.23656687473E+02  0.33838609151E+02  0.47787282587E+02  0.20000052628E+02 0.  0.
        -12    1    1    2    0    0 -0.13376544416E+02  0.23656687473E+02 -0.33838609151E+02  0.43400717413E+02  0.00000000000E+00 0.  1.
         11    1    3    3    0    0  0.40402662186E+01 -0.13962535424E+02  0.98358795132E+01  0.17550517731E+02  0.51100000000E-03 0. -1.
        -11    1    3    3    0    0  0.65781954187E+01 -0.10524681471E+02  0.24354791413E+02  0.27334912476E+02  0.51100000000E-03 0.  1.
         12    1    3    3    0    0  0.27580827789E+01  0.83052942250E+00 -0.35206177602E+00  0.29018523792E+01  0.00000000000E+00 0. -1.
</event>
<event>
 7    1  0.1400974E-009  0.4778727E+02  0.7816164E-02  0.1312668E+00
        -11   -1    0    0    0    0  0.00000000000E+00  0.00000000000E+00  0.45593999997E+02  0.45594000000E+02  0.51100000000E-03 0.  1.
         11   -1    0    0    0    0 -0.00000000000E+00 -0.00000000000E+00 -0.45593999997E+02  0.45594000000E+02  0.51100000000E-03 0. -1.
    9900012    2    1    2    0    0 -0.16640003067E+02  0.32499068530E+02  0.23463675900E+02  0.47787271387E+02  0.20000001564E+02 0.  0.
        -12    1    1    2    0    0  0.16640003067E+02 -0.32499068530E+02 -0.23463675900E+02  0.43400728613E+02  0.00000000000E+00 0.  1.
         11    1    3    3    0    0  0.12486832867E+01  0.45412295405E+01 -0.10294063907E+00  0.47108993543E+01  0.51100000000E-03 0. -1.
        -11    1    3    3    0    0 -0.11055720979E+01  0.11436593049E+00 -0.16104983665E+01  0.19568021053E+01  0.51100000000E-03 0.  1.
         12    1    3    3    0    0 -0.16783114256E+02  0.27843473059E+02  0.25177114905E+02  0.41119569928E+02  0.00000000000E+00 0. -1.
</event>
<event>
 7    1  0.1400974E-009  0.4778726E+02  0.7816164E-02  0.1312668E+00
        -11   -1    0    0    0    0  0.00000000000E+00  0.00000000000E+00  0.45593999997E+02  0.45594000000E+02  0.51100000000E-03 0.  1.
         11   -1    0    0    0    0 -0.00000000000E+00 -0.00000000000E+00 -0.45593999997E+02  0.45594000000E+02  0.51100000000E-03 0. -1.
    9900012    2    1    2    0    0  0.16599390162E+02  0.26830070399E+02 -0.29803215262E+02  0.47787261857E+02  0.19999958112E+02 0.  0.
        -12    1    1    2    0    0 -0.16599390162E+02 -0.26830070399E+02  0.29803215262E+02  0.43400738143E+02  0.00000000000E+00 0.  1.
         11    1    3    3    0    0  0.87002109872E+01  0.25118858583E+02 -0.27688641262E+02  0.38383741127E+02  0.51100000000E-03 0. -1.
        -11    1    3    3    0    0  0.29591355681E+00 -0.10149225133E+01 -0.48697667098E+00  0.11639497757E+01  0.51100000000E-03 0.  1.
        -12    1    3    3    0    0  0.76032656184E+01  0.27261343298E+01 -0.16275973287E+01  0.82395709544E+01  0.00000000000E+00 0.  1.
</event>
<event>
 7    1  0.1400974E-009  0.4778728E+02  0.7816164E-02  0.1312668E+00
        -11   -1    0    0    0    0  0.00000000000E+00  0.00000000000E+00  0.45593999997E+02  0.45594000000E+02  0.51100000000E-03 0.  1.
         11   -1    0    0    0    0 -0.00000000000E+00 -0.00000000000E+00 -0.45593999997E+02  0.45594000000E+02  0.51100000000E-03 0. -1.
    9900012    2    1    2    0    0  0.31281752944E+02 -0.10877730169E+02 -0.28049057825E+02  0.47787277359E+02  0.20000028792E+02 0.  0.
        -12    1    1    2    0    0 -0.31281752944E+02  0.10877730169E+02  0.28049057825E+02  0.43400722641E+02  0.00000000000E+00 0.  1.
         11    1    3    3    0    0  0.31166746905E+01  0.40936099291E+00 -0.66667396937E+01  0.73706618396E+01  0.51100000000E-03 0. -1.
        -11    1    3    3    0    0  0.13049614868E+02 -0.70781733366E+01 -0.12586604668E+01  0.14898899705E+02  0.51100000000E-03 0.  1.
        -12    1    3    3    0    0  0.15115463386E+02 -0.42089178252E+01 -0.20123657664E+02  0.25517715815E+02  0.00000000000E+00 0.  1.
</event>
<event>
 7    1  0.1400974E-009  0.4778727E+02  0.7816164E-02  0.1312668E+00
        -11   -1    0    0    0    0  0.00000000000E+00  0.00000000000E+00  0.45593999997E+02  0.45594000000E+02  0.51100000000E-03 0. -1.
         11   -1    0    0    0    0 -0.00000000000E+00 -0.00000000000E+00 -0.45593999997E+02  0.45594000000E+02  0.51100000000E-03 0.  1.
    9900012    2    1    2    0    0 -0.20797775865E+02  0.20905532670E+02  0.31843908582E+02  0.47787270848E+02  0.19999999105E+02 0.  0.
        -12    1    1    2    0    0  0.20797775865E+02 -0.20905532670E+02 -0.31843908582E+02  0.43400729152E+02  0.00000000000E+00 0.  1.
         11    1    3    3    0    0 -0.16739624952E+02  0.23360427265E+02  0.25380048342E+02  0.38341510920E+02  0.51100000000E-03 0. -1.
        -11    1    3    3    0    0 -0.20264960514E+00 -0.18441119890E+01 -0.45366607550E-01  0.18557678413E+01  0.51100000000E-03 0.  1.
         12    1    3    3    0    0 -0.38555013082E+01 -0.61078260600E+00  0.65092268473E+01  0.75899920869E+01  0.00000000000E+00 0. -1.
</event>
<event>
 7    1  0.1400974E-009  0.4778727E+02  0.7816164E-02  0.1312668E+00
        -11   -1    0    0    0    0  0.00000000000E+00  0.00000000000E+00  0.45593999997E+02  0.45594000000E+02  0.51100000000E-03 0. -1.
         11   -1    0    0    0    0 -0.00000000000E+00 -0.00000000000E+00 -0.45593999997E+02  0.45594000000E+02  0.51100000000E-03 0.  1.
    9900012    2    1    2    0    0 -0.16679439317E+02 -0.39575695413E+02 -0.62597240567E+01  0.47787268340E+02  0.19999987669E+02 0.  0.
        -12    1    1    2    0    0  0.16679439317E+02  0.39575695413E+02  0.62597240567E+01  0.43400731660E+02  0.00000000000E+00 0.  1.
         11    1    3    3    0    0 -0.11293902597E+02 -0.25073817083E+02 -0.16486708361E+01  0.27549349444E+02  0.51100000000E-03 0. -1.
        -11    1    3    3    0    0 -0.40396757748E+01 -0.13705824450E+01  0.27971066029E+01  0.51011059795E+01  0.51100000000E-03 0.  1.
         12    1    3    3    0    0 -0.13458609453E+01 -0.13131295885E+02 -0.74081598235E+01  0.15136812916E+02  0.00000000000E+00 0. -1.
</event>
<event>
 7    1  0.1400974E-009  0.4778727E+02  0.7816164E-02  0.1312668E+00
        -11   -1    0    0    0    0  0.00000000000E+00  0.00000000000E+00  0.45593999997E+02  0.45594000000E+02  0.51100000000E-03 0. -1.
         11   -1    0    0    0    0 -0.00000000000E+00 -0.00000000000E+00 -0.45593999997E+02  0.45594000000E+02  0.51100000000E-03 0.  1.
    9900012    2    1    2    0    0  0.26040428084E+02 -0.23364458502E+02  0.25683098333E+02  0.47787270100E+02  0.19999995692E+02 0.  0.
        -12    1    1    2    0    0 -0.26040428084E+02  0.23364458502E+02 -0.25683098333E+02  0.43400729900E+02  0.00000000000E+00 0.  1.
         11    1    3    3    0    0  0.55635556547E+00 -0.84825318594E+01  0.48714313433E+01  0.97976385856E+01  0.51100000000E-03 0. -1.
        -11    1    3    3    0    0  0.70618153931E+01  0.25089325895E+00  0.88241225879E+01  0.11304747842E+02  0.51100000000E-03 0.  1.
        -12    1    3    3    0    0  0.18422257126E+02 -0.15132819901E+02  0.11987544402E+02  0.26684883672E+02  0.00000000000E+00 0.  1.
</event>
<event>
 7    1  0.1400974E-009  0.4778727E+02  0.7816164E-02  0.1312668E+00
        -11   -1    0    0    0    0  0.00000000000E+00  0.00000000000E+00  0.45593999997E+02  0.45594000000E+02  0.51100000000E-03 0.  1.
         11   -1    0    0    0    0 -0.00000000000E+00 -0.00000000000E+00 -0.45593999997E+02  0.45594000000E+02  0.51100000000E-03 0. -1.
    9900012    2    1    2    0    0 -0.36166944010E+02 -0.22152020037E+02 -0.92121354702E+01  0.47787271081E+02  0.20000000168E+02 0.  0.
        -12    1    1    2    0    0  0.36166944010E+02  0.22152020037E+02  0.92121354702E+01  0.43400728919E+02  0.00000000000E+00 0.  1.
         11    1    3    3    0    0 -0.83828902147E+01 -0.10376386743E+02 -0.66007699553E+01  0.14883293132E+02  0.51100000000E-03 0. -1.
        -11    1    3    3    0    0 -0.54823264907E+01 -0.43689461993E+01  0.45261712561E+01  0.83444485225E+01  0.51100000000E-03 0.  1.
         12    1    3    3    0    0 -0.22301727305E+02 -0.74066870947E+01 -0.71375367710E+01  0.24559529427E+02  0.00000000000E+00 0. -1.
</event>
<event>
 7    1  0.1400974E-009  0.4778727E+02  0.7816164E-02  0.1312668E+00
        -11   -1    0    0    0    0  0.00000000000E+00  0.00000000000E+00  0.45593999997E+02  0.45594000000E+02  0.51100000000E-03 0. -1.
         11   -1    0    0    0    0 -0.00000000000E+00 -0.00000000000E+00 -0.45593999997E+02  0.45594000000E+02  0.51100000000E-03 0.  1.
    9900012    2    1    2    0    0 -0.40455968033E+02 -0.46344393339E+01  0.15015317847E+02  0.47787272500E+02  0.20000006639E+02 0.  0.
        -12    1    1    2    0    0  0.40455968033E+02  0.46344393339E+01 -0.15015317847E+02  0.43400727500E+02  0.00000000000E+00 0.  1.
         11    1    3    3    0    0 -0.26224458715E+02  0.14342235983E+01  0.12273634851E+02  0.28990021472E+02  0.51100000000E-03 0. -1.
        -11    1    3    3    0    0 -0.63992597011E+01 -0.42517807301E+01  0.63662131963E+01  0.99778171370E+01  0.51100000000E-03 0.  1.
         12    1    3    3    0    0 -0.78322496166E+01 -0.18168822021E+01 -0.36245301998E+01  0.88194338913E+01  0.00000000000E+00 0. -1.
</event>
<event>
 7    1  0.1400974E-009  0.4778727E+02  0.7816164E-02  0.1312668E+00
        -11   -1    0    0    0    0  0.00000000000E+00  0.00000000000E+00  0.45593999997E+02  0.45594000000E+02  0.51100000000E-03 0. -1.
         11   -1    0    0    0    0 -0.00000000000E+00 -0.00000000000E+00 -0.45593999997E+02  0.45594000000E+02  0.51100000000E-03 0.  1.
    9900012    2    1    2    0    0  0.20535472555E+02  0.30591949386E+02  0.22935791927E+02  0.47787267844E+02  0.19999985410E+02 0.  0.
        -12    1    1    2    0    0 -0.20535472555E+02 -0.30591949386E+02 -0.22935791927E+02  0.43400732156E+02  0.00000000000E+00 0.  1.
         11    1    3    3    0    0  0.16472160755E+02  0.12683711572E+02  0.68201098906E+01  0.21879728480E+02  0.51100000000E-03 0. -1.
        -11    1    3    3    0    0  0.60334961948E+01  0.97235762202E+01  0.66313844486E+01  0.13225969560E+02  0.51100000000E-03 0.  1.
        -12    1    3    3    0    0 -0.19701843945E+01  0.81846615938E+01  0.94842975882E+01  0.12681569804E+02  0.00000000000E+00 0.  1.
</event>
<event>
 7    1  0.1400974E-009  0.4778727E+02  0.7816164E-02  0.1312668E+00
        -11   -1    0    0    0    0  0.00000000000E+00  0.00000000000E+00  0.45593999997E+02  0.45594000000E+02  0.51100000000E-03 0.  1.
         11   -1    0    0    0    0 -0.00000000000E+00 -0.00000000000E+00 -0.45593999997E+02  0.45594000000E+02  0.51100000000E-03 0. -1.
    9900012    2    1    2    0    0 -0.20706806784E+02  0.17507659364E+02  0.33887062642E+02  0.47787274221E+02  0.20000014483E+02 0.  0.
        -12    1    1    2    0    0  0.20706806784E+02 -0.17507659364E+02 -0.33887062642E+02  0.43400725779E+02  0.00000000000E+00 0.  1.
         11    1    3    3    0    0  0.18962875818E+01  0.10749150800E+01  0.78695776333E+00  0.23174666782E+01  0.51100000000E-03 0. -1.
        -11    1    3    3    0    0 -0.83248211142E+01  0.12111772375E+02  0.93360635782E+01  0.17411483568E+02  0.51100000000E-03 0.  1.
        -12    1    3    3    0    0 -0.14278273252E+02  0.43209719087E+01  0.23764041301E+02  0.28058323974E+02  0.00000000000E+00 0.  1.
</event>
<event>
 7    1  0.1400974E-009  0.4778727E+02  0.7816164E-02  0.1312668E+00
        -11   -1    0    0    0    0  0.00000000000E+00  0.00000000000E+00  0.45593999997E+02  0.45594000000E+02  0.51100000000E-03 0.  1.
         11   -1    0    0    0    0 -0.00000000000E+00 -0.00000000000E+00 -0.45593999997E+02  0.45594000000E+02  0.51100000000E-03 0. -1.
    9900012    2    1    2    0    0 -0.15553987778E+02  0.33984497626E+02 -0.22062423540E+02  0.47787272505E+02  0.20000006659E+02 0.  0.
        -12    1    1    2    0    0  0.15553987778E+02 -0.33984497626E+02  0.22062423540E+02  0.43400727495E+02  0.00000000000E+00 0.  1.
         11    1    3    3    0    0 -0.12788859347E+01  0.10266816906E+02 -0.68671209010E+01  0.12417746509E+02  0.51100000000E-03 0. -1.
        -11    1    3    3    0    0 -0.16704865952E+02  0.16024567298E+02 -0.14402419479E+02  0.27262960049E+02  0.51100000000E-03 0.  1.
         12    1    3    3    0    0  0.24297641089E+01  0.76931134219E+01 -0.79288315979E+00  0.81065659469E+01  0.00000000000E+00 0. -1.
</event>
<event>
 7    1  0.1400974E-009  0.4778727E+02  0.7816164E-02  0.1312668E+00
        -11   -1    0    0    0    0  0.00000000000E+00  0.00000000000E+00  0.45593999997E+02  0.45594000000E+02  0.51100000000E-03 0.  1.
         11   -1    0    0    0    0 -0.00000000000E+00 -0.00000000000E+00 -0.45593999997E+02  0.45594000000E+02  0.51100000000E-03 0. -1.
    9900012    2    1    2    0    0 -0.29925401204E+02 -0.13411671791E+02 -0.28429216697E+02  0.47787274897E+02  0.20000017566E+02 0.  0.
        -12    1    1    2    0    0  0.29925401204E+02  0.13411671791E+02  0.28429216697E+02  0.43400725103E+02  0.00000000000E+00 0.  1.
         11    1    3    3    0    0 -0.17833088665E+02 -0.13823774255E+02 -0.20713690467E+02  0.30629605923E+02  0.51100000000E-03 0. -1.
        -11    1    3    3    0    0 -0.74202440099E+01 -0.13481695689E+01 -0.92497037250E+01  0.11934596835E+02  0.51100000000E-03 0.  1.
        -12    1    3    3    0    0 -0.46720685297E+01  0.17602720334E+01  0.15341774957E+01  0.52230721387E+01  0.00000000000E+00 0.  1.
</event>
<event>
 7    1  0.1400974E-009  0.4778729E+02  0.7816164E-02  0.1312668E+00
        -11   -1    0    0    0    0  0.00000000000E+00  0.00000000000E+00  0.45593999997E+02  0.45594000000E+02  0.51100000000E-03 0.  1.
         11   -1    0    0    0    0 -0.00000000000E+00 -0.00000000000E+00 -0.45593999997E+02  0.45594000000E+02  0.51100000000E-03 0. -1.
    9900012    2    1    2    0    0 -0.17081105630E+02 -0.15645845456E+02 -0.36702384398E+02  0.47787289521E+02  0.20000084241E+02 0.  0.
        -12    1    1    2    0    0  0.17081105630E+02  0.15645845456E+02  0.36702384398E+02  0.43400710479E+02  0.00000000000E+00 0.  1.
         11    1    3    3    0    0 -0.15899262051E+01  0.34934219819E+01 -0.38920714971E+01  0.54662677652E+01  0.51100000000E-03 0. -1.
        -11    1    3    3    0    0 -0.22870752336E+01 -0.10091788092E+02 -0.16442385733E+02  0.19427479220E+02  0.51100000000E-03 0.  1.
         12    1    3    3    0    0 -0.13204104192E+02 -0.90474793459E+01 -0.16367927169E+02  0.22893542535E+02  0.00000000000E+00 0. -1.
</event>
<event>
 7    1  0.1400974E-009  0.4778727E+02  0.7816164E-02  0.1312668E+00
        -11   -1    0    0    0    0  0.00000000000E+00  0.00000000000E+00  0.45593999997E+02  0.45594000000E+02  0.51100000000E-03 0.  1.
         11   -1    0    0    0    0 -0.00000000000E+00 -0.00000000000E+00 -0.45593999997E+02  0.45594000000E+02  0.51100000000E-03 0. -1.
    9900012    2    1    2    0    0  0.27696481364E+02 -0.19393312980E+02 -0.27210807179E+02  0.47787266186E+02  0.19999977846E+02 0.  0.
        -12    1    1    2    0    0 -0.27696481364E+02  0.19393312980E+02  0.27210807179E+02  0.43400733814E+02  0.00000000000E+00 0.  1.
         11    1    3    3    0    0  0.86876576961E+01 -0.28927791587E+01 -0.86415995305E+01  0.12590504764E+02  0.51100000000E-03 0. -1.
        -11    1    3    3    0    0  0.46727665529E+01 -0.67130447021E+01  0.18607055347E+01  0.83882025356E+01  0.51100000000E-03 0.  1.
         12    1    3    3    0    0  0.14336057115E+02 -0.97874891188E+01 -0.20429913183E+02  0.26808558886E+02  0.00000000000E+00 0. -1.
</event>
<event>
 7    1  0.1400974E-009  0.4778727E+02  0.7816164E-02  0.1312668E+00
        -11   -1    0    0    0    0  0.00000000000E+00  0.00000000000E+00  0.45593999997E+02  0.45594000000E+02  0.51100000000E-03 0. -1.
         11   -1    0    0    0    0 -0.00000000000E+00 -0.00000000000E+00 -0.45593999997E+02  0.45594000000E+02  0.51100000000E-03 0.  1.
    9900012    2    1    2    0    0 -0.40522174358E+01 -0.35510794240E+02  0.24620845432E+02  0.47787274160E+02  0.20000014205E+02 0.  0.
        -12    1    1    2    0    0  0.40522174358E+01  0.35510794240E+02 -0.24620845432E+02  0.43400725840E+02  0.00000000000E+00 0.  1.
         11    1    3    3    0    0 -0.42643618791E+01 -0.10056518200E+02  0.64358963245E+01  0.12678292562E+02  0.51100000000E-03 0. -1.
        -11    1    3    3    0    0  0.66404577758E+01 -0.43629949271E+01  0.40508843179E+01  0.89185799444E+01  0.51100000000E-03 0.  1.
        -12    1    3    3    0    0 -0.64283133325E+01 -0.21091281113E+02  0.14134064789E+02  0.26190401653E+02  0.00000000000E+00 0.  1.
</event>
<event>
 7    1  0.1400974E-009  0.4778728E+02  0.7816164E-02  0.1312668E+00
        -11   -1    0    0    0    0  0.00000000000E+00  0.00000000000E+00  0.45593999997E+02  0.45594000000E+02  0.51100000000E-03 0. -1.
         11   -1    0    0    0    0 -0.00000000000E+00 -0.00000000000E+00 -0.45593999997E+02  0.45594000000E+02  0.51100000000E-03 0.  1.
    9900012    2    1    2    0    0 -0.16156133068E+02 -0.33583343780E+02  0.22243225724E+02  0.47787277590E+02  0.20000029843E+02 0.  0.
        -12    1    1    2    0    0  0.16156133068E+02  0.33583343780E+02 -0.22243225724E+02  0.43400722410E+02  0.00000000000E+00 0.  1.
         11    1    3    3    0    0 -0.56522388194E+01 -0.16820155594E+02  0.12532651839E+02  0.21724014368E+02  0.51100000000E-03 0. -1.
        -11    1    3    3    0    0 -0.10601149663E+02 -0.19100429524E+02  0.86637781370E+01  0.23500464550E+02  0.51100000000E-03 0.  1.
        -12    1    3    3    0    0  0.97255414595E-01  0.23372413393E+01  0.10467957485E+01  0.25627986719E+01  0.00000000000E+00 0.  1.
</event>
<event>
 7    1  0.1400974E-009  0.4778727E+02  0.7816164E-02  0.1312668E+00
        -11   -1    0    0    0    0  0.00000000000E+00  0.00000000000E+00  0.45593999997E+02  0.45594000000E+02  0.51100000000E-03 0.  1.
         11   -1    0    0    0    0 -0.00000000000E+00 -0.00000000000E+00 -0.45593999997E+02  0.45594000000E+02  0.51100000000E-03 0. -1.
    9900012    2    1    2    0    0  0.19552133650E+02 -0.32067318329E+02 -0.21749124490E+02  0.47787271307E+02  0.20000001195E+02 0.  0.
        -12    1    1    2    0    0 -0.19552133650E+02  0.32067318329E+02  0.21749124490E+02  0.43400728693E+02  0.00000000000E+00 0.  1.
         11    1    3    3    0    0  0.80521188280E+01 -0.31626630787E+01 -0.53016196113E+01  0.10146241971E+02  0.51100000000E-03 0. -1.
        -11    1    3    3    0    0 -0.15321284196E+01 -0.11509417626E+02 -0.26931801047E+01  0.11919200096E+02  0.51100000000E-03 0.  1.
         12    1    3    3    0    0  0.13032143241E+02 -0.17395237624E+02 -0.13754324774E+02  0.25721829239E+02  0.00000000000E+00 0. -1.
</event>
<event>
 7    1  0.1400974E-009  0.4778727E+02  0.7816164E-02  0.1312668E+00
        -11   -1    0    0    0    0  0.00000000000E+00  0.00000000000E+00  0.45593999997E+02  0.45594000000E+02  0.51100000000E-03 0. -1.
         11   -1    0    0    0    0 -0.00000000000E+00 -0.00000000000E+00 -0.45593999997E+02  0.45594000000E+02  0.51100000000E-03 0.  1.
    9900012    2    1    2    0    0  0.14146034614E+02  0.41030230452E+02  0.18225007700E+00  0.47787270498E+02  0.19999997509E+02 0.  0.
        -12    1    1    2    0    0 -0.14146034614E+02 -0.41030230452E+02 -0.18225007700E+00  0.43400729502E+02  0.00000000000E+00 0.  1.
         11    1    3    3    0    0  0.81616426643E+01  0.14628041353E+02 -0.61311817681E+01  0.17837695898E+02  0.51100000000E-03 0.  1.
        -11    1    3    3    0    0  0.91997928596E+01  0.19438101646E+02  0.57373174203E+01  0.22257421138E+02  0.51100000000E-03 0. -1.
        -12    1    3    3    0    0 -0.32154009102E+01  0.69640874529E+01  0.57611442483E+00  0.76921534628E+01  0.00000000000E+00 0.  1.
</event>
<event>
 7    1  0.1400974E-009  0.4778727E+02  0.7816164E-02  0.1312668E+00
        -11   -1    0    0    0    0  0.00000000000E+00  0.00000000000E+00  0.45593999997E+02  0.45594000000E+02  0.51100000000E-03 0.  1.
         11   -1    0    0    0    0 -0.00000000000E+00 -0.00000000000E+00 -0.45593999997E+02  0.45594000000E+02  0.51100000000E-03 0. -1.
    9900012    2    1    2    0    0  0.19913408458E+02  0.24872662533E+02 -0.29469136643E+02  0.47787271984E+02  0.20000004283E+02 0.  0.
        -12    1    1    2    0    0 -0.19913408458E+02 -0.24872662533E+02  0.29469136643E+02  0.43400728016E+02  0.00000000000E+00 0.  1.
         11    1    3    3    0    0  0.87380957033E+01  0.19084646230E+02 -0.93998167516E+01  0.22998578075E+02  0.51100000000E-03 0. -1.
        -11    1    3    3    0    0  0.51322486043E+01  0.53486276735E-02 -0.34521628243E+01  0.61852593132E+01  0.51100000000E-03 0.  1.
         12    1    3    3    0    0  0.60430641504E+01  0.57826676746E+01 -0.16617157067E+02  0.18603434595E+02  0.00000000000E+00 0. -1.
</event>
<event>
 7    1  0.1400974E-009  0.4778728E+02  0.7816164E-02  0.1312668E+00
        -11   -1    0    0    0    0  0.00000000000E+00  0.00000000000E+00  0.45593999997E+02  0.45594000000E+02  0.51100000000E-03 0. -1.
         11   -1    0    0    0    0 -0.00000000000E+00 -0.00000000000E+00 -0.45593999997E+02  0.45594000000E+02  0.51100000000E-03 0.  1.
    9900012    2    1    2    0    0  0.27743504166E+02  0.26443858491E+02  0.20362788785E+02  0.47787276015E+02  0.20000022665E+02 0.  0.
        -12    1    1    2    0    0 -0.27743504166E+02 -0.26443858491E+02 -0.20362788785E+02  0.43400723985E+02  0.00000000000E+00 0.  1.
         11    1    3    3    0    0  0.80879576552E+01  0.17500015473E+02  0.97969222466E+01  0.21625107777E+02  0.51100000000E-03 0. -1.
        -11    1    3    3    0    0  0.17019861992E+02  0.10681507503E+02  0.11106605395E+02  0.22959246251E+02  0.51100000000E-03 0.  1.
        -12    1    3    3    0    0  0.26356845188E+01 -0.17376644853E+01 -0.54073885652E+00  0.32029219873E+01  0.00000000000E+00 0.  1.
</event>
<event>
 7    1 -0.1400974E-009  0.4778727E+02  0.7816164E-02  0.1312668E+00
        -11   -1    0    0    0    0  0.00000000000E+00  0.00000000000E+00  0.45593999997E+02  0.45594000000E+02  0.51100000000E-03 0.  1.
         11   -1    0    0    0    0 -0.00000000000E+00 -0.00000000000E+00 -0.45593999997E+02  0.45594000000E+02  0.51100000000E-03 0. -1.
    9900012    2    1    2    0    0  0.42333995884E+02 -0.95441915978E+01 -0.60391886125E+00  0.47787268223E+02  0.19999987138E+02 0.  0.
        -12    1    1    2    0    0 -0.42333995884E+02  0.95441915978E+01  0.60391886125E+00  0.43400731777E+02  0.00000000000E+00 0.  1.
         11    1    3    3    0    0  0.11658827094E+02  0.30357809378E+01 -0.28009736046E+01  0.12368899244E+02  0.51100000000E-03 0.  1.
        -11    1    3    3    0    0  0.22809529257E+02 -0.37091009794E+01  0.39159843405E+01  0.23438579065E+02  0.51100000000E-03 0. -1.
         12    1    3    3    0    0  0.78656395332E+01 -0.88708715562E+01 -0.17189295972E+01  0.11979789914E+02  0.00000000000E+00 0. -1.
</event>
<event>
 7    1  0.1400974E-009  0.4778731E+02  0.7816164E-02  0.1312668E+00
        -11   -1    0    0    0    0  0.00000000000E+00  0.00000000000E+00  0.45593999997E+02  0.45594000000E+02  0.51100000000E-03 0.  1.
         11   -1    0    0    0    0 -0.00000000000E+00 -0.00000000000E+00 -0.45593999997E+02  0.45594000000E+02  0.51100000000E-03 0. -1.
    9900012    2    1    2    0    0  0.10142730148E+02  0.25648993374E+01 -0.42120852525E+02  0.47787309903E+02  0.20000177173E+02 0.  0.
        -12    1    1    2    0    0 -0.10142730148E+02 -0.25648993374E+01  0.42120852525E+02  0.43400690097E+02  0.00000000000E+00 0.  1.
         11    1    3    3    0    0 -0.15404944236E+01  0.28626721942E+01 -0.12470359469E+02  0.12887120730E+02  0.51100000000E-03 0.  1.
        -11    1    3    3    0    0  0.12574805453E+02  0.99204635082E+00 -0.30578614973E+02  0.33078113339E+02  0.51100000000E-03 0. -1.
        -12    1    3    3    0    0 -0.89158088138E+00 -0.12898192076E+01  0.92812191674E+00  0.18220758351E+01  0.00000000000E+00 0.  1.
</event>
<event>
 7    1  0.1400974E-009  0.4778727E+02  0.7816164E-02  0.1312668E+00
        -11   -1    0    0    0    0  0.00000000000E+00  0.00000000000E+00  0.45593999997E+02  0.45594000000E+02  0.51100000000E-03 0. -1.
         11   -1    0    0    0    0 -0.00000000000E+00 -0.00000000000E+00 -0.45593999997E+02  0.45594000000E+02  0.51100000000E-03 0.  1.
    9900012    2    1    2    0    0 -0.25907544088E+02  0.34293354115E+02  0.60322622573E+01  0.47787272298E+02  0.20000005716E+02 0.  0.
        -12    1    1    2    0    0  0.25907544088E+02 -0.34293354115E+02 -0.60322622573E+01  0.43400727702E+02  0.00000000000E+00 0.  1.
         11    1    3    3    0    0 -0.55144080123E+01  0.48688711190E+01  0.10211296079E+01  0.74267965932E+01  0.51100000000E-03 0. -1.
        -11    1    3    3    0    0 -0.16931733987E+02  0.13405713861E+02  0.91544427633E+01  0.23456355269E+02  0.51100000000E-03 0.  1.
         12    1    3    3    0    0 -0.34614020883E+01  0.16018769135E+02 -0.41433101139E+01  0.16904120436E+02  0.00000000000E+00 0. -1.
</event>
<event>
 7    1  0.1400974E-009  0.4778726E+02  0.7816164E-02  0.1312668E+00
        -11   -1    0    0    0    0  0.00000000000E+00  0.00000000000E+00  0.45593999997E+02  0.45594000000E+02  0.51100000000E-03 0.  1.
         11   -1    0    0    0    0 -0.00000000000E+00 -0.00000000000E+00 -0.45593999997E+02  0.45594000000E+02  0.51100000000E-03 0. -1.
    9900012    2    1    2    0    0 -0.26608638056E+02  0.33747584360E+02  0.60584663463E+01  0.47787261714E+02  0.19999957457E+02 0.  0.
        -12    1    1    2    0    0  0.26608638056E+02 -0.33747584360E+02 -0.60584663463E+01  0.43400738286E+02  0.00000000000E+00 0.  1.
         11    1    3    3    0    0 -0.21279671555E+02  0.22901056982E+02  0.42840086875E+01  0.31553693335E+02  0.51100000000E-03 0. -1.
        -11    1    3    3    0    0 -0.69943171476E+00  0.11427804644E+02  0.88210898438E+00  0.11483119795E+02  0.51100000000E-03 0.  1.
        -12    1    3    3    0    0 -0.46295347859E+01 -0.58127726527E+00  0.89234867444E+00  0.47504485841E+01  0.00000000000E+00 0.  1.
</event>
<event>
 7    1  0.1400974E-009  0.4778727E+02  0.7816164E-02  0.1312668E+00
        -11   -1    0    0    0    0  0.00000000000E+00  0.00000000000E+00  0.45593999997E+02  0.45594000000E+02  0.51100000000E-03 0.  1.
         11   -1    0    0    0    0 -0.00000000000E+00 -0.00000000000E+00 -0.45593999997E+02  0.45594000000E+02  0.51100000000E-03 0. -1.
    9900012    2    1    2    0    0 -0.55161456794E+01  0.66563111744E+01 -0.42531033619E+02  0.47787272330E+02  0.20000005860E+02 0.  0.
        -12    1    1    2    0    0  0.55161456794E+01 -0.66563111744E+01  0.42531033619E+02  0.43400727670E+02  0.00000000000E+00 0.  1.
         11    1    3    3    0    0  0.53788321655E+01  0.17234390652E-01 -0.16153495040E+02  0.17025496609E+02  0.51100000000E-03 0. -1.
        -11    1    3    3    0    0 -0.22843745425E+01  0.43057314366E+01 -0.29602041130E+01  0.57026747150E+01  0.51100000000E-03 0.  1.
         12    1    3    3    0    0 -0.86106033025E+01  0.23333453472E+01 -0.23417334466E+02  0.25059101006E+02  0.00000000000E+00 0. -1.
</event>
<event>
 7    1  0.1400974E-009  0.4778727E+02  0.7816164E-02  0.1312668E+00
        -11   -1    0    0    0    0  0.00000000000E+00  0.00000000000E+00  0.45593999997E+02  0.45594000000E+02  0.51100000000E-03 0. -1.
         11   -1    0    0    0    0 -0.00000000000E+00 -0.00000000000E+00 -0.45593999997E+02  0.45594000000E+02  0.51100000000E-03 0.  1.
    9900012    2    1    2    0    0 -0.12344730874E+02 -0.54039303545E+01  0.41255645585E+02  0.47787272629E+02  0.20000007227E+02 0.  0.
        -12    1    1    2    0    0  0.12344730874E+02  0.54039303545E+01 -0.41255645585E+02  0.43400727371E+02  0.00000000000E+00 0.  1.
         11    1    3    3    0    0  0.32553222364E+01  0.46905718795E+00  0.12197289236E+02  0.12632933250E+02  0.51100000000E-03 0. -1.
        -11    1    3    3    0    0 -0.85154541477E+01 -0.29301681328E+01  0.24790681992E+02  0.26375684986E+02  0.51100000000E-03 0.  1.
         12    1    3    3    0    0 -0.70845989629E+01 -0.29428194097E+01  0.42676743573E+01  0.87786543936E+01  0.00000000000E+00 0. -1.
</event>
<event>
 7    1  0.1448871E-009  0.4778726E+02  0.7816164E-02  0.1312668E+00
        -11   -1    0    0    0    0  0.00000000000E+00  0.00000000000E+00  0.45593999997E+02  0.45594000000E+02  0.51100000000E-03 0.  1.
         11   -1    0    0    0    0 -0.00000000000E+00 -0.00000000000E+00 -0.45593999997E+02  0.45594000000E+02  0.51100000000E-03 0. -1.
    9900012    2    1    2    0    0  0.21154949630E+02 -0.37871303378E+02  0.13625169970E+01  0.47787263071E+02  0.19999963646E+02 0.  0.
        -12    1    1    2    0    0 -0.21154949630E+02  0.37871303378E+02 -0.13625169970E+01  0.43400736929E+02  0.00000000000E+00 0.  1.
         11    1    3    3    0    0 -0.20909495296E+01 -0.40441457988E+01  0.20539909737E-01  0.45527582108E+01  0.51100000000E-03 0. -1.
        -11    1    3    3    0    0  0.14158913989E+02 -0.94314413774E+01  0.23937282587E+01  0.17180130006E+02  0.51100000000E-03 0.  1.
         12    1    3    3    0    0  0.90869851709E+01 -0.24395716202E+02 -0.10517511715E+01  0.26054374854E+02  0.00000000000E+00 0. -1.
</event>
<event>
 7    1  0.1400974E-009  0.4778727E+02  0.7816164E-02  0.1312668E+00
        -11   -1    0    0    0    0  0.00000000000E+00  0.00000000000E+00  0.45593999997E+02  0.45594000000E+02  0.51100000000E-03 0.  1.
         11   -1    0    0    0    0 -0.00000000000E+00 -0.00000000000E+00 -0.45593999997E+02  0.45594000000E+02  0.51100000000E-03 0. -1.
    9900012    2    1    2    0    0 -0.25435775025E+02  0.41157050857E+00 -0.35163547015E+02  0.47787273277E+02  0.20000010179E+02 0.  0.
        -12    1    1    2    0    0  0.25435775025E+02 -0.41157050857E+00  0.35163547015E+02  0.43400726723E+02  0.00000000000E+00 0.  1.
         11    1    3    3    0    0  0.19590541431E+01  0.67054866866E+00 -0.37479946025E+01  0.42819379321E+01  0.51100000000E-03 0.  1.
        -11    1    3    3    0    0 -0.27375465521E+02  0.23072671922E+01 -0.29435208752E+02  0.40263769184E+02  0.51100000000E-03 0. -1.
         12    1    3    3    0    0 -0.19363647010E-01 -0.25662453523E+01 -0.19803436612E+01  0.32415661609E+01  0.00000000000E+00 0. -1.
</event>
<event>
 7    1  0.1400974E-009  0.4778727E+02  0.7816164E-02  0.1312668E+00
        -11   -1    0    0    0    0  0.00000000000E+00  0.00000000000E+00  0.45593999997E+02  0.45594000000E+02  0.51100000000E-03 0.  1.
         11   -1    0    0    0    0 -0.00000000000E+00 -0.00000000000E+00 -0.45593999997E+02  0.45594000000E+02  0.51100000000E-03 0. -1.
    9900012    2    1    2    0    0 -0.21964209086E+02  0.37321188545E+02 -0.28853724120E+01  0.47787274555E+02  0.20000016007E+02 0.  0.
        -12    1    1    2    0    0  0.21964209086E+02 -0.37321188545E+02  0.28853724120E+01  0.43400725445E+02  0.00000000000E+00 0.  1.
         11    1    3    3    0    0 -0.19740742498E+02  0.33099097742E+02  0.24034562282E+00  0.38539654279E+02  0.51100000000E-03 0. -1.
        -11    1    3    3    0    0 -0.35551023480E+00  0.51455710756E+01 -0.44216910884E+01  0.67937207452E+01  0.51100000000E-03 0.  1.
        -12    1    3    3    0    0 -0.18679563531E+01 -0.92348027252E+00  0.12959730536E+01  0.24538995306E+01  0.00000000000E+00 0.  1.
</event>
<event>
 7    1  0.1400974E-009  0.4778727E+02  0.7816164E-02  0.1312668E+00
        -11   -1    0    0    0    0  0.00000000000E+00  0.00000000000E+00  0.45593999997E+02  0.45594000000E+02  0.51100000000E-03 0. -1.
         11   -1    0    0    0    0 -0.00000000000E+00 -0.00000000000E+00 -0.45593999997E+02  0.45594000000E+02  0.51100000000E-03 0.  1.
    9900012    2    1    2    0    0 -0.42282223938E+02 -0.91493613565E+01  0.34822108509E+01  0.47787273431E+02  0.20000010879E+02 0.  0.
        -12    1    1    2    0    0  0.42282223938E+02  0.91493613565E+01 -0.34822108509E+01  0.43400726569E+02  0.00000000000E+00 0.  1.
         11    1    3    3    0    0 -0.11382913736E+02 -0.72230894184E+01  0.91929482422E+00  0.13512544139E+02  0.51100000000E-03 0. -1.
        -11    1    3    3    0    0 -0.64073378418E+01  0.36911496144E+01 -0.38565805269E+01  0.83397708192E+01  0.51100000000E-03 0.  1.
         12    1    3    3    0    0 -0.24491972360E+02 -0.56174215525E+01  0.64194965536E+01  0.25934958473E+02  0.00000000000E+00 0. -1.
</event>
<event>
 7    1  0.1400974E-009  0.4778727E+02  0.7816164E-02  0.1312668E+00
        -11   -1    0    0    0    0  0.00000000000E+00  0.00000000000E+00  0.45593999997E+02  0.45594000000E+02  0.51100000000E-03 0. -1.
         11   -1    0    0    0    0 -0.00000000000E+00 -0.00000000000E+00 -0.45593999997E+02  0.45594000000E+02  0.51100000000E-03 0.  1.
    9900012    2    1    2    0    0 -0.16584166785E+02  0.16516099372E+02  0.36548692268E+02  0.47787273820E+02  0.20000012655E+02 0.  0.
        -12    1    1    2    0    0  0.16584166785E+02 -0.16516099372E+02 -0.36548692268E+02  0.43400726180E+02  0.00000000000E+00 0.  1.
         11    1    3    3    0    0 -0.15241891211E+02  0.14321114098E+02  0.31838381204E+02  0.38093202473E+02  0.51100000000E-03 0. -1.
        -11    1    3    3    0    0 -0.88421152035E+00  0.39991921737E+01  0.61165058514E+01  0.73611827954E+01  0.51100000000E-03 0.  1.
        -12    1    3    3    0    0 -0.45806405375E+00 -0.18042068996E+01 -0.14061947873E+01  0.23328885515E+01  0.00000000000E+00 0.  1.
</event>
<event>
 7    1  0.1400974E-009  0.4778727E+02  0.7816164E-02  0.1312668E+00
        -11   -1    0    0    0    0  0.00000000000E+00  0.00000000000E+00  0.45593999997E+02  0.45594000000E+02  0.51100000000E-03 0.  1.
         11   -1    0    0    0    0 -0.00000000000E+00 -0.00000000000E+00 -0.45593999997E+02  0.45594000000E+02  0.51100000000E-03 0. -1.
    9900012    2    1    2    0    0 -0.36926550525E+02 -0.21191995836E+02 -0.84233277389E+01  0.47787271073E+02  0.20000000130E+02 0.  0.
        -12    1    1    2    0    0  0.36926550525E+02  0.21191995836E+02  0.84233277389E+01  0.43400728927E+02  0.00000000000E+00 0.  1.
         11    1    3    3    0    0 -0.18328016389E+02 -0.94356589656E+01 -0.10764293562E+02  0.23255490987E+02  0.51100000000E-03 0. -1.
        -11    1    3    3    0    0 -0.38714002006E+01 -0.12171009381E+01 -0.36485894412E+01  0.54572226800E+01  0.51100000000E-03 0.  1.
        -12    1    3    3    0    0 -0.14727133935E+02 -0.10539235932E+02  0.59895552645E+01  0.19074557406E+02  0.00000000000E+00 0.  1.
</event>
<event>
 7    1  0.1400974E-009  0.4778728E+02  0.7816164E-02  0.1312668E+00
        -11   -1    0    0    0    0  0.00000000000E+00  0.00000000000E+00  0.45593999997E+02  0.45594000000E+02  0.51100000000E-03 0.  1.
         11   -1    0    0    0    0 -0.00000000000E+00 -0.00000000000E+00 -0.45593999997E+02  0.45594000000E+02  0.51100000000E-03 0. -1.
    9900012    2    1    2    0    0 -0.24518909007E+01  0.37971159818E+01 -0.43164710419E+02  0.47787284749E+02  0.20000062483E+02 0.  0.
        -12    1    1    2    0    0  0.24518909007E+01 -0.37971159818E+01  0.43164710419E+02  0.43400715251E+02  0.00000000000E+00 0.  1.
         11    1    3    3    0    0  0.22223316951E+01  0.61512159207E+00 -0.31426463856E+02  0.31510946725E+02  0.51100000000E-03 0. -1.
        -11    1    3    3    0    0 -0.35142703500E+01  0.58550013997E+01 -0.11471717777E+02  0.13350335071E+02  0.51100000000E-03 0.  1.
        -12    1    3    3    0    0 -0.11599522457E+01 -0.26730070099E+01 -0.26652878595E+00  0.29260029530E+01  0.00000000000E+00 0.  1.
</event>
<event>
 7    1  0.1400974E-009  0.4778728E+02  0.7816164E-02  0.1312668E+00
        -11   -1    0    0    0    0  0.00000000000E+00  0.00000000000E+00  0.45593999997E+02  0.45594000000E+02  0.51100000000E-03 0. -1.
         11   -1    0    0    0    0 -0.00000000000E+00 -0.00000000000E+00 -0.45593999997E+02  0.45594000000E+02  0.51100000000E-03 0.  1.
    9900012    2    1    2    0    0  0.25801814217E+02 -0.74316879009E+01  0.34097783683E+02  0.47787280490E+02  0.20000043064E+02 0.  0.
        -12    1    1    2    0    0 -0.25801814217E+02  0.74316879009E+01 -0.34097783683E+02  0.43400719510E+02  0.00000000000E+00 0.  1.
         11    1    3    3    0    0  0.16337915378E+01 -0.24366650281E+01  0.32874384749E+00  0.29520643670E+01  0.51100000000E-03 0. -1.
        -11    1    3    3    0    0  0.19397306047E+01 -0.54615619240E+01  0.21496112397E+01  0.61815889715E+01  0.51100000000E-03 0.  1.
         12    1    3    3    0    0  0.22228292075E+02  0.46653905125E+00  0.31619428595E+02  0.38653627151E+02  0.00000000000E+00 0. -1.
</event>
<event>
 7    1  0.1400974E-009  0.4778725E+02  0.7816164E-02  0.1312668E+00
        -11   -1    0    0    0    0  0.00000000000E+00  0.00000000000E+00  0.45593999997E+02  0.45594000000E+02  0.51100000000E-03 0. -1.
         11   -1    0    0    0    0 -0.00000000000E+00 -0.00000000000E+00 -0.45593999997E+02  0.45594000000E+02  0.51100000000E-03 0.  1.
    9900012    2    1    2    0    0 -0.14903676239E+02 -0.26409263678E+02  0.31049249943E+02  0.47787254666E+02  0.19999925326E+02 0.  0.
        -12    1    1    2    0    0  0.14903676239E+02  0.26409263678E+02 -0.31049249943E+02  0.43400745334E+02  0.00000000000E+00 0.  1.
         11    1    3    3    0    0 -0.93925174898E+01 -0.18076542301E+02  0.10777775123E+02  0.23046500889E+02  0.51100000000E-03 0. -1.
        -11    1    3    3    0    0 -0.50826219244E+01 -0.10511441460E+02  0.18602195716E+02  0.21962812500E+02  0.51100000000E-03 0.  1.
        -12    1    3    3    0    0 -0.42853682490E+00  0.21787200833E+01  0.16692791042E+01  0.27779412772E+01  0.00000000000E+00 0.  1.
</event>
<event>
 7    1  0.1400974E-009  0.4778727E+02  0.7816164E-02  0.1312668E+00
        -11   -1    0    0    0    0  0.00000000000E+00  0.00000000000E+00  0.45593999997E+02  0.45594000000E+02  0.51100000000E-03 0. -1.
         11   -1    0    0    0    0 -0.00000000000E+00 -0.00000000000E+00 -0.45593999997E+02  0.45594000000E+02  0.51100000000E-03 0.  1.
    9900012    2    1    2    0    0 -0.41154297667E+02 -0.11168512090E+02  0.80753641179E+01  0.47787269771E+02  0.19999994194E+02 0.  0.
        -12    1    1    2    0    0  0.41154297667E+02  0.11168512090E+02 -0.80753641179E+01  0.43400730229E+02  0.00000000000E+00 0.  1.
         11    1    3    3    0    0 -0.16886153173E+02 -0.30625337362E+01  0.77986146067E+01  0.18850455483E+02  0.51100000000E-03 0. -1.
        -11    1    3    3    0    0 -0.13039482791E+02 -0.37483236090E+01  0.68678467571E+01  0.15206753785E+02  0.51100000000E-03 0.  1.
        -12    1    3    3    0    0 -0.11228661703E+02 -0.43576547448E+01 -0.65910972459E+01  0.13730060503E+02  0.00000000000E+00 0.  1.
</event>
<event>
 7    1  0.1400974E-009  0.4778727E+02  0.7816164E-02  0.1312668E+00
        -11   -1    0    0    0    0  0.00000000000E+00  0.00000000000E+00  0.45593999997E+02  0.45594000000E+02  0.51100000000E-03 0.  1.
         11   -1    0    0    0    0 -0.00000000000E+00 -0.00000000000E+00 -0.45593999997E+02  0.45594000000E+02  0.51100000000E-03 0. -1.
    9900012    2    1    2    0    0  0.40648784573E+01 -0.11978399104E+02 -0.41516476666E+02  0.47787272855E+02  0.20000008253E+02 0.  0.
        -12    1    1    2    0    0 -0.40648784573E+01  0.11978399104E+02  0.41516476666E+02  0.43400727145E+02  0.00000000000E+00 0.  1.
         11    1    3    3    0    0 -0.89272499122E+00  0.28202070580E+00  0.23138720492E+00  0.96438264614E+00  0.51100000000E-03 0. -1.
        -11    1    3    3    0    0 -0.44236132656E+00 -0.54835436444E+01 -0.15696711282E+01  0.57209092070E+01  0.51100000000E-03 0.  1.
         12    1    3    3    0    0  0.53999647751E+01 -0.67768761654E+01 -0.40178192743E+02  0.41101981001E+02  0.00000000000E+00 0. -1.
</event>
<event>
 7    1  0.1400974E-009  0.4778727E+02  0.7816164E-02  0.1312668E+00
        -11   -1    0    0    0    0  0.00000000000E+00  0.00000000000E+00  0.45593999997E+02  0.45594000000E+02  0.51100000000E-03 0.  1.
         11   -1    0    0    0    0 -0.00000000000E+00 -0.00000000000E+00 -0.45593999997E+02  0.45594000000E+02  0.51100000000E-03 0. -1.
    9900012    2    1    2    0    0 -0.11948149876E+02 -0.47637553010E-01 -0.41723645784E+02  0.47787272215E+02  0.20000005336E+02 0.  0.
        -12    1    1    2    0    0  0.11948149876E+02  0.47637553010E-01  0.41723645784E+02  0.43400727785E+02  0.00000000000E+00 0.  1.
         11    1    3    3    0    0 -0.80067515092E+01 -0.56262160347E+00 -0.40101882810E+02  0.40897256851E+02  0.51100000000E-03 0. -1.
        -11    1    3    3    0    0 -0.37883956299E+01 -0.11101418136E+01 -0.28316077680E+01  0.48582259219E+01  0.51100000000E-03 0.  1.
        -12    1    3    3    0    0 -0.15300273678E+00  0.16251258641E+01  0.12098447936E+01  0.20317894419E+01  0.00000000000E+00 0.  1.
</event>
<event>
 7    1  0.1400974E-009  0.4778727E+02  0.7816164E-02  0.1312668E+00
        -11   -1    0    0    0    0  0.00000000000E+00  0.00000000000E+00  0.45593999997E+02  0.45594000000E+02  0.51100000000E-03 0.  1.
         11   -1    0    0    0    0 -0.00000000000E+00 -0.00000000000E+00 -0.45593999997E+02  0.45594000000E+02  0.51100000000E-03 0. -1.
    9900012    2    1    2    0    0 -0.22488226166E+02  0.12259044293E+02 -0.35037390534E+02  0.47787271683E+02  0.20000002911E+02 0.  0.
        -12    1    1    2    0    0  0.22488226166E+02 -0.12259044293E+02  0.35037390534E+02  0.43400728317E+02  0.00000000000E+00 0.  1.
         11    1    3    3    0    0 -0.96665818402E+01  0.39413294748E+01 -0.15037478591E+02  0.18305809055E+02  0.51100000000E-03 0. -1.
        -11    1    3    3    0    0 -0.75417281561E+01  0.81422461883E+01 -0.27405898711E+01  0.11431739573E+02  0.51100000000E-03 0.  1.
         12    1    3    3    0    0 -0.52799161692E+01  0.17546862946E+00 -0.17259322071E+02  0.18049723055E+02  0.00000000000E+00 0. -1.
</event>
<event>
 7    1  0.1400974E-009  0.4778727E+02  0.7816164E-02  0.1312668E+00
        -11   -1    0    0    0    0  0.00000000000E+00  0.00000000000E+00  0.45593999997E+02  0.45594000000E+02  0.51100000000E-03 0.  1.
         11   -1    0    0    0    0 -0.00000000000E+00 -0.00000000000E+00 -0.45593999997E+02  0.45594000000E+02  0.51100000000E-03 0. -1.
    9900012    2    1    2    0    0 -0.45919910725E+01  0.16357934983E+02 -0.39936889506E+02  0.47787267721E+02  0.19999984847E+02 0.  0.
        -12    1    1    2    0    0  0.45919910725E+01 -0.16357934983E+02  0.39936889506E+02  0.43400732279E+02  0.00000000000E+00 0.  1.
         11    1    3    3    0    0  0.16147678599E+01  0.10276535167E+02 -0.10146489213E+02  0.14531548228E+02  0.51100000000E-03 0. -1.
        -11    1    3    3    0    0  0.11875978399E+01  0.39196418542E+01 -0.21703946389E+02  0.22086993232E+02  0.51100000000E-03 0.  1.
        -12    1    3    3    0    0 -0.73943567723E+01  0.21617579614E+01 -0.80864539042E+01  0.11168726262E+02  0.00000000000E+00 0.  1.
</event>
<event>
 7    1  0.1400974E-009  0.4778727E+02  0.7816164E-02  0.1312668E+00
        -11   -1    0    0    0    0  0.00000000000E+00  0.00000000000E+00  0.45593999997E+02  0.45594000000E+02  0.51100000000E-03 0.  1.
         11   -1    0    0    0    0 -0.00000000000E+00 -0.00000000000E+00 -0.45593999997E+02  0.45594000000E+02  0.51100000000E-03 0. -1.
    9900012    2    1    2    0    0 -0.89559890309E+01 -0.10728772952E+02 -0.41089016090E+02  0.47787267843E+02  0.19999985402E+02 0.  0.
        -12    1    1    2    0    0  0.89559890309E+01  0.10728772952E+02  0.41089016090E+02  0.43400732157E+02  0.00000000000E+00 0.  1.
         11    1    3    3    0    0 -0.44524422071E+01 -0.81445386118E+01 -0.21023745050E+02  0.22981636300E+02  0.51100000000E-03 0. -1.
        -11    1    3    3    0    0 -0.32125936008E+01 -0.19711633512E+01 -0.22044484704E+02  0.22364381250E+02  0.51100000000E-03 0.  1.
        -12    1    3    3    0    0 -0.12909532230E+01 -0.61307098877E+00  0.19792136645E+01  0.24412502926E+01  0.00000000000E+00 0.  1.
</event>
<event>
 7    1  0.1400974E-009  0.4778727E+02  0.7816164E-02  0.1312668E+00
        -11   -1    0    0    0    0  0.00000000000E+00  0.00000000000E+00  0.45593999997E+02  0.45594000000E+02  0.51100000000E-03 0. -1.
         11   -1    0    0    0    0 -0.00000000000E+00 -0.00000000000E+00 -0.45593999997E+02  0.45594000000E+02  0.51100000000E-03 0.  1.
    9900012    2    1    2    0    0 -0.10905824063E+02 -0.38496313913E+02  0.16814295524E+02  0.47787265936E+02  0.19999976707E+02 0.  0.
        -12    1    1    2    0    0  0.10905824063E+02  0.38496313913E+02 -0.16814295524E+02  0.43400734064E+02  0.00000000000E+00 0.  1.
         11    1    3    3    0    0 -0.31836154183E+01 -0.14339240486E+02  0.84705839447E+01  0.16955825473E+02  0.51100000000E-03 0. -1.
        -11    1    3    3    0    0 -0.11472544974E+01  0.20366033569E+01 -0.54458873897E+00  0.24001090123E+01  0.51100000000E-03 0.  1.
        -12    1    3    3    0    0 -0.65749541474E+01 -0.26193676784E+02  0.88883003181E+01  0.28431331450E+02  0.00000000000E+00 0.  1.
</event>
<event>
 7    1  0.1400974E-009  0.4778727E+02  0.7816164E-02  0.1312668E+00
        -11   -1    0    0    0    0  0.00000000000E+00  0.00000000000E+00  0.45593999997E+02  0.45594000000E+02  0.51100000000E-03 0.  1.
         11   -1    0    0    0    0 -0.00000000000E+00 -0.00000000000E+00 -0.45593999997E+02  0.45594000000E+02  0.51100000000E-03 0. -1.
    9900012    2    1    2    0    0  0.38047976055E+02  0.92329065686E+01 -0.18727737575E+02  0.47787271893E+02  0.20000003867E+02 0.  0.
        -12    1    1    2    0    0 -0.38047976055E+02 -0.92329065686E+01  0.18727737575E+02  0.43400728107E+02  0.00000000000E+00 0.  1.
         11    1    3    3    0    0  0.50337256790E+01 -0.92930196713E+00 -0.55837194589E+01  0.75749534397E+01  0.51100000000E-03 0. -1.
        -11    1    3    3    0    0  0.84173287961E+01  0.97383354189E+01 -0.13863038390E+01  0.12946367807E+02  0.51100000000E-03 0.  1.
        -12    1    3    3    0    0  0.24596921580E+02  0.42387311681E+00 -0.11757714277E+02  0.27265950646E+02  0.00000000000E+00 0.  1.
</event>
<event>
 7    1  0.1400974E-009  0.4778733E+02  0.7816164E-02  0.1312667E+00
        -11   -1    0    0    0    0  0.00000000000E+00  0.00000000000E+00  0.45593999997E+02  0.45594000000E+02  0.51100000000E-03 0.  1.
         11   -1    0    0    0    0 -0.00000000000E+00 -0.00000000000E+00 -0.45593999997E+02  0.45594000000E+02  0.51100000000E-03 0. -1.
    9900012    2    1    2    0    0  0.63744344653E+01  0.39291113313E+02 -0.17297197046E+02  0.47787331506E+02  0.20000275664E+02 0.  0.
        -12    1    1    2    0    0 -0.63744344653E+01 -0.39291113313E+02  0.17297197046E+02  0.43400668494E+02  0.00000000000E+00 0.  1.
         11    1    3    3    0    0 -0.41910753436E+01  0.10643604223E+02 -0.10407220018E+02  0.15464852154E+02  0.51100000000E-03 0. -1.
        -11    1    3    3    0    0  0.39674094918E+01  0.16096775075E+02 -0.47827539605E-01  0.16578564281E+02  0.51100000000E-03 0.  1.
        -12    1    3    3    0    0  0.65981003171E+01  0.12550734016E+02 -0.68421494885E+01  0.15743915070E+02  0.00000000000E+00 0.  1.
</event>
<event>
 7    1  0.1400974E-009  0.4778726E+02  0.7816164E-02  0.1312668E+00
        -11   -1    0    0    0    0  0.00000000000E+00  0.00000000000E+00  0.45593999997E+02  0.45594000000E+02  0.51100000000E-03 0.  1.
         11   -1    0    0    0    0 -0.00000000000E+00 -0.00000000000E+00 -0.45593999997E+02  0.45594000000E+02  0.51100000000E-03 0. -1.
    9900012    2    1    2    0    0 -0.42893179387E+02 -0.57464773129E+00  0.65931067145E+01  0.47787261364E+02  0.19999955865E+02 0.  0.
        -12    1    1    2    0    0  0.42893179387E+02  0.57464773129E+00 -0.65931067145E+01  0.43400738636E+02  0.00000000000E+00 0.  1.
         11    1    3    3    0    0 -0.37000999171E+02 -0.20545849107E+01  0.10465295193E+02  0.38507371535E+02  0.51100000000E-03 0. -1.
        -11    1    3    3    0    0 -0.69725333968E+01  0.83421343976E+00 -0.38766637092E+01  0.80212627315E+01  0.51100000000E-03 0.  1.
        -12    1    3    3    0    0  0.10803531808E+01  0.64572373963E+00  0.44752308807E-02  0.12586270976E+01  0.00000000000E+00 0.  1.
</event>
<event>
 7    1  0.1400974E-009  0.4778727E+02  0.7816164E-02  0.1312668E+00
        -11   -1    0    0    0    0  0.00000000000E+00  0.00000000000E+00  0.45593999997E+02  0.45594000000E+02  0.51100000000E-03 0.  1.
         11   -1    0    0    0    0 -0.00000000000E+00 -0.00000000000E+00 -0.45593999997E+02  0.45594000000E+02  0.51100000000E-03 0. -1.
    9900012    2    1    2    0    0  0.41623612155E+01  0.43052643884E+02 -0.35732247853E+01  0.47787270379E+02  0.19999996966E+02 0.  0.
        -12    1    1    2    0    0 -0.41623612155E+01 -0.43052643884E+02  0.35732247853E+01  0.43400729621E+02  0.00000000000E+00 0.  1.
         11    1    3    3    0    0  0.13523243402E+01 -0.21906319834E+00  0.20501847029E+01  0.24657711538E+01  0.51100000000E-03 0. -1.
        -11    1    3    3    0    0 -0.38439959489E+01  0.26302412778E+02 -0.14427995849E+01  0.26620948400E+02  0.51100000000E-03 0.  1.
         12    1    3    3    0    0  0.66540328241E+01  0.16969294304E+02 -0.41806099034E+01  0.18700550825E+02  0.00000000000E+00 0. -1.
</event>
<event>
 7    1  0.1400974E-009  0.4778726E+02  0.7816164E-02  0.1312668E+00
        -11   -1    0    0    0    0  0.00000000000E+00  0.00000000000E+00  0.45593999997E+02  0.45594000000E+02  0.51100000000E-03 0.  1.
         11   -1    0    0    0    0 -0.00000000000E+00 -0.00000000000E+00 -0.45593999997E+02  0.45594000000E+02  0.51100000000E-03 0. -1.
    9900012    2    1    2    0    0 -0.22074444067E+02  0.16043775193E+02 -0.33748185746E+02  0.47787264471E+02  0.19999970028E+02 0.  0.
        -12    1    1    2    0    0  0.22074444067E+02 -0.16043775193E+02  0.33748185746E+02  0.43400735529E+02  0.00000000000E+00 0.  1.
         11    1    3    3    0    0  0.12499482266E+01 -0.20425734904E+01 -0.28368361174E+01  0.37124272991E+01  0.51100000000E-03 0.  1.
        -11    1    3    3    0    0 -0.14860435710E+02  0.48651827261E+01 -0.17025317718E+02  0.23116314501E+02  0.51100000000E-03 0. -1.
         12    1    3    3    0    0 -0.84639565836E+01  0.13221165957E+02 -0.13886031911E+02  0.20958522671E+02  0.00000000000E+00 0. -1.
</event>
<event>
 7    1  0.1400974E-009  0.4778730E+02  0.7816164E-02  0.1312668E+00
        -11   -1    0    0    0    0  0.00000000000E+00  0.00000000000E+00  0.45593999997E+02  0.45594000000E+02  0.51100000000E-03 0.  1.
         11   -1    0    0    0    0 -0.00000000000E+00 -0.00000000000E+00 -0.45593999997E+02  0.45594000000E+02  0.51100000000E-03 0. -1.
    9900012    2    1    2    0    0 -0.11369872511E+02 -0.32957331443E+02 -0.25848813163E+02  0.47787299100E+02  0.20000127914E+02 0.  0.
        -12    1    1    2    0    0  0.11369872511E+02  0.32957331443E+02  0.25848813163E+02  0.43400700900E+02  0.00000000000E+00 0.  1.
         11    1    3    3    0    0 -0.38947243383E+01 -0.65193404132E+00 -0.19580236335E+01  0.44076924207E+01  0.51100000000E-03 0. -1.
        -11    1    3    3    0    0  0.21289885108E+01 -0.12613722917E+02 -0.15055632285E+02  0.19756281575E+02  0.51100000000E-03 0.  1.
         12    1    3    3    0    0 -0.96041366839E+01 -0.19691674484E+02 -0.88351572439E+01  0.23623325103E+02  0.00000000000E+00 0. -1.
</event>
<event>
 7    1  0.1400974E-009  0.4778727E+02  0.7816164E-02  0.1312668E+00
        -11   -1    0    0    0    0  0.00000000000E+00  0.00000000000E+00  0.45593999997E+02  0.45594000000E+02  0.51100000000E-03 0.  1.
         11   -1    0    0    0    0 -0.00000000000E+00 -0.00000000000E+00 -0.45593999997E+02  0.45594000000E+02  0.51100000000E-03 0. -1.
    9900012    2    1    2    0    0  0.18638526770E+02  0.92985386021E+01 -0.38075790164E+02  0.47787270779E+02  0.19999998789E+02 0.  0.
        -12    1    1    2    0    0 -0.18638526770E+02 -0.92985386021E+01  0.38075790164E+02  0.43400729221E+02  0.00000000000E+00 0.  1.
         11    1    3    3    0    0  0.79661056322E+01  0.67444837747E+01 -0.22677314368E+02  0.24964124009E+02  0.51100000000E-03 0. -1.
        -11    1    3    3    0    0  0.90691787260E+01 -0.35046429544E+01 -0.12713032568E+02  0.16004803102E+02  0.51100000000E-03 0.  1.
         12    1    3    3    0    0  0.16032424123E+01  0.60586977817E+01 -0.26854432285E+01  0.68183436681E+01  0.00000000000E+00 0. -1.
</event>
<event>
 7    1  0.1400974E-009  0.4778727E+02  0.7816164E-02  0.1312668E+00
        -11   -1    0    0    0    0  0.00000000000E+00  0.00000000000E+00  0.45593999997E+02  0.45594000000E+02  0.51100000000E-03 0.  1.
         11   -1    0    0    0    0 -0.00000000000E+00 -0.00000000000E+00 -0.45593999997E+02  0.45594000000E+02  0.51100000000E-03 0. -1.
    9900012    2    1    2    0    0 -0.27226539955E+01 -0.38329095832E+02 -0.20176489931E+02  0.47787272148E+02  0.20000005034E+02 0.  0.
        -12    1    1    2    0    0  0.27226539955E+01  0.38329095832E+02  0.20176489931E+02  0.43400727852E+02  0.00000000000E+00 0.  1.
         11    1    3    3    0    0  0.33032073844E+01 -0.71780979499E+01 -0.53382710291E+01  0.95359009561E+01  0.51100000000E-03 0.  1.
        -11    1    3    3    0    0 -0.49631356186E+01 -0.12465269404E+02  0.13778470641E+01  0.13487554236E+02  0.51100000000E-03 0. -1.
         12    1    3    3    0    0 -0.10627257613E+01 -0.18685728478E+02 -0.16216065966E+02  0.24763816956E+02  0.00000000000E+00 0. -1.
</event>
<event>
 7    1  0.1400974E-009  0.4778727E+02  0.7816164E-02  0.1312668E+00
        -11   -1    0    0    0    0  0.00000000000E+00  0.00000000000E+00  0.45593999997E+02  0.45594000000E+02  0.51100000000E-03 0.  1.
         11   -1    0    0    0    0 -0.00000000000E+00 -0.00000000000E+00 -0.45593999997E+02  0.45594000000E+02  0.51100000000E-03 0. -1.
    9900012    2    1    2    0    0  0.14471155807E+02 -0.96819633717E+01 -0.39755109318E+02  0.47787268646E+02  0.19999989065E+02 0.  0.
        -12    1    1    2    0    0 -0.14471155807E+02  0.96819633717E+01  0.39755109318E+02  0.43400731354E+02  0.00000000000E+00 0.  1.
         11    1    3    3    0    0 -0.15430621307E+01 -0.61821068770E+01 -0.62578322967E+01  0.89308427090E+01  0.51100000000E-03 0. -1.
        -11    1    3    3    0    0  0.25000750189E+01  0.36285805671E+01 -0.71024836478E+01  0.83583638506E+01  0.51100000000E-03 0.  1.
         12    1    3    3    0    0  0.13514142919E+02 -0.71284370618E+01 -0.26394793374E+02  0.30498062087E+02  0.00000000000E+00 0. -1.
</event>
<event>
 7    1  0.1400974E-009  0.4778727E+02  0.7816164E-02  0.1312668E+00
        -11   -1    0    0    0    0  0.00000000000E+00  0.00000000000E+00  0.45593999997E+02  0.45594000000E+02  0.51100000000E-03 0.  1.
         11   -1    0    0    0    0 -0.00000000000E+00 -0.00000000000E+00 -0.45593999997E+02  0.45594000000E+02  0.51100000000E-03 0. -1.
    9900012    2    1    2    0    0 -0.36018542265E+02 -0.37343720967E+01 -0.23923681249E+02  0.47787269057E+02  0.19999990941E+02 0.  0.
        -12    1    1    2    0    0  0.36018542265E+02  0.37343720967E+01  0.23923681249E+02  0.43400730943E+02  0.00000000000E+00 0.  1.
         11    1    3    3    0    0 -0.16626810989E+01 -0.20546491196E+01 -0.39258524662E+01  0.47326957740E+01  0.51100000000E-03 0. -1.
        -11    1    3    3    0    0 -0.29813233367E+02  0.47363654406E+01 -0.16971162646E+02  0.34630656985E+02  0.51100000000E-03 0.  1.
        -12    1    3    3    0    0 -0.45426277986E+01 -0.64160884177E+01 -0.30266661375E+01  0.84239162987E+01  0.00000000000E+00 0.  1.
</event>
<event>
 7    1  0.1400974E-009  0.4778727E+02  0.7816164E-02  0.1312668E+00
        -11   -1    0    0    0    0  0.00000000000E+00  0.00000000000E+00  0.45593999997E+02  0.45594000000E+02  0.51100000000E-03 0.  1.
         11   -1    0    0    0    0 -0.00000000000E+00 -0.00000000000E+00 -0.45593999997E+02  0.45594000000E+02  0.51100000000E-03 0. -1.
    9900012    2    1    2    0    0  0.13206297696E+02 -0.30349434226E+02 -0.28073627899E+02  0.47787273737E+02  0.20000012279E+02 0.  0.
        -12    1    1    2    0    0 -0.13206297696E+02  0.30349434226E+02  0.28073627899E+02  0.43400726263E+02  0.00000000000E+00 0.  1.
         11    1    3    3    0    0  0.46922350563E+01 -0.29507348222E+02 -0.21091271761E+02  0.36572426960E+02  0.51100000000E-03 0. -1.
        -11    1    3    3    0    0  0.35799932061E+01 -0.78953484827E+00 -0.18920152152E+01  0.41254622127E+01  0.51100000000E-03 0.  1.
         12    1    3    3    0    0  0.49340694338E+01 -0.52551155258E-01 -0.50903409230E+01  0.70893845652E+01  0.00000000000E+00 0. -1.
</event>
<event>
 7    1  0.1400974E-009  0.4778727E+02  0.7816164E-02  0.1312668E+00
        -11   -1    0    0    0    0  0.00000000000E+00  0.00000000000E+00  0.45593999997E+02  0.45594000000E+02  0.51100000000E-03 0. -1.
         11   -1    0    0    0    0 -0.00000000000E+00 -0.00000000000E+00 -0.45593999997E+02  0.45594000000E+02  0.51100000000E-03 0.  1.
    9900012    2    1    2    0    0  0.35643179405E+02  0.14923209524E+02  0.19760695233E+02  0.47787268477E+02  0.19999988295E+02 0.  0.
        -12    1    1    2    0    0 -0.35643179405E+02 -0.14923209524E+02 -0.19760695233E+02  0.43400731523E+02  0.00000000000E+00 0.  1.
         11    1    3    3    0    0  0.10235069336E+02  0.35717791351E+00  0.49934308679E+01  0.11393795349E+02  0.51100000000E-03 0. -1.
        -11    1    3    3    0    0  0.12254468730E+02  0.14856152000E+02  0.46906450960E+01  0.19821185832E+02  0.51100000000E-03 0.  1.
        -12    1    3    3    0    0  0.13153641339E+02 -0.29012038961E+00  0.10076619269E+02  0.16572287296E+02  0.00000000000E+00 0.  1.
</event>
<event>
 7    1  0.1400974E-009  0.4778727E+02  0.7816164E-02  0.1312668E+00
        -11   -1    0    0    0    0  0.00000000000E+00  0.00000000000E+00  0.45593999997E+02  0.45594000000E+02  0.51100000000E-03 0. -1.
         11   -1    0    0    0    0 -0.00000000000E+00 -0.00000000000E+00 -0.45593999997E+02  0.45594000000E+02  0.51100000000E-03 0.  1.
    9900012    2    1    2    0    0 -0.30311900683E+02 -0.30102883550E+02  0.76569146268E+01  0.47787271174E+02  0.20000000590E+02 0.  0.
        -12    1    1    2    0    0  0.30311900683E+02  0.30102883550E+02 -0.76569146268E+01  0.43400728826E+02  0.00000000000E+00 0.  1.
         11    1    3    3    0    0 -0.11735999935E+02 -0.13270335316E+01  0.92466162019E+00  0.11846928372E+02  0.51100000000E-03 0. -1.
        -11    1    3    3    0    0 -0.12050963228E+02 -0.16904630461E+02 -0.11766029690E+00  0.20760686162E+02  0.51100000000E-03 0.  1.
        -12    1    3    3    0    0 -0.65249375196E+01 -0.11871219558E+02  0.68499133035E+01  0.15179656640E+02  0.00000000000E+00 0.  1.
</event>
<event>
 7    1  0.1400974E-009  0.4778727E+02  0.7816164E-02  0.1312668E+00
        -11   -1    0    0    0    0  0.00000000000E+00  0.00000000000E+00  0.45593999997E+02  0.45594000000E+02  0.51100000000E-03 0. -1.
         11   -1    0    0    0    0 -0.00000000000E+00 -0.00000000000E+00 -0.45593999997E+02  0.45594000000E+02  0.51100000000E-03 0.  1.
    9900012    2    1    2    0    0 -0.17815537386E+02  0.21887285301E+02  0.32972364011E+02  0.47787269376E+02  0.19999992393E+02 0.  0.
        -12    1    1    2    0    0  0.17815537386E+02 -0.21887285301E+02 -0.32972364011E+02  0.43400730624E+02  0.00000000000E+00 0.  1.
         11    1    3    3    0    0 -0.67713863748E+01  0.38690000683E+01  0.12682012229E+02  0.14888057946E+02  0.51100000000E-03 0. -1.
        -11    1    3    3    0    0  0.16036791126E+01  0.98008901158E+00 -0.15588343916E+01  0.24417874782E+01  0.51100000000E-03 0.  1.
         12    1    3    3    0    0 -0.12647830124E+02  0.17038196221E+02  0.21849186174E+02  0.30457423952E+02  0.00000000000E+00 0. -1.
</event>
<event>
 7    1  0.1400974E-009  0.4778727E+02  0.7816164E-02  0.1312668E+00
        -11   -1    0    0    0    0  0.00000000000E+00  0.00000000000E+00  0.45593999997E+02  0.45594000000E+02  0.51100000000E-03 0.  1.
         11   -1    0    0    0    0 -0.00000000000E+00 -0.00000000000E+00 -0.45593999997E+02  0.45594000000E+02  0.51100000000E-03 0. -1.
    9900012    2    1    2    0    0  0.20185942905E+02 -0.35683870831E+01 -0.38254643657E+02  0.47787269146E+02  0.19999991346E+02 0.  0.
        -12    1    1    2    0    0 -0.20185942905E+02  0.35683870831E+01  0.38254643657E+02  0.43400730854E+02  0.00000000000E+00 0.  1.
         11    1    3    3    0    0  0.13599957884E+02 -0.62870764963E+01 -0.15507607236E+02  0.21563210980E+02  0.51100000000E-03 0. -1.
        -11    1    3    3    0    0 -0.19451757859E+01  0.74013600250E+00 -0.26685777899E+00  0.20982667789E+01  0.51100000000E-03 0.  1.
         12    1    3    3    0    0  0.85311608071E+01  0.19785534106E+01 -0.22480178642E+02  0.24125791388E+02  0.00000000000E+00 0. -1.
</event>
<event>
 7    1  0.1400974E-009  0.4778727E+02  0.7816164E-02  0.1312668E+00
        -11   -1    0    0    0    0  0.00000000000E+00  0.00000000000E+00  0.45593999997E+02  0.45594000000E+02  0.51100000000E-03 0.  1.
         11   -1    0    0    0    0 -0.00000000000E+00 -0.00000000000E+00 -0.45593999997E+02  0.45594000000E+02  0.51100000000E-03 0. -1.
    9900012    2    1    2    0    0 -0.22795918086E+02  0.27750876267E+02 -0.24369215326E+02  0.47787266474E+02  0.19999979163E+02 0.  0.
        -12    1    1    2    0    0  0.22795918086E+02 -0.27750876267E+02  0.24369215326E+02  0.43400733526E+02  0.00000000000E+00 0.  1.
         11    1    3    3    0    0 -0.49834426855E+01  0.77513858212E+01 -0.89961673047E+01  0.12878265007E+02  0.51100000000E-03 0. -1.
        -11    1    3    3    0    0 -0.11278982403E+02  0.29829056871E+01 -0.10250866280E+01  0.11711702406E+02  0.51100000000E-03 0.  1.
        -12    1    3    3    0    0 -0.65334929966E+01  0.17016584759E+02 -0.14347961393E+02  0.23197299061E+02  0.00000000000E+00 0.  1.
</event>
<event>
 7    1  0.1400974E-009  0.4778726E+02  0.7816164E-02  0.1312668E+00
        -11   -1    0    0    0    0  0.00000000000E+00  0.00000000000E+00  0.45593999997E+02  0.45594000000E+02  0.51100000000E-03 0. -1.
         11   -1    0    0    0    0 -0.00000000000E+00 -0.00000000000E+00 -0.45593999997E+02  0.45594000000E+02  0.51100000000E-03 0.  1.
    9900012    2    1    2    0    0 -0.30061355586E+01  0.34491570352E+02  0.26170950467E+02  0.47787263547E+02  0.19999965816E+02 0.  0.
        -12    1    1    2    0    0  0.30061355586E+01 -0.34491570352E+02 -0.26170950467E+02  0.43400736453E+02  0.00000000000E+00 0.  1.
         11    1    3    3    0    0 -0.37863697435E+01  0.63635524686E+01  0.68067566138E+01  0.10057998395E+02  0.51100000000E-03 0. -1.
        -11    1    3    3    0    0  0.83114029880E+01  0.13630283552E+02  0.82514110646E+01  0.17970805050E+02  0.51100000000E-03 0.  1.
        -12    1    3    3    0    0 -0.75311688031E+01  0.14497734332E+02  0.11112782788E+02  0.19758460102E+02  0.00000000000E+00 0.  1.
</event>
<event>
 7    1  0.1400974E-009  0.4778727E+02  0.7816164E-02  0.1312668E+00
        -11   -1    0    0    0    0  0.00000000000E+00  0.00000000000E+00  0.45593999997E+02  0.45594000000E+02  0.51100000000E-03 0. -1.
         11   -1    0    0    0    0 -0.00000000000E+00 -0.00000000000E+00 -0.45593999997E+02  0.45594000000E+02  0.51100000000E-03 0.  1.
    9900012    2    1    2    0    0  0.37268800159E+02  0.91113716311E+01  0.20288983639E+02  0.47787269414E+02  0.19999992565E+02 0.  0.
        -12    1    1    2    0    0 -0.37268800159E+02 -0.91113716311E+01 -0.20288983639E+02  0.43400730586E+02  0.00000000000E+00 0.  1.
         11    1    3    3    0    0  0.46622446642E+00  0.97181206429E+00  0.31115131932E+01  0.32929164207E+01  0.51100000000E-03 0. -1.
        -11    1    3    3    0    0  0.25698599255E+02  0.84550839979E+00  0.44470899831E+01  0.26094242616E+02  0.51100000000E-03 0.  1.
        -12    1    3    3    0    0  0.11103976438E+02  0.72940511670E+01  0.12730380463E+02  0.18400110377E+02  0.00000000000E+00 0.  1.
</event>
<event>
 7    1  0.1400974E-009  0.4778726E+02  0.7816164E-02  0.1312668E+00
        -11   -1    0    0    0    0  0.00000000000E+00  0.00000000000E+00  0.45593999997E+02  0.45594000000E+02  0.51100000000E-03 0.  1.
         11   -1    0    0    0    0 -0.00000000000E+00 -0.00000000000E+00 -0.45593999997E+02  0.45594000000E+02  0.51100000000E-03 0. -1.
    9900012    2    1    2    0    0 -0.15744770667E+01 -0.80500553170E+01 -0.42618563179E+02  0.47787259268E+02  0.19999946305E+02 0.  0.
        -12    1    1    2    0    0  0.15744770667E+01  0.80500553170E+01  0.42618563179E+02  0.43400740732E+02  0.00000000000E+00 0.  1.
         11    1    3    3    0    0  0.48845928127E+01 -0.30611778364E+00 -0.20866319052E+02  0.21432597278E+02  0.51100000000E-03 0. -1.
        -11    1    3    3    0    0 -0.45222568967E+01  0.20003024584E+01 -0.72532723172E+01  0.87784951406E+01  0.51100000000E-03 0.  1.
        -12    1    3    3    0    0 -0.19368129827E+01 -0.97442399918E+01 -0.14498971810E+02  0.17576166849E+02  0.00000000000E+00 0.  1.
</event>
<event>
 7    1  0.1400974E-009  0.4778727E+02  0.7816164E-02  0.1312668E+00
        -11   -1    0    0    0    0  0.00000000000E+00  0.00000000000E+00  0.45593999997E+02  0.45594000000E+02  0.51100000000E-03 0.  1.
         11   -1    0    0    0    0 -0.00000000000E+00 -0.00000000000E+00 -0.45593999997E+02  0.45594000000E+02  0.51100000000E-03 0. -1.
    9900012    2    1    2    0    0  0.24842901599E+02 -0.20797210428E+02 -0.28877832989E+02  0.47787274665E+02  0.20000016508E+02 0.  0.
        -12    1    1    2    0    0 -0.24842901599E+02  0.20797210428E+02  0.28877832989E+02  0.43400725335E+02  0.00000000000E+00 0.  1.
         11    1    3    3    0    0  0.95048917246E+01 -0.71289992544E+01 -0.90383928866E+01  0.14928434054E+02  0.51100000000E-03 0. -1.
        -11    1    3    3    0    0 -0.18663528839E+01 -0.65133219381E+01 -0.20037154514E+01  0.70655156661E+01  0.51100000000E-03 0.  1.
        -12    1    3    3    0    0  0.17204362758E+02 -0.71548892354E+01 -0.17835724651E+02  0.25793324945E+02  0.00000000000E+00 0.  1.
</event>
<event>
 7    1  0.1400974E-009  0.4778727E+02  0.7816164E-02  0.1312668E+00
        -11   -1    0    0    0    0  0.00000000000E+00  0.00000000000E+00  0.45593999997E+02  0.45594000000E+02  0.51100000000E-03 0.  1.
         11   -1    0    0    0    0 -0.00000000000E+00 -0.00000000000E+00 -0.45593999997E+02  0.45594000000E+02  0.51100000000E-03 0. -1.
    9900012    2    1    2    0    0  0.92624331893E+01 -0.96692895372E+01 -0.41283596462E+02  0.47787272292E+02  0.20000005689E+02 0.  0.
        -12    1    1    2    0    0 -0.92624331893E+01  0.96692895372E+01  0.41283596462E+02  0.43400727708E+02  0.00000000000E+00 0.  1.
         11    1    3    3    0    0  0.19055930511E+01 -0.25578326698E+00 -0.11031063866E+01  0.22166537658E+01  0.51100000000E-03 0. -1.
        -11    1    3    3    0    0 -0.26691301481E+01 -0.20624194181E+01  0.14100626581E+00  0.33760498562E+01  0.51100000000E-03 0.  1.
         12    1    3    3    0    0  0.10025970286E+02 -0.73510868521E+01 -0.40321496341E+02  0.42194568670E+02  0.00000000000E+00 0. -1.
</event>
<event>
 7    1  0.1400974E-009  0.4778727E+02  0.7816164E-02  0.1312668E+00
        -11   -1    0    0    0    0  0.00000000000E+00  0.00000000000E+00  0.45593999997E+02  0.45594000000E+02  0.51100000000E-03 0. -1.
         11   -1    0    0    0    0 -0.00000000000E+00 -0.00000000000E+00 -0.45593999997E+02  0.45594000000E+02  0.51100000000E-03 0.  1.
    9900012    2    1    2    0    0 -0.30263747383E+02  0.18446705708E+01  0.31053601081E+02  0.47787270106E+02  0.19999995722E+02 0.  0.
        -12    1    1    2    0    0  0.30263747383E+02 -0.18446705708E+01 -0.31053601081E+02  0.43400729894E+02  0.00000000000E+00 0.  1.
         11    1    3    3    0    0 -0.25140803834E+02  0.32289318349E+01  0.29316598251E+02  0.38754986150E+02  0.51100000000E-03 0. -1.
        -11    1    3    3    0    0 -0.50353957051E+01 -0.25145531874E+01  0.37210569312E+01  0.67471810844E+01  0.51100000000E-03 0.  1.
        -12    1    3    3    0    0 -0.87547844434E-01  0.11302919232E+01 -0.19840541014E+01  0.22851028716E+01  0.00000000000E+00 0.  1.
</event>
<event>
 7    1  0.1400974E-009  0.4778727E+02  0.7816164E-02  0.1312668E+00
        -11   -1    0    0    0    0  0.00000000000E+00  0.00000000000E+00  0.45593999997E+02  0.45594000000E+02  0.51100000000E-03 0.  1.
         11   -1    0    0    0    0 -0.00000000000E+00 -0.00000000000E+00 -0.45593999997E+02  0.45594000000E+02  0.51100000000E-03 0. -1.
    9900012    2    1    2    0    0 -0.33518938139E+00 -0.55788844810E+00 -0.43395848877E+02  0.47787270845E+02  0.19999999092E+02 0.  0.
        -12    1    1    2    0    0  0.33518938139E+00  0.55788844810E+00  0.43395848877E+02  0.43400729155E+02  0.00000000000E+00 0.  1.
         11    1    3    3    0    0  0.10198564177E+01 -0.34502642123E+01 -0.34106619161E+02  0.34295858367E+02  0.51100000000E-03 0. -1.
        -11    1    3    3    0    0  0.85852618546E+00 -0.24212854755E+01 -0.67568824322E-02  0.25689952280E+01  0.51100000000E-03 0.  1.
        -12    1    3    3    0    0 -0.22135719845E+01  0.53136612397E+01 -0.92824728326E+01  0.10922417250E+02  0.00000000000E+00 0.  1.
</event>
<event>
 7    1  0.1400974E-009  0.4778727E+02  0.7816164E-02  0.1312668E+00
        -11   -1    0    0    0    0  0.00000000000E+00  0.00000000000E+00  0.45593999997E+02  0.45594000000E+02  0.51100000000E-03 0.  1.
         11   -1    0    0    0    0 -0.00000000000E+00 -0.00000000000E+00 -0.45593999997E+02  0.45594000000E+02  0.51100000000E-03 0. -1.
    9900012    2    1    2    0    0 -0.28124994774E+02  0.12247252314E+02 -0.30701995271E+02  0.47787273809E+02  0.20000012605E+02 0.  0.
        -12    1    1    2    0    0  0.28124994774E+02 -0.12247252314E+02  0.30701995271E+02  0.43400726191E+02  0.00000000000E+00 0.  1.
         11    1    3    3    0    0 -0.15369856465E+02  0.79476086724E+01 -0.10690657501E+02  0.20339300122E+02  0.51100000000E-03 0. -1.
        -11    1    3    3    0    0  0.12915675623E+00  0.44288383431E+01 -0.10609587044E+02  0.11497592272E+02  0.51100000000E-03 0.  1.
         12    1    3    3    0    0 -0.12884295065E+02 -0.12919470137E+00 -0.94017507251E+01  0.15950381416E+02  0.00000000000E+00 0. -1.
</event>
<event>
 7    1  0.1400974E-009  0.4778727E+02  0.7816164E-02  0.1312668E+00
        -11   -1    0    0    0    0  0.00000000000E+00  0.00000000000E+00  0.45593999997E+02  0.45594000000E+02  0.51100000000E-03 0.  1.
         11   -1    0    0    0    0 -0.00000000000E+00 -0.00000000000E+00 -0.45593999997E+02  0.45594000000E+02  0.51100000000E-03 0. -1.
    9900012    2    1    2    0    0  0.33908766772E+02  0.42152793349E+01 -0.26759116631E+02  0.47787269975E+02  0.19999995123E+02 0.  0.
        -12    1    1    2    0    0 -0.33908766772E+02 -0.42152793349E+01  0.26759116631E+02  0.43400730025E+02  0.00000000000E+00 0.  1.
         11    1    3    3    0    0  0.59456593597E+01  0.15339179931E+01 -0.73826461348E+01  0.96024597809E+01  0.51100000000E-03 0. -1.
        -11    1    3    3    0    0  0.12072737276E+02  0.97725489168E+00 -0.18585287478E+02  0.22183753590E+02  0.51100000000E-03 0.  1.
         12    1    3    3    0    0  0.15890370137E+02  0.17041064501E+01 -0.79118301805E+00  0.16001056604E+02  0.00000000000E+00 0. -1.
</event>
<event>
 7    1  0.1400974E-009  0.4778727E+02  0.7816164E-02  0.1312668E+00
        -11   -1    0    0    0    0  0.00000000000E+00  0.00000000000E+00  0.45593999997E+02  0.45594000000E+02  0.51100000000E-03 0.  1.
         11   -1    0    0    0    0 -0.00000000000E+00 -0.00000000000E+00 -0.45593999997E+02  0.45594000000E+02  0.51100000000E-03 0. -1.
    9900012    2    1    2    0    0 -0.35925218124E+02  0.63383611944E+01  0.23512278546E+02  0.47787270025E+02  0.19999995353E+02 0.  0.
        -12    1    1    2    0    0  0.35925218124E+02 -0.63383611944E+01 -0.23512278546E+02  0.43400729975E+02  0.00000000000E+00 0.  1.
         11    1    3    3    0    0 -0.15786641150E+02  0.41416457717E+01  0.28350386829E+01  0.16565286387E+02  0.51100000000E-03 0. -1.
        -11    1    3    3    0    0 -0.87290750746E+01  0.36944973850E+01  0.26624701577E+01  0.98455477343E+01  0.51100000000E-03 0.  1.
        -12    1    3    3    0    0 -0.11409501900E+02 -0.14977819623E+01  0.18014769705E+02  0.21376435904E+02  0.00000000000E+00 0.  1.
</event>
<event>
 7    1  0.1400974E-009  0.4778727E+02  0.7816164E-02  0.1312668E+00
        -11   -1    0    0    0    0  0.00000000000E+00  0.00000000000E+00  0.45593999997E+02  0.45594000000E+02  0.51100000000E-03 0.  1.
         11   -1    0    0    0    0 -0.00000000000E+00 -0.00000000000E+00 -0.45593999997E+02  0.45594000000E+02  0.51100000000E-03 0. -1.
    9900012    2    1    2    0    0  0.10471748017E+01  0.23660669121E+02 -0.36368941948E+02  0.47787265251E+02  0.19999973586E+02 0.  0.
        -12    1    1    2    0    0 -0.10471748017E+01 -0.23660669121E+02  0.36368941948E+02  0.43400734749E+02  0.00000000000E+00 0.  1.
         11    1    3    3    0    0  0.50855316965E+01  0.10831503881E+02 -0.16381991269E+02  0.20286787503E+02  0.51100000000E-03 0. -1.
        -11    1    3    3    0    0  0.10872571709E+01  0.45189969130E+01 -0.16484976218E+02  0.17127694020E+02  0.51100000000E-03 0.  1.
        -12    1    3    3    0    0 -0.51256140657E+01  0.83101683261E+01 -0.35019744609E+01  0.10372783729E+02  0.00000000000E+00 0.  1.
</event>
<event>
 7    1  0.1400974E-009  0.4778727E+02  0.7816164E-02  0.1312668E+00
        -11   -1    0    0    0    0  0.00000000000E+00  0.00000000000E+00  0.45593999997E+02  0.45594000000E+02  0.51100000000E-03 0.  1.
         11   -1    0    0    0    0 -0.00000000000E+00 -0.00000000000E+00 -0.45593999997E+02  0.45594000000E+02  0.51100000000E-03 0. -1.
    9900012    2    1    2    0    0 -0.26679598454E+02 -0.25598222124E+02 -0.22727809626E+02  0.47787270975E+02  0.19999999682E+02 0.  0.
        -12    1    1    2    0    0  0.26679598454E+02  0.25598222124E+02  0.22727809626E+02  0.43400729025E+02  0.00000000000E+00 0.  1.
         11    1    3    3    0    0 -0.13712809507E+02 -0.36109425303E+01 -0.10787373179E+02  0.17817055618E+02  0.51100000000E-03 0. -1.
        -11    1    3    3    0    0 -0.14346000494E+01 -0.60827979812E+01 -0.76203541627E+01  0.98553694202E+01  0.51100000000E-03 0.  1.
        -12    1    3    3    0    0 -0.11532188897E+02 -0.15904481612E+02 -0.43200822845E+01  0.20114845936E+02  0.00000000000E+00 0.  1.
</event>
<event>
 7    1  0.1400974E-009  0.4778727E+02  0.7816164E-02  0.1312668E+00
        -11   -1    0    0    0    0  0.00000000000E+00  0.00000000000E+00  0.45593999997E+02  0.45594000000E+02  0.51100000000E-03 0. -1.
         11   -1    0    0    0    0 -0.00000000000E+00 -0.00000000000E+00 -0.45593999997E+02  0.45594000000E+02  0.51100000000E-03 0.  1.
    9900012    2    1    2    0    0 -0.26817632936E+02 -0.19081276875E+02  0.28290327527E+02  0.47787271953E+02  0.20000004140E+02 0.  0.
        -12    1    1    2    0    0  0.26817632936E+02  0.19081276875E+02 -0.28290327527E+02  0.43400728047E+02  0.00000000000E+00 0.  1.
         11    1    3    3    0    0 -0.22150769222E+01  0.15166358979E+01  0.85829671885E+00  0.28184080146E+01  0.51100000000E-03 0.  1.
        -11    1    3    3    0    0 -0.61672071470E+01 -0.14510591110E+02  0.87807219738E+01  0.18046960326E+02  0.51100000000E-03 0. -1.
         12    1    3    3    0    0 -0.18435348866E+02 -0.60873216627E+01  0.18651308834E+02  0.26921903612E+02  0.00000000000E+00 0. -1.
</event>
<event>
 7    1  0.1400974E-009  0.4778723E+02  0.7816164E-02  0.1312668E+00
        -11   -1    0    0    0    0  0.00000000000E+00  0.00000000000E+00  0.45593999997E+02  0.45594000000E+02  0.51100000000E-03 0.  1.
         11   -1    0    0    0    0 -0.00000000000E+00 -0.00000000000E+00 -0.45593999997E+02  0.45594000000E+02  0.51100000000E-03 0. -1.
    9900012    2    1    2    0    0  0.87455029877E+01 -0.40598512630E+02 -0.12605687669E+02  0.47787234893E+02  0.19999835170E+02 0.  0.
        -12    1    1    2    0    0 -0.87455029877E+01  0.40598512630E+02  0.12605687669E+02  0.43400765107E+02  0.00000000000E+00 0.  1.
         11    1    3    3    0    0 -0.13449722894E+00 -0.20075974600E+02 -0.54333582393E+01  0.20798659276E+02  0.51100000000E-03 0. -1.
        -11    1    3    3    0    0  0.55435010966E+01 -0.31611656105E+01  0.24796634079E+01  0.68463204206E+01  0.51100000000E-03 0.  1.
         12    1    3    3    0    0  0.33364991201E+01 -0.17361372419E+02 -0.96519928380E+01  0.20142255196E+02  0.00000000000E+00 0. -1.
</event>
<event>
 7    1  0.1400974E-009  0.4778728E+02  0.7816164E-02  0.1312668E+00
        -11   -1    0    0    0    0  0.00000000000E+00  0.00000000000E+00  0.45593999997E+02  0.45594000000E+02  0.51100000000E-03 0.  1.
         11   -1    0    0    0    0 -0.00000000000E+00 -0.00000000000E+00 -0.45593999997E+02  0.45594000000E+02  0.51100000000E-03 0. -1.
    9900012    2    1    2    0    0  0.28343255957E+02 -0.13584968830E+02 -0.29928770697E+02  0.47787275908E+02  0.20000022173E+02 0.  0.
        -12    1    1    2    0    0 -0.28343255957E+02  0.13584968830E+02  0.29928770697E+02  0.43400724092E+02  0.00000000000E+00 0.  1.
         11    1    3    3    0    0  0.15346155452E+02 -0.16381938528E+02 -0.15543610402E+02  0.27303410440E+02  0.51100000000E-03 0. -1.
        -11    1    3    3    0    0  0.29077089584E+01  0.17156379104E+01 -0.70124408181E+00  0.34481775403E+01  0.51100000000E-03 0.  1.
         12    1    3    3    0    0  0.10089391546E+02  0.10813317877E+01 -0.13683916213E+02  0.17035687927E+02  0.00000000000E+00 0. -1.
</event>
<event>
 7    1  0.1400974E-009  0.4778727E+02  0.7816164E-02  0.1312668E+00
        -11   -1    0    0    0    0  0.00000000000E+00  0.00000000000E+00  0.45593999997E+02  0.45594000000E+02  0.51100000000E-03 0.  1.
         11   -1    0    0    0    0 -0.00000000000E+00 -0.00000000000E+00 -0.45593999997E+02  0.45594000000E+02  0.51100000000E-03 0. -1.
    9900012    2    1    2    0    0  0.79373283254E+01 -0.23640936903E+02 -0.35520815446E+02  0.47787269493E+02  0.19999992926E+02 0.  0.
        -12    1    1    2    0    0 -0.79373283254E+01  0.23640936903E+02  0.35520815446E+02  0.43400730507E+02  0.00000000000E+00 0.  1.
         11    1    3    3    0    0  0.38150751134E+00  0.25607172393E+01 -0.29227862979E+01  0.39045487275E+01  0.51100000000E-03 0. -1.
        -11    1    3    3    0    0 -0.11013999273E+01 -0.27717885213E+01 -0.91475020549E+01  0.96214701326E+01  0.51100000000E-03 0.  1.
         12    1    3    3    0    0  0.86572207413E+01 -0.23429865621E+02 -0.23450527093E+02  0.34261250633E+02  0.00000000000E+00 0. -1.
</event>
<event>
 7    1  0.1400974E-009  0.4778727E+02  0.7816164E-02  0.1312668E+00
        -11   -1    0    0    0    0  0.00000000000E+00  0.00000000000E+00  0.45593999997E+02  0.45594000000E+02  0.51100000000E-03 0.  1.
         11   -1    0    0    0    0 -0.00000000000E+00 -0.00000000000E+00 -0.45593999997E+02  0.45594000000E+02  0.51100000000E-03 0. -1.
    9900012    2    1    2    0    0 -0.40077816416E+02 -0.14591504436E+02  0.80299490010E+01  0.47787269000E+02  0.19999990678E+02 0.  0.
        -12    1    1    2    0    0  0.40077816416E+02  0.14591504436E+02 -0.80299490010E+01  0.43400731000E+02  0.00000000000E+00 0.  1.
         11    1    3    3    0    0 -0.16005390696E+02 -0.33747561654E+01 -0.46560491233E+01  0.17007066302E+02  0.51100000000E-03 0. -1.
        -11    1    3    3    0    0 -0.12850448166E+02 -0.10493388534E+02  0.57037931298E+01  0.17543616426E+02  0.51100000000E-03 0.  1.
        -12    1    3    3    0    0 -0.11221977554E+02 -0.72335973741E+00  0.69822049945E+01  0.13236586272E+02  0.00000000000E+00 0.  1.
</event>
<event>
 7    1  0.1400974E-009  0.4778727E+02  0.7816164E-02  0.1312668E+00
        -11   -1    0    0    0    0  0.00000000000E+00  0.00000000000E+00  0.45593999997E+02  0.45594000000E+02  0.51100000000E-03 0. -1.
         11   -1    0    0    0    0 -0.00000000000E+00 -0.00000000000E+00 -0.45593999997E+02  0.45594000000E+02  0.51100000000E-03 0.  1.
    9900012    2    1    2    0    0  0.34710634685E+02 -0.21599526334E+02  0.14568993214E+02  0.47787271189E+02  0.20000000657E+02 0.  0.
        -12    1    1    2    0    0 -0.34710634685E+02  0.21599526334E+02 -0.14568993214E+02  0.43400728811E+02  0.00000000000E+00 0.  1.
         11    1    3    3    0    0  0.41505572495E+01 -0.10298251966E+02  0.43482974304E+01  0.11924294941E+02  0.51100000000E-03 0. -1.
        -11    1    3    3    0    0  0.15287468956E+02 -0.41749686894E+00  0.21397614334E+01  0.15442136833E+02  0.51100000000E-03 0.  1.
         12    1    3    3    0    0  0.15272608480E+02 -0.10883777499E+02  0.80809343504E+01  0.20420839414E+02  0.00000000000E+00 0. -1.
</event>
<event>
 7    1  0.1400974E-009  0.4778727E+02  0.7816164E-02  0.1312668E+00
        -11   -1    0    0    0    0  0.00000000000E+00  0.00000000000E+00  0.45593999997E+02  0.45594000000E+02  0.51100000000E-03 0.  1.
         11   -1    0    0    0    0 -0.00000000000E+00 -0.00000000000E+00 -0.45593999997E+02  0.45594000000E+02  0.51100000000E-03 0. -1.
    9900012    2    1    2    0    0 -0.27518127353E+02  0.33549145532E+02 -0.91141884565E+00  0.47787272089E+02  0.20000004761E+02 0.  0.
        -12    1    1    2    0    0  0.27518127353E+02 -0.33549145532E+02  0.91141884565E+00  0.43400727911E+02  0.00000000000E+00 0.  1.
         11    1    3    3    0    0 -0.28683455908E+01  0.64699875053E+01  0.72455667610E+01  0.10128493604E+02  0.51100000000E-03 0.  1.
        -11    1    3    3    0    0 -0.89632723908E+01  0.12166482211E+02 -0.29385508686E+01  0.15394759589E+02  0.51100000000E-03 0. -1.
        -12    1    3    3    0    0 -0.15686509371E+02  0.14912675816E+02 -0.52184347380E+01  0.22264018895E+02  0.00000000000E+00 0.  1.
</event>
<event>
 7    1  0.1400974E-009  0.4778727E+02  0.7816164E-02  0.1312668E+00
        -11   -1    0    0    0    0  0.00000000000E+00  0.00000000000E+00  0.45593999997E+02  0.45594000000E+02  0.51100000000E-03 0. -1.
         11   -1    0    0    0    0 -0.00000000000E+00 -0.00000000000E+00 -0.45593999997E+02  0.45594000000E+02  0.51100000000E-03 0.  1.
    9900012    2    1    2    0    0  0.23476116805E+02 -0.19005583452E+02  0.31165410269E+02  0.47787273510E+02  0.20000011242E+02 0.  0.
        -12    1    1    2    0    0 -0.23476116805E+02  0.19005583452E+02 -0.31165410269E+02  0.43400726490E+02  0.00000000000E+00 0.  1.
         11    1    3    3    0    0  0.39516855143E+01  0.26443790667E+01  0.19157741796E+01  0.51262803299E+01  0.51100000000E-03 0.  1.
        -11    1    3    3    0    0  0.26063567530E+01 -0.94746158526E+01  0.63709698632E+01  0.11711135655E+02  0.51100000000E-03 0. -1.
        -12    1    3    3    0    0  0.16918074538E+02 -0.12175346666E+02  0.22878666226E+02  0.30949857525E+02  0.00000000000E+00 0.  1.
</event>
<event>
 7    1  0.1400974E-009  0.4778727E+02  0.7816164E-02  0.1312668E+00
        -11   -1    0    0    0    0  0.00000000000E+00  0.00000000000E+00  0.45593999997E+02  0.45594000000E+02  0.51100000000E-03 0. -1.
         11   -1    0    0    0    0 -0.00000000000E+00 -0.00000000000E+00 -0.45593999997E+02  0.45594000000E+02  0.51100000000E-03 0.  1.
    9900012    2    1    2    0    0 -0.12426128022E+02  0.33386000742E+02  0.24790916397E+02  0.47787271447E+02  0.20000001835E+02 0.  0.
        -12    1    1    2    0    0  0.12426128022E+02 -0.33386000742E+02 -0.24790916397E+02  0.43400728553E+02  0.00000000000E+00 0.  1.
         11    1    3    3    0    0  0.98851308477E+00  0.40054255265E+01  0.75857102470E+01  0.86350212495E+01  0.51100000000E-03 0.  1.
        -11    1    3    3    0    0 -0.89841761080E+01  0.24031828605E+02  0.66279972086E+01  0.26498576446E+02  0.51100000000E-03 0. -1.
         12    1    3    3    0    0 -0.44304649992E+01  0.53487466104E+01  0.10577208941E+02  0.12653673751E+02  0.00000000000E+00 0. -1.
</event>
<event>
 7    1  0.1400974E-009  0.4778727E+02  0.7816164E-02  0.1312668E+00
        -11   -1    0    0    0    0  0.00000000000E+00  0.00000000000E+00  0.45593999997E+02  0.45594000000E+02  0.51100000000E-03 0.  1.
         11   -1    0    0    0    0 -0.00000000000E+00 -0.00000000000E+00 -0.45593999997E+02  0.45594000000E+02  0.51100000000E-03 0. -1.
    9900012    2    1    2    0    0  0.28934184193E+02 -0.32348387552E+02  0.13525130208E+00  0.47787268611E+02  0.19999988906E+02 0.  0.
        -12    1    1    2    0    0 -0.28934184193E+02  0.32348387552E+02 -0.13525130208E+00  0.43400731389E+02  0.00000000000E+00 0.  1.
         11    1    3    3    0    0  0.61172270036E+01 -0.13807998803E+02  0.60847631278E+01  0.16282064972E+02  0.51100000000E-03 0. -1.
        -11    1    3    3    0    0  0.14678234964E+02 -0.16334199538E+02 -0.16037969801E+01  0.22018828789E+02  0.51100000000E-03 0.  1.
        -12    1    3    3    0    0  0.81387222253E+01 -0.22061892116E+01 -0.43457148456E+01  0.94863748512E+01  0.00000000000E+00 0.  1.
</event>
<event>
 7    1  0.1400974E-009  0.4778728E+02  0.7816164E-02  0.1312668E+00
        -11   -1    0    0    0    0  0.00000000000E+00  0.00000000000E+00  0.45593999997E+02  0.45594000000E+02  0.51100000000E-03 0.  1.
         11   -1    0    0    0    0 -0.00000000000E+00 -0.00000000000E+00 -0.45593999997E+02  0.45594000000E+02  0.51100000000E-03 0. -1.
    9900012    2    1    2    0    0  0.13453922614E+02  0.34440245537E+02 -0.22726281267E+02  0.47787281037E+02  0.20000045559E+02 0.  0.
        -12    1    1    2    0    0 -0.13453922614E+02 -0.34440245537E+02  0.22726281267E+02  0.43400718963E+02  0.00000000000E+00 0.  1.
         11    1    3    3    0    0  0.30000753910E+01  0.20906126370E+02 -0.13452948471E+02  0.25040934387E+02  0.51100000000E-03 0. -1.
        -11    1    3    3    0    0  0.40714240340E+01 -0.13489997254E+01 -0.47132563635E+00  0.43149092737E+01  0.51100000000E-03 0.  1.
         12    1    3    3    0    0  0.63824231890E+01  0.14883118892E+02 -0.88020071588E+01  0.18431437376E+02  0.00000000000E+00 0. -1.
</event>
<event>
 7    1  0.1400974E-009  0.4778727E+02  0.7816164E-02  0.1312668E+00
        -11   -1    0    0    0    0  0.00000000000E+00  0.00000000000E+00  0.45593999997E+02  0.45594000000E+02  0.51100000000E-03 0.  1.
         11   -1    0    0    0    0 -0.00000000000E+00 -0.00000000000E+00 -0.45593999997E+02  0.45594000000E+02  0.51100000000E-03 0. -1.
    9900012    2    1    2    0    0 -0.35522314314E+02  0.23687213458E+02 -0.77913141278E+01  0.47787268768E+02  0.19999989620E+02 0.  0.
        -12    1    1    2    0    0  0.35522314314E+02 -0.23687213458E+02  0.77913141278E+01  0.43400731232E+02  0.00000000000E+00 0.  1.
         11    1    3    3    0    0 -0.22423405937E+02  0.10850415991E+02 -0.64192827358E+01  0.25724460190E+02  0.51100000000E-03 0. -1.
        -11    1    3    3    0    0 -0.42895119260E+01  0.83127299217E+01 -0.60191873944E+01  0.11123489042E+02  0.51100000000E-03 0.  1.
        -12    1    3    3    0    0 -0.88093964514E+01  0.45240675458E+01  0.46471560025E+01  0.10939319536E+02  0.00000000000E+00 0.  1.
</event>
<event>
 7    1  0.1400974E-009  0.4778727E+02  0.7816164E-02  0.1312668E+00
        -11   -1    0    0    0    0  0.00000000000E+00  0.00000000000E+00  0.45593999997E+02  0.45594000000E+02  0.51100000000E-03 0. -1.
         11   -1    0    0    0    0 -0.00000000000E+00 -0.00000000000E+00 -0.45593999997E+02  0.45594000000E+02  0.51100000000E-03 0.  1.
    9900012    2    1    2    0    0 -0.24991496836E+02  0.30814018533E+02  0.17593874970E+02  0.47787273178E+02  0.20000009727E+02 0.  0.
        -12    1    1    2    0    0  0.24991496836E+02 -0.30814018533E+02 -0.17593874970E+02  0.43400726822E+02  0.00000000000E+00 0.  1.
         11    1    3    3    0    0 -0.12752323743E+02  0.65210330723E+01  0.88003773400E+01  0.16810481099E+02  0.51100000000E-03 0. -1.
        -11    1    3    3    0    0  0.20506954550E+01  0.32966665998E+01  0.30513179595E+01  0.49380060825E+01  0.51100000000E-03 0.  1.
         12    1    3    3    0    0 -0.14289868547E+02  0.20996318861E+02  0.57421796702E+01  0.26038785997E+02  0.00000000000E+00 0. -1.
</event>
<event>
 7    1  0.1400974E-009  0.4778727E+02  0.7816164E-02  0.1312668E+00
        -11   -1    0    0    0    0  0.00000000000E+00  0.00000000000E+00  0.45593999997E+02  0.45594000000E+02  0.51100000000E-03 0.  1.
         11   -1    0    0    0    0 -0.00000000000E+00 -0.00000000000E+00 -0.45593999997E+02  0.45594000000E+02  0.51100000000E-03 0. -1.
    9900012    2    1    2    0    0 -0.41655627404E+01 -0.30803628860E+02 -0.30288739441E+02  0.47787271886E+02  0.20000003836E+02 0.  0.
        -12    1    1    2    0    0  0.41655627404E+01  0.30803628860E+02  0.30288739441E+02  0.43400728114E+02  0.00000000000E+00 0.  1.
         11    1    3    3    0    0 -0.59698280954E+00  0.10529437488E+00 -0.57224948090E-01  0.60889271310E+00  0.51100000000E-03 0.  1.
        -11    1    3    3    0    0 -0.91810759296E+01 -0.71722145108E+01 -0.76389141894E+01  0.13931468927E+02  0.51100000000E-03 0. -1.
         12    1    3    3    0    0  0.56124959987E+01 -0.23736708724E+02 -0.22592600304E+02  0.33246910246E+02  0.00000000000E+00 0. -1.
</event>
<event>
 7    1  0.1400974E-009  0.4778728E+02  0.7816164E-02  0.1312668E+00
        -11   -1    0    0    0    0  0.00000000000E+00  0.00000000000E+00  0.45593999997E+02  0.45594000000E+02  0.51100000000E-03 0. -1.
         11   -1    0    0    0    0 -0.00000000000E+00 -0.00000000000E+00 -0.45593999997E+02  0.45594000000E+02  0.51100000000E-03 0.  1.
    9900012    2    1    2    0    0  0.16868842217E+02  0.24080393887E+02  0.31924902564E+02  0.47787278678E+02  0.20000034806E+02 0.  0.
        -12    1    1    2    0    0 -0.16868842217E+02 -0.24080393887E+02 -0.31924902564E+02  0.43400721322E+02  0.00000000000E+00 0.  1.
         11    1    3    3    0    0  0.48293169081E+01  0.83062446527E+01  0.33798860066E+01  0.10185265422E+02  0.51100000000E-03 0.  1.
        -11    1    3    3    0    0  0.45120612069E+01  0.78128434683E+00  0.10241393490E+00  0.45803482881E+01  0.51100000000E-03 0. -1.
         12    1    3    3    0    0  0.75274641024E+01  0.14992864888E+02  0.28442602622E+02  0.33021664969E+02  0.00000000000E+00 0. -1.
</event>
<event>
 7    1  0.1400974E-009  0.4778728E+02  0.7816164E-02  0.1312668E+00
        -11   -1    0    0    0    0  0.00000000000E+00  0.00000000000E+00  0.45593999997E+02  0.45594000000E+02  0.51100000000E-03 0.  1.
         11   -1    0    0    0    0 -0.00000000000E+00 -0.00000000000E+00 -0.45593999997E+02  0.45594000000E+02  0.51100000000E-03 0. -1.
    9900012    2    1    2    0    0  0.43228660098E+02  0.30277178945E+01  0.23955669799E+01  0.47787275690E+02  0.20000021179E+02 0.  0.
        -12    1    1    2    0    0 -0.43228660098E+02 -0.30277178945E+01 -0.23955669799E+01  0.43400724310E+02  0.00000000000E+00 0.  1.
         11    1    3    3    0    0  0.28330817645E+02  0.80705980679E+01  0.44679425618E+01  0.29794836677E+02  0.51100000000E-03 0. -1.
        -11    1    3    3    0    0 -0.97378570268E+00  0.31002994663E-01 -0.83586861597E+00  0.12837041656E+01  0.51100000000E-03 0.  1.
         12    1    3    3    0    0  0.15871628156E+02 -0.50738831681E+01 -0.12365069660E+01  0.16708734847E+02  0.00000000000E+00 0. -1.
</event>
<event>
 7    1  0.1400974E-009  0.4778727E+02  0.7816164E-02  0.1312668E+00
        -11   -1    0    0    0    0  0.00000000000E+00  0.00000000000E+00  0.45593999997E+02  0.45594000000E+02  0.51100000000E-03 0. -1.
         11   -1    0    0    0    0 -0.00000000000E+00 -0.00000000000E+00 -0.45593999997E+02  0.45594000000E+02  0.51100000000E-03 0.  1.
    9900012    2    1    2    0    0  0.33105983736E+02  0.18474478062E+02  0.21126073297E+02  0.47787268765E+02  0.19999989608E+02 0.  0.
        -12    1    1    2    0    0 -0.33105983736E+02 -0.18474478062E+02 -0.21126073297E+02  0.43400731235E+02  0.00000000000E+00 0.  1.
         11    1    3    3    0    0  0.18466630373E+02  0.76472405789E+01  0.86500014173E+01  0.21778871656E+02  0.51100000000E-03 0. -1.
        -11    1    3    3    0    0  0.16071987071E+02  0.12534332539E+02  0.12221859470E+02  0.23765355241E+02  0.51100000000E-03 0.  1.
        -12    1    3    3    0    0 -0.14326337081E+01 -0.17070950561E+01  0.25421240970E+00  0.22430418680E+01  0.00000000000E+00 0.  1.
</event>
<event>
 7    1  0.1400974E-009  0.4778721E+02  0.7816164E-02  0.1312668E+00
        -11   -1    0    0    0    0  0.00000000000E+00  0.00000000000E+00  0.45593999997E+02  0.45594000000E+02  0.51100000000E-03 0. -1.
         11   -1    0    0    0    0 -0.00000000000E+00 -0.00000000000E+00 -0.45593999997E+02  0.45594000000E+02  0.51100000000E-03 0.  1.
    9900012    2    1    2    0    0 -0.20410694501E+02 -0.69140533586E+01  0.37672643580E+02  0.47787209014E+02  0.19999717177E+02 0.  0.
        -12    1    1    2    0    0  0.20410694501E+02  0.69140533586E+01 -0.37672643580E+02  0.43400790986E+02  0.00000000000E+00 0.  1.
         11    1    3    3    0    0  0.21125626745E+01 -0.27014587131E+01  0.27184420272E+01  0.43761544247E+01  0.51100000000E-03 0. -1.
        -11    1    3    3    0    0 -0.10421184731E+01 -0.15878396250E+01 -0.41726461361E+00  0.19445708024E+01  0.51100000000E-03 0.  1.
        -12    1    3    3    0    0 -0.21481138702E+02 -0.26247550205E+01  0.35371466167E+02  0.41466483787E+02  0.00000000000E+00 0.  1.
</event>
<event>
 7    1  0.1400974E-009  0.4778726E+02  0.7816164E-02  0.1312668E+00
        -11   -1    0    0    0    0  0.00000000000E+00  0.00000000000E+00  0.45593999997E+02  0.45594000000E+02  0.51100000000E-03 0. -1.
         11   -1    0    0    0    0 -0.00000000000E+00 -0.00000000000E+00 -0.45593999997E+02  0.45594000000E+02  0.51100000000E-03 0.  1.
    9900012    2    1    2    0    0  0.41538967313E+02 -0.73431369211E+01  0.10208674998E+02  0.47787256798E+02  0.19999935044E+02 0.  0.
        -12    1    1    2    0    0 -0.41538967313E+02  0.73431369211E+01 -0.10208674998E+02  0.43400743202E+02  0.00000000000E+00 0.  1.
         11    1    3    3    0    0  0.23062881120E+02  0.70374376685E+00  0.14368345058E+02  0.27181631312E+02  0.51100000000E-03 0. -1.
        -11    1    3    3    0    0  0.58017213983E+01 -0.26598648673E+01 -0.82061590394E+00  0.64349252536E+01  0.51100000000E-03 0.  1.
         12    1    3    3    0    0  0.12674364795E+02 -0.53870158206E+01 -0.33390541557E+01  0.14170700232E+02  0.00000000000E+00 0. -1.
</event>
<event>
 7    1  0.1400974E-009  0.4778727E+02  0.7816164E-02  0.1312668E+00
        -11   -1    0    0    0    0  0.00000000000E+00  0.00000000000E+00  0.45593999997E+02  0.45594000000E+02  0.51100000000E-03 0.  1.
         11   -1    0    0    0    0 -0.00000000000E+00 -0.00000000000E+00 -0.45593999997E+02  0.45594000000E+02  0.51100000000E-03 0. -1.
    9900012    2    1    2    0    0 -0.40826605254E+02 -0.74206452336E+01  0.12717943290E+02  0.47787265516E+02  0.19999974794E+02 0.  0.
        -12    1    1    2    0    0  0.40826605254E+02  0.74206452336E+01 -0.12717943290E+02  0.43400734484E+02  0.00000000000E+00 0.  1.
         11    1    3    3    0    0 -0.18846565719E+02 -0.12082387053E+02  0.10844738536E+02  0.24875398901E+02  0.51100000000E-03 0. -1.
        -11    1    3    3    0    0 -0.13391454377E+02  0.87083635577E+00  0.16541241437E+01  0.13521299243E+02  0.51100000000E-03 0.  1.
         12    1    3    3    0    0 -0.85885851576E+01  0.37909054639E+01  0.21908060956E+00  0.93905673715E+01  0.00000000000E+00 0. -1.
</event>
<event>
 7    1  0.1400974E-009  0.4778727E+02  0.7816164E-02  0.1312668E+00
        -11   -1    0    0    0    0  0.00000000000E+00  0.00000000000E+00  0.45593999997E+02  0.45594000000E+02  0.51100000000E-03 0.  1.
         11   -1    0    0    0    0 -0.00000000000E+00 -0.00000000000E+00 -0.45593999997E+02  0.45594000000E+02  0.51100000000E-03 0. -1.
    9900012    2    1    2    0    0  0.22205943446E+02  0.17068024049E+01 -0.37250591679E+02  0.47787266374E+02  0.19999978708E+02 0.  0.
        -12    1    1    2    0    0 -0.22205943446E+02 -0.17068024049E+01  0.37250591679E+02  0.43400733626E+02  0.00000000000E+00 0.  1.
         11    1    3    3    0    0  0.86973089182E+01  0.22302697364E+01 -0.79501803242E+01  0.11992608264E+02  0.51100000000E-03 0. -1.
        -11    1    3    3    0    0  0.24638739185E+01 -0.67886510185E+01 -0.65967506529E+01  0.97812870715E+01  0.51100000000E-03 0.  1.
         12    1    3    3    0    0  0.11044760610E+02  0.62651836870E+01 -0.22703660702E+02  0.26013371039E+02  0.00000000000E+00 0. -1.
</event>
<event>
 7    1  0.1400974E-009  0.4778729E+02  0.7816164E-02  0.1312668E+00
        -11   -1    0    0    0    0  0.00000000000E+00  0.00000000000E+00  0.45593999997E+02  0.45594000000E+02  0.51100000000E-03 0. -1.
         11   -1    0    0    0    0 -0.00000000000E+00 -0.00000000000E+00 -0.45593999997E+02  0.45594000000E+02  0.51100000000E-03 0.  1.
    9900012    2    1    2    0    0  0.32939810561E+02  0.56805241248E+01  0.27682524906E+02  0.47787289645E+02  0.20000084808E+02 0.  0.
        -12    1    1    2    0    0 -0.32939810561E+02 -0.56805241248E+01 -0.27682524906E+02  0.43400710355E+02  0.00000000000E+00 0.  1.
         11    1    3    3    0    0  0.13257926054E+02  0.16404471858E+01  0.17886231806E+02  0.22324447556E+02  0.51100000000E-03 0. -1.
        -11    1    3    3    0    0  0.17162400235E+01  0.52236240072E+01  0.23091752725E+01  0.59635575194E+01  0.51100000000E-03 0.  1.
         12    1    3    3    0    0  0.17965644483E+02 -0.11835470682E+01  0.74871178282E+01  0.19499284569E+02  0.00000000000E+00 0. -1.
</event>
<event>
 7    1  0.1400974E-009  0.4778727E+02  0.7816164E-02  0.1312668E+00
        -11   -1    0    0    0    0  0.00000000000E+00  0.00000000000E+00  0.45593999997E+02  0.45594000000E+02  0.51100000000E-03 0. -1.
         11   -1    0    0    0    0 -0.00000000000E+00 -0.00000000000E+00 -0.45593999997E+02  0.45594000000E+02  0.51100000000E-03 0.  1.
    9900012    2    1    2    0    0  0.17582685774E+02  0.93307953887E+01  0.38566940630E+02  0.47787268541E+02  0.19999988586E+02 0.  0.
        -12    1    1    2    0    0 -0.17582685774E+02 -0.93307953887E+01 -0.38566940630E+02  0.43400731459E+02  0.00000000000E+00 0.  1.
         11    1    3    3    0    0  0.10840366983E+02 -0.11398530186E+00  0.26467297011E+02  0.28601474792E+02  0.51100000000E-03 0. -1.
        -11    1    3    3    0    0  0.71157454186E+01  0.90581340910E+01  0.13464216971E+02  0.17719163778E+02  0.51100000000E-03 0.  1.
        -12    1    3    3    0    0 -0.37342662812E+00  0.38664659959E+00 -0.13645733517E+01  0.14666299710E+01  0.00000000000E+00 0.  1.
</event>
<event>
 7    1  0.1400974E-009  0.4778727E+02  0.7816164E-02  0.1312668E+00
        -11   -1    0    0    0    0  0.00000000000E+00  0.00000000000E+00  0.45593999997E+02  0.45594000000E+02  0.51100000000E-03 0.  1.
         11   -1    0    0    0    0 -0.00000000000E+00 -0.00000000000E+00 -0.45593999997E+02  0.45594000000E+02  0.51100000000E-03 0. -1.
    9900012    2    1    2    0    0 -0.20225320606E+02 -0.30856037886E+02 -0.22857479581E+02  0.47787273734E+02  0.20000012262E+02 0.  0.
        -12    1    1    2    0    0  0.20225320606E+02  0.30856037886E+02  0.22857479581E+02  0.43400726266E+02  0.00000000000E+00 0.  1.
         11    1    3    3    0    0  0.27141117916E+01 -0.70782954567E+00 -0.24627588201E+01  0.37326407207E+01  0.51100000000E-03 0. -1.
        -11    1    3    3    0    0 -0.20063140327E+01 -0.42051169621E+01  0.54079366411E+00  0.46904970643E+01  0.51100000000E-03 0.  1.
        -12    1    3    3    0    0 -0.20933118365E+02 -0.25943091378E+02 -0.20935514425E+02  0.39364135949E+02  0.00000000000E+00 0.  1.
</event>
<event>
 7    1  0.1400974E-009  0.4778727E+02  0.7816164E-02  0.1312668E+00
        -11   -1    0    0    0    0  0.00000000000E+00  0.00000000000E+00  0.45593999997E+02  0.45594000000E+02  0.51100000000E-03 0.  1.
         11   -1    0    0    0    0 -0.00000000000E+00 -0.00000000000E+00 -0.45593999997E+02  0.45594000000E+02  0.51100000000E-03 0. -1.
    9900012    2    1    2    0    0  0.28962883619E+02 -0.28552060791E+02  0.15151051775E+02  0.47787272209E+02  0.20000005310E+02 0.  0.
        -12    1    1    2    0    0 -0.28962883619E+02  0.28552060791E+02 -0.15151051775E+02  0.43400727791E+02  0.00000000000E+00 0.  1.
         11    1    3    3    0    0  0.42678999180E+00 -0.57796081608E+01  0.14817863118E+01  0.59817816012E+01  0.51100000000E-03 0. -1.
        -11    1    3    3    0    0  0.13972647829E+02 -0.24812181489E+01  0.23531585528E+01  0.14385016034E+02  0.51100000000E-03 0.  1.
         12    1    3    3    0    0  0.14563445798E+02 -0.20291234481E+02  0.11316106910E+02  0.27420474574E+02  0.00000000000E+00 0. -1.
</event>
<event>
 7    1  0.1400974E-009  0.4778724E+02  0.7816164E-02  0.1312668E+00
        -11   -1    0    0    0    0  0.00000000000E+00  0.00000000000E+00  0.45593999997E+02  0.45594000000E+02  0.51100000000E-03 0. -1.
         11   -1    0    0    0    0 -0.00000000000E+00 -0.00000000000E+00 -0.45593999997E+02  0.45594000000E+02  0.51100000000E-03 0.  1.
    9900012    2    1    2    0    0  0.30149020138E+02  0.29931106975E+02  0.88764634515E+01  0.47787237525E+02  0.19999847171E+02 0.  0.
        -12    1    1    2    0    0 -0.30149020138E+02 -0.29931106975E+02 -0.88764634515E+01  0.43400762475E+02  0.00000000000E+00 0.  1.
         11    1    3    3    0    0  0.10640673805E+02  0.16056245244E+02 -0.25476679211E+00  0.19263744619E+02  0.51100000000E-03 0. -1.
        -11    1    3    3    0    0  0.43409653679E+01  0.46639683353E+01 -0.29853462017E+01  0.70362541997E+01  0.51100000000E-03 0.  1.
        -12    1    3    3    0    0  0.15167380965E+02  0.92108933955E+01  0.12116576445E+02  0.21487238707E+02  0.00000000000E+00 0.  1.
</event>
<event>
 7    1  0.1400974E-009  0.4778727E+02  0.7816164E-02  0.1312668E+00
        -11   -1    0    0    0    0  0.00000000000E+00  0.00000000000E+00  0.45593999997E+02  0.45594000000E+02  0.51100000000E-03 0. -1.
         11   -1    0    0    0    0 -0.00000000000E+00 -0.00000000000E+00 -0.45593999997E+02  0.45594000000E+02  0.51100000000E-03 0.  1.
    9900012    2    1    2    0    0  0.22256842839E+02  0.34948631391E+02  0.12917027042E+02  0.47787268706E+02  0.19999989336E+02 0.  0.
        -12    1    1    2    0    0 -0.22256842839E+02 -0.34948631391E+02 -0.12917027042E+02  0.43400731294E+02  0.00000000000E+00 0.  1.
         11    1    3    3    0    0  0.90945993692E+01  0.82722698038E+01  0.40512370023E+01  0.12944292445E+02  0.51100000000E-03 0. -1.
        -11    1    3    3    0    0  0.43533249287E+00  0.17695246419E+02  0.74416048616E+01  0.19201269317E+02  0.51100000000E-03 0.  1.
        -12    1    3    3    0    0  0.12726910977E+02  0.89811151682E+01  0.14241851783E+01  0.15641706943E+02  0.00000000000E+00 0.  1.
</event>
<event>
 7    1  0.1400974E-009  0.4778727E+02  0.7816164E-02  0.1312668E+00
        -11   -1    0    0    0    0  0.00000000000E+00  0.00000000000E+00  0.45593999997E+02  0.45594000000E+02  0.51100000000E-03 0. -1.
         11   -1    0    0    0    0 -0.00000000000E+00 -0.00000000000E+00 -0.45593999997E+02  0.45594000000E+02  0.51100000000E-03 0.  1.
    9900012    2    1    2    0    0 -0.61733295984E+01 -0.38089391484E+02  0.19867343131E+02  0.47787273450E+02  0.20000010967E+02 0.  0.
        -12    1    1    2    0    0  0.61733295984E+01  0.38089391484E+02 -0.19867343131E+02  0.43400726550E+02  0.00000000000E+00 0.  1.
         11    1    3    3    0    0 -0.13057452025E+01 -0.26018494045E+02  0.11464878193E+02  0.28462439023E+02  0.51100000000E-03 0. -1.
        -11    1    3    3    0    0 -0.52817528785E+01 -0.42051449127E+01 -0.12504028406E+01  0.68661244332E+01  0.51100000000E-03 0.  1.
         12    1    3    3    0    0  0.41416848268E+00 -0.78657525266E+01  0.96528677794E+01  0.12458709994E+02  0.00000000000E+00 0. -1.
</event>
<event>
 7    1  0.1400974E-009  0.4778726E+02  0.7816164E-02  0.1312668E+00
        -11   -1    0    0    0    0  0.00000000000E+00  0.00000000000E+00  0.45593999997E+02  0.45594000000E+02  0.51100000000E-03 0. -1.
         11   -1    0    0    0    0 -0.00000000000E+00 -0.00000000000E+00 -0.45593999997E+02  0.45594000000E+02  0.51100000000E-03 0.  1.
    9900012    2    1    2    0    0  0.17925539115E+02  0.38553997224E+02 -0.87114006195E+01  0.47787260890E+02  0.19999953704E+02 0.  0.
        -12    1    1    2    0    0 -0.17925539115E+02 -0.38553997224E+02  0.87114006195E+01  0.43400739110E+02  0.00000000000E+00 0.  1.
         11    1    3    3    0    0  0.46767382057E+01  0.16991660138E+02 -0.86743451128E+01  0.19642623498E+02  0.51100000000E-03 0. -1.
        -11    1    3    3    0    0  0.14705030026E+02  0.20424051073E+02 -0.22428984244E+01  0.25266783806E+02  0.51100000000E-03 0.  1.
         12    1    3    3    0    0 -0.14562291168E+01  0.11382860132E+01  0.22058429176E+01  0.28778535866E+01  0.00000000000E+00 0. -1.
</event>
<event>
 7    1  0.1400974E-009  0.4778727E+02  0.7816164E-02  0.1312668E+00
        -11   -1    0    0    0    0  0.00000000000E+00  0.00000000000E+00  0.45593999997E+02  0.45594000000E+02  0.51100000000E-03 0.  1.
         11   -1    0    0    0    0 -0.00000000000E+00 -0.00000000000E+00 -0.45593999997E+02  0.45594000000E+02  0.51100000000E-03 0. -1.
    9900012    2    1    2    0    0  0.18221010963E+01 -0.25867785104E+02 -0.34801740226E+02  0.47787268654E+02  0.19999989102E+02 0.  0.
        -12    1    1    2    0    0 -0.18221010963E+01  0.25867785104E+02  0.34801740226E+02  0.43400731346E+02  0.00000000000E+00 0.  1.
         11    1    3    3    0    0 -0.12101537964E+01  0.83062471846E+00 -0.43178352155E+01  0.45604945831E+01  0.51100000000E-03 0.  1.
        -11    1    3    3    0    0  0.79000448378E+01 -0.23148432194E+02 -0.22579135881E+02  0.33287805558E+02  0.51100000000E-03 0. -1.
         12    1    3    3    0    0 -0.48677899451E+01 -0.35499776281E+01 -0.79047691299E+01  0.99389685132E+01  0.00000000000E+00 0. -1.
</event>
<event>
 7    1  0.1400974E-009  0.4778727E+02  0.7816164E-02  0.1312668E+00
        -11   -1    0    0    0    0  0.00000000000E+00  0.00000000000E+00  0.45593999997E+02  0.45594000000E+02  0.51100000000E-03 0.  1.
         11   -1    0    0    0    0 -0.00000000000E+00 -0.00000000000E+00 -0.45593999997E+02  0.45594000000E+02  0.51100000000E-03 0. -1.
    9900012    2    1    2    0    0 -0.21028437501E+02  0.36053102699E+02 -0.11899646119E+02  0.47787274479E+02  0.20000015660E+02 0.  0.
        -12    1    1    2    0    0  0.21028437501E+02 -0.36053102699E+02  0.11899646119E+02  0.43400725521E+02  0.00000000000E+00 0.  1.
         11    1    3    3    0    0 -0.10083653277E+02  0.15369788455E+02 -0.29182817860E+01  0.18612544947E+02  0.51100000000E-03 0. -1.
        -11    1    3    3    0    0 -0.70344327663E+00 -0.12018690475E+01 -0.43558800414E+01  0.45730747694E+01  0.51100000000E-03 0.  1.
        -12    1    3    3    0    0 -0.10241340947E+02  0.21885183292E+02 -0.46254842916E+01  0.24601654763E+02  0.00000000000E+00 0.  1.
</event>
<event>
 7    1  0.1400974E-009  0.4778727E+02  0.7816164E-02  0.1312668E+00
        -11   -1    0    0    0    0  0.00000000000E+00  0.00000000000E+00  0.45593999997E+02  0.45594000000E+02  0.51100000000E-03 0. -1.
         11   -1    0    0    0    0 -0.00000000000E+00 -0.00000000000E+00 -0.45593999997E+02  0.45594000000E+02  0.51100000000E-03 0.  1.
    9900012    2    1    2    0    0 -0.49804948303E+01 -0.43017160198E+02 -0.28882740875E+01  0.47787268123E+02  0.19999986681E+02 0.  0.
        -12    1    1    2    0    0  0.49804948303E+01  0.43017160198E+02  0.28882740875E+01  0.43400731877E+02  0.00000000000E+00 0.  1.
         11    1    3    3    0    0  0.30719659651E+01 -0.17577879147E+02  0.47856828276E+01  0.18474890272E+02  0.51100000000E-03 0. -1.
        -11    1    3    3    0    0 -0.94411476747E+00  0.66819413504E+00  0.96992319034E-01  0.11607083472E+01  0.51100000000E-03 0.  1.
        -12    1    3    3    0    0 -0.71083460279E+01 -0.26107475186E+02 -0.77709492341E+01  0.28151669504E+02  0.00000000000E+00 0.  1.
</event>
<event>
 7    1  0.1400974E-009  0.4778727E+02  0.7816164E-02  0.1312668E+00
        -11   -1    0    0    0    0  0.00000000000E+00  0.00000000000E+00  0.45593999997E+02  0.45594000000E+02  0.51100000000E-03 0.  1.
         11   -1    0    0    0    0 -0.00000000000E+00 -0.00000000000E+00 -0.45593999997E+02  0.45594000000E+02  0.51100000000E-03 0. -1.
    9900012    2    1    2    0    0  0.51201543331E+01  0.42842206932E+02  0.46853918839E+01  0.47787267606E+02  0.19999984323E+02 0.  0.
        -12    1    1    2    0    0 -0.51201543331E+01 -0.42842206932E+02 -0.46853918839E+01  0.43400732394E+02  0.00000000000E+00 0.  1.
         11    1    3    3    0    0  0.78417406582E+01  0.34741995909E+02  0.48865308035E+01  0.35949650344E+02  0.51100000000E-03 0. -1.
        -11    1    3    3    0    0  0.23189895709E+01  0.55124186873E-01 -0.33010699952E+00  0.23430156206E+01  0.51100000000E-03 0.  1.
         12    1    3    3    0    0 -0.50405758960E+01  0.80450868359E+01  0.12896807987E+00  0.94946016413E+01  0.00000000000E+00 0. -1.
</event>
<event>
 7    1  0.1400974E-009  0.4778727E+02  0.7816164E-02  0.1312668E+00
        -11   -1    0    0    0    0  0.00000000000E+00  0.00000000000E+00  0.45593999997E+02  0.45594000000E+02  0.51100000000E-03 0. -1.
         11   -1    0    0    0    0 -0.00000000000E+00 -0.00000000000E+00 -0.45593999997E+02  0.45594000000E+02  0.51100000000E-03 0.  1.
    9900012    2    1    2    0    0 -0.99668536052E+01  0.25670978413E+02  0.33545282151E+02  0.47787271227E+02  0.20000000830E+02 0.  0.
        -12    1    1    2    0    0  0.99668536052E+01 -0.25670978413E+02 -0.33545282151E+02  0.43400728773E+02  0.00000000000E+00 0.  1.
         11    1    3    3    0    0 -0.64456146067E+01  0.78754692061E+01  0.75273751618E+01  0.12658212353E+02  0.51100000000E-03 0. -1.
        -11    1    3    3    0    0 -0.80147015230E+01  0.46066329035E+01  0.72162565654E+01  0.11727355469E+02  0.51100000000E-03 0.  1.
         12    1    3    3    0    0  0.44934625244E+01  0.13188876303E+02  0.18801650424E+02  0.23401703405E+02  0.00000000000E+00 0. -1.
</event>
<event>
 7    1  0.1400974E-009  0.4778727E+02  0.7816164E-02  0.1312668E+00
        -11   -1    0    0    0    0  0.00000000000E+00  0.00000000000E+00  0.45593999997E+02  0.45594000000E+02  0.51100000000E-03 0.  1.
         11   -1    0    0    0    0 -0.00000000000E+00 -0.00000000000E+00 -0.45593999997E+02  0.45594000000E+02  0.51100000000E-03 0. -1.
    9900012    2    1    2    0    0  0.16360939877E+02  0.50892827321E+01 -0.39875331684E+02  0.47787271558E+02  0.20000002344E+02 0.  0.
        -12    1    1    2    0    0 -0.16360939877E+02 -0.50892827321E+01  0.39875331684E+02  0.43400728442E+02  0.00000000000E+00 0.  1.
         11    1    3    3    0    0  0.92442522542E+01  0.33727787507E+01 -0.21216759999E+02  0.23387662161E+02  0.51100000000E-03 0. -1.
        -11    1    3    3    0    0  0.68514574962E+01  0.10022928912E+01 -0.20907931024E+02  0.22024727940E+02  0.51100000000E-03 0.  1.
        -12    1    3    3    0    0  0.26523012631E+00  0.71421109026E+00  0.22493593392E+01  0.23748814577E+01  0.00000000000E+00 0.  1.
</event>
<event>
 7    1  0.1400974E-009  0.4778727E+02  0.7816164E-02  0.1312668E+00
        -11   -1    0    0    0    0  0.00000000000E+00  0.00000000000E+00  0.45593999997E+02  0.45594000000E+02  0.51100000000E-03 0.  1.
         11   -1    0    0    0    0 -0.00000000000E+00 -0.00000000000E+00 -0.45593999997E+02  0.45594000000E+02  0.51100000000E-03 0. -1.
    9900012    2    1    2    0    0  0.86785207862E+01 -0.32872238752E+02 -0.26976338537E+02  0.47787266775E+02  0.19999980534E+02 0.  0.
        -12    1    1    2    0    0 -0.86785207862E+01  0.32872238752E+02  0.26976338537E+02  0.43400733225E+02  0.00000000000E+00 0.  1.
         11    1    3    3    0    0  0.40672468915E+00 -0.61698324503E+01 -0.12705402608E+01  0.63124108115E+01  0.51100000000E-03 0.  1.
        -11    1    3    3    0    0  0.97359165743E+01 -0.14298615974E+02 -0.63259237587E+01  0.18418897958E+02  0.51100000000E-03 0. -1.
         12    1    3    3    0    0 -0.14641204773E+01 -0.12403790328E+02 -0.19379874517E+02  0.23055958006E+02  0.00000000000E+00 0. -1.
</event>
<event>
 7    1  0.1400974E-009  0.4778729E+02  0.7816164E-02  0.1312668E+00
        -11   -1    0    0    0    0  0.00000000000E+00  0.00000000000E+00  0.45593999997E+02  0.45594000000E+02  0.51100000000E-03 0.  1.
         11   -1    0    0    0    0 -0.00000000000E+00 -0.00000000000E+00 -0.45593999997E+02  0.45594000000E+02  0.51100000000E-03 0. -1.
    9900012    2    1    2    0    0  0.19290304430E+02 -0.30373387050E+02 -0.24268557847E+02  0.47787292796E+02  0.20000099172E+02 0.  0.
        -12    1    1    2    0    0 -0.19290304430E+02  0.30373387050E+02  0.24268557847E+02  0.43400707204E+02  0.00000000000E+00 0.  1.
         11    1    3    3    0    0  0.11940946001E+02 -0.13707316562E+02 -0.13903057697E+02  0.22886059781E+02  0.51100000000E-03 0. -1.
        -11    1    3    3    0    0 -0.70890465902E+00 -0.85999179700E+01 -0.10381539256E+02  0.13499536751E+02  0.51100000000E-03 0.  1.
        -12    1    3    3    0    0  0.80582630882E+01 -0.80661525178E+01  0.16039105197E-01  0.11401696264E+02  0.00000000000E+00 0.  1.
</event>
<event>
 7    1  0.1400974E-009  0.4778727E+02  0.7816164E-02  0.1312668E+00
        -11   -1    0    0    0    0  0.00000000000E+00  0.00000000000E+00  0.45593999997E+02  0.45594000000E+02  0.51100000000E-03 0.  1.
         11   -1    0    0    0    0 -0.00000000000E+00 -0.00000000000E+00 -0.45593999997E+02  0.45594000000E+02  0.51100000000E-03 0. -1.
    9900012    2    1    2    0    0 -0.14790886109E+02  0.10440119715E+02 -0.39444349212E+02  0.47787273090E+02  0.20000009328E+02 0.  0.
        -12    1    1    2    0    0  0.14790886109E+02 -0.10440119715E+02  0.39444349212E+02  0.43400726910E+02  0.00000000000E+00 0.  1.
         11    1    3    3    0    0 -0.30217998915E+01  0.40436932236E+01 -0.22769860735E+02  0.23322720417E+02  0.51100000000E-03 0. -1.
        -11    1    3    3    0    0  0.17956179873E+01  0.10260093302E+01 -0.61142193839E+01  0.64545037019E+01  0.51100000000E-03 0.  1.
         12    1    3    3    0    0 -0.13564704205E+02  0.53704171610E+01 -0.10560269092E+02  0.18010048972E+02  0.00000000000E+00 0. -1.
</event>
<event>
 7    1  0.1400974E-009  0.4778727E+02  0.7816164E-02  0.1312668E+00
        -11   -1    0    0    0    0  0.00000000000E+00  0.00000000000E+00  0.45593999997E+02  0.45594000000E+02  0.51100000000E-03 0.  1.
         11   -1    0    0    0    0 -0.00000000000E+00 -0.00000000000E+00 -0.45593999997E+02  0.45594000000E+02  0.51100000000E-03 0. -1.
    9900012    2    1    2    0    0 -0.33773573384E+01 -0.36624406738E+02 -0.23040605450E+02  0.47787271768E+02  0.20000003301E+02 0.  0.
        -12    1    1    2    0    0  0.33773573384E+01  0.36624406738E+02  0.23040605450E+02  0.43400728232E+02  0.00000000000E+00 0.  1.
         11    1    3    3    0    0  0.15998851901E+01 -0.75118812083E+00 -0.47712333233E+00  0.18307274919E+01  0.51100000000E-03 0. -1.
        -11    1    3    3    0    0 -0.54302245679E+01 -0.51594560773E+01  0.55604148951E+00  0.75110923487E+01  0.51100000000E-03 0.  1.
         12    1    3    3    0    0  0.45298203939E+00 -0.30713762540E+02 -0.23119523607E+02  0.38445451928E+02  0.00000000000E+00 0. -1.
</event>
<event>
 7    1  0.1400974E-009  0.4778727E+02  0.7816164E-02  0.1312668E+00
        -11   -1    0    0    0    0  0.00000000000E+00  0.00000000000E+00  0.45593999997E+02  0.45594000000E+02  0.51100000000E-03 0. -1.
         11   -1    0    0    0    0 -0.00000000000E+00 -0.00000000000E+00 -0.45593999997E+02  0.45594000000E+02  0.51100000000E-03 0.  1.
    9900012    2    1    2    0    0 -0.34678052247E+01 -0.26961575005E+00  0.43261125541E+02  0.47787270181E+02  0.19999996064E+02 0.  0.
        -12    1    1    2    0    0  0.34678052247E+01  0.26961575005E+00 -0.43261125541E+02  0.43400729819E+02  0.00000000000E+00 0.  1.
         11    1    3    3    0    0  0.10852046904E+01 -0.34017220148E+01  0.11870024075E+00  0.35726001587E+01  0.51100000000E-03 0. -1.
        -11    1    3    3    0    0 -0.48194556910E+01 -0.94206581891E+00  0.15148290627E+02  0.15924363421E+02  0.51100000000E-03 0.  1.
         12    1    3    3    0    0  0.26644577591E+00  0.40741720836E+01  0.27994134673E+02  0.28290306602E+02  0.00000000000E+00 0. -1.
</event>
<event>
 7    1  0.1400974E-009  0.4778727E+02  0.7816164E-02  0.1312668E+00
        -11   -1    0    0    0    0  0.00000000000E+00  0.00000000000E+00  0.45593999997E+02  0.45594000000E+02  0.51100000000E-03 0.  1.
         11   -1    0    0    0    0 -0.00000000000E+00 -0.00000000000E+00 -0.45593999997E+02  0.45594000000E+02  0.51100000000E-03 0. -1.
    9900012    2    1    2    0    0  0.16923835133E+02  0.22304701059E+02 -0.33161831804E+02  0.47787274505E+02  0.20000015778E+02 0.  0.
        -12    1    1    2    0    0 -0.16923835133E+02 -0.22304701059E+02  0.33161831804E+02  0.43400725495E+02  0.00000000000E+00 0.  1.
         11    1    3    3    0    0  0.71472248909E+01  0.75175601147E+01 -0.53123326536E+01  0.11654072773E+02  0.51100000000E-03 0. -1.
        -11    1    3    3    0    0  0.40085960043E+01  0.39072991608E+00 -0.16316137871E+02  0.16805887870E+02  0.51100000000E-03 0.  1.
         12    1    3    3    0    0  0.57680142373E+01  0.14396411028E+02 -0.11533361279E+02  0.19327313862E+02  0.00000000000E+00 0. -1.
</event>
<event>
 7    1  0.1400974E-009  0.4778728E+02  0.7816164E-02  0.1312668E+00
        -11   -1    0    0    0    0  0.00000000000E+00  0.00000000000E+00  0.45593999997E+02  0.45594000000E+02  0.51100000000E-03 0.  1.
         11   -1    0    0    0    0 -0.00000000000E+00 -0.00000000000E+00 -0.45593999997E+02  0.45594000000E+02  0.51100000000E-03 0. -1.
    9900012    2    1    2    0    0  0.26807849047E+02 -0.20295905064E+02 -0.27441540173E+02  0.47787278117E+02  0.20000032245E+02 0.  0.
        -12    1    1    2    0    0 -0.26807849047E+02  0.20295905064E+02  0.27441540173E+02  0.43400721883E+02  0.00000000000E+00 0.  1.
         11    1    3    3    0    0  0.10990092259E+02 -0.85563664656E+01 -0.13247573866E+02  0.19222168154E+02  0.51100000000E-03 0. -1.
        -11    1    3    3    0    0  0.75430123206E+01  0.39107031408E+00  0.77922981594E+00  0.75932318697E+01  0.51100000000E-03 0.  1.
        -12    1    3    3    0    0  0.82747444680E+01 -0.12130608913E+02 -0.14973196123E+02  0.20971878093E+02  0.00000000000E+00 0.  1.
</event>
<event>
 7    1  0.1400974E-009  0.4778721E+02  0.7816164E-02  0.1312668E+00
        -11   -1    0    0    0    0  0.00000000000E+00  0.00000000000E+00  0.45593999997E+02  0.45594000000E+02  0.51100000000E-03 0.  1.
         11   -1    0    0    0    0 -0.00000000000E+00 -0.00000000000E+00 -0.45593999997E+02  0.45594000000E+02  0.51100000000E-03 0. -1.
    9900012    2    1    2    0    0 -0.43084363588E+02  0.91646338112E-02 -0.52312384276E+01  0.47787212850E+02  0.19999734667E+02 0.  0.
        -12    1    1    2    0    0  0.43084363588E+02 -0.91646338112E-02  0.52312384276E+01  0.43400787150E+02  0.00000000000E+00 0.  1.
         11    1    3    3    0    0 -0.33003961345E+02 -0.61170370250E+01 -0.58494366216E+01  0.34071916815E+02  0.51100000000E-03 0. -1.
        -11    1    3    3    0    0 -0.85836021639E+01  0.13498708552E+01  0.18272122247E+00  0.86910163238E+01  0.51100000000E-03 0.  1.
        -12    1    3    3    0    0 -0.14968000789E+01  0.47763308036E+01  0.43547697150E+00  0.50242797110E+01  0.00000000000E+00 0.  1.
</event>
<event>
 7    1  0.1400974E-009  0.4778727E+02  0.7816164E-02  0.1312668E+00
        -11   -1    0    0    0    0  0.00000000000E+00  0.00000000000E+00  0.45593999997E+02  0.45594000000E+02  0.51100000000E-03 0. -1.
         11   -1    0    0    0    0 -0.00000000000E+00 -0.00000000000E+00 -0.45593999997E+02  0.45594000000E+02  0.51100000000E-03 0.  1.
    9900012    2    1    2    0    0 -0.66015114097E+01 -0.42287900471E+02 -0.71956062985E+01  0.47787271560E+02  0.20000002351E+02 0.  0.
        -12    1    1    2    0    0  0.66015114097E+01  0.42287900471E+02  0.71956062985E+01  0.43400728440E+02  0.00000000000E+00 0.  1.
         11    1    3    3    0    0 -0.78107197274E+01 -0.23596823286E+02 -0.12601675149E+01  0.24887857165E+02  0.51100000000E-03 0. -1.
        -11    1    3    3    0    0 -0.23879230397E+01 -0.74644014950E+01 -0.76910689826E+01  0.10980528606E+02  0.51100000000E-03 0.  1.
         12    1    3    3    0    0  0.35971313574E+01 -0.11226675689E+02  0.17556301990E+01  0.11918885788E+02  0.00000000000E+00 0. -1.
</event>
<event>
 7    1  0.1400974E-009  0.4778727E+02  0.7816164E-02  0.1312668E+00
        -11   -1    0    0    0    0  0.00000000000E+00  0.00000000000E+00  0.45593999997E+02  0.45594000000E+02  0.51100000000E-03 0.  1.
         11   -1    0    0    0    0 -0.00000000000E+00 -0.00000000000E+00 -0.45593999997E+02  0.45594000000E+02  0.51100000000E-03 0. -1.
    9900012    2    1    2    0    0  0.38866374718E+02  0.56583396537E+01 -0.18466488270E+02  0.47787273274E+02  0.20000010165E+02 0.  0.
        -12    1    1    2    0    0 -0.38866374718E+02 -0.56583396537E+01  0.18466488270E+02  0.43400726726E+02  0.00000000000E+00 0.  1.
         11    1    3    3    0    0  0.17129251645E+02  0.27615350044E+00 -0.61319608325E+01  0.18195836517E+02  0.51100000000E-03 0. -1.
        -11    1    3    3    0    0  0.69431716497E+01  0.23642969942E+01 -0.12498720484E+02  0.14491913153E+02  0.51100000000E-03 0.  1.
         12    1    3    3    0    0  0.14793951423E+02  0.30178891590E+01  0.16419304667E+00  0.15099523603E+02  0.00000000000E+00 0. -1.
</event>
<event>
 7    1  0.1400974E-009  0.4778728E+02  0.7816164E-02  0.1312668E+00
        -11   -1    0    0    0    0  0.00000000000E+00  0.00000000000E+00  0.45593999997E+02  0.45594000000E+02  0.51100000000E-03 0.  1.
         11   -1    0    0    0    0 -0.00000000000E+00 -0.00000000000E+00 -0.45593999997E+02  0.45594000000E+02  0.51100000000E-03 0. -1.
    9900012    2    1    2    0    0 -0.91610680578E+01  0.26870846338E+01 -0.42337656192E+02  0.47787277384E+02  0.20000028904E+02 0.  0.
        -12    1    1    2    0    0  0.91610680578E+01 -0.26870846338E+01  0.42337656192E+02  0.43400722616E+02  0.00000000000E+00 0.  1.
         11    1    3    3    0    0 -0.36587827370E+01 -0.17790284640E+01 -0.46322738697E+01  0.61651921996E+01  0.51100000000E-03 0. -1.
        -11    1    3    3    0    0  0.43455473078E+00  0.86111521697E+01 -0.29228880377E+02  0.30474058277E+02  0.51100000000E-03 0.  1.
        -12    1    3    3    0    0 -0.59368400516E+01 -0.41450390720E+01 -0.84765019453E+01  0.11148026908E+02  0.00000000000E+00 0.  1.
</event>
<event>
 7    1  0.1400974E-009  0.4778727E+02  0.7816164E-02  0.1312668E+00
        -11   -1    0    0    0    0  0.00000000000E+00  0.00000000000E+00  0.45593999997E+02  0.45594000000E+02  0.51100000000E-03 0. -1.
         11   -1    0    0    0    0 -0.00000000000E+00 -0.00000000000E+00 -0.45593999997E+02  0.45594000000E+02  0.51100000000E-03 0.  1.
    9900012    2    1    2    0    0 -0.62291812143E+01 -0.14186636494E+02  0.40540843462E+02  0.47787270257E+02  0.19999996408E+02 0.  0.
        -12    1    1    2    0    0  0.62291812143E+01  0.14186636494E+02 -0.40540843462E+02  0.43400729743E+02  0.00000000000E+00 0.  1.
         11    1    3    3    0    0 -0.91073609960E+01 -0.49384375885E+01  0.17468254994E+02  0.20309409714E+02  0.51100000000E-03 0. -1.
        -11    1    3    3    0    0  0.20949762053E+01 -0.11197090713E+01  0.17336441099E+02  0.17498424614E+02  0.51100000000E-03 0.  1.
        -12    1    3    3    0    0  0.78320357638E+00 -0.81284898342E+01  0.57361473685E+01  0.99794359289E+01  0.00000000000E+00 0.  1.
</event>
<event>
 7    1  0.1400974E-009  0.4778727E+02  0.7816164E-02  0.1312668E+00
        -11   -1    0    0    0    0  0.00000000000E+00  0.00000000000E+00  0.45593999997E+02  0.45594000000E+02  0.51100000000E-03 0.  1.
         11   -1    0    0    0    0 -0.00000000000E+00 -0.00000000000E+00 -0.45593999997E+02  0.45594000000E+02  0.51100000000E-03 0. -1.
    9900012    2    1    2    0    0 -0.26042943172E+02  0.23145397387E+02 -0.25878164707E+02  0.47787265929E+02  0.19999976677E+02 0.  0.
        -12    1    1    2    0    0  0.26042943172E+02 -0.23145397387E+02  0.25878164707E+02  0.43400734071E+02  0.00000000000E+00 0.  1.
         11    1    3    3    0    0 -0.32804901919E+01  0.42880316706E+01  0.15202572990E+01  0.56089227150E+01  0.51100000000E-03 0. -1.
        -11    1    3    3    0    0 -0.12339567249E+01  0.60969770749E+01 -0.20305089777E+01  0.65436034125E+01  0.51100000000E-03 0.  1.
         12    1    3    3    0    0 -0.21528496255E+02  0.12760388642E+02 -0.25367913029E+02  0.35634739802E+02  0.00000000000E+00 0. -1.
</event>
<event>
 7    1  0.1400974E-009  0.4778728E+02  0.7816164E-02  0.1312668E+00
        -11   -1    0    0    0    0  0.00000000000E+00  0.00000000000E+00  0.45593999997E+02  0.45594000000E+02  0.51100000000E-03 0.  1.
         11   -1    0    0    0    0 -0.00000000000E+00 -0.00000000000E+00 -0.45593999997E+02  0.45594000000E+02  0.51100000000E-03 0. -1.
    9900012    2    1    2    0    0  0.26627292263E+02 -0.20103950103E+02 -0.27756825901E+02  0.47787275500E+02  0.20000020315E+02 0.  0.
        -12    1    1    2    0    0 -0.26627292263E+02  0.20103950103E+02  0.27756825901E+02  0.43400724500E+02  0.00000000000E+00 0.  1.
         11    1    3    3    0    0  0.17766759701E+02 -0.89565918211E+01 -0.22661988108E+02  0.30156989117E+02  0.51100000000E-03 0. -1.
        -11    1    3    3    0    0  0.94351862395E+01 -0.49705583210E+01 -0.29245042548E+01  0.11058115336E+02  0.51100000000E-03 0.  1.
        -12    1    3    3    0    0 -0.57465367730E+00 -0.61767999605E+01 -0.21703335385E+01  0.65721710468E+01  0.00000000000E+00 0.  1.
</event>
<event>
 7    1  0.1400974E-009  0.4778727E+02  0.7816164E-02  0.1312668E+00
        -11   -1    0    0    0    0  0.00000000000E+00  0.00000000000E+00  0.45593999997E+02  0.45594000000E+02  0.51100000000E-03 0.  1.
         11   -1    0    0    0    0 -0.00000000000E+00 -0.00000000000E+00 -0.45593999997E+02  0.45594000000E+02  0.51100000000E-03 0. -1.
    9900012    2    1    2    0    0  0.23156772206E+02 -0.42373031984E+01 -0.36461382174E+02  0.47787271580E+02  0.20000002440E+02 0.  0.
        -12    1    1    2    0    0 -0.23156772206E+02  0.42373031984E+01  0.36461382174E+02  0.43400728420E+02  0.00000000000E+00 0.  1.
         11    1    3    3    0    0  0.32607427899E+01 -0.63666122719E+01 -0.83422420277E+01  0.10989048989E+02  0.51100000000E-03 0. -1.
        -11    1    3    3    0    0  0.68841410291E+01  0.34734091742E+01 -0.19919011262E+02  0.21359376838E+02  0.51100000000E-03 0.  1.
         12    1    3    3    0    0  0.13011888387E+02 -0.13441001007E+01 -0.82001288847E+01  0.15438845753E+02  0.00000000000E+00 0. -1.
</event>
<event>
 7    1  0.1400974E-009  0.4778727E+02  0.7816164E-02  0.1312668E+00
        -11   -1    0    0    0    0  0.00000000000E+00  0.00000000000E+00  0.45593999997E+02  0.45594000000E+02  0.51100000000E-03 0.  1.
         11   -1    0    0    0    0 -0.00000000000E+00 -0.00000000000E+00 -0.45593999997E+02  0.45594000000E+02  0.51100000000E-03 0. -1.
    9900012    2    1    2    0    0 -0.41110479346E+02 -0.10163148365E+02 -0.95006440415E+01  0.47787270352E+02  0.19999996844E+02 0.  0.
        -12    1    1    2    0    0  0.41110479346E+02  0.10163148365E+02  0.95006440415E+01  0.43400729648E+02  0.00000000000E+00 0.  1.
         11    1    3    3    0    0 -0.79375940708E+01 -0.66684459549E+01  0.25177727186E+01  0.10668305902E+02  0.51100000000E-03 0. -1.
        -11    1    3    3    0    0 -0.27803954821E+01 -0.26779645128E+01  0.10881698801E+01  0.40107613888E+01  0.51100000000E-03 0.  1.
         12    1    3    3    0    0 -0.30392489793E+02 -0.81673789675E+00 -0.13106586640E+02  0.33108203062E+02  0.00000000000E+00 0. -1.
</event>
<event>
 7    1  0.1400974E-009  0.4778727E+02  0.7816164E-02  0.1312668E+00
        -11   -1    0    0    0    0  0.00000000000E+00  0.00000000000E+00  0.45593999997E+02  0.45594000000E+02  0.51100000000E-03 0. -1.
         11   -1    0    0    0    0 -0.00000000000E+00 -0.00000000000E+00 -0.45593999997E+02  0.45594000000E+02  0.51100000000E-03 0.  1.
    9900012    2    1    2    0    0 -0.20286165831E+02 -0.20875906676E+02  0.32191477789E+02  0.47787271367E+02  0.20000001469E+02 0.  0.
        -12    1    1    2    0    0  0.20286165831E+02  0.20875906676E+02 -0.32191477789E+02  0.43400728633E+02  0.00000000000E+00 0.  1.
         11    1    3    3    0    0 -0.13375168566E+02 -0.17892414663E+02  0.28617034242E+02  0.36303832934E+02  0.51100000000E-03 0. -1.
        -11    1    3    3    0    0  0.11375039280E+01  0.10487500637E+01  0.16805409015E+01  0.22842963611E+01  0.51100000000E-03 0.  1.
        -12    1    3    3    0    0 -0.80485011929E+01 -0.40322420773E+01  0.18939026456E+01  0.91991420715E+01  0.00000000000E+00 0.  1.
</event>
<event>
 7    1  0.1400974E-009  0.4778727E+02  0.7816164E-02  0.1312668E+00
        -11   -1    0    0    0    0  0.00000000000E+00  0.00000000000E+00  0.45593999997E+02  0.45594000000E+02  0.51100000000E-03 0. -1.
         11   -1    0    0    0    0 -0.00000000000E+00 -0.00000000000E+00 -0.45593999997E+02  0.45594000000E+02  0.51100000000E-03 0.  1.
    9900012    2    1    2    0    0  0.26555643853E+02  0.32580797306E+02  0.10812615145E+02  0.47787271668E+02  0.20000002842E+02 0.  0.
        -12    1    1    2    0    0 -0.26555643853E+02 -0.32580797306E+02 -0.10812615145E+02  0.43400728332E+02  0.00000000000E+00 0.  1.
         11    1    3    3    0    0  0.62478179797E+01  0.15942601568E+01  0.22038639478E+01  0.68142432828E+01  0.51100000000E-03 0.  1.
        -11    1    3    3    0    0  0.19886289320E+02  0.29548592689E+02  0.11739630579E+02  0.37502036734E+02  0.51100000000E-03 0. -1.
         12    1    3    3    0    0  0.42153655302E+00  0.14379444600E+01 -0.31308793822E+01  0.34709916510E+01  0.00000000000E+00 0. -1.
</event>
<event>
 7    1  0.1400974E-009  0.4778727E+02  0.7816164E-02  0.1312668E+00
        -11   -1    0    0    0    0  0.00000000000E+00  0.00000000000E+00  0.45593999997E+02  0.45594000000E+02  0.51100000000E-03 0. -1.
         11   -1    0    0    0    0 -0.00000000000E+00 -0.00000000000E+00 -0.45593999997E+02  0.45594000000E+02  0.51100000000E-03 0.  1.
    9900012    2    1    2    0    0  0.31232658736E+02  0.69890188528E+01  0.29313781173E+02  0.47787272784E+02  0.20000007930E+02 0.  0.
        -12    1    1    2    0    0 -0.31232658736E+02 -0.69890188528E+01 -0.29313781173E+02  0.43400727216E+02  0.00000000000E+00 0.  1.
         11    1    3    3    0    0  0.13992720924E+02  0.35234551998E+01  0.24286070865E+02  0.28249322359E+02  0.51100000000E-03 0. -1.
        -11    1    3    3    0    0  0.54018281824E+01 -0.20846125364E+01  0.19070738777E+01  0.60960879403E+01  0.51100000000E-03 0.  1.
        -12    1    3    3    0    0  0.11838109629E+02  0.55501761894E+01  0.31206364302E+01  0.13441862485E+02  0.00000000000E+00 0.  1.
</event>
<event>
 7    1  0.1400974E-009  0.4778723E+02  0.7816164E-02  0.1312668E+00
        -11   -1    0    0    0    0  0.00000000000E+00  0.00000000000E+00  0.45593999997E+02  0.45594000000E+02  0.51100000000E-03 0.  1.
         11   -1    0    0    0    0 -0.00000000000E+00 -0.00000000000E+00 -0.45593999997E+02  0.45594000000E+02  0.51100000000E-03 0. -1.
    9900012    2    1    2    0    0 -0.17789954186E+02  0.26241383972E+02 -0.29640074183E+02  0.47787231571E+02  0.19999820024E+02 0.  0.
        -12    1    1    2    0    0  0.17789954186E+02 -0.26241383972E+02  0.29640074183E+02  0.43400768429E+02  0.00000000000E+00 0.  1.
         11    1    3    3    0    0 -0.38571929363E+01  0.36457151920E+01 -0.79621795899E+00  0.53668556817E+01  0.51100000000E-03 0.  1.
        -11    1    3    3    0    0 -0.12029146913E+02  0.21509701130E+02 -0.30825186419E+02  0.39465931336E+02  0.51100000000E-03 0. -1.
         12    1    3    3    0    0 -0.19036143364E+01  0.10859676497E+01  0.19813301953E+01  0.29544445536E+01  0.00000000000E+00 0. -1.
</event>
<event>
 7    1  0.1400974E-009  0.4778725E+02  0.7816164E-02  0.1312668E+00
        -11   -1    0    0    0    0  0.00000000000E+00  0.00000000000E+00  0.45593999997E+02  0.45594000000E+02  0.51100000000E-03 0.  1.
         11   -1    0    0    0    0 -0.00000000000E+00 -0.00000000000E+00 -0.45593999997E+02  0.45594000000E+02  0.51100000000E-03 0. -1.
    9900012    2    1    2    0    0 -0.27893716531E+02 -0.22990651183E+02 -0.24020733951E+02  0.47787249738E+02  0.19999902857E+02 0.  0.
        -12    1    1    2    0    0  0.27893716531E+02  0.22990651183E+02  0.24020733951E+02  0.43400750262E+02  0.00000000000E+00 0.  1.
         11    1    3    3    0    0 -0.15992877705E+01 -0.56607567312E+01  0.11442581587E+01  0.59925966941E+01  0.51100000000E-03 0. -1.
        -11    1    3    3    0    0 -0.12618009144E+02 -0.14355000858E+02 -0.17073527682E+02  0.25627827691E+02  0.51100000000E-03 0.  1.
        -12    1    3    3    0    0 -0.13676419617E+02 -0.29748935937E+01 -0.80914644279E+01  0.16166825354E+02  0.00000000000E+00 0.  1.
</event>
<event>
 7    1  0.1400974E-009  0.4778727E+02  0.7816164E-02  0.1312668E+00
        -11   -1    0    0    0    0  0.00000000000E+00  0.00000000000E+00  0.45593999997E+02  0.45594000000E+02  0.51100000000E-03 0. -1.
         11   -1    0    0    0    0 -0.00000000000E+00 -0.00000000000E+00 -0.45593999997E+02  0.45594000000E+02  0.51100000000E-03 0.  1.
    9900012    2    1    2    0    0  0.18834811976E+02  0.19493446944E+02  0.33895109349E+02  0.47787273581E+02  0.20000011565E+02 0.  0.
        -12    1    1    2    0    0 -0.18834811976E+02 -0.19493446944E+02 -0.33895109349E+02  0.43400726419E+02  0.00000000000E+00 0.  1.
         11    1    3    3    0    0  0.31138866241E+01  0.23200625758E+01 -0.58473134424E+00  0.39269442661E+01  0.51100000000E-03 0. -1.
        -11    1    3    3    0    0  0.73655655058E-01  0.90244972516E+01  0.15586885228E+02  0.18011051251E+02  0.51100000000E-03 0.  1.
         12    1    3    3    0    0  0.15647269697E+02  0.81488871162E+01  0.18892955465E+02  0.25849278064E+02  0.00000000000E+00 0. -1.
</event>
<event>
 7    1  0.1400974E-009  0.4778727E+02  0.7816164E-02  0.1312668E+00
        -11   -1    0    0    0    0  0.00000000000E+00  0.00000000000E+00  0.45593999997E+02  0.45594000000E+02  0.51100000000E-03 0.  1.
         11   -1    0    0    0    0 -0.00000000000E+00 -0.00000000000E+00 -0.45593999997E+02  0.45594000000E+02  0.51100000000E-03 0. -1.
    9900012    2    1    2    0    0 -0.34606762348E+02  0.26069203662E+02  0.25281914912E+01  0.47787272679E+02  0.20000007453E+02 0.  0.
        -12    1    1    2    0    0  0.34606762348E+02 -0.26069203662E+02 -0.25281914912E+01  0.43400727321E+02  0.00000000000E+00 0.  1.
         11    1    3    3    0    0 -0.18943350479E+02  0.11121716802E+02 -0.71580990560E+00  0.21978523519E+02  0.51100000000E-03 0. -1.
        -11    1    3    3    0    0 -0.81206531061E+01  0.15314278044E+02  0.50291546419E+01  0.18048947769E+02  0.51100000000E-03 0.  1.
        -12    1    3    3    0    0 -0.75427587628E+01 -0.36679118381E+00 -0.17851532450E+01  0.77598013914E+01  0.00000000000E+00 0.  1.
</event>
<event>
 7    1  0.1400974E-009  0.4778726E+02  0.7816164E-02  0.1312668E+00
        -11   -1    0    0    0    0  0.00000000000E+00  0.00000000000E+00  0.45593999997E+02  0.45594000000E+02  0.51100000000E-03 0.  1.
         11   -1    0    0    0    0 -0.00000000000E+00 -0.00000000000E+00 -0.45593999997E+02  0.45594000000E+02  0.51100000000E-03 0. -1.
    9900012    2    1    2    0    0 -0.83965386743E+01  0.32226062908E+01 -0.42458649346E+02  0.47787263171E+02  0.19999964103E+02 0.  0.
        -12    1    1    2    0    0  0.83965386743E+01 -0.32226062908E+01  0.42458649346E+02  0.43400736829E+02  0.00000000000E+00 0.  1.
         11    1    3    3    0    0  0.22022941258E+01 -0.33281762041E+01 -0.58399725722E+01  0.70733398170E+01  0.51100000000E-03 0. -1.
        -11    1    3    3    0    0 -0.70077776729E+01  0.58339731228E+01 -0.88571815827E+01  0.12711957212E+02  0.51100000000E-03 0.  1.
         12    1    3    3    0    0 -0.35910551272E+01  0.71680937210E+00 -0.27761495191E+02  0.28001966142E+02  0.00000000000E+00 0. -1.
</event>
<event>
 7    1  0.1400974E-009  0.4778725E+02  0.7816164E-02  0.1312668E+00
        -11   -1    0    0    0    0  0.00000000000E+00  0.00000000000E+00  0.45593999997E+02  0.45594000000E+02  0.51100000000E-03 0.  1.
         11   -1    0    0    0    0 -0.00000000000E+00 -0.00000000000E+00 -0.45593999997E+02  0.45594000000E+02  0.51100000000E-03 0. -1.
    9900012    2    1    2    0    0 -0.16656753121E+02 -0.69855259750E+01 -0.39463654749E+02  0.47787250653E+02  0.19999907027E+02 0.  0.
        -12    1    1    2    0    0  0.16656753121E+02  0.69855259750E+01  0.39463654749E+02  0.43400749347E+02  0.00000000000E+00 0.  1.
         11    1    3    3    0    0 -0.60317989606E+01 -0.57395205746E+00 -0.85149290325E+01  0.10450647652E+02  0.51100000000E-03 0. -1.
        -11    1    3    3    0    0  0.44852673843E+01 -0.20220123344E+01 -0.99159131197E+01  0.11069394322E+02  0.51100000000E-03 0.  1.
        -12    1    3    3    0    0 -0.15110221545E+02 -0.43895615831E+01 -0.21032812597E+02  0.26267208679E+02  0.00000000000E+00 0.  1.
</event>
<event>
 7    1  0.1400974E-009  0.4778727E+02  0.7816164E-02  0.1312668E+00
        -11   -1    0    0    0    0  0.00000000000E+00  0.00000000000E+00  0.45593999997E+02  0.45594000000E+02  0.51100000000E-03 0. -1.
         11   -1    0    0    0    0 -0.00000000000E+00 -0.00000000000E+00 -0.45593999997E+02  0.45594000000E+02  0.51100000000E-03 0.  1.
    9900012    2    1    2    0    0 -0.10749205674E+02  0.41290951894E+02 -0.79457837297E+01  0.47787267172E+02  0.19999982344E+02 0.  0.
        -12    1    1    2    0    0  0.10749205674E+02 -0.41290951894E+02  0.79457837297E+01  0.43400732828E+02  0.00000000000E+00 0.  1.
         11    1    3    3    0    0  0.16256912550E+01  0.27859896383E+02 -0.41368057005E+01  0.28212228912E+02  0.51100000000E-03 0. -1.
        -11    1    3    3    0    0 -0.87620730427E+01  0.12827195639E+02 -0.29296169380E+01  0.15808020990E+02  0.51100000000E-03 0.  1.
         12    1    3    3    0    0 -0.36128238864E+01  0.60385987183E+00 -0.87936109120E+00  0.37670172694E+01  0.00000000000E+00 0. -1.
</event>
<event>
 7    1  0.1400974E-009  0.4778727E+02  0.7816164E-02  0.1312668E+00
        -11   -1    0    0    0    0  0.00000000000E+00  0.00000000000E+00  0.45593999997E+02  0.45594000000E+02  0.51100000000E-03 0.  1.
         11   -1    0    0    0    0 -0.00000000000E+00 -0.00000000000E+00 -0.45593999997E+02  0.45594000000E+02  0.51100000000E-03 0. -1.
    9900012    2    1    2    0    0  0.76135857982E+01  0.42253530577E+02  0.63479070483E+01  0.47787268913E+02  0.19999990284E+02 0.  0.
        -12    1    1    2    0    0 -0.76135857982E+01 -0.42253530577E+02 -0.63479070483E+01  0.43400731087E+02  0.00000000000E+00 0.  1.
         11    1    3    3    0    0 -0.28085285851E+01  0.22038896887E+02  0.37123130219E+01  0.22525143219E+02  0.51100000000E-03 0. -1.
        -11    1    3    3    0    0 -0.12410493722E+01  0.10232597573E+01  0.22943986664E+01  0.28020580966E+01  0.51100000000E-03 0.  1.
        -12    1    3    3    0    0  0.11663163755E+02  0.19191373933E+02  0.34119535998E+00  0.22460067598E+02  0.00000000000E+00 0.  1.
</event>
<event>
 7    1  0.1400974E-009  0.4778727E+02  0.7816164E-02  0.1312668E+00
        -11   -1    0    0    0    0  0.00000000000E+00  0.00000000000E+00  0.45593999997E+02  0.45594000000E+02  0.51100000000E-03 0.  1.
         11   -1    0    0    0    0 -0.00000000000E+00 -0.00000000000E+00 -0.45593999997E+02  0.45594000000E+02  0.51100000000E-03 0. -1.
    9900012    2    1    2    0    0 -0.32655996144E+02 -0.23376590938E+02 -0.16454303775E+02  0.47787271887E+02  0.20000003842E+02 0.  0.
        -12    1    1    2    0    0  0.32655996144E+02  0.23376590938E+02  0.16454303775E+02  0.43400728113E+02  0.00000000000E+00 0.  1.
         11    1    3    3    0    0 -0.49382883754E+01 -0.13197935968E+01 -0.52693658012E+01  0.73413052943E+01  0.51100000000E-03 0. -1.
        -11    1    3    3    0    0 -0.12052247347E+02 -0.14454450325E+02 -0.13097040187E+02  0.22928590498E+02  0.51100000000E-03 0.  1.
         12    1    3    3    0    0 -0.15665460422E+02 -0.76023470159E+01  0.19121022131E+01  0.17517376095E+02  0.00000000000E+00 0. -1.
</event>
<event>
 7    1  0.1400974E-009  0.4778731E+02  0.7816164E-02  0.1312668E+00
        -11   -1    0    0    0    0  0.00000000000E+00  0.00000000000E+00  0.45593999997E+02  0.45594000000E+02  0.51100000000E-03 0. -1.
         11   -1    0    0    0    0 -0.00000000000E+00 -0.00000000000E+00 -0.45593999997E+02  0.45594000000E+02  0.51100000000E-03 0.  1.
    9900012    2    1    2    0    0  0.34253010299E+02  0.15025459752E+02  0.22013325624E+02  0.47787312675E+02  0.20000189808E+02 0.  0.
        -12    1    1    2    0    0 -0.34253010299E+02 -0.15025459752E+02 -0.22013325624E+02  0.43400687325E+02  0.00000000000E+00 0.  1.
         11    1    3    3    0    0  0.11296341126E+02  0.44128174774E+01  0.41519369961E+01  0.12818691899E+02  0.51100000000E-03 0. -1.
        -11    1    3    3    0    0 -0.11473261614E+01  0.44911527258E+01  0.55094090531E+00  0.46680130965E+01  0.51100000000E-03 0.  1.
        -12    1    3    3    0    0  0.24103995334E+02  0.61214895490E+01  0.17310447722E+02  0.30300607679E+02  0.00000000000E+00 0.  1.
</event>
<event>
 7    1  0.1400974E-009  0.4778727E+02  0.7816164E-02  0.1312668E+00
        -11   -1    0    0    0    0  0.00000000000E+00  0.00000000000E+00  0.45593999997E+02  0.45594000000E+02  0.51100000000E-03 0. -1.
         11   -1    0    0    0    0 -0.00000000000E+00 -0.00000000000E+00 -0.45593999997E+02  0.45594000000E+02  0.51100000000E-03 0.  1.
    9900012    2    1    2    0    0 -0.29736720177E+02  0.29418085753E+02  0.11572676276E+02  0.47787272674E+02  0.20000007428E+02 0.  0.
        -12    1    1    2    0    0  0.29736720177E+02 -0.29418085753E+02 -0.11572676276E+02  0.43400727326E+02  0.00000000000E+00 0.  1.
         11    1    3    3    0    0 -0.20447355391E+02  0.14945158375E+02  0.11723079664E+02  0.27908470012E+02  0.51100000000E-03 0. -1.
        -11    1    3    3    0    0 -0.34079167982E+01 -0.32806836669E+00 -0.17979829650E+01  0.38670749618E+01  0.51100000000E-03 0.  1.
        -12    1    3    3    0    0 -0.58814479877E+01  0.14800995745E+02  0.16475795775E+01  0.16011727700E+02  0.00000000000E+00 0.  1.
</event>
<event>
 7    1  0.1400974E-009  0.4778727E+02  0.7816164E-02  0.1312668E+00
        -11   -1    0    0    0    0  0.00000000000E+00  0.00000000000E+00  0.45593999997E+02  0.45594000000E+02  0.51100000000E-03 0.  1.
         11   -1    0    0    0    0 -0.00000000000E+00 -0.00000000000E+00 -0.45593999997E+02  0.45594000000E+02  0.51100000000E-03 0. -1.
    9900012    2    1    2    0    0 -0.79894222369E+01  0.41495116168E+02 -0.98968555515E+01  0.47787270936E+02  0.19999999507E+02 0.  0.
        -12    1    1    2    0    0  0.79894222369E+01 -0.41495116168E+02  0.98968555515E+01  0.43400729064E+02  0.00000000000E+00 0.  1.
         11    1    3    3    0    0  0.16255117702E+01  0.19190463733E+02 -0.37311222391E+01  0.19617274536E+02  0.51100000000E-03 0. -1.
        -11    1    3    3    0    0 -0.12463350447E+02  0.20843712252E+02 -0.54594909778E+01  0.24891795572E+02  0.51100000000E-03 0.  1.
         12    1    3    3    0    0  0.28484164402E+01  0.14609401832E+01 -0.70624233458E+00  0.32782008283E+01  0.00000000000E+00 0. -1.
</event>
<event>
 7    1  0.1400974E-009  0.4778728E+02  0.7816164E-02  0.1312668E+00
        -11   -1    0    0    0    0  0.00000000000E+00  0.00000000000E+00  0.45593999997E+02  0.45594000000E+02  0.51100000000E-03 0.  1.
         11   -1    0    0    0    0 -0.00000000000E+00 -0.00000000000E+00 -0.45593999997E+02  0.45594000000E+02  0.51100000000E-03 0. -1.
    9900012    2    1    2    0    0 -0.10796569117E+02  0.41358480885E+02 -0.75188316069E+01  0.47787277949E+02  0.20000031481E+02 0.  0.
        -12    1    1    2    0    0  0.10796569117E+02 -0.41358480885E+02  0.75188316069E+01  0.43400722051E+02  0.00000000000E+00 0.  1.
         11    1    3    3    0    0 -0.64500147710E+01  0.13585225896E+02 -0.13464845135E+01  0.15098810350E+02  0.51100000000E-03 0. -1.
        -11    1    3    3    0    0  0.42145986290E+01  0.18508397613E+02 -0.86248932543E+00  0.19001776546E+02  0.51100000000E-03 0.  1.
        -12    1    3    3    0    0 -0.85611529749E+01  0.92648573759E+01 -0.53098577680E+01  0.13686691053E+02  0.00000000000E+00 0.  1.
</event>
<event>
 7    1  0.1400974E-009  0.4778727E+02  0.7816164E-02  0.1312668E+00
        -11   -1    0    0    0    0  0.00000000000E+00  0.00000000000E+00  0.45593999997E+02  0.45594000000E+02  0.51100000000E-03 0. -1.
         11   -1    0    0    0    0 -0.00000000000E+00 -0.00000000000E+00 -0.45593999997E+02  0.45594000000E+02  0.51100000000E-03 0.  1.
    9900012    2    1    2    0    0 -0.18664661941E+02  0.27238876307E+02  0.28165539637E+02  0.47787267162E+02  0.19999982298E+02 0.  0.
        -12    1    1    2    0    0  0.18664661941E+02 -0.27238876307E+02 -0.28165539637E+02  0.43400732838E+02  0.00000000000E+00 0.  1.
         11    1    3    3    0    0 -0.66878781397E+01  0.55212713330E+01  0.12695011392E+02  0.15374507005E+02  0.51100000000E-03 0. -1.
        -11    1    3    3    0    0 -0.52531038547E+01  0.78038922026E+01 -0.14267307924E+01  0.95147987174E+01  0.51100000000E-03 0.  1.
         12    1    3    3    0    0 -0.67236799468E+01  0.13913712772E+02  0.16897259037E+02  0.22897961439E+02  0.00000000000E+00 0. -1.
</event>
<event>
 7    1  0.1400974E-009  0.4778730E+02  0.7816164E-02  0.1312668E+00
        -11   -1    0    0    0    0  0.00000000000E+00  0.00000000000E+00  0.45593999997E+02  0.45594000000E+02  0.51100000000E-03 0. -1.
         11   -1    0    0    0    0 -0.00000000000E+00 -0.00000000000E+00 -0.45593999997E+02  0.45594000000E+02  0.51100000000E-03 0.  1.
    9900012    2    1    2    0    0 -0.64843191515E+01  0.12641316848E+02  0.41009407077E+02  0.47787300060E+02  0.20000132292E+02 0.  0.
        -12    1    1    2    0    0  0.64843191515E+01 -0.12641316848E+02 -0.41009407077E+02  0.43400699940E+02  0.00000000000E+00 0.  1.
         11    1    3    3    0    0 -0.26863267495E+01  0.11433492791E+02  0.15825585549E+02  0.19707619518E+02  0.51100000000E-03 0. -1.
        -11    1    3    3    0    0 -0.80051468101E+01  0.44000080723E-01  0.17459861594E+02  0.19207578676E+02  0.51100000000E-03 0.  1.
         12    1    3    3    0    0  0.42071544082E+01  0.11638239758E+01  0.77239599341E+01  0.88721018662E+01  0.00000000000E+00 0. -1.
</event>
<event>
 7    1  0.1400974E-009  0.4778731E+02  0.7816164E-02  0.1312668E+00
        -11   -1    0    0    0    0  0.00000000000E+00  0.00000000000E+00  0.45593999997E+02  0.45594000000E+02  0.51100000000E-03 0.  1.
         11   -1    0    0    0    0 -0.00000000000E+00 -0.00000000000E+00 -0.45593999997E+02  0.45594000000E+02  0.51100000000E-03 0. -1.
    9900012    2    1    2    0    0 -0.18518892143E+02  0.19005597661E+01 -0.39205341116E+02  0.47787305701E+02  0.20000158013E+02 0.  0.
        -12    1    1    2    0    0  0.18518892143E+02 -0.19005597661E+01  0.39205341116E+02  0.43400694299E+02  0.00000000000E+00 0.  1.
         11    1    3    3    0    0 -0.10290504287E+02 -0.36159209827E+01 -0.33069405060E+02  0.34821759208E+02  0.51100000000E-03 0. -1.
        -11    1    3    3    0    0 -0.16579336855E+00  0.29453127777E+01 -0.18150098765E+01  0.34636131297E+01  0.51100000000E-03 0.  1.
        -12    1    3    3    0    0 -0.80625944873E+01  0.25711679711E+01 -0.43209261790E+01  0.95019333636E+01  0.00000000000E+00 0.  1.
</event>
<event>
 7    1  0.1400974E-009  0.4778725E+02  0.7816164E-02  0.1312668E+00
        -11   -1    0    0    0    0  0.00000000000E+00  0.00000000000E+00  0.45593999997E+02  0.45594000000E+02  0.51100000000E-03 0. -1.
         11   -1    0    0    0    0 -0.00000000000E+00 -0.00000000000E+00 -0.45593999997E+02  0.45594000000E+02  0.51100000000E-03 0.  1.
    9900012    2    1    2    0    0  0.16765991342E+02 -0.38137689862E+02  0.12167301621E+02  0.47787250209E+02  0.19999905002E+02 0.  0.
        -12    1    1    2    0    0 -0.16765991342E+02  0.38137689862E+02 -0.12167301621E+02  0.43400749791E+02  0.00000000000E+00 0.  1.
         11    1    3    3    0    0  0.57314074088E+00 -0.11779292120E+02  0.16242672096E+01  0.11904556161E+02  0.51100000000E-03 0. -1.
        -11    1    3    3    0    0  0.29953242701E+01 -0.18844536765E+02  0.66292006166E+01  0.20199872140E+02  0.51100000000E-03 0.  1.
        -12    1    3    3    0    0  0.13197526331E+02 -0.75138609764E+01  0.39138337952E+01  0.15682821908E+02  0.00000000000E+00 0.  1.
</event>
<event>
 7    1  0.1400974E-009  0.4778727E+02  0.7816164E-02  0.1312668E+00
        -11   -1    0    0    0    0  0.00000000000E+00  0.00000000000E+00  0.45593999997E+02  0.45594000000E+02  0.51100000000E-03 0.  1.
         11   -1    0    0    0    0 -0.00000000000E+00 -0.00000000000E+00 -0.45593999997E+02  0.45594000000E+02  0.51100000000E-03 0. -1.
    9900012    2    1    2    0    0  0.29710366729E+01  0.13173734586E+02 -0.41246199270E+02  0.47787270788E+02  0.19999998832E+02 0.  0.
        -12    1    1    2    0    0 -0.29710366729E+01 -0.13173734586E+02  0.41246199270E+02  0.43400729212E+02  0.00000000000E+00 0.  1.
         11    1    3    3    0    0  0.40064790248E+01 -0.49987682413E+00 -0.12525173795E+02  0.13159852958E+02  0.51100000000E-03 0. -1.
        -11    1    3    3    0    0 -0.58416304189E+01  0.69387615166E+01 -0.72319622488E+01  0.11600531693E+02  0.51100000000E-03 0.  1.
        -12    1    3    3    0    0  0.48061880669E+01  0.67348498938E+01 -0.21489063226E+02  0.23026886137E+02  0.00000000000E+00 0.  1.
</event>
<event>
 7    1  0.1400974E-009  0.4778727E+02  0.7816164E-02  0.1312668E+00
        -11   -1    0    0    0    0  0.00000000000E+00  0.00000000000E+00  0.45593999997E+02  0.45594000000E+02  0.51100000000E-03 0.  1.
         11   -1    0    0    0    0 -0.00000000000E+00 -0.00000000000E+00 -0.45593999997E+02  0.45594000000E+02  0.51100000000E-03 0. -1.
    9900012    2    1    2    0    0  0.25046252664E+02 -0.21506815687E+02 -0.28173840029E+02  0.47787272408E+02  0.20000006219E+02 0.  0.
        -12    1    1    2    0    0 -0.25046252664E+02  0.21506815687E+02  0.28173840029E+02  0.43400727592E+02  0.00000000000E+00 0.  1.
         11    1    3    3    0    0  0.10361475224E+02 -0.16126733945E+02 -0.11585849876E+02  0.22397848873E+02  0.51100000000E-03 0. -1.
        -11    1    3    3    0    0  0.81561783587E+00 -0.11806195380E+01 -0.88427499453E+01  0.89584218367E+01  0.51100000000E-03 0.  1.
         12    1    3    3    0    0  0.13869159604E+02 -0.41994622036E+01 -0.77452402081E+01  0.16431001698E+02  0.00000000000E+00 0. -1.
</event>
<event>
 7    1  0.1400974E-009  0.4778727E+02  0.7816164E-02  0.1312668E+00
        -11   -1    0    0    0    0  0.00000000000E+00  0.00000000000E+00  0.45593999997E+02  0.45594000000E+02  0.51100000000E-03 0. -1.
         11   -1    0    0    0    0 -0.00000000000E+00 -0.00000000000E+00 -0.45593999997E+02  0.45594000000E+02  0.51100000000E-03 0.  1.
    9900012    2    1    2    0    0 -0.12478113406E+01  0.15682759507E+00  0.43382504459E+02  0.47787270500E+02  0.19999997517E+02 0.  0.
        -12    1    1    2    0    0  0.12478113406E+01 -0.15682759507E+00 -0.43382504459E+02  0.43400729500E+02  0.00000000000E+00 0.  1.
         11    1    3    3    0    0  0.82299696809E+01 -0.34759150951E+01  0.22715436866E+02  0.24409126551E+02  0.51100000000E-03 0. -1.
        -11    1    3    3    0    0 -0.80827705502E+00  0.16099508306E+01  0.19676304122E+01  0.26677374636E+01  0.51100000000E-03 0.  1.
         12    1    3    3    0    0 -0.86695039665E+01  0.20227918596E+01  0.18699437180E+02  0.20710406485E+02  0.00000000000E+00 0. -1.
</event>
<event>
 7    1  0.1400974E-009  0.4778727E+02  0.7816164E-02  0.1312668E+00
        -11   -1    0    0    0    0  0.00000000000E+00  0.00000000000E+00  0.45593999997E+02  0.45594000000E+02  0.51100000000E-03 0.  1.
         11   -1    0    0    0    0 -0.00000000000E+00 -0.00000000000E+00 -0.45593999997E+02  0.45594000000E+02  0.51100000000E-03 0. -1.
    9900012    2    1    2    0    0 -0.14968066413E+02  0.45964570059E+01 -0.40477808231E+02  0.47787269726E+02  0.19999993989E+02 0.  0.
        -12    1    1    2    0    0  0.14968066413E+02 -0.45964570059E+01  0.40477808231E+02  0.43400730274E+02  0.00000000000E+00 0.  1.
         11    1    3    3    0    0 -0.83032700923E+01  0.21590336236E+01 -0.33430173554E+02  0.34513507856E+02  0.51100000000E-03 0. -1.
        -11    1    3    3    0    0 -0.31669466162E+01  0.56186605383E+01 -0.47925208884E+01  0.80353689300E+01  0.51100000000E-03 0.  1.
        -12    1    3    3    0    0 -0.34978497042E+01 -0.31812371560E+01 -0.22551137883E+01  0.52383929400E+01  0.00000000000E+00 0.  1.
</event>
<event>
 7    1  0.1400974E-009  0.4778728E+02  0.7816164E-02  0.1312668E+00
        -11   -1    0    0    0    0  0.00000000000E+00  0.00000000000E+00  0.45593999997E+02  0.45594000000E+02  0.51100000000E-03 0.  1.
         11   -1    0    0    0    0 -0.00000000000E+00 -0.00000000000E+00 -0.45593999997E+02  0.45594000000E+02  0.51100000000E-03 0. -1.
    9900012    2    1    2    0    0  0.34265798318E+02  0.26576734494E+02  0.17762584531E+01  0.47787275987E+02  0.20000022537E+02 0.  0.
        -12    1    1    2    0    0 -0.34265798318E+02 -0.26576734494E+02 -0.17762584531E+01  0.43400724013E+02  0.00000000000E+00 0.  1.
         11    1    3    3    0    0 -0.21294496501E+01  0.93204542057E+00 -0.12443741604E+01  0.26366136976E+01  0.51100000000E-03 0. -1.
        -11    1    3    3    0    0  0.12770438459E+02  0.52115883124E+01  0.15657403632E+01  0.13881509079E+02  0.51100000000E-03 0.  1.
         12    1    3    3    0    0  0.23624809510E+02  0.20433100761E+02  0.14548922503E+01  0.31269153211E+02  0.00000000000E+00 0. -1.
</event>
<event>
 7    1  0.1400974E-009  0.4778728E+02  0.7816164E-02  0.1312668E+00
        -11   -1    0    0    0    0  0.00000000000E+00  0.00000000000E+00  0.45593999997E+02  0.45594000000E+02  0.51100000000E-03 0. -1.
         11   -1    0    0    0    0 -0.00000000000E+00 -0.00000000000E+00 -0.45593999997E+02  0.45594000000E+02  0.51100000000E-03 0.  1.
    9900012    2    1    2    0    0 -0.27072058279E+02 -0.64311064218E+01  0.33307166291E+02  0.47787276554E+02  0.20000025122E+02 0.  0.
        -12    1    1    2    0    0  0.27072058279E+02  0.64311064218E+01 -0.33307166291E+02  0.43400723446E+02  0.00000000000E+00 0.  1.
         11    1    3    3    0    0 -0.12192936227E+02 -0.66990201529E+01  0.83959210011E+01  0.16249186274E+02  0.51100000000E-03 0. -1.
        -11    1    3    3    0    0  0.87268529372E+00  0.17927234839E+01 -0.36655490864E-01  0.19941868011E+01  0.51100000000E-03 0.  1.
        -12    1    3    3    0    0 -0.15751807346E+02 -0.15248097528E+01  0.24947900780E+02  0.29543903479E+02  0.00000000000E+00 0.  1.
</event>
<event>
 7    1  0.1400974E-009  0.4778727E+02  0.7816164E-02  0.1312668E+00
        -11   -1    0    0    0    0  0.00000000000E+00  0.00000000000E+00  0.45593999997E+02  0.45594000000E+02  0.51100000000E-03 0.  1.
         11   -1    0    0    0    0 -0.00000000000E+00 -0.00000000000E+00 -0.45593999997E+02  0.45594000000E+02  0.51100000000E-03 0. -1.
    9900012    2    1    2    0    0  0.42733965458E+02  0.26613550895E+00 -0.75737042875E+01  0.47787266958E+02  0.19999981370E+02 0.  0.
        -12    1    1    2    0    0 -0.42733965458E+02 -0.26613550895E+00  0.75737042875E+01  0.43400733042E+02  0.00000000000E+00 0.  1.
         11    1    3    3    0    0  0.22847400911E+02  0.69654663839E+01 -0.10896531465E+02  0.26253682572E+02  0.51100000000E-03 0. -1.
        -11    1    3    3    0    0  0.82847755804E+01 -0.30500429366E+01 -0.33044447838E+00  0.88345606652E+01  0.51100000000E-03 0.  1.
        -12    1    3    3    0    0  0.11601788967E+02 -0.36492879384E+01  0.36532716559E+01  0.12699023721E+02  0.00000000000E+00 0.  1.
</event>
<event>
 7    1  0.1400974E-009  0.4778727E+02  0.7816164E-02  0.1312668E+00
        -11   -1    0    0    0    0  0.00000000000E+00  0.00000000000E+00  0.45593999997E+02  0.45594000000E+02  0.51100000000E-03 0.  1.
         11   -1    0    0    0    0 -0.00000000000E+00 -0.00000000000E+00 -0.45593999997E+02  0.45594000000E+02  0.51100000000E-03 0. -1.
    9900012    2    1    2    0    0 -0.41691532336E+02 -0.11680499547E+02 -0.30008783584E+01  0.47787271790E+02  0.20000003400E+02 0.  0.
        -12    1    1    2    0    0  0.41691532336E+02  0.11680499547E+02  0.30008783584E+01  0.43400728210E+02  0.00000000000E+00 0.  1.
         11    1    3    3    0    0 -0.93724039700E+01 -0.92868497033E+01 -0.98108727593E+00  0.13230648740E+02  0.51100000000E-03 0. -1.
        -11    1    3    3    0    0 -0.95675384657E+01 -0.57757640354E+01  0.15394592451E+01  0.11281275527E+02  0.51100000000E-03 0.  1.
         12    1    3    3    0    0 -0.22751589901E+02  0.33821141915E+01 -0.35592503275E+01  0.23275347523E+02  0.00000000000E+00 0. -1.
</event>
<event>
 7    1  0.1400974E-009  0.4778727E+02  0.7816164E-02  0.1312668E+00
        -11   -1    0    0    0    0  0.00000000000E+00  0.00000000000E+00  0.45593999997E+02  0.45594000000E+02  0.51100000000E-03 0.  1.
         11   -1    0    0    0    0 -0.00000000000E+00 -0.00000000000E+00 -0.45593999997E+02  0.45594000000E+02  0.51100000000E-03 0. -1.
    9900012    2    1    2    0    0 -0.13793401469E+02 -0.32137777712E+02 -0.25700755209E+02  0.47787268455E+02  0.19999988193E+02 0.  0.
        -12    1    1    2    0    0  0.13793401469E+02  0.32137777712E+02  0.25700755209E+02  0.43400731545E+02  0.00000000000E+00 0.  1.
         11    1    3    3    0    0 -0.51805623318E+01 -0.12547504205E+02 -0.81860159904E+01  0.15852095947E+02  0.51100000000E-03 0. -1.
        -11    1    3    3    0    0  0.33369278290E+01 -0.64417573288E+00  0.15939034635E+00  0.34022720724E+01  0.51100000000E-03 0.  1.
         12    1    3    3    0    0 -0.11949766966E+02 -0.18946097774E+02 -0.17674129565E+02  0.28532900436E+02  0.00000000000E+00 0. -1.
</event>
<event>
 7    1  0.1400974E-009  0.4778725E+02  0.7816164E-02  0.1312668E+00
        -11   -1    0    0    0    0  0.00000000000E+00  0.00000000000E+00  0.45593999997E+02  0.45594000000E+02  0.51100000000E-03 0. -1.
         11   -1    0    0    0    0 -0.00000000000E+00 -0.00000000000E+00 -0.45593999997E+02  0.45594000000E+02  0.51100000000E-03 0.  1.
    9900012    2    1    2    0    0 -0.37458888913E+01  0.19687672430E+02  0.38496611267E+02  0.47787248758E+02  0.19999898388E+02 0.  0.
        -12    1    1    2    0    0  0.37458888913E+01 -0.19687672430E+02 -0.38496611267E+02  0.43400751242E+02  0.00000000000E+00 0.  1.
         11    1    3    3    0    0 -0.26339265073E+01  0.52536907102E+01  0.34524367926E+01  0.68160219331E+01  0.51100000000E-03 0.  1.
        -11    1    3    3    0    0 -0.47827420486E+01  0.59002360641E+01  0.28783549693E+02  0.29768777945E+02  0.51100000000E-03 0. -1.
         12    1    3    3    0    0  0.36707796646E+01  0.85337456558E+01  0.62606247813E+01  0.11202448880E+02  0.00000000000E+00 0. -1.
</event>
<event>
 7    1  0.1400974E-009  0.4778729E+02  0.7816164E-02  0.1312668E+00
        -11   -1    0    0    0    0  0.00000000000E+00  0.00000000000E+00  0.45593999997E+02  0.45594000000E+02  0.51100000000E-03 0.  1.
         11   -1    0    0    0    0 -0.00000000000E+00 -0.00000000000E+00 -0.45593999997E+02  0.45594000000E+02  0.51100000000E-03 0. -1.
    9900012    2    1    2    0    0  0.35759639207E+02 -0.18400983412E+02 -0.16317898724E+02  0.47787287961E+02  0.20000077128E+02 0.  0.
        -12    1    1    2    0    0 -0.35759639207E+02  0.18400983412E+02  0.16317898724E+02  0.43400712039E+02  0.00000000000E+00 0.  1.
         11    1    3    3    0    0  0.22464240591E+02 -0.77912570985E+01 -0.10725798820E+02  0.26084258722E+02  0.51100000000E-03 0. -1.
        -11    1    3    3    0    0  0.69137015071E+01 -0.39220343475E+01  0.35468451988E+01  0.87041216144E+01  0.51100000000E-03 0.  1.
         12    1    3    3    0    0  0.63816971090E+01 -0.66876919659E+01 -0.91389451028E+01  0.12998907624E+02  0.00000000000E+00 0. -1.
</event>
<event>
 7    1  0.1400974E-009  0.4778726E+02  0.7816164E-02  0.1312668E+00
        -11   -1    0    0    0    0  0.00000000000E+00  0.00000000000E+00  0.45593999997E+02  0.45594000000E+02  0.51100000000E-03 0. -1.
         11   -1    0    0    0    0 -0.00000000000E+00 -0.00000000000E+00 -0.45593999997E+02  0.45594000000E+02  0.51100000000E-03 0.  1.
    9900012    2    1    2    0    0 -0.39355750759E+02 -0.15225030250E+01  0.18232685434E+02  0.47787263239E+02  0.19999964411E+02 0.  0.
        -12    1    1    2    0    0  0.39355750759E+02  0.15225030250E+01 -0.18232685434E+02  0.43400736761E+02  0.00000000000E+00 0.  1.
         11    1    3    3    0    0 -0.12673881667E+02  0.18309144390E+01  0.99650840807E+01  0.16225979945E+02  0.51100000000E-03 0. -1.
        -11    1    3    3    0    0 -0.22452863222E+02 -0.82689032432E+01  0.57732125049E+01  0.24613732155E+02  0.51100000000E-03 0.  1.
        -12    1    3    3    0    0 -0.42290058707E+01  0.49154857792E+01  0.24943888486E+01  0.69475511389E+01  0.00000000000E+00 0.  1.
</event>
<event>
 7    1  0.1400974E-009  0.4778727E+02  0.7816164E-02  0.1312668E+00
        -11   -1    0    0    0    0  0.00000000000E+00  0.00000000000E+00  0.45593999997E+02  0.45594000000E+02  0.51100000000E-03 0.  1.
         11   -1    0    0    0    0 -0.00000000000E+00 -0.00000000000E+00 -0.45593999997E+02  0.45594000000E+02  0.51100000000E-03 0. -1.
    9900012    2    1    2    0    0  0.22332080385E+02  0.16068264188E+02 -0.33566536103E+02  0.47787271039E+02  0.19999999977E+02 0.  0.
        -12    1    1    2    0    0 -0.22332080385E+02 -0.16068264188E+02  0.33566536103E+02  0.43400728961E+02  0.00000000000E+00 0.  1.
         11    1    3    3    0    0  0.13786558427E+02  0.12904609120E+02 -0.14260152353E+02  0.23663264255E+02  0.51100000000E-03 0. -1.
        -11    1    3    3    0    0  0.95718850632E+01  0.42108630084E+01 -0.19948541343E+02  0.22523246944E+02  0.51100000000E-03 0.  1.
        -12    1    3    3    0    0 -0.10263631047E+01 -0.10472079400E+01  0.64215759329E+00  0.16007598405E+01  0.00000000000E+00 0.  1.
</event>
<event>
 7    1  0.1400974E-009  0.4778727E+02  0.7816164E-02  0.1312668E+00
        -11   -1    0    0    0    0  0.00000000000E+00  0.00000000000E+00  0.45593999997E+02  0.45594000000E+02  0.51100000000E-03 0. -1.
         11   -1    0    0    0    0 -0.00000000000E+00 -0.00000000000E+00 -0.45593999997E+02  0.45594000000E+02  0.51100000000E-03 0.  1.
    9900012    2    1    2    0    0 -0.29569301805E+02  0.29442675286E+02 -0.11933503828E+02  0.47787271310E+02  0.20000001211E+02 0.  0.
        -12    1    1    2    0    0  0.29569301805E+02 -0.29442675286E+02  0.11933503828E+02  0.43400728690E+02  0.00000000000E+00 0.  1.
         11    1    3    3    0    0  0.64155240948E+00  0.34119517791E+00 -0.20760396659E+01  0.21995328138E+01  0.51100000000E-03 0. -1.
        -11    1    3    3    0    0 -0.66063783087E+01 -0.47730038596E+00 -0.21878662934E+01  0.69755866560E+01  0.51100000000E-03 0.  1.
         12    1    3    3    0    0 -0.23604475906E+02  0.29578780494E+02 -0.76695978686E+01  0.38612151840E+02  0.00000000000E+00 0. -1.
</event>
<event>
 7    1  0.1400974E-009  0.4778728E+02  0.7816164E-02  0.1312668E+00
        -11   -1    0    0    0    0  0.00000000000E+00  0.00000000000E+00  0.45593999997E+02  0.45594000000E+02  0.51100000000E-03 0.  1.
         11   -1    0    0    0    0 -0.00000000000E+00 -0.00000000000E+00 -0.45593999997E+02  0.45594000000E+02  0.51100000000E-03 0. -1.
    9900012    2    1    2    0    0 -0.15351284343E+02  0.84761541717E+01 -0.39700322142E+02  0.47787277671E+02  0.20000030212E+02 0.  0.
        -12    1    1    2    0    0  0.15351284343E+02 -0.84761541717E+01  0.39700322142E+02  0.43400722329E+02  0.00000000000E+00 0.  1.
         11    1    3    3    0    0 -0.47971571114E+01  0.46244003232E+01 -0.37222717292E+01  0.76323719634E+01  0.51100000000E-03 0. -1.
        -11    1    3    3    0    0 -0.17194526757E+00 -0.21664465656E+01 -0.20276534416E+02  0.20392667900E+02  0.51100000000E-03 0.  1.
         12    1    3    3    0    0 -0.10382181964E+02  0.60182004141E+01 -0.15701515997E+02  0.19762237807E+02  0.00000000000E+00 0. -1.
</event>
<event>
 7    1  0.1400974E-009  0.4778727E+02  0.7816164E-02  0.1312668E+00
        -11   -1    0    0    0    0  0.00000000000E+00  0.00000000000E+00  0.45593999997E+02  0.45594000000E+02  0.51100000000E-03 0.  1.
         11   -1    0    0    0    0 -0.00000000000E+00 -0.00000000000E+00 -0.45593999997E+02  0.45594000000E+02  0.51100000000E-03 0. -1.
    9900012    2    1    2    0    0  0.80660728781E+01  0.12556434828E+01 -0.42626109359E+02  0.47787269922E+02  0.19999994882E+02 0.  0.
        -12    1    1    2    0    0 -0.80660728781E+01 -0.12556434828E+01  0.42626109359E+02  0.43400730078E+02  0.00000000000E+00 0.  1.
         11    1    3    3    0    0  0.31648547628E+01  0.11533345283E+01 -0.19655021382E+02  0.19941573459E+02  0.51100000000E-03 0. -1.
        -11    1    3    3    0    0 -0.40225462959E+01  0.35110447217E+01 -0.42351528871E+01  0.68150446791E+01  0.51100000000E-03 0.  1.
         12    1    3    3    0    0  0.89237644112E+01 -0.34087357672E+01 -0.18735935089E+02  0.21030651784E+02  0.00000000000E+00 0. -1.
</event>
<event>
 7    1  0.1400974E-009  0.4778727E+02  0.7816164E-02  0.1312668E+00
        -11   -1    0    0    0    0  0.00000000000E+00  0.00000000000E+00  0.45593999997E+02  0.45594000000E+02  0.51100000000E-03 0. -1.
         11   -1    0    0    0    0 -0.00000000000E+00 -0.00000000000E+00 -0.45593999997E+02  0.45594000000E+02  0.51100000000E-03 0.  1.
    9900012    2    1    2    0    0 -0.20656348485E+01  0.43317302659E+02  0.17226604136E+01  0.47787272864E+02  0.20000008298E+02 0.  0.
        -12    1    1    2    0    0  0.20656348485E+01 -0.43317302659E+02 -0.17226604136E+01  0.43400727136E+02  0.00000000000E+00 0.  1.
         11    1    3    3    0    0 -0.79840930247E+00  0.29908142556E+02  0.14614210833E+01  0.29954468789E+02  0.51100000000E-03 0. -1.
        -11    1    3    3    0    0 -0.30536529081E+01  0.89174149582E+01 -0.50151016572E+01  0.10676906411E+02  0.51100000000E-03 0.  1.
        -12    1    3    3    0    0  0.17864273621E+01  0.44917451448E+01  0.52763409876E+01  0.71558976644E+01  0.00000000000E+00 0.  1.
</event>
<event>
 7    1  0.1400974E-009  0.4778727E+02  0.7816164E-02  0.1312668E+00
        -11   -1    0    0    0    0  0.00000000000E+00  0.00000000000E+00  0.45593999997E+02  0.45594000000E+02  0.51100000000E-03 0.  1.
         11   -1    0    0    0    0 -0.00000000000E+00 -0.00000000000E+00 -0.45593999997E+02  0.45594000000E+02  0.51100000000E-03 0. -1.
    9900012    2    1    2    0    0  0.57845228204E+01  0.31360879375E+02 -0.29439052652E+02  0.47787270969E+02  0.19999999655E+02 0.  0.
        -12    1    1    2    0    0 -0.57845228204E+01 -0.31360879375E+02  0.29439052652E+02  0.43400729031E+02  0.00000000000E+00 0.  1.
         11    1    3    3    0    0  0.11155857817E+01  0.38688350846E+01 -0.11803649452E+02  0.12471509821E+02  0.51100000000E-03 0. -1.
        -11    1    3    3    0    0  0.87869879325E+01  0.15535817762E+02 -0.88843878188E+01  0.19937530881E+02  0.51100000000E-03 0.  1.
         12    1    3    3    0    0 -0.41180508938E+01  0.11956226528E+02 -0.87510153807E+01  0.15378230267E+02  0.00000000000E+00 0. -1.
</event>
<event>
 7    1  0.1400974E-009  0.4778727E+02  0.7816164E-02  0.1312668E+00
        -11   -1    0    0    0    0  0.00000000000E+00  0.00000000000E+00  0.45593999997E+02  0.45594000000E+02  0.51100000000E-03 0.  1.
         11   -1    0    0    0    0 -0.00000000000E+00 -0.00000000000E+00 -0.45593999997E+02  0.45594000000E+02  0.51100000000E-03 0. -1.
    9900012    2    1    2    0    0  0.16028600737E+02  0.16669014641E+02 -0.36726715665E+02  0.47787265741E+02  0.19999975821E+02 0.  0.
        -12    1    1    2    0    0 -0.16028600737E+02 -0.16669014641E+02  0.36726715665E+02  0.43400734259E+02  0.00000000000E+00 0.  1.
         11    1    3    3    0    0  0.11399010432E+02  0.12012650222E+02 -0.89523938336E+01  0.18825157630E+02  0.51100000000E-03 0. -1.
        -11    1    3    3    0    0 -0.47949182561E+00  0.22482753251E+01 -0.50875020407E+01  0.55827709628E+01  0.51100000000E-03 0.  1.
         12    1    3    3    0    0  0.51090821306E+01  0.24080890935E+01 -0.22686819790E+02  0.23379337148E+02  0.00000000000E+00 0. -1.
</event>
<event>
 7    1  0.1400974E-009  0.4778727E+02  0.7816164E-02  0.1312668E+00
        -11   -1    0    0    0    0  0.00000000000E+00  0.00000000000E+00  0.45593999997E+02  0.45594000000E+02  0.51100000000E-03 0.  1.
         11   -1    0    0    0    0 -0.00000000000E+00 -0.00000000000E+00 -0.45593999997E+02  0.45594000000E+02  0.51100000000E-03 0. -1.
    9900012    2    1    2    0    0  0.29563447076E+02  0.10034787724E+02 -0.30148447774E+02  0.47787271079E+02  0.20000000159E+02 0.  0.
        -12    1    1    2    0    0 -0.29563447076E+02 -0.10034787724E+02  0.30148447774E+02  0.43400728921E+02  0.00000000000E+00 0.  1.
         11    1    3    3    0    0  0.13647884598E+02  0.90113889724E+01 -0.10447142599E+02  0.19406511122E+02  0.51100000000E-03 0. -1.
        -11    1    3    3    0    0  0.18270941235E+01  0.31845770162E+01  0.44914741949E+00  0.36988562251E+01  0.51100000000E-03 0.  1.
        -12    1    3    3    0    0  0.14088468355E+02 -0.21611782643E+01 -0.20150452594E+02  0.24681903732E+02  0.00000000000E+00 0.  1.
</event>
<event>
 7    1  0.1400974E-009  0.4778728E+02  0.7816164E-02  0.1312668E+00
        -11   -1    0    0    0    0  0.00000000000E+00  0.00000000000E+00  0.45593999997E+02  0.45594000000E+02  0.51100000000E-03 0. -1.
         11   -1    0    0    0    0 -0.00000000000E+00 -0.00000000000E+00 -0.45593999997E+02  0.45594000000E+02  0.51100000000E-03 0.  1.
    9900012    2    1    2    0    0  0.31898151403E+02  0.21913873924E+01  0.29348398615E+02  0.47787277162E+02  0.20000027891E+02 0.  0.
        -12    1    1    2    0    0 -0.31898151403E+02 -0.21913873924E+01 -0.29348398615E+02  0.43400722838E+02  0.00000000000E+00 0.  1.
         11    1    3    3    0    0  0.12447703620E+01 -0.47881479804E+01  0.57910019095E+00  0.49810813714E+01  0.51100000000E-03 0. -1.
        -11    1    3    3    0    0  0.95845971172E+01  0.36618446776E+01  0.11035203830E+02  0.15068156230E+02  0.51100000000E-03 0.  1.
         12    1    3    3    0    0  0.21068783924E+02  0.33176906952E+01  0.17734094594E+02  0.27738039560E+02  0.00000000000E+00 0. -1.
</event>
<event>
 7    1  0.1400974E-009  0.4778727E+02  0.7816164E-02  0.1312668E+00
        -11   -1    0    0    0    0  0.00000000000E+00  0.00000000000E+00  0.45593999997E+02  0.45594000000E+02  0.51100000000E-03 0.  1.
         11   -1    0    0    0    0 -0.00000000000E+00 -0.00000000000E+00 -0.45593999997E+02  0.45594000000E+02  0.51100000000E-03 0. -1.
    9900012    2    1    2    0    0 -0.13859641606E+02 -0.40674804987E+02 -0.60904925274E+01  0.47787268146E+02  0.19999986787E+02 0.  0.
        -12    1    1    2    0    0  0.13859641606E+02  0.40674804987E+02  0.60904925274E+01  0.43400731854E+02  0.00000000000E+00 0.  1.
         11    1    3    3    0    0 -0.10014557370E+02 -0.32626288093E+02 -0.19747826626E+01  0.34185754356E+02  0.51100000000E-03 0. -1.
        -11    1    3    3    0    0 -0.66588944609E+00 -0.81888273729E+01 -0.57461171346E+01  0.10025874769E+02  0.51100000000E-03 0.  1.
        -12    1    3    3    0    0 -0.31791947906E+01  0.14031047889E+00  0.16304072698E+01  0.35756390216E+01  0.00000000000E+00 0.  1.
</event>
<event>
 7    1  0.1400974E-009  0.4778729E+02  0.7816164E-02  0.1312668E+00
        -11   -1    0    0    0    0  0.00000000000E+00  0.00000000000E+00  0.45593999997E+02  0.45594000000E+02  0.51100000000E-03 0.  1.
         11   -1    0    0    0    0 -0.00000000000E+00 -0.00000000000E+00 -0.45593999997E+02  0.45594000000E+02  0.51100000000E-03 0. -1.
    9900012    2    1    2    0    0 -0.50715595457E+01  0.40032234935E+02 -0.15978783077E+02  0.47787285044E+02  0.20000063828E+02 0.  0.
        -12    1    1    2    0    0  0.50715595457E+01 -0.40032234935E+02  0.15978783077E+02  0.43400714956E+02  0.00000000000E+00 0.  1.
         11    1    3    3    0    0 -0.47930710011E+01  0.10814094006E+02 -0.75520898686E+01  0.14033966668E+02  0.51100000000E-03 0. -1.
        -11    1    3    3    0    0 -0.10645024645E+01  0.19655158402E+02  0.17558922230E+01  0.19762124761E+02  0.51100000000E-03 0.  1.
        -12    1    3    3    0    0  0.78601391999E+00  0.95629825264E+01 -0.10182585432E+02  0.13991193614E+02  0.00000000000E+00 0.  1.
</event>
<event>
 7    1  0.1400974E-009  0.4778728E+02  0.7816164E-02  0.1312668E+00
        -11   -1    0    0    0    0  0.00000000000E+00  0.00000000000E+00  0.45593999997E+02  0.45594000000E+02  0.51100000000E-03 0.  1.
         11   -1    0    0    0    0 -0.00000000000E+00 -0.00000000000E+00 -0.45593999997E+02  0.45594000000E+02  0.51100000000E-03 0. -1.
    9900012    2    1    2    0    0 -0.20459995543E+01 -0.21700265770E+02 -0.37530450867E+02  0.47787281216E+02  0.20000046377E+02 0.  0.
        -12    1    1    2    0    0  0.20459995543E+01  0.21700265770E+02  0.37530450867E+02  0.43400718784E+02  0.00000000000E+00 0.  1.
         11    1    3    3    0    0  0.52194263783E+01 -0.59323815484E+01 -0.13413951993E+02  0.15568226324E+02  0.51100000000E-03 0. -1.
        -11    1    3    3    0    0 -0.20754694018E+01 -0.84103788121E+01 -0.28407983677E+01  0.91165882120E+01  0.51100000000E-03 0.  1.
         12    1    3    3    0    0 -0.51899565308E+01 -0.73575054091E+01 -0.21275700507E+02  0.23102466680E+02  0.00000000000E+00 0. -1.
</event>
<event>
 7    1  0.1400974E-009  0.4778727E+02  0.7816164E-02  0.1312668E+00
        -11   -1    0    0    0    0  0.00000000000E+00  0.00000000000E+00  0.45593999997E+02  0.45594000000E+02  0.51100000000E-03 0.  1.
         11   -1    0    0    0    0 -0.00000000000E+00 -0.00000000000E+00 -0.45593999997E+02  0.45594000000E+02  0.51100000000E-03 0. -1.
    9900012    2    1    2    0    0  0.28437032229E+02  0.26980819355E+02 -0.18627765886E+02  0.47787273313E+02  0.20000010343E+02 0.  0.
        -12    1    1    2    0    0 -0.28437032229E+02 -0.26980819355E+02  0.18627765886E+02  0.43400726687E+02  0.00000000000E+00 0.  1.
         11    1    3    3    0    0  0.22025337111E+02  0.15883086257E+02 -0.12537769976E+02  0.29909590103E+02  0.51100000000E-03 0. -1.
        -11    1    3    3    0    0  0.43371044148E+01  0.77034809848E+00  0.17569938726E+01  0.47424612415E+01  0.51100000000E-03 0.  1.
        -12    1    3    3    0    0  0.20745907033E+01  0.10327384999E+02 -0.78469897828E+01  0.13135221968E+02  0.00000000000E+00 0.  1.
</event>
<event>
 7    1  0.1400974E-009  0.4778727E+02  0.7816164E-02  0.1312668E+00
        -11   -1    0    0    0    0  0.00000000000E+00  0.00000000000E+00  0.45593999997E+02  0.45594000000E+02  0.51100000000E-03 0. -1.
         11   -1    0    0    0    0 -0.00000000000E+00 -0.00000000000E+00 -0.45593999997E+02  0.45594000000E+02  0.51100000000E-03 0.  1.
    9900012    2    1    2    0    0 -0.14764945379E+02  0.20937235159E+02  0.35032153448E+02  0.47787271857E+02  0.20000003704E+02 0.  0.
        -12    1    1    2    0    0  0.14764945379E+02 -0.20937235159E+02 -0.35032153448E+02  0.43400728143E+02  0.00000000000E+00 0.  1.
         11    1    3    3    0    0 -0.63179551058E+01  0.15117574173E+02  0.15147399639E+02  0.22313702555E+02  0.51100000000E-03 0.  1.
        -11    1    3    3    0    0 -0.78767478975E+01  0.50535413595E+01  0.21583327322E+02  0.23524911398E+02  0.51100000000E-03 0. -1.
         12    1    3    3    0    0 -0.57024237610E+00  0.76611962619E+00 -0.16985735133E+01  0.19486579046E+01  0.00000000000E+00 0. -1.
</event>
<event>
 7    1  0.1400974E-009  0.4778726E+02  0.7816164E-02  0.1312668E+00
        -11   -1    0    0    0    0  0.00000000000E+00  0.00000000000E+00  0.45593999997E+02  0.45594000000E+02  0.51100000000E-03 0.  1.
         11   -1    0    0    0    0 -0.00000000000E+00 -0.00000000000E+00 -0.45593999997E+02  0.45594000000E+02  0.51100000000E-03 0. -1.
    9900012    2    1    2    0    0 -0.27601197683E+02 -0.32055999412E+02  0.97062240381E+01  0.47787262714E+02  0.19999962019E+02 0.  0.
        -12    1    1    2    0    0  0.27601197683E+02  0.32055999412E+02 -0.97062240381E+01  0.43400737286E+02  0.00000000000E+00 0.  1.
         11    1    3    3    0    0 -0.77853200688E+00 -0.72881373554E+01  0.39025428970E+01  0.83037882633E+01  0.51100000000E-03 0.  1.
        -11    1    3    3    0    0 -0.98796206133E+01 -0.18528025671E+02  0.32973491486E+01  0.21254814758E+02  0.51100000000E-03 0. -1.
        -12    1    3    3    0    0 -0.16943045063E+02 -0.62398363854E+01  0.25063319924E+01  0.18228659693E+02  0.00000000000E+00 0.  1.
</event>
<event>
 7    1  0.1400974E-009  0.4778727E+02  0.7816164E-02  0.1312668E+00
        -11   -1    0    0    0    0  0.00000000000E+00  0.00000000000E+00  0.45593999997E+02  0.45594000000E+02  0.51100000000E-03 0.  1.
         11   -1    0    0    0    0 -0.00000000000E+00 -0.00000000000E+00 -0.45593999997E+02  0.45594000000E+02  0.51100000000E-03 0. -1.
    9900012    2    1    2    0    0 -0.36904029739E+01  0.13132584423E+02 -0.41201209458E+02  0.47787268341E+02  0.19999987673E+02 0.  0.
        -12    1    1    2    0    0  0.36904029739E+01 -0.13132584423E+02  0.41201209458E+02  0.43400731659E+02  0.00000000000E+00 0.  1.
         11    1    3    3    0    0  0.21728711014E+01 -0.65882861871E+00 -0.18834610921E+02  0.18970977644E+02  0.51100000000E-03 0. -1.
        -11    1    3    3    0    0  0.18511047492E+01  0.73219510599E+01 -0.62013918060E+01  0.97721449390E+01  0.51100000000E-03 0.  1.
        -12    1    3    3    0    0 -0.77143788244E+01  0.64694619814E+01 -0.16165206731E+02  0.19044145757E+02  0.00000000000E+00 0.  1.
</event>
<event>
 7    1  0.1400974E-009  0.4778727E+02  0.7816164E-02  0.1312668E+00
        -11   -1    0    0    0    0  0.00000000000E+00  0.00000000000E+00  0.45593999997E+02  0.45594000000E+02  0.51100000000E-03 0.  1.
         11   -1    0    0    0    0 -0.00000000000E+00 -0.00000000000E+00 -0.45593999997E+02  0.45594000000E+02  0.51100000000E-03 0. -1.
    9900012    2    1    2    0    0 -0.18564841676E+02 -0.88754521812E+01 -0.38212516296E+02  0.47787269597E+02  0.19999993399E+02 0.  0.
        -12    1    1    2    0    0  0.18564841676E+02  0.88754521812E+01  0.38212516296E+02  0.43400730403E+02  0.00000000000E+00 0.  1.
         11    1    3    3    0    0  0.24176684482E+01  0.11782544909E-01 -0.41542968013E+01  0.48066039704E+01  0.51100000000E-03 0. -1.
        -11    1    3    3    0    0  0.64129166009E+00 -0.10059415743E+01 -0.85148161692E+01  0.85979804664E+01  0.51100000000E-03 0.  1.
         12    1    3    3    0    0 -0.21623801785E+02 -0.78812931519E+01 -0.25543403325E+02  0.34382685160E+02  0.00000000000E+00 0. -1.
</event>
<event>
 7    1  0.1400974E-009  0.4778727E+02  0.7816164E-02  0.1312668E+00
        -11   -1    0    0    0    0  0.00000000000E+00  0.00000000000E+00  0.45593999997E+02  0.45594000000E+02  0.51100000000E-03 0. -1.
         11   -1    0    0    0    0 -0.00000000000E+00 -0.00000000000E+00 -0.45593999997E+02  0.45594000000E+02  0.51100000000E-03 0.  1.
    9900012    2    1    2    0    0  0.43159880059E+02 -0.27273183356E+00  0.45578610971E+01  0.47787265822E+02  0.19999976189E+02 0.  0.
        -12    1    1    2    0    0 -0.43159880059E+02  0.27273183356E+00 -0.45578610971E+01  0.43400734178E+02  0.00000000000E+00 0.  1.
         11    1    3    3    0    0  0.10001882430E+02 -0.50415060511E+01 -0.53451424596E+01  0.12410680223E+02  0.51100000000E-03 0. -1.
        -11    1    3    3    0    0  0.15522555036E+01  0.10528146511E+01  0.16556580304E+01  0.25018232577E+01  0.51100000000E-03 0.  1.
         12    1    3    3    0    0  0.31605742126E+02  0.37159595665E+01  0.82473455262E+01  0.32874762342E+02  0.00000000000E+00 0. -1.
</event>
<event>
 7    1  0.1400974E-009  0.4778728E+02  0.7816164E-02  0.1312668E+00
        -11   -1    0    0    0    0  0.00000000000E+00  0.00000000000E+00  0.45593999997E+02  0.45594000000E+02  0.51100000000E-03 0.  1.
         11   -1    0    0    0    0 -0.00000000000E+00 -0.00000000000E+00 -0.45593999997E+02  0.45594000000E+02  0.51100000000E-03 0. -1.
    9900012    2    1    2    0    0  0.54543039048E+01  0.23159174487E+02 -0.36297740341E+02  0.47787277104E+02  0.20000027629E+02 0.  0.
        -12    1    1    2    0    0 -0.54543039048E+01 -0.23159174487E+02  0.36297740341E+02  0.43400722896E+02  0.00000000000E+00 0.  1.
         11    1    3    3    0    0  0.23813877836E+01 -0.94123615822E+00 -0.28503858147E+01  0.38316618895E+01  0.51100000000E-03 0. -1.
        -11    1    3    3    0    0 -0.47870522259E+01  0.45281594948E+01 -0.13025605820E+02  0.14597482820E+02  0.51100000000E-03 0.  1.
         12    1    3    3    0    0  0.78599683471E+01  0.19572251150E+02 -0.20421748706E+02  0.29358132395E+02  0.00000000000E+00 0. -1.
</event>
<event>
 7    1  0.1504381E-009  0.4778727E+02  0.7816164E-02  0.1312668E+00
        -11   -1    0    0    0    0  0.00000000000E+00  0.00000000000E+00  0.45593999997E+02  0.45594000000E+02  0.51100000000E-03 0.  1.
         11   -1    0    0    0    0 -0.00000000000E+00 -0.00000000000E+00 -0.45593999997E+02  0.45594000000E+02  0.51100000000E-03 0. -1.
    9900012    2    1    2    0    0  0.29586092101E+02  0.19791312290E+02 -0.24831235789E+02  0.47787272370E+02  0.20000006045E+02 0.  0.
        -12    1    1    2    0    0 -0.29586092101E+02 -0.19791312290E+02  0.24831235789E+02  0.43400727630E+02  0.00000000000E+00 0.  1.
         11    1    3    3    0    0  0.13030352212E+02  0.12390764567E+02 -0.76053694955E+01  0.19523390350E+02  0.51100000000E-03 0. -1.
        -11    1    3    3    0    0  0.32586915551E+01 -0.19478303861E+01  0.91609505815E+00  0.39054249809E+01  0.51100000000E-03 0.  1.
        -12    1    3    3    0    0  0.13297048333E+02  0.93483781093E+01 -0.18141961352E+02  0.24358457040E+02  0.00000000000E+00 0.  1.
</event>
<event>
 7    1  0.1400974E-009  0.4778727E+02  0.7816164E-02  0.1312668E+00
        -11   -1    0    0    0    0  0.00000000000E+00  0.00000000000E+00  0.45593999997E+02  0.45594000000E+02  0.51100000000E-03 0.  1.
         11   -1    0    0    0    0 -0.00000000000E+00 -0.00000000000E+00 -0.45593999997E+02  0.45594000000E+02  0.51100000000E-03 0. -1.
    9900012    2    1    2    0    0  0.10613871099E+02 -0.41417625253E+02  0.74531473817E+01  0.47787270200E+02  0.19999996151E+02 0.  0.
        -12    1    1    2    0    0 -0.10613871099E+02  0.41417625253E+02 -0.74531473817E+01  0.43400729800E+02  0.00000000000E+00 0.  1.
         11    1    3    3    0    0  0.18754963429E+01 -0.14115586213E+02  0.38314201004E+01  0.14746085613E+02  0.51100000000E-03 0. -1.
        -11    1    3    3    0    0  0.11735500751E+02 -0.15420998056E+02 -0.21484337389E+01  0.19497305627E+02  0.51100000000E-03 0.  1.
         12    1    3    3    0    0 -0.29971259953E+01 -0.11881040984E+02  0.57701610202E+01  0.13543878960E+02  0.00000000000E+00 0. -1.
</event>
<event>
 7    1  0.1400974E-009  0.4778726E+02  0.7816164E-02  0.1312668E+00
        -11   -1    0    0    0    0  0.00000000000E+00  0.00000000000E+00  0.45593999997E+02  0.45594000000E+02  0.51100000000E-03 0.  1.
         11   -1    0    0    0    0 -0.00000000000E+00 -0.00000000000E+00 -0.45593999997E+02  0.45594000000E+02  0.51100000000E-03 0. -1.
    9900012    2    1    2    0    0 -0.22759851635E+02 -0.23383669226E+01 -0.36880155281E+02  0.47787255077E+02  0.19999927200E+02 0.  0.
        -12    1    1    2    0    0  0.22759851635E+02  0.23383669226E+01  0.36880155281E+02  0.43400744923E+02  0.00000000000E+00 0.  1.
         11    1    3    3    0    0 -0.10243528525E+02 -0.54990991080E+01 -0.16860541738E+02  0.20480425670E+02  0.51100000000E-03 0. -1.
        -11    1    3    3    0    0 -0.13317438440E+02  0.62550204580E+01 -0.13163533779E+02  0.19742291391E+02  0.51100000000E-03 0.  1.
         12    1    3    3    0    0  0.80111533081E+00 -0.30942882727E+01 -0.68560797634E+01  0.75645380170E+01  0.00000000000E+00 0. -1.
</event>
<event>
 7    1  0.1400974E-009  0.4778727E+02  0.7816164E-02  0.1312668E+00
        -11   -1    0    0    0    0  0.00000000000E+00  0.00000000000E+00  0.45593999997E+02  0.45594000000E+02  0.51100000000E-03 0.  1.
         11   -1    0    0    0    0 -0.00000000000E+00 -0.00000000000E+00 -0.45593999997E+02  0.45594000000E+02  0.51100000000E-03 0. -1.
    9900012    2    1    2    0    0 -0.12904557796E+02  0.10887756498E+02 -0.39981907671E+02  0.47787265047E+02  0.19999972653E+02 0.  0.
        -12    1    1    2    0    0  0.12904557796E+02 -0.10887756498E+02  0.39981907671E+02  0.43400734953E+02  0.00000000000E+00 0.  1.
         11    1    3    3    0    0 -0.55767113528E+01 -0.12579678796E+01 -0.13370768161E+02  0.14541651701E+02  0.51100000000E-03 0. -1.
        -11    1    3    3    0    0  0.32754614004E+00  0.16332073351E+01 -0.16983734710E+02  0.17065224804E+02  0.51100000000E-03 0.  1.
        -12    1    3    3    0    0 -0.76553925833E+01  0.10512517042E+02 -0.96274048004E+01  0.16180388542E+02  0.00000000000E+00 0.  1.
</event>
<event>
 7    1  0.1400974E-009  0.4778727E+02  0.7816164E-02  0.1312668E+00
        -11   -1    0    0    0    0  0.00000000000E+00  0.00000000000E+00  0.45593999997E+02  0.45594000000E+02  0.51100000000E-03 0. -1.
         11   -1    0    0    0    0 -0.00000000000E+00 -0.00000000000E+00 -0.45593999997E+02  0.45594000000E+02  0.51100000000E-03 0.  1.
    9900012    2    1    2    0    0 -0.18238283777E+02  0.14828035685E+02  0.36484483773E+02  0.47787271970E+02  0.20000004219E+02 0.  0.
        -12    1    1    2    0    0  0.18238283777E+02 -0.14828035685E+02 -0.36484483773E+02  0.43400728030E+02  0.00000000000E+00 0.  1.
         11    1    3    3    0    0 -0.12408048451E+02  0.93067050634E+01  0.18312880085E+02  0.23998666687E+02  0.51100000000E-03 0. -1.
        -11    1    3    3    0    0 -0.28552452596E+01  0.97456208234E+01  0.11327034062E+02  0.15212864675E+02  0.51100000000E-03 0.  1.
         12    1    3    3    0    0 -0.29749900664E+01 -0.42242902015E+01  0.68445696264E+01  0.85757406078E+01  0.00000000000E+00 0. -1.
</event>
<event>
 7    1  0.1400974E-009  0.4778727E+02  0.7816164E-02  0.1312668E+00
        -11   -1    0    0    0    0  0.00000000000E+00  0.00000000000E+00  0.45593999997E+02  0.45594000000E+02  0.51100000000E-03 0.  1.
         11   -1    0    0    0    0 -0.00000000000E+00 -0.00000000000E+00 -0.45593999997E+02  0.45594000000E+02  0.51100000000E-03 0. -1.
    9900012    2    1    2    0    0  0.32753221286E+02  0.21263696952E+02 -0.18939504051E+02  0.47787272744E+02  0.20000007749E+02 0.  0.
        -12    1    1    2    0    0 -0.32753221286E+02 -0.21263696952E+02  0.18939504051E+02  0.43400727256E+02  0.00000000000E+00 0.  1.
         11    1    3    3    0    0  0.16000412908E+02  0.49581568974E+01 -0.21198556573E+01  0.16884617891E+02  0.51100000000E-03 0. -1.
        -11    1    3    3    0    0  0.17685637330E+02  0.15517483056E+02 -0.12974836015E+02  0.26868576778E+02  0.51100000000E-03 0.  1.
        -12    1    3    3    0    0 -0.93282895326E+00  0.78805699880E+00 -0.38448123789E+01  0.40340780754E+01  0.00000000000E+00 0.  1.
</event>
<event>
 7    1  0.1400974E-009  0.4778727E+02  0.7816164E-02  0.1312668E+00
        -11   -1    0    0    0    0  0.00000000000E+00  0.00000000000E+00  0.45593999997E+02  0.45594000000E+02  0.51100000000E-03 0.  1.
         11   -1    0    0    0    0 -0.00000000000E+00 -0.00000000000E+00 -0.45593999997E+02  0.45594000000E+02  0.51100000000E-03 0. -1.
    9900012    2    1    2    0    0  0.15450181359E+02  0.35451170735E+02 -0.19701002317E+02  0.47787273015E+02  0.20000008986E+02 0.  0.
        -12    1    1    2    0    0 -0.15450181359E+02 -0.35451170735E+02  0.19701002317E+02  0.43400726985E+02  0.00000000000E+00 0.  1.
         11    1    3    3    0    0 -0.33289662785E+01  0.49760027847E+00 -0.19302515527E+01  0.38801409560E+01  0.51100000000E-03 0.  1.
        -11    1    3    3    0    0  0.69133362106E+01  0.96714597770E+01 -0.79546478163E+01  0.14304117377E+02  0.51100000000E-03 0. -1.
         12    1    3    3    0    0  0.11865811427E+02  0.25282110679E+02 -0.98161029481E+01  0.29603014683E+02  0.00000000000E+00 0. -1.
</event>
<event>
 7    1  0.1400974E-009  0.4778727E+02  0.7816164E-02  0.1312668E+00
        -11   -1    0    0    0    0  0.00000000000E+00  0.00000000000E+00  0.45593999997E+02  0.45594000000E+02  0.51100000000E-03 0.  1.
         11   -1    0    0    0    0 -0.00000000000E+00 -0.00000000000E+00 -0.45593999997E+02  0.45594000000E+02  0.51100000000E-03 0. -1.
    9900012    2    1    2    0    0 -0.47862939490E+01 -0.41986642703E+02 -0.98912362183E+01  0.47787270408E+02  0.19999997097E+02 0.  0.
        -12    1    1    2    0    0  0.47862939490E+01  0.41986642703E+02  0.98912362183E+01  0.43400729592E+02  0.00000000000E+00 0.  1.
         11    1    3    3    0    0 -0.57468765707E+01 -0.47188135051E+01 -0.65182739762E+01  0.98884623226E+01  0.51100000000E-03 0.  1.
        -11    1    3    3    0    0  0.30059957146E+01 -0.19949441354E+02 -0.34053208333E+01  0.20460020303E+02  0.51100000000E-03 0. -1.
        -12    1    3    3    0    0 -0.20454130929E+01 -0.17318387843E+02  0.32358591198E-01  0.17438787782E+02  0.00000000000E+00 0.  1.
</event>
<event>
 7    1  0.1400974E-009  0.4778724E+02  0.7816164E-02  0.1312668E+00
        -11   -1    0    0    0    0  0.00000000000E+00  0.00000000000E+00  0.45593999997E+02  0.45594000000E+02  0.51100000000E-03 0.  1.
         11   -1    0    0    0    0 -0.00000000000E+00 -0.00000000000E+00 -0.45593999997E+02  0.45594000000E+02  0.51100000000E-03 0. -1.
    9900012    2    1    2    0    0  0.91780855509E+01  0.33955664531E+02 -0.25424433186E+02  0.47787237208E+02  0.19999845725E+02 0.  0.
        -12    1    1    2    0    0 -0.91780855509E+01 -0.33955664531E+02  0.25424433186E+02  0.43400762792E+02  0.00000000000E+00 0.  1.
         11    1    3    3    0    0  0.34049956763E+01  0.11449318827E+02 -0.56681640012E+01  0.13221534728E+02  0.51100000000E-03 0. -1.
        -11    1    3    3    0    0 -0.44145258174E+01  0.11132037181E+01 -0.20884640086E+01  0.50088863919E+01  0.51100000000E-03 0.  1.
        -12    1    3    3    0    0  0.10187615692E+02  0.21393141986E+02 -0.17667805177E+02  0.29556816088E+02  0.00000000000E+00 0.  1.
</event>
<event>
 7    1  0.1400974E-009  0.4778727E+02  0.7816164E-02  0.1312668E+00
        -11   -1    0    0    0    0  0.00000000000E+00  0.00000000000E+00  0.45593999997E+02  0.45594000000E+02  0.51100000000E-03 0.  1.
         11   -1    0    0    0    0 -0.00000000000E+00 -0.00000000000E+00 -0.45593999997E+02  0.45594000000E+02  0.51100000000E-03 0. -1.
    9900012    2    1    2    0    0 -0.14258513427E+02  0.67306835869E+01 -0.40435332389E+02  0.47787269452E+02  0.19999992741E+02 0.  0.
        -12    1    1    2    0    0  0.14258513427E+02 -0.67306835869E+01  0.40435332389E+02  0.43400730548E+02  0.00000000000E+00 0.  1.
         11    1    3    3    0    0 -0.10898437930E+02 -0.42786136155E+00 -0.20261002151E+02  0.23010154782E+02  0.51100000000E-03 0. -1.
        -11    1    3    3    0    0 -0.40764271131E+01  0.46566712574E+01 -0.21285624502E+01  0.65446637479E+01  0.51100000000E-03 0.  1.
        -12    1    3    3    0    0  0.71635161623E+00  0.25018736911E+01 -0.18045767787E+02  0.18232450923E+02  0.00000000000E+00 0.  1.
</event>
<event>
 7    1  0.1400974E-009  0.4778727E+02  0.7816164E-02  0.1312668E+00
        -11   -1    0    0    0    0  0.00000000000E+00  0.00000000000E+00  0.45593999997E+02  0.45594000000E+02  0.51100000000E-03 0. -1.
         11   -1    0    0    0    0 -0.00000000000E+00 -0.00000000000E+00 -0.45593999997E+02  0.45594000000E+02  0.51100000000E-03 0.  1.
    9900012    2    1    2    0    0 -0.14526638133E+01 -0.92022036349E+01  0.42389058491E+02  0.47787273466E+02  0.20000011041E+02 0.  0.
        -12    1    1    2    0    0  0.14526638133E+01  0.92022036349E+01 -0.42389058491E+02  0.43400726534E+02  0.00000000000E+00 0.  1.
         11    1    3    3    0    0  0.38046733435E+01  0.30527391499E+01  0.11327185178E+02  0.12332878005E+02  0.51100000000E-03 0. -1.
        -11    1    3    3    0    0  0.19678639132E+01 -0.76336147552E+01  0.10147768874E+02  0.12849971828E+02  0.51100000000E-03 0.  1.
         12    1    3    3    0    0 -0.72252010701E+01 -0.46213280297E+01  0.20914104440E+02  0.22604423633E+02  0.00000000000E+00 0. -1.
</event>
<event>
 7    1  0.1400974E-009  0.4778726E+02  0.7816164E-02  0.1312668E+00
        -11   -1    0    0    0    0  0.00000000000E+00  0.00000000000E+00  0.45593999997E+02  0.45594000000E+02  0.51100000000E-03 0. -1.
         11   -1    0    0    0    0 -0.00000000000E+00 -0.00000000000E+00 -0.45593999997E+02  0.45594000000E+02  0.51100000000E-03 0.  1.
    9900012    2    1    2    0    0  0.20422929569E+02 -0.93782588403E+01  0.37129187402E+02  0.47787258668E+02  0.19999943569E+02 0.  0.
        -12    1    1    2    0    0 -0.20422929569E+02  0.93782588403E+01 -0.37129187402E+02  0.43400741332E+02  0.00000000000E+00 0.  1.
         11    1    3    3    0    0  0.75374979091E+01 -0.68951678313E+01  0.22066941838E+02  0.24316807696E+02  0.51100000000E-03 0. -1.
        -11    1    3    3    0    0  0.45763690699E+01 -0.28174683153E+01  0.14111866411E+02  0.15100531627E+02  0.51100000000E-03 0.  1.
        -12    1    3    3    0    0  0.83090625897E+01  0.33437730623E+00  0.95037915317E+00  0.83699193447E+01  0.00000000000E+00 0.  1.
</event>
<event>
 7    1  0.1400974E-009  0.4778727E+02  0.7816164E-02  0.1312668E+00
        -11   -1    0    0    0    0  0.00000000000E+00  0.00000000000E+00  0.45593999997E+02  0.45594000000E+02  0.51100000000E-03 0.  1.
         11   -1    0    0    0    0 -0.00000000000E+00 -0.00000000000E+00 -0.45593999997E+02  0.45594000000E+02  0.51100000000E-03 0. -1.
    9900012    2    1    2    0    0  0.26837654338E+02  0.20890259242E+02 -0.26962204304E+02  0.47787273249E+02  0.20000010054E+02 0.  0.
        -12    1    1    2    0    0 -0.26837654338E+02 -0.20890259242E+02  0.26962204304E+02  0.43400726751E+02  0.00000000000E+00 0.  1.
         11    1    3    3    0    0  0.69570302195E+01  0.62663113429E+01 -0.12618703634E+02  0.15713007637E+02  0.51100000000E-03 0. -1.
        -11    1    3    3    0    0  0.21855888019E+02  0.13482704229E+02 -0.10797095528E+02  0.27857502159E+02  0.51100000000E-03 0.  1.
        -12    1    3    3    0    0 -0.19752639014E+01  0.11412436702E+01 -0.35464051413E+01  0.42167634534E+01  0.00000000000E+00 0.  1.
</event>
<event>
 7    1  0.1400974E-009  0.4778728E+02  0.7816164E-02  0.1312668E+00
        -11   -1    0    0    0    0  0.00000000000E+00  0.00000000000E+00  0.45593999997E+02  0.45594000000E+02  0.51100000000E-03 0. -1.
         11   -1    0    0    0    0 -0.00000000000E+00 -0.00000000000E+00 -0.45593999997E+02  0.45594000000E+02  0.51100000000E-03 0.  1.
    9900012    2    1    2    0    0  0.26237082966E+02  0.23159768633E+02  0.25668336973E+02  0.47787275022E+02  0.20000018135E+02 0.  0.
        -12    1    1    2    0    0 -0.26237082966E+02 -0.23159768633E+02 -0.25668336973E+02  0.43400724978E+02  0.00000000000E+00 0.  1.
         11    1    3    3    0    0  0.29389505429E+01  0.21681745206E+01  0.12638570727E+02  0.13155678672E+02  0.51100000000E-03 0. -1.
        -11    1    3    3    0    0  0.15637287036E+01  0.67712741861E+00  0.25954107684E+01  0.31048198526E+01  0.51100000000E-03 0.  1.
        -12    1    3    3    0    0  0.21734403719E+02  0.20314466693E+02  0.10434355478E+02  0.31526776497E+02  0.00000000000E+00 0.  1.
</event>
<event>
 7    1  0.1400974E-009  0.4778728E+02  0.7816164E-02  0.1312668E+00
        -11   -1    0    0    0    0  0.00000000000E+00  0.00000000000E+00  0.45593999997E+02  0.45594000000E+02  0.51100000000E-03 0.  1.
         11   -1    0    0    0    0 -0.00000000000E+00 -0.00000000000E+00 -0.45593999997E+02  0.45594000000E+02  0.51100000000E-03 0. -1.
    9900012    2    1    2    0    0  0.29533972619E+02  0.31436078454E+02  0.48104428219E+01  0.47787275036E+02  0.20000018201E+02 0.  0.
        -12    1    1    2    0    0 -0.29533972619E+02 -0.31436078454E+02 -0.48104428219E+01  0.43400724964E+02  0.00000000000E+00 0.  1.
         11    1    3    3    0    0  0.12926844428E+01  0.27791678184E+01  0.31657336559E+01  0.44064358242E+01  0.51100000000E-03 0.  1.
        -11    1    3    3    0    0  0.10690476136E+02  0.56796742593E+01 -0.59468846706E+01  0.13487416997E+02  0.51100000000E-03 0. -1.
         12    1    3    3    0    0  0.17550812040E+02  0.22977236376E+02  0.75915938367E+01  0.29893422215E+02  0.00000000000E+00 0. -1.
</event>
<event>
 7    1  0.1400974E-009  0.4778728E+02  0.7816164E-02  0.1312668E+00
        -11   -1    0    0    0    0  0.00000000000E+00  0.00000000000E+00  0.45593999997E+02  0.45594000000E+02  0.51100000000E-03 0.  1.
         11   -1    0    0    0    0 -0.00000000000E+00 -0.00000000000E+00 -0.45593999997E+02  0.45594000000E+02  0.51100000000E-03 0. -1.
    9900012    2    1    2    0    0 -0.17446892906E+01  0.38379807528E+02 -0.20188332230E+02  0.47787281978E+02  0.20000049851E+02 0.  0.
        -12    1    1    2    0    0  0.17446892906E+01 -0.38379807528E+02  0.20188332230E+02  0.43400718022E+02  0.00000000000E+00 0.  1.
         11    1    3    3    0    0  0.55648976750E+01  0.12244177978E+02 -0.56286413797E+00  0.13461233108E+02  0.51100000000E-03 0. -1.
        -11    1    3    3    0    0 -0.49521102707E+01  0.75691132095E+01 -0.37786952569E+01  0.98027245711E+01  0.51100000000E-03 0.  1.
        -12    1    3    3    0    0 -0.23574766949E+01  0.18566516340E+02 -0.15846772835E+02  0.24523324299E+02  0.00000000000E+00 0.  1.
</event>
<event>
 7    1  0.1400974E-009  0.4778724E+02  0.7816164E-02  0.1312668E+00
        -11   -1    0    0    0    0  0.00000000000E+00  0.00000000000E+00  0.45593999997E+02  0.45594000000E+02  0.51100000000E-03 0. -1.
         11   -1    0    0    0    0 -0.00000000000E+00 -0.00000000000E+00 -0.45593999997E+02  0.45594000000E+02  0.51100000000E-03 0.  1.
    9900012    2    1    2    0    0  0.20679341941E+02 -0.34023658065E+02  0.17273723683E+02  0.47787239394E+02  0.19999855694E+02 0.  0.
        -12    1    1    2    0    0 -0.20679341941E+02  0.34023658065E+02 -0.17273723683E+02  0.43400760606E+02  0.00000000000E+00 0.  1.
         11    1    3    3    0    0  0.83660838879E+00 -0.26372977589E+01  0.70941975483E+01  0.76146498396E+01  0.51100000000E-03 0. -1.
        -11    1    3    3    0    0  0.52930079305E+01 -0.13444286219E+02 -0.10517253849E+01  0.14486921393E+02  0.51100000000E-03 0.  1.
        -12    1    3    3    0    0  0.14549725622E+02 -0.17942074087E+02  0.11231251520E+02  0.25685668162E+02  0.00000000000E+00 0.  1.
</event>
<event>
 7    1  0.1400974E-009  0.4778727E+02  0.7816164E-02  0.1312668E+00
        -11   -1    0    0    0    0  0.00000000000E+00  0.00000000000E+00  0.45593999997E+02  0.45594000000E+02  0.51100000000E-03 0.  1.
         11   -1    0    0    0    0 -0.00000000000E+00 -0.00000000000E+00 -0.45593999997E+02  0.45594000000E+02  0.51100000000E-03 0. -1.
    9900012    2    1    2    0    0 -0.21973548185E+02 -0.15761533625E+01 -0.37393880448E+02  0.47787269888E+02  0.19999994729E+02 0.  0.
        -12    1    1    2    0    0  0.21973548185E+02  0.15761533625E+01  0.37393880448E+02  0.43400730112E+02  0.00000000000E+00 0.  1.
         11    1    3    3    0    0 -0.81281427355E+01  0.36109660980E+01 -0.26421894058E+02  0.27878706325E+02  0.51100000000E-03 0. -1.
        -11    1    3    3    0    0 -0.92974664363E+01  0.47003672302E+00 -0.54404660950E+01  0.10782508439E+02  0.51100000000E-03 0.  1.
        -12    1    3    3    0    0 -0.45479390129E+01 -0.56571561835E+01 -0.55315202954E+01  0.91260551241E+01  0.00000000000E+00 0.  1.
</event>
<event>
 7    1  0.1400974E-009  0.4778727E+02  0.7816164E-02  0.1312668E+00
        -11   -1    0    0    0    0  0.00000000000E+00  0.00000000000E+00  0.45593999997E+02  0.45594000000E+02  0.51100000000E-03 0. -1.
         11   -1    0    0    0    0 -0.00000000000E+00 -0.00000000000E+00 -0.45593999997E+02  0.45594000000E+02  0.51100000000E-03 0.  1.
    9900012    2    1    2    0    0 -0.17655300194E+02 -0.36706479046E+02 -0.14984920251E+02  0.47787273464E+02  0.20000011033E+02 0.  0.
        -12    1    1    2    0    0  0.17655300194E+02  0.36706479046E+02  0.14984920251E+02  0.43400726536E+02  0.00000000000E+00 0.  1.
         11    1    3    3    0    0 -0.58111075429E+01 -0.17322604584E+02 -0.54691766651E+01  0.19072322725E+02  0.51100000000E-03 0. -1.
        -11    1    3    3    0    0 -0.13188823963E+02 -0.15138642176E+02 -0.12220727973E+02  0.23504675214E+02  0.51100000000E-03 0.  1.
        -12    1    3    3    0    0  0.13446313117E+01 -0.42452322857E+01  0.27049843865E+01  0.52102755259E+01  0.00000000000E+00 0.  1.
</event>
<event>
 7    1  0.1400974E-009  0.4778727E+02  0.7816164E-02  0.1312668E+00
        -11   -1    0    0    0    0  0.00000000000E+00  0.00000000000E+00  0.45593999997E+02  0.45594000000E+02  0.51100000000E-03 0.  1.
         11   -1    0    0    0    0 -0.00000000000E+00 -0.00000000000E+00 -0.45593999997E+02  0.45594000000E+02  0.51100000000E-03 0. -1.
    9900012    2    1    2    0    0 -0.53354778256E+01  0.27531045626E+02 -0.33123971700E+02  0.47787270765E+02  0.19999998728E+02 0.  0.
        -12    1    1    2    0    0  0.53354778256E+01 -0.27531045626E+02  0.33123971700E+02  0.43400729235E+02  0.00000000000E+00 0.  1.
         11    1    3    3    0    0 -0.15131801998E+01  0.77161716475E+00 -0.30157590126E+01  0.34612006659E+01  0.51100000000E-03 0. -1.
        -11    1    3    3    0    0 -0.65927317215E+01  0.19945635862E+02 -0.10708841527E+02  0.23579054022E+02  0.51100000000E-03 0.  1.
        -12    1    3    3    0    0  0.27704340957E+01  0.68137925993E+01 -0.19399371161E+02  0.20747016077E+02  0.00000000000E+00 0.  1.
</event>
<event>
 7    1  0.1400974E-009  0.4778727E+02  0.7816164E-02  0.1312668E+00
        -11   -1    0    0    0    0  0.00000000000E+00  0.00000000000E+00  0.45593999997E+02  0.45594000000E+02  0.51100000000E-03 0.  1.
         11   -1    0    0    0    0 -0.00000000000E+00 -0.00000000000E+00 -0.45593999997E+02  0.45594000000E+02  0.51100000000E-03 0. -1.
    9900012    2    1    2    0    0 -0.21739753015E+02  0.11863267903E+02 -0.35640834400E+02  0.47787273471E+02  0.20000011065E+02 0.  0.
        -12    1    1    2    0    0  0.21739753015E+02 -0.11863267903E+02  0.35640834400E+02  0.43400726529E+02  0.00000000000E+00 0.  1.
         11    1    3    3    0    0 -0.11265337541E+02 -0.21791360897E+01 -0.12295116618E+02  0.16817442044E+02  0.51100000000E-03 0. -1.
        -11    1    3    3    0    0 -0.10815081285E+01  0.37479125308E+01 -0.14256372486E+00  0.39034385927E+01  0.51100000000E-03 0.  1.
         12    1    3    3    0    0 -0.93929073458E+01  0.10294491462E+02 -0.23203154057E+02  0.27066392834E+02  0.00000000000E+00 0. -1.
</event>
<event>
 7    1  0.1400974E-009  0.4778727E+02  0.7816164E-02  0.1312668E+00
        -11   -1    0    0    0    0  0.00000000000E+00  0.00000000000E+00  0.45593999997E+02  0.45594000000E+02  0.51100000000E-03 0.  1.
         11   -1    0    0    0    0 -0.00000000000E+00 -0.00000000000E+00 -0.45593999997E+02  0.45594000000E+02  0.51100000000E-03 0. -1.
    9900012    2    1    2    0    0  0.89734351765E+01 -0.33775171691E+02 -0.25735934406E+02  0.47787273262E+02  0.20000010112E+02 0.  0.
        -12    1    1    2    0    0 -0.89734351765E+01  0.33775171691E+02  0.25735934406E+02  0.43400726738E+02  0.00000000000E+00 0.  1.
         11    1    3    3    0    0 -0.12987288753E+01 -0.11210002593E+02 -0.62317397231E+01  0.12891292995E+02  0.51100000000E-03 0.  1.
        -11    1    3    3    0    0  0.99845723082E+01 -0.95110743621E+01 -0.16489005784E+02  0.21495104831E+02  0.51100000000E-03 0. -1.
         12    1    3    3    0    0  0.28759174354E+00 -0.13054094735E+02 -0.30151888995E+01  0.13400875436E+02  0.00000000000E+00 0. -1.
</event>
<event>
 7    1  0.1400974E-009  0.4778727E+02  0.7816164E-02  0.1312668E+00
        -11   -1    0    0    0    0  0.00000000000E+00  0.00000000000E+00  0.45593999997E+02  0.45594000000E+02  0.51100000000E-03 0.  1.
         11   -1    0    0    0    0 -0.00000000000E+00 -0.00000000000E+00 -0.45593999997E+02  0.45594000000E+02  0.51100000000E-03 0. -1.
    9900012    2    1    2    0    0 -0.33528553148E+02 -0.24064269122E+02  0.13430202440E+02  0.47787271180E+02  0.20000000617E+02 0.  0.
        -12    1    1    2    0    0  0.33528553148E+02  0.24064269122E+02 -0.13430202440E+02  0.43400728820E+02  0.00000000000E+00 0.  1.
         11    1    3    3    0    0 -0.17446363623E+02 -0.17369843319E+02  0.10802909479E+02  0.26884752446E+02  0.51100000000E-03 0. -1.
        -11    1    3    3    0    0  0.59076942044E+00  0.50589485995E-03  0.28738288488E+01  0.29339225071E+01  0.51100000000E-03 0.  1.
         12    1    3    3    0    0 -0.16672958945E+02 -0.66949316982E+01 -0.24653588838E+00  0.17968596227E+02  0.00000000000E+00 0. -1.
</event>
<event>
 7    1  0.1400974E-009  0.4778727E+02  0.7816164E-02  0.1312668E+00
        -11   -1    0    0    0    0  0.00000000000E+00  0.00000000000E+00  0.45593999997E+02  0.45594000000E+02  0.51100000000E-03 0.  1.
         11   -1    0    0    0    0 -0.00000000000E+00 -0.00000000000E+00 -0.45593999997E+02  0.45594000000E+02  0.51100000000E-03 0. -1.
    9900012    2    1    2    0    0 -0.17264898000E+02  0.30867941569E+02 -0.25153861550E+02  0.47787271084E+02  0.20000000178E+02 0.  0.
        -12    1    1    2    0    0  0.17264898000E+02 -0.30867941569E+02  0.25153861550E+02  0.43400728916E+02  0.00000000000E+00 0.  1.
         11    1    3    3    0    0 -0.86793220367E+01  0.19963081607E+02 -0.20496215600E+02  0.29898998519E+02  0.51100000000E-03 0. -1.
        -11    1    3    3    0    0 -0.28575632590E+01  0.38269191288E+01 -0.70114580416E+01  0.84836031217E+01  0.51100000000E-03 0.  1.
        -12    1    3    3    0    0 -0.57280127040E+01  0.70779408325E+01  0.23538120915E+01  0.94046694427E+01  0.00000000000E+00 0.  1.
</event>
<event>
 7    1  0.1400974E-009  0.4778728E+02  0.7816164E-02  0.1312668E+00
        -11   -1    0    0    0    0  0.00000000000E+00  0.00000000000E+00  0.45593999997E+02  0.45594000000E+02  0.51100000000E-03 0.  1.
         11   -1    0    0    0    0 -0.00000000000E+00 -0.00000000000E+00 -0.45593999997E+02  0.45594000000E+02  0.51100000000E-03 0. -1.
    9900012    2    1    2    0    0 -0.33553802350E+02  0.77666842346E+01 -0.26409151622E+02  0.47787281970E+02  0.20000049815E+02 0.  0.
        -12    1    1    2    0    0  0.33553802350E+02 -0.77666842346E+01  0.26409151622E+02  0.43400718030E+02  0.00000000000E+00 0.  1.
         11    1    3    3    0    0 -0.81961553778E+01  0.44974729695E+01 -0.59367462673E+01  0.11074709143E+02  0.51100000000E-03 0. -1.
        -11    1    3    3    0    0 -0.78386819545E+01  0.40465838276E+01  0.11242518850E+01  0.88929026768E+01  0.51100000000E-03 0.  1.
         12    1    3    3    0    0 -0.17518965018E+02 -0.77737256247E+00 -0.21596657239E+02  0.27819670151E+02  0.00000000000E+00 0. -1.
</event>
<event>
 7    1  0.1400974E-009  0.4778727E+02  0.7816164E-02  0.1312668E+00
        -11   -1    0    0    0    0  0.00000000000E+00  0.00000000000E+00  0.45593999997E+02  0.45594000000E+02  0.51100000000E-03 0.  1.
         11   -1    0    0    0    0 -0.00000000000E+00 -0.00000000000E+00 -0.45593999997E+02  0.45594000000E+02  0.51100000000E-03 0. -1.
    9900012    2    1    2    0    0 -0.25386730494E+01  0.31244409919E+02 -0.30016080305E+02  0.47787273176E+02  0.20000009718E+02 0.  0.
        -12    1    1    2    0    0  0.25386730494E+01 -0.31244409919E+02  0.30016080305E+02  0.43400726824E+02  0.00000000000E+00 0.  1.
         11    1    3    3    0    0 -0.77199340235E+00  0.27977080649E+02 -0.21187091312E+02  0.35102789832E+02  0.51100000000E-03 0. -1.
        -11    1    3    3    0    0 -0.39193349718E+01  0.31153414027E+01 -0.92196888249E+01  0.10491386990E+02  0.51100000000E-03 0.  1.
        -12    1    3    3    0    0  0.21526553248E+01  0.15198786648E+00  0.39069983230E+00  0.21930963540E+01  0.00000000000E+00 0.  1.
</event>
<event>
 7    1  0.1400974E-009  0.4778727E+02  0.7816164E-02  0.1312668E+00
        -11   -1    0    0    0    0  0.00000000000E+00  0.00000000000E+00  0.45593999997E+02  0.45594000000E+02  0.51100000000E-03 0.  1.
         11   -1    0    0    0    0 -0.00000000000E+00 -0.00000000000E+00 -0.45593999997E+02  0.45594000000E+02  0.51100000000E-03 0. -1.
    9900012    2    1    2    0    0  0.23677655813E+01  0.19347037283E+02 -0.38777687966E+02  0.47787271326E+02  0.20000001283E+02 0.  0.
        -12    1    1    2    0    0 -0.23677655813E+01 -0.19347037283E+02  0.38777687966E+02  0.43400728674E+02  0.00000000000E+00 0.  1.
         11    1    3    3    0    0  0.40408173864E+01  0.80129188305E+01 -0.15337166117E+02  0.17769742207E+02  0.51100000000E-03 0. -1.
        -11    1    3    3    0    0 -0.41697961846E+00  0.33693088451E+01 -0.21443596492E+02  0.21710687342E+02  0.51100000000E-03 0.  1.
        -12    1    3    3    0    0 -0.12560721866E+01  0.79648096075E+01 -0.19969253566E+01  0.83068417766E+01  0.00000000000E+00 0.  1.
</event>
<event>
 7    1  0.1400974E-009  0.4778727E+02  0.7816164E-02  0.1312668E+00
        -11   -1    0    0    0    0  0.00000000000E+00  0.00000000000E+00  0.45593999997E+02  0.45594000000E+02  0.51100000000E-03 0.  1.
         11   -1    0    0    0    0 -0.00000000000E+00 -0.00000000000E+00 -0.45593999997E+02  0.45594000000E+02  0.51100000000E-03 0. -1.
    9900012    2    1    2    0    0 -0.25033726539E+02 -0.20634477593E+02 -0.28829746209E+02  0.47787269632E+02  0.19999993561E+02 0.  0.
        -12    1    1    2    0    0  0.25033726539E+02  0.20634477593E+02  0.28829746209E+02  0.43400730368E+02  0.00000000000E+00 0.  1.
         11    1    3    3    0    0 -0.12762732089E+02 -0.56431182276E+00 -0.14904497467E+02  0.19630329167E+02  0.51100000000E-03 0. -1.
        -11    1    3    3    0    0 -0.32613609710E+00  0.39174990773E+00 -0.11065926026E+01  0.12183514244E+01  0.51100000000E-03 0.  1.
        -12    1    3    3    0    0 -0.11944858353E+02 -0.20461915678E+02 -0.12818656139E+02  0.26938589041E+02  0.00000000000E+00 0.  1.
</event>
<event>
 7    1  0.1400974E-009  0.4778727E+02  0.7816164E-02  0.1312668E+00
        -11   -1    0    0    0    0  0.00000000000E+00  0.00000000000E+00  0.45593999997E+02  0.45594000000E+02  0.51100000000E-03 0.  1.
         11   -1    0    0    0    0 -0.00000000000E+00 -0.00000000000E+00 -0.45593999997E+02  0.45594000000E+02  0.51100000000E-03 0. -1.
    9900012    2    1    2    0    0 -0.19019058509E+02 -0.33911712285E+02  0.19284564821E+02  0.47787271239E+02  0.20000000885E+02 0.  0.
        -12    1    1    2    0    0  0.19019058509E+02  0.33911712285E+02 -0.19284564821E+02  0.43400728761E+02  0.00000000000E+00 0.  1.
         11    1    3    3    0    0 -0.36494401389E+01 -0.92237142022E+01 -0.31193532087E+01  0.10398349951E+02  0.51100000000E-03 0. -1.
        -11    1    3    3    0    0 -0.24835238430E+01 -0.54058299935E+01  0.84130930114E+01  0.10303932399E+02  0.51100000000E-03 0.  1.
         12    1    3    3    0    0 -0.12886094527E+02 -0.19282168089E+02  0.13990825018E+02  0.27084988888E+02  0.00000000000E+00 0. -1.
</event>
<event>
 7    1  0.1400974E-009  0.4778727E+02  0.7816164E-02  0.1312668E+00
        -11   -1    0    0    0    0  0.00000000000E+00  0.00000000000E+00  0.45593999997E+02  0.45594000000E+02  0.51100000000E-03 0.  1.
         11   -1    0    0    0    0 -0.00000000000E+00 -0.00000000000E+00 -0.45593999997E+02  0.45594000000E+02  0.51100000000E-03 0. -1.
    9900012    2    1    2    0    0 -0.39865570064E+02 -0.16512908921E+02 -0.46566005568E+01  0.47787265372E+02  0.19999974136E+02 0.  0.
        -12    1    1    2    0    0  0.39865570064E+02  0.16512908921E+02  0.46566005568E+01  0.43400734628E+02  0.00000000000E+00 0.  1.
         11    1    3    3    0    0 -0.17650264717E+02 -0.65111455747E+01 -0.37387682820E+01  0.19180856337E+02  0.51100000000E-03 0. -1.
        -11    1    3    3    0    0 -0.23376256609E+00 -0.29307688704E+00 -0.43203581590E+01  0.43365924275E+01  0.51100000000E-03 0.  1.
        -12    1    3    3    0    0 -0.21981542780E+02 -0.97086864595E+01  0.34025258843E+01  0.24269816607E+02  0.00000000000E+00 0.  1.
</event>
<event>
 7    1  0.1400974E-009  0.4778723E+02  0.7816164E-02  0.1312668E+00
        -11   -1    0    0    0    0  0.00000000000E+00  0.00000000000E+00  0.45593999997E+02  0.45594000000E+02  0.51100000000E-03 0. -1.
         11   -1    0    0    0    0 -0.00000000000E+00 -0.00000000000E+00 -0.45593999997E+02  0.45594000000E+02  0.51100000000E-03 0.  1.
    9900012    2    1    2    0    0  0.16034172982E+02  0.40321869581E+02  0.82378099595E+00  0.47787234052E+02  0.19999831336E+02 0.  0.
        -12    1    1    2    0    0 -0.16034172982E+02 -0.40321869581E+02 -0.82378099595E+00  0.43400765948E+02  0.00000000000E+00 0.  1.
         11    1    3    3    0    0  0.19086347648E+01  0.51566535799E+01  0.56655058566E+01  0.78950566610E+01  0.51100000000E-03 0. -1.
        -11    1    3    3    0    0  0.40115707883E+01  0.24016182397E+02 -0.10629225211E+01  0.24372105401E+02  0.51100000000E-03 0.  1.
        -12    1    3    3    0    0  0.10113967429E+02  0.11149033604E+02 -0.37788023395E+01  0.15520071990E+02  0.00000000000E+00 0.  1.
</event>
<event>
 7    1  0.1400974E-009  0.4778727E+02  0.7816164E-02  0.1312668E+00
        -11   -1    0    0    0    0  0.00000000000E+00  0.00000000000E+00  0.45593999997E+02  0.45594000000E+02  0.51100000000E-03 0.  1.
         11   -1    0    0    0    0 -0.00000000000E+00 -0.00000000000E+00 -0.45593999997E+02  0.45594000000E+02  0.51100000000E-03 0. -1.
    9900012    2    1    2    0    0 -0.29622353604E+02 -0.27219025424E+02  0.16286938808E+02  0.47787267820E+02  0.19999985297E+02 0.  0.
        -12    1    1    2    0    0  0.29622353604E+02  0.27219025424E+02 -0.16286938808E+02  0.43400732180E+02  0.00000000000E+00 0.  1.
         11    1    3    3    0    0 -0.11065193555E+02 -0.81615270612E+01  0.23684381185E+01  0.13952008162E+02  0.51100000000E-03 0. -1.
        -11    1    3    3    0    0 -0.10751129421E+02 -0.26574118615E+01  0.20498490914E+00  0.11076580731E+02  0.51100000000E-03 0.  1.
        -12    1    3    3    0    0 -0.78060306284E+01 -0.16400086501E+02  0.13713515781E+02  0.22758678926E+02  0.00000000000E+00 0.  1.
</event>
<event>
 7    1  0.1400974E-009  0.4778725E+02  0.7816164E-02  0.1312668E+00
        -11   -1    0    0    0    0  0.00000000000E+00  0.00000000000E+00  0.45593999997E+02  0.45594000000E+02  0.51100000000E-03 0.  1.
         11   -1    0    0    0    0 -0.00000000000E+00 -0.00000000000E+00 -0.45593999997E+02  0.45594000000E+02  0.51100000000E-03 0. -1.
    9900012    2    1    2    0    0 -0.15045017793E+02  0.29195068709E+02 -0.28371113691E+02  0.47787254737E+02  0.19999925648E+02 0.  0.
        -12    1    1    2    0    0  0.15045017793E+02 -0.29195068709E+02  0.28371113691E+02  0.43400745263E+02  0.00000000000E+00 0.  1.
         11    1    3    3    0    0 -0.11277679369E+02  0.25154883157E+02 -0.18596014724E+02  0.33253059445E+02  0.51100000000E-03 0. -1.
        -11    1    3    3    0    0 -0.54354100999E+01  0.31498175285E+01 -0.10716413137E+02  0.12422018524E+02  0.51100000000E-03 0.  1.
        -12    1    3    3    0    0  0.16680716761E+01  0.89036802394E+00  0.94131416986E+00  0.21121767684E+01  0.00000000000E+00 0.  1.
</event>
<event>
 7    1  0.1400974E-009  0.4778727E+02  0.7816164E-02  0.1312668E+00
        -11   -1    0    0    0    0  0.00000000000E+00  0.00000000000E+00  0.45593999997E+02  0.45594000000E+02  0.51100000000E-03 0. -1.
         11   -1    0    0    0    0 -0.00000000000E+00 -0.00000000000E+00 -0.45593999997E+02  0.45594000000E+02  0.51100000000E-03 0.  1.
    9900012    2    1    2    0    0 -0.38312795433E+02  0.12756988047E+02  0.15906360513E+02  0.47787270251E+02  0.19999996384E+02 0.  0.
        -12    1    1    2    0    0  0.38312795433E+02 -0.12756988047E+02 -0.15906360513E+02  0.43400729749E+02  0.00000000000E+00 0.  1.
         11    1    3    3    0    0 -0.17462594060E+02  0.40851230833E+01  0.16196687072E+02  0.24165328350E+02  0.51100000000E-03 0. -1.
        -11    1    3    3    0    0 -0.10589131764E+01 -0.93690115052E-01 -0.16177017977E+01  0.19357257865E+01  0.51100000000E-03 0.  1.
         12    1    3    3    0    0 -0.19791288197E+02  0.87655550790E+01  0.13273752384E+01  0.21686216114E+02  0.00000000000E+00 0. -1.
</event>
<event>
 7    1  0.1400974E-009  0.4778727E+02  0.7816164E-02  0.1312668E+00
        -11   -1    0    0    0    0  0.00000000000E+00  0.00000000000E+00  0.45593999997E+02  0.45594000000E+02  0.51100000000E-03 0. -1.
         11   -1    0    0    0    0 -0.00000000000E+00 -0.00000000000E+00 -0.45593999997E+02  0.45594000000E+02  0.51100000000E-03 0.  1.
    9900012    2    1    2    0    0 -0.24256175099E+02 -0.21648337307E+02  0.28750833918E+02  0.47787274319E+02  0.20000014932E+02 0.  0.
        -12    1    1    2    0    0  0.24256175099E+02  0.21648337307E+02 -0.28750833918E+02  0.43400725681E+02  0.00000000000E+00 0.  1.
         11    1    3    3    0    0 -0.11571228202E+01 -0.28709584615E+01 -0.20781141879E+01  0.37282562342E+01  0.51100000000E-03 0.  1.
        -11    1    3    3    0    0 -0.11833634510E+02 -0.15690933952E+02  0.17272003457E+02  0.26164143740E+02  0.51100000000E-03 0. -1.
         12    1    3    3    0    0 -0.11265417769E+02 -0.30864448940E+01  0.13556944650E+02  0.17894874345E+02  0.00000000000E+00 0. -1.
</event>
<event>
 7    1  0.1400974E-009  0.4778728E+02  0.7816164E-02  0.1312668E+00
        -11   -1    0    0    0    0  0.00000000000E+00  0.00000000000E+00  0.45593999997E+02  0.45594000000E+02  0.51100000000E-03 0.  1.
         11   -1    0    0    0    0 -0.00000000000E+00 -0.00000000000E+00 -0.45593999997E+02  0.45594000000E+02  0.51100000000E-03 0. -1.
    9900012    2    1    2    0    0  0.41264751429E+01 -0.37162625183E+02 -0.22034838757E+02  0.47787278501E+02  0.20000033997E+02 0.  0.
        -12    1    1    2    0    0 -0.41264751429E+01  0.37162625183E+02  0.22034838757E+02  0.43400721499E+02  0.00000000000E+00 0.  1.
         11    1    3    3    0    0  0.74569372803E+01 -0.33330100914E+02 -0.11984160249E+02  0.36195602463E+02  0.51100000000E-03 0. -1.
        -11    1    3    3    0    0 -0.47629587480E+00  0.42183381816E+00 -0.14005309302E+01  0.15382745782E+01  0.51100000000E-03 0.  1.
         12    1    3    3    0    0 -0.28541662625E+01 -0.42543580868E+01 -0.86501475777E+01  0.10053401459E+02  0.00000000000E+00 0. -1.
</event>
<event>
 7    1  0.1400974E-009  0.4778727E+02  0.7816164E-02  0.1312668E+00
        -11   -1    0    0    0    0  0.00000000000E+00  0.00000000000E+00  0.45593999997E+02  0.45594000000E+02  0.51100000000E-03 0.  1.
         11   -1    0    0    0    0 -0.00000000000E+00 -0.00000000000E+00 -0.45593999997E+02  0.45594000000E+02  0.51100000000E-03 0. -1.
    9900012    2    1    2    0    0 -0.37955687672E+02 -0.17141148927E+02 -0.12213515976E+02  0.47787272060E+02  0.20000004632E+02 0.  0.
        -12    1    1    2    0    0  0.37955687672E+02  0.17141148927E+02  0.12213515976E+02  0.43400727940E+02  0.00000000000E+00 0.  1.
         11    1    3    3    0    0 -0.98658024371E+01 -0.23757983463E+01  0.13698862660E+01  0.10239876179E+02  0.51100000000E-03 0.  1.
        -11    1    3    3    0    0 -0.26368209606E+02 -0.10096095602E+02 -0.66408324702E+01  0.29005418121E+02  0.51100000000E-03 0. -1.
         12    1    3    3    0    0 -0.17216756290E+01 -0.46692549790E+01 -0.69425697717E+01  0.85419777608E+01  0.00000000000E+00 0. -1.
</event>
<event>
 7    1  0.1400974E-009  0.4778727E+02  0.7816164E-02  0.1312668E+00
        -11   -1    0    0    0    0  0.00000000000E+00  0.00000000000E+00  0.45593999997E+02  0.45594000000E+02  0.51100000000E-03 0.  1.
         11   -1    0    0    0    0 -0.00000000000E+00 -0.00000000000E+00 -0.45593999997E+02  0.45594000000E+02  0.51100000000E-03 0. -1.
    9900012    2    1    2    0    0 -0.68359742955E+01 -0.30184621978E+02 -0.30426652865E+02  0.47787272436E+02  0.20000006344E+02 0.  0.
        -12    1    1    2    0    0  0.68359742955E+01  0.30184621978E+02  0.30426652865E+02  0.43400727564E+02  0.00000000000E+00 0.  1.
         11    1    3    3    0    0 -0.32212257502E+01 -0.21999680865E+02 -0.28610308529E+02  0.36234127669E+02  0.51100000000E-03 0. -1.
        -11    1    3    3    0    0 -0.27171922957E+01 -0.89327301396E+01 -0.30804428987E+01  0.98318833614E+01  0.51100000000E-03 0.  1.
         12    1    3    3    0    0 -0.89755624959E+00  0.74778902707E+00  0.12640985627E+01  0.17212614056E+01  0.00000000000E+00 0. -1.
</event>
<event>
 7    1  0.1400974E-009  0.4778727E+02  0.7816164E-02  0.1312668E+00
        -11   -1    0    0    0    0  0.00000000000E+00  0.00000000000E+00  0.45593999997E+02  0.45594000000E+02  0.51100000000E-03 0.  1.
         11   -1    0    0    0    0 -0.00000000000E+00 -0.00000000000E+00 -0.45593999997E+02  0.45594000000E+02  0.51100000000E-03 0. -1.
    9900012    2    1    2    0    0 -0.19006682430E+02  0.27420265440E+02 -0.27757860234E+02  0.47787265691E+02  0.19999975591E+02 0.  0.
        -12    1    1    2    0    0  0.19006682430E+02 -0.27420265440E+02  0.27757860234E+02  0.43400734309E+02  0.00000000000E+00 0.  1.
         11    1    3    3    0    0 -0.34538408342E+01  0.38811021749E+01 -0.10632122498E+02  0.11833596227E+02  0.51100000000E-03 0. -1.
        -11    1    3    3    0    0 -0.35625214514E+01  0.44480251920E+01 -0.11320600762E+02  0.12674087307E+02  0.51100000000E-03 0.  1.
        -12    1    3    3    0    0 -0.11990320144E+02  0.19091138073E+02 -0.58051369745E+01  0.23279582157E+02  0.00000000000E+00 0.  1.
</event>
<event>
 7    1  0.1400974E-009  0.4778727E+02  0.7816164E-02  0.1312668E+00
        -11   -1    0    0    0    0  0.00000000000E+00  0.00000000000E+00  0.45593999997E+02  0.45594000000E+02  0.51100000000E-03 0.  1.
         11   -1    0    0    0    0 -0.00000000000E+00 -0.00000000000E+00 -0.45593999997E+02  0.45594000000E+02  0.51100000000E-03 0. -1.
    9900012    2    1    2    0    0 -0.43009700651E+02 -0.58127328316E+01  0.28099193569E-01  0.47787274170E+02  0.20000014250E+02 0.  0.
        -12    1    1    2    0    0  0.43009700651E+02  0.58127328316E+01 -0.28099193569E-01  0.43400725830E+02  0.00000000000E+00 0.  1.
         11    1    3    3    0    0 -0.47584893713E+01  0.24099712833E+01 -0.39304997948E+01  0.66257083834E+01  0.51100000000E-03 0. -1.
        -11    1    3    3    0    0 -0.10066284626E+02 -0.22879938772E+01  0.65764446853E+01  0.12239878558E+02  0.51100000000E-03 0.  1.
         12    1    3    3    0    0 -0.28184926653E+02 -0.59347102377E+01 -0.26178456968E+01  0.28921687228E+02  0.00000000000E+00 0. -1.
</event>
<event>
 7    1  0.1400974E-009  0.4778727E+02  0.7816164E-02  0.1312668E+00
        -11   -1    0    0    0    0  0.00000000000E+00  0.00000000000E+00  0.45593999997E+02  0.45594000000E+02  0.51100000000E-03 0.  1.
         11   -1    0    0    0    0 -0.00000000000E+00 -0.00000000000E+00 -0.45593999997E+02  0.45594000000E+02  0.51100000000E-03 0. -1.
    9900012    2    1    2    0    0  0.29073339998E+02  0.32522120801E+01 -0.32059124505E+02  0.47787269060E+02  0.19999990953E+02 0.  0.
        -12    1    1    2    0    0 -0.29073339998E+02 -0.32522120801E+01  0.32059124505E+02  0.43400730940E+02  0.00000000000E+00 0.  1.
         11    1    3    3    0    0 -0.38692532548E+00 -0.14068945296E+01 -0.18539267392E+01  0.23592600620E+01  0.51100000000E-03 0. -1.
        -11    1    3    3    0    0  0.28883662195E+02  0.45698917246E-01 -0.23332868286E+02  0.37130725456E+02  0.51100000000E-03 0.  1.
        -12    1    3    3    0    0  0.57660312913E+00  0.46134076924E+01 -0.68723294794E+01  0.82972835421E+01  0.00000000000E+00 0.  1.
</event>
<event>
 7    1  0.1400974E-009  0.4778727E+02  0.7816164E-02  0.1312668E+00
        -11   -1    0    0    0    0  0.00000000000E+00  0.00000000000E+00  0.45593999997E+02  0.45594000000E+02  0.51100000000E-03 0. -1.
         11   -1    0    0    0    0 -0.00000000000E+00 -0.00000000000E+00 -0.45593999997E+02  0.45594000000E+02  0.51100000000E-03 0.  1.
    9900012    2    1    2    0    0  0.17182561092E+02 -0.82545164515E+01  0.38990329380E+02  0.47787271519E+02  0.20000002164E+02 0.  0.
        -12    1    1    2    0    0 -0.17182561092E+02  0.82545164515E+01 -0.38990329380E+02  0.43400728481E+02  0.00000000000E+00 0.  1.
         11    1    3    3    0    0  0.85628373087E+01 -0.12258418414E+02  0.23873900808E+02  0.28170093093E+02  0.51100000000E-03 0. -1.
        -11    1    3    3    0    0 -0.68824739379E+00  0.29564344360E+01  0.48340730395E+01  0.57081040164E+01  0.51100000000E-03 0.  1.
        -12    1    3    3    0    0  0.93079711774E+01  0.10474675268E+01  0.10282355532E+02  0.13909074410E+02  0.00000000000E+00 0.  1.
</event>
<event>
 7    1  0.1400974E-009  0.4778727E+02  0.7816164E-02  0.1312668E+00
        -11   -1    0    0    0    0  0.00000000000E+00  0.00000000000E+00  0.45593999997E+02  0.45594000000E+02  0.51100000000E-03 0.  1.
         11   -1    0    0    0    0 -0.00000000000E+00 -0.00000000000E+00 -0.45593999997E+02  0.45594000000E+02  0.51100000000E-03 0. -1.
    9900012    2    1    2    0    0  0.38351456360E+01 -0.42130797987E+02 -0.96907623959E+01  0.47787270088E+02  0.19999995639E+02 0.  0.
        -12    1    1    2    0    0 -0.38351456360E+01  0.42130797987E+02  0.96907623959E+01  0.43400729912E+02  0.00000000000E+00 0.  1.
         11    1    3    3    0    0 -0.15248520983E+01 -0.24432397053E+01 -0.48815057195E+00  0.29211103062E+01  0.51100000000E-03 0. -1.
        -11    1    3    3    0    0 -0.25040820052E+01 -0.82663338974E+01 -0.90014805729E+01  0.12475149520E+02  0.51100000000E-03 0.  1.
         12    1    3    3    0    0  0.78640797396E+01 -0.31421224384E+02 -0.20113125107E+00  0.32391010261E+02  0.00000000000E+00 0. -1.
</event>
<event>
 7    1  0.1400974E-009  0.4778727E+02  0.7816164E-02  0.1312668E+00
        -11   -1    0    0    0    0  0.00000000000E+00  0.00000000000E+00  0.45593999997E+02  0.45594000000E+02  0.51100000000E-03 0. -1.
         11   -1    0    0    0    0 -0.00000000000E+00 -0.00000000000E+00 -0.45593999997E+02  0.45594000000E+02  0.51100000000E-03 0.  1.
    9900012    2    1    2    0    0  0.59120962262E+01 -0.42827086467E+02 -0.38093518831E+01  0.47787269836E+02  0.19999994490E+02 0.  0.
        -12    1    1    2    0    0 -0.59120962262E+01  0.42827086467E+02  0.38093518831E+01  0.43400730164E+02  0.00000000000E+00 0.  1.
         11    1    3    3    0    0  0.38604756744E+01 -0.54730100518E+01  0.36687014954E+01  0.76365229249E+01  0.51100000000E-03 0. -1.
        -11    1    3    3    0    0 -0.33879318104E+01 -0.13968165669E+02 -0.73428423151E+01  0.16140169380E+02  0.51100000000E-03 0.  1.
         12    1    3    3    0    0  0.54395523622E+01 -0.23385910746E+02 -0.13521106333E+00  0.24010577531E+02  0.00000000000E+00 0. -1.
</event>
<event>
 7    1  0.1400974E-009  0.4778727E+02  0.7816164E-02  0.1312668E+00
        -11   -1    0    0    0    0  0.00000000000E+00  0.00000000000E+00  0.45593999997E+02  0.45594000000E+02  0.51100000000E-03 0.  1.
         11   -1    0    0    0    0 -0.00000000000E+00 -0.00000000000E+00 -0.45593999997E+02  0.45594000000E+02  0.51100000000E-03 0. -1.
    9900012    2    1    2    0    0 -0.33726466401E+02  0.12546722852E+02 -0.24263732281E+02  0.47787268503E+02  0.19999988414E+02 0.  0.
        -12    1    1    2    0    0  0.33726466401E+02 -0.12546722852E+02  0.24263732281E+02  0.43400731497E+02  0.00000000000E+00 0.  1.
         11    1    3    3    0    0 -0.21197549248E+01 -0.15099302077E+00 -0.67431353734E+01  0.70700802513E+01  0.51100000000E-03 0. -1.
        -11    1    3    3    0    0 -0.13952369165E+02  0.11457980833E+02 -0.41199513525E+01  0.18518313354E+02  0.51100000000E-03 0.  1.
        -12    1    3    3    0    0 -0.17654342312E+02  0.12397350397E+01 -0.13400645555E+02  0.22198874898E+02  0.00000000000E+00 0.  1.
</event>
<event>
 7    1  0.1400974E-009  0.4778727E+02  0.7816164E-02  0.1312668E+00
        -11   -1    0    0    0    0  0.00000000000E+00  0.00000000000E+00  0.45593999997E+02  0.45594000000E+02  0.51100000000E-03 0.  1.
         11   -1    0    0    0    0 -0.00000000000E+00 -0.00000000000E+00 -0.45593999997E+02  0.45594000000E+02  0.51100000000E-03 0. -1.
    9900012    2    1    2    0    0  0.21285876950E+02 -0.31984171139E+02 -0.20187805293E+02  0.47787271394E+02  0.20000001593E+02 0.  0.
        -12    1    1    2    0    0 -0.21285876950E+02  0.31984171139E+02  0.20187805293E+02  0.43400728606E+02  0.00000000000E+00 0.  1.
         11    1    3    3    0    0  0.10764364375E+02 -0.17573542100E+02 -0.67832833613E+01  0.21695940997E+02  0.51100000000E-03 0. -1.
        -11    1    3    3    0    0  0.10031160735E+02 -0.58264806251E+01 -0.13085592592E+02  0.17487275257E+02  0.51100000000E-03 0.  1.
         12    1    3    3    0    0  0.49035183955E+00 -0.85841484146E+01 -0.31892934028E+00  0.86040551402E+01  0.00000000000E+00 0. -1.
</event>
<event>
 7    1  0.1400974E-009  0.4778727E+02  0.7816164E-02  0.1312668E+00
        -11   -1    0    0    0    0  0.00000000000E+00  0.00000000000E+00  0.45593999997E+02  0.45594000000E+02  0.51100000000E-03 0.  1.
         11   -1    0    0    0    0 -0.00000000000E+00 -0.00000000000E+00 -0.45593999997E+02  0.45594000000E+02  0.51100000000E-03 0. -1.
    9900012    2    1    2    0    0 -0.16348229456E+02  0.39950583503E+02  0.45065887524E+01  0.47787273384E+02  0.20000010667E+02 0.  0.
        -12    1    1    2    0    0  0.16348229456E+02 -0.39950583503E+02 -0.45065887524E+01  0.43400726616E+02  0.00000000000E+00 0.  1.
         11    1    3    3    0    0 -0.58230187617E+01  0.20735909570E+02  0.28549837285E+01  0.21726399277E+02  0.51100000000E-03 0. -1.
        -11    1    3    3    0    0 -0.74271182255E+01  0.11401686698E+02 -0.58345592114E+01  0.14805493107E+02  0.51100000000E-03 0.  1.
         12    1    3    3    0    0 -0.30980924691E+01  0.78129872355E+01  0.74861642354E+01  0.11255381000E+02  0.00000000000E+00 0. -1.
</event>
<event>
 7    1  0.1400974E-009  0.4778727E+02  0.7816164E-02  0.1312668E+00
        -11   -1    0    0    0    0  0.00000000000E+00  0.00000000000E+00  0.45593999997E+02  0.45594000000E+02  0.51100000000E-03 0.  1.
         11   -1    0    0    0    0 -0.00000000000E+00 -0.00000000000E+00 -0.45593999997E+02  0.45594000000E+02  0.51100000000E-03 0. -1.
    9900012    2    1    2    0    0  0.21163581667E+02 -0.29807123402E+02 -0.23393615590E+02  0.47787273683E+02  0.20000012030E+02 0.  0.
        -12    1    1    2    0    0 -0.21163581667E+02  0.29807123402E+02  0.23393615590E+02  0.43400726317E+02  0.00000000000E+00 0.  1.
         11    1    3    3    0    0  0.84163879436E+01 -0.20251906287E+02 -0.12595835424E+02  0.25290914664E+02  0.51100000000E-03 0. -1.
        -11    1    3    3    0    0  0.10937120685E+02 -0.11387270698E+01 -0.47660581386E+01  0.11984682668E+02  0.51100000000E-03 0.  1.
        -12    1    3    3    0    0  0.18100730387E+01 -0.84164900454E+01 -0.60317220274E+01  0.10511676351E+02  0.00000000000E+00 0.  1.
</event>
<event>
 7    1  0.1400974E-009  0.4778727E+02  0.7816164E-02  0.1312668E+00
        -11   -1    0    0    0    0  0.00000000000E+00  0.00000000000E+00  0.45593999997E+02  0.45594000000E+02  0.51100000000E-03 0. -1.
         11   -1    0    0    0    0 -0.00000000000E+00 -0.00000000000E+00 -0.45593999997E+02  0.45594000000E+02  0.51100000000E-03 0.  1.
    9900012    2    1    2    0    0  0.13867033859E+01  0.43307768576E+02  0.24773841831E+01  0.47787271922E+02  0.20000004003E+02 0.  0.
        -12    1    1    2    0    0 -0.13867033859E+01 -0.43307768576E+02 -0.24773841831E+01  0.43400728078E+02  0.00000000000E+00 0.  1.
         11    1    3    3    0    0  0.20110181577E+01  0.21074696468E+02  0.47760044698E+01  0.21702470924E+02  0.51100000000E-03 0. -1.
        -11    1    3    3    0    0 -0.64248356619E+01  0.98495086880E+01  0.15928727246E+01  0.11867121743E+02  0.51100000000E-03 0.  1.
         12    1    3    3    0    0  0.58005208901E+01  0.12383563419E+02 -0.38914930113E+01  0.14217679255E+02  0.00000000000E+00 0. -1.
</event>
<event>
 7    1  0.1400974E-009  0.4778728E+02  0.7816164E-02  0.1312668E+00
        -11   -1    0    0    0    0  0.00000000000E+00  0.00000000000E+00  0.45593999997E+02  0.45594000000E+02  0.51100000000E-03 0. -1.
         11   -1    0    0    0    0 -0.00000000000E+00 -0.00000000000E+00 -0.45593999997E+02  0.45594000000E+02  0.51100000000E-03 0.  1.
    9900012    2    1    2    0    0  0.97026892113E+01  0.40693082442E+02  0.11556541114E+02  0.47787276745E+02  0.20000025991E+02 0.  0.
        -12    1    1    2    0    0 -0.97026892113E+01 -0.40693082442E+02 -0.11556541114E+02  0.43400723255E+02  0.00000000000E+00 0.  1.
         11    1    3    3    0    0  0.89231087210E+01  0.11533745255E+02  0.50922462781E+01  0.15446039016E+02  0.51100000000E-03 0. -1.
        -11    1    3    3    0    0 -0.24990162338E+01  0.26793276082E+01 -0.22168550553E+01  0.42823270737E+01  0.51100000000E-03 0.  1.
        -12    1    3    3    0    0  0.32785967241E+01  0.26480009578E+02  0.86811498909E+01  0.28058910655E+02  0.00000000000E+00 0.  1.
</event>
<event>
 7    1  0.1400974E-009  0.4778727E+02  0.7816164E-02  0.1312668E+00
        -11   -1    0    0    0    0  0.00000000000E+00  0.00000000000E+00  0.45593999997E+02  0.45594000000E+02  0.51100000000E-03 0.  1.
         11   -1    0    0    0    0 -0.00000000000E+00 -0.00000000000E+00 -0.45593999997E+02  0.45594000000E+02  0.51100000000E-03 0. -1.
    9900012    2    1    2    0    0  0.11718637750E+02 -0.14199545074E+02 -0.39302285040E+02  0.47787272352E+02  0.20000005962E+02 0.  0.
        -12    1    1    2    0    0 -0.11718637750E+02  0.14199545074E+02  0.39302285040E+02  0.43400727648E+02  0.00000000000E+00 0.  1.
         11    1    3    3    0    0  0.12311571536E+02 -0.53204649751E+01 -0.16008876613E+02  0.20884594129E+02  0.51100000000E-03 0. -1.
        -11    1    3    3    0    0  0.26340221060E+01  0.72832524208E+00 -0.22277424478E+01  0.35258143440E+01  0.51100000000E-03 0.  1.
        -12    1    3    3    0    0 -0.32269558922E+01 -0.96074053408E+01 -0.21065665979E+02  0.23376863879E+02  0.00000000000E+00 0.  1.
</event>
<event>
 7    1  0.1400974E-009  0.4778727E+02  0.7816164E-02  0.1312668E+00
        -11   -1    0    0    0    0  0.00000000000E+00  0.00000000000E+00  0.45593999997E+02  0.45594000000E+02  0.51100000000E-03 0. -1.
         11   -1    0    0    0    0 -0.00000000000E+00 -0.00000000000E+00 -0.45593999997E+02  0.45594000000E+02  0.51100000000E-03 0.  1.
    9900012    2    1    2    0    0 -0.12729974252E+02 -0.40888766878E+02 -0.70483805015E+01  0.47787272253E+02  0.20000005511E+02 0.  0.
        -12    1    1    2    0    0  0.12729974252E+02  0.40888766878E+02  0.70483805015E+01  0.43400727747E+02  0.00000000000E+00 0.  1.
         11    1    3    3    0    0 -0.50243059313E+01 -0.22858498198E+02  0.10199256515E+01  0.23426370580E+02  0.51100000000E-03 0. -1.
        -11    1    3    3    0    0 -0.17809718912E+01 -0.14389517588E+02 -0.94011644807E+01  0.17280392679E+02  0.51100000000E-03 0.  1.
        -12    1    3    3    0    0 -0.59246964292E+01 -0.36407510924E+01  0.13328583277E+01  0.70805089941E+01  0.00000000000E+00 0.  1.
</event>
<event>
 7    1  0.1400974E-009  0.4778727E+02  0.7816164E-02  0.1312668E+00
        -11   -1    0    0    0    0  0.00000000000E+00  0.00000000000E+00  0.45593999997E+02  0.45594000000E+02  0.51100000000E-03 0.  1.
         11   -1    0    0    0    0 -0.00000000000E+00 -0.00000000000E+00 -0.45593999997E+02  0.45594000000E+02  0.51100000000E-03 0. -1.
    9900012    2    1    2    0    0 -0.12392487933E+02 -0.40694587723E+02 -0.86023114821E+01  0.47787274316E+02  0.20000014915E+02 0.  0.
        -12    1    1    2    0    0  0.12392487933E+02  0.40694587723E+02  0.86023114821E+01  0.43400725684E+02  0.00000000000E+00 0.  1.
         11    1    3    3    0    0 -0.43226356892E+01 -0.70332228546E+01 -0.42506488420E+01  0.92854412315E+01  0.51100000000E-03 0. -1.
        -11    1    3    3    0    0  0.25542876897E+01 -0.17479412756E+02  0.27591418703E+01  0.17879237121E+02  0.51100000000E-03 0.  1.
        -12    1    3    3    0    0 -0.10624139934E+02 -0.16181952112E+02 -0.71108045104E+01  0.20622595963E+02  0.00000000000E+00 0.  1.
</event>
<event>
 7    1  0.1400974E-009  0.4778729E+02  0.7816164E-02  0.1312668E+00
        -11   -1    0    0    0    0  0.00000000000E+00  0.00000000000E+00  0.45593999997E+02  0.45594000000E+02  0.51100000000E-03 0.  1.
         11   -1    0    0    0    0 -0.00000000000E+00 -0.00000000000E+00 -0.45593999997E+02  0.45594000000E+02  0.51100000000E-03 0. -1.
    9900012    2    1    2    0    0 -0.29555928986E+02  0.10320559932E+02 -0.30059183335E+02  0.47787292652E+02  0.20000098517E+02 0.  0.
        -12    1    1    2    0    0  0.29555928986E+02 -0.10320559932E+02  0.30059183335E+02  0.43400707348E+02  0.00000000000E+00 0.  1.
         11    1    3    3    0    0 -0.31535481564E+01 -0.32470574273E+01 -0.79866889239E+01  0.91801660191E+01  0.51100000000E-03 0. -1.
        -11    1    3    3    0    0 -0.16016806890E+02  0.86641785282E+01 -0.19797873126E+02  0.26899105432E+02  0.51100000000E-03 0.  1.
        -12    1    3    3    0    0 -0.10385573940E+02  0.49034388315E+01 -0.22746212855E+01  0.11708021200E+02  0.00000000000E+00 0.  1.
</event>
<event>
 7    1  0.1400974E-009  0.4778727E+02  0.7816164E-02  0.1312668E+00
        -11   -1    0    0    0    0  0.00000000000E+00  0.00000000000E+00  0.45593999997E+02  0.45594000000E+02  0.51100000000E-03 0.  1.
         11   -1    0    0    0    0 -0.00000000000E+00 -0.00000000000E+00 -0.45593999997E+02  0.45594000000E+02  0.51100000000E-03 0. -1.
    9900012    2    1    2    0    0 -0.34609220777E+02  0.10696168280E+02 -0.23904331551E+02  0.47787271370E+02  0.20000001486E+02 0.  0.
        -12    1    1    2    0    0  0.34609220777E+02 -0.10696168280E+02  0.23904331551E+02  0.43400728630E+02  0.00000000000E+00 0.  1.
         11    1    3    3    0    0 -0.12730645406E+02 -0.93247159821E+00 -0.10144484993E+02  0.16304889198E+02  0.51100000000E-03 0. -1.
        -11    1    3    3    0    0 -0.12391104701E+02  0.51881827197E+01  0.17684979653E+00  0.13434581935E+02  0.51100000000E-03 0.  1.
         12    1    3    3    0    0 -0.94874706702E+01  0.64404571584E+01 -0.13936696355E+02  0.18047800238E+02  0.00000000000E+00 0. -1.
</event>
<event>
 7    1  0.1480531E-009  0.4778727E+02  0.7816164E-02  0.1312668E+00
        -11   -1    0    0    0    0  0.00000000000E+00  0.00000000000E+00  0.45593999997E+02  0.45594000000E+02  0.51100000000E-03 0.  1.
         11   -1    0    0    0    0 -0.00000000000E+00 -0.00000000000E+00 -0.45593999997E+02  0.45594000000E+02  0.51100000000E-03 0. -1.
    9900012    2    1    2    0    0  0.38949683348E+02  0.17487186515E+02  0.77938276853E+01  0.47787271030E+02  0.19999999933E+02 0.  0.
        -12    1    1    2    0    0 -0.38949683348E+02 -0.17487186515E+02 -0.77938276853E+01  0.43400728970E+02  0.00000000000E+00 0.  1.
         11    1    3    3    0    0  0.26709897121E+02  0.11436496155E+02  0.10215094596E+02  0.30798704622E+02  0.51100000000E-03 0. -1.
        -11    1    3    3    0    0  0.10660129027E+02  0.11066023669E+00 -0.17870639222E+01  0.10809449305E+02  0.51100000000E-03 0.  1.
        -12    1    3    3    0    0  0.15796572007E+01  0.59400301233E+01 -0.63420298882E+00  0.61791171026E+01  0.00000000000E+00 0.  1.
</event>
<event>
 7    1  0.1400974E-009  0.4778725E+02  0.7816164E-02  0.1312668E+00
        -11   -1    0    0    0    0  0.00000000000E+00  0.00000000000E+00  0.45593999997E+02  0.45594000000E+02  0.51100000000E-03 0. -1.
         11   -1    0    0    0    0 -0.00000000000E+00 -0.00000000000E+00 -0.45593999997E+02  0.45594000000E+02  0.51100000000E-03 0.  1.
    9900012    2    1    2    0    0  0.12092151560E+02  0.31968257689E+02  0.26747622977E+02  0.47787251574E+02  0.19999911224E+02 0.  0.
        -12    1    1    2    0    0 -0.12092151560E+02 -0.31968257689E+02 -0.26747622977E+02  0.43400748426E+02  0.00000000000E+00 0.  1.
         11    1    3    3    0    0  0.16126216638E+02  0.24667089528E+02  0.19868832011E+02  0.35542800321E+02  0.51100000000E-03 0. -1.
        -11    1    3    3    0    0  0.68242268653E+00  0.62358996570E+00 -0.65040934823E+00  0.11303086967E+01  0.51100000000E-03 0.  1.
         12    1    3    3    0    0 -0.47164877651E+01  0.66775781953E+01  0.75292003141E+01  0.11114142556E+02  0.00000000000E+00 0. -1.
</event>
<event>
 7    1  0.1400974E-009  0.4778727E+02  0.7816164E-02  0.1312668E+00
        -11   -1    0    0    0    0  0.00000000000E+00  0.00000000000E+00  0.45593999997E+02  0.45594000000E+02  0.51100000000E-03 0.  1.
         11   -1    0    0    0    0 -0.00000000000E+00 -0.00000000000E+00 -0.45593999997E+02  0.45594000000E+02  0.51100000000E-03 0. -1.
    9900012    2    1    2    0    0  0.33297389359E+02  0.23812685737E+02 -0.14417450064E+02  0.47787274125E+02  0.20000014046E+02 0.  0.
        -12    1    1    2    0    0 -0.33297389359E+02 -0.23812685737E+02  0.14417450064E+02  0.43400725875E+02  0.00000000000E+00 0.  1.
         11    1    3    3    0    0 -0.12968152577E+01 -0.38831679539E+00 -0.20400740308E+01  0.24483508855E+01  0.51100000000E-03 0.  1.
        -11    1    3    3    0    0  0.17574772776E+02  0.57302837192E+01 -0.58368356484E+01  0.19384979760E+02  0.51100000000E-03 0. -1.
         12    1    3    3    0    0  0.17019431841E+02  0.18470718813E+02 -0.65405403850E+01  0.25953943480E+02  0.00000000000E+00 0. -1.
</event>
<event>
 7    1  0.1400974E-009  0.4778727E+02  0.7816164E-02  0.1312668E+00
        -11   -1    0    0    0    0  0.00000000000E+00  0.00000000000E+00  0.45593999997E+02  0.45594000000E+02  0.51100000000E-03 0.  1.
         11   -1    0    0    0    0 -0.00000000000E+00 -0.00000000000E+00 -0.45593999997E+02  0.45594000000E+02  0.51100000000E-03 0. -1.
    9900012    2    1    2    0    0  0.10353754654E+02 -0.40807684023E+02 -0.10543060141E+02  0.47787269270E+02  0.19999991911E+02 0.  0.
        -12    1    1    2    0    0 -0.10353754654E+02  0.40807684023E+02  0.10543060141E+02  0.43400730730E+02  0.00000000000E+00 0.  1.
         11    1    3    3    0    0  0.24621315367E+01 -0.42289306335E+01 -0.57629389500E+01  0.75602520864E+01  0.51100000000E-03 0.  1.
        -11    1    3    3    0    0  0.14331955622E+01 -0.31591838558E+02 -0.52348077938E+01  0.32054664651E+02  0.51100000000E-03 0. -1.
         12    1    3    3    0    0  0.64584275548E+01 -0.49869148311E+01  0.45468660266E+00  0.81723525328E+01  0.00000000000E+00 0. -1.
</event>
<event>
 7    1  0.1400974E-009  0.4778728E+02  0.7816164E-02  0.1312668E+00
        -11   -1    0    0    0    0  0.00000000000E+00  0.00000000000E+00  0.45593999997E+02  0.45594000000E+02  0.51100000000E-03 0. -1.
         11   -1    0    0    0    0 -0.00000000000E+00 -0.00000000000E+00 -0.45593999997E+02  0.45594000000E+02  0.51100000000E-03 0.  1.
    9900012    2    1    2    0    0 -0.17708253436E+02  0.36685304089E+02 -0.14974280662E+02  0.47787275845E+02  0.20000021886E+02 0.  0.
        -12    1    1    2    0    0  0.17708253436E+02 -0.36685304089E+02  0.14974280662E+02  0.43400724155E+02  0.00000000000E+00 0.  1.
         11    1    3    3    0    0 -0.33181513129E+00  0.72740816968E+01 -0.38844058429E+00  0.72919991883E+01  0.51100000000E-03 0. -1.
        -11    1    3    3    0    0 -0.96423652187E+00 -0.21100918798E+00  0.24102936937E+01  0.26045715384E+01  0.51100000000E-03 0.  1.
         12    1    3    3    0    0 -0.16412201783E+02  0.29622231580E+02 -0.16996133771E+02  0.37890705118E+02  0.00000000000E+00 0. -1.
</event>
<event>
 7    1  0.1400974E-009  0.4778727E+02  0.7816164E-02  0.1312668E+00
        -11   -1    0    0    0    0  0.00000000000E+00  0.00000000000E+00  0.45593999997E+02  0.45594000000E+02  0.51100000000E-03 0. -1.
         11   -1    0    0    0    0 -0.00000000000E+00 -0.00000000000E+00 -0.45593999997E+02  0.45594000000E+02  0.51100000000E-03 0.  1.
    9900012    2    1    2    0    0  0.24779184839E+01 -0.42941250716E+02 -0.57906801774E+01  0.47787273393E+02  0.20000010709E+02 0.  0.
        -12    1    1    2    0    0 -0.24779184839E+01  0.42941250716E+02  0.57906801774E+01  0.43400726607E+02  0.00000000000E+00 0.  1.
         11    1    3    3    0    0  0.76747860362E+01 -0.32779361078E+02 -0.44336880790E+01  0.33956537568E+02  0.51100000000E-03 0. -1.
        -11    1    3    3    0    0 -0.51093180387E+01 -0.11298091022E+02 -0.19402764297E+01  0.12550564308E+02  0.51100000000E-03 0.  1.
        -12    1    3    3    0    0 -0.87549513661E-01  0.11362013839E+01  0.58328433123E+00  0.12801715171E+01  0.00000000000E+00 0.  1.
</event>
<event>
 7    1  0.1400974E-009  0.4778727E+02  0.7816164E-02  0.1312668E+00
        -11   -1    0    0    0    0  0.00000000000E+00  0.00000000000E+00  0.45593999997E+02  0.45594000000E+02  0.51100000000E-03 0. -1.
         11   -1    0    0    0    0 -0.00000000000E+00 -0.00000000000E+00 -0.45593999997E+02  0.45594000000E+02  0.51100000000E-03 0.  1.
    9900012    2    1    2    0    0 -0.32616910348E+02  0.28542953466E+02 -0.22495088089E+01  0.47787270477E+02  0.19999997414E+02 0.  0.
        -12    1    1    2    0    0  0.32616910348E+02 -0.28542953466E+02  0.22495088089E+01  0.43400729523E+02  0.00000000000E+00 0.  1.
         11    1    3    3    0    0 -0.94219979120E+01  0.76284548602E+01  0.57161320273E+01  0.13403041962E+02  0.51100000000E-03 0. -1.
        -11    1    3    3    0    0 -0.22904193764E+01  0.26345107945E+01  0.29259745110E+01  0.45549967229E+01  0.51100000000E-03 0.  1.
        -12    1    3    3    0    0 -0.20904493060E+02  0.18279987811E+02 -0.10891615347E+02  0.29829231793E+02  0.00000000000E+00 0.  1.
</event>
<event>
 7    1  0.1400974E-009  0.4778727E+02  0.7816164E-02  0.1312668E+00
        -11   -1    0    0    0    0  0.00000000000E+00  0.00000000000E+00  0.45593999997E+02  0.45594000000E+02  0.51100000000E-03 0. -1.
         11   -1    0    0    0    0 -0.00000000000E+00 -0.00000000000E+00 -0.45593999997E+02  0.45594000000E+02  0.51100000000E-03 0.  1.
    9900012    2    1    2    0    0 -0.38285737103E+02 -0.12314204742E+02  0.16315218924E+02  0.47787266453E+02  0.19999979064E+02 0.  0.
        -12    1    1    2    0    0  0.38285737103E+02  0.12314204742E+02 -0.16315218924E+02  0.43400733547E+02  0.00000000000E+00 0.  1.
         11    1    3    3    0    0 -0.13229247867E+02 -0.41760229324E+01  0.34815611567E+01  0.14302917010E+02  0.51100000000E-03 0. -1.
        -11    1    3    3    0    0  0.83359553168E+00  0.22769299689E+01 -0.62208987415E+00  0.25032554137E+01  0.51100000000E-03 0.  1.
         12    1    3    3    0    0 -0.25890084768E+02 -0.10415111778E+02  0.13455747641E+02  0.30981094029E+02  0.00000000000E+00 0. -1.
</event>
<event>
 7    1  0.1400974E-009  0.4778727E+02  0.7816164E-02  0.1312668E+00
        -11   -1    0    0    0    0  0.00000000000E+00  0.00000000000E+00  0.45593999997E+02  0.45594000000E+02  0.51100000000E-03 0.  1.
         11   -1    0    0    0    0 -0.00000000000E+00 -0.00000000000E+00 -0.45593999997E+02  0.45594000000E+02  0.51100000000E-03 0. -1.
    9900012    2    1    2    0    0 -0.32258514127E+02 -0.12010159288E+01 -0.29009809368E+02  0.47787271751E+02  0.20000003222E+02 0.  0.
        -12    1    1    2    0    0  0.32258514127E+02  0.12010159288E+01  0.29009809368E+02  0.43400728249E+02  0.00000000000E+00 0.  1.
         11    1    3    3    0    0  0.12939629026E+01  0.28490765443E+01 -0.19829241978E+01  0.37045331398E+01  0.51100000000E-03 0.  1.
        -11    1    3    3    0    0 -0.11120399344E+02 -0.50129687969E+01 -0.11663182460E+02  0.16876698820E+02  0.51100000000E-03 0. -1.
        -12    1    3    3    0    0 -0.22432077686E+02  0.96287632382E+00 -0.15363702711E+02  0.27206039791E+02  0.00000000000E+00 0.  1.
</event>
<event>
 7    1  0.1400974E-009  0.4778727E+02  0.7816164E-02  0.1312668E+00
        -11   -1    0    0    0    0  0.00000000000E+00  0.00000000000E+00  0.45593999997E+02  0.45594000000E+02  0.51100000000E-03 0. -1.
         11   -1    0    0    0    0 -0.00000000000E+00 -0.00000000000E+00 -0.45593999997E+02  0.45594000000E+02  0.51100000000E-03 0.  1.
    9900012    2    1    2    0    0 -0.33421771654E+02  0.25264015511E+02 -0.11328631754E+02  0.47787271922E+02  0.20000004003E+02 0.  0.
        -12    1    1    2    0    0  0.33421771654E+02 -0.25264015511E+02  0.11328631754E+02  0.43400728078E+02  0.00000000000E+00 0.  1.
         11    1    3    3    0    0 -0.28554253016E+02  0.17959400848E+02 -0.19651540075E+01  0.33789751030E+02  0.51100000000E-03 0. -1.
        -11    1    3    3    0    0 -0.17216364179E+01 -0.17698604054E+00 -0.17756913725E+00  0.17397951240E+01  0.51100000000E-03 0.  1.
        -12    1    3    3    0    0 -0.31458822198E+01  0.74816007042E+01 -0.91859086097E+01  0.12257725769E+02  0.00000000000E+00 0.  1.
</event>
<event>
 7    1  0.1400974E-009  0.4778727E+02  0.7816164E-02  0.1312668E+00
        -11   -1    0    0    0    0  0.00000000000E+00  0.00000000000E+00  0.45593999997E+02  0.45594000000E+02  0.51100000000E-03 0. -1.
         11   -1    0    0    0    0 -0.00000000000E+00 -0.00000000000E+00 -0.45593999997E+02  0.45594000000E+02  0.51100000000E-03 0.  1.
    9900012    2    1    2    0    0 -0.29765500627E+02 -0.24528336675E+02 -0.19899720203E+02  0.47787271990E+02  0.20000004312E+02 0.  0.
        -12    1    1    2    0    0  0.29765500627E+02  0.24528336675E+02  0.19899720203E+02  0.43400728010E+02  0.00000000000E+00 0.  1.
         11    1    3    3    0    0  0.38035145165E-01 -0.43803949497E+01 -0.31558048989E+01  0.53989268756E+01  0.51100000000E-03 0. -1.
        -11    1    3    3    0    0 -0.23037624564E+02 -0.11588617680E+02 -0.48356408191E+01  0.26237599503E+02  0.51100000000E-03 0.  1.
        -12    1    3    3    0    0 -0.67659112082E+01 -0.85593240456E+01 -0.11908274486E+02  0.16150745612E+02  0.00000000000E+00 0.  1.
</event>
<event>
 7    1  0.1400974E-009  0.4778727E+02  0.7816164E-02  0.1312668E+00
        -11   -1    0    0    0    0  0.00000000000E+00  0.00000000000E+00  0.45593999997E+02  0.45594000000E+02  0.51100000000E-03 0.  1.
         11   -1    0    0    0    0 -0.00000000000E+00 -0.00000000000E+00 -0.45593999997E+02  0.45594000000E+02  0.51100000000E-03 0. -1.
    9900012    2    1    2    0    0  0.20346256783E+02 -0.16920079694E+02 -0.34400062999E+02  0.47787267330E+02  0.19999983066E+02 0.  0.
        -12    1    1    2    0    0 -0.20346256783E+02  0.16920079694E+02  0.34400062999E+02  0.43400732670E+02  0.00000000000E+00 0.  1.
         11    1    3    3    0    0 -0.15267788805E+01 -0.94194888309E+00 -0.30798488391E+01  0.35642377279E+01  0.51100000000E-03 0. -1.
        -11    1    3    3    0    0  0.19204619963E+02 -0.66268925576E+01 -0.15106950722E+02  0.25317051433E+02  0.51100000000E-03 0.  1.
        -12    1    3    3    0    0  0.26684157002E+01 -0.93512382529E+01 -0.16213263438E+02  0.18905978169E+02  0.00000000000E+00 0.  1.
</event>
<event>
 7    1  0.1400974E-009  0.4778727E+02  0.7816164E-02  0.1312668E+00
        -11   -1    0    0    0    0  0.00000000000E+00  0.00000000000E+00  0.45593999997E+02  0.45594000000E+02  0.51100000000E-03 0. -1.
         11   -1    0    0    0    0 -0.00000000000E+00 -0.00000000000E+00 -0.45593999997E+02  0.45594000000E+02  0.51100000000E-03 0.  1.
    9900012    2    1    2    0    0  0.30508825314E+01  0.33593618314E+02 -0.27309052563E+02  0.47787269274E+02  0.19999991930E+02 0.  0.
        -12    1    1    2    0    0 -0.30508825314E+01 -0.33593618314E+02  0.27309052563E+02  0.43400730726E+02  0.00000000000E+00 0.  1.
         11    1    3    3    0    0 -0.22049769923E+01  0.21290309358E+02 -0.15484205555E+02  0.26417793587E+02  0.51100000000E-03 0. -1.
        -11    1    3    3    0    0 -0.11509087118E+01  0.82155304060E+01 -0.10923402915E+02  0.13716423084E+02  0.51100000000E-03 0.  1.
         12    1    3    3    0    0  0.64067682355E+01  0.40877785503E+01 -0.90144409311E+00  0.76530526036E+01  0.00000000000E+00 0. -1.
</event>
<event>
 7    1  0.1400974E-009  0.4778727E+02  0.7816164E-02  0.1312668E+00
        -11   -1    0    0    0    0  0.00000000000E+00  0.00000000000E+00  0.45593999997E+02  0.45594000000E+02  0.51100000000E-03 0.  1.
         11   -1    0    0    0    0 -0.00000000000E+00 -0.00000000000E+00 -0.45593999997E+02  0.45594000000E+02  0.51100000000E-03 0. -1.
    9900012    2    1    2    0    0 -0.15994800302E+02  0.19268941575E+02 -0.35447106974E+02  0.47787272598E+02  0.20000007085E+02 0.  0.
        -12    1    1    2    0    0  0.15994800302E+02 -0.19268941575E+02  0.35447106974E+02  0.43400727402E+02  0.00000000000E+00 0.  1.
         11    1    3    3    0    0 -0.12018923962E+02  0.13022737103E+02 -0.17034151005E+02  0.24580653278E+02  0.51100000000E-03 0.  1.
        -11    1    3    3    0    0  0.66435056969E+00  0.83554842955E+01 -0.14622948271E+02  0.16854853778E+02  0.51100000000E-03 0. -1.
        -12    1    3    3    0    0 -0.46402269094E+01 -0.21092798233E+01 -0.37900076989E+01  0.63517655421E+01  0.00000000000E+00 0.  1.
</event>
<event>
 7    1  0.1400974E-009  0.4778727E+02  0.7816164E-02  0.1312668E+00
        -11   -1    0    0    0    0  0.00000000000E+00  0.00000000000E+00  0.45593999997E+02  0.45594000000E+02  0.51100000000E-03 0.  1.
         11   -1    0    0    0    0 -0.00000000000E+00 -0.00000000000E+00 -0.45593999997E+02  0.45594000000E+02  0.51100000000E-03 0. -1.
    9900012    2    1    2    0    0 -0.22281689755E+02  0.36292845770E+02  0.83653301234E+01  0.47787273042E+02  0.20000009108E+02 0.  0.
        -12    1    1    2    0    0  0.22281689755E+02 -0.36292845770E+02 -0.83653301234E+01  0.43400726958E+02  0.00000000000E+00 0.  1.
         11    1    3    3    0    0 -0.45737123137E+01  0.91273903537E+00  0.30863238844E+01  0.55926140807E+01  0.51100000000E-03 0. -1.
        -11    1    3    3    0    0  0.11588290682E+01  0.38547231135E+01  0.36264017005E+01  0.54178007204E+01  0.51100000000E-03 0.  1.
         12    1    3    3    0    0 -0.18866806510E+02  0.31525383621E+02  0.16526045384E+01  0.36776858241E+02  0.00000000000E+00 0. -1.
</event>
<event>
 7    1  0.1400974E-009  0.4778727E+02  0.7816164E-02  0.1312668E+00
        -11   -1    0    0    0    0  0.00000000000E+00  0.00000000000E+00  0.45593999997E+02  0.45594000000E+02  0.51100000000E-03 0. -1.
         11   -1    0    0    0    0 -0.00000000000E+00 -0.00000000000E+00 -0.45593999997E+02  0.45594000000E+02  0.51100000000E-03 0.  1.
    9900012    2    1    2    0    0  0.78839585075E+01 -0.37736942006E+02  0.19934638233E+02  0.47787269646E+02  0.19999993626E+02 0.  0.
        -12    1    1    2    0    0 -0.78839585075E+01  0.37736942006E+02 -0.19934638233E+02  0.43400730354E+02  0.00000000000E+00 0.  1.
         11    1    3    3    0    0  0.46392777884E+01 -0.13194257963E+01  0.41719678776E+01  0.63772328688E+01  0.51100000000E-03 0. -1.
        -11    1    3    3    0    0  0.36370839712E+01 -0.20186976025E+02  0.29397545548E+01  0.20721595931E+02  0.51100000000E-03 0.  1.
         12    1    3    3    0    0 -0.39240325211E+00 -0.16230540185E+02  0.12822915801E+02  0.20688440846E+02  0.00000000000E+00 0. -1.
</event>
<event>
 7    1  0.1400974E-009  0.4778727E+02  0.7816164E-02  0.1312668E+00
        -11   -1    0    0    0    0  0.00000000000E+00  0.00000000000E+00  0.45593999997E+02  0.45594000000E+02  0.51100000000E-03 0. -1.
         11   -1    0    0    0    0 -0.00000000000E+00 -0.00000000000E+00 -0.45593999997E+02  0.45594000000E+02  0.51100000000E-03 0.  1.
    9900012    2    1    2    0    0 -0.42824649815E+02 -0.52379559458E+01  0.47155432868E+01  0.47787272325E+02  0.20000005837E+02 0.  0.
        -12    1    1    2    0    0  0.42824649815E+02  0.52379559458E+01 -0.47155432868E+01  0.43400727675E+02  0.00000000000E+00 0.  1.
         11    1    3    3    0    0 -0.38410657465E+02 -0.19320715755E+01  0.66778134088E+01  0.39034660235E+02  0.51100000000E-03 0. -1.
        -11    1    3    3    0    0 -0.32394104614E+00  0.70330634258E+00  0.17594407439E+01  0.19222927991E+01  0.51100000000E-03 0.  1.
         12    1    3    3    0    0 -0.40900513036E+01 -0.40091907129E+01 -0.37217108660E+01  0.68303192904E+01  0.00000000000E+00 0. -1.
</event>
<event>
 7    1  0.1400974E-009  0.4778727E+02  0.7816164E-02  0.1312668E+00
        -11   -1    0    0    0    0  0.00000000000E+00  0.00000000000E+00  0.45593999997E+02  0.45594000000E+02  0.51100000000E-03 0.  1.
         11   -1    0    0    0    0 -0.00000000000E+00 -0.00000000000E+00 -0.45593999997E+02  0.45594000000E+02  0.51100000000E-03 0. -1.
    9900012    2    1    2    0    0 -0.33163528141E+02 -0.70858926695E+01 -0.27084937528E+02  0.47787270575E+02  0.19999997860E+02 0.  0.
        -12    1    1    2    0    0  0.33163528141E+02  0.70858926695E+01  0.27084937528E+02  0.43400729425E+02  0.00000000000E+00 0.  1.
         11    1    3    3    0    0 -0.14264786716E+02 -0.24621879576E+01 -0.11339638918E+02  0.18388418111E+02  0.51100000000E-03 0. -1.
        -11    1    3    3    0    0 -0.22567101528E+01 -0.62146694350E+01 -0.94534913208E+01  0.11536175940E+02  0.51100000000E-03 0.  1.
        -12    1    3    3    0    0 -0.16642031273E+02  0.15909647231E+01 -0.62918072893E+01  0.17862676524E+02  0.00000000000E+00 0.  1.
</event>
<event>
 7    1  0.1400974E-009  0.4778727E+02  0.7816164E-02  0.1312668E+00
        -11   -1    0    0    0    0  0.00000000000E+00  0.00000000000E+00  0.45593999997E+02  0.45594000000E+02  0.51100000000E-03 0.  1.
         11   -1    0    0    0    0 -0.00000000000E+00 -0.00000000000E+00 -0.45593999997E+02  0.45594000000E+02  0.51100000000E-03 0. -1.
    9900012    2    1    2    0    0 -0.18222619699E+02 -0.22515514657E+02 -0.32320439506E+02  0.47787273292E+02  0.20000010246E+02 0.  0.
        -12    1    1    2    0    0  0.18222619699E+02  0.22515514657E+02  0.32320439506E+02  0.43400726708E+02  0.00000000000E+00 0.  1.
         11    1    3    3    0    0 -0.10442147784E+01  0.42688934121E+00 -0.62403282731E+01  0.63414758716E+01  0.51100000000E-03 0. -1.
        -11    1    3    3    0    0 -0.14729992264E+00  0.37148378844E+00  0.14790584209E+01  0.15320938436E+01  0.51100000000E-03 0.  1.
         12    1    3    3    0    0 -0.17031104998E+02 -0.23313887787E+02 -0.27559169654E+02  0.39913703576E+02  0.00000000000E+00 0. -1.
</event>
<event>
 7    1  0.1400974E-009  0.4778727E+02  0.7816164E-02  0.1312668E+00
        -11   -1    0    0    0    0  0.00000000000E+00  0.00000000000E+00  0.45593999997E+02  0.45594000000E+02  0.51100000000E-03 0. -1.
         11   -1    0    0    0    0 -0.00000000000E+00 -0.00000000000E+00 -0.45593999997E+02  0.45594000000E+02  0.51100000000E-03 0.  1.
    9900012    2    1    2    0    0 -0.25085233479E+01 -0.69799812209E+01  0.42762254792E+02  0.47787271180E+02  0.20000000617E+02 0.  0.
        -12    1    1    2    0    0  0.25085233479E+01  0.69799812209E+01 -0.42762254792E+02  0.43400728820E+02  0.00000000000E+00 0.  1.
         11    1    3    3    0    0  0.21810584997E+00 -0.18766178154E+01  0.16566509136E+02  0.16673886463E+02  0.51100000000E-03 0. -1.
        -11    1    3    3    0    0 -0.22711193177E+01  0.30315373971E+01  0.11505488511E+00  0.37896490382E+01  0.51100000000E-03 0.  1.
         12    1    3    3    0    0 -0.45550988022E+00 -0.81349008025E+01  0.26080690771E+02  0.27323735678E+02  0.00000000000E+00 0. -1.
</event>
<event>
 7    1  0.1400974E-009  0.4778727E+02  0.7816164E-02  0.1312668E+00
        -11   -1    0    0    0    0  0.00000000000E+00  0.00000000000E+00  0.45593999997E+02  0.45594000000E+02  0.51100000000E-03 0.  1.
         11   -1    0    0    0    0 -0.00000000000E+00 -0.00000000000E+00 -0.45593999997E+02  0.45594000000E+02  0.51100000000E-03 0. -1.
    9900012    2    1    2    0    0 -0.87621982666E+01 -0.30516485017E+01 -0.42397340504E+02  0.47787272370E+02  0.20000006042E+02 0.  0.
        -12    1    1    2    0    0  0.87621982666E+01  0.30516485017E+01  0.42397340504E+02  0.43400727630E+02  0.00000000000E+00 0.  1.
         11    1    3    3    0    0 -0.48367387394E+01  0.15236692468E+00 -0.12893651325E+02  0.13771837280E+02  0.51100000000E-03 0. -1.
        -11    1    3    3    0    0  0.48310105249E+01 -0.33117033945E+01 -0.21027546991E+02  0.21828050183E+02  0.51100000000E-03 0.  1.
         12    1    3    3    0    0 -0.87564700521E+01  0.10768796811E+00 -0.84761421876E+01  0.12187384906E+02  0.00000000000E+00 0. -1.
</event>
<event>
 7    1  0.1400974E-009  0.4778727E+02  0.7816164E-02  0.1312668E+00
        -11   -1    0    0    0    0  0.00000000000E+00  0.00000000000E+00  0.45593999997E+02  0.45594000000E+02  0.51100000000E-03 0.  1.
         11   -1    0    0    0    0 -0.00000000000E+00 -0.00000000000E+00 -0.45593999997E+02  0.45594000000E+02  0.51100000000E-03 0. -1.
    9900012    2    1    2    0    0  0.33852021958E+02  0.39888756841E+01 -0.26865456151E+02  0.47787271273E+02  0.20000001040E+02 0.  0.
        -12    1    1    2    0    0 -0.33852021958E+02 -0.39888756841E+01  0.26865456151E+02  0.43400728727E+02  0.00000000000E+00 0.  1.
         11    1    3    3    0    0  0.14618176892E+02  0.97454761290E+01 -0.95020301038E+01  0.19973832306E+02  0.51100000000E-03 0. -1.
        -11    1    3    3    0    0 -0.77049279905E+00 -0.31049709468E+00 -0.10411685374E+00  0.83720259170E+00  0.51100000000E-03 0.  1.
        -12    1    3    3    0    0  0.20004337865E+02 -0.54461033502E+01 -0.17259309194E+02  0.26976236375E+02  0.00000000000E+00 0.  1.
</event>
<event>
 7    1  0.1400974E-009  0.4778727E+02  0.7816164E-02  0.1312668E+00
        -11   -1    0    0    0    0  0.00000000000E+00  0.00000000000E+00  0.45593999997E+02  0.45594000000E+02  0.51100000000E-03 0.  1.
         11   -1    0    0    0    0 -0.00000000000E+00 -0.00000000000E+00 -0.45593999997E+02  0.45594000000E+02  0.51100000000E-03 0. -1.
    9900012    2    1    2    0    0 -0.40493064254E+02  0.10001734884E+02 -0.11995860511E+02  0.47787267025E+02  0.19999981674E+02 0.  0.
        -12    1    1    2    0    0  0.40493064254E+02 -0.10001734884E+02  0.11995860511E+02  0.43400732975E+02  0.00000000000E+00 0.  1.
         11    1    3    3    0    0 -0.16120131898E+02  0.83441518559E+01 -0.10957555463E+02  0.21202630605E+02  0.51100000000E-03 0. -1.
        -11    1    3    3    0    0 -0.22168228294E+02  0.49312178788E+00 -0.41898243967E+01  0.22566083921E+02  0.51100000000E-03 0.  1.
        -12    1    3    3    0    0 -0.22047040626E+01  0.11644612403E+01  0.31515193486E+01  0.40185524992E+01  0.00000000000E+00 0.  1.
</event>
<event>
 7    1  0.1400974E-009  0.4778727E+02  0.7816164E-02  0.1312668E+00
        -11   -1    0    0    0    0  0.00000000000E+00  0.00000000000E+00  0.45593999997E+02  0.45594000000E+02  0.51100000000E-03 0.  1.
         11   -1    0    0    0    0 -0.00000000000E+00 -0.00000000000E+00 -0.45593999997E+02  0.45594000000E+02  0.51100000000E-03 0. -1.
    9900012    2    1    2    0    0 -0.47355890000E+01 -0.33788057352E+02 -0.26824708383E+02  0.47787267257E+02  0.19999982732E+02 0.  0.
        -12    1    1    2    0    0  0.47355890000E+01  0.33788057352E+02  0.26824708383E+02  0.43400732743E+02  0.00000000000E+00 0.  1.
         11    1    3    3    0    0  0.26320367745E+01 -0.29541434755E+02 -0.19723173242E+02  0.35617798191E+02  0.51100000000E-03 0. -1.
        -11    1    3    3    0    0 -0.23450811658E+01 -0.11124475054E+01  0.38609743006E+00  0.26241220652E+01  0.51100000000E-03 0.  1.
         12    1    3    3    0    0 -0.50225446087E+01 -0.31341750915E+01 -0.74876325714E+01  0.95453470013E+01  0.00000000000E+00 0. -1.
</event>
<event>
 7    1  0.1400974E-009  0.4778727E+02  0.7816164E-02  0.1312668E+00
        -11   -1    0    0    0    0  0.00000000000E+00  0.00000000000E+00  0.45593999997E+02  0.45594000000E+02  0.51100000000E-03 0.  1.
         11   -1    0    0    0    0 -0.00000000000E+00 -0.00000000000E+00 -0.45593999997E+02  0.45594000000E+02  0.51100000000E-03 0. -1.
    9900012    2    1    2    0    0 -0.15221602341E+02 -0.37073895833E+02 -0.16656892648E+02  0.47787274168E+02  0.20000014241E+02 0.  0.
        -12    1    1    2    0    0  0.15221602341E+02  0.37073895833E+02  0.16656892648E+02  0.43400725832E+02  0.00000000000E+00 0.  1.
         11    1    3    3    0    0 -0.41014844775E+01 -0.17791754408E+01 -0.66666666735E+01  0.80269598831E+01  0.51100000000E-03 0. -1.
        -11    1    3    3    0    0 -0.28831312226E+01 -0.11461290781E+02  0.17454081902E+01  0.11946551051E+02  0.51100000000E-03 0.  1.
        -12    1    3    3    0    0 -0.82369866407E+01 -0.23833429612E+02 -0.11735634165E+02  0.27813763234E+02  0.00000000000E+00 0.  1.
</event>
<event>
 7    1  0.1400974E-009  0.4778727E+02  0.7816164E-02  0.1312668E+00
        -11   -1    0    0    0    0  0.00000000000E+00  0.00000000000E+00  0.45593999997E+02  0.45594000000E+02  0.51100000000E-03 0.  1.
         11   -1    0    0    0    0 -0.00000000000E+00 -0.00000000000E+00 -0.45593999997E+02  0.45594000000E+02  0.51100000000E-03 0. -1.
    9900012    2    1    2    0    0  0.30584306537E+02  0.30721098110E+02  0.21065643616E+01  0.47787270872E+02  0.19999999213E+02 0.  0.
        -12    1    1    2    0    0 -0.30584306537E+02 -0.30721098110E+02 -0.21065643616E+01  0.43400729128E+02  0.00000000000E+00 0.  1.
         11    1    3    3    0    0  0.24373774117E+02  0.30012350808E+02  0.29556976876E+01  0.38775742608E+02  0.51100000000E-03 0. -1.
        -11    1    3    3    0    0 -0.42647782042E-01  0.18423638945E+00  0.20784746177E+01  0.20870598645E+01  0.51100000000E-03 0.  1.
         12    1    3    3    0    0  0.62531802024E+01  0.52451091267E+00 -0.29276079437E+01  0.69244683993E+01  0.00000000000E+00 0. -1.
</event>
<event>
 7    1  0.1400974E-009  0.4778727E+02  0.7816164E-02  0.1312668E+00
        -11   -1    0    0    0    0  0.00000000000E+00  0.00000000000E+00  0.45593999997E+02  0.45594000000E+02  0.51100000000E-03 0.  1.
         11   -1    0    0    0    0 -0.00000000000E+00 -0.00000000000E+00 -0.45593999997E+02  0.45594000000E+02  0.51100000000E-03 0. -1.
    9900012    2    1    2    0    0 -0.32533329088E+01  0.20087010761E+02 -0.38334728517E+02  0.47787267439E+02  0.19999983560E+02 0.  0.
        -12    1    1    2    0    0  0.32533329088E+01 -0.20087010761E+02  0.38334728517E+02  0.43400732561E+02  0.00000000000E+00 0.  1.
         11    1    3    3    0    0 -0.34390907680E+01  0.10202716099E+02 -0.85360628770E+01  0.13739982926E+02  0.51100000000E-03 0. -1.
        -11    1    3    3    0    0 -0.17747535282E+01 -0.28073030296E+01 -0.91140719279E+01  0.97003612177E+01  0.51100000000E-03 0.  1.
         12    1    3    3    0    0  0.19605113874E+01  0.12691597692E+02 -0.20684593713E+02  0.24346923295E+02  0.00000000000E+00 0. -1.
</event>
<event>
 7    1  0.1400974E-009  0.4778727E+02  0.7816164E-02  0.1312668E+00
        -11   -1    0    0    0    0  0.00000000000E+00  0.00000000000E+00  0.45593999997E+02  0.45594000000E+02  0.51100000000E-03 0.  1.
         11   -1    0    0    0    0 -0.00000000000E+00 -0.00000000000E+00 -0.45593999997E+02  0.45594000000E+02  0.51100000000E-03 0. -1.
    9900012    2    1    2    0    0  0.10851440160E+01  0.33286630201E+02 -0.27828870294E+02  0.47787270634E+02  0.19999998130E+02 0.  0.
        -12    1    1    2    0    0 -0.10851440160E+01 -0.33286630201E+02  0.27828870294E+02  0.43400729366E+02  0.00000000000E+00 0.  1.
         11    1    3    3    0    0  0.11162284935E+01  0.48651217681E+01  0.52377837326E+00  0.50189361336E+01  0.51100000000E-03 0. -1.
        -11    1    3    3    0    0 -0.35635676762E+01  0.84593594579E+01 -0.17530271372E+02  0.19788132597E+02  0.51100000000E-03 0.  1.
         12    1    3    3    0    0  0.35324831988E+01  0.19962148975E+02 -0.10822377295E+02  0.22980201904E+02  0.00000000000E+00 0. -1.
</event>
<event>
 7    1  0.1400974E-009  0.4778726E+02  0.7816164E-02  0.1312668E+00
        -11   -1    0    0    0    0  0.00000000000E+00  0.00000000000E+00  0.45593999997E+02  0.45594000000E+02  0.51100000000E-03 0.  1.
         11   -1    0    0    0    0 -0.00000000000E+00 -0.00000000000E+00 -0.45593999997E+02  0.45594000000E+02  0.51100000000E-03 0. -1.
    9900012    2    1    2    0    0 -0.10856399236E+02  0.17689059978E+01 -0.41983730225E+02  0.47787262260E+02  0.19999959948E+02 0.  0.
        -12    1    1    2    0    0  0.10856399236E+02 -0.17689059978E+01  0.41983730225E+02  0.43400737740E+02  0.00000000000E+00 0.  1.
         11    1    3    3    0    0 -0.41745276802E+01 -0.86561903252E+00 -0.34079954666E+02  0.34345586149E+02  0.51100000000E-03 0. -1.
        -11    1    3    3    0    0  0.14250971529E+01 -0.85883978501E+00 -0.11275610809E+00  0.16676995750E+01  0.51100000000E-03 0.  1.
        -12    1    3    3    0    0 -0.81069687089E+01  0.34933648153E+01 -0.77910194508E+01  0.11773976536E+02  0.00000000000E+00 0.  1.
</event>
<event>
 7    1  0.1400974E-009  0.4778727E+02  0.7816164E-02  0.1312668E+00
        -11   -1    0    0    0    0  0.00000000000E+00  0.00000000000E+00  0.45593999997E+02  0.45594000000E+02  0.51100000000E-03 0. -1.
         11   -1    0    0    0    0 -0.00000000000E+00 -0.00000000000E+00 -0.45593999997E+02  0.45594000000E+02  0.51100000000E-03 0.  1.
    9900012    2    1    2    0    0  0.56195775370E+01 -0.38120878529E+02  0.19971027679E+02  0.47787274452E+02  0.20000015536E+02 0.  0.
        -12    1    1    2    0    0 -0.56195775370E+01  0.38120878529E+02 -0.19971027679E+02  0.43400725548E+02  0.00000000000E+00 0.  1.
         11    1    3    3    0    0  0.75483594446E+01 -0.23146696108E+02  0.93379227342E+01  0.26075737234E+02  0.51100000000E-03 0. -1.
        -11    1    3    3    0    0  0.16926309630E+01  0.11430607685E+01 -0.42817351363E-01  0.20428952700E+01  0.51100000000E-03 0.  1.
         12    1    3    3    0    0 -0.36214128707E+01 -0.16117243190E+02  0.10675922296E+02  0.19668641948E+02  0.00000000000E+00 0. -1.
</event>
<event>
 7    1  0.1400974E-009  0.4778727E+02  0.7816164E-02  0.1312668E+00
        -11   -1    0    0    0    0  0.00000000000E+00  0.00000000000E+00  0.45593999997E+02  0.45594000000E+02  0.51100000000E-03 0.  1.
         11   -1    0    0    0    0 -0.00000000000E+00 -0.00000000000E+00 -0.45593999997E+02  0.45594000000E+02  0.51100000000E-03 0. -1.
    9900012    2    1    2    0    0 -0.14380411448E+02  0.20561745352E+02 -0.35412451471E+02  0.47787270461E+02  0.19999997341E+02 0.  0.
        -12    1    1    2    0    0  0.14380411448E+02 -0.20561745352E+02  0.35412451471E+02  0.43400729539E+02  0.00000000000E+00 0.  1.
         11    1    3    3    0    0 -0.74215811903E+01  0.10528935757E+02 -0.23549601807E+02  0.26842542746E+02  0.51100000000E-03 0. -1.
        -11    1    3    3    0    0  0.17373335445E+01  0.75606697301E+01 -0.30999973171E+01  0.83541629287E+01  0.51100000000E-03 0.  1.
         12    1    3    3    0    0 -0.86961638027E+01  0.24721398646E+01 -0.87628523465E+01  0.12590564786E+02  0.00000000000E+00 0. -1.
</event>
<event>
 7    1  0.1400974E-009  0.4778727E+02  0.7816164E-02  0.1312668E+00
        -11   -1    0    0    0    0  0.00000000000E+00  0.00000000000E+00  0.45593999997E+02  0.45594000000E+02  0.51100000000E-03 0. -1.
         11   -1    0    0    0    0 -0.00000000000E+00 -0.00000000000E+00 -0.45593999997E+02  0.45594000000E+02  0.51100000000E-03 0.  1.
    9900012    2    1    2    0    0 -0.20755018620E+01 -0.11905224892E+02  0.41684304535E+02  0.47787270371E+02  0.19999996931E+02 0.  0.
        -12    1    1    2    0    0  0.20755018620E+01  0.11905224892E+02 -0.41684304535E+02  0.43400729629E+02  0.00000000000E+00 0.  1.
         11    1    3    3    0    0 -0.11191888090E+01 -0.83868396867E-01 -0.19223314796E+01  0.22259775553E+01  0.51100000000E-03 0.  1.
        -11    1    3    3    0    0 -0.24217316492E+01 -0.20673725506E+01  0.13897755373E+02  0.14257854612E+02  0.51100000000E-03 0. -1.
        -12    1    3    3    0    0  0.14654185961E+01 -0.97539839441E+01  0.29708880642E+02  0.31303438205E+02  0.00000000000E+00 0.  1.
</event>
<event>
 7    1  0.1400974E-009  0.4778727E+02  0.7816164E-02  0.1312668E+00
        -11   -1    0    0    0    0  0.00000000000E+00  0.00000000000E+00  0.45593999997E+02  0.45594000000E+02  0.51100000000E-03 0.  1.
         11   -1    0    0    0    0 -0.00000000000E+00 -0.00000000000E+00 -0.45593999997E+02  0.45594000000E+02  0.51100000000E-03 0. -1.
    9900012    2    1    2    0    0  0.20729832597E+02 -0.37377304020E+02 -0.75388726792E+01  0.47787269401E+02  0.19999992506E+02 0.  0.
        -12    1    1    2    0    0 -0.20729832597E+02  0.37377304020E+02  0.75388726792E+01  0.43400730599E+02  0.00000000000E+00 0.  1.
         11    1    3    3    0    0  0.79193221032E+01 -0.22175190066E+02  0.30168844796E+01  0.23739340961E+02  0.51100000000E-03 0. -1.
        -11    1    3    3    0    0  0.60096971646E+01 -0.19446672126E+01 -0.11298835781E+01  0.64167614681E+01  0.51100000000E-03 0.  1.
         12    1    3    3    0    0  0.68008133291E+01 -0.13257446741E+02 -0.94258735808E+01  0.17631166972E+02  0.00000000000E+00 0. -1.
</event>
<event>
 7    1  0.1400974E-009  0.4778727E+02  0.7816164E-02  0.1312668E+00
        -11   -1    0    0    0    0  0.00000000000E+00  0.00000000000E+00  0.45593999997E+02  0.45594000000E+02  0.51100000000E-03 0.  1.
         11   -1    0    0    0    0 -0.00000000000E+00 -0.00000000000E+00 -0.45593999997E+02  0.45594000000E+02  0.51100000000E-03 0. -1.
    9900012    2    1    2    0    0  0.29665220978E+02 -0.26783100165E+02 -0.16919320558E+02  0.47787271916E+02  0.20000003974E+02 0.  0.
        -12    1    1    2    0    0 -0.29665220978E+02  0.26783100165E+02  0.16919320558E+02  0.43400728084E+02  0.00000000000E+00 0.  1.
         11    1    3    3    0    0  0.10837839636E+02 -0.55284545490E+01 -0.11686410315E+02  0.16869936692E+02  0.51100000000E-03 0. -1.
        -11    1    3    3    0    0  0.97041846835E+01 -0.18537839007E+02 -0.29812322314E+01  0.21135525101E+02  0.51100000000E-03 0.  1.
        -12    1    3    3    0    0  0.91231966581E+01 -0.27168066086E+01 -0.22516780113E+01  0.97818101227E+01  0.00000000000E+00 0.  1.
</event>
<event>
 7    1  0.1400974E-009  0.4778727E+02  0.7816164E-02  0.1312668E+00
        -11   -1    0    0    0    0  0.00000000000E+00  0.00000000000E+00  0.45593999997E+02  0.45594000000E+02  0.51100000000E-03 0.  1.
         11   -1    0    0    0    0 -0.00000000000E+00 -0.00000000000E+00 -0.45593999997E+02  0.45594000000E+02  0.51100000000E-03 0. -1.
    9900012    2    1    2    0    0  0.22468025933E+02  0.32205737410E+02 -0.18482462110E+02  0.47787272850E+02  0.20000008234E+02 0.  0.
        -12    1    1    2    0    0 -0.22468025933E+02 -0.32205737410E+02  0.18482462110E+02  0.43400727150E+02  0.00000000000E+00 0.  1.
         11    1    3    3    0    0  0.76002160291E+01  0.14587410801E+02 -0.45493109997E+01  0.17066108766E+02  0.51100000000E-03 0. -1.
        -11    1    3    3    0    0  0.68746243713E+01  0.90416307090E+01 -0.15149169997E+02  0.18934331200E+02  0.51100000000E-03 0.  1.
        -12    1    3    3    0    0  0.79931855325E+01  0.85766959001E+01  0.12160188867E+01  0.11786832885E+02  0.00000000000E+00 0.  1.
</event>
<event>
 7    1  0.1400974E-009  0.4778726E+02  0.7816164E-02  0.1312668E+00
        -11   -1    0    0    0    0  0.00000000000E+00  0.00000000000E+00  0.45593999997E+02  0.45594000000E+02  0.51100000000E-03 0.  1.
         11   -1    0    0    0    0 -0.00000000000E+00 -0.00000000000E+00 -0.45593999997E+02  0.45594000000E+02  0.51100000000E-03 0. -1.
    9900012    2    1    2    0    0  0.87857047892E+01  0.10695848060E+02 -0.41134345177E+02  0.47787261210E+02  0.19999955161E+02 0.  0.
        -12    1    1    2    0    0 -0.87857047892E+01 -0.10695848060E+02  0.41134345177E+02  0.43400738790E+02  0.00000000000E+00 0.  1.
         11    1    3    3    0    0  0.20514774858E+01  0.86906044174E+01 -0.21075899386E+02  0.22889488858E+02  0.51100000000E-03 0. -1.
        -11    1    3    3    0    0  0.19579659574E+01 -0.47188029973E+01 -0.13256999816E+02  0.14207349394E+02  0.51100000000E-03 0.  1.
         12    1    3    3    0    0  0.47762613460E+01  0.67240466402E+01 -0.68014459758E+01  0.10690422958E+02  0.00000000000E+00 0. -1.
</event>
<event>
 7    1  0.1400974E-009  0.4778727E+02  0.7816164E-02  0.1312668E+00
        -11   -1    0    0    0    0  0.00000000000E+00  0.00000000000E+00  0.45593999997E+02  0.45594000000E+02  0.51100000000E-03 0. -1.
         11   -1    0    0    0    0 -0.00000000000E+00 -0.00000000000E+00 -0.45593999997E+02  0.45594000000E+02  0.51100000000E-03 0.  1.
    9900012    2    1    2    0    0 -0.23976306950E+02  0.15529674726E+02  0.32673985122E+02  0.47787269640E+02  0.19999993596E+02 0.  0.
        -12    1    1    2    0    0  0.23976306950E+02 -0.15529674726E+02 -0.32673985122E+02  0.43400730360E+02  0.00000000000E+00 0.  1.
         11    1    3    3    0    0 -0.20751622757E+02  0.13560870859E+02  0.24000676976E+02  0.34504486100E+02  0.51100000000E-03 0. -1.
        -11    1    3    3    0    0 -0.24404867691E+01  0.27112987114E+00  0.10431142569E+02  0.10716259732E+02  0.51100000000E-03 0.  1.
         12    1    3    3    0    0 -0.78419742412E+00  0.16976739957E+01 -0.17578344233E+01  0.25665238077E+01  0.00000000000E+00 0. -1.
</event>
<event>
 7    1  0.1400974E-009  0.4778727E+02  0.7816164E-02  0.1312668E+00
        -11   -1    0    0    0    0  0.00000000000E+00  0.00000000000E+00  0.45593999997E+02  0.45594000000E+02  0.51100000000E-03 0.  1.
         11   -1    0    0    0    0 -0.00000000000E+00 -0.00000000000E+00 -0.45593999997E+02  0.45594000000E+02  0.51100000000E-03 0. -1.
    9900012    2    1    2    0    0 -0.40428974610E+02  0.12641148676E+02  0.94510599807E+01  0.47787272326E+02  0.20000005842E+02 0.  0.
        -12    1    1    2    0    0  0.40428974610E+02 -0.12641148676E+02 -0.94510599807E+01  0.43400727674E+02  0.00000000000E+00 0.  1.
         11    1    3    3    0    0 -0.29092201242E+01  0.53672985141E+01  0.25749075003E+01  0.66258285494E+01  0.51100000000E-03 0. -1.
        -11    1    3    3    0    0 -0.34904273785E+02  0.51858309654E+01  0.21268899505E+01  0.35351447387E+02  0.51100000000E-03 0.  1.
        -12    1    3    3    0    0 -0.26154807010E+01  0.20880191965E+01  0.47492625299E+01  0.58099963890E+01  0.00000000000E+00 0.  1.
</event>
<event>
 7    1  0.1400974E-009  0.4778727E+02  0.7816164E-02  0.1312668E+00
        -11   -1    0    0    0    0  0.00000000000E+00  0.00000000000E+00  0.45593999997E+02  0.45594000000E+02  0.51100000000E-03 0.  1.
         11   -1    0    0    0    0 -0.00000000000E+00 -0.00000000000E+00 -0.45593999997E+02  0.45594000000E+02  0.51100000000E-03 0. -1.
    9900012    2    1    2    0    0  0.24694491907E+02 -0.23815309630E+02 -0.26582633849E+02  0.47787270448E+02  0.19999997281E+02 0.  0.
        -12    1    1    2    0    0 -0.24694491907E+02  0.23815309630E+02  0.26582633849E+02  0.43400729552E+02  0.00000000000E+00 0.  1.
         11    1    3    3    0    0  0.20899794678E+01 -0.47011477229E+01  0.23443837818E+01  0.56537544753E+01  0.51100000000E-03 0.  1.
        -11    1    3    3    0    0  0.14693578418E+02 -0.12898303475E+02 -0.13664772492E+02  0.23853584359E+02  0.51100000000E-03 0. -1.
        -12    1    3    3    0    0  0.79109340207E+01 -0.62158584315E+01 -0.15262245139E+02  0.18279931614E+02  0.00000000000E+00 0.  1.
</event>
<event>
 7    1  0.1400974E-009  0.4778727E+02  0.7816164E-02  0.1312668E+00
        -11   -1    0    0    0    0  0.00000000000E+00  0.00000000000E+00  0.45593999997E+02  0.45594000000E+02  0.51100000000E-03 0. -1.
         11   -1    0    0    0    0 -0.00000000000E+00 -0.00000000000E+00 -0.45593999997E+02  0.45594000000E+02  0.51100000000E-03 0.  1.
    9900012    2    1    2    0    0 -0.12453286450E+02  0.12025751554E+01  0.41558302452E+02  0.47787273819E+02  0.20000012649E+02 0.  0.
        -12    1    1    2    0    0  0.12453286450E+02 -0.12025751554E+01 -0.41558302452E+02  0.43400726181E+02  0.00000000000E+00 0.  1.
         11    1    3    3    0    0 -0.69382281811E+01 -0.80725124788E+01  0.22448870744E+02  0.24844642600E+02  0.51100000000E-03 0. -1.
        -11    1    3    3    0    0 -0.10648708820E+01  0.54009038200E+01  0.14324954139E+02  0.15346270668E+02  0.51100000000E-03 0.  1.
        -12    1    3    3    0    0 -0.44501873869E+01  0.38741838141E+01  0.47844775694E+01  0.75963605507E+01  0.00000000000E+00 0.  1.
</event>
<event>
 7    1  0.1400974E-009  0.4778727E+02  0.7816164E-02  0.1312668E+00
        -11   -1    0    0    0    0  0.00000000000E+00  0.00000000000E+00  0.45593999997E+02  0.45594000000E+02  0.51100000000E-03 0.  1.
         11   -1    0    0    0    0 -0.00000000000E+00 -0.00000000000E+00 -0.45593999997E+02  0.45594000000E+02  0.51100000000E-03 0. -1.
    9900012    2    1    2    0    0 -0.43018032890E+02 -0.56673178385E+01  0.97655758975E+00  0.47787270629E+02  0.19999998106E+02 0.  0.
        -12    1    1    2    0    0  0.43018032890E+02  0.56673178385E+01 -0.97655758975E+00  0.43400729371E+02  0.00000000000E+00 0.  1.
         11    1    3    3    0    0 -0.14497940811E+02 -0.47486210256E+01 -0.29658719257E+01  0.15541431271E+02  0.51100000000E-03 0. -1.
        -11    1    3    3    0    0 -0.14049020040E+02 -0.42450525390E+01 -0.42604457921E+01  0.15282239160E+02  0.51100000000E-03 0.  1.
        -12    1    3    3    0    0 -0.14471072039E+02  0.33263557261E+01  0.82028753075E+01  0.16963600198E+02  0.00000000000E+00 0.  1.
</event>
<event>
 7    1  0.1400974E-009  0.4778727E+02  0.7816164E-02  0.1312668E+00
        -11   -1    0    0    0    0  0.00000000000E+00  0.00000000000E+00  0.45593999997E+02  0.45594000000E+02  0.51100000000E-03 0.  1.
         11   -1    0    0    0    0 -0.00000000000E+00 -0.00000000000E+00 -0.45593999997E+02  0.45594000000E+02  0.51100000000E-03 0. -1.
    9900012    2    1    2    0    0 -0.13945731614E+02  0.33972119127E+01 -0.40958501833E+02  0.47787270151E+02  0.19999995927E+02 0.  0.
        -12    1    1    2    0    0  0.13945731614E+02 -0.33972119127E+01  0.40958501833E+02  0.43400729849E+02  0.00000000000E+00 0.  1.
         11    1    3    3    0    0 -0.13669252620E+01 -0.37896204626E+01 -0.18625756759E+02  0.19056456204E+02  0.51100000000E-03 0. -1.
        -11    1    3    3    0    0 -0.76039381952E+01  0.52441312262E+01 -0.21401152625E+02  0.23309442771E+02  0.51100000000E-03 0.  1.
        -12    1    3    3    0    0 -0.49748681570E+01  0.19427011491E+01 -0.93159244873E+00  0.54213711757E+01  0.00000000000E+00 0.  1.
</event>
<event>
 7    1  0.1400974E-009  0.4778727E+02  0.7816164E-02  0.1312668E+00
        -11   -1    0    0    0    0  0.00000000000E+00  0.00000000000E+00  0.45593999997E+02  0.45594000000E+02  0.51100000000E-03 0.  1.
         11   -1    0    0    0    0 -0.00000000000E+00 -0.00000000000E+00 -0.45593999997E+02  0.45594000000E+02  0.51100000000E-03 0. -1.
    9900012    2    1    2    0    0  0.35751956427E+02 -0.78507597104E+01 -0.23319228713E+02  0.47787271387E+02  0.20000001563E+02 0.  0.
        -12    1    1    2    0    0 -0.35751956427E+02  0.78507597104E+01  0.23319228713E+02  0.43400728613E+02  0.00000000000E+00 0.  1.
         11    1    3    3    0    0  0.54060115127E+01  0.86054378151E+00 -0.46343356884E+00  0.54936569796E+01  0.51100000000E-03 0. -1.
        -11    1    3    3    0    0  0.23754587736E+02 -0.45587375881E+01 -0.24393806540E+02  0.34352879424E+02  0.51100000000E-03 0.  1.
         12    1    3    3    0    0  0.65913571779E+01 -0.41525659039E+01  0.15380113965E+01  0.79407349842E+01  0.00000000000E+00 0. -1.
</event>
<event>
 7    1  0.1400974E-009  0.4778727E+02  0.7816164E-02  0.1312668E+00
        -11   -1    0    0    0    0  0.00000000000E+00  0.00000000000E+00  0.45593999997E+02  0.45594000000E+02  0.51100000000E-03 0.  1.
         11   -1    0    0    0    0 -0.00000000000E+00 -0.00000000000E+00 -0.45593999997E+02  0.45594000000E+02  0.51100000000E-03 0. -1.
    9900012    2    1    2    0    0 -0.26756939732E+02 -0.34112720506E+02 -0.20028936303E+01  0.47787272967E+02  0.20000008764E+02 0.  0.
        -12    1    1    2    0    0  0.26756939732E+02  0.34112720506E+02  0.20028936303E+01  0.43400727033E+02  0.00000000000E+00 0.  1.
         11    1    3    3    0    0 -0.19010439263E+01 -0.42640263519E+01 -0.41824599003E+01  0.62680826269E+01  0.51100000000E-03 0.  1.
        -11    1    3    3    0    0 -0.22830453215E+02 -0.28528354490E+02  0.59698203812E+01  0.37023443378E+02  0.51100000000E-03 0. -1.
         12    1    3    3    0    0 -0.20254425909E+01 -0.13203396640E+01 -0.37902541112E+01  0.44957469619E+01  0.00000000000E+00 0. -1.
</event>
<event>
 7    1  0.1401012E-009  0.4778728E+02  0.7816164E-02  0.1312668E+00
        -11   -1    0    0    0    0  0.00000000000E+00  0.00000000000E+00  0.45593999997E+02  0.45594000000E+02  0.51100000000E-03 0.  1.
         11   -1    0    0    0    0 -0.00000000000E+00 -0.00000000000E+00 -0.45593999997E+02  0.45594000000E+02  0.51100000000E-03 0. -1.
    9900012    2    1    2    0    0  0.33316181645E+02 -0.27519541373E+02  0.40409993970E+01  0.47787276585E+02  0.20000025264E+02 0.  0.
        -12    1    1    2    0    0 -0.33316181645E+02  0.27519541373E+02 -0.40409993970E+01  0.43400723415E+02  0.00000000000E+00 0.  1.
         11    1    3    3    0    0  0.25305273268E+02 -0.14861367799E+02 -0.27447270180E+01  0.29474576074E+02  0.51100000000E-03 0. -1.
        -11    1    3    3    0    0  0.25526000584E+00  0.10319983538E+01  0.12312141805E+01  0.16266735666E+01  0.51100000000E-03 0.  1.
         12    1    3    3    0    0  0.77556483707E+01 -0.13690171928E+02  0.55545122345E+01  0.16686026945E+02  0.00000000000E+00 0. -1.
</event>
<event>
 7    1  0.1400974E-009  0.4778727E+02  0.7816164E-02  0.1312668E+00
        -11   -1    0    0    0    0  0.00000000000E+00  0.00000000000E+00  0.45593999997E+02  0.45594000000E+02  0.51100000000E-03 0.  1.
         11   -1    0    0    0    0 -0.00000000000E+00 -0.00000000000E+00 -0.45593999997E+02  0.45594000000E+02  0.51100000000E-03 0. -1.
    9900012    2    1    2    0    0 -0.18755219296E+02 -0.10861542977E+02 -0.37601757705E+02  0.47787267873E+02  0.19999985539E+02 0.  0.
        -12    1    1    2    0    0  0.18755219296E+02  0.10861542977E+02  0.37601757705E+02  0.43400732127E+02  0.00000000000E+00 0.  1.
         11    1    3    3    0    0 -0.28882801030E+01 -0.22999228529E+01 -0.16764426015E+02  0.17166181490E+02  0.51100000000E-03 0. -1.
        -11    1    3    3    0    0 -0.12765914923E+02 -0.11567665499E+02 -0.12678996971E+02  0.21390101294E+02  0.51100000000E-03 0.  1.
         12    1    3    3    0    0 -0.31010242698E+01  0.30060453751E+01 -0.81583347192E+01  0.92309850887E+01  0.00000000000E+00 0. -1.
</event>
<event>
 7    1  0.1400974E-009  0.4778727E+02  0.7816164E-02  0.1312668E+00
        -11   -1    0    0    0    0  0.00000000000E+00  0.00000000000E+00  0.45593999997E+02  0.45594000000E+02  0.51100000000E-03 0. -1.
         11   -1    0    0    0    0 -0.00000000000E+00 -0.00000000000E+00 -0.45593999997E+02  0.45594000000E+02  0.51100000000E-03 0.  1.
    9900012    2    1    2    0    0 -0.35460640742E+01  0.42540349003E+02 -0.78337471067E+01  0.47787268930E+02  0.19999990358E+02 0.  0.
        -12    1    1    2    0    0  0.35460640742E+01 -0.42540349003E+02  0.78337471067E+01  0.43400731070E+02  0.00000000000E+00 0.  1.
         11    1    3    3    0    0  0.49502677727E+01  0.21660115123E+02 -0.20343759766E+01  0.22311531190E+02  0.51100000000E-03 0. -1.
        -11    1    3    3    0    0 -0.43875813209E+01  0.19221767054E+02 -0.69374252639E+01  0.20901078156E+02  0.51100000000E-03 0.  1.
        -12    1    3    3    0    0 -0.41087505260E+01  0.16584668259E+01  0.11380541337E+01  0.45746595839E+01  0.00000000000E+00 0.  1.
</event>
<event>
 7    1  0.1400974E-009  0.4778727E+02  0.7816164E-02  0.1312668E+00
        -11   -1    0    0    0    0  0.00000000000E+00  0.00000000000E+00  0.45593999997E+02  0.45594000000E+02  0.51100000000E-03 0.  1.
         11   -1    0    0    0    0 -0.00000000000E+00 -0.00000000000E+00 -0.45593999997E+02  0.45594000000E+02  0.51100000000E-03 0. -1.
    9900012    2    1    2    0    0 -0.17979215016E+02 -0.12146199907E+02 -0.37587775661E+02  0.47787271620E+02  0.20000002623E+02 0.  0.
        -12    1    1    2    0    0  0.17979215016E+02  0.12146199907E+02  0.37587775661E+02  0.43400728380E+02  0.00000000000E+00 0.  1.
         11    1    3    3    0    0 -0.17557314341E+02 -0.26642487603E+01 -0.25759629649E+02  0.31287633791E+02  0.51100000000E-03 0. -1.
        -11    1    3    3    0    0 -0.28502858065E+01 -0.16857793662E+01 -0.39316337400E+01  0.51404012855E+01  0.51100000000E-03 0.  1.
        -12    1    3    3    0    0  0.24283851312E+01 -0.77961717807E+01 -0.78965122724E+01  0.11359236543E+02  0.00000000000E+00 0.  1.
</event>
<event>
 7    1  0.1400974E-009  0.4778727E+02  0.7816164E-02  0.1312668E+00
        -11   -1    0    0    0    0  0.00000000000E+00  0.00000000000E+00  0.45593999997E+02  0.45594000000E+02  0.51100000000E-03 0. -1.
         11   -1    0    0    0    0 -0.00000000000E+00 -0.00000000000E+00 -0.45593999997E+02  0.45594000000E+02  0.51100000000E-03 0.  1.
    9900012    2    1    2    0    0  0.20825067867E+02  0.37909020310E+02 -0.35841042108E+01  0.47787273329E+02  0.20000010418E+02 0.  0.
        -12    1    1    2    0    0 -0.20825067867E+02 -0.37909020310E+02  0.35841042108E+01  0.43400726671E+02  0.00000000000E+00 0.  1.
         11    1    3    3    0    0  0.92627973847E+00  0.95482929923E+00  0.44478298404E+01  0.46425083408E+01  0.51100000000E-03 0.  1.
        -11    1    3    3    0    0  0.12456148845E+02  0.21869154021E+02 -0.77037965614E+01  0.26320410775E+02  0.51100000000E-03 0. -1.
         12    1    3    3    0    0  0.74426392835E+01  0.15085036990E+02 -0.32813748971E+00  0.16824354214E+02  0.00000000000E+00 0. -1.
</event>
<event>
 7    1  0.1400974E-009  0.4778727E+02  0.7816164E-02  0.1312668E+00
        -11   -1    0    0    0    0  0.00000000000E+00  0.00000000000E+00  0.45593999997E+02  0.45594000000E+02  0.51100000000E-03 0.  1.
         11   -1    0    0    0    0 -0.00000000000E+00 -0.00000000000E+00 -0.45593999997E+02  0.45594000000E+02  0.51100000000E-03 0. -1.
    9900012    2    1    2    0    0 -0.11030989895E+02  0.62081311288E+01 -0.41513845062E+02  0.47787274637E+02  0.20000016381E+02 0.  0.
        -12    1    1    2    0    0  0.11030989895E+02 -0.62081311288E+01  0.41513845062E+02  0.43400725363E+02  0.00000000000E+00 0.  1.
         11    1    3    3    0    0 -0.12221954757E+02  0.16820658357E+01 -0.38174393757E+02  0.40118447908E+02  0.51100000000E-03 0. -1.
        -11    1    3    3    0    0 -0.17514222209E+01  0.21170982580E+01 -0.23110588668E+00  0.27573529012E+01  0.51100000000E-03 0.  1.
         12    1    3    3    0    0  0.29423870829E+01  0.24089670351E+01 -0.31083454181E+01  0.49114738277E+01  0.00000000000E+00 0. -1.
</event>
<event>
 7    1  0.1400974E-009  0.4778727E+02  0.7816164E-02  0.1312668E+00
        -11   -1    0    0    0    0  0.00000000000E+00  0.00000000000E+00  0.45593999997E+02  0.45594000000E+02  0.51100000000E-03 0. -1.
         11   -1    0    0    0    0 -0.00000000000E+00 -0.00000000000E+00 -0.45593999997E+02  0.45594000000E+02  0.51100000000E-03 0.  1.
    9900012    2    1    2    0    0  0.43023812299E+02  0.24290828340E+01 -0.51647609236E+01  0.47787267016E+02  0.19999981632E+02 0.  0.
        -12    1    1    2    0    0 -0.43023812299E+02 -0.24290828340E+01  0.51647609236E+01  0.43400732984E+02  0.00000000000E+00 0.  1.
         11    1    3    3    0    0 -0.10501888868E+01 -0.36809502978E+00 -0.12093274084E+01  0.16434304643E+01  0.51100000000E-03 0. -1.
        -11    1    3    3    0    0  0.10643633718E+02 -0.51635891170E+00 -0.64516876458E+01  0.12457039736E+02  0.51100000000E-03 0.  1.
         12    1    3    3    0    0  0.33430367468E+02  0.33135367755E+01  0.24962541306E+01  0.33686796815E+02  0.00000000000E+00 0. -1.
</event>
<event>
 7    1  0.1400974E-009  0.4778727E+02  0.7816164E-02  0.1312668E+00
        -11   -1    0    0    0    0  0.00000000000E+00  0.00000000000E+00  0.45593999997E+02  0.45594000000E+02  0.51100000000E-03 0.  1.
         11   -1    0    0    0    0 -0.00000000000E+00 -0.00000000000E+00 -0.45593999997E+02  0.45594000000E+02  0.51100000000E-03 0. -1.
    9900012    2    1    2    0    0  0.50671204168E+01 -0.39876487384E+02  0.16364992595E+02  0.47787274913E+02  0.20000017640E+02 0.  0.
        -12    1    1    2    0    0 -0.50671204168E+01  0.39876487384E+02 -0.16364992595E+02  0.43400725087E+02  0.00000000000E+00 0.  1.
         11    1    3    3    0    0  0.68922312859E+01 -0.14880470284E+02  0.13046205754E+01  0.16450935630E+02  0.51100000000E-03 0. -1.
        -11    1    3    3    0    0 -0.35116766873E+01 -0.20868858447E+02  0.72991735001E+01  0.22385688734E+02  0.51100000000E-03 0.  1.
        -12    1    3    3    0    0  0.16865658182E+01 -0.41271586521E+01  0.77611985198E+01  0.89506505496E+01  0.00000000000E+00 0.  1.
</event>
<event>
 7    1  0.1400974E-009  0.4778727E+02  0.7816164E-02  0.1312668E+00
        -11   -1    0    0    0    0  0.00000000000E+00  0.00000000000E+00  0.45593999997E+02  0.45594000000E+02  0.51100000000E-03 0. -1.
         11   -1    0    0    0    0 -0.00000000000E+00 -0.00000000000E+00 -0.45593999997E+02  0.45594000000E+02  0.51100000000E-03 0.  1.
    9900012    2    1    2    0    0 -0.27143579730E+02 -0.12957545752E+02  0.31288199602E+02  0.47787270204E+02  0.19999996167E+02 0.  0.
        -12    1    1    2    0    0  0.27143579730E+02  0.12957545752E+02 -0.31288199602E+02  0.43400729796E+02  0.00000000000E+00 0.  1.
         11    1    3    3    0    0 -0.18995914359E+02 -0.78445529436E+01  0.12527442980E+02  0.24069038226E+02  0.51100000000E-03 0. -1.
        -11    1    3    3    0    0 -0.81882055977E+01 -0.94669711832E+00  0.17534098200E+02  0.19374920549E+02  0.51100000000E-03 0.  1.
        -12    1    3    3    0    0  0.40540226691E-01 -0.41662956900E+01  0.12266584230E+01  0.43433114294E+01  0.00000000000E+00 0.  1.
</event>
<event>
 7    1  0.1400974E-009  0.4778727E+02  0.7816164E-02  0.1312668E+00
        -11   -1    0    0    0    0  0.00000000000E+00  0.00000000000E+00  0.45593999997E+02  0.45594000000E+02  0.51100000000E-03 0.  1.
         11   -1    0    0    0    0 -0.00000000000E+00 -0.00000000000E+00 -0.45593999997E+02  0.45594000000E+02  0.51100000000E-03 0. -1.
    9900012    2    1    2    0    0  0.35296694476E+01 -0.29727261264E+02 -0.31423792968E+02  0.47787269671E+02  0.19999993736E+02 0.  0.
        -12    1    1    2    0    0 -0.35296694476E+01  0.29727261264E+02  0.31423792968E+02  0.43400730329E+02  0.00000000000E+00 0.  1.
         11    1    3    3    0    0 -0.56216076951E+01 -0.11803117243E+02 -0.17011779919E+02  0.21454992566E+02  0.51100000000E-03 0.  1.
        -11    1    3    3    0    0  0.40578645790E+01 -0.16124248405E+02 -0.11200606275E+02  0.20047723880E+02  0.51100000000E-03 0. -1.
        -12    1    3    3    0    0  0.50934125637E+01 -0.17998956155E+01 -0.32114067738E+01  0.62845532249E+01  0.00000000000E+00 0.  1.
</event>
<event>
 7    1  0.1400974E-009  0.4778727E+02  0.7816164E-02  0.1312668E+00
        -11   -1    0    0    0    0  0.00000000000E+00  0.00000000000E+00  0.45593999997E+02  0.45594000000E+02  0.51100000000E-03 0. -1.
         11   -1    0    0    0    0 -0.00000000000E+00 -0.00000000000E+00 -0.45593999997E+02  0.45594000000E+02  0.51100000000E-03 0.  1.
    9900012    2    1    2    0    0  0.38450787075E+02 -0.80238219569E+00  0.20112600634E+02  0.47787267885E+02  0.19999985595E+02 0.  0.
        -12    1    1    2    0    0 -0.38450787075E+02  0.80238219569E+00 -0.20112600634E+02  0.43400732115E+02  0.00000000000E+00 0.  1.
         11    1    3    3    0    0  0.63573685336E+01 -0.24651549432E+01  0.70853511656E+01  0.98333781056E+01  0.51100000000E-03 0. -1.
        -11    1    3    3    0    0  0.18118698735E+02 -0.27692806770E+01 -0.18663267041E-01  0.18329116397E+02  0.51100000000E-03 0.  1.
        -12    1    3    3    0    0  0.13974719807E+02  0.44320534245E+01  0.13045912735E+02  0.19624773383E+02  0.00000000000E+00 0.  1.
</event>
<event>
 7    1  0.1400974E-009  0.4778727E+02  0.7816164E-02  0.1312668E+00
        -11   -1    0    0    0    0  0.00000000000E+00  0.00000000000E+00  0.45593999997E+02  0.45594000000E+02  0.51100000000E-03 0.  1.
         11   -1    0    0    0    0 -0.00000000000E+00 -0.00000000000E+00 -0.45593999997E+02  0.45594000000E+02  0.51100000000E-03 0. -1.
    9900012    2    1    2    0    0 -0.24582713553E+01  0.40491347476E+02 -0.15428267488E+02  0.47787265488E+02  0.19999974667E+02 0.  0.
        -12    1    1    2    0    0  0.24582713553E+01 -0.40491347476E+02  0.15428267488E+02  0.43400734512E+02  0.00000000000E+00 0.  1.
         11    1    3    3    0    0  0.28556293121E+01  0.30206540971E+01 -0.22420159042E+01  0.47228810612E+01  0.51100000000E-03 0. -1.
        -11    1    3    3    0    0 -0.69989452195E+01  0.16612981125E+02  0.54577236513E+00  0.18035360927E+02  0.51100000000E-03 0.  1.
        -12    1    3    3    0    0  0.16850445520E+01  0.20857712254E+02 -0.13732023949E+02  0.25029023500E+02  0.00000000000E+00 0.  1.
</event>
<event>
 7    1  0.1400974E-009  0.4778727E+02  0.7816164E-02  0.1312668E+00
        -11   -1    0    0    0    0  0.00000000000E+00  0.00000000000E+00  0.45593999997E+02  0.45594000000E+02  0.51100000000E-03 0.  1.
         11   -1    0    0    0    0 -0.00000000000E+00 -0.00000000000E+00 -0.45593999997E+02  0.45594000000E+02  0.51100000000E-03 0. -1.
    9900012    2    1    2    0    0 -0.17516542970E+01  0.76862919968E+01 -0.42678754953E+02  0.47787268419E+02  0.19999988029E+02 0.  0.
        -12    1    1    2    0    0  0.17516542970E+01 -0.76862919968E+01  0.42678754953E+02  0.43400731581E+02  0.00000000000E+00 0.  1.
         11    1    3    3    0    0  0.40068274754E+00  0.27795122325E+01 -0.18252365787E+00  0.28141695154E+01  0.51100000000E-03 0. -1.
        -11    1    3    3    0    0  0.44605488889E+01 -0.16646482890E+01 -0.21160039014E+02  0.21689047966E+02  0.51100000000E-03 0.  1.
         12    1    3    3    0    0 -0.66128859334E+01  0.65714280534E+01 -0.21336192281E+02  0.23284050938E+02  0.00000000000E+00 0. -1.
</event>
<event>
 7    1  0.1400974E-009  0.4778727E+02  0.7816164E-02  0.1312668E+00
        -11   -1    0    0    0    0  0.00000000000E+00  0.00000000000E+00  0.45593999997E+02  0.45594000000E+02  0.51100000000E-03 0.  1.
         11   -1    0    0    0    0 -0.00000000000E+00 -0.00000000000E+00 -0.45593999997E+02  0.45594000000E+02  0.51100000000E-03 0. -1.
    9900012    2    1    2    0    0  0.91528437901E+01 -0.39026826117E+02 -0.16635969715E+02  0.47787271958E+02  0.20000004165E+02 0.  0.
        -12    1    1    2    0    0 -0.91528437901E+01  0.39026826117E+02  0.16635969715E+02  0.43400728042E+02  0.00000000000E+00 0.  1.
         11    1    3    3    0    0  0.79460403435E+01 -0.21207736282E+02 -0.92195072034E+00  0.22666222198E+02  0.51100000000E-03 0. -1.
        -11    1    3    3    0    0 -0.31488703115E+01 -0.55997886587E+01 -0.35613603851E+01  0.73454955799E+01  0.51100000000E-03 0.  1.
         12    1    3    3    0    0  0.43556737581E+01 -0.12219301177E+02 -0.12152658609E+02  0.17775554180E+02  0.00000000000E+00 0. -1.
</event>
<event>
 7    1  0.1400974E-009  0.4778728E+02  0.7816164E-02  0.1312668E+00
        -11   -1    0    0    0    0  0.00000000000E+00  0.00000000000E+00  0.45593999997E+02  0.45594000000E+02  0.51100000000E-03 0.  1.
         11   -1    0    0    0    0 -0.00000000000E+00 -0.00000000000E+00 -0.45593999997E+02  0.45594000000E+02  0.51100000000E-03 0. -1.
    9900012    2    1    2    0    0  0.16659751115E+02  0.41374637990E+01 -0.39861721521E+02  0.47787277005E+02  0.20000027175E+02 0.  0.
        -12    1    1    2    0    0 -0.16659751115E+02 -0.41374637990E+01  0.39861721521E+02  0.43400722995E+02  0.00000000000E+00 0.  1.
         11    1    3    3    0    0 -0.18931048174E+01  0.43474970331E+00 -0.19394663332E+01  0.27448830709E+01  0.51100000000E-03 0. -1.
        -11    1    3    3    0    0  0.15809708887E+02  0.23907769561E+01 -0.15015265001E+02  0.21934468147E+02  0.51100000000E-03 0.  1.
         12    1    3    3    0    0  0.27431470449E+01  0.13119371396E+01 -0.22906990187E+02  0.23107925787E+02  0.00000000000E+00 0. -1.
</event>
<event>
 7    1  0.1400974E-009  0.4778727E+02  0.7816164E-02  0.1312668E+00
        -11   -1    0    0    0    0  0.00000000000E+00  0.00000000000E+00  0.45593999997E+02  0.45594000000E+02  0.51100000000E-03 0.  1.
         11   -1    0    0    0    0 -0.00000000000E+00 -0.00000000000E+00 -0.45593999997E+02  0.45594000000E+02  0.51100000000E-03 0. -1.
    9900012    2    1    2    0    0  0.45572860740E+01  0.38442036307E+02 -0.19623054861E+02  0.47787270815E+02  0.19999998952E+02 0.  0.
        -12    1    1    2    0    0 -0.45572860740E+01 -0.38442036307E+02  0.19623054861E+02  0.43400729185E+02  0.00000000000E+00 0.  1.
         11    1    3    3    0    0  0.57597518607E+01  0.14136271630E+02 -0.83439342402E+01  0.17396268449E+02  0.51100000000E-03 0. -1.
        -11    1    3    3    0    0 -0.29342336360E+01  0.91927833118E+01  0.23885193617E+01  0.99409263679E+01  0.51100000000E-03 0.  1.
        -12    1    3    3    0    0  0.17317678492E+01  0.15112981365E+02 -0.13667639982E+02  0.20450075998E+02  0.00000000000E+00 0.  1.
</event>
<event>
 7    1  0.1400974E-009  0.4778728E+02  0.7816164E-02  0.1312668E+00
        -11   -1    0    0    0    0  0.00000000000E+00  0.00000000000E+00  0.45593999997E+02  0.45594000000E+02  0.51100000000E-03 0.  1.
         11   -1    0    0    0    0 -0.00000000000E+00 -0.00000000000E+00 -0.45593999997E+02  0.45594000000E+02  0.51100000000E-03 0. -1.
    9900012    2    1    2    0    0 -0.35428512286E+02 -0.16654401278E+02 -0.18736971032E+02  0.47787278253E+02  0.20000032867E+02 0.  0.
        -12    1    1    2    0    0  0.35428512286E+02  0.16654401278E+02  0.18736971032E+02  0.43400721747E+02  0.00000000000E+00 0.  1.
         11    1    3    3    0    0 -0.15004548214E+02 -0.12445293139E+02 -0.13886595539E+02  0.23934479822E+02  0.51100000000E-03 0.  1.
        -11    1    3    3    0    0 -0.55545814864E+01 -0.61668937629E+01 -0.25297214651E+01  0.86766033172E+01  0.51100000000E-03 0. -1.
        -12    1    3    3    0    0 -0.14869382585E+02  0.19577856238E+01 -0.23206540276E+01  0.15176195114E+02  0.00000000000E+00 0.  1.
</event>
<event>
 7    1  0.1400974E-009  0.4778727E+02  0.7816164E-02  0.1312668E+00
        -11   -1    0    0    0    0  0.00000000000E+00  0.00000000000E+00  0.45593999997E+02  0.45594000000E+02  0.51100000000E-03 0.  1.
         11   -1    0    0    0    0 -0.00000000000E+00 -0.00000000000E+00 -0.45593999997E+02  0.45594000000E+02  0.51100000000E-03 0. -1.
    9900012    2    1    2    0    0  0.12205744102E+02  0.23572974940E+02 -0.34335957251E+02  0.47787270779E+02  0.19999998789E+02 0.  0.
        -12    1    1    2    0    0 -0.12205744102E+02 -0.23572974940E+02  0.34335957251E+02  0.43400729221E+02  0.00000000000E+00 0.  1.
         11    1    3    3    0    0 -0.31846266682E+01  0.60961064449E+01 -0.35555433011E+01  0.77424963178E+01  0.51100000000E-03 0. -1.
        -11    1    3    3    0    0  0.85035553119E+01  0.39050804963E+01 -0.65164408677E+01  0.11402811428E+02  0.51100000000E-03 0.  1.
         12    1    3    3    0    0  0.68868154578E+01  0.13571787999E+02 -0.24263973082E+02  0.28641963033E+02  0.00000000000E+00 0. -1.
</event>
<event>
 7    1  0.1400974E-009  0.4778727E+02  0.7816164E-02  0.1312668E+00
        -11   -1    0    0    0    0  0.00000000000E+00  0.00000000000E+00  0.45593999997E+02  0.45594000000E+02  0.51100000000E-03 0. -1.
         11   -1    0    0    0    0 -0.00000000000E+00 -0.00000000000E+00 -0.45593999997E+02  0.45594000000E+02  0.51100000000E-03 0.  1.
    9900012    2    1    2    0    0 -0.11347097231E+02  0.27449270312E+02  0.31644966995E+02  0.47787274288E+02  0.20000014790E+02 0.  0.
        -12    1    1    2    0    0  0.11347097231E+02 -0.27449270312E+02 -0.31644966995E+02  0.43400725712E+02  0.00000000000E+00 0.  1.
         11    1    3    3    0    0 -0.75277279556E+01  0.11227436777E+02  0.23624195550E+02  0.27218093989E+02  0.51100000000E-03 0. -1.
        -11    1    3    3    0    0 -0.27582510764E+01  0.31071271468E+01 -0.14026566167E+01  0.43851606530E+01  0.51100000000E-03 0.  1.
         12    1    3    3    0    0 -0.10611181990E+01  0.13114706388E+02  0.94234280611E+01  0.16184019646E+02  0.00000000000E+00 0. -1.
</event>
<event>
 7    1  0.1400974E-009  0.4778727E+02  0.7816164E-02  0.1312668E+00
        -11   -1    0    0    0    0  0.00000000000E+00  0.00000000000E+00  0.45593999997E+02  0.45594000000E+02  0.51100000000E-03 0. -1.
         11   -1    0    0    0    0 -0.00000000000E+00 -0.00000000000E+00 -0.45593999997E+02  0.45594000000E+02  0.51100000000E-03 0.  1.
    9900012    2    1    2    0    0 -0.84420448070E+01  0.20929276757E+02  0.37071835467E+02  0.47787265778E+02  0.19999975987E+02 0.  0.
        -12    1    1    2    0    0  0.84420448070E+01 -0.20929276757E+02 -0.37071835467E+02  0.43400734222E+02  0.00000000000E+00 0.  1.
         11    1    3    3    0    0  0.10070183541E+01  0.94046174283E+01  0.24856879645E+02  0.26595589500E+02  0.51100000000E-03 0. -1.
        -11    1    3    3    0    0 -0.79079206110E+01  0.68526437477E+01  0.12453784152E+02  0.16266243411E+02  0.51100000000E-03 0.  1.
        -12    1    3    3    0    0 -0.15411425502E+01  0.46720155815E+01 -0.23882832967E+00  0.49254328667E+01  0.00000000000E+00 0.  1.
</event>
<event>
 7    1  0.1400974E-009  0.4778726E+02  0.7816164E-02  0.1312668E+00
        -11   -1    0    0    0    0  0.00000000000E+00  0.00000000000E+00  0.45593999997E+02  0.45594000000E+02  0.51100000000E-03 0. -1.
         11   -1    0    0    0    0 -0.00000000000E+00 -0.00000000000E+00 -0.45593999997E+02  0.45594000000E+02  0.51100000000E-03 0.  1.
    9900012    2    1    2    0    0 -0.18491636816E+02 -0.31575531878E+02  0.23338148472E+02  0.47787262453E+02  0.19999960827E+02 0.  0.
        -12    1    1    2    0    0  0.18491636816E+02  0.31575531878E+02 -0.23338148472E+02  0.43400737547E+02  0.00000000000E+00 0.  1.
         11    1    3    3    0    0 -0.88734409967E+01 -0.10063036303E+02  0.12502060037E+02  0.18338597553E+02  0.51100000000E-03 0. -1.
        -11    1    3    3    0    0  0.24847194456E+01  0.18399642949E+00  0.50410995841E+00  0.25420095438E+01  0.51100000000E-03 0.  1.
        -12    1    3    3    0    0 -0.12102915265E+02 -0.21696492005E+02  0.10331978477E+02  0.26906655356E+02  0.00000000000E+00 0.  1.
</event>
<event>
 7    1  0.1400974E-009  0.4778728E+02  0.7816164E-02  0.1312668E+00
        -11   -1    0    0    0    0  0.00000000000E+00  0.00000000000E+00  0.45593999997E+02  0.45594000000E+02  0.51100000000E-03 0.  1.
         11   -1    0    0    0    0 -0.00000000000E+00 -0.00000000000E+00 -0.45593999997E+02  0.45594000000E+02  0.51100000000E-03 0. -1.
    9900012    2    1    2    0    0  0.34532114463E+02 -0.88194328806E+01 -0.24766375159E+02  0.47787278069E+02  0.20000032029E+02 0.  0.
        -12    1    1    2    0    0 -0.34532114463E+02  0.88194328806E+01  0.24766375159E+02  0.43400721931E+02  0.00000000000E+00 0.  1.
         11    1    3    3    0    0  0.21301995686E+02 -0.12073784361E+02 -0.20606199684E+02  0.32002605436E+02  0.51100000000E-03 0. -1.
        -11    1    3    3    0    0  0.10380929702E+02  0.17543313088E+01 -0.59577632218E+01  0.12096955099E+02  0.51100000000E-03 0.  1.
        -12    1    3    3    0    0  0.28491890756E+01  0.15000201713E+01  0.17975877472E+01  0.36877175341E+01  0.00000000000E+00 0.  1.
</event>
<event>
 7    1  0.1400974E-009  0.4778727E+02  0.7816164E-02  0.1312668E+00
        -11   -1    0    0    0    0  0.00000000000E+00  0.00000000000E+00  0.45593999997E+02  0.45594000000E+02  0.51100000000E-03 0.  1.
         11   -1    0    0    0    0 -0.00000000000E+00 -0.00000000000E+00 -0.45593999997E+02  0.45594000000E+02  0.51100000000E-03 0. -1.
    9900012    2    1    2    0    0 -0.30003303313E+02  0.28439064882E+02 -0.13215313915E+02  0.47787272553E+02  0.20000006878E+02 0.  0.
        -12    1    1    2    0    0  0.30003303313E+02 -0.28439064882E+02  0.13215313915E+02  0.43400727447E+02  0.00000000000E+00 0.  1.
         11    1    3    3    0    0 -0.51450502572E+01  0.60333560674E+01 -0.27773479362E+01  0.84015825536E+01  0.51100000000E-03 0. -1.
        -11    1    3    3    0    0 -0.25256334649E+02  0.15857829451E+02 -0.38170776124E+01  0.30065316838E+02  0.51100000000E-03 0.  1.
        -12    1    3    3    0    0  0.39808159313E+00  0.65478793638E+01 -0.66208883659E+01  0.93203731616E+01  0.00000000000E+00 0.  1.
</event>
<event>
 7    1  0.1400974E-009  0.4778727E+02  0.7816164E-02  0.1312668E+00
        -11   -1    0    0    0    0  0.00000000000E+00  0.00000000000E+00  0.45593999997E+02  0.45594000000E+02  0.51100000000E-03 0.  1.
         11   -1    0    0    0    0 -0.00000000000E+00 -0.00000000000E+00 -0.45593999997E+02  0.45594000000E+02  0.51100000000E-03 0. -1.
    9900012    2    1    2    0    0 -0.14599149552E+02 -0.40078664196E+02 -0.80118031009E+01  0.47787268666E+02  0.19999989156E+02 0.  0.
        -12    1    1    2    0    0  0.14599149552E+02  0.40078664196E+02  0.80118031009E+01  0.43400731334E+02  0.00000000000E+00 0.  1.
         11    1    3    3    0    0 -0.12632704173E+02 -0.27346162149E+02 -0.72266155348E+01  0.30977762530E+02  0.51100000000E-03 0. -1.
        -11    1    3    3    0    0  0.92987087074E+00 -0.13250628203E+02  0.10780168320E+01  0.13326887415E+02  0.51100000000E-03 0.  1.
        -12    1    3    3    0    0 -0.28963162495E+01  0.51812615596E+00 -0.18632043981E+01  0.34826187215E+01  0.00000000000E+00 0.  1.
</event>
<event>
 7    1  0.1400974E-009  0.4778727E+02  0.7816164E-02  0.1312668E+00
        -11   -1    0    0    0    0  0.00000000000E+00  0.00000000000E+00  0.45593999997E+02  0.45594000000E+02  0.51100000000E-03 0.  1.
         11   -1    0    0    0    0 -0.00000000000E+00 -0.00000000000E+00 -0.45593999997E+02  0.45594000000E+02  0.51100000000E-03 0. -1.
    9900012    2    1    2    0    0 -0.15384143745E+02 -0.38341679310E+02 -0.13299134830E+02  0.47787271454E+02  0.20000001868E+02 0.  0.
        -12    1    1    2    0    0  0.15384143745E+02  0.38341679310E+02  0.13299134830E+02  0.43400728546E+02  0.00000000000E+00 0.  1.
         11    1    3    3    0    0 -0.23282876978E+01 -0.14470069393E+02 -0.14040698326E+02  0.20296429281E+02  0.51100000000E-03 0. -1.
        -11    1    3    3    0    0 -0.59441498164E+01 -0.81610034582E+01 -0.10597464371E+01  0.10151746513E+02  0.51100000000E-03 0.  1.
         12    1    3    3    0    0 -0.71117062306E+01 -0.15710606460E+02  0.18013099335E+01  0.17339095660E+02  0.00000000000E+00 0. -1.
</event>
<event>
 7    1  0.1400974E-009  0.4778727E+02  0.7816164E-02  0.1312668E+00
        -11   -1    0    0    0    0  0.00000000000E+00  0.00000000000E+00  0.45593999997E+02  0.45594000000E+02  0.51100000000E-03 0. -1.
         11   -1    0    0    0    0 -0.00000000000E+00 -0.00000000000E+00 -0.45593999997E+02  0.45594000000E+02  0.51100000000E-03 0.  1.
    9900012    2    1    2    0    0  0.14134581974E+01 -0.29012568377E+02  0.32247421903E+02  0.47787271811E+02  0.20000003495E+02 0.  0.
        -12    1    1    2    0    0 -0.14134581974E+01  0.29012568377E+02 -0.32247421903E+02  0.43400728189E+02  0.00000000000E+00 0.  1.
         11    1    3    3    0    0 -0.13104389606E+01 -0.65554690468E+01  0.34856312671E+01  0.75393003843E+01  0.51100000000E-03 0. -1.
        -11    1    3    3    0    0  0.17550496993E+01 -0.10540589746E+01 -0.19328385054E+01  0.28155114487E+01  0.51100000000E-03 0.  1.
         12    1    3    3    0    0  0.96884745869E+00 -0.21403040356E+02  0.30694629142E+02  0.37432459978E+02  0.00000000000E+00 0. -1.
</event>
<event>
 7    1  0.1400974E-009  0.4778727E+02  0.7816164E-02  0.1312668E+00
        -11   -1    0    0    0    0  0.00000000000E+00  0.00000000000E+00  0.45593999997E+02  0.45594000000E+02  0.51100000000E-03 0. -1.
         11   -1    0    0    0    0 -0.00000000000E+00 -0.00000000000E+00 -0.45593999997E+02  0.45594000000E+02  0.51100000000E-03 0.  1.
    9900012    2    1    2    0    0  0.18390078401E+02 -0.35879662497E+02 -0.16064818997E+02  0.47787267588E+02  0.19999984242E+02 0.  0.
        -12    1    1    2    0    0 -0.18390078401E+02  0.35879662497E+02  0.16064818997E+02  0.43400732412E+02  0.00000000000E+00 0.  1.
         11    1    3    3    0    0  0.75219068831E+01 -0.27851121996E+02 -0.12229767883E+02  0.31334187436E+02  0.51100000000E-03 0. -1.
        -11    1    3    3    0    0  0.31265283280E+01 -0.49001046448E+01 -0.54276350165E+01  0.79526993561E+01  0.51100000000E-03 0.  1.
        -12    1    3    3    0    0  0.77416431895E+01 -0.31284358567E+01  0.15925839026E+01  0.85003807956E+01  0.00000000000E+00 0.  1.
</event>
<event>
 7    1  0.1400974E-009  0.4778727E+02  0.7816164E-02  0.1312668E+00
        -11   -1    0    0    0    0  0.00000000000E+00  0.00000000000E+00  0.45593999997E+02  0.45594000000E+02  0.51100000000E-03 0.  1.
         11   -1    0    0    0    0 -0.00000000000E+00 -0.00000000000E+00 -0.45593999997E+02  0.45594000000E+02  0.51100000000E-03 0. -1.
    9900012    2    1    2    0    0 -0.33937857980E+01 -0.29141095442E+02 -0.31982841649E+02  0.47787269758E+02  0.19999994132E+02 0.  0.
        -12    1    1    2    0    0  0.33937857980E+01  0.29141095442E+02  0.31982841649E+02  0.43400730242E+02  0.00000000000E+00 0.  1.
         11    1    3    3    0    0 -0.16011119658E+01 -0.24474212979E+02 -0.23740664007E+02  0.34134583463E+02  0.51100000000E-03 0. -1.
        -11    1    3    3    0    0 -0.55863586465E+01 -0.20282864022E+01 -0.62374222799E+01  0.86154968293E+01  0.51100000000E-03 0.  1.
        -12    1    3    3    0    0  0.37936848143E+01 -0.26385960612E+01 -0.20047553629E+01  0.50371894653E+01  0.00000000000E+00 0.  1.
</event>
<event>
 7    1  0.1400974E-009  0.4778727E+02  0.7816164E-02  0.1312668E+00
        -11   -1    0    0    0    0  0.00000000000E+00  0.00000000000E+00  0.45593999997E+02  0.45594000000E+02  0.51100000000E-03 0.  1.
         11   -1    0    0    0    0 -0.00000000000E+00 -0.00000000000E+00 -0.45593999997E+02  0.45594000000E+02  0.51100000000E-03 0. -1.
    9900012    2    1    2    0    0  0.12348684054E+02  0.39389776587E+02  0.13400705559E+02  0.47787269512E+02  0.19999993012E+02 0.  0.
        -12    1    1    2    0    0 -0.12348684054E+02 -0.39389776587E+02 -0.13400705559E+02  0.43400730488E+02  0.00000000000E+00 0.  1.
         11    1    3    3    0    0  0.59696497121E+01  0.64720881425E+01  0.65171601717E+01  0.10954360756E+02  0.51100000000E-03 0. -1.
        -11    1    3    3    0    0 -0.42485202154E+01  0.73454620118E+01  0.13383352303E+01  0.85905109067E+01  0.51100000000E-03 0.  1.
        -12    1    3    3    0    0  0.10627554558E+02  0.25572226432E+02  0.55452101574E+01  0.28242397849E+02  0.00000000000E+00 0.  1.
</event>
<event>
 7    1  0.1400974E-009  0.4778727E+02  0.7816164E-02  0.1312668E+00
        -11   -1    0    0    0    0  0.00000000000E+00  0.00000000000E+00  0.45593999997E+02  0.45594000000E+02  0.51100000000E-03 0.  1.
         11   -1    0    0    0    0 -0.00000000000E+00 -0.00000000000E+00 -0.45593999997E+02  0.45594000000E+02  0.51100000000E-03 0. -1.
    9900012    2    1    2    0    0  0.29891245545E+02  0.66991195678E+01 -0.30745054706E+02  0.47787272448E+02  0.20000006399E+02 0.  0.
        -12    1    1    2    0    0 -0.29891245545E+02 -0.66991195678E+01  0.30745054706E+02  0.43400727552E+02  0.00000000000E+00 0.  1.
         11    1    3    3    0    0  0.60030890403E+01 -0.98204372835E+00 -0.49104143619E+00  0.61026723543E+01  0.51100000000E-03 0. -1.
        -11    1    3    3    0    0  0.11361580263E+02  0.49805827588E+01 -0.50185124393E+01  0.13381972129E+02  0.51100000000E-03 0.  1.
         12    1    3    3    0    0  0.12526576241E+02  0.27005805374E+01 -0.25235500830E+02  0.28302627965E+02  0.00000000000E+00 0. -1.
</event>
<event>
 7    1  0.1400974E-009  0.4778727E+02  0.7816164E-02  0.1312668E+00
        -11   -1    0    0    0    0  0.00000000000E+00  0.00000000000E+00  0.45593999997E+02  0.45594000000E+02  0.51100000000E-03 0.  1.
         11   -1    0    0    0    0 -0.00000000000E+00 -0.00000000000E+00 -0.45593999997E+02  0.45594000000E+02  0.51100000000E-03 0. -1.
    9900012    2    1    2    0    0  0.69986376660E+01 -0.30734226144E+02 -0.29833698934E+02  0.47787272150E+02  0.20000005041E+02 0.  0.
        -12    1    1    2    0    0 -0.69986376660E+01  0.30734226144E+02  0.29833698934E+02  0.43400727850E+02  0.00000000000E+00 0.  1.
         11    1    3    3    0    0  0.28756593839E+01 -0.10218717515E+02 -0.46713662337E+01  0.11597985484E+02  0.51100000000E-03 0. -1.
        -11    1    3    3    0    0  0.90569627347E+00 -0.17943815984E+02 -0.26359328499E+02  0.31900078636E+02  0.51100000000E-03 0.  1.
        -12    1    3    3    0    0  0.32172820087E+01 -0.25716926447E+01  0.11969957987E+01  0.42892080300E+01  0.00000000000E+00 0.  1.
</event>
<event>
 7    1  0.1400974E-009  0.4778727E+02  0.7816164E-02  0.1312668E+00
        -11   -1    0    0    0    0  0.00000000000E+00  0.00000000000E+00  0.45593999997E+02  0.45594000000E+02  0.51100000000E-03 0. -1.
         11   -1    0    0    0    0 -0.00000000000E+00 -0.00000000000E+00 -0.45593999997E+02  0.45594000000E+02  0.51100000000E-03 0.  1.
    9900012    2    1    2    0    0  0.61630713723E+01  0.55274100031E+01  0.42603849400E+02  0.47787266207E+02  0.19999977942E+02 0.  0.
        -12    1    1    2    0    0 -0.61630713723E+01 -0.55274100031E+01 -0.42603849400E+02  0.43400733793E+02  0.00000000000E+00 0.  1.
         11    1    3    3    0    0  0.36994437590E+01  0.26998556747E+01  0.25576957522E+02  0.25983761489E+02  0.51100000000E-03 0. -1.
        -11    1    3    3    0    0 -0.30297311076E+01 -0.35828917873E+01  0.34816723940E+01  0.58428098603E+01  0.51100000000E-03 0.  1.
         12    1    3    3    0    0  0.54933587209E+01  0.64104461156E+01  0.13545219485E+02  0.15960694857E+02  0.00000000000E+00 0. -1.
</event>
<event>
 7    1  0.1400974E-009  0.4778727E+02  0.7816164E-02  0.1312668E+00
        -11   -1    0    0    0    0  0.00000000000E+00  0.00000000000E+00  0.45593999997E+02  0.45594000000E+02  0.51100000000E-03 0.  1.
         11   -1    0    0    0    0 -0.00000000000E+00 -0.00000000000E+00 -0.45593999997E+02  0.45594000000E+02  0.51100000000E-03 0. -1.
    9900012    2    1    2    0    0 -0.25952470338E+01  0.17153295640E+02 -0.39782562661E+02  0.47787272468E+02  0.20000006490E+02 0.  0.
        -12    1    1    2    0    0  0.25952470338E+01 -0.17153295640E+02  0.39782562661E+02  0.43400727532E+02  0.00000000000E+00 0.  1.
         11    1    3    3    0    0 -0.10037148667E+01  0.44802672814E+00  0.21431160553E+01  0.24085510521E+01  0.51100000000E-03 0. -1.
        -11    1    3    3    0    0 -0.67193821620E+00  0.53294136893E+01 -0.84679827552E+01  0.10028004958E+02  0.51100000000E-03 0.  1.
         12    1    3    3    0    0 -0.91959395098E+00  0.11375855222E+02 -0.33457695961E+02  0.35350716458E+02  0.00000000000E+00 0. -1.
</event>
<event>
 7    1  0.1400974E-009  0.4778727E+02  0.7816164E-02  0.1312668E+00
        -11   -1    0    0    0    0  0.00000000000E+00  0.00000000000E+00  0.45593999997E+02  0.45594000000E+02  0.51100000000E-03 0.  1.
         11   -1    0    0    0    0 -0.00000000000E+00 -0.00000000000E+00 -0.45593999997E+02  0.45594000000E+02  0.51100000000E-03 0. -1.
    9900012    2    1    2    0    0 -0.30203207798E+02  0.26968884875E+00 -0.31165954126E+02  0.47787272011E+02  0.20000004408E+02 0.  0.
        -12    1    1    2    0    0  0.30203207798E+02 -0.26968884875E+00  0.31165954126E+02  0.43400727989E+02  0.00000000000E+00 0.  1.
         11    1    3    3    0    0 -0.62957290916E+01 -0.45192284024E+01 -0.74127164237E+01  0.10724178066E+02  0.51100000000E-03 0. -1.
        -11    1    3    3    0    0 -0.36196960796E+01 -0.37489092541E+01 -0.95141194409E+01  0.10847810346E+02  0.51100000000E-03 0.  1.
         12    1    3    3    0    0 -0.20287782626E+02  0.85378265052E+01 -0.14239118262E+02  0.26215283600E+02  0.00000000000E+00 0. -1.
</event>
<event>
 7    1  0.1400974E-009  0.4778727E+02  0.7816164E-02  0.1312668E+00
        -11   -1    0    0    0    0  0.00000000000E+00  0.00000000000E+00  0.45593999997E+02  0.45594000000E+02  0.51100000000E-03 0.  1.
         11   -1    0    0    0    0 -0.00000000000E+00 -0.00000000000E+00 -0.45593999997E+02  0.45594000000E+02  0.51100000000E-03 0. -1.
    9900012    2    1    2    0    0  0.47897722107E+01 -0.32109357813E+02 -0.28803996084E+02  0.47787274575E+02  0.20000016098E+02 0.  0.
        -12    1    1    2    0    0 -0.47897722107E+01  0.32109357813E+02  0.28803996084E+02  0.43400725425E+02  0.00000000000E+00 0.  1.
         11    1    3    3    0    0 -0.38208947905E+01 -0.75712398494E+01 -0.20741625575E+01  0.87306964460E+01  0.51100000000E-03 0.  1.
        -11    1    3    3    0    0  0.43135570897E+01 -0.23596599459E+02 -0.21401957865E+02  0.32147318419E+02  0.51100000000E-03 0. -1.
        -12    1    3    3    0    0  0.42971099115E+01 -0.94151850486E+00 -0.53278756613E+01  0.69092597106E+01  0.00000000000E+00 0.  1.
</event>
<event>
 7    1  0.1400974E-009  0.4778727E+02  0.7816164E-02  0.1312668E+00
        -11   -1    0    0    0    0  0.00000000000E+00  0.00000000000E+00  0.45593999997E+02  0.45594000000E+02  0.51100000000E-03 0.  1.
         11   -1    0    0    0    0 -0.00000000000E+00 -0.00000000000E+00 -0.45593999997E+02  0.45594000000E+02  0.51100000000E-03 0. -1.
    9900012    2    1    2    0    0 -0.19831190791E+02  0.19114056758E+02 -0.33541018059E+02  0.47787272052E+02  0.20000004596E+02 0.  0.
        -12    1    1    2    0    0  0.19831190791E+02 -0.19114056758E+02  0.33541018059E+02  0.43400727948E+02  0.00000000000E+00 0.  1.
         11    1    3    3    0    0 -0.53222710106E+01 -0.26656529973E+01 -0.88686655577E+01  0.10681081577E+02  0.51100000000E-03 0. -1.
        -11    1    3    3    0    0 -0.11388383469E+02  0.10648306889E+02 -0.17777305151E+02  0.23645597821E+02  0.51100000000E-03 0.  1.
        -12    1    3    3    0    0 -0.31205363112E+01  0.11131402866E+02 -0.68950473510E+01  0.13460592655E+02  0.00000000000E+00 0.  1.
</event>
<event>
 7    1  0.1400974E-009  0.4778727E+02  0.7816164E-02  0.1312668E+00
        -11   -1    0    0    0    0  0.00000000000E+00  0.00000000000E+00  0.45593999997E+02  0.45594000000E+02  0.51100000000E-03 0.  1.
         11   -1    0    0    0    0 -0.00000000000E+00 -0.00000000000E+00 -0.45593999997E+02  0.45594000000E+02  0.51100000000E-03 0. -1.
    9900012    2    1    2    0    0  0.52538095960E+01 -0.25839267158E+02 -0.34472495714E+02  0.47787271858E+02  0.20000003708E+02 0.  0.
        -12    1    1    2    0    0 -0.52538095960E+01  0.25839267158E+02  0.34472495714E+02  0.43400728142E+02  0.00000000000E+00 0.  1.
         11    1    3    3    0    0  0.58244658968E+01 -0.25856310084E+02 -0.30689390202E+02  0.40550115232E+02  0.51100000000E-03 0. -1.
        -11    1    3    3    0    0  0.16293606780E+01  0.13576225894E+01 -0.41250138304E+01  0.46382857476E+01  0.51100000000E-03 0.  1.
         12    1    3    3    0    0 -0.22000169787E+01 -0.13405796636E+01  0.34190831836E+00  0.25988708778E+01  0.00000000000E+00 0. -1.
</event>
<event>
 7    1  0.1400974E-009  0.4778727E+02  0.7816164E-02  0.1312668E+00
        -11   -1    0    0    0    0  0.00000000000E+00  0.00000000000E+00  0.45593999997E+02  0.45594000000E+02  0.51100000000E-03 0. -1.
         11   -1    0    0    0    0 -0.00000000000E+00 -0.00000000000E+00 -0.45593999997E+02  0.45594000000E+02  0.51100000000E-03 0.  1.
    9900012    2    1    2    0    0  0.18915811581E+00  0.41848247466E+02  0.11502667997E+02  0.47787274571E+02  0.20000016077E+02 0.  0.
        -12    1    1    2    0    0 -0.18915811581E+00 -0.41848247466E+02 -0.11502667997E+02  0.43400725429E+02  0.00000000000E+00 0.  1.
         11    1    3    3    0    0 -0.22171685780E+01  0.28508251463E+02  0.49862875981E+01  0.29025838528E+02  0.51100000000E-03 0. -1.
        -11    1    3    3    0    0  0.59376287357E+00  0.68270909951E+01 -0.26708347728E+01  0.73549360603E+01  0.51100000000E-03 0.  1.
        -12    1    3    3    0    0  0.18125638202E+01  0.65129050081E+01  0.91872151716E+01  0.11406499983E+02  0.00000000000E+00 0.  1.
</event>
<event>
 7    1  0.1400974E-009  0.4778727E+02  0.7816164E-02  0.1312668E+00
        -11   -1    0    0    0    0  0.00000000000E+00  0.00000000000E+00  0.45593999997E+02  0.45594000000E+02  0.51100000000E-03 0.  1.
         11   -1    0    0    0    0 -0.00000000000E+00 -0.00000000000E+00 -0.45593999997E+02  0.45594000000E+02  0.51100000000E-03 0. -1.
    9900012    2    1    2    0    0  0.26707908259E+02  0.29285327474E+02 -0.17682777759E+02  0.47787269613E+02  0.19999993475E+02 0.  0.
        -12    1    1    2    0    0 -0.26707908259E+02 -0.29285327474E+02  0.17682777759E+02  0.43400730387E+02  0.00000000000E+00 0.  1.
         11    1    3    3    0    0  0.10635697337E+02  0.35382611506E+01 -0.68400242138E+01  0.13131004582E+02  0.51100000000E-03 0. -1.
        -11    1    3    3    0    0  0.58183974262E+01  0.19718814862E+01 -0.54414669163E+01  0.82068037424E+01  0.51100000000E-03 0.  1.
         12    1    3    3    0    0  0.10253813496E+02  0.23775184837E+02 -0.54012866289E+01  0.26449461289E+02  0.00000000000E+00 0. -1.
</event>
<event>
 7    1  0.1400974E-009  0.4778726E+02  0.7816164E-02  0.1312668E+00
        -11   -1    0    0    0    0  0.00000000000E+00  0.00000000000E+00  0.45593999997E+02  0.45594000000E+02  0.51100000000E-03 0. -1.
         11   -1    0    0    0    0 -0.00000000000E+00 -0.00000000000E+00 -0.45593999997E+02  0.45594000000E+02  0.51100000000E-03 0.  1.
    9900012    2    1    2    0    0 -0.41377592488E+02 -0.86269211109E+01 -0.98537164194E+01  0.47787255130E+02  0.19999927441E+02 0.  0.
        -12    1    1    2    0    0  0.41377592488E+02  0.86269211109E+01  0.98537164194E+01  0.43400744870E+02  0.00000000000E+00 0.  1.
         11    1    3    3    0    0 -0.26336354025E+02 -0.52160784531E+01 -0.11858603590E+02  0.29350255487E+02  0.51100000000E-03 0. -1.
        -11    1    3    3    0    0 -0.16295204421E+02 -0.21929596155E+01  0.11264478671E+01  0.16480644528E+02  0.51100000000E-03 0.  1.
        -12    1    3    3    0    0  0.12539659582E+01 -0.12178830423E+01  0.87843930324E+00  0.19563551157E+01  0.00000000000E+00 0.  1.
</event>
<event>
 7    1  0.1400974E-009  0.4778727E+02  0.7816164E-02  0.1312668E+00
        -11   -1    0    0    0    0  0.00000000000E+00  0.00000000000E+00  0.45593999997E+02  0.45594000000E+02  0.51100000000E-03 0.  1.
         11   -1    0    0    0    0 -0.00000000000E+00 -0.00000000000E+00 -0.45593999997E+02  0.45594000000E+02  0.51100000000E-03 0. -1.
    9900012    2    1    2    0    0 -0.34682467217E+02  0.24039608527E+02 -0.10141356832E+02  0.47787269260E+02  0.19999991863E+02 0.  0.
        -12    1    1    2    0    0  0.34682467217E+02 -0.24039608527E+02  0.10141356832E+02  0.43400730740E+02  0.00000000000E+00 0.  1.
         11    1    3    3    0    0 -0.59111689575E+01  0.41877251487E+00 -0.20884999191E+01  0.62832412843E+01  0.51100000000E-03 0. -1.
        -11    1    3    3    0    0 -0.10545822684E+02  0.17848272800E+02  0.72542354621E-01  0.20731147596E+02  0.51100000000E-03 0.  1.
         12    1    3    3    0    0 -0.18225475576E+02  0.57725632129E+01 -0.81253992673E+01  0.20772880379E+02  0.00000000000E+00 0. -1.
</event>
<event>
 7    1  0.1400974E-009  0.4778727E+02  0.7816164E-02  0.1312668E+00
        -11   -1    0    0    0    0  0.00000000000E+00  0.00000000000E+00  0.45593999997E+02  0.45594000000E+02  0.51100000000E-03 0. -1.
         11   -1    0    0    0    0 -0.00000000000E+00 -0.00000000000E+00 -0.45593999997E+02  0.45594000000E+02  0.51100000000E-03 0.  1.
    9900012    2    1    2    0    0 -0.33272093793E+02  0.27416931782E+01  0.27732194710E+02  0.47787265786E+02  0.19999976026E+02 0.  0.
        -12    1    1    2    0    0  0.33272093793E+02 -0.27416931782E+01 -0.27732194710E+02  0.43400734214E+02  0.00000000000E+00 0.  1.
         11    1    3    3    0    0 -0.86610167179E+01 -0.60042549072E+01  0.68053212235E+01  0.12544986441E+02  0.51100000000E-03 0. -1.
        -11    1    3    3    0    0 -0.57231255356E+01 -0.22365225145E+01  0.70828996037E+01  0.93767620164E+01  0.51100000000E-03 0.  1.
        -12    1    3    3    0    0 -0.18887951540E+02  0.10982470600E+02  0.13843973882E+02  0.25865517329E+02  0.00000000000E+00 0.  1.
</event>
<event>
 7    1  0.1400974E-009  0.4778728E+02  0.7816164E-02  0.1312668E+00
        -11   -1    0    0    0    0  0.00000000000E+00  0.00000000000E+00  0.45593999997E+02  0.45594000000E+02  0.51100000000E-03 0. -1.
         11   -1    0    0    0    0 -0.00000000000E+00 -0.00000000000E+00 -0.45593999997E+02  0.45594000000E+02  0.51100000000E-03 0.  1.
    9900012    2    1    2    0    0  0.22310976681E+02  0.26900308298E+02  0.25733559621E+02  0.47787281599E+02  0.20000048121E+02 0.  0.
        -12    1    1    2    0    0 -0.22310976681E+02 -0.26900308298E+02 -0.25733559621E+02  0.43400718401E+02  0.00000000000E+00 0.  1.
         11    1    3    3    0    0  0.89545888470E+01  0.68817182634E+01  0.14867380333E+02  0.18670342951E+02  0.51100000000E-03 0. -1.
        -11    1    3    3    0    0  0.64487490533E+00  0.11106068859E+02  0.69099141508E+01  0.13096088842E+02  0.51100000000E-03 0.  1.
        -12    1    3    3    0    0  0.12711512929E+02  0.89125211762E+01  0.39562651372E+01  0.16020849805E+02  0.00000000000E+00 0.  1.
</event>
<event>
 7    1  0.3075147E-009  0.4778727E+02  0.7816164E-02  0.1312668E+00
        -11   -1    0    0    0    0  0.00000000000E+00  0.00000000000E+00  0.45593999997E+02  0.45594000000E+02  0.51100000000E-03 0. -1.
         11   -1    0    0    0    0 -0.00000000000E+00 -0.00000000000E+00 -0.45593999997E+02  0.45594000000E+02  0.51100000000E-03 0.  1.
    9900012    2    1    2    0    0 -0.84223986199E+01  0.14132350877E+02  0.40161711380E+02  0.47787271886E+02  0.20000003837E+02 0.  0.
        -12    1    1    2    0    0  0.84223986199E+01 -0.14132350877E+02 -0.40161711380E+02  0.43400728114E+02  0.00000000000E+00 0.  1.
         11    1    3    3    0    0 -0.55809282614E+01  0.22645077173E+01  0.17182847548E+02  0.18207828140E+02  0.51100000000E-03 0. -1.
        -11    1    3    3    0    0  0.31807376457E+01 -0.12968357432E+01  0.16731540742E+01  0.38207747555E+01  0.51100000000E-03 0.  1.
        -12    1    3    3    0    0 -0.60222080041E+01  0.13164678903E+02  0.21305709758E+02  0.25758668990E+02  0.00000000000E+00 0.  1.
</event>
<event>
 7    1  0.1400974E-009  0.4778727E+02  0.7816164E-02  0.1312668E+00
        -11   -1    0    0    0    0  0.00000000000E+00  0.00000000000E+00  0.45593999997E+02  0.45594000000E+02  0.51100000000E-03 0. -1.
         11   -1    0    0    0    0 -0.00000000000E+00 -0.00000000000E+00 -0.45593999997E+02  0.45594000000E+02  0.51100000000E-03 0.  1.
    9900012    2    1    2    0    0  0.36545821217E+02 -0.72058320332E+01  0.22273350780E+02  0.47787271681E+02  0.20000002900E+02 0.  0.
        -12    1    1    2    0    0 -0.36545821217E+02  0.72058320332E+01 -0.22273350780E+02  0.43400728319E+02  0.00000000000E+00 0.  1.
         11    1    3    3    0    0  0.74790826382E+01 -0.72395696960E+01  0.11335671428E+01  0.10470578839E+02  0.51100000000E-03 0. -1.
        -11    1    3    3    0    0  0.16164541561E+02  0.16749446877E+01  0.59179320621E+01  0.17295079177E+02  0.51100000000E-03 0.  1.
         12    1    3    3    0    0  0.12902197018E+02 -0.16412070249E+01  0.15221851575E+02  0.20021613665E+02  0.00000000000E+00 0. -1.
</event>
<event>
 7    1  0.1400974E-009  0.4778722E+02  0.7816164E-02  0.1312668E+00
        -11   -1    0    0    0    0  0.00000000000E+00  0.00000000000E+00  0.45593999997E+02  0.45594000000E+02  0.51100000000E-03 0.  1.
         11   -1    0    0    0    0 -0.00000000000E+00 -0.00000000000E+00 -0.45593999997E+02  0.45594000000E+02  0.51100000000E-03 0. -1.
    9900012    2    1    2    0    0 -0.18466487818E+02 -0.35805399122E+02 -0.16142800899E+02  0.47787218907E+02  0.19999762283E+02 0.  0.
        -12    1    1    2    0    0  0.18466487818E+02  0.35805399122E+02  0.16142800899E+02  0.43400781093E+02  0.00000000000E+00 0.  1.
         11    1    3    3    0    0 -0.15903477866E+01 -0.18523408980E+02 -0.89658226597E+01  0.20640539299E+02  0.51100000000E-03 0. -1.
        -11    1    3    3    0    0 -0.70095259050E+01 -0.52655584555E+01 -0.75856438694E+01  0.11593168352E+02  0.51100000000E-03 0.  1.
         12    1    3    3    0    0 -0.98666141263E+01 -0.12016431687E+02  0.40866563024E+00  0.15553511256E+02  0.00000000000E+00 0. -1.
</event>
<event>
 7    1  0.1400974E-009  0.4778726E+02  0.7816164E-02  0.1312668E+00
        -11   -1    0    0    0    0  0.00000000000E+00  0.00000000000E+00  0.45593999997E+02  0.45594000000E+02  0.51100000000E-03 0.  1.
         11   -1    0    0    0    0 -0.00000000000E+00 -0.00000000000E+00 -0.45593999997E+02  0.45594000000E+02  0.51100000000E-03 0. -1.
    9900012    2    1    2    0    0  0.14009795768E+02 -0.39867357434E+02  0.98966476144E+01  0.47787260372E+02  0.19999951340E+02 0.  0.
        -12    1    1    2    0    0 -0.14009795768E+02  0.39867357434E+02 -0.98966476144E+01  0.43400739628E+02  0.00000000000E+00 0.  1.
         11    1    3    3    0    0  0.12776220698E+02 -0.29821124770E+02  0.87030168228E+01  0.33589787138E+02  0.51100000000E-03 0. -1.
        -11    1    3    3    0    0  0.40181444348E+01 -0.54266696089E+00 -0.70094324864E+00  0.41147653431E+01  0.51100000000E-03 0.  1.
         12    1    3    3    0    0 -0.27845693645E+01 -0.95035657036E+01  0.18945740402E+01  0.10082707891E+02  0.00000000000E+00 0. -1.
</event>
<event>
 7    1  0.1400974E-009  0.4778726E+02  0.7816164E-02  0.1312668E+00
        -11   -1    0    0    0    0  0.00000000000E+00  0.00000000000E+00  0.45593999997E+02  0.45594000000E+02  0.51100000000E-03 0.  1.
         11   -1    0    0    0    0 -0.00000000000E+00 -0.00000000000E+00 -0.45593999997E+02  0.45594000000E+02  0.51100000000E-03 0. -1.
    9900012    2    1    2    0    0 -0.14516180557E+02  0.20132059981E+02 -0.35603442412E+02  0.47787257510E+02  0.19999938293E+02 0.  0.
        -12    1    1    2    0    0  0.14516180557E+02 -0.20132059981E+02  0.35603442412E+02  0.43400742490E+02  0.00000000000E+00 0.  1.
         11    1    3    3    0    0 -0.11007556006E+02  0.80471601652E+01 -0.20297379988E+02  0.24452131003E+02  0.51100000000E-03 0. -1.
        -11    1    3    3    0    0 -0.50569496044E+01  0.13087966592E+02 -0.87760637616E+01  0.16549528821E+02  0.51100000000E-03 0.  1.
        -12    1    3    3    0    0  0.15483250530E+01 -0.10030667756E+01 -0.65299986621E+01  0.67855976857E+01  0.00000000000E+00 0.  1.
</event>
<event>
 7    1  0.1629266E-009  0.4778727E+02  0.7816164E-02  0.1312668E+00
        -11   -1    0    0    0    0  0.00000000000E+00  0.00000000000E+00  0.45593999997E+02  0.45594000000E+02  0.51100000000E-03 0.  1.
         11   -1    0    0    0    0 -0.00000000000E+00 -0.00000000000E+00 -0.45593999997E+02  0.45594000000E+02  0.51100000000E-03 0. -1.
    9900012    2    1    2    0    0 -0.94673697850E+01  0.40753034084E+02 -0.11540470108E+02  0.47787270421E+02  0.19999997157E+02 0.  0.
        -12    1    1    2    0    0  0.94673697850E+01 -0.40753034084E+02  0.11540470108E+02  0.43400729579E+02  0.00000000000E+00 0.  1.
         11    1    3    3    0    0 -0.66940249156E+01  0.27280555109E+02 -0.98883212586E+01  0.29779482101E+02  0.51100000000E-03 0. -1.
        -11    1    3    3    0    0  0.15918206376E+01  0.29841903377E+01 -0.51143282021E+01  0.61315282054E+01  0.51100000000E-03 0.  1.
        -12    1    3    3    0    0 -0.43651655071E+01  0.10488288637E+02  0.34621793525E+01  0.11876260115E+02  0.00000000000E+00 0.  1.
</event>
<event>
 7    1  0.1400974E-009  0.4778727E+02  0.7816164E-02  0.1312668E+00
        -11   -1    0    0    0    0  0.00000000000E+00  0.00000000000E+00  0.45593999997E+02  0.45594000000E+02  0.51100000000E-03 0.  1.
         11   -1    0    0    0    0 -0.00000000000E+00 -0.00000000000E+00 -0.45593999997E+02  0.45594000000E+02  0.51100000000E-03 0. -1.
    9900012    2    1    2    0    0 -0.24098675674E+02 -0.14554997225E+02 -0.33030730323E+02  0.47787271214E+02  0.20000000775E+02 0.  0.
        -12    1    1    2    0    0  0.24098675674E+02  0.14554997225E+02  0.33030730323E+02  0.43400728786E+02  0.00000000000E+00 0.  1.
         11    1    3    3    0    0 -0.32606599509E+01 -0.59796238473E+01 -0.40655206108E+01  0.79319772294E+01  0.51100000000E-03 0. -1.
        -11    1    3    3    0    0 -0.21011288167E+02 -0.37545128641E+01 -0.18167760798E+02  0.28029237056E+02  0.51100000000E-03 0.  1.
        -12    1    3    3    0    0  0.17327244377E+00 -0.48208605137E+01 -0.10797448914E+02  0.11826056929E+02  0.00000000000E+00 0.  1.
</event>
<event>
 7    1  0.1400974E-009  0.4778727E+02  0.7816164E-02  0.1312668E+00
        -11   -1    0    0    0    0  0.00000000000E+00  0.00000000000E+00  0.45593999997E+02  0.45594000000E+02  0.51100000000E-03 0.  1.
         11   -1    0    0    0    0 -0.00000000000E+00 -0.00000000000E+00 -0.45593999997E+02  0.45594000000E+02  0.51100000000E-03 0. -1.
    9900012    2    1    2    0    0 -0.13093973030E+02 -0.20666095749E+02 -0.35848064674E+02  0.47787269775E+02  0.19999994211E+02 0.  0.
        -12    1    1    2    0    0  0.13093973030E+02  0.20666095749E+02  0.35848064674E+02  0.43400730225E+02  0.00000000000E+00 0.  1.
         11    1    3    3    0    0 -0.15885489121E+01 -0.49410226119E+01 -0.78558876680E+01  0.94155277818E+01  0.51100000000E-03 0. -1.
        -11    1    3    3    0    0 -0.47945592461E+01 -0.11909038251E+02 -0.27831935328E+02  0.30650116065E+02  0.51100000000E-03 0.  1.
         12    1    3    3    0    0 -0.67108648718E+01 -0.38160348858E+01 -0.16024167795E+00  0.77216259280E+01  0.00000000000E+00 0. -1.
</event>
<event>
 7    1  0.1400974E-009  0.4778727E+02  0.7816164E-02  0.1312668E+00
        -11   -1    0    0    0    0  0.00000000000E+00  0.00000000000E+00  0.45593999997E+02  0.45594000000E+02  0.51100000000E-03 0.  1.
         11   -1    0    0    0    0 -0.00000000000E+00 -0.00000000000E+00 -0.45593999997E+02  0.45594000000E+02  0.51100000000E-03 0. -1.
    9900012    2    1    2    0    0 -0.36844296850E+02  0.16330899895E+02 -0.16106602846E+02  0.47787272391E+02  0.20000006139E+02 0.  0.
        -12    1    1    2    0    0  0.36844296850E+02 -0.16330899895E+02  0.16106602846E+02  0.43400727609E+02  0.00000000000E+00 0.  1.
         11    1    3    3    0    0 -0.54936187542E+01  0.57758662786E+01 -0.97145479043E+01  0.12566340738E+02  0.51100000000E-03 0. -1.
        -11    1    3    3    0    0 -0.11068368653E+02  0.67813711827E+01  0.16366134894E+01  0.13083359039E+02  0.51100000000E-03 0.  1.
        -12    1    3    3    0    0 -0.20282309443E+02  0.37736624339E+01 -0.80286684308E+01  0.22137572615E+02  0.00000000000E+00 0.  1.
</event>
<event>
 7    1  0.1400974E-009  0.4778726E+02  0.7816164E-02  0.1312668E+00
        -11   -1    0    0    0    0  0.00000000000E+00  0.00000000000E+00  0.45593999997E+02  0.45594000000E+02  0.51100000000E-03 0. -1.
         11   -1    0    0    0    0 -0.00000000000E+00 -0.00000000000E+00 -0.45593999997E+02  0.45594000000E+02  0.51100000000E-03 0.  1.
    9900012    2    1    2    0    0  0.94982492730E+01  0.25070817052E+02  0.34130066353E+02  0.47787262262E+02  0.19999959957E+02 0.  0.
        -12    1    1    2    0    0 -0.94982492730E+01 -0.25070817052E+02 -0.34130066353E+02  0.43400737738E+02  0.00000000000E+00 0.  1.
         11    1    3    3    0    0 -0.85793364905E+00  0.79519681063E+01  0.45573541797E+01  0.92053964765E+01  0.51100000000E-03 0. -1.
        -11    1    3    3    0    0 -0.25952517174E+01 -0.70725662857E+00  0.24649694235E+01  0.36485090016E+01  0.51100000000E-03 0.  1.
         12    1    3    3    0    0  0.12951434639E+02  0.17826105575E+02  0.27107742750E+02  0.34933356784E+02  0.00000000000E+00 0. -1.
</event>
<event>
 7    1  0.1400974E-009  0.4778727E+02  0.7816164E-02  0.1312668E+00
        -11   -1    0    0    0    0  0.00000000000E+00  0.00000000000E+00  0.45593999997E+02  0.45594000000E+02  0.51100000000E-03 0.  1.
         11   -1    0    0    0    0 -0.00000000000E+00 -0.00000000000E+00 -0.45593999997E+02  0.45594000000E+02  0.51100000000E-03 0. -1.
    9900012    2    1    2    0    0  0.31200134506E+01  0.27078054642E+02 -0.33773770686E+02  0.47787272892E+02  0.20000008424E+02 0.  0.
        -12    1    1    2    0    0 -0.31200134506E+01 -0.27078054642E+02  0.33773770686E+02  0.43400727108E+02  0.00000000000E+00 0.  1.
         11    1    3    3    0    0  0.48330262902E+01  0.25151596607E+02 -0.23626860644E+02  0.34845222042E+02  0.51100000000E-03 0. -1.
        -11    1    3    3    0    0  0.29836147059E+01  0.31461126200E+00 -0.46562568677E+01  0.55391032883E+01  0.51100000000E-03 0.  1.
        -12    1    3    3    0    0 -0.46966275454E+01  0.16118467731E+01 -0.54906531746E+01  0.74029475618E+01  0.00000000000E+00 0.  1.
</event>
<event>
 7    1  0.1400974E-009  0.4778727E+02  0.7816164E-02  0.1312668E+00
        -11   -1    0    0    0    0  0.00000000000E+00  0.00000000000E+00  0.45593999997E+02  0.45594000000E+02  0.51100000000E-03 0.  1.
         11   -1    0    0    0    0 -0.00000000000E+00 -0.00000000000E+00 -0.45593999997E+02  0.45594000000E+02  0.51100000000E-03 0. -1.
    9900012    2    1    2    0    0 -0.24495201260E+01 -0.42549004491E+02 -0.81978844025E+01  0.47787271427E+02  0.20000001745E+02 0.  0.
        -12    1    1    2    0    0  0.24495201260E+01  0.42549004491E+02  0.81978844025E+01  0.43400728573E+02  0.00000000000E+00 0.  1.
         11    1    3    3    0    0  0.38809840001E+01 -0.73059065385E+01 -0.60843544609E+01  0.10269258816E+02  0.51100000000E-03 0. -1.
        -11    1    3    3    0    0 -0.56562326513E+01 -0.18422804930E+02 -0.61088246053E+01  0.20216588427E+02  0.51100000000E-03 0.  1.
        -12    1    3    3    0    0 -0.67427147483E+00 -0.16820293022E+02  0.39952946637E+01  0.17301424184E+02  0.00000000000E+00 0.  1.
</event>
<event>
 7    1  0.1400974E-009  0.4778727E+02  0.7816164E-02  0.1312668E+00
        -11   -1    0    0    0    0  0.00000000000E+00  0.00000000000E+00  0.45593999997E+02  0.45594000000E+02  0.51100000000E-03 0.  1.
         11   -1    0    0    0    0 -0.00000000000E+00 -0.00000000000E+00 -0.45593999997E+02  0.45594000000E+02  0.51100000000E-03 0. -1.
    9900012    2    1    2    0    0  0.36936465066E+02 -0.18312854934E+02 -0.13563204119E+02  0.47787267133E+02  0.19999982166E+02 0.  0.
        -12    1    1    2    0    0 -0.36936465066E+02  0.18312854934E+02  0.13563204119E+02  0.43400732867E+02  0.00000000000E+00 0.  1.
         11    1    3    3    0    0  0.17710357133E+02 -0.40989064191E+01  0.18251889749E+01  0.18269895967E+02  0.51100000000E-03 0.  1.
        -11    1    3    3    0    0  0.73691084062E+01 -0.88663858916E+01 -0.39221753342E+01  0.12177849445E+02  0.51100000000E-03 0. -1.
        -12    1    3    3    0    0  0.11856999527E+02 -0.53475626236E+01 -0.11466217760E+02  0.17339521721E+02  0.00000000000E+00 0.  1.
</event>
<event>
 7    1  0.1400974E-009  0.4778728E+02  0.7816164E-02  0.1312668E+00
        -11   -1    0    0    0    0  0.00000000000E+00  0.00000000000E+00  0.45593999997E+02  0.45594000000E+02  0.51100000000E-03 0.  1.
         11   -1    0    0    0    0 -0.00000000000E+00 -0.00000000000E+00 -0.45593999997E+02  0.45594000000E+02  0.51100000000E-03 0. -1.
    9900012    2    1    2    0    0 -0.98715129157E+01  0.34419195234E+02 -0.24525396499E+02  0.47787276029E+02  0.20000022725E+02 0.  0.
        -12    1    1    2    0    0  0.98715129157E+01 -0.34419195234E+02  0.24525396499E+02  0.43400723971E+02  0.00000000000E+00 0.  1.
         11    1    3    3    0    0  0.12441239875E+01  0.93408023294E+01 -0.31771815833E+01  0.99444917280E+01  0.51100000000E-03 0.  1.
        -11    1    3    3    0    0 -0.11596265399E+02  0.79029496305E+01 -0.87619100816E+01  0.16543912857E+02  0.51100000000E-03 0. -1.
         12    1    3    3    0    0  0.48062849592E+00  0.17175443274E+02 -0.12586304835E+02  0.21298871444E+02  0.00000000000E+00 0. -1.
</event>
<event>
 7    1  0.1400974E-009  0.4778726E+02  0.7816164E-02  0.1312668E+00
        -11   -1    0    0    0    0  0.00000000000E+00  0.00000000000E+00  0.45593999997E+02  0.45594000000E+02  0.51100000000E-03 0. -1.
         11   -1    0    0    0    0 -0.00000000000E+00 -0.00000000000E+00 -0.45593999997E+02  0.45594000000E+02  0.51100000000E-03 0.  1.
    9900012    2    1    2    0    0  0.12182178659E+02  0.19377044623E+02  0.36874768201E+02  0.47787264234E+02  0.19999968947E+02 0.  0.
        -12    1    1    2    0    0 -0.12182178659E+02 -0.19377044623E+02 -0.36874768201E+02  0.43400735766E+02  0.00000000000E+00 0.  1.
         11    1    3    3    0    0  0.28587920390E+01 -0.67191176645E+00  0.13157920663E+02  0.13481655454E+02  0.51100000000E-03 0. -1.
        -11    1    3    3    0    0  0.72684265199E+01  0.73866816297E+01  0.47299732524E+01  0.11391476498E+02  0.51100000000E-03 0.  1.
         12    1    3    3    0    0  0.20549600998E+01  0.12662274759E+02  0.18986874285E+02  0.22914132281E+02  0.00000000000E+00 0. -1.
</event>
<event>
 7    1  0.1637590E-009  0.4778727E+02  0.7816164E-02  0.1312668E+00
        -11   -1    0    0    0    0  0.00000000000E+00  0.00000000000E+00  0.45593999997E+02  0.45594000000E+02  0.51100000000E-03 0.  1.
         11   -1    0    0    0    0 -0.00000000000E+00 -0.00000000000E+00 -0.45593999997E+02  0.45594000000E+02  0.51100000000E-03 0. -1.
    9900012    2    1    2    0    0  0.42935573423E+02 -0.54923267223E+01  0.31613417737E+01  0.47787271898E+02  0.20000003892E+02 0.  0.
        -12    1    1    2    0    0 -0.42935573423E+02  0.54923267223E+01 -0.31613417737E+01  0.43400728102E+02  0.00000000000E+00 0.  1.
         11    1    3    3    0    0  0.25016479090E+02 -0.60751476870E+01  0.43800463331E+01  0.26113530049E+02  0.51100000000E-03 0. -1.
        -11    1    3    3    0    0  0.13344219034E+01  0.26886248903E+00  0.40474520486E+01  0.42702268325E+01  0.51100000000E-03 0.  1.
        -12    1    3    3    0    0  0.16584672429E+02  0.31395847564E+00 -0.52661566079E+01  0.17403515017E+02  0.00000000000E+00 0.  1.
</event>
<event>
 7    1  0.1400974E-009  0.4778727E+02  0.7816164E-02  0.1312668E+00
        -11   -1    0    0    0    0  0.00000000000E+00  0.00000000000E+00  0.45593999997E+02  0.45594000000E+02  0.51100000000E-03 0. -1.
         11   -1    0    0    0    0 -0.00000000000E+00 -0.00000000000E+00 -0.45593999997E+02  0.45594000000E+02  0.51100000000E-03 0.  1.
    9900012    2    1    2    0    0  0.37604055502E+01 -0.36829103100E+02  0.22651715079E+02  0.47787266353E+02  0.19999978610E+02 0.  0.
        -12    1    1    2    0    0 -0.37604055502E+01  0.36829103100E+02 -0.22651715079E+02  0.43400733647E+02  0.00000000000E+00 0.  1.
         11    1    3    3    0    0  0.61063135153E+01 -0.11779738428E+02  0.80692603020E+01  0.15529399997E+02  0.51100000000E-03 0. -1.
        -11    1    3    3    0    0  0.41722734358E+00 -0.76733967318E+01  0.12317863167E+02  0.14518431366E+02  0.51100000000E-03 0.  1.
         12    1    3    3    0    0 -0.27631353087E+01 -0.17375967941E+02  0.22645916093E+01  0.17739434990E+02  0.00000000000E+00 0. -1.
</event>
<event>
 7    1  0.1400974E-009  0.4778727E+02  0.7816164E-02  0.1312668E+00
        -11   -1    0    0    0    0  0.00000000000E+00  0.00000000000E+00  0.45593999997E+02  0.45594000000E+02  0.51100000000E-03 0.  1.
         11   -1    0    0    0    0 -0.00000000000E+00 -0.00000000000E+00 -0.45593999997E+02  0.45594000000E+02  0.51100000000E-03 0. -1.
    9900012    2    1    2    0    0  0.39576110534E+02  0.17089977431E+02  0.50286391515E+01  0.47787273447E+02  0.20000010955E+02 0.  0.
        -12    1    1    2    0    0 -0.39576110534E+02 -0.17089977431E+02 -0.50286391515E+01  0.43400726553E+02  0.00000000000E+00 0.  1.
         11    1    3    3    0    0  0.82150148110E+01 -0.40923917426E+01  0.50863893880E+00  0.91919993664E+01  0.51100000000E-03 0. -1.
        -11    1    3    3    0    0  0.88044072734E+01  0.78696895883E+01 -0.91800712803E+00  0.11844506701E+02  0.51100000000E-03 0.  1.
         12    1    3    3    0    0  0.22556688450E+02  0.13312679585E+02  0.54380073408E+01  0.26750767379E+02  0.00000000000E+00 0. -1.
</event>
<event>
 7    1  0.2371449E-009  0.4778727E+02  0.7816164E-02  0.1312668E+00
        -11   -1    0    0    0    0  0.00000000000E+00  0.00000000000E+00  0.45593999997E+02  0.45594000000E+02  0.51100000000E-03 0. -1.
         11   -1    0    0    0    0 -0.00000000000E+00 -0.00000000000E+00 -0.45593999997E+02  0.45594000000E+02  0.51100000000E-03 0.  1.
    9900012    2    1    2    0    0  0.41329811257E+02  0.12022233950E+02 -0.55619775471E+01  0.47787274178E+02  0.20000014286E+02 0.  0.
        -12    1    1    2    0    0 -0.41329811257E+02 -0.12022233950E+02  0.55619775471E+01  0.43400725822E+02  0.00000000000E+00 0.  1.
         11    1    3    3    0    0  0.20953978601E+02 -0.52995915625E-01 -0.25412701313E+01  0.21107583517E+02  0.51100000000E-03 0. -1.
        -11    1    3    3    0    0 -0.68468583435E+00 -0.93652334094E-01  0.17601124631E+01  0.18909155442E+01  0.51100000000E-03 0.  1.
         12    1    3    3    0    0  0.21060518490E+02  0.12168882200E+02 -0.47808198788E+01  0.24788775116E+02  0.00000000000E+00 0. -1.
</event>
<event>
 7    1  0.1400974E-009  0.4778727E+02  0.7816164E-02  0.1312668E+00
        -11   -1    0    0    0    0  0.00000000000E+00  0.00000000000E+00  0.45593999997E+02  0.45594000000E+02  0.51100000000E-03 0. -1.
         11   -1    0    0    0    0 -0.00000000000E+00 -0.00000000000E+00 -0.45593999997E+02  0.45594000000E+02  0.51100000000E-03 0.  1.
    9900012    2    1    2    0    0  0.19257124776E+02  0.37775482425E+02 -0.92627963254E+01  0.47787270480E+02  0.19999997429E+02 0.  0.
        -12    1    1    2    0    0 -0.19257124776E+02 -0.37775482425E+02  0.92627963254E+01  0.43400729520E+02  0.00000000000E+00 0.  1.
         11    1    3    3    0    0  0.12598909303E+02  0.23059529601E+02 -0.64282472305E+01  0.27051742712E+02  0.51100000000E-03 0. -1.
        -11    1    3    3    0    0  0.15095418696E+01  0.10671989508E+02  0.37866995501E+01  0.11424061032E+02  0.51100000000E-03 0.  1.
         12    1    3    3    0    0  0.51486736030E+01  0.40439633165E+01 -0.66212486451E+01  0.93114667370E+01  0.00000000000E+00 0. -1.
</event>
<event>
 7    1  0.1400974E-009  0.4778728E+02  0.7816164E-02  0.1312668E+00
        -11   -1    0    0    0    0  0.00000000000E+00  0.00000000000E+00  0.45593999997E+02  0.45594000000E+02  0.51100000000E-03 0.  1.
         11   -1    0    0    0    0 -0.00000000000E+00 -0.00000000000E+00 -0.45593999997E+02  0.45594000000E+02  0.51100000000E-03 0. -1.
    9900012    2    1    2    0    0 -0.25177284807E+02 -0.30872229501E+02 -0.17223016372E+02  0.47787279757E+02  0.20000039725E+02 0.  0.
        -12    1    1    2    0    0  0.25177284807E+02  0.30872229501E+02  0.17223016372E+02  0.43400720243E+02  0.00000000000E+00 0.  1.
         11    1    3    3    0    0 -0.11750793814E+02 -0.12126842229E+02 -0.76977411360E+01  0.18557927593E+02  0.51100000000E-03 0. -1.
        -11    1    3    3    0    0  0.28230603308E+01 -0.68353045138E+01 -0.36264410726E+01  0.82366335685E+01  0.51100000000E-03 0.  1.
         12    1    3    3    0    0 -0.16249551324E+02 -0.11910082759E+02 -0.58988341639E+01  0.20992718596E+02  0.00000000000E+00 0. -1.
</event>
<event>
 7    1  0.1400974E-009  0.4778727E+02  0.7816164E-02  0.1312668E+00
        -11   -1    0    0    0    0  0.00000000000E+00  0.00000000000E+00  0.45593999997E+02  0.45594000000E+02  0.51100000000E-03 0.  1.
         11   -1    0    0    0    0 -0.00000000000E+00 -0.00000000000E+00 -0.45593999997E+02  0.45594000000E+02  0.51100000000E-03 0. -1.
    9900012    2    1    2    0    0  0.14732191143E+02  0.37498812745E+01 -0.40651251475E+02  0.47787270605E+02  0.19999997998E+02 0.  0.
        -12    1    1    2    0    0 -0.14732191143E+02 -0.37498812745E+01  0.40651251475E+02  0.43400729395E+02  0.00000000000E+00 0.  1.
         11    1    3    3    0    0  0.57546800412E+00  0.41211311006E+01 -0.93829942578E+00  0.42655938679E+01  0.51100000000E-03 0. -1.
        -11    1    3    3    0    0  0.45096881880E+01 -0.33827150838E+00 -0.27927729735E+02  0.28291514692E+02  0.51100000000E-03 0.  1.
         12    1    3    3    0    0  0.96470349513E+01 -0.32978317787E-01 -0.11785222315E+02  0.15230162045E+02  0.00000000000E+00 0. -1.
</event>
<event>
 7    1  0.1400974E-009  0.4778727E+02  0.7816164E-02  0.1312668E+00
        -11   -1    0    0    0    0  0.00000000000E+00  0.00000000000E+00  0.45593999997E+02  0.45594000000E+02  0.51100000000E-03 0. -1.
         11   -1    0    0    0    0 -0.00000000000E+00 -0.00000000000E+00 -0.45593999997E+02  0.45594000000E+02  0.51100000000E-03 0.  1.
    9900012    2    1    2    0    0  0.24021384171E+00  0.32741944743E+02  0.28487380694E+02  0.47787268358E+02  0.19999987751E+02 0.  0.
        -12    1    1    2    0    0 -0.24021384171E+00 -0.32741944743E+02 -0.28487380694E+02  0.43400731642E+02  0.00000000000E+00 0.  1.
         11    1    3    3    0    0 -0.64331191494E+01  0.19253118462E+02  0.15020966026E+02  0.25252663486E+02  0.51100000000E-03 0. -1.
        -11    1    3    3    0    0  0.53442949972E+01  0.13108604772E+02  0.67603638065E+01  0.15687559630E+02  0.51100000000E-03 0.  1.
         12    1    3    3    0    0  0.13290379939E+01  0.38022150861E+00  0.67060508617E+01  0.68470452419E+01  0.00000000000E+00 0. -1.
</event>
<event>
 7    1  0.1400974E-009  0.4778727E+02  0.7816164E-02  0.1312668E+00
        -11   -1    0    0    0    0  0.00000000000E+00  0.00000000000E+00  0.45593999997E+02  0.45594000000E+02  0.51100000000E-03 0.  1.
         11   -1    0    0    0    0 -0.00000000000E+00 -0.00000000000E+00 -0.45593999997E+02  0.45594000000E+02  0.51100000000E-03 0. -1.
    9900012    2    1    2    0    0 -0.12888362762E+02 -0.18143116758E+02 -0.37260442736E+02  0.47787272204E+02  0.20000005285E+02 0.  0.
        -12    1    1    2    0    0  0.12888362762E+02  0.18143116758E+02  0.37260442736E+02  0.43400727796E+02  0.00000000000E+00 0.  1.
         11    1    3    3    0    0  0.33934811197E+00  0.11351238983E+01 -0.20280945732E+01  0.23487935764E+01  0.51100000000E-03 0.  1.
        -11    1    3    3    0    0 -0.12353488997E+02 -0.18334372217E+02 -0.18986617150E+02  0.29141886110E+02  0.51100000000E-03 0. -1.
         12    1    3    3    0    0 -0.87422187697E+00 -0.94386843877E+00 -0.16245731013E+02  0.16296592517E+02  0.00000000000E+00 0. -1.
</event>
<event>
 7    1  0.1400974E-009  0.4778727E+02  0.7816164E-02  0.1312668E+00
        -11   -1    0    0    0    0  0.00000000000E+00  0.00000000000E+00  0.45593999997E+02  0.45594000000E+02  0.51100000000E-03 0.  1.
         11   -1    0    0    0    0 -0.00000000000E+00 -0.00000000000E+00 -0.45593999997E+02  0.45594000000E+02  0.51100000000E-03 0. -1.
    9900012    2    1    2    0    0 -0.17344743334E+02  0.38674883042E+02 -0.93293461742E+01  0.47787269596E+02  0.19999993394E+02 0.  0.
        -12    1    1    2    0    0  0.17344743334E+02 -0.38674883042E+02  0.93293461742E+01  0.43400730404E+02  0.00000000000E+00 0.  1.
         11    1    3    3    0    0 -0.39157811471E-01  0.81196173247E+01 -0.54941371151E+01  0.98038391325E+01  0.51100000000E-03 0. -1.
        -11    1    3    3    0    0 -0.67613821567E+01  0.28468437638E+01  0.23397034302E+01  0.77003259987E+01  0.51100000000E-03 0.  1.
         12    1    3    3    0    0 -0.10544203366E+02  0.27708421953E+02 -0.61749124892E+01  0.30283104464E+02  0.00000000000E+00 0. -1.
</event>
<event>
 7    1  0.1400974E-009  0.4778727E+02  0.7816164E-02  0.1312668E+00
        -11   -1    0    0    0    0  0.00000000000E+00  0.00000000000E+00  0.45593999997E+02  0.45594000000E+02  0.51100000000E-03 0. -1.
         11   -1    0    0    0    0 -0.00000000000E+00 -0.00000000000E+00 -0.45593999997E+02  0.45594000000E+02  0.51100000000E-03 0.  1.
    9900012    2    1    2    0    0 -0.14873179372E+02 -0.17994433937E+02  0.36587051310E+02  0.47787269120E+02  0.19999991226E+02 0.  0.
        -12    1    1    2    0    0  0.14873179372E+02  0.17994433937E+02 -0.36587051310E+02  0.43400730880E+02  0.00000000000E+00 0.  1.
         11    1    3    3    0    0 -0.10013607597E+02 -0.19426070972E+01  0.42029861653E+01  0.11032277753E+02  0.51100000000E-03 0. -1.
        -11    1    3    3    0    0 -0.19822451297E+01 -0.23726208531E+01  0.35250663028E+01  0.46887864280E+01  0.51100000000E-03 0.  1.
        -12    1    3    3    0    0 -0.28773266449E+01 -0.13679205987E+02  0.28858998842E+02  0.32066204939E+02  0.00000000000E+00 0.  1.
</event>
<event>
 7    1  0.1400974E-009  0.4778727E+02  0.7816164E-02  0.1312668E+00
        -11   -1    0    0    0    0  0.00000000000E+00  0.00000000000E+00  0.45593999997E+02  0.45594000000E+02  0.51100000000E-03 0. -1.
         11   -1    0    0    0    0 -0.00000000000E+00 -0.00000000000E+00 -0.45593999997E+02  0.45594000000E+02  0.51100000000E-03 0.  1.
    9900012    2    1    2    0    0 -0.38144576413E+02 -0.15074159260E+02  0.14190987344E+02  0.47787272945E+02  0.20000008666E+02 0.  0.
        -12    1    1    2    0    0  0.38144576413E+02  0.15074159260E+02 -0.14190987344E+02  0.43400727055E+02  0.00000000000E+00 0.  1.
         11    1    3    3    0    0 -0.12877676884E+02 -0.34643440517E+01  0.74161607968E+00  0.13356131039E+02  0.51100000000E-03 0.  1.
        -11    1    3    3    0    0 -0.12902066526E+01 -0.72025430994E+01  0.31465272487E+01  0.79650420145E+01  0.51100000000E-03 0. -1.
        -12    1    3    3    0    0 -0.23976692876E+02 -0.44072721091E+01  0.10302844015E+02  0.26466099892E+02  0.00000000000E+00 0.  1.
</event>
<event>
 7    1  0.1400974E-009  0.4778727E+02  0.7816164E-02  0.1312668E+00
        -11   -1    0    0    0    0  0.00000000000E+00  0.00000000000E+00  0.45593999997E+02  0.45594000000E+02  0.51100000000E-03 0. -1.
         11   -1    0    0    0    0 -0.00000000000E+00 -0.00000000000E+00 -0.45593999997E+02  0.45594000000E+02  0.51100000000E-03 0.  1.
    9900012    2    1    2    0    0 -0.16584392501E+02  0.19674294836E+02  0.34950014369E+02  0.47787268943E+02  0.19999990418E+02 0.  0.
        -12    1    1    2    0    0  0.16584392501E+02 -0.19674294836E+02 -0.34950014369E+02  0.43400731057E+02  0.00000000000E+00 0.  1.
         11    1    3    3    0    0  0.88267848038E-02  0.11763189631E+02  0.15843437113E+02  0.19732896595E+02  0.51100000000E-03 0. -1.
        -11    1    3    3    0    0 -0.38257476214E+01  0.29596334700E+01  0.37561963909E+00  0.48514807548E+01  0.51100000000E-03 0.  1.
        -12    1    3    3    0    0 -0.12767471664E+02  0.49514717343E+01  0.18730957617E+02  0.23202891593E+02  0.00000000000E+00 0.  1.
</event>
<event>
 7    1  0.1400974E-009  0.4778727E+02  0.7816164E-02  0.1312668E+00
        -11   -1    0    0    0    0  0.00000000000E+00  0.00000000000E+00  0.45593999997E+02  0.45594000000E+02  0.51100000000E-03 0.  1.
         11   -1    0    0    0    0 -0.00000000000E+00 -0.00000000000E+00 -0.45593999997E+02  0.45594000000E+02  0.51100000000E-03 0. -1.
    9900012    2    1    2    0    0  0.15669998525E+02 -0.36300311106E+02 -0.17898646325E+02  0.47787274425E+02  0.20000015413E+02 0.  0.
        -12    1    1    2    0    0 -0.15669998525E+02  0.36300311106E+02  0.17898646325E+02  0.43400725575E+02  0.00000000000E+00 0.  1.
         11    1    3    3    0    0  0.14732968622E+02 -0.26269969249E+02 -0.21491214783E+02  0.37000594074E+02  0.51100000000E-03 0. -1.
        -11    1    3    3    0    0 -0.21530290745E+00 -0.23490784884E+01  0.12730531050E+01  0.26805203890E+01  0.51100000000E-03 0.  1.
        -12    1    3    3    0    0  0.11523328103E+01 -0.76812633692E+01  0.23195153532E+01  0.81061599618E+01  0.00000000000E+00 0.  1.
</event>
<event>
 7    1  0.1400974E-009  0.4778727E+02  0.7816164E-02  0.1312668E+00
        -11   -1    0    0    0    0  0.00000000000E+00  0.00000000000E+00  0.45593999997E+02  0.45594000000E+02  0.51100000000E-03 0.  1.
         11   -1    0    0    0    0 -0.00000000000E+00 -0.00000000000E+00 -0.45593999997E+02  0.45594000000E+02  0.51100000000E-03 0. -1.
    9900012    2    1    2    0    0 -0.40683871766E+01  0.31533138699E+02 -0.29542046403E+02  0.47787272862E+02  0.20000008286E+02 0.  0.
        -12    1    1    2    0    0  0.40683871766E+01 -0.31533138699E+02  0.29542046403E+02  0.43400727138E+02  0.00000000000E+00 0.  1.
         11    1    3    3    0    0 -0.44199457920E+01  0.28205133552E+02 -0.28406604430E+02  0.40274069263E+02  0.51100000000E-03 0. -1.
        -11    1    3    3    0    0 -0.28479883026E+01  0.24827346045E+01  0.51842189532E+00  0.38136295062E+01  0.51100000000E-03 0.  1.
        -12    1    3    3    0    0  0.31995469180E+01  0.84527054249E+00 -0.16538638680E+01  0.36995740923E+01  0.00000000000E+00 0.  1.
</event>
<event>
 7    1  0.1400974E-009  0.4778727E+02  0.7816164E-02  0.1312668E+00
        -11   -1    0    0    0    0  0.00000000000E+00  0.00000000000E+00  0.45593999997E+02  0.45594000000E+02  0.51100000000E-03 0.  1.
         11   -1    0    0    0    0 -0.00000000000E+00 -0.00000000000E+00 -0.45593999997E+02  0.45594000000E+02  0.51100000000E-03 0. -1.
    9900012    2    1    2    0    0 -0.32658301789E+02 -0.12746525767E+02 -0.25584849858E+02  0.47787272620E+02  0.20000007184E+02 0.  0.
        -12    1    1    2    0    0  0.32658301789E+02  0.12746525767E+02  0.25584849858E+02  0.43400727380E+02  0.00000000000E+00 0.  1.
         11    1    3    3    0    0 -0.12206744334E+02 -0.12273005614E+01 -0.18672560158E+02  0.22342233036E+02  0.51100000000E-03 0. -1.
        -11    1    3    3    0    0 -0.23832667195E+01 -0.45149080442E+01 -0.12458990642E+01  0.52551517240E+01  0.51100000000E-03 0.  1.
        -12    1    3    3    0    0 -0.18068290735E+02 -0.70043171611E+01 -0.56663906361E+01  0.20189887860E+02  0.00000000000E+00 0.  1.
</event>
<event>
 7    1  0.1400974E-009  0.4778727E+02  0.7816164E-02  0.1312668E+00
        -11   -1    0    0    0    0  0.00000000000E+00  0.00000000000E+00  0.45593999997E+02  0.45594000000E+02  0.51100000000E-03 0.  1.
         11   -1    0    0    0    0 -0.00000000000E+00 -0.00000000000E+00 -0.45593999997E+02  0.45594000000E+02  0.51100000000E-03 0. -1.
    9900012    2    1    2    0    0  0.18678678534E+02 -0.12377719761E+02 -0.37168837231E+02  0.47787269138E+02  0.19999991306E+02 0.  0.
        -12    1    1    2    0    0 -0.18678678534E+02  0.12377719761E+02  0.37168837231E+02  0.43400730862E+02  0.00000000000E+00 0.  1.
         11    1    3    3    0    0  0.12555811223E+02 -0.14077602096E+02 -0.28283153755E+02  0.33996530159E+02  0.51100000000E-03 0. -1.
        -11    1    3    3    0    0 -0.22147952020E-01  0.13533164827E+01 -0.73143711406E+01  0.74385470004E+01  0.51100000000E-03 0.  1.
         12    1    3    3    0    0  0.61450152634E+01  0.34656585185E+00 -0.15713123353E+01  0.63521919785E+01  0.00000000000E+00 0. -1.
</event>
<event>
 7    1  0.1400974E-009  0.4778728E+02  0.7816164E-02  0.1312668E+00
        -11   -1    0    0    0    0  0.00000000000E+00  0.00000000000E+00  0.45593999997E+02  0.45594000000E+02  0.51100000000E-03 0.  1.
         11   -1    0    0    0    0 -0.00000000000E+00 -0.00000000000E+00 -0.45593999997E+02  0.45594000000E+02  0.51100000000E-03 0. -1.
    9900012    2    1    2    0    0  0.13104906615E+02  0.20278837865E+02 -0.36064568138E+02  0.47787275149E+02  0.20000018716E+02 0.  0.
        -12    1    1    2    0    0 -0.13104906615E+02 -0.20278837865E+02  0.36064568138E+02  0.43400724851E+02  0.00000000000E+00 0.  1.
         11    1    3    3    0    0 -0.16908195236E+00  0.16587379417E+00 -0.92947554339E+01  0.92977729409E+01  0.51100000000E-03 0. -1.
        -11    1    3    3    0    0  0.13667200129E+01  0.68156166246E+01 -0.82842762883E+00  0.70004889947E+01  0.51100000000E-03 0.  1.
         12    1    3    3    0    0  0.11907268555E+02  0.13297347446E+02 -0.25941385076E+02  0.31489013214E+02  0.00000000000E+00 0. -1.
</event>
<event>
 7    1  0.1400974E-009  0.4778727E+02  0.7816164E-02  0.1312668E+00
        -11   -1    0    0    0    0  0.00000000000E+00  0.00000000000E+00  0.45593999997E+02  0.45594000000E+02  0.51100000000E-03 0. -1.
         11   -1    0    0    0    0 -0.00000000000E+00 -0.00000000000E+00 -0.45593999997E+02  0.45594000000E+02  0.51100000000E-03 0.  1.
    9900012    2    1    2    0    0  0.19401682822E+02  0.29020551103E+02  0.25787696471E+02  0.47787274523E+02  0.20000015859E+02 0.  0.
        -12    1    1    2    0    0 -0.19401682822E+02 -0.29020551103E+02 -0.25787696471E+02  0.43400725477E+02  0.00000000000E+00 0.  1.
         11    1    3    3    0    0  0.13081464873E+01  0.44684540408E+01  0.12293493470E+00  0.46576219261E+01  0.51100000000E-03 0.  1.
        -11    1    3    3    0    0  0.55985647336E+01  0.90017571120E+01  0.19594334293E+02  0.22278094506E+02  0.51100000000E-03 0. -1.
         12    1    3    3    0    0  0.12494971601E+02  0.15550339951E+02  0.60704272434E+01  0.20851558091E+02  0.00000000000E+00 0. -1.
</event>
<event>
 7    1  0.1400974E-009  0.4778727E+02  0.7816164E-02  0.1312668E+00
        -11   -1    0    0    0    0  0.00000000000E+00  0.00000000000E+00  0.45593999997E+02  0.45594000000E+02  0.51100000000E-03 0.  1.
         11   -1    0    0    0    0 -0.00000000000E+00 -0.00000000000E+00 -0.45593999997E+02  0.45594000000E+02  0.51100000000E-03 0. -1.
    9900012    2    1    2    0    0 -0.34185632073E+01  0.54078864750E+01 -0.42926583431E+02  0.47787269873E+02  0.19999994658E+02 0.  0.
        -12    1    1    2    0    0  0.34185632073E+01 -0.54078864750E+01  0.42926583431E+02  0.43400730127E+02  0.00000000000E+00 0.  1.
         11    1    3    3    0    0 -0.11345303884E+01  0.80152924564E+01 -0.35686201181E+02  0.36592854867E+02  0.51100000000E-03 0. -1.
        -11    1    3    3    0    0 -0.49038596046E+01 -0.39454419128E+00 -0.53903220282E+01  0.72978816083E+01  0.51100000000E-03 0.  1.
        -12    1    3    3    0    0  0.26198267858E+01 -0.22128617901E+01 -0.18500602219E+01  0.38965333970E+01  0.00000000000E+00 0.  1.
</event>
<event>
 7    1  0.1400974E-009  0.4778727E+02  0.7816164E-02  0.1312668E+00
        -11   -1    0    0    0    0  0.00000000000E+00  0.00000000000E+00  0.45593999997E+02  0.45594000000E+02  0.51100000000E-03 0.  1.
         11   -1    0    0    0    0 -0.00000000000E+00 -0.00000000000E+00 -0.45593999997E+02  0.45594000000E+02  0.51100000000E-03 0. -1.
    9900012    2    1    2    0    0  0.13984565026E+02 -0.12230860053E+01 -0.41067739487E+02  0.47787271608E+02  0.20000002571E+02 0.  0.
        -12    1    1    2    0    0 -0.13984565026E+02  0.12230860053E+01  0.41067739487E+02  0.43400728392E+02  0.00000000000E+00 0.  1.
         11    1    3    3    0    0  0.63484555211E+01 -0.88119051933E+01 -0.12429683998E+02  0.16506047534E+02  0.51100000000E-03 0. -1.
        -11    1    3    3    0    0  0.17431932582E+00  0.11401174073E+01 -0.11105218109E+02  0.11164950714E+02  0.51100000000E-03 0.  1.
         12    1    3    3    0    0  0.74617901788E+01  0.64487017807E+01 -0.17532837380E+02  0.20116273361E+02  0.00000000000E+00 0. -1.
</event>
<event>
 7    1  0.1400974E-009  0.4778727E+02  0.7816164E-02  0.1312668E+00
        -11   -1    0    0    0    0  0.00000000000E+00  0.00000000000E+00  0.45593999997E+02  0.45594000000E+02  0.51100000000E-03 0. -1.
         11   -1    0    0    0    0 -0.00000000000E+00 -0.00000000000E+00 -0.45593999997E+02  0.45594000000E+02  0.51100000000E-03 0.  1.
    9900012    2    1    2    0    0 -0.96662325690E+01  0.16603423640E+02  0.38916751398E+02  0.47787271112E+02  0.20000000307E+02 0.  0.
        -12    1    1    2    0    0  0.96662325690E+01 -0.16603423640E+02 -0.38916751398E+02  0.43400728888E+02  0.00000000000E+00 0.  1.
         11    1    3    3    0    0 -0.24759618549E+01  0.88020336672E+01  0.27239204739E+02  0.28732915948E+02  0.51100000000E-03 0. -1.
        -11    1    3    3    0    0 -0.11273342205E+01  0.20689151424E+01  0.10338653279E+02  0.10603727844E+02  0.51100000000E-03 0.  1.
        -12    1    3    3    0    0 -0.60629364936E+01  0.57324748307E+01  0.13388933795E+01  0.84506273194E+01  0.00000000000E+00 0.  1.
</event>
<event>
 7    1  0.1400974E-009  0.4778727E+02  0.7816164E-02  0.1312668E+00
        -11   -1    0    0    0    0  0.00000000000E+00  0.00000000000E+00  0.45593999997E+02  0.45594000000E+02  0.51100000000E-03 0. -1.
         11   -1    0    0    0    0 -0.00000000000E+00 -0.00000000000E+00 -0.45593999997E+02  0.45594000000E+02  0.51100000000E-03 0.  1.
    9900012    2    1    2    0    0 -0.42755902478E+02  0.24073494206E+01  0.70541322400E+01  0.47787270633E+02  0.19999998123E+02 0.  0.
        -12    1    1    2    0    0  0.42755902478E+02 -0.24073494206E+01 -0.70541322400E+01  0.43400729367E+02  0.00000000000E+00 0.  1.
         11    1    3    3    0    0 -0.63170748601E+01 -0.33685919240E+01  0.55815115694E+01  0.90777815571E+01  0.51100000000E-03 0. -1.
        -11    1    3    3    0    0 -0.27705227350E+02 -0.67654063422E+00  0.23650987991E+01  0.27814223382E+02  0.51100000000E-03 0.  1.
         12    1    3    3    0    0 -0.87336002680E+01  0.64524819789E+01 -0.89247812849E+00  0.10895265694E+02  0.00000000000E+00 0. -1.
</event>
<event>
 7    1  0.1400974E-009  0.4778727E+02  0.7816164E-02  0.1312668E+00
        -11   -1    0    0    0    0  0.00000000000E+00  0.00000000000E+00  0.45593999997E+02  0.45594000000E+02  0.51100000000E-03 0.  1.
         11   -1    0    0    0    0 -0.00000000000E+00 -0.00000000000E+00 -0.45593999997E+02  0.45594000000E+02  0.51100000000E-03 0. -1.
    9900012    2    1    2    0    0  0.28819345716E+02  0.73608978188E+01 -0.31605153679E+02  0.47787271396E+02  0.20000001605E+02 0.  0.
        -12    1    1    2    0    0 -0.28819345716E+02 -0.73608978188E+01  0.31605153679E+02  0.43400728604E+02  0.00000000000E+00 0.  1.
         11    1    3    3    0    0  0.29421645629E+02  0.64447752302E+01 -0.28788477751E+02  0.41664671015E+02  0.51100000000E-03 0. -1.
        -11    1    3    3    0    0  0.94952418074E+00  0.26708387298E+01 -0.59966954890E+00  0.28973400766E+01  0.51100000000E-03 0.  1.
         12    1    3    3    0    0 -0.15518240929E+01 -0.17547161412E+01 -0.22170063792E+01  0.32252603053E+01  0.00000000000E+00 0. -1.
</event>
<event>
 7    1  0.1400974E-009  0.4778727E+02  0.7816164E-02  0.1312668E+00
        -11   -1    0    0    0    0  0.00000000000E+00  0.00000000000E+00  0.45593999997E+02  0.45594000000E+02  0.51100000000E-03 0.  1.
         11   -1    0    0    0    0 -0.00000000000E+00 -0.00000000000E+00 -0.45593999997E+02  0.45594000000E+02  0.51100000000E-03 0. -1.
    9900012    2    1    2    0    0 -0.32696218658E+02 -0.95320544231E+01 -0.26902054709E+02  0.47787270471E+02  0.19999997385E+02 0.  0.
        -12    1    1    2    0    0  0.32696218658E+02  0.95320544231E+01  0.26902054709E+02  0.43400729529E+02  0.00000000000E+00 0.  1.
         11    1    3    3    0    0 -0.16584342789E+02 -0.10038329281E+02 -0.17121380227E+02  0.25864070477E+02  0.51100000000E-03 0. -1.
        -11    1    3    3    0    0 -0.13764590299E+02 -0.30883759613E+01 -0.38886074777E+01  0.14632951875E+02  0.51100000000E-03 0.  1.
         12    1    3    3    0    0 -0.23472855703E+01  0.35946508193E+01 -0.58920670044E+01  0.72902481196E+01  0.00000000000E+00 0. -1.
</event>
<event>
 7    1  0.1400974E-009  0.4778727E+02  0.7816164E-02  0.1312668E+00
        -11   -1    0    0    0    0  0.00000000000E+00  0.00000000000E+00  0.45593999997E+02  0.45594000000E+02  0.51100000000E-03 0.  1.
         11   -1    0    0    0    0 -0.00000000000E+00 -0.00000000000E+00 -0.45593999997E+02  0.45594000000E+02  0.51100000000E-03 0. -1.
    9900012    2    1    2    0    0  0.17508179144E+02 -0.25321610317E+02 -0.30592532159E+02  0.47787270629E+02  0.19999998108E+02 0.  0.
        -12    1    1    2    0    0 -0.17508179144E+02  0.25321610317E+02  0.30592532159E+02  0.43400729371E+02  0.00000000000E+00 0.  1.
         11    1    3    3    0    0  0.14262553544E+02 -0.19394625139E+02 -0.26491490766E+02  0.35796242836E+02  0.51100000000E-03 0. -1.
        -11    1    3    3    0    0  0.33064204510E+01  0.13991687793E+01 -0.27930928905E+01  0.45487863907E+01  0.51100000000E-03 0.  1.
        -12    1    3    3    0    0 -0.60794851543E-01 -0.73261539570E+01 -0.13079485031E+01  0.74422414032E+01  0.00000000000E+00 0.  1.
</event>
<event>
 7    1  0.1400974E-009  0.4778727E+02  0.7816164E-02  0.1312668E+00
        -11   -1    0    0    0    0  0.00000000000E+00  0.00000000000E+00  0.45593999997E+02  0.45594000000E+02  0.51100000000E-03 0. -1.
         11   -1    0    0    0    0 -0.00000000000E+00 -0.00000000000E+00 -0.45593999997E+02  0.45594000000E+02  0.51100000000E-03 0.  1.
    9900012    2    1    2    0    0 -0.31676410377E+02  0.15012204905E+02 -0.25590275409E+02  0.47787268831E+02  0.19999989908E+02 0.  0.
        -12    1    1    2    0    0  0.31676410377E+02 -0.15012204905E+02  0.25590275409E+02  0.43400731169E+02  0.00000000000E+00 0.  1.
         11    1    3    3    0    0 -0.41477949966E+01  0.56005263452E+01  0.20153701021E+01  0.72547788103E+01  0.51100000000E-03 0. -1.
        -11    1    3    3    0    0 -0.12393296935E+02  0.71757180368E+01 -0.12081761056E+02  0.18736426787E+02  0.51100000000E-03 0.  1.
         12    1    3    3    0    0 -0.15135318446E+02  0.22359605229E+01 -0.15523884455E+02  0.21796063234E+02  0.00000000000E+00 0. -1.
</event>
<event>
 7    1  0.1400974E-009  0.4778727E+02  0.7816164E-02  0.1312668E+00
        -11   -1    0    0    0    0  0.00000000000E+00  0.00000000000E+00  0.45593999997E+02  0.45594000000E+02  0.51100000000E-03 0.  1.
         11   -1    0    0    0    0 -0.00000000000E+00 -0.00000000000E+00 -0.45593999997E+02  0.45594000000E+02  0.51100000000E-03 0. -1.
    9900012    2    1    2    0    0  0.25268576363E+02  0.28001469710E+02 -0.21471840359E+02  0.47787272060E+02  0.20000004631E+02 0.  0.
        -12    1    1    2    0    0 -0.25268576363E+02 -0.28001469710E+02  0.21471840359E+02  0.43400727940E+02  0.00000000000E+00 0.  1.
         11    1    3    3    0    0 -0.56898279637E+00  0.59835816262E+01 -0.40259975283E+01  0.72343380388E+01  0.51100000000E-03 0.  1.
        -11    1    3    3    0    0  0.33687794211E+00  0.25620372682E+01 -0.59379614828E+01  0.64758712576E+01  0.51100000000E-03 0. -1.
         12    1    3    3    0    0  0.25500681217E+02  0.19455850815E+02 -0.11507881348E+02  0.34077062764E+02  0.00000000000E+00 0. -1.
</event>
<event>
 7    1  0.1400974E-009  0.4778729E+02  0.7816164E-02  0.1312668E+00
        -11   -1    0    0    0    0  0.00000000000E+00  0.00000000000E+00  0.45593999997E+02  0.45594000000E+02  0.51100000000E-03 0.  1.
         11   -1    0    0    0    0 -0.00000000000E+00 -0.00000000000E+00 -0.45593999997E+02  0.45594000000E+02  0.51100000000E-03 0. -1.
    9900012    2    1    2    0    0  0.26769782853E+02  0.33689055678E+02 -0.56610737731E+01  0.47787291449E+02  0.20000093031E+02 0.  0.
        -12    1    1    2    0    0 -0.26769782853E+02 -0.33689055678E+02  0.56610737731E+01  0.43400708551E+02  0.00000000000E+00 0.  1.
         11    1    3    3    0    0  0.99846232244E+00  0.75603856197E+01 -0.50675714110E+01  0.91562349246E+01  0.51100000000E-03 0. -1.
        -11    1    3    3    0    0  0.83422311022E+01  0.45142108095E+01  0.43383102945E+01  0.10430333430E+02  0.51100000000E-03 0.  1.
         12    1    3    3    0    0  0.17429089428E+02  0.21614459249E+02 -0.49318126566E+01  0.28200723094E+02  0.00000000000E+00 0. -1.
</event>
<event>
 7    1  0.1400974E-009  0.4778726E+02  0.7816164E-02  0.1312668E+00
        -11   -1    0    0    0    0  0.00000000000E+00  0.00000000000E+00  0.45593999997E+02  0.45594000000E+02  0.51100000000E-03 0.  1.
         11   -1    0    0    0    0 -0.00000000000E+00 -0.00000000000E+00 -0.45593999997E+02  0.45594000000E+02  0.51100000000E-03 0. -1.
    9900012    2    1    2    0    0  0.62681295439E+00  0.30193546720E+02 -0.31170191843E+02  0.47787262477E+02  0.19999960937E+02 0.  0.
        -12    1    1    2    0    0 -0.62681295439E+00 -0.30193546720E+02  0.31170191843E+02  0.43400737523E+02  0.00000000000E+00 0.  1.
         11    1    3    3    0    0 -0.47564794258E+01  0.69923782548E+01 -0.91415296420E+01  0.12453313400E+02  0.51100000000E-03 0. -1.
        -11    1    3    3    0    0  0.50109837994E+01  0.21033387981E+02 -0.11328391186E+02  0.24409953210E+02  0.51100000000E-03 0.  1.
         12    1    3    3    0    0  0.37230858074E+00  0.21677804846E+01 -0.10700271014E+02  0.10923995867E+02  0.00000000000E+00 0. -1.
</event>
<event>
 7    1  0.1400974E-009  0.4778728E+02  0.7816164E-02  0.1312668E+00
        -11   -1    0    0    0    0  0.00000000000E+00  0.00000000000E+00  0.45593999997E+02  0.45594000000E+02  0.51100000000E-03 0.  1.
         11   -1    0    0    0    0 -0.00000000000E+00 -0.00000000000E+00 -0.45593999997E+02  0.45594000000E+02  0.51100000000E-03 0. -1.
    9900012    2    1    2    0    0 -0.22632379198E+02  0.35951154346E+02 -0.88832833772E+01  0.47787276382E+02  0.20000024338E+02 0.  0.
        -12    1    1    2    0    0  0.22632379198E+02 -0.35951154346E+02  0.88832833772E+01  0.43400723618E+02  0.00000000000E+00 0.  1.
         11    1    3    3    0    0 -0.90394595500E+01  0.14745530248E+02 -0.40058609335E+01  0.17753574664E+02  0.51100000000E-03 0. -1.
        -11    1    3    3    0    0 -0.21524503011E+01  0.35711454188E+01  0.52470714874E+01  0.67020803753E+01  0.51100000000E-03 0.  1.
        -12    1    3    3    0    0 -0.11440469347E+02  0.17634478679E+02 -0.10124493931E+02  0.23331621344E+02  0.00000000000E+00 0.  1.
</event>
<event>
 7    1  0.1400974E-009  0.4778727E+02  0.7816164E-02  0.1312668E+00
        -11   -1    0    0    0    0  0.00000000000E+00  0.00000000000E+00  0.45593999997E+02  0.45594000000E+02  0.51100000000E-03 0.  1.
         11   -1    0    0    0    0 -0.00000000000E+00 -0.00000000000E+00 -0.45593999997E+02  0.45594000000E+02  0.51100000000E-03 0. -1.
    9900012    2    1    2    0    0  0.28852553069E+02  0.63499702557E+01  0.31793576938E+02  0.47787268723E+02  0.19999989414E+02 0.  0.
        -12    1    1    2    0    0 -0.28852553069E+02 -0.63499702557E+01 -0.31793576938E+02  0.43400731277E+02  0.00000000000E+00 0.  1.
         11    1    3    3    0    0  0.48203153649E+01  0.24624588333E+01  0.11837981534E+02  0.13016794950E+02  0.51100000000E-03 0. -1.
        -11    1    3    3    0    0 -0.48838547434E-02 -0.16948046253E+01  0.63895851507E+01  0.66105359260E+01  0.51100000000E-03 0.  1.
         12    1    3    3    0    0  0.24037121559E+02  0.55823160477E+01  0.13566010254E+02  0.28159937847E+02  0.00000000000E+00 0. -1.
</event>
<event>
 7    1  0.1400974E-009  0.4778727E+02  0.7816164E-02  0.1312668E+00
        -11   -1    0    0    0    0  0.00000000000E+00  0.00000000000E+00  0.45593999997E+02  0.45594000000E+02  0.51100000000E-03 0. -1.
         11   -1    0    0    0    0 -0.00000000000E+00 -0.00000000000E+00 -0.45593999997E+02  0.45594000000E+02  0.51100000000E-03 0.  1.
    9900012    2    1    2    0    0 -0.87166404934E+01 -0.95443614775E+01  0.41431248119E+02  0.47787274451E+02  0.20000015531E+02 0.  0.
        -12    1    1    2    0    0  0.87166404934E+01  0.95443614775E+01 -0.41431248119E+02  0.43400725549E+02  0.00000000000E+00 0.  1.
         11    1    3    3    0    0  0.25978165857E+01 -0.67005362516E+01  0.79115946916E+01  0.10688272447E+02  0.51100000000E-03 0. -1.
        -11    1    3    3    0    0 -0.26819759661E+00 -0.45394987500E+00 -0.80459629752E+00  0.96196460586E+00  0.51100000000E-03 0.  1.
         12    1    3    3    0    0 -0.11046259482E+02 -0.23898753509E+01  0.34324249725E+02  0.36137037398E+02  0.00000000000E+00 0. -1.
</event>
<event>
 7    1  0.1400974E-009  0.4778727E+02  0.7816164E-02  0.1312668E+00
        -11   -1    0    0    0    0  0.00000000000E+00  0.00000000000E+00  0.45593999997E+02  0.45594000000E+02  0.51100000000E-03 0.  1.
         11   -1    0    0    0    0 -0.00000000000E+00 -0.00000000000E+00 -0.45593999997E+02  0.45594000000E+02  0.51100000000E-03 0. -1.
    9900012    2    1    2    0    0 -0.16142780832E+02 -0.16000997363E+02 -0.36972990318E+02  0.47787270713E+02  0.19999998487E+02 0.  0.
        -12    1    1    2    0    0  0.16142780832E+02  0.16000997363E+02  0.36972990318E+02  0.43400729287E+02  0.00000000000E+00 0.  1.
         11    1    3    3    0    0  0.25437416043E+01 -0.67478954499E+01 -0.12152030303E+02  0.14130695492E+02  0.51100000000E-03 0. -1.
        -11    1    3    3    0    0 -0.10826055438E+02 -0.46150560153E+01 -0.20315909758E+02  0.23478466899E+02  0.51100000000E-03 0.  1.
        -12    1    3    3    0    0 -0.78604669977E+01 -0.46380458983E+01 -0.45050502570E+01  0.10178108321E+02  0.00000000000E+00 0.  1.
</event>
<event>
 7    1  0.1400974E-009  0.4778727E+02  0.7816164E-02  0.1312668E+00
        -11   -1    0    0    0    0  0.00000000000E+00  0.00000000000E+00  0.45593999997E+02  0.45594000000E+02  0.51100000000E-03 0.  1.
         11   -1    0    0    0    0 -0.00000000000E+00 -0.00000000000E+00 -0.45593999997E+02  0.45594000000E+02  0.51100000000E-03 0. -1.
    9900012    2    1    2    0    0 -0.12220819057E+02 -0.24788998548E+02 -0.33463120046E+02  0.47787271082E+02  0.20000000170E+02 0.  0.
        -12    1    1    2    0    0  0.12220819057E+02  0.24788998548E+02  0.33463120046E+02  0.43400728918E+02  0.00000000000E+00 0.  1.
         11    1    3    3    0    0 -0.73768929947E+01 -0.10854648838E+02 -0.11469362542E+02  0.17429521767E+02  0.51100000000E-03 0.  1.
        -11    1    3    3    0    0 -0.74721188643E+01 -0.12877975064E+02 -0.97652601873E+01  0.17805479742E+02  0.51100000000E-03 0. -1.
         12    1    3    3    0    0  0.26281928021E+01 -0.10563746462E+01 -0.12228497316E+02  0.12552269572E+02  0.00000000000E+00 0. -1.
</event>
<event>
 7    1  0.1547581E-009  0.4778728E+02  0.7816164E-02  0.1312668E+00
        -11   -1    0    0    0    0  0.00000000000E+00  0.00000000000E+00  0.45593999997E+02  0.45594000000E+02  0.51100000000E-03 0.  1.
         11   -1    0    0    0    0 -0.00000000000E+00 -0.00000000000E+00 -0.45593999997E+02  0.45594000000E+02  0.51100000000E-03 0. -1.
    9900012    2    1    2    0    0 -0.21450502299E+02 -0.36696703174E+02 -0.87664601380E+01  0.47787275397E+02  0.20000019845E+02 0.  0.
        -12    1    1    2    0    0  0.21450502299E+02  0.36696703174E+02  0.87664601380E+01  0.43400724603E+02  0.00000000000E+00 0.  1.
         11    1    3    3    0    0 -0.10768930354E+02 -0.11998874277E+02  0.12192248425E+01  0.16168777145E+02  0.51100000000E-03 0.  1.
        -11    1    3    3    0    0  0.77726599988E+00 -0.55732530285E+00 -0.41603178204E+01  0.42688404229E+01  0.51100000000E-03 0. -1.
         12    1    3    3    0    0 -0.11458837945E+02 -0.24140503594E+02 -0.58253671601E+01  0.27349657829E+02  0.00000000000E+00 0. -1.
</event>
<event>
 7    1  0.1400974E-009  0.4778727E+02  0.7816164E-02  0.1312668E+00
        -11   -1    0    0    0    0  0.00000000000E+00  0.00000000000E+00  0.45593999997E+02  0.45594000000E+02  0.51100000000E-03 0.  1.
         11   -1    0    0    0    0 -0.00000000000E+00 -0.00000000000E+00 -0.45593999997E+02  0.45594000000E+02  0.51100000000E-03 0. -1.
    9900012    2    1    2    0    0  0.33757483852E+02  0.27277279490E+02 -0.76313628085E-01  0.47787268253E+02  0.19999987275E+02 0.  0.
        -12    1    1    2    0    0 -0.33757483852E+02 -0.27277279490E+02  0.76313628085E-01  0.43400731747E+02  0.00000000000E+00 0.  1.
         11    1    3    3    0    0  0.14511273456E+02  0.42705998373E+01 -0.43480920619E+01  0.15739154524E+02  0.51100000000E-03 0. -1.
        -11    1    3    3    0    0  0.15105123604E+02  0.19540556149E+02 -0.69954011389E+00  0.24708044243E+02  0.51100000000E-03 0.  1.
        -12    1    3    3    0    0  0.41410867923E+01  0.34661235034E+01  0.49713185477E+01  0.73400694864E+01  0.00000000000E+00 0.  1.
</event>
<event>
 7    1  0.1400974E-009  0.4778727E+02  0.7816164E-02  0.1312668E+00
        -11   -1    0    0    0    0  0.00000000000E+00  0.00000000000E+00  0.45593999997E+02  0.45594000000E+02  0.51100000000E-03 0. -1.
         11   -1    0    0    0    0 -0.00000000000E+00 -0.00000000000E+00 -0.45593999997E+02  0.45594000000E+02  0.51100000000E-03 0.  1.
    9900012    2    1    2    0    0 -0.40885285488E+02 -0.14304103546E+02 -0.27220482522E+01  0.47787268504E+02  0.19999988419E+02 0.  0.
        -12    1    1    2    0    0  0.40885285488E+02  0.14304103546E+02  0.27220482522E+01  0.43400731496E+02  0.00000000000E+00 0.  1.
         11    1    3    3    0    0 -0.40938041587E+01  0.16008954963E+01 -0.14917934211E+01  0.46419335144E+01  0.51100000000E-03 0.  1.
        -11    1    3    3    0    0 -0.25023802404E+02 -0.17504640274E+02 -0.43994901832E+01  0.30853826862E+02  0.51100000000E-03 0. -1.
         12    1    3    3    0    0 -0.11767678925E+02  0.15996412317E+01  0.31692353521E+01  0.12291508128E+02  0.00000000000E+00 0. -1.
</event>
<event>
 7    1  0.1496852E-009  0.4778727E+02  0.7816164E-02  0.1312668E+00
        -11   -1    0    0    0    0  0.00000000000E+00  0.00000000000E+00  0.45593999997E+02  0.45594000000E+02  0.51100000000E-03 0.  1.
         11   -1    0    0    0    0 -0.00000000000E+00 -0.00000000000E+00 -0.45593999997E+02  0.45594000000E+02  0.51100000000E-03 0. -1.
    9900012    2    1    2    0    0 -0.29067105073E+02 -0.31352240013E+02 -0.74675142449E+01  0.47787270512E+02  0.19999997570E+02 0.  0.
        -12    1    1    2    0    0  0.29067105073E+02  0.31352240013E+02  0.74675142449E+01  0.43400729488E+02  0.00000000000E+00 0.  1.
         11    1    3    3    0    0 -0.10070648106E+02 -0.15803282462E+02  0.15646142117E+01  0.18804512962E+02  0.51100000000E-03 0. -1.
        -11    1    3    3    0    0  0.52473754342E+00  0.13372731082E+01 -0.15402515677E+01  0.21061870782E+01  0.51100000000E-03 0.  1.
         12    1    3    3    0    0 -0.19521194510E+02 -0.16886230659E+02 -0.74918768889E+01  0.26876570471E+02  0.00000000000E+00 0. -1.
</event>
<event>
 7    1  0.1400974E-009  0.4778728E+02  0.7816164E-02  0.1312668E+00
        -11   -1    0    0    0    0  0.00000000000E+00  0.00000000000E+00  0.45593999997E+02  0.45594000000E+02  0.51100000000E-03 0.  1.
         11   -1    0    0    0    0 -0.00000000000E+00 -0.00000000000E+00 -0.45593999997E+02  0.45594000000E+02  0.51100000000E-03 0. -1.
    9900012    2    1    2    0    0 -0.76150970095E+01  0.14228538076E+02 -0.40288725940E+02  0.47787280696E+02  0.20000044006E+02 0.  0.
        -12    1    1    2    0    0  0.76150970095E+01 -0.14228538076E+02  0.40288725940E+02  0.43400719304E+02  0.00000000000E+00 0.  1.
         11    1    3    3    0    0 -0.28683735229E+01  0.68715575352E+01 -0.77653577785E+01  0.10758561768E+02  0.51100000000E-03 0. -1.
        -11    1    3    3    0    0 -0.55630246730E+01 -0.35592333301E+01 -0.99672062310E+01  0.11956612636E+02  0.51100000000E-03 0.  1.
        -12    1    3    3    0    0  0.81630118637E+00  0.10916213871E+02 -0.22556161930E+02  0.25072106292E+02  0.00000000000E+00 0.  1.
</event>
<event>
 7    1  0.1400974E-009  0.4778727E+02  0.7816164E-02  0.1312668E+00
        -11   -1    0    0    0    0  0.00000000000E+00  0.00000000000E+00  0.45593999997E+02  0.45594000000E+02  0.51100000000E-03 0.  1.
         11   -1    0    0    0    0 -0.00000000000E+00 -0.00000000000E+00 -0.45593999997E+02  0.45594000000E+02  0.51100000000E-03 0. -1.
    9900012    2    1    2    0    0  0.42318306970E+02 -0.84977826131E+01 -0.45356161586E+01  0.47787271572E+02  0.20000002407E+02 0.  0.
        -12    1    1    2    0    0 -0.42318306970E+02  0.84977826131E+01  0.45356161586E+01  0.43400728428E+02  0.00000000000E+00 0.  1.
         11    1    3    3    0    0 -0.81153225349E+00 -0.12942112178E+00 -0.59610118860E+00  0.10152198350E+01  0.51100000000E-03 0.  1.
        -11    1    3    3    0    0  0.32753586624E+01  0.37133742333E+01 -0.13796242347E+00  0.49533984753E+01  0.51100000000E-03 0. -1.
        -12    1    3    3    0    0  0.39854480561E+02 -0.12081735725E+02 -0.38015525466E+01  0.41818653262E+02  0.00000000000E+00 0.  1.
</event>
<event>
 7    1  0.1400974E-009  0.4778727E+02  0.7816164E-02  0.1312668E+00
        -11   -1    0    0    0    0  0.00000000000E+00  0.00000000000E+00  0.45593999997E+02  0.45594000000E+02  0.51100000000E-03 0. -1.
         11   -1    0    0    0    0 -0.00000000000E+00 -0.00000000000E+00 -0.45593999997E+02  0.45594000000E+02  0.51100000000E-03 0.  1.
    9900012    2    1    2    0    0 -0.39169243518E+02 -0.18188599056E+02 -0.43091283553E+01  0.47787270046E+02  0.19999995446E+02 0.  0.
        -12    1    1    2    0    0  0.39169243518E+02  0.18188599056E+02  0.43091283553E+01  0.43400729954E+02  0.00000000000E+00 0.  1.
         11    1    3    3    0    0 -0.11390056294E+01  0.11557936355E+01  0.18041468801E+01  0.24265487791E+01  0.51100000000E-03 0.  1.
        -11    1    3    3    0    0 -0.28652915950E+02 -0.20673229131E+02 -0.33282307808E+01  0.35488718145E+02  0.51100000000E-03 0. -1.
         12    1    3    3    0    0 -0.93773219384E+01  0.13288364399E+01 -0.27850444545E+01  0.98720031217E+01  0.00000000000E+00 0. -1.
</event>
<event>
 7    1  0.1400974E-009  0.4778727E+02  0.7816164E-02  0.1312668E+00
        -11   -1    0    0    0    0  0.00000000000E+00  0.00000000000E+00  0.45593999997E+02  0.45594000000E+02  0.51100000000E-03 0.  1.
         11   -1    0    0    0    0 -0.00000000000E+00 -0.00000000000E+00 -0.45593999997E+02  0.45594000000E+02  0.51100000000E-03 0. -1.
    9900012    2    1    2    0    0 -0.43144399840E+02 -0.26812826372E+01 -0.38723419730E+01  0.47787267904E+02  0.19999985681E+02 0.  0.
        -12    1    1    2    0    0  0.43144399840E+02  0.26812826372E+01  0.38723419730E+01  0.43400732096E+02  0.00000000000E+00 0.  1.
         11    1    3    3    0    0 -0.11692866243E+02 -0.41437385046E+01  0.49183293858E+00  0.12415135508E+02  0.51100000000E-03 0. -1.
        -11    1    3    3    0    0 -0.10241943430E+01  0.38289853278E+01 -0.27229569620E+01  0.48088041727E+01  0.51100000000E-03 0.  1.
        -12    1    3    3    0    0 -0.30427339253E+02 -0.23665294604E+01 -0.16412179495E+01  0.30563328223E+02  0.00000000000E+00 0.  1.
</event>
<event>
 7    1  0.1400974E-009  0.4778727E+02  0.7816164E-02  0.1312668E+00
        -11   -1    0    0    0    0  0.00000000000E+00  0.00000000000E+00  0.45593999997E+02  0.45594000000E+02  0.51100000000E-03 0.  1.
         11   -1    0    0    0    0 -0.00000000000E+00 -0.00000000000E+00 -0.45593999997E+02  0.45594000000E+02  0.51100000000E-03 0. -1.
    9900012    2    1    2    0    0 -0.68681751224E+01  0.25136810602E+02 -0.34707233091E+02  0.47787272983E+02  0.20000008838E+02 0.  0.
        -12    1    1    2    0    0  0.68681751224E+01 -0.25136810602E+02  0.34707233091E+02  0.43400727017E+02  0.00000000000E+00 0.  1.
         11    1    3    3    0    0 -0.45619668394E+01  0.16889096133E+02 -0.29449153480E+02  0.34253550919E+02  0.51100000000E-03 0. -1.
        -11    1    3    3    0    0  0.59922371438E+00  0.93076357350E+01 -0.44669428796E+01  0.10341408559E+02  0.51100000000E-03 0.  1.
        -12    1    3    3    0    0 -0.29054319974E+01 -0.10599212664E+01 -0.79113673217E+00  0.31923135045E+01  0.00000000000E+00 0.  1.
</event>
<event>
 7    1  0.1400974E-009  0.4778727E+02  0.7816164E-02  0.1312668E+00
        -11   -1    0    0    0    0  0.00000000000E+00  0.00000000000E+00  0.45593999997E+02  0.45594000000E+02  0.51100000000E-03 0.  1.
         11   -1    0    0    0    0 -0.00000000000E+00 -0.00000000000E+00 -0.45593999997E+02  0.45594000000E+02  0.51100000000E-03 0. -1.
    9900012    2    1    2    0    0  0.11334101036E+02  0.14221975640E+01 -0.41870500578E+02  0.47787270619E+02  0.19999998059E+02 0.  0.
        -12    1    1    2    0    0 -0.11334101036E+02 -0.14221975640E+01  0.41870500578E+02  0.43400729381E+02  0.00000000000E+00 0.  1.
         11    1    3    3    0    0  0.48311478710E+01  0.29125261293E+01 -0.30761904887E+02  0.31274871554E+02  0.51100000000E-03 0. -1.
        -11    1    3    3    0    0  0.17844229223E+01  0.41622833293E+01 -0.24590935485E+01  0.51532425734E+01  0.51100000000E-03 0.  1.
         12    1    3    3    0    0  0.47185302427E+01 -0.56526118946E+01 -0.86495021423E+01  0.11359156491E+02  0.00000000000E+00 0. -1.
</event>
<event>
 7    1  0.1400974E-009  0.4778727E+02  0.7816164E-02  0.1312668E+00
        -11   -1    0    0    0    0  0.00000000000E+00  0.00000000000E+00  0.45593999997E+02  0.45594000000E+02  0.51100000000E-03 0.  1.
         11   -1    0    0    0    0 -0.00000000000E+00 -0.00000000000E+00 -0.45593999997E+02  0.45594000000E+02  0.51100000000E-03 0. -1.
    9900012    2    1    2    0    0 -0.34994503128E+02  0.63178731439E+01 -0.24881571660E+02  0.47787269839E+02  0.19999994504E+02 0.  0.
        -12    1    1    2    0    0  0.34994503128E+02 -0.63178731439E+01  0.24881571660E+02  0.43400730161E+02  0.00000000000E+00 0.  1.
         11    1    3    3    0    0 -0.22004883164E+02 -0.34089171197E+00 -0.18310176029E+02  0.28628545836E+02  0.51100000000E-03 0. -1.
        -11    1    3    3    0    0 -0.59415948707E+01  0.67294794902E+01 -0.79330109679E+01  0.11980029511E+02  0.51100000000E-03 0.  1.
         12    1    3    3    0    0 -0.70480250937E+01 -0.70714634307E-01  0.13616153370E+01  0.71786944918E+01  0.00000000000E+00 0. -1.
</event>
<event>
 7    1  0.1400974E-009  0.4778727E+02  0.7816164E-02  0.1312668E+00
        -11   -1    0    0    0    0  0.00000000000E+00  0.00000000000E+00  0.45593999997E+02  0.45594000000E+02  0.51100000000E-03 0. -1.
         11   -1    0    0    0    0 -0.00000000000E+00 -0.00000000000E+00 -0.45593999997E+02  0.45594000000E+02  0.51100000000E-03 0.  1.
    9900012    2    1    2    0    0  0.15078733299E+02 -0.33462203932E+02  0.23163244217E+02  0.47787272212E+02  0.20000005322E+02 0.  0.
        -12    1    1    2    0    0 -0.15078733299E+02  0.33462203932E+02 -0.23163244217E+02  0.43400727788E+02  0.00000000000E+00 0.  1.
         11    1    3    3    0    0  0.11519220476E+02 -0.14614662804E+02  0.11319351198E+02  0.21780921033E+02  0.51100000000E-03 0. -1.
        -11    1    3    3    0    0  0.44626912445E+00 -0.19851350371E+02  0.97348166532E+01  0.22114292284E+02  0.51100000000E-03 0.  1.
         12    1    3    3    0    0  0.31132436984E+01  0.10038092430E+01  0.21090763666E+01  0.38920588950E+01  0.00000000000E+00 0. -1.
</event>
<event>
 7    1  0.1400974E-009  0.4778728E+02  0.7816164E-02  0.1312668E+00
        -11   -1    0    0    0    0  0.00000000000E+00  0.00000000000E+00  0.45593999997E+02  0.45594000000E+02  0.51100000000E-03 0.  1.
         11   -1    0    0    0    0 -0.00000000000E+00 -0.00000000000E+00 -0.45593999997E+02  0.45594000000E+02  0.51100000000E-03 0. -1.
    9900012    2    1    2    0    0  0.23141016593E+02  0.27781643879E+02 -0.24006172446E+02  0.47787277643E+02  0.20000030084E+02 0.  0.
        -12    1    1    2    0    0 -0.23141016593E+02 -0.27781643879E+02  0.24006172446E+02  0.43400722357E+02  0.00000000000E+00 0.  1.
         11    1    3    3    0    0 -0.38146857412E+00  0.68568927271E+01 -0.20473693476E+01  0.71661857114E+01  0.51100000000E-03 0. -1.
        -11    1    3    3    0    0  0.16100385120E+02  0.80173867059E+01 -0.64127892714E+01  0.19095150094E+02  0.51100000000E-03 0.  1.
         12    1    3    3    0    0  0.74221000472E+01  0.12907364446E+02 -0.15546013827E+02  0.21525941837E+02  0.00000000000E+00 0. -1.
</event>
<event>
 7    1  0.1400974E-009  0.4778727E+02  0.7816164E-02  0.1312668E+00
        -11   -1    0    0    0    0  0.00000000000E+00  0.00000000000E+00  0.45593999997E+02  0.45594000000E+02  0.51100000000E-03 0. -1.
         11   -1    0    0    0    0 -0.00000000000E+00 -0.00000000000E+00 -0.45593999997E+02  0.45594000000E+02  0.51100000000E-03 0.  1.
    9900012    2    1    2    0    0 -0.45521092190E+01 -0.17104750209E+02  0.39627378814E+02  0.47787270401E+02  0.19999997065E+02 0.  0.
        -12    1    1    2    0    0  0.45521092190E+01  0.17104750209E+02 -0.39627378814E+02  0.43400729599E+02  0.00000000000E+00 0.  1.
         11    1    3    3    0    0 -0.70847399647E+01 -0.15225451162E+02  0.23342440048E+02  0.28755476193E+02  0.51100000000E-03 0. -1.
        -11    1    3    3    0    0 -0.19435141320E+01  0.11983314731E+01  0.49868228177E+00  0.23370771875E+01  0.51100000000E-03 0.  1.
        -12    1    3    3    0    0  0.44761448778E+01 -0.30776305203E+01  0.15786256484E+02  0.16694717020E+02  0.00000000000E+00 0.  1.
</event>
<event>
 7    1  0.1400974E-009  0.4778727E+02  0.7816164E-02  0.1312668E+00
        -11   -1    0    0    0    0  0.00000000000E+00  0.00000000000E+00  0.45593999997E+02  0.45594000000E+02  0.51100000000E-03 0.  1.
         11   -1    0    0    0    0 -0.00000000000E+00 -0.00000000000E+00 -0.45593999997E+02  0.45594000000E+02  0.51100000000E-03 0. -1.
    9900012    2    1    2    0    0 -0.27470198364E+02 -0.33129623324E+02 -0.56071087948E+01  0.47787269490E+02  0.19999992914E+02 0.  0.
        -12    1    1    2    0    0  0.27470198364E+02  0.33129623324E+02  0.56071087948E+01  0.43400730510E+02  0.00000000000E+00 0.  1.
         11    1    3    3    0    0 -0.11715279085E+01  0.10850238919E+01 -0.96701681415E+00  0.18667823297E+01  0.51100000000E-03 0. -1.
        -11    1    3    3    0    0 -0.27690949313E+01  0.89645688418E+00  0.13914810168E+01  0.32261031238E+01  0.51100000000E-03 0.  1.
         12    1    3    3    0    0 -0.23529575524E+02 -0.35111104100E+02 -0.60315729975E+01  0.42694384037E+02  0.00000000000E+00 0. -1.
</event>
<event>
 7    1  0.1400974E-009  0.4778727E+02  0.7816164E-02  0.1312668E+00
        -11   -1    0    0    0    0  0.00000000000E+00  0.00000000000E+00  0.45593999997E+02  0.45594000000E+02  0.51100000000E-03 0. -1.
         11   -1    0    0    0    0 -0.00000000000E+00 -0.00000000000E+00 -0.45593999997E+02  0.45594000000E+02  0.51100000000E-03 0.  1.
    9900012    2    1    2    0    0  0.14932868669E+02 -0.16504887452E+02  0.37258842689E+02  0.47787271492E+02  0.20000002043E+02 0.  0.
        -12    1    1    2    0    0 -0.14932868669E+02  0.16504887452E+02 -0.37258842689E+02  0.43400728508E+02  0.00000000000E+00 0.  1.
         11    1    3    3    0    0  0.47990463600E+01 -0.18698316992E+01  0.83718994703E+00  0.52180459769E+01  0.51100000000E-03 0. -1.
        -11    1    3    3    0    0  0.38910352414E+01 -0.63598527054E+01  0.38564866890E+01  0.83940676390E+01  0.51100000000E-03 0.  1.
         12    1    3    3    0    0  0.62427870674E+01 -0.82752030469E+01  0.32565166053E+02  0.34175157877E+02  0.00000000000E+00 0. -1.
</event>
<event>
 7    1  0.1400974E-009  0.4778727E+02  0.7816164E-02  0.1312668E+00
        -11   -1    0    0    0    0  0.00000000000E+00  0.00000000000E+00  0.45593999997E+02  0.45594000000E+02  0.51100000000E-03 0. -1.
         11   -1    0    0    0    0 -0.00000000000E+00 -0.00000000000E+00 -0.45593999997E+02  0.45594000000E+02  0.51100000000E-03 0.  1.
    9900012    2    1    2    0    0 -0.20566894953E+02  0.33165417482E+02  0.18991600596E+02  0.47787274453E+02  0.20000015542E+02 0.  0.
        -12    1    1    2    0    0  0.20566894953E+02 -0.33165417482E+02 -0.18991600596E+02  0.43400725547E+02  0.00000000000E+00 0.  1.
         11    1    3    3    0    0 -0.47082287616E+01  0.45249297701E+01  0.78059811491E+01  0.10177217176E+02  0.51100000000E-03 0. -1.
        -11    1    3    3    0    0  0.75245560437E-01  0.14307877723E+02  0.27049267716E+01  0.14561512831E+02  0.51100000000E-03 0.  1.
         12    1    3    3    0    0 -0.15933911751E+02  0.14332609990E+02  0.84806926755E+01  0.23048544446E+02  0.00000000000E+00 0. -1.
</event>
<event>
 7    1  0.1400974E-009  0.4778727E+02  0.7816164E-02  0.1312668E+00
        -11   -1    0    0    0    0  0.00000000000E+00  0.00000000000E+00  0.45593999997E+02  0.45594000000E+02  0.51100000000E-03 0.  1.
         11   -1    0    0    0    0 -0.00000000000E+00 -0.00000000000E+00 -0.45593999997E+02  0.45594000000E+02  0.51100000000E-03 0. -1.
    9900012    2    1    2    0    0  0.54949832855E+01 -0.44735012529E+01 -0.42818414079E+02  0.47787266838E+02  0.19999980819E+02 0.  0.
        -12    1    1    2    0    0 -0.54949832855E+01  0.44735012529E+01  0.42818414079E+02  0.43400733162E+02  0.00000000000E+00 0.  1.
         11    1    3    3    0    0  0.17685569267E+00 -0.46280018395E+01 -0.64589758554E+01  0.79478329326E+01  0.51100000000E-03 0. -1.
        -11    1    3    3    0    0  0.54266542085E+01 -0.24732281474E+01 -0.35821667808E+01  0.69568205723E+01  0.51100000000E-03 0.  1.
         12    1    3    3    0    0 -0.10852661569E+00  0.26277287341E+01 -0.32777271443E+02  0.32882613333E+02  0.00000000000E+00 0. -1.
</event>
<event>
 7    1  0.1400974E-009  0.4778727E+02  0.7816164E-02  0.1312668E+00
        -11   -1    0    0    0    0  0.00000000000E+00  0.00000000000E+00  0.45593999997E+02  0.45594000000E+02  0.51100000000E-03 0.  1.
         11   -1    0    0    0    0 -0.00000000000E+00 -0.00000000000E+00 -0.45593999997E+02  0.45594000000E+02  0.51100000000E-03 0. -1.
    9900012    2    1    2    0    0  0.38079717786E+01  0.34619452035E+02 -0.25896261093E+02  0.47787269051E+02  0.19999990913E+02 0.  0.
        -12    1    1    2    0    0 -0.38079717786E+01 -0.34619452035E+02  0.25896261093E+02  0.43400730949E+02  0.00000000000E+00 0.  1.
         11    1    3    3    0    0  0.11613484195E+01  0.13550641261E+02 -0.10330138654E+02  0.17078652570E+02  0.51100000000E-03 0. -1.
        -11    1    3    3    0    0 -0.37808240076E+00  0.15481650807E+02 -0.18142109985E+02  0.23852895274E+02  0.51100000000E-03 0.  1.
        -12    1    3    3    0    0  0.30247057598E+01  0.55871599671E+01  0.25759875457E+01  0.68557212070E+01  0.00000000000E+00 0.  1.
</event>
<event>
 7    1  0.1400974E-009  0.4778727E+02  0.7816164E-02  0.1312668E+00
        -11   -1    0    0    0    0  0.00000000000E+00  0.00000000000E+00  0.45593999997E+02  0.45594000000E+02  0.51100000000E-03 0.  1.
         11   -1    0    0    0    0 -0.00000000000E+00 -0.00000000000E+00 -0.45593999997E+02  0.45594000000E+02  0.51100000000E-03 0. -1.
    9900012    2    1    2    0    0  0.30902572966E+02 -0.29386690496E+02 -0.80670065322E+01  0.47787272027E+02  0.20000004479E+02 0.  0.
        -12    1    1    2    0    0 -0.30902572966E+02  0.29386690496E+02  0.80670065322E+01  0.43400727973E+02  0.00000000000E+00 0.  1.
         11    1    3    3    0    0  0.82708651669E+01 -0.77530794960E+01 -0.71458260090E+01  0.13400756766E+02  0.51100000000E-03 0. -1.
        -11    1    3    3    0    0  0.98237340853E+00 -0.27528772691E+01  0.42906858099E+01  0.51916640639E+01  0.51100000000E-03 0.  1.
         12    1    3    3    0    0  0.21649334391E+02 -0.18880733730E+02 -0.52118663330E+01  0.29194851197E+02  0.00000000000E+00 0. -1.
</event>
<event>
 7    1  0.1400974E-009  0.4778727E+02  0.7816164E-02  0.1312668E+00
        -11   -1    0    0    0    0  0.00000000000E+00  0.00000000000E+00  0.45593999997E+02  0.45594000000E+02  0.51100000000E-03 0.  1.
         11   -1    0    0    0    0 -0.00000000000E+00 -0.00000000000E+00 -0.45593999997E+02  0.45594000000E+02  0.51100000000E-03 0. -1.
    9900012    2    1    2    0    0  0.16230716064E+02 -0.40087458323E+02 -0.36308345117E+01  0.47787269384E+02  0.19999992429E+02 0.  0.
        -12    1    1    2    0    0 -0.16230716064E+02  0.40087458323E+02  0.36308345117E+01  0.43400730616E+02  0.00000000000E+00 0.  1.
         11    1    3    3    0    0 -0.20534235960E+01 -0.15612595686E+02  0.36541102558E+01  0.16165463635E+02  0.51100000000E-03 0. -1.
        -11    1    3    3    0    0  0.84580824883E+01 -0.13788003820E+02 -0.27141551205E+01  0.16401672080E+02  0.51100000000E-03 0.  1.
         12    1    3    3    0    0  0.98260571718E+01 -0.10686858817E+02 -0.45707896470E+01  0.15220133669E+02  0.00000000000E+00 0. -1.
</event>
<event>
 7    1  0.1400974E-009  0.4778727E+02  0.7816164E-02  0.1312668E+00
        -11   -1    0    0    0    0  0.00000000000E+00  0.00000000000E+00  0.45593999997E+02  0.45594000000E+02  0.51100000000E-03 0. -1.
         11   -1    0    0    0    0 -0.00000000000E+00 -0.00000000000E+00 -0.45593999997E+02  0.45594000000E+02  0.51100000000E-03 0.  1.
    9900012    2    1    2    0    0 -0.42085025131E+02 -0.35799573070E+01  0.99828713018E+01  0.47787272425E+02  0.20000006296E+02 0.  0.
        -12    1    1    2    0    0  0.42085025131E+02  0.35799573070E+01 -0.99828713018E+01  0.43400727575E+02  0.00000000000E+00 0.  1.
         11    1    3    3    0    0 -0.18666614427E+02  0.18269115531E+00  0.49177856969E+00  0.18673985023E+02  0.51100000000E-03 0. -1.
        -11    1    3    3    0    0 -0.17174480194E+02  0.15578039483E+01  0.11423588391E+02  0.20685451290E+02  0.51100000000E-03 0.  1.
         12    1    3    3    0    0 -0.62439305098E+01 -0.53204524106E+01 -0.19324956587E+01  0.84278361123E+01  0.00000000000E+00 0. -1.
</event>
<event>
 7    1  0.1400974E-009  0.4778727E+02  0.7816164E-02  0.1312668E+00
        -11   -1    0    0    0    0  0.00000000000E+00  0.00000000000E+00  0.45593999997E+02  0.45594000000E+02  0.51100000000E-03 0.  1.
         11   -1    0    0    0    0 -0.00000000000E+00 -0.00000000000E+00 -0.45593999997E+02  0.45594000000E+02  0.51100000000E-03 0. -1.
    9900012    2    1    2    0    0  0.21250730243E+02 -0.26265351311E+02 -0.27242634709E+02  0.47787270038E+02  0.19999995409E+02 0.  0.
        -12    1    1    2    0    0 -0.21250730243E+02  0.26265351311E+02  0.27242634709E+02  0.43400729962E+02  0.00000000000E+00 0.  1.
         11    1    3    3    0    0  0.13749104884E+02 -0.13956727650E+02 -0.12748444775E+02  0.23374151883E+02  0.51100000000E-03 0. -1.
        -11    1    3    3    0    0  0.51033757290E+01  0.16791757739E+01 -0.49925851498E+01  0.73341653819E+01  0.51100000000E-03 0.  1.
         12    1    3    3    0    0  0.23982496300E+01 -0.13987799436E+02 -0.95016047841E+01  0.17078952773E+02  0.00000000000E+00 0. -1.
</event>
<event>
 7    1  0.1400974E-009  0.4778728E+02  0.7816164E-02  0.1312668E+00
        -11   -1    0    0    0    0  0.00000000000E+00  0.00000000000E+00  0.45593999997E+02  0.45594000000E+02  0.51100000000E-03 0.  1.
         11   -1    0    0    0    0 -0.00000000000E+00 -0.00000000000E+00 -0.45593999997E+02  0.45594000000E+02  0.51100000000E-03 0. -1.
    9900012    2    1    2    0    0 -0.40509278445E+02  0.15568887905E+02  0.48021850768E+00  0.47787279723E+02  0.20000039569E+02 0.  0.
        -12    1    1    2    0    0  0.40509278445E+02 -0.15568887905E+02 -0.48021850768E+00  0.43400720277E+02  0.00000000000E+00 0.  1.
         11    1    3    3    0    0 -0.41173521879E+01  0.37089107335E+01 -0.60735594494E+01  0.82217232084E+01  0.51100000000E-03 0. -1.
        -11    1    3    3    0    0 -0.84554393704E+01  0.33736625005E+01  0.48595021759E+01  0.10319438709E+02  0.51100000000E-03 0.  1.
         12    1    3    3    0    0 -0.27936486887E+02  0.84863146707E+01  0.16942757813E+01  0.29246117805E+02  0.00000000000E+00 0. -1.
</event>
<event>
 7    1  0.1400974E-009  0.4778727E+02  0.7816164E-02  0.1312668E+00
        -11   -1    0    0    0    0  0.00000000000E+00  0.00000000000E+00  0.45593999997E+02  0.45594000000E+02  0.51100000000E-03 0.  1.
         11   -1    0    0    0    0 -0.00000000000E+00 -0.00000000000E+00 -0.45593999997E+02  0.45594000000E+02  0.51100000000E-03 0. -1.
    9900012    2    1    2    0    0  0.10891605428E+01 -0.37330331044E+02 -0.22110703772E+02  0.47787272957E+02  0.20000008722E+02 0.  0.
        -12    1    1    2    0    0 -0.10891605428E+01  0.37330331044E+02  0.22110703772E+02  0.43400727043E+02  0.00000000000E+00 0.  1.
         11    1    3    3    0    0  0.13065840136E+01 -0.26369851234E+02 -0.11805824670E+02  0.28921509509E+02  0.51100000000E-03 0. -1.
        -11    1    3    3    0    0  0.97824063369E+00 -0.71592267485E+01 -0.12409008135E+02  0.14359490435E+02  0.51100000000E-03 0.  1.
         12    1    3    3    0    0 -0.11956641045E+01 -0.38012530608E+01  0.21041290333E+01  0.45062730135E+01  0.00000000000E+00 0. -1.
</event>
<event>
 7    1  0.1400974E-009  0.4778727E+02  0.7816164E-02  0.1312668E+00
        -11   -1    0    0    0    0  0.00000000000E+00  0.00000000000E+00  0.45593999997E+02  0.45594000000E+02  0.51100000000E-03 0.  1.
         11   -1    0    0    0    0 -0.00000000000E+00 -0.00000000000E+00 -0.45593999997E+02  0.45594000000E+02  0.51100000000E-03 0. -1.
    9900012    2    1    2    0    0  0.34819691521E+02  0.25270489760E+02 -0.57109374904E+01  0.47787269852E+02  0.19999994563E+02 0.  0.
        -12    1    1    2    0    0 -0.34819691521E+02 -0.25270489760E+02  0.57109374904E+01  0.43400730148E+02  0.00000000000E+00 0.  1.
         11    1    3    3    0    0  0.19708190630E+02  0.11595817598E+02 -0.86055282545E+01  0.24432168968E+02  0.51100000000E-03 0. -1.
        -11    1    3    3    0    0  0.11053144648E+02  0.10130672519E+02 -0.30835579445E+01  0.15307216015E+02  0.51100000000E-03 0.  1.
        -12    1    3    3    0    0  0.40583562434E+01  0.35439996437E+01  0.59781487087E+01  0.80478848684E+01  0.00000000000E+00 0.  1.
</event>
<event>
 7    1  0.1400974E-009  0.4778727E+02  0.7816164E-02  0.1312668E+00
        -11   -1    0    0    0    0  0.00000000000E+00  0.00000000000E+00  0.45593999997E+02  0.45594000000E+02  0.51100000000E-03 0.  1.
         11   -1    0    0    0    0 -0.00000000000E+00 -0.00000000000E+00 -0.45593999997E+02  0.45594000000E+02  0.51100000000E-03 0. -1.
    9900012    2    1    2    0    0  0.11234720153E+01  0.82145035278E+00 -0.43378408799E+02  0.47787270513E+02  0.19999997579E+02 0.  0.
        -12    1    1    2    0    0 -0.11234720153E+01 -0.82145035278E+00  0.43378408799E+02  0.43400729487E+02  0.00000000000E+00 0.  1.
         11    1    3    3    0    0 -0.39884784272E+01 -0.15721711256E+01 -0.24978206754E+02  0.25343450734E+02  0.51100000000E-03 0. -1.
        -11    1    3    3    0    0  0.62686089022E+01 -0.27711648868E+01 -0.13894547434E+02  0.15493006844E+02  0.51100000000E-03 0.  1.
         12    1    3    3    0    0 -0.11566584597E+01  0.51647863651E+01 -0.45056546103E+01  0.69508129350E+01  0.00000000000E+00 0. -1.
</event>
<event>
 7    1  0.1400974E-009  0.4778727E+02  0.7816164E-02  0.1312668E+00
        -11   -1    0    0    0    0  0.00000000000E+00  0.00000000000E+00  0.45593999997E+02  0.45594000000E+02  0.51100000000E-03 0. -1.
         11   -1    0    0    0    0 -0.00000000000E+00 -0.00000000000E+00 -0.45593999997E+02  0.45594000000E+02  0.51100000000E-03 0.  1.
    9900012    2    1    2    0    0  0.42669090865E+02  0.18307554527E+01 -0.77214095428E+01  0.47787272517E+02  0.20000006713E+02 0.  0.
        -12    1    1    2    0    0 -0.42669090865E+02 -0.18307554527E+01  0.77214095428E+01  0.43400727483E+02  0.00000000000E+00 0.  1.
         11    1    3    3    0    0  0.17187038666E+02  0.52394727132E+01 -0.23627300398E+01  0.18122606488E+02  0.51100000000E-03 0. -1.
        -11    1    3    3    0    0  0.27473245867E+01 -0.53171563639E+01  0.78759319474E+00  0.60365758079E+01  0.51100000000E-03 0.  1.
         12    1    3    3    0    0  0.22734727612E+02  0.19084391034E+01 -0.61462726978E+01  0.23628090221E+02  0.00000000000E+00 0. -1.
</event>
<event>
 7    1  0.1400974E-009  0.4778727E+02  0.7816164E-02  0.1312668E+00
        -11   -1    0    0    0    0  0.00000000000E+00  0.00000000000E+00  0.45593999997E+02  0.45594000000E+02  0.51100000000E-03 0.  1.
         11   -1    0    0    0    0 -0.00000000000E+00 -0.00000000000E+00 -0.45593999997E+02  0.45594000000E+02  0.51100000000E-03 0. -1.
    9900012    2    1    2    0    0  0.39382956524E+01  0.57718057049E+01 -0.42834561993E+02  0.47787267116E+02  0.19999982090E+02 0.  0.
        -12    1    1    2    0    0 -0.39382956524E+01 -0.57718057049E+01  0.42834561993E+02  0.43400732884E+02  0.00000000000E+00 0.  1.
         11    1    3    3    0    0 -0.38123151775E+01  0.30727976123E+00 -0.82704552866E+00  0.39130771053E+01  0.51100000000E-03 0. -1.
        -11    1    3    3    0    0 -0.11441728222E+00  0.85324777926E+00 -0.20448742144E+02  0.20466855611E+02  0.51100000000E-03 0.  1.
         12    1    3    3    0    0  0.78650281122E+01  0.46112781644E+01 -0.21558774320E+02  0.23407334400E+02  0.00000000000E+00 0. -1.
</event>
<event>
 7    1  0.1400974E-009  0.4778728E+02  0.7816164E-02  0.1312668E+00
        -11   -1    0    0    0    0  0.00000000000E+00  0.00000000000E+00  0.45593999997E+02  0.45594000000E+02  0.51100000000E-03 0.  1.
         11   -1    0    0    0    0 -0.00000000000E+00 -0.00000000000E+00 -0.45593999997E+02  0.45594000000E+02  0.51100000000E-03 0. -1.
    9900012    2    1    2    0    0  0.11399125863E+02 -0.76466317393E+01 -0.41172942433E+02  0.47787283002E+02  0.20000054519E+02 0.  0.
        -12    1    1    2    0    0 -0.11399125863E+02  0.76466317393E+01  0.41172942433E+02  0.43400716998E+02  0.00000000000E+00 0.  1.
         11    1    3    3    0    0 -0.13900190167E+01 -0.60059568799E+01 -0.15259895839E+02  0.16458070732E+02  0.51100000000E-03 0. -1.
        -11    1    3    3    0    0  0.21314428651E+01  0.10167335431E+01  0.76184009983E+00  0.24813698603E+01  0.51100000000E-03 0.  1.
         12    1    3    3    0    0  0.10657702014E+02 -0.26574084024E+01 -0.26674886693E+02  0.28847842410E+02  0.00000000000E+00 0. -1.
</event>
<event>
 7    1  0.1400974E-009  0.4778727E+02  0.7816164E-02  0.1312668E+00
        -11   -1    0    0    0    0  0.00000000000E+00  0.00000000000E+00  0.45593999997E+02  0.45594000000E+02  0.51100000000E-03 0. -1.
         11   -1    0    0    0    0 -0.00000000000E+00 -0.00000000000E+00 -0.45593999997E+02  0.45594000000E+02  0.51100000000E-03 0.  1.
    9900012    2    1    2    0    0  0.33655833935E+02 -0.25544926019E+02  0.99178932099E+01  0.47787274098E+02  0.20000013921E+02 0.  0.
        -12    1    1    2    0    0 -0.33655833935E+02  0.25544926019E+02 -0.99178932099E+01  0.43400725902E+02  0.00000000000E+00 0.  1.
         11    1    3    3    0    0  0.31265570512E+02 -0.24082543252E+02  0.45799479224E+01  0.39730098315E+02  0.51100000000E-03 0. -1.
        -11    1    3    3    0    0 -0.18915949258E+00 -0.17136489370E+01 -0.39229050227E+00  0.17681250217E+01  0.51100000000E-03 0.  1.
         12    1    3    3    0    0  0.25794229150E+01  0.25126616997E+00  0.57302357898E+01  0.62890507606E+01  0.00000000000E+00 0. -1.
</event>
<event>
 7    1  0.1400974E-009  0.4778727E+02  0.7816164E-02  0.1312668E+00
        -11   -1    0    0    0    0  0.00000000000E+00  0.00000000000E+00  0.45593999997E+02  0.45594000000E+02  0.51100000000E-03 0.  1.
         11   -1    0    0    0    0 -0.00000000000E+00 -0.00000000000E+00 -0.45593999997E+02  0.45594000000E+02  0.51100000000E-03 0. -1.
    9900012    2    1    2    0    0 -0.21208007755E+02 -0.26561302950E+02 -0.26987792023E+02  0.47787270449E+02  0.19999997284E+02 0.  0.
        -12    1    1    2    0    0  0.21208007755E+02  0.26561302950E+02  0.26987792023E+02  0.43400729551E+02  0.00000000000E+00 0.  1.
         11    1    3    3    0    0  0.33999573858E+01 -0.50862136981E+01 -0.26223533900E+01  0.66562765546E+01  0.51100000000E-03 0. -1.
        -11    1    3    3    0    0 -0.11753651971E+02 -0.13454698622E+02 -0.14923912582E+02  0.23278754620E+02  0.51100000000E-03 0.  1.
        -12    1    3    3    0    0 -0.12854313170E+02 -0.80203906303E+01 -0.94415260504E+01  0.17852239274E+02  0.00000000000E+00 0.  1.
</event>
<event>
 7    1  0.1400974E-009  0.4778726E+02  0.7816164E-02  0.1312668E+00
        -11   -1    0    0    0    0  0.00000000000E+00  0.00000000000E+00  0.45593999997E+02  0.45594000000E+02  0.51100000000E-03 0.  1.
         11   -1    0    0    0    0 -0.00000000000E+00 -0.00000000000E+00 -0.45593999997E+02  0.45594000000E+02  0.51100000000E-03 0. -1.
    9900012    2    1    2    0    0  0.11122014414E+02 -0.21096362381E+02 -0.36261111113E+02  0.47787263952E+02  0.19999967662E+02 0.  0.
        -12    1    1    2    0    0 -0.11122014414E+02  0.21096362381E+02  0.36261111113E+02  0.43400736048E+02  0.00000000000E+00 0.  1.
         11    1    3    3    0    0  0.61678037401E+01 -0.71399162299E+01 -0.52982538184E+01  0.10820891855E+02  0.51100000000E-03 0.  1.
        -11    1    3    3    0    0  0.80069012026E+01 -0.91350265991E+01 -0.28032754845E+02  0.30551506056E+02  0.51100000000E-03 0. -1.
         12    1    3    3    0    0 -0.30526905286E+01 -0.48214195523E+01 -0.29301024503E+01  0.64148660416E+01  0.00000000000E+00 0. -1.
</event>
<event>
 7    1  0.1400974E-009  0.4778727E+02  0.7816164E-02  0.1312668E+00
        -11   -1    0    0    0    0  0.00000000000E+00  0.00000000000E+00  0.45593999997E+02  0.45594000000E+02  0.51100000000E-03 0. -1.
         11   -1    0    0    0    0 -0.00000000000E+00 -0.00000000000E+00 -0.45593999997E+02  0.45594000000E+02  0.51100000000E-03 0.  1.
    9900012    2    1    2    0    0 -0.36107440396E+02  0.19291790377E+02 -0.14411901651E+02  0.47787270316E+02  0.19999996679E+02 0.  0.
        -12    1    1    2    0    0  0.36107440396E+02 -0.19291790377E+02  0.14411901651E+02  0.43400729684E+02  0.00000000000E+00 0.  1.
         11    1    3    3    0    0 -0.10015568234E+02  0.80071827805E+01 -0.11663053393E+02  0.17333591602E+02  0.51100000000E-03 0. -1.
        -11    1    3    3    0    0 -0.13113945810E+02  0.11328065072E+02 -0.21476865180E+01  0.17461763675E+02  0.51100000000E-03 0.  1.
        -12    1    3    3    0    0 -0.12977926352E+02 -0.43457475268E-01 -0.60116174019E+00  0.12991915039E+02  0.00000000000E+00 0.  1.
</event>
<event>
 7    1  0.1400974E-009  0.4778727E+02  0.7816164E-02  0.1312668E+00
        -11   -1    0    0    0    0  0.00000000000E+00  0.00000000000E+00  0.45593999997E+02  0.45594000000E+02  0.51100000000E-03 0.  1.
         11   -1    0    0    0    0 -0.00000000000E+00 -0.00000000000E+00 -0.45593999997E+02  0.45594000000E+02  0.51100000000E-03 0. -1.
    9900012    2    1    2    0    0 -0.14156748299E+02  0.97678778134E+01 -0.39847183863E+02  0.47787273955E+02  0.20000013270E+02 0.  0.
        -12    1    1    2    0    0  0.14156748299E+02 -0.97678778134E+01  0.39847183863E+02  0.43400726045E+02  0.00000000000E+00 0.  1.
         11    1    3    3    0    0 -0.10788258411E+02  0.13950302110E+01 -0.25958549673E+02  0.28145673384E+02  0.51100000000E-03 0. -1.
        -11    1    3    3    0    0 -0.58780001988E+01  0.43952002463E+01 -0.12890804091E+02  0.14833795938E+02  0.51100000000E-03 0.  1.
        -12    1    3    3    0    0  0.25095103103E+01  0.39776473560E+01 -0.99783009887E+00  0.48078046334E+01  0.00000000000E+00 0.  1.
</event>
<event>
 7    1  0.1400974E-009  0.4778727E+02  0.7816164E-02  0.1312668E+00
        -11   -1    0    0    0    0  0.00000000000E+00  0.00000000000E+00  0.45593999997E+02  0.45594000000E+02  0.51100000000E-03 0.  1.
         11   -1    0    0    0    0 -0.00000000000E+00 -0.00000000000E+00 -0.45593999997E+02  0.45594000000E+02  0.51100000000E-03 0. -1.
    9900012    2    1    2    0    0  0.19844038159E+02 -0.22017388340E+02 -0.31702874517E+02  0.47787268526E+02  0.19999988520E+02 0.  0.
        -12    1    1    2    0    0 -0.19844038159E+02  0.22017388340E+02  0.31702874517E+02  0.43400731474E+02  0.00000000000E+00 0.  1.
         11    1    3    3    0    0  0.16488843010E+01 -0.23912557325E+01  0.52011827970E+00  0.29508383050E+01  0.51100000000E-03 0. -1.
        -11    1    3    3    0    0  0.47858001333E+00  0.13589391992E+01  0.98349402160E+00  0.17444240677E+01  0.51100000000E-03 0.  1.
         12    1    3    3    0    0  0.17716573845E+02 -0.20985071806E+02 -0.33206486819E+02  0.43092006154E+02  0.00000000000E+00 0. -1.
</event>
<event>
 7    1  0.1400974E-009  0.4778727E+02  0.7816164E-02  0.1312668E+00
        -11   -1    0    0    0    0  0.00000000000E+00  0.00000000000E+00  0.45593999997E+02  0.45594000000E+02  0.51100000000E-03 0.  1.
         11   -1    0    0    0    0 -0.00000000000E+00 -0.00000000000E+00 -0.45593999997E+02  0.45594000000E+02  0.51100000000E-03 0. -1.
    9900012    2    1    2    0    0 -0.11928477294E+02 -0.27698736717E+02 -0.31210811551E+02  0.47787270237E+02  0.19999996320E+02 0.  0.
        -12    1    1    2    0    0  0.11928477294E+02  0.27698736717E+02  0.31210811551E+02  0.43400729763E+02  0.00000000000E+00 0.  1.
         11    1    3    3    0    0  0.10189408968E+01 -0.12163834484E+02 -0.13327571460E+02  0.18072666411E+02  0.51100000000E-03 0. -1.
        -11    1    3    3    0    0 -0.34025140282E+01  0.14198303249E+01 -0.56006829349E+01  0.67052717664E+01  0.51100000000E-03 0.  1.
         12    1    3    3    0    0 -0.95449041622E+01 -0.16954732558E+02 -0.12282557156E+02  0.23009332060E+02  0.00000000000E+00 0. -1.
</event>
<event>
 7    1  0.1400974E-009  0.4778727E+02  0.7816164E-02  0.1312668E+00
        -11   -1    0    0    0    0  0.00000000000E+00  0.00000000000E+00  0.45593999997E+02  0.45594000000E+02  0.51100000000E-03 0. -1.
         11   -1    0    0    0    0 -0.00000000000E+00 -0.00000000000E+00 -0.45593999997E+02  0.45594000000E+02  0.51100000000E-03 0.  1.
    9900012    2    1    2    0    0 -0.85026510548E+01  0.40004778517E+02  0.14523982472E+02  0.47787269061E+02  0.19999990959E+02 0.  0.
        -12    1    1    2    0    0  0.85026510548E+01 -0.40004778517E+02 -0.14523982472E+02  0.43400730939E+02  0.00000000000E+00 0.  1.
         11    1    3    3    0    0 -0.15388516191E+01  0.16705362370E+02  0.91498297052E+01  0.19109070624E+02  0.51100000000E-03 0. -1.
        -11    1    3    3    0    0 -0.73372492135E+01  0.36835770661E+01 -0.42111742407E+00  0.82207850093E+01  0.51100000000E-03 0.  1.
        -12    1    3    3    0    0  0.37344977778E+00  0.19615839081E+02  0.57952701910E+01  0.20457413428E+02  0.00000000000E+00 0.  1.
</event>
<event>
 7    1  0.1400974E-009  0.4778727E+02  0.7816164E-02  0.1312668E+00
        -11   -1    0    0    0    0  0.00000000000E+00  0.00000000000E+00  0.45593999997E+02  0.45594000000E+02  0.51100000000E-03 0.  1.
         11   -1    0    0    0    0 -0.00000000000E+00 -0.00000000000E+00 -0.45593999997E+02  0.45594000000E+02  0.51100000000E-03 0. -1.
    9900012    2    1    2    0    0  0.16295746977E+02  0.29394121806E+02 -0.27460117061E+02  0.47787265037E+02  0.19999972612E+02 0.  0.
        -12    1    1    2    0    0 -0.16295746977E+02 -0.29394121806E+02  0.27460117061E+02  0.43400734963E+02  0.00000000000E+00 0.  1.
         11    1    3    3    0    0  0.10834342503E+02  0.19136279650E+02 -0.18716782905E+02  0.28877294521E+02  0.51100000000E-03 0. -1.
        -11    1    3    3    0    0  0.12630103214E+00  0.98318942576E+01 -0.15657013834E+01  0.99565816286E+01  0.51100000000E-03 0.  1.
        -12    1    3    3    0    0  0.53351034423E+01  0.42594789850E+00 -0.71776327729E+01  0.89533888877E+01  0.00000000000E+00 0.  1.
</event>
<event>
 7    1  0.1400974E-009  0.4778727E+02  0.7816164E-02  0.1312668E+00
        -11   -1    0    0    0    0  0.00000000000E+00  0.00000000000E+00  0.45593999997E+02  0.45594000000E+02  0.51100000000E-03 0. -1.
         11   -1    0    0    0    0 -0.00000000000E+00 -0.00000000000E+00 -0.45593999997E+02  0.45594000000E+02  0.51100000000E-03 0.  1.
    9900012    2    1    2    0    0  0.42691508059E+02  0.28773558463E+01  0.72649378958E+01  0.47787270056E+02  0.19999995496E+02 0.  0.
        -12    1    1    2    0    0 -0.42691508059E+02 -0.28773558463E+01 -0.72649378958E+01  0.43400729944E+02  0.00000000000E+00 0.  1.
         11    1    3    3    0    0  0.13865832639E+02 -0.18294487789E+01  0.81948708448E+01  0.16210000186E+02  0.51100000000E-03 0. -1.
        -11    1    3    3    0    0  0.32683367834E+00  0.24742725904E+01 -0.16328836630E+01  0.29824745469E+01  0.51100000000E-03 0.  1.
        -12    1    3    3    0    0  0.28498841741E+02  0.22325320348E+01  0.70295071399E+00  0.28594795323E+02  0.00000000000E+00 0.  1.
</event>
<event>
 7    1  0.1400974E-009  0.4778727E+02  0.7816164E-02  0.1312668E+00
        -11   -1    0    0    0    0  0.00000000000E+00  0.00000000000E+00  0.45593999997E+02  0.45594000000E+02  0.51100000000E-03 0.  1.
         11   -1    0    0    0    0 -0.00000000000E+00 -0.00000000000E+00 -0.45593999997E+02  0.45594000000E+02  0.51100000000E-03 0. -1.
    9900012    2    1    2    0    0 -0.57339160360E+01  0.90497078897E+01 -0.42057677485E+02  0.47787271418E+02  0.20000001704E+02 0.  0.
        -12    1    1    2    0    0  0.57339160360E+01 -0.90497078897E+01  0.42057677485E+02  0.43400728582E+02  0.00000000000E+00 0.  1.
         11    1    3    3    0    0 -0.82504471165E+01  0.24764393143E+01 -0.31483565267E+02  0.32640733930E+02  0.51100000000E-03 0. -1.
        -11    1    3    3    0    0 -0.59737813063E-01 -0.13823221656E+01  0.31297058319E+00  0.14185675955E+01  0.51100000000E-03 0.  1.
         12    1    3    3    0    0  0.25762688936E+01  0.79555907411E+01 -0.10887082801E+02  0.13727969892E+02  0.00000000000E+00 0. -1.
</event>
<event>
 7    1  0.1400974E-009  0.4778727E+02  0.7816164E-02  0.1312668E+00
        -11   -1    0    0    0    0  0.00000000000E+00  0.00000000000E+00  0.45593999997E+02  0.45594000000E+02  0.51100000000E-03 0.  1.
         11   -1    0    0    0    0 -0.00000000000E+00 -0.00000000000E+00 -0.45593999997E+02  0.45594000000E+02  0.51100000000E-03 0. -1.
    9900012    2    1    2    0    0 -0.37239872047E+02 -0.20398173293E+02 -0.89849598168E+01  0.47787273662E+02  0.20000011933E+02 0.  0.
        -12    1    1    2    0    0  0.37239872047E+02  0.20398173293E+02  0.89849598168E+01  0.43400726338E+02  0.00000000000E+00 0.  1.
         11    1    3    3    0    0 -0.20128931779E+02 -0.16302341676E+02 -0.73092630657E+01  0.26914040304E+02  0.51100000000E-03 0. -1.
        -11    1    3    3    0    0 -0.58006403359E+01 -0.48780245662E+01  0.35739685655E+01  0.83794870692E+01  0.51100000000E-03 0.  1.
         12    1    3    3    0    0 -0.11310299933E+02  0.78219294908E+00 -0.52496653167E+01  0.12493746288E+02  0.00000000000E+00 0. -1.
</event>
<event>
 7    1  0.1400974E-009  0.4778727E+02  0.7816164E-02  0.1312668E+00
        -11   -1    0    0    0    0  0.00000000000E+00  0.00000000000E+00  0.45593999997E+02  0.45594000000E+02  0.51100000000E-03 0.  1.
         11   -1    0    0    0    0 -0.00000000000E+00 -0.00000000000E+00 -0.45593999997E+02  0.45594000000E+02  0.51100000000E-03 0. -1.
    9900012    2    1    2    0    0 -0.26253937174E+02  0.19269340890E+02 -0.28688784103E+02  0.47787273637E+02  0.20000011822E+02 0.  0.
        -12    1    1    2    0    0  0.26253937174E+02 -0.19269340890E+02  0.28688784103E+02  0.43400726363E+02  0.00000000000E+00 0.  1.
         11    1    3    3    0    0 -0.60979671540E+01  0.12441173722E+02 -0.61812745140E+01  0.15171557661E+02  0.51100000000E-03 0. -1.
        -11    1    3    3    0    0 -0.42289834054E+01 -0.27059421333E+01 -0.42286911803E+01  0.65641642904E+01  0.51100000000E-03 0.  1.
        -12    1    3    3    0    0 -0.15926986615E+02  0.95341093008E+01 -0.18278818409E+02  0.26051551686E+02  0.00000000000E+00 0.  1.
</event>
<event>
 7    1  0.1400974E-009  0.4778727E+02  0.7816164E-02  0.1312668E+00
        -11   -1    0    0    0    0  0.00000000000E+00  0.00000000000E+00  0.45593999997E+02  0.45594000000E+02  0.51100000000E-03 0. -1.
         11   -1    0    0    0    0 -0.00000000000E+00 -0.00000000000E+00 -0.45593999997E+02  0.45594000000E+02  0.51100000000E-03 0.  1.
    9900012    2    1    2    0    0  0.34794276298E+02 -0.10080634987E+00  0.25941698197E+02  0.47787268089E+02  0.19999986527E+02 0.  0.
        -12    1    1    2    0    0 -0.34794276298E+02  0.10080634987E+00 -0.25941698197E+02  0.43400731911E+02  0.00000000000E+00 0.  1.
         11    1    3    3    0    0  0.19966351522E+02  0.15922004280E+01  0.16513437122E+02  0.25959273895E+02  0.51100000000E-03 0. -1.
        -11    1    3    3    0    0  0.13989068119E+02  0.59810728903E+00  0.21679545241E+01  0.14168690351E+02  0.51100000000E-03 0.  1.
        -12    1    3    3    0    0  0.83885665660E+00 -0.22911140669E+01  0.72603065505E+01  0.76593038434E+01  0.00000000000E+00 0.  1.
</event>
<event>
 7    1  0.1400974E-009  0.4778727E+02  0.7816164E-02  0.1312668E+00
        -11   -1    0    0    0    0  0.00000000000E+00  0.00000000000E+00  0.45593999997E+02  0.45594000000E+02  0.51100000000E-03 0. -1.
         11   -1    0    0    0    0 -0.00000000000E+00 -0.00000000000E+00 -0.45593999997E+02  0.45594000000E+02  0.51100000000E-03 0.  1.
    9900012    2    1    2    0    0  0.37450749842E+02  0.45054764236E+01  0.21465451930E+02  0.47787267194E+02  0.19999982443E+02 0.  0.
        -12    1    1    2    0    0 -0.37450749842E+02 -0.45054764236E+01 -0.21465451930E+02  0.43400732806E+02  0.00000000000E+00 0.  1.
         11    1    3    3    0    0  0.14906614178E+01  0.84151585510E+00 -0.21050192452E+01  0.27131764927E+01  0.51100000000E-03 0. -1.
        -11    1    3    3    0    0  0.25061589971E+01 -0.26426988233E+00 -0.16348132716E+01  0.30038785234E+01  0.51100000000E-03 0.  1.
         12    1    3    3    0    0  0.33453929428E+02  0.39282304508E+01  0.25205284447E+02  0.42070212178E+02  0.00000000000E+00 0. -1.
</event>
<event>
 7    1  0.1400974E-009  0.4778727E+02  0.7816164E-02  0.1312668E+00
        -11   -1    0    0    0    0  0.00000000000E+00  0.00000000000E+00  0.45593999997E+02  0.45594000000E+02  0.51100000000E-03 0.  1.
         11   -1    0    0    0    0 -0.00000000000E+00 -0.00000000000E+00 -0.45593999997E+02  0.45594000000E+02  0.51100000000E-03 0. -1.
    9900012    2    1    2    0    0 -0.21854993761E+02  0.34686760146E+02 -0.14241184785E+02  0.47787269294E+02  0.19999992021E+02 0.  0.
        -12    1    1    2    0    0  0.21854993761E+02 -0.34686760146E+02  0.14241184785E+02  0.43400730706E+02  0.00000000000E+00 0.  1.
         11    1    3    3    0    0 -0.18839317876E+01  0.13835019546E+02 -0.10845412182E+02  0.17679930160E+02  0.51100000000E-03 0. -1.
        -11    1    3    3    0    0 -0.20140779761E+01  0.22738739687E+00  0.12325139662E+01  0.23721943555E+01  0.51100000000E-03 0.  1.
         12    1    3    3    0    0 -0.17956983997E+02  0.20624353203E+02 -0.46282865692E+01  0.27735144779E+02  0.00000000000E+00 0. -1.
</event>
<event>
 7    1  0.1400974E-009  0.4778727E+02  0.7816164E-02  0.1312668E+00
        -11   -1    0    0    0    0  0.00000000000E+00  0.00000000000E+00  0.45593999997E+02  0.45594000000E+02  0.51100000000E-03 0.  1.
         11   -1    0    0    0    0 -0.00000000000E+00 -0.00000000000E+00 -0.45593999997E+02  0.45594000000E+02  0.51100000000E-03 0. -1.
    9900012    2    1    2    0    0 -0.14768094442E+02  0.40727827833E+02 -0.26020724277E+01  0.47787270117E+02  0.19999995771E+02 0.  0.
        -12    1    1    2    0    0  0.14768094442E+02 -0.40727827833E+02  0.26020724277E+01  0.43400729883E+02  0.00000000000E+00 0.  1.
         11    1    3    3    0    0  0.12024433032E+01 -0.89660044773E+00 -0.94010693459E+00  0.17701874392E+01  0.51100000000E-03 0.  1.
        -11    1    3    3    0    0 -0.25269335578E+01  0.21941020421E+02  0.42028059459E+00  0.22090052204E+02  0.51100000000E-03 0. -1.
         12    1    3    3    0    0 -0.13443604188E+02  0.19683407860E+02 -0.20822460877E+01  0.23927030474E+02  0.00000000000E+00 0. -1.
</event>
<event>
 7    1  0.1400974E-009  0.4778727E+02  0.7816164E-02  0.1312668E+00
        -11   -1    0    0    0    0  0.00000000000E+00  0.00000000000E+00  0.45593999997E+02  0.45594000000E+02  0.51100000000E-03 0.  1.
         11   -1    0    0    0    0 -0.00000000000E+00 -0.00000000000E+00 -0.45593999997E+02  0.45594000000E+02  0.51100000000E-03 0. -1.
    9900012    2    1    2    0    0 -0.34710273168E+02 -0.17664146074E+02 -0.19151972194E+02  0.47787272369E+02  0.20000006041E+02 0.  0.
        -12    1    1    2    0    0  0.34710273168E+02  0.17664146074E+02  0.19151972194E+02  0.43400727631E+02  0.00000000000E+00 0.  1.
         11    1    3    3    0    0 -0.59025061935E+01 -0.78773486136E+01 -0.80254495776E+01  0.12700395337E+02  0.51100000000E-03 0. -1.
        -11    1    3    3    0    0 -0.29407449884E+02 -0.80688632642E+01 -0.12343503173E+02  0.32897822631E+02  0.51100000000E-03 0.  1.
         12    1    3    3    0    0  0.59968290929E+00 -0.17179341965E+01  0.12169805559E+01  0.21890544006E+01  0.00000000000E+00 0. -1.
</event>
<event>
 7    1  0.1400974E-009  0.4778727E+02  0.7816164E-02  0.1312668E+00
        -11   -1    0    0    0    0  0.00000000000E+00  0.00000000000E+00  0.45593999997E+02  0.45594000000E+02  0.51100000000E-03 0.  1.
         11   -1    0    0    0    0 -0.00000000000E+00 -0.00000000000E+00 -0.45593999997E+02  0.45594000000E+02  0.51100000000E-03 0. -1.
    9900012    2    1    2    0    0  0.11629626207E+02 -0.56533659704E+01 -0.41429629994E+02  0.47787274269E+02  0.20000014702E+02 0.  0.
        -12    1    1    2    0    0 -0.11629626207E+02  0.56533659704E+01  0.41429629994E+02  0.43400725731E+02  0.00000000000E+00 0.  1.
         11    1    3    3    0    0  0.56163580355E+01  0.41556674987E+01 -0.12158972762E+02  0.14023325883E+02  0.51100000000E-03 0. -1.
        -11    1    3    3    0    0 -0.26135631774E+01 -0.66777596379E+01 -0.89616003658E+01  0.11477520100E+02  0.51100000000E-03 0.  1.
         12    1    3    3    0    0  0.86268313488E+01 -0.31312738312E+01 -0.20309056867E+02  0.22286428286E+02  0.00000000000E+00 0. -1.
</event>
<event>
 7    1  0.1400974E-009  0.4778727E+02  0.7816164E-02  0.1312668E+00
        -11   -1    0    0    0    0  0.00000000000E+00  0.00000000000E+00  0.45593999997E+02  0.45594000000E+02  0.51100000000E-03 0.  1.
         11   -1    0    0    0    0 -0.00000000000E+00 -0.00000000000E+00 -0.45593999997E+02  0.45594000000E+02  0.51100000000E-03 0. -1.
    9900012    2    1    2    0    0 -0.23872470233E+02 -0.19554122697E+02 -0.30518269995E+02  0.47787270133E+02  0.19999995845E+02 0.  0.
        -12    1    1    2    0    0  0.23872470233E+02  0.19554122697E+02  0.30518269995E+02  0.43400729867E+02  0.00000000000E+00 0.  1.
         11    1    3    3    0    0 -0.13992924178E+02 -0.15069328158E+02 -0.11537410583E+02  0.23579618771E+02  0.51100000000E-03 0. -1.
        -11    1    3    3    0    0  0.13406413764E+01 -0.33556562586E+01 -0.60811614707E+01  0.70737736266E+01  0.51100000000E-03 0.  1.
        -12    1    3    3    0    0 -0.11220187431E+02 -0.11291382806E+01 -0.12899697942E+02  0.17133877735E+02  0.00000000000E+00 0.  1.
</event>
<event>
 7    1  0.1400974E-009  0.4778727E+02  0.7816164E-02  0.1312668E+00
        -11   -1    0    0    0    0  0.00000000000E+00  0.00000000000E+00  0.45593999997E+02  0.45594000000E+02  0.51100000000E-03 0.  1.
         11   -1    0    0    0    0 -0.00000000000E+00 -0.00000000000E+00 -0.45593999997E+02  0.45594000000E+02  0.51100000000E-03 0. -1.
    9900012    2    1    2    0    0 -0.20230734477E+02  0.26241407904E+02 -0.28030861788E+02  0.47787270526E+02  0.19999997637E+02 0.  0.
        -12    1    1    2    0    0  0.20230734477E+02 -0.26241407904E+02  0.28030861788E+02  0.43400729474E+02  0.00000000000E+00 0.  1.
         11    1    3    3    0    0 -0.12024815529E+02  0.16461712021E+02 -0.22149742085E+02  0.30103076684E+02  0.51100000000E-03 0. -1.
        -11    1    3    3    0    0  0.30811468914E+00 -0.20648957638E+01 -0.63020405756E+00  0.21807995306E+01  0.51100000000E-03 0.  1.
         12    1    3    3    0    0 -0.85140336369E+01  0.11844591647E+02 -0.52509156454E+01  0.15503394311E+02  0.00000000000E+00 0. -1.
</event>
<event>
 7    1  0.1400974E-009  0.4778727E+02  0.7816164E-02  0.1312668E+00
        -11   -1    0    0    0    0  0.00000000000E+00  0.00000000000E+00  0.45593999997E+02  0.45594000000E+02  0.51100000000E-03 0.  1.
         11   -1    0    0    0    0 -0.00000000000E+00 -0.00000000000E+00 -0.45593999997E+02  0.45594000000E+02  0.51100000000E-03 0. -1.
    9900012    2    1    2    0    0  0.12898633090E+02 -0.28189503312E+02 -0.30374337877E+02  0.47787271503E+02  0.20000002091E+02 0.  0.
        -12    1    1    2    0    0 -0.12898633090E+02  0.28189503312E+02  0.30374337877E+02  0.43400728497E+02  0.00000000000E+00 0.  1.
         11    1    3    3    0    0  0.25334716928E+01 -0.10045496853E+02 -0.45368083358E+01  0.11309868079E+02  0.51100000000E-03 0. -1.
        -11    1    3    3    0    0  0.97953538170E+01 -0.32477534845E+01 -0.14260479170E+02  0.17602787436E+02  0.51100000000E-03 0.  1.
        -12    1    3    3    0    0  0.56980757970E+00 -0.14896252975E+02 -0.11577050372E+02  0.18874615988E+02  0.00000000000E+00 0.  1.
</event>
<event>
 7    1  0.1400974E-009  0.4778727E+02  0.7816164E-02  0.1312668E+00
        -11   -1    0    0    0    0  0.00000000000E+00  0.00000000000E+00  0.45593999997E+02  0.45594000000E+02  0.51100000000E-03 0. -1.
         11   -1    0    0    0    0 -0.00000000000E+00 -0.00000000000E+00 -0.45593999997E+02  0.45594000000E+02  0.51100000000E-03 0.  1.
    9900012    2    1    2    0    0  0.29064722838E+01 -0.29530182477E+02  0.31672448599E+02  0.47787271221E+02  0.20000000807E+02 0.  0.
        -12    1    1    2    0    0 -0.29064722838E+01  0.29530182477E+02 -0.31672448599E+02  0.43400728779E+02  0.00000000000E+00 0.  1.
         11    1    3    3    0    0  0.51398253559E+01 -0.18924905153E+02  0.30319742504E+02  0.36108954921E+02  0.51100000000E-03 0. -1.
        -11    1    3    3    0    0 -0.18749480976E+01 -0.12871576174E+01  0.30615100636E+00  0.22947622536E+01  0.51100000000E-03 0.  1.
         12    1    3    3    0    0 -0.35840497450E+00 -0.93181197066E+01  0.10465550885E+01  0.93835540466E+01  0.00000000000E+00 0. -1.
</event>
<event>
 7    1  0.1400974E-009  0.4778727E+02  0.7816164E-02  0.1312668E+00
        -11   -1    0    0    0    0  0.00000000000E+00  0.00000000000E+00  0.45593999997E+02  0.45594000000E+02  0.51100000000E-03 0. -1.
         11   -1    0    0    0    0 -0.00000000000E+00 -0.00000000000E+00 -0.45593999997E+02  0.45594000000E+02  0.51100000000E-03 0.  1.
    9900012    2    1    2    0    0  0.20805153651E+02 -0.33165816400E+02 -0.18729584137E+02  0.47787272841E+02  0.20000008193E+02 0.  0.
        -12    1    1    2    0    0 -0.20805153651E+02  0.33165816400E+02  0.18729584137E+02  0.43400727159E+02  0.00000000000E+00 0.  1.
         11    1    3    3    0    0  0.59504887470E+01 -0.12232410630E+02 -0.96409026660E+01  0.16672947868E+02  0.51100000000E-03 0. -1.
        -11    1    3    3    0    0  0.80096182638E+01 -0.43129907172E+00 -0.37261241211E+01  0.88444335515E+01  0.51100000000E-03 0.  1.
        -12    1    3    3    0    0  0.68450466405E+01 -0.20502106699E+02 -0.53625573497E+01  0.22269891422E+02  0.00000000000E+00 0.  1.
</event>
<event>
 7    1  0.1400974E-009  0.4778727E+02  0.7816164E-02  0.1312668E+00
        -11   -1    0    0    0    0  0.00000000000E+00  0.00000000000E+00  0.45593999997E+02  0.45594000000E+02  0.51100000000E-03 0. -1.
         11   -1    0    0    0    0 -0.00000000000E+00 -0.00000000000E+00 -0.45593999997E+02  0.45594000000E+02  0.51100000000E-03 0.  1.
    9900012    2    1    2    0    0  0.12898776033E+02  0.40456032226E+02  0.89752069701E+01  0.47787270665E+02  0.19999998272E+02 0.  0.
        -12    1    1    2    0    0 -0.12898776033E+02 -0.40456032226E+02 -0.89752069701E+01  0.43400729335E+02  0.00000000000E+00 0.  1.
         11    1    3    3    0    0  0.28619191152E+00  0.71533723404E+01  0.58950547801E+01  0.92738510217E+01  0.51100000000E-03 0. -1.
        -11    1    3    3    0    0 -0.84845301237E+00  0.16272360999E+02  0.40278036559E+01  0.16784898199E+02  0.51100000000E-03 0.  1.
        -12    1    3    3    0    0  0.13461037133E+02  0.17030298886E+02 -0.94765146591E+00  0.21728521445E+02  0.00000000000E+00 0.  1.
</event>
<event>
 7    1  0.1400974E-009  0.4778727E+02  0.7816164E-02  0.1312668E+00
        -11   -1    0    0    0    0  0.00000000000E+00  0.00000000000E+00  0.45593999997E+02  0.45594000000E+02  0.51100000000E-03 0. -1.
         11   -1    0    0    0    0 -0.00000000000E+00 -0.00000000000E+00 -0.45593999997E+02  0.45594000000E+02  0.51100000000E-03 0.  1.
    9900012    2    1    2    0    0  0.20763997974E+02  0.14060515564E+01  0.38085466002E+02  0.47787270589E+02  0.19999997923E+02 0.  0.
        -12    1    1    2    0    0 -0.20763997974E+02 -0.14060515564E+01 -0.38085466002E+02  0.43400729411E+02  0.00000000000E+00 0.  1.
         11    1    3    3    0    0  0.91050054789E+01  0.48396538681E+01  0.14838026090E+02  0.18069045156E+02  0.51100000000E-03 0. -1.
        -11    1    3    3    0    0  0.82053218281E+01 -0.51430645320E+01  0.23920441827E+02  0.25806316214E+02  0.51100000000E-03 0.  1.
        -12    1    3    3    0    0  0.34536706671E+01  0.17094622204E+01 -0.67300191511E+00  0.39119092190E+01  0.00000000000E+00 0.  1.
</event>
<event>
 7    1  0.1400974E-009  0.4778727E+02  0.7816164E-02  0.1312668E+00
        -11   -1    0    0    0    0  0.00000000000E+00  0.00000000000E+00  0.45593999997E+02  0.45594000000E+02  0.51100000000E-03 0.  1.
         11   -1    0    0    0    0 -0.00000000000E+00 -0.00000000000E+00 -0.45593999997E+02  0.45594000000E+02  0.51100000000E-03 0. -1.
    9900012    2    1    2    0    0 -0.20850435973E+02 -0.33308457808E+02 -0.18423607191E+02  0.47787270239E+02  0.19999996329E+02 0.  0.
        -12    1    1    2    0    0  0.20850435973E+02  0.33308457808E+02  0.18423607191E+02  0.43400729761E+02  0.00000000000E+00 0.  1.
         11    1    3    3    0    0 -0.11492622912E+02 -0.13906646744E+02 -0.44129350135E+01  0.18572808101E+02  0.51100000000E-03 0. -1.
        -11    1    3    3    0    0  0.15020450835E+01 -0.13985290237E+01  0.19395865169E+01  0.28238305509E+01  0.51100000000E-03 0.  1.
        -12    1    3    3    0    0 -0.10859858144E+02 -0.18003282040E+02 -0.15950258695E+02  0.26390631587E+02  0.00000000000E+00 0.  1.
</event>
<event>
 7    1  0.1400974E-009  0.4778727E+02  0.7816164E-02  0.1312668E+00
        -11   -1    0    0    0    0  0.00000000000E+00  0.00000000000E+00  0.45593999997E+02  0.45594000000E+02  0.51100000000E-03 0. -1.
         11   -1    0    0    0    0 -0.00000000000E+00 -0.00000000000E+00 -0.45593999997E+02  0.45594000000E+02  0.51100000000E-03 0.  1.
    9900012    2    1    2    0    0  0.25422659744E+02 -0.37228683759E+01  0.34977873636E+02  0.47787273952E+02  0.20000013256E+02 0.  0.
        -12    1    1    2    0    0 -0.25422659744E+02  0.37228683759E+01 -0.34977873636E+02  0.43400726048E+02  0.00000000000E+00 0.  1.
         11    1    3    3    0    0  0.95619096616E+01 -0.10191440122E+02  0.16152521279E+02  0.21358827497E+02  0.51100000000E-03 0. -1.
        -11    1    3    3    0    0  0.40416661233E+01  0.23413545310E+01  0.12230942888E+01  0.48283502350E+01  0.51100000000E-03 0.  1.
         12    1    3    3    0    0  0.11819083959E+02  0.41272172151E+01  0.17602258069E+02  0.21600096219E+02  0.00000000000E+00 0. -1.
</event>
<event>
 7    1  0.1400974E-009  0.4778727E+02  0.7816164E-02  0.1312668E+00
        -11   -1    0    0    0    0  0.00000000000E+00  0.00000000000E+00  0.45593999997E+02  0.45594000000E+02  0.51100000000E-03 0.  1.
         11   -1    0    0    0    0 -0.00000000000E+00 -0.00000000000E+00 -0.45593999997E+02  0.45594000000E+02  0.51100000000E-03 0. -1.
    9900012    2    1    2    0    0 -0.11646883747E+02  0.41780018659E+02 -0.15502751262E+01  0.47787271744E+02  0.20000003191E+02 0.  0.
        -12    1    1    2    0    0  0.11646883747E+02 -0.41780018659E+02  0.15502751262E+01  0.43400728256E+02  0.00000000000E+00 0.  1.
         11    1    3    3    0    0 -0.12016196574E+02  0.26142196069E+02 -0.62460078983E+01  0.29441739255E+02  0.51100000000E-03 0. -1.
        -11    1    3    3    0    0  0.10599398143E+01  0.64540833388E+01 -0.21339094451E+01  0.68798425807E+01  0.51100000000E-03 0.  1.
        -12    1    3    3    0    0 -0.69062698713E+00  0.91837392507E+01  0.68296422171E+01  0.11465689908E+02  0.00000000000E+00 0.  1.
</event>
<event>
 7    1  0.1400974E-009  0.4778730E+02  0.7816164E-02  0.1312668E+00
        -11   -1    0    0    0    0  0.00000000000E+00  0.00000000000E+00  0.45593999997E+02  0.45594000000E+02  0.51100000000E-03 0.  1.
         11   -1    0    0    0    0 -0.00000000000E+00 -0.00000000000E+00 -0.45593999997E+02  0.45594000000E+02  0.51100000000E-03 0. -1.
    9900012    2    1    2    0    0  0.17446124301E+02  0.27476098398E+02 -0.28710926953E+02  0.47787302278E+02  0.20000142405E+02 0.  0.
        -12    1    1    2    0    0 -0.17446124301E+02 -0.27476098398E+02  0.28710926953E+02  0.43400697722E+02  0.00000000000E+00 0.  1.
         11    1    3    3    0    0  0.65210908291E+01  0.28193223519E+01 -0.12631873292E+02  0.14492668051E+02  0.51100000000E-03 0. -1.
        -11    1    3    3    0    0 -0.13345544269E+01  0.91682736812E+01 -0.66624368015E+01  0.11411675697E+02  0.51100000000E-03 0.  1.
        -12    1    3    3    0    0  0.12259587898E+02  0.15488502365E+02 -0.94166168594E+01  0.21882958530E+02  0.00000000000E+00 0.  1.
</event>
<event>
 7    1  0.1400974E-009  0.4778727E+02  0.7816164E-02  0.1312668E+00
        -11   -1    0    0    0    0  0.00000000000E+00  0.00000000000E+00  0.45593999997E+02  0.45594000000E+02  0.51100000000E-03 0.  1.
         11   -1    0    0    0    0 -0.00000000000E+00 -0.00000000000E+00 -0.45593999997E+02  0.45594000000E+02  0.51100000000E-03 0. -1.
    9900012    2    1    2    0    0 -0.84845826103E+01  0.40249082433E+02 -0.13843655192E+02  0.47787267657E+02  0.19999984557E+02 0.  0.
        -12    1    1    2    0    0  0.84845826103E+01 -0.40249082433E+02  0.13843655192E+02  0.43400732343E+02  0.00000000000E+00 0.  1.
         11    1    3    3    0    0 -0.79461348785E+01  0.18053647086E+02 -0.40251062272E+01  0.20131485614E+02  0.51100000000E-03 0. -1.
        -11    1    3    3    0    0 -0.93065613786E+00  0.18792187298E+02 -0.17576596965E+01  0.18897137142E+02  0.51100000000E-03 0.  1.
        -12    1    3    3    0    0  0.39220840600E+00  0.34032480493E+01 -0.80608892681E+01  0.87586449016E+01  0.00000000000E+00 0.  1.
</event>
<event>
 7    1  0.1400974E-009  0.4778727E+02  0.7816164E-02  0.1312668E+00
        -11   -1    0    0    0    0  0.00000000000E+00  0.00000000000E+00  0.45593999997E+02  0.45594000000E+02  0.51100000000E-03 0.  1.
         11   -1    0    0    0    0 -0.00000000000E+00 -0.00000000000E+00 -0.45593999997E+02  0.45594000000E+02  0.51100000000E-03 0. -1.
    9900012    2    1    2    0    0 -0.37065824381E+02  0.22311138858E+02 -0.34585160350E+01  0.47787267433E+02  0.19999983535E+02 0.  0.
        -12    1    1    2    0    0  0.37065824381E+02 -0.22311138858E+02  0.34585160350E+01  0.43400732567E+02  0.00000000000E+00 0.  1.
         11    1    3    3    0    0 -0.11060022704E+02  0.93085550453E+01 -0.42661824042E+01  0.15072279583E+02  0.51100000000E-03 0. -1.
        -11    1    3    3    0    0 -0.20762837916E+02  0.24426094902E+01  0.14592078246E+00  0.20906531816E+02  0.51100000000E-03 0.  1.
        -12    1    3    3    0    0 -0.52429637604E+01  0.10559974323E+02  0.66174558679E+00  0.11808456034E+02  0.00000000000E+00 0.  1.
</event>
<event>
 7    1  0.1400974E-009  0.4778727E+02  0.7816164E-02  0.1312668E+00
        -11   -1    0    0    0    0  0.00000000000E+00  0.00000000000E+00  0.45593999997E+02  0.45594000000E+02  0.51100000000E-03 0.  1.
         11   -1    0    0    0    0 -0.00000000000E+00 -0.00000000000E+00 -0.45593999997E+02  0.45594000000E+02  0.51100000000E-03 0. -1.
    9900012    2    1    2    0    0  0.32945969585E+02 -0.12377030564E+02 -0.25396762643E+02  0.47787270165E+02  0.19999995991E+02 0.  0.
        -12    1    1    2    0    0 -0.32945969585E+02  0.12377030564E+02  0.25396762643E+02  0.43400729835E+02  0.00000000000E+00 0.  1.
         11    1    3    3    0    0 -0.12831602474E+01  0.12010074934E+01 -0.50401207952E+00  0.18283729535E+01  0.51100000000E-03 0. -1.
        -11    1    3    3    0    0  0.94210295292E+01  0.15820519585E+01 -0.65452298852E+01  0.11580100185E+02  0.51100000000E-03 0.  1.
         12    1    3    3    0    0  0.24808100303E+02 -0.15160090016E+02 -0.18347520678E+02  0.34378797026E+02  0.00000000000E+00 0. -1.
</event>
<event>
 7    1  0.1400974E-009  0.4778727E+02  0.7816164E-02  0.1312668E+00
        -11   -1    0    0    0    0  0.00000000000E+00  0.00000000000E+00  0.45593999997E+02  0.45594000000E+02  0.51100000000E-03 0. -1.
         11   -1    0    0    0    0 -0.00000000000E+00 -0.00000000000E+00 -0.45593999997E+02  0.45594000000E+02  0.51100000000E-03 0.  1.
    9900012    2    1    2    0    0  0.27354971653E+02 -0.31651384309E+02  0.11555035702E+02  0.47787268982E+02  0.19999990596E+02 0.  0.
        -12    1    1    2    0    0 -0.27354971653E+02  0.31651384309E+02 -0.11555035702E+02  0.43400731018E+02  0.00000000000E+00 0.  1.
         11    1    3    3    0    0  0.15956226811E+02 -0.17807249031E+02  0.24834650013E+01  0.24038862094E+02  0.51100000000E-03 0. -1.
        -11    1    3    3    0    0  0.53503999371E+01 -0.13819164198E+02  0.96321054956E+01  0.17674092202E+02  0.51100000000E-03 0.  1.
         12    1    3    3    0    0  0.60483449049E+01 -0.24971079410E-01 -0.56053479491E+00  0.60743146857E+01  0.00000000000E+00 0. -1.
</event>
<event>
 7    1  0.1400974E-009  0.4778728E+02  0.7816164E-02  0.1312668E+00
        -11   -1    0    0    0    0  0.00000000000E+00  0.00000000000E+00  0.45593999997E+02  0.45594000000E+02  0.51100000000E-03 0.  1.
         11   -1    0    0    0    0 -0.00000000000E+00 -0.00000000000E+00 -0.45593999997E+02  0.45594000000E+02  0.51100000000E-03 0. -1.
    9900012    2    1    2    0    0 -0.39583723411E+02  0.84849960282E+01  0.15644680423E+02  0.47787281778E+02  0.20000048938E+02 0.  0.
        -12    1    1    2    0    0  0.39583723411E+02 -0.84849960282E+01 -0.15644680423E+02  0.43400718222E+02  0.00000000000E+00 0.  1.
         11    1    3    3    0    0 -0.91443307286E+01 -0.19677345960E+01  0.10622069957E+02  0.14153414229E+02  0.51100000000E-03 0. -1.
        -11    1    3    3    0    0 -0.23210110171E+02  0.65462671360E+01  0.71359062158E+01  0.25149234290E+02  0.51100000000E-03 0.  1.
        -12    1    3    3    0    0 -0.72292825111E+01  0.39064634882E+01 -0.21132957502E+01  0.84846332589E+01  0.00000000000E+00 0.  1.
</event>
<event>
 7    1  0.1400974E-009  0.4778727E+02  0.7816164E-02  0.1312668E+00
        -11   -1    0    0    0    0  0.00000000000E+00  0.00000000000E+00  0.45593999997E+02  0.45594000000E+02  0.51100000000E-03 0. -1.
         11   -1    0    0    0    0 -0.00000000000E+00 -0.00000000000E+00 -0.45593999997E+02  0.45594000000E+02  0.51100000000E-03 0.  1.
    9900012    2    1    2    0    0  0.28826382157E+02 -0.30797720133E+02 -0.10206044629E+02  0.47787271658E+02  0.20000002797E+02 0.  0.
        -12    1    1    2    0    0 -0.28826382157E+02  0.30797720133E+02  0.10206044629E+02  0.43400728342E+02  0.00000000000E+00 0.  1.
         11    1    3    3    0    0  0.34548016744E+01 -0.99224232955E+01 -0.78749977217E+00  0.10536142312E+02  0.51100000000E-03 0. -1.
        -11    1    3    3    0    0  0.65635691666E+01  0.15161437623E+01 -0.92081064040E+00  0.67990458602E+01  0.51100000000E-03 0.  1.
         12    1    3    3    0    0  0.18808011316E+02 -0.22391440600E+02 -0.84977342161E+01  0.30452083486E+02  0.00000000000E+00 0. -1.
</event>
<event>
 7    1  0.1400974E-009  0.4778727E+02  0.7816164E-02  0.1312668E+00
        -11   -1    0    0    0    0  0.00000000000E+00  0.00000000000E+00  0.45593999997E+02  0.45594000000E+02  0.51100000000E-03 0.  1.
         11   -1    0    0    0    0 -0.00000000000E+00 -0.00000000000E+00 -0.45593999997E+02  0.45594000000E+02  0.51100000000E-03 0. -1.
    9900012    2    1    2    0    0 -0.31043597789E+02 -0.24774125872E+02 -0.17497449538E+02  0.47787274007E+02  0.20000013506E+02 0.  0.
        -12    1    1    2    0    0  0.31043597789E+02  0.24774125872E+02  0.17497449538E+02  0.43400725993E+02  0.00000000000E+00 0.  1.
         11    1    3    3    0    0 -0.89804164237E+01 -0.16226084083E+02 -0.46455098348E+01  0.19118432093E+02  0.51100000000E-03 0. -1.
        -11    1    3    3    0    0 -0.67511100510E+01 -0.76730591896E+01 -0.41129870635E+01  0.11016804759E+02  0.51100000000E-03 0.  1.
        -12    1    3    3    0    0 -0.15312071314E+02 -0.87498259979E+00 -0.87389526393E+01  0.17652037155E+02  0.00000000000E+00 0.  1.
</event>
<event>
 7    1  0.2039182E-009  0.4778727E+02  0.7816164E-02  0.1312668E+00
        -11   -1    0    0    0    0  0.00000000000E+00  0.00000000000E+00  0.45593999997E+02  0.45594000000E+02  0.51100000000E-03 0.  1.
         11   -1    0    0    0    0 -0.00000000000E+00 -0.00000000000E+00 -0.45593999997E+02  0.45594000000E+02  0.51100000000E-03 0. -1.
    9900012    2    1    2    0    0 -0.35068661718E+01 -0.42915972552E+02  0.54354749857E+01  0.47787271910E+02  0.20000003948E+02 0.  0.
        -12    1    1    2    0    0  0.35068661718E+01  0.42915972552E+02 -0.54354749857E+01  0.43400728090E+02  0.00000000000E+00 0.  1.
         11    1    3    3    0    0 -0.48260199429E+01 -0.24099468313E+02  0.12523261386E+02  0.27584541277E+02  0.51100000000E-03 0. -1.
        -11    1    3    3    0    0 -0.17002827189E+00 -0.58749820432E+01 -0.25684627144E+01  0.64141503410E+01  0.51100000000E-03 0.  1.
         12    1    3    3    0    0  0.14891820429E+01 -0.12941522196E+02 -0.45193236861E+01  0.13788580292E+02  0.00000000000E+00 0. -1.
</event>
<event>
 7    1  0.1400974E-009  0.4778727E+02  0.7816164E-02  0.1312668E+00
        -11   -1    0    0    0    0  0.00000000000E+00  0.00000000000E+00  0.45593999997E+02  0.45594000000E+02  0.51100000000E-03 0.  1.
         11   -1    0    0    0    0 -0.00000000000E+00 -0.00000000000E+00 -0.45593999997E+02  0.45594000000E+02  0.51100000000E-03 0. -1.
    9900012    2    1    2    0    0 -0.35457546785E+02  0.23791585969E+02 -0.77682684709E+01  0.47787272103E+02  0.20000004827E+02 0.  0.
        -12    1    1    2    0    0  0.35457546785E+02 -0.23791585969E+02  0.77682684709E+01  0.43400727897E+02  0.00000000000E+00 0.  1.
         11    1    3    3    0    0 -0.84400013631E+01  0.13336381436E+02 -0.57296012786E+01  0.16790503980E+02  0.51100000000E-03 0. -1.
        -11    1    3    3    0    0 -0.11119065839E+01  0.30312140510E+01  0.19240671976E+01  0.37585409026E+01  0.51100000000E-03 0.  1.
        -12    1    3    3    0    0 -0.25905638838E+02  0.74239904816E+01 -0.39627343899E+01  0.27238227221E+02  0.00000000000E+00 0.  1.
</event>
<event>
 7    1  0.1400974E-009  0.4778727E+02  0.7816164E-02  0.1312668E+00
        -11   -1    0    0    0    0  0.00000000000E+00  0.00000000000E+00  0.45593999997E+02  0.45594000000E+02  0.51100000000E-03 0.  1.
         11   -1    0    0    0    0 -0.00000000000E+00 -0.00000000000E+00 -0.45593999997E+02  0.45594000000E+02  0.51100000000E-03 0. -1.
    9900012    2    1    2    0    0  0.82753145891E+01 -0.12896877855E+02 -0.40605578546E+02  0.47787270755E+02  0.19999998678E+02 0.  0.
        -12    1    1    2    0    0 -0.82753145891E+01  0.12896877855E+02  0.40605578546E+02  0.43400729245E+02  0.00000000000E+00 0.  1.
         11    1    3    3    0    0  0.77863868122E+01 -0.54871908664E+01 -0.14171854296E+02  0.17075670928E+02  0.51100000000E-03 0. -1.
        -11    1    3    3    0    0 -0.34539952724E-02 -0.35391200891E+01 -0.26572719989E+02  0.26807365234E+02  0.51100000000E-03 0.  1.
        -12    1    3    3    0    0  0.49238177217E+00 -0.38705668997E+01  0.13899573876E+00  0.39042345921E+01  0.00000000000E+00 0.  1.
</event>
<event>
 7    1  0.1400974E-009  0.4778727E+02  0.7816164E-02  0.1312668E+00
        -11   -1    0    0    0    0  0.00000000000E+00  0.00000000000E+00  0.45593999997E+02  0.45594000000E+02  0.51100000000E-03 0.  1.
         11   -1    0    0    0    0 -0.00000000000E+00 -0.00000000000E+00 -0.45593999997E+02  0.45594000000E+02  0.51100000000E-03 0. -1.
    9900012    2    1    2    0    0 -0.26967649220E+02 -0.33902931025E+02  0.26382732915E+01  0.47787270484E+02  0.19999997445E+02 0.  0.
        -12    1    1    2    0    0  0.26967649220E+02  0.33902931025E+02 -0.26382732915E+01  0.43400729516E+02  0.00000000000E+00 0.  1.
         11    1    3    3    0    0  0.12157343455E+01 -0.21147918060E+01  0.18121734616E+01  0.30388035964E+01  0.51100000000E-03 0. -1.
        -11    1    3    3    0    0 -0.41795219957E+00  0.11761402150E+01  0.10765019240E+01  0.16482859278E+01  0.51100000000E-03 0.  1.
         12    1    3    3    0    0 -0.27765431366E+02 -0.32964279434E+02 -0.25040209407E+00  0.43100180960E+02  0.00000000000E+00 0. -1.
</event>
<event>
 7    1  0.1400974E-009  0.4778727E+02  0.7816164E-02  0.1312668E+00
        -11   -1    0    0    0    0  0.00000000000E+00  0.00000000000E+00  0.45593999997E+02  0.45594000000E+02  0.51100000000E-03 0.  1.
         11   -1    0    0    0    0 -0.00000000000E+00 -0.00000000000E+00 -0.45593999997E+02  0.45594000000E+02  0.51100000000E-03 0. -1.
    9900012    2    1    2    0    0  0.20402009964E+02  0.15459098697E+02 -0.35048506197E+02  0.47787268097E+02  0.19999986562E+02 0.  0.
        -12    1    1    2    0    0 -0.20402009964E+02 -0.15459098697E+02  0.35048506197E+02  0.43400731903E+02  0.00000000000E+00 0.  1.
         11    1    3    3    0    0  0.15750050084E+01 -0.33007078246E+00 -0.30275161256E+01  0.34286209546E+01  0.51100000000E-03 0. -1.
        -11    1    3    3    0    0  0.12237626122E+01  0.67485984538E+01 -0.17000580354E+00  0.68607636788E+01  0.51100000000E-03 0.  1.
        -12    1    3    3    0    0  0.17603242343E+02  0.90405710252E+01 -0.31850984268E+02  0.37497883464E+02  0.00000000000E+00 0.  1.
</event>
<event>
 7    1  0.1400974E-009  0.4778727E+02  0.7816164E-02  0.1312668E+00
        -11   -1    0    0    0    0  0.00000000000E+00  0.00000000000E+00  0.45593999997E+02  0.45594000000E+02  0.51100000000E-03 0.  1.
         11   -1    0    0    0    0 -0.00000000000E+00 -0.00000000000E+00 -0.45593999997E+02  0.45594000000E+02  0.51100000000E-03 0. -1.
    9900012    2    1    2    0    0  0.93223760381E+01 -0.35343928367E+02 -0.23399219800E+02  0.47787268962E+02  0.19999990504E+02 0.  0.
        -12    1    1    2    0    0 -0.93223760381E+01  0.35343928367E+02  0.23399219800E+02  0.43400731038E+02  0.00000000000E+00 0.  1.
         11    1    3    3    0    0 -0.35953490159E+01 -0.63157369545E+01 -0.82922603870E+01  0.11026180228E+02  0.51100000000E-03 0. -1.
        -11    1    3    3    0    0  0.43068978373E+01 -0.64703555256E+01  0.85040272871E+00  0.78190827256E+01  0.51100000000E-03 0.  1.
         12    1    3    3    0    0  0.86108272168E+01 -0.22557835887E+02 -0.15957362142E+02  0.28942006008E+02  0.00000000000E+00 0. -1.
</event>
<event>
 7    1  0.1400974E-009  0.4778727E+02  0.7816164E-02  0.1312668E+00
        -11   -1    0    0    0    0  0.00000000000E+00  0.00000000000E+00  0.45593999997E+02  0.45594000000E+02  0.51100000000E-03 0.  1.
         11   -1    0    0    0    0 -0.00000000000E+00 -0.00000000000E+00 -0.45593999997E+02  0.45594000000E+02  0.51100000000E-03 0. -1.
    9900012    2    1    2    0    0  0.23982450147E+02 -0.30155000313E+02 -0.19978516716E+02  0.47787273173E+02  0.20000009703E+02 0.  0.
        -12    1    1    2    0    0 -0.23982450147E+02  0.30155000313E+02  0.19978516716E+02  0.43400726827E+02  0.00000000000E+00 0.  1.
         11    1    3    3    0    0 -0.20977631509E+01 -0.89245561085E+00 -0.32787705200E+01  0.39934225470E+01  0.51100000000E-03 0. -1.
        -11    1    3    3    0    0 -0.50743147704E+00  0.13835738363E+00  0.36158792867E+00  0.63825979098E+00  0.51100000000E-03 0.  1.
         12    1    3    3    0    0  0.26587644775E+02 -0.29400902086E+02 -0.17061334125E+02  0.43155590835E+02  0.00000000000E+00 0. -1.
</event>
<event>
 7    1  0.1400974E-009  0.4778727E+02  0.7816164E-02  0.1312668E+00
        -11   -1    0    0    0    0  0.00000000000E+00  0.00000000000E+00  0.45593999997E+02  0.45594000000E+02  0.51100000000E-03 0. -1.
         11   -1    0    0    0    0 -0.00000000000E+00 -0.00000000000E+00 -0.45593999997E+02  0.45594000000E+02  0.51100000000E-03 0.  1.
    9900012    2    1    2    0    0  0.32946250362E+02 -0.28243635493E+02 -0.68180270790E+00  0.47787271737E+02  0.20000003160E+02 0.  0.
        -12    1    1    2    0    0 -0.32946250362E+02  0.28243635493E+02  0.68180270790E+00  0.43400728263E+02  0.00000000000E+00 0.  1.
         11    1    3    3    0    0  0.66025290734E+01 -0.30864693907E+01 -0.24924553937E+01  0.77027279334E+01  0.51100000000E-03 0. -1.
        -11    1    3    3    0    0  0.40906829843E+01 -0.86691628466E+01  0.70479896491E+01  0.11897992692E+02  0.51100000000E-03 0.  1.
        -12    1    3    3    0    0  0.22253038305E+02 -0.16488003256E+02 -0.52373369633E+01  0.28186551112E+02  0.00000000000E+00 0.  1.
</event>
<event>
 7    1  0.1400974E-009  0.4778727E+02  0.7816164E-02  0.1312668E+00
        -11   -1    0    0    0    0  0.00000000000E+00  0.00000000000E+00  0.45593999997E+02  0.45594000000E+02  0.51100000000E-03 0. -1.
         11   -1    0    0    0    0 -0.00000000000E+00 -0.00000000000E+00 -0.45593999997E+02  0.45594000000E+02  0.51100000000E-03 0.  1.
    9900012    2    1    2    0    0  0.26596821377E+02 -0.12571448013E+02  0.31909106774E+02  0.47787270656E+02  0.19999998229E+02 0.  0.
        -12    1    1    2    0    0 -0.26596821377E+02  0.12571448013E+02 -0.31909106774E+02  0.43400729344E+02  0.00000000000E+00 0.  1.
         11    1    3    3    0    0 -0.26177931828E+01 -0.12838921114E+00  0.25754046149E+01  0.36745114137E+01  0.51100000000E-03 0.  1.
        -11    1    3    3    0    0  0.10660924435E+02 -0.41226860515E+01  0.52077715376E+01  0.12560761710E+02  0.51100000000E-03 0. -1.
        -12    1    3    3    0    0  0.18553690125E+02 -0.83203727503E+01  0.24125930621E+02  0.31551997532E+02  0.00000000000E+00 0.  1.
</event>
<event>
 7    1  0.1400974E-009  0.4778727E+02  0.7816164E-02  0.1312668E+00
        -11   -1    0    0    0    0  0.00000000000E+00  0.00000000000E+00  0.45593999997E+02  0.45594000000E+02  0.51100000000E-03 0.  1.
         11   -1    0    0    0    0 -0.00000000000E+00 -0.00000000000E+00 -0.45593999997E+02  0.45594000000E+02  0.51100000000E-03 0. -1.
    9900012    2    1    2    0    0  0.40829543733E+02  0.14590645191E+02 -0.19194776265E+01  0.47787274627E+02  0.20000016335E+02 0.  0.
        -12    1    1    2    0    0 -0.40829543733E+02 -0.14590645191E+02  0.19194776265E+01  0.43400725373E+02  0.00000000000E+00 0.  1.
         11    1    3    3    0    0  0.64323255640E+01  0.50273259639E+01 -0.17241912191E+01  0.83439591400E+01  0.51100000000E-03 0. -1.
        -11    1    3    3    0    0  0.14702852375E+02  0.99694523504E+00  0.76183319846E+01  0.16589356535E+02  0.51100000000E-03 0.  1.
        -12    1    3    3    0    0  0.19694365794E+02  0.85663739924E+01 -0.78136183921E+01  0.22853958952E+02  0.00000000000E+00 0.  1.
</event>
<event>
 7    1  0.1400974E-009  0.4778726E+02  0.7816164E-02  0.1312668E+00
        -11   -1    0    0    0    0  0.00000000000E+00  0.00000000000E+00  0.45593999997E+02  0.45594000000E+02  0.51100000000E-03 0. -1.
         11   -1    0    0    0    0 -0.00000000000E+00 -0.00000000000E+00 -0.45593999997E+02  0.45594000000E+02  0.51100000000E-03 0.  1.
    9900012    2    1    2    0    0  0.40104067858E+01  0.43213267166E+02 -0.39260562935E+00  0.47787263130E+02  0.19999963913E+02 0.  0.
        -12    1    1    2    0    0 -0.40104067858E+01 -0.43213267166E+02  0.39260562935E+00  0.43400736870E+02  0.00000000000E+00 0.  1.
         11    1    3    3    0    0 -0.33003179830E+01  0.27257523983E+01 -0.15449150054E+01  0.45506689136E+01  0.51100000000E-03 0. -1.
        -11    1    3    3    0    0  0.55504718447E+01  0.13516603786E+02  0.59661968287E+01  0.15782959813E+02  0.51100000000E-03 0.  1.
        -12    1    3    3    0    0  0.17602529242E+01  0.26970910982E+02 -0.48138874526E+01  0.27453634403E+02  0.00000000000E+00 0.  1.
</event>
<event>
 7    1  0.1400974E-009  0.4778727E+02  0.7816164E-02  0.1312668E+00
        -11   -1    0    0    0    0  0.00000000000E+00  0.00000000000E+00  0.45593999997E+02  0.45594000000E+02  0.51100000000E-03 0. -1.
         11   -1    0    0    0    0 -0.00000000000E+00 -0.00000000000E+00 -0.45593999997E+02  0.45594000000E+02  0.51100000000E-03 0.  1.
    9900012    2    1    2    0    0  0.19253386614E+02 -0.12583541678E+02  0.36804684330E+02  0.47787271827E+02  0.20000003569E+02 0.  0.
        -12    1    1    2    0    0 -0.19253386614E+02  0.12583541678E+02 -0.36804684330E+02  0.43400728173E+02  0.00000000000E+00 0.  1.
         11    1    3    3    0    0  0.13986476561E+02 -0.11715015718E+02  0.16939999146E+02  0.24896318828E+02  0.51100000000E-03 0. -1.
        -11    1    3    3    0    0  0.72574773691E+01  0.19994968267E+01  0.10690827306E+02  0.13075272620E+02  0.51100000000E-03 0.  1.
        -12    1    3    3    0    0 -0.19905673164E+01 -0.28680227872E+01  0.91738578783E+01  0.98156803799E+01  0.00000000000E+00 0.  1.
</event>
<event>
 7    1  0.1400974E-009  0.4778728E+02  0.7816164E-02  0.1312668E+00
        -11   -1    0    0    0    0  0.00000000000E+00  0.00000000000E+00  0.45593999997E+02  0.45594000000E+02  0.51100000000E-03 0.  1.
         11   -1    0    0    0    0 -0.00000000000E+00 -0.00000000000E+00 -0.45593999997E+02  0.45594000000E+02  0.51100000000E-03 0. -1.
    9900012    2    1    2    0    0 -0.41492127489E+02 -0.12671719990E+02  0.12053829513E+01  0.47787284809E+02  0.20000062758E+02 0.  0.
        -12    1    1    2    0    0  0.41492127489E+02  0.12671719990E+02 -0.12053829513E+01  0.43400715191E+02  0.00000000000E+00 0.  1.
         11    1    3    3    0    0 -0.32576394247E+02 -0.72123672801E+01 -0.24211999481E+01  0.33452980635E+02  0.51100000000E-03 0.  1.
        -11    1    3    3    0    0 -0.62420265869E+01 -0.75069614595E+01  0.55920421104E+00  0.97790631390E+01  0.51100000000E-03 0. -1.
        -12    1    3    3    0    0 -0.26737066548E+01  0.20476087497E+01  0.30673786884E+01  0.45552410349E+01  0.00000000000E+00 0.  1.
</event>
<event>
 7    1  0.1400974E-009  0.4778727E+02  0.7816164E-02  0.1312668E+00
        -11   -1    0    0    0    0  0.00000000000E+00  0.00000000000E+00  0.45593999997E+02  0.45594000000E+02  0.51100000000E-03 0.  1.
         11   -1    0    0    0    0 -0.00000000000E+00 -0.00000000000E+00 -0.45593999997E+02  0.45594000000E+02  0.51100000000E-03 0. -1.
    9900012    2    1    2    0    0 -0.28482208830E+02  0.32431357582E+02  0.45381075878E+01  0.47787267346E+02  0.19999983135E+02 0.  0.
        -12    1    1    2    0    0  0.28482208830E+02 -0.32431357582E+02 -0.45381075878E+01  0.43400732654E+02  0.00000000000E+00 0.  1.
         11    1    3    3    0    0 -0.20710698097E+02  0.17559656462E+02  0.79096989427E+00  0.27164318220E+02  0.51100000000E-03 0. -1.
        -11    1    3    3    0    0 -0.71080178859E+01  0.32286572697E+01 -0.13022596552E+01  0.79147979445E+01  0.51100000000E-03 0.  1.
        -12    1    3    3    0    0 -0.66349284777E+00  0.11643043850E+02  0.50493973488E+01  0.12708151181E+02  0.00000000000E+00 0.  1.
</event>
<event>
 7    1  0.1400974E-009  0.4778730E+02  0.7816164E-02  0.1312668E+00
        -11   -1    0    0    0    0  0.00000000000E+00  0.00000000000E+00  0.45593999997E+02  0.45594000000E+02  0.51100000000E-03 0.  1.
         11   -1    0    0    0    0 -0.00000000000E+00 -0.00000000000E+00 -0.45593999997E+02  0.45594000000E+02  0.51100000000E-03 0. -1.
    9900012    2    1    2    0    0 -0.21871405563E+02 -0.48533405178E+01 -0.37171326532E+02  0.47787299411E+02  0.20000129334E+02 0.  0.
        -12    1    1    2    0    0  0.21871405563E+02  0.48533405178E+01  0.37171326532E+02  0.43400700589E+02  0.00000000000E+00 0.  1.
         11    1    3    3    0    0 -0.17279390194E+01  0.93238849453E+00  0.81010137788E+00  0.21240023689E+01  0.51100000000E-03 0.  1.
        -11    1    3    3    0    0 -0.16533806774E+02  0.10382549188E+01 -0.31469704073E+02  0.35563844202E+02  0.51100000000E-03 0. -1.
        -12    1    3    3    0    0 -0.36096597688E+01 -0.68239839312E+01 -0.65117238371E+01  0.10099452840E+02  0.00000000000E+00 0.  1.
</event>
<event>
 7    1  0.1400974E-009  0.4778727E+02  0.7816164E-02  0.1312668E+00
        -11   -1    0    0    0    0  0.00000000000E+00  0.00000000000E+00  0.45593999997E+02  0.45594000000E+02  0.51100000000E-03 0.  1.
         11   -1    0    0    0    0 -0.00000000000E+00 -0.00000000000E+00 -0.45593999997E+02  0.45594000000E+02  0.51100000000E-03 0. -1.
    9900012    2    1    2    0    0  0.18885796546E+02  0.33771164721E+02 -0.19658538597E+02  0.47787273998E+02  0.20000013465E+02 0.  0.
        -12    1    1    2    0    0 -0.18885796546E+02 -0.33771164721E+02  0.19658538597E+02  0.43400726002E+02  0.00000000000E+00 0.  1.
         11    1    3    3    0    0  0.92471619832E+01  0.63567074498E+01 -0.53091492219E+01  0.12413895443E+02  0.51100000000E-03 0. -1.
        -11    1    3    3    0    0 -0.23508424310E+01  0.52121214271E+01  0.10490872930E+01  0.58131965661E+01  0.51100000000E-03 0.  1.
        -12    1    3    3    0    0  0.11989476994E+02  0.22202335844E+02 -0.15398476668E+02  0.29560181989E+02  0.00000000000E+00 0.  1.
</event>
<event>
 7    1  0.1479456E-009  0.4778728E+02  0.7816164E-02  0.1312668E+00
        -11   -1    0    0    0    0  0.00000000000E+00  0.00000000000E+00  0.45593999997E+02  0.45594000000E+02  0.51100000000E-03 0. -1.
         11   -1    0    0    0    0 -0.00000000000E+00 -0.00000000000E+00 -0.45593999997E+02  0.45594000000E+02  0.51100000000E-03 0.  1.
    9900012    2    1    2    0    0 -0.11507644671E+02  0.17829171783E+02  0.37859182165E+02  0.47787275046E+02  0.20000018245E+02 0.  0.
        -12    1    1    2    0    0  0.11507644671E+02 -0.17829171783E+02 -0.37859182165E+02  0.43400724954E+02  0.00000000000E+00 0.  1.
         11    1    3    3    0    0 -0.23046936576E+01  0.14324023546E+02  0.10024564805E+02  0.17634658011E+02  0.51100000000E-03 0. -1.
        -11    1    3    3    0    0 -0.15456556821E+01 -0.16300691140E+01  0.38566747606E+01  0.44631958588E+01  0.51100000000E-03 0.  1.
         12    1    3    3    0    0 -0.76572953312E+01  0.51352173516E+01  0.23977942600E+02  0.25689421176E+02  0.00000000000E+00 0. -1.
</event>
<event>
 7    1  0.1400974E-009  0.4778727E+02  0.7816164E-02  0.1312668E+00
        -11   -1    0    0    0    0  0.00000000000E+00  0.00000000000E+00  0.45593999997E+02  0.45594000000E+02  0.51100000000E-03 0.  1.
         11   -1    0    0    0    0 -0.00000000000E+00 -0.00000000000E+00 -0.45593999997E+02  0.45594000000E+02  0.51100000000E-03 0. -1.
    9900012    2    1    2    0    0 -0.25095801123E+02 -0.19546360110E+02 -0.29525647531E+02  0.47787270862E+02  0.19999999170E+02 0.  0.
        -12    1    1    2    0    0  0.25095801123E+02  0.19546360110E+02  0.29525647531E+02  0.43400729138E+02  0.00000000000E+00 0.  1.
         11    1    3    3    0    0 -0.48638080863E+01 -0.77003935728E+01 -0.17439824076E+02  0.19674860974E+02  0.51100000000E-03 0. -1.
        -11    1    3    3    0    0 -0.76265619679E+01  0.59981099021E+00 -0.31688511687E+01  0.82804491825E+01  0.51100000000E-03 0.  1.
        -12    1    3    3    0    0 -0.12605431069E+02 -0.12445777527E+02 -0.89169722861E+01  0.19831960706E+02  0.00000000000E+00 0.  1.
</event>
<event>
 7    1  0.1400974E-009  0.4778727E+02  0.7816164E-02  0.1312668E+00
        -11   -1    0    0    0    0  0.00000000000E+00  0.00000000000E+00  0.45593999997E+02  0.45594000000E+02  0.51100000000E-03 0.  1.
         11   -1    0    0    0    0 -0.00000000000E+00 -0.00000000000E+00 -0.45593999997E+02  0.45594000000E+02  0.51100000000E-03 0. -1.
    9900012    2    1    2    0    0  0.41076386899E+02 -0.14010695028E+02 -0.23242836093E+00  0.47787272370E+02  0.20000006044E+02 0.  0.
        -12    1    1    2    0    0 -0.41076386899E+02  0.14010695028E+02  0.23242836093E+00  0.43400727630E+02  0.00000000000E+00 0.  1.
         11    1    3    3    0    0  0.11171916205E+02 -0.65615934665E+01  0.30660043908E+01  0.13314150506E+02  0.51100000000E-03 0. -1.
        -11    1    3    3    0    0  0.13853623232E+00 -0.43088139322E+01  0.32600286991E+00  0.43233491557E+01  0.51100000000E-03 0.  1.
         12    1    3    3    0    0  0.29765934462E+02 -0.31402876290E+01 -0.36244356217E+01  0.30149772708E+02  0.00000000000E+00 0. -1.
</event>
<event>
 7    1  0.1400974E-009  0.4778728E+02  0.7816164E-02  0.1312668E+00
        -11   -1    0    0    0    0  0.00000000000E+00  0.00000000000E+00  0.45593999997E+02  0.45594000000E+02  0.51100000000E-03 0.  1.
         11   -1    0    0    0    0 -0.00000000000E+00 -0.00000000000E+00 -0.45593999997E+02  0.45594000000E+02  0.51100000000E-03 0. -1.
    9900012    2    1    2    0    0 -0.45754094854E+01 -0.42051081124E+02  0.97156865398E+01  0.47787281566E+02  0.20000047971E+02 0.  0.
        -12    1    1    2    0    0  0.45754094854E+01  0.42051081124E+02 -0.97156865398E+01  0.43400718434E+02  0.00000000000E+00 0.  1.
         11    1    3    3    0    0  0.58339561092E+01 -0.15988919732E+02  0.54193077064E+00  0.17028631398E+02  0.51100000000E-03 0. -1.
        -11    1    3    3    0    0 -0.43114077155E+01 -0.56947317400E+01 -0.95899561835E+00  0.72067939430E+01  0.51100000000E-03 0.  1.
        -12    1    3    3    0    0 -0.60979578791E+01 -0.20367429652E+02  0.10132751387E+02  0.23551856224E+02  0.00000000000E+00 0.  1.
</event>
<event>
 7    1  0.1400974E-009  0.4778727E+02  0.7816164E-02  0.1312668E+00
        -11   -1    0    0    0    0  0.00000000000E+00  0.00000000000E+00  0.45593999997E+02  0.45594000000E+02  0.51100000000E-03 0.  1.
         11   -1    0    0    0    0 -0.00000000000E+00 -0.00000000000E+00 -0.45593999997E+02  0.45594000000E+02  0.51100000000E-03 0. -1.
    9900012    2    1    2    0    0 -0.49106243834E+01  0.42158887039E+02  0.90629891177E+01  0.47787265444E+02  0.19999974468E+02 0.  0.
        -12    1    1    2    0    0  0.49106243834E+01 -0.42158887039E+02 -0.90629891177E+01  0.43400734556E+02  0.00000000000E+00 0.  1.
         11    1    3    3    0    0 -0.73188036647E+01  0.26179694510E+02  0.30964643941E+01  0.27359265044E+02  0.51100000000E-03 0. -1.
        -11    1    3    3    0    0 -0.32787322416E+01  0.78486890781E+01 -0.60440921066E+00  0.85274448759E+01  0.51100000000E-03 0.  1.
        -12    1    3    3    0    0  0.56869115229E+01  0.81305034511E+01  0.65709339342E+01  0.11900555525E+02  0.00000000000E+00 0.  1.
</event>
<event>
 7    1  0.1400974E-009  0.4778725E+02  0.7816164E-02  0.1312668E+00
        -11   -1    0    0    0    0  0.00000000000E+00  0.00000000000E+00  0.45593999997E+02  0.45594000000E+02  0.51100000000E-03 0.  1.
         11   -1    0    0    0    0 -0.00000000000E+00 -0.00000000000E+00 -0.45593999997E+02  0.45594000000E+02  0.51100000000E-03 0. -1.
    9900012    2    1    2    0    0 -0.11991334609E+02 -0.32953761306E+02 -0.25571133635E+02  0.47787246950E+02  0.19999890143E+02 0.  0.
        -12    1    1    2    0    0  0.11991334609E+02  0.32953761306E+02  0.25571133635E+02  0.43400753050E+02  0.00000000000E+00 0.  1.
         11    1    3    3    0    0 -0.42383913357E+01 -0.81105971701E+01 -0.97575732421E+01  0.13377443082E+02  0.51100000000E-03 0.  1.
        -11    1    3    3    0    0 -0.86954860399E+01 -0.21145851925E+02 -0.56471784204E+01  0.23550990541E+02  0.51100000000E-03 0. -1.
         12    1    3    3    0    0  0.94254276628E+00 -0.36973122110E+01 -0.10166381973E+02  0.10858813327E+02  0.00000000000E+00 0. -1.
</event>
<event>
 7    1  0.1400974E-009  0.4778727E+02  0.7816164E-02  0.1312668E+00
        -11   -1    0    0    0    0  0.00000000000E+00  0.00000000000E+00  0.45593999997E+02  0.45594000000E+02  0.51100000000E-03 0.  1.
         11   -1    0    0    0    0 -0.00000000000E+00 -0.00000000000E+00 -0.45593999997E+02  0.45594000000E+02  0.51100000000E-03 0. -1.
    9900012    2    1    2    0    0 -0.29058683853E+02  0.64627471318E+01 -0.31582412779E+02  0.47787274146E+02  0.20000014141E+02 0.  0.
        -12    1    1    2    0    0  0.29058683853E+02 -0.64627471318E+01  0.31582412779E+02  0.43400725854E+02  0.00000000000E+00 0.  1.
         11    1    3    3    0    0 -0.10798154630E+02  0.36810497934E+01 -0.23877423532E+02  0.26462834803E+02  0.51100000000E-03 0. -1.
        -11    1    3    3    0    0 -0.71859341642E+01  0.23116257021E+01 -0.68728370318E+01  0.10208680244E+02  0.51100000000E-03 0.  1.
        -12    1    3    3    0    0 -0.11074595058E+02  0.47007163630E+00 -0.83215221503E+00  0.11115759099E+02  0.00000000000E+00 0.  1.
</event>
<event>
 7    1  0.1400974E-009  0.4778727E+02  0.7816164E-02  0.1312668E+00
        -11   -1    0    0    0    0  0.00000000000E+00  0.00000000000E+00  0.45593999997E+02  0.45594000000E+02  0.51100000000E-03 0.  1.
         11   -1    0    0    0    0 -0.00000000000E+00 -0.00000000000E+00 -0.45593999997E+02  0.45594000000E+02  0.51100000000E-03 0. -1.
    9900012    2    1    2    0    0  0.46208928956E+01  0.19909068645E+02 -0.38287066936E+02  0.47787272356E+02  0.20000005980E+02 0.  0.
        -12    1    1    2    0    0 -0.46208928956E+01 -0.19909068645E+02  0.38287066936E+02  0.43400727644E+02  0.00000000000E+00 0.  1.
         11    1    3    3    0    0 -0.67957050513E+01  0.24388304747E+01 -0.12423999108E+02  0.14369594821E+02  0.51100000000E-03 0.  1.
        -11    1    3    3    0    0  0.49480197617E+01  0.45981092331E+01 -0.84470952141E+01  0.10815679632E+02  0.51100000000E-03 0. -1.
         12    1    3    3    0    0  0.64685781853E+01  0.12872128937E+02 -0.17415972614E+02  0.22601997903E+02  0.00000000000E+00 0. -1.
</event>
<event>
 7    1  0.1400974E-009  0.4778727E+02  0.7816164E-02  0.1312668E+00
        -11   -1    0    0    0    0  0.00000000000E+00  0.00000000000E+00  0.45593999997E+02  0.45594000000E+02  0.51100000000E-03 0.  1.
         11   -1    0    0    0    0 -0.00000000000E+00 -0.00000000000E+00 -0.45593999997E+02  0.45594000000E+02  0.51100000000E-03 0. -1.
    9900012    2    1    2    0    0 -0.29528671338E+02 -0.30509650221E+02 -0.89912211321E+01  0.47787271377E+02  0.20000001515E+02 0.  0.
        -12    1    1    2    0    0  0.29528671338E+02  0.30509650221E+02  0.89912211321E+01  0.43400728623E+02  0.00000000000E+00 0.  1.
         11    1    3    3    0    0 -0.19932659346E+02 -0.21559403375E+02 -0.15081151365E+01  0.29400564519E+02  0.51100000000E-03 0. -1.
        -11    1    3    3    0    0 -0.37223787060E+01 -0.99419559947E+01 -0.61982013208E+01  0.12292936675E+02  0.51100000000E-03 0.  1.
        -12    1    3    3    0    0 -0.58736332862E+01  0.99170914879E+00 -0.12849046749E+01  0.60937701827E+01  0.00000000000E+00 0.  1.
</event>
<event>
 7    1  0.1400974E-009  0.4778727E+02  0.7816164E-02  0.1312668E+00
        -11   -1    0    0    0    0  0.00000000000E+00  0.00000000000E+00  0.45593999997E+02  0.45594000000E+02  0.51100000000E-03 0.  1.
         11   -1    0    0    0    0 -0.00000000000E+00 -0.00000000000E+00 -0.45593999997E+02  0.45594000000E+02  0.51100000000E-03 0. -1.
    9900012    2    1    2    0    0 -0.25634304335E+02 -0.29561608199E+01 -0.34896513113E+02  0.47787273359E+02  0.20000010553E+02 0.  0.
        -12    1    1    2    0    0  0.25634304335E+02  0.29561608199E+01  0.34896513113E+02  0.43400726641E+02  0.00000000000E+00 0.  1.
         11    1    3    3    0    0 -0.11181324233E+02 -0.20090087315E+01 -0.39246026027E+01  0.12019177740E+02  0.51100000000E-03 0. -1.
        -11    1    3    3    0    0  0.12619913277E+01  0.73469808891E+00 -0.63078305801E+01  0.64746529082E+01  0.51100000000E-03 0.  1.
        -12    1    3    3    0    0 -0.15714971429E+02 -0.16818501773E+01 -0.24664079930E+02  0.29293442711E+02  0.00000000000E+00 0.  1.
</event>
<event>
 7    1  0.1400974E-009  0.4778727E+02  0.7816164E-02  0.1312668E+00
        -11   -1    0    0    0    0  0.00000000000E+00  0.00000000000E+00  0.45593999997E+02  0.45594000000E+02  0.51100000000E-03 0. -1.
         11   -1    0    0    0    0 -0.00000000000E+00 -0.00000000000E+00 -0.45593999997E+02  0.45594000000E+02  0.51100000000E-03 0.  1.
    9900012    2    1    2    0    0 -0.24699888034E+02 -0.20520306568E+01  0.35627635260E+02  0.47787266217E+02  0.19999977990E+02 0.  0.
        -12    1    1    2    0    0  0.24699888034E+02  0.20520306568E+01 -0.35627635260E+02  0.43400733783E+02  0.00000000000E+00 0.  1.
         11    1    3    3    0    0 -0.87688027227E+01 -0.94528963471E+00  0.89845701264E+01  0.12589995008E+02  0.51100000000E-03 0. -1.
        -11    1    3    3    0    0 -0.18935116110E+02 -0.28332329152E+01  0.19892064095E+02  0.27609057301E+02  0.51100000000E-03 0.  1.
         12    1    3    3    0    0  0.30040307985E+01  0.17264918931E+01  0.67510010381E+01  0.75882139079E+01  0.00000000000E+00 0. -1.
</event>
<event>
 7    1  0.1400974E-009  0.4778727E+02  0.7816164E-02  0.1312668E+00
        -11   -1    0    0    0    0  0.00000000000E+00  0.00000000000E+00  0.45593999997E+02  0.45594000000E+02  0.51100000000E-03 0. -1.
         11   -1    0    0    0    0 -0.00000000000E+00 -0.00000000000E+00 -0.45593999997E+02  0.45594000000E+02  0.51100000000E-03 0.  1.
    9900012    2    1    2    0    0  0.18801941318E+02  0.24384608792E+01  0.39040542455E+02  0.47787273693E+02  0.20000012076E+02 0.  0.
        -12    1    1    2    0    0 -0.18801941318E+02 -0.24384608792E+01 -0.39040542455E+02  0.43400726307E+02  0.00000000000E+00 0.  1.
         11    1    3    3    0    0  0.10341186150E+02 -0.56119465287E+01  0.29918232256E+02  0.32148634441E+02  0.51100000000E-03 0. -1.
        -11    1    3    3    0    0  0.34199150616E+01  0.46035185700E+01  0.72651417435E+01  0.92558352982E+01  0.51100000000E-03 0.  1.
        -12    1    3    3    0    0  0.50408401061E+01  0.34468888380E+01  0.18571684552E+01  0.63828039534E+01  0.00000000000E+00 0.  1.
</event>
<event>
 7    1  0.1400974E-009  0.4778727E+02  0.7816164E-02  0.1312668E+00
        -11   -1    0    0    0    0  0.00000000000E+00  0.00000000000E+00  0.45593999997E+02  0.45594000000E+02  0.51100000000E-03 0. -1.
         11   -1    0    0    0    0 -0.00000000000E+00 -0.00000000000E+00 -0.45593999997E+02  0.45594000000E+02  0.51100000000E-03 0.  1.
    9900012    2    1    2    0    0  0.14725889529E+02 -0.35397593470E+02  0.20341624300E+02  0.47787272759E+02  0.20000007817E+02 0.  0.
        -12    1    1    2    0    0 -0.14725889529E+02  0.35397593470E+02 -0.20341624300E+02  0.43400727241E+02  0.00000000000E+00 0.  1.
         11    1    3    3    0    0  0.56162799286E+00  0.18926016077E+01  0.15967895343E+01  0.25391147918E+01  0.51100000000E-03 0.  1.
        -11    1    3    3    0    0  0.11651737605E+02 -0.16738932324E+02  0.78614059118E+01  0.21857642777E+02  0.51100000000E-03 0. -1.
        -12    1    3    3    0    0  0.25125239314E+01 -0.20551262753E+02  0.10883428854E+02  0.23390515191E+02  0.00000000000E+00 0.  1.
</event>
<event>
 7    1  0.1400974E-009  0.4778727E+02  0.7816164E-02  0.1312668E+00
        -11   -1    0    0    0    0  0.00000000000E+00  0.00000000000E+00  0.45593999997E+02  0.45594000000E+02  0.51100000000E-03 0.  1.
         11   -1    0    0    0    0 -0.00000000000E+00 -0.00000000000E+00 -0.45593999997E+02  0.45594000000E+02  0.51100000000E-03 0. -1.
    9900012    2    1    2    0    0  0.31194844688E+02  0.18837091656E+02 -0.23572634264E+02  0.47787269093E+02  0.19999991102E+02 0.  0.
        -12    1    1    2    0    0 -0.31194844688E+02 -0.18837091656E+02  0.23572634264E+02  0.43400730907E+02  0.00000000000E+00 0.  1.
         11    1    3    3    0    0  0.19185258497E+02  0.11133033037E+02 -0.12348665455E+02  0.25387164217E+02  0.51100000000E-03 0.  1.
        -11    1    3    3    0    0  0.39606426201E+01  0.96086148346E+01 -0.92116129340E+01  0.13887619742E+02  0.51100000000E-03 0. -1.
        -12    1    3    3    0    0  0.80489435704E+01 -0.19045562152E+01 -0.20123558741E+01  0.85124851330E+01  0.00000000000E+00 0.  1.
</event>
<event>
 7    1  0.1400974E-009  0.4778727E+02  0.7816164E-02  0.1312668E+00
        -11   -1    0    0    0    0  0.00000000000E+00  0.00000000000E+00  0.45593999997E+02  0.45594000000E+02  0.51100000000E-03 0.  1.
         11   -1    0    0    0    0 -0.00000000000E+00 -0.00000000000E+00 -0.45593999997E+02  0.45594000000E+02  0.51100000000E-03 0. -1.
    9900012    2    1    2    0    0  0.18200422970E+02 -0.21291468499E+02 -0.33151789411E+02  0.47787272261E+02  0.20000005547E+02 0.  0.
        -12    1    1    2    0    0 -0.18200422970E+02  0.21291468499E+02  0.33151789411E+02  0.43400727739E+02  0.00000000000E+00 0.  1.
         11    1    3    3    0    0  0.56187040059E+01 -0.31713189202E+01 -0.36985809075E+01  0.74368406861E+01  0.51100000000E-03 0. -1.
        -11    1    3    3    0    0 -0.96399302060E+00 -0.25539687360E+01 -0.14781451404E+02  0.15031411934E+02  0.51100000000E-03 0.  1.
        -12    1    3    3    0    0  0.13545711985E+02 -0.15566180843E+02 -0.14671757099E+02  0.25319019641E+02  0.00000000000E+00 0.  1.
</event>
<event>
 7    1  0.1400974E-009  0.4778727E+02  0.7816164E-02  0.1312668E+00
        -11   -1    0    0    0    0  0.00000000000E+00  0.00000000000E+00  0.45593999997E+02  0.45594000000E+02  0.51100000000E-03 0.  1.
         11   -1    0    0    0    0 -0.00000000000E+00 -0.00000000000E+00 -0.45593999997E+02  0.45594000000E+02  0.51100000000E-03 0. -1.
    9900012    2    1    2    0    0  0.26767180120E+02  0.30890441366E+02 -0.14591853295E+02  0.47787268647E+02  0.19999989069E+02 0.  0.
        -12    1    1    2    0    0 -0.26767180120E+02 -0.30890441366E+02  0.14591853295E+02  0.43400731353E+02  0.00000000000E+00 0.  1.
         11    1    3    3    0    0  0.70641023827E+01  0.82735016556E+01 -0.13508294997E+02  0.17344347959E+02  0.51100000000E-03 0. -1.
        -11    1    3    3    0    0  0.82604921653E+01  0.12007134307E+02 -0.24500514694E+01  0.14778692687E+02  0.51100000000E-03 0.  1.
         12    1    3    3    0    0  0.11442585573E+02  0.10609805403E+02  0.13664931712E+01  0.15664228001E+02  0.00000000000E+00 0. -1.
</event>
<event>
 7    1  0.1400974E-009  0.4778727E+02  0.7816164E-02  0.1312668E+00
        -11   -1    0    0    0    0  0.00000000000E+00  0.00000000000E+00  0.45593999997E+02  0.45594000000E+02  0.51100000000E-03 0. -1.
         11   -1    0    0    0    0 -0.00000000000E+00 -0.00000000000E+00 -0.45593999997E+02  0.45594000000E+02  0.51100000000E-03 0.  1.
    9900012    2    1    2    0    0 -0.42535789881E+02 -0.86210097442E+01  0.88188498537E-01  0.47787274119E+02  0.20000014019E+02 0.  0.
        -12    1    1    2    0    0  0.42535789881E+02  0.86210097442E+01 -0.88188498537E-01  0.43400725881E+02  0.00000000000E+00 0.  1.
         11    1    3    3    0    0 -0.13291890776E+02 -0.31974193582E+01  0.28957082437E+01  0.13974368589E+02  0.51100000000E-03 0. -1.
        -11    1    3    3    0    0 -0.57300854522E+01 -0.71640341223E+01 -0.44133963992E+01  0.10180144018E+02  0.51100000000E-03 0.  1.
        -12    1    3    3    0    0 -0.23513813652E+02  0.17404437364E+01  0.16058766540E+01  0.23632761512E+02  0.00000000000E+00 0.  1.
</event>
<event>
 7    1  0.1400974E-009  0.4778727E+02  0.7816164E-02  0.1312668E+00
        -11   -1    0    0    0    0  0.00000000000E+00  0.00000000000E+00  0.45593999997E+02  0.45594000000E+02  0.51100000000E-03 0.  1.
         11   -1    0    0    0    0 -0.00000000000E+00 -0.00000000000E+00 -0.45593999997E+02  0.45594000000E+02  0.51100000000E-03 0. -1.
    9900012    2    1    2    0    0  0.14275456500E+01  0.24126510870E+02 -0.36048539529E+02  0.47787267109E+02  0.19999982057E+02 0.  0.
        -12    1    1    2    0    0 -0.14275456500E+01 -0.24126510870E+02  0.36048539529E+02  0.43400732891E+02  0.00000000000E+00 0.  1.
         11    1    3    3    0    0 -0.28735382617E+01  0.29653751901E+01 -0.91085819070E+01  0.10000846803E+02  0.51100000000E-03 0. -1.
        -11    1    3    3    0    0  0.73241909613E+01  0.16408834143E+02 -0.11457324582E+02  0.21311121464E+02  0.51100000000E-03 0.  1.
        -12    1    3    3    0    0 -0.30231070496E+01  0.47523015361E+01 -0.15482633039E+02  0.16475298843E+02  0.00000000000E+00 0.  1.
</event>
<event>
 7    1  0.1400974E-009  0.4778727E+02  0.7816164E-02  0.1312668E+00
        -11   -1    0    0    0    0  0.00000000000E+00  0.00000000000E+00  0.45593999997E+02  0.45594000000E+02  0.51100000000E-03 0. -1.
         11   -1    0    0    0    0 -0.00000000000E+00 -0.00000000000E+00 -0.45593999997E+02  0.45594000000E+02  0.51100000000E-03 0.  1.
    9900012    2    1    2    0    0 -0.36474614020E+02 -0.81872842111E+01  0.22049813343E+02  0.47787270063E+02  0.19999995524E+02 0.  0.
        -12    1    1    2    0    0  0.36474614020E+02  0.81872842111E+01 -0.22049813343E+02  0.43400729937E+02  0.00000000000E+00 0.  1.
         11    1    3    3    0    0 -0.17102433648E+02 -0.19237843292E+01  0.35379853192E+01  0.17570188480E+02  0.51100000000E-03 0.  1.
        -11    1    3    3    0    0 -0.64911842984E+01  0.33743437213E+01  0.87259826150E+01  0.11387029551E+02  0.51100000000E-03 0. -1.
         12    1    3    3    0    0 -0.12880996073E+02 -0.96378436032E+01  0.97858454086E+01  0.18830052031E+02  0.00000000000E+00 0. -1.
</event>
<event>
 7    1  0.1990020E-009  0.4778727E+02  0.7816164E-02  0.1312668E+00
        -11   -1    0    0    0    0  0.00000000000E+00  0.00000000000E+00  0.45593999997E+02  0.45594000000E+02  0.51100000000E-03 0. -1.
         11   -1    0    0    0    0 -0.00000000000E+00 -0.00000000000E+00 -0.45593999997E+02  0.45594000000E+02  0.51100000000E-03 0.  1.
    9900012    2    1    2    0    0 -0.61527713157E+01  0.22452784951E+02  0.36628391997E+02  0.47787271352E+02  0.20000001403E+02 0.  0.
        -12    1    1    2    0    0  0.61527713157E+01 -0.22452784951E+02 -0.36628391997E+02  0.43400728648E+02  0.00000000000E+00 0.  1.
         11    1    3    3    0    0 -0.20145228644E+01  0.99471863657E+01  0.13963761005E+02  0.17262428584E+02  0.51100000000E-03 0. -1.
        -11    1    3    3    0    0  0.54747336227E+00  0.34446993795E+01 -0.18674986578E+01  0.39564166105E+01  0.51100000000E-03 0.  1.
        -12    1    3    3    0    0 -0.46857218136E+01  0.90608992054E+01  0.24532129650E+02  0.26568426158E+02  0.00000000000E+00 0.  1.
</event>
<event>
 7    1  0.1400974E-009  0.4778727E+02  0.7816164E-02  0.1312668E+00
        -11   -1    0    0    0    0  0.00000000000E+00  0.00000000000E+00  0.45593999997E+02  0.45594000000E+02  0.51100000000E-03 0.  1.
         11   -1    0    0    0    0 -0.00000000000E+00 -0.00000000000E+00 -0.45593999997E+02  0.45594000000E+02  0.51100000000E-03 0. -1.
    9900012    2    1    2    0    0 -0.13762826982E+02  0.12947541722E+02 -0.39071330988E+02  0.47787272490E+02  0.20000006591E+02 0.  0.
        -12    1    1    2    0    0  0.13762826982E+02 -0.12947541722E+02  0.39071330988E+02  0.43400727510E+02  0.00000000000E+00 0.  1.
         11    1    3    3    0    0 -0.72079896473E+01  0.13191022555E+02 -0.11536647093E+02  0.18948678509E+02  0.51100000000E-03 0. -1.
        -11    1    3    3    0    0 -0.26891118834E+01 -0.22652412326E+01 -0.68590669067E+01  0.77077519196E+01  0.51100000000E-03 0.  1.
         12    1    3    3    0    0 -0.38657254517E+01  0.20217603996E+01 -0.20675616988E+02  0.21130842061E+02  0.00000000000E+00 0. -1.
</event>
<event>
 7    1  0.1400974E-009  0.4778726E+02  0.7816164E-02  0.1312668E+00
        -11   -1    0    0    0    0  0.00000000000E+00  0.00000000000E+00  0.45593999997E+02  0.45594000000E+02  0.51100000000E-03 0. -1.
         11   -1    0    0    0    0 -0.00000000000E+00 -0.00000000000E+00 -0.45593999997E+02  0.45594000000E+02  0.51100000000E-03 0.  1.
    9900012    2    1    2    0    0 -0.72538666046E+01 -0.23678812237E+02  0.35641536575E+02  0.47787264302E+02  0.19999969261E+02 0.  0.
        -12    1    1    2    0    0  0.72538666046E+01  0.23678812237E+02 -0.35641536575E+02  0.43400735698E+02  0.00000000000E+00 0.  1.
         11    1    3    3    0    0 -0.42895144093E+01 -0.35716709327E+01  0.44972354210E+00  0.55999123783E+01  0.51100000000E-03 0. -1.
        -11    1    3    3    0    0  0.13581197535E+01 -0.48149692712E+00 -0.23273208838E+00  0.14596208555E+01  0.51100000000E-03 0.  1.
         12    1    3    3    0    0 -0.43224719488E+01 -0.19625644377E+02  0.35424545121E+02  0.40727731069E+02  0.00000000000E+00 0. -1.
</event>
<event>
 7    1  0.1400974E-009  0.4778727E+02  0.7816164E-02  0.1312668E+00
        -11   -1    0    0    0    0  0.00000000000E+00  0.00000000000E+00  0.45593999997E+02  0.45594000000E+02  0.51100000000E-03 0. -1.
         11   -1    0    0    0    0 -0.00000000000E+00 -0.00000000000E+00 -0.45593999997E+02  0.45594000000E+02  0.51100000000E-03 0.  1.
    9900012    2    1    2    0    0 -0.10177095416E+02  0.33637546550E+02  0.25466947029E+02  0.47787271896E+02  0.20000003883E+02 0.  0.
        -12    1    1    2    0    0  0.10177095416E+02 -0.33637546550E+02 -0.25466947029E+02  0.43400728104E+02  0.00000000000E+00 0.  1.
         11    1    3    3    0    0 -0.15539059314E+01  0.16723539577E+02  0.11559424748E+02  0.20389009304E+02  0.51100000000E-03 0. -1.
        -11    1    3    3    0    0 -0.18065262638E+01  0.74932582774E+01 -0.17411461679E+01  0.79021545791E+01  0.51100000000E-03 0.  1.
         12    1    3    3    0    0 -0.68166632211E+01  0.94207486951E+01  0.15648668448E+02  0.19496108013E+02  0.00000000000E+00 0. -1.
</event>
<event>
 7    1  0.2363280E-009  0.4778727E+02  0.7816164E-02  0.1312668E+00
        -11   -1    0    0    0    0  0.00000000000E+00  0.00000000000E+00  0.45593999997E+02  0.45594000000E+02  0.51100000000E-03 0. -1.
         11   -1    0    0    0    0 -0.00000000000E+00 -0.00000000000E+00 -0.45593999997E+02  0.45594000000E+02  0.51100000000E-03 0.  1.
    9900012    2    1    2    0    0 -0.14221794196E+02  0.37378160457E+02  0.16859318978E+02  0.47787274824E+02  0.20000017235E+02 0.  0.
        -12    1    1    2    0    0  0.14221794196E+02 -0.37378160457E+02 -0.16859318978E+02  0.43400725176E+02  0.00000000000E+00 0.  1.
         11    1    3    3    0    0 -0.11347888985E+02  0.24456430104E+02  0.11919961880E+02  0.29478416670E+02  0.51100000000E-03 0. -1.
        -11    1    3    3    0    0 -0.52063977979E+01  0.21943975427E+01 -0.11343488926E+01  0.57626995650E+01  0.51100000000E-03 0.  1.
         12    1    3    3    0    0  0.23324925870E+01  0.10727332810E+02  0.60737059912E+01  0.12546158590E+02  0.00000000000E+00 0. -1.
</event>
<event>
 7    1  0.1400974E-009  0.4778727E+02  0.7816164E-02  0.1312668E+00
        -11   -1    0    0    0    0  0.00000000000E+00  0.00000000000E+00  0.45593999997E+02  0.45594000000E+02  0.51100000000E-03 0.  1.
         11   -1    0    0    0    0 -0.00000000000E+00 -0.00000000000E+00 -0.45593999997E+02  0.45594000000E+02  0.51100000000E-03 0. -1.
    9900012    2    1    2    0    0  0.31764198665E+02 -0.15084327863E+02 -0.25438593022E+02  0.47787270987E+02  0.19999999740E+02 0.  0.
        -12    1    1    2    0    0 -0.31764198665E+02  0.15084327863E+02  0.25438593022E+02  0.43400729013E+02  0.00000000000E+00 0.  1.
         11    1    3    3    0    0  0.70457540170E+01  0.46017706204E+00 -0.13998479393E+02  0.15678387614E+02  0.51100000000E-03 0. -1.
        -11    1    3    3    0    0  0.14428646176E+02 -0.10156466280E+02 -0.10316814723E+02  0.20439576905E+02  0.51100000000E-03 0.  1.
         12    1    3    3    0    0  0.10289798472E+02 -0.53880386452E+01 -0.11232989067E+01  0.11669306469E+02  0.00000000000E+00 0. -1.
</event>
<event>
 7    1  0.1400974E-009  0.4778724E+02  0.7816164E-02  0.1312668E+00
        -11   -1    0    0    0    0  0.00000000000E+00  0.00000000000E+00  0.45593999997E+02  0.45594000000E+02  0.51100000000E-03 0.  1.
         11   -1    0    0    0    0 -0.00000000000E+00 -0.00000000000E+00 -0.45593999997E+02  0.45594000000E+02  0.51100000000E-03 0. -1.
    9900012    2    1    2    0    0 -0.36755693575E+01  0.34235742255E+02 -0.26420258532E+02  0.47787240574E+02  0.19999861075E+02 0.  0.
        -12    1    1    2    0    0  0.36755693575E+01 -0.34235742255E+02  0.26420258532E+02  0.43400759426E+02  0.00000000000E+00 0.  1.
         11    1    3    3    0    0 -0.54047102266E+01  0.19844351162E+02 -0.25354909008E+02  0.32647826524E+02  0.51100000000E-03 0. -1.
        -11    1    3    3    0    0  0.18864477527E+01  0.24477900756E+01  0.35472794435E+00  0.31106580579E+01  0.51100000000E-03 0.  1.
         12    1    3    3    0    0 -0.15730688360E+00  0.11943601018E+02 -0.14200774681E+01  0.12028755993E+02  0.00000000000E+00 0. -1.
</event>
<event>
 7    1  0.1400974E-009  0.4778727E+02  0.7816164E-02  0.1312668E+00
        -11   -1    0    0    0    0  0.00000000000E+00  0.00000000000E+00  0.45593999997E+02  0.45594000000E+02  0.51100000000E-03 0.  1.
         11   -1    0    0    0    0 -0.00000000000E+00 -0.00000000000E+00 -0.45593999997E+02  0.45594000000E+02  0.51100000000E-03 0. -1.
    9900012    2    1    2    0    0  0.10413232859E+02  0.40506793119E+02 -0.11592572593E+02  0.47787269053E+02  0.19999990922E+02 0.  0.
        -12    1    1    2    0    0 -0.10413232859E+02 -0.40506793119E+02  0.11592572593E+02  0.43400730947E+02  0.00000000000E+00 0.  1.
         11    1    3    3    0    0  0.64674251681E+01  0.20162987120E+02 -0.10899301835E+02  0.23815297996E+02  0.51100000000E-03 0. -1.
        -11    1    3    3    0    0  0.70786450312E+01  0.11615757538E+02  0.31023565186E+01  0.13951976738E+02  0.51100000000E-03 0.  1.
         12    1    3    3    0    0 -0.31328373399E+01  0.87280484610E+01 -0.37956272771E+01  0.10019994319E+02  0.00000000000E+00 0. -1.
</event>
<event>
 7    1  0.1400974E-009  0.4778727E+02  0.7816164E-02  0.1312668E+00
        -11   -1    0    0    0    0  0.00000000000E+00  0.00000000000E+00  0.45593999997E+02  0.45594000000E+02  0.51100000000E-03 0.  1.
         11   -1    0    0    0    0 -0.00000000000E+00 -0.00000000000E+00 -0.45593999997E+02  0.45594000000E+02  0.51100000000E-03 0. -1.
    9900012    2    1    2    0    0 -0.41565945026E+02  0.12036204713E+02  0.33204319091E+01  0.47787270998E+02  0.19999999790E+02 0.  0.
        -12    1    1    2    0    0  0.41565945026E+02 -0.12036204713E+02 -0.33204319091E+01  0.43400729002E+02  0.00000000000E+00 0.  1.
         11    1    3    3    0    0 -0.70671428719E+01  0.59146910655E+01 -0.14880577274E+01  0.93350090966E+01  0.51100000000E-03 0. -1.
        -11    1    3    3    0    0 -0.10100864224E+02 -0.43069820786E+01  0.46337656272E+01  0.11918445236E+02  0.51100000000E-03 0.  1.
         12    1    3    3    0    0 -0.24397937930E+02  0.10428495726E+02  0.17472400932E+00  0.26533816666E+02  0.00000000000E+00 0. -1.
</event>
<event>
 7    1  0.1400974E-009  0.4778726E+02  0.7816164E-02  0.1312668E+00
        -11   -1    0    0    0    0  0.00000000000E+00  0.00000000000E+00  0.45593999997E+02  0.45594000000E+02  0.51100000000E-03 0.  1.
         11   -1    0    0    0    0 -0.00000000000E+00 -0.00000000000E+00 -0.45593999997E+02  0.45594000000E+02  0.51100000000E-03 0. -1.
    9900012    2    1    2    0    0 -0.28884600764E+02  0.13699251819E+02 -0.29353617020E+02  0.47787256990E+02  0.19999935921E+02 0.  0.
        -12    1    1    2    0    0  0.28884600764E+02 -0.13699251819E+02  0.29353617020E+02  0.43400743010E+02  0.00000000000E+00 0.  1.
         11    1    3    3    0    0 -0.10753848997E+02 -0.33184160331E+00 -0.17325606166E+02  0.20394411401E+02  0.51100000000E-03 0. -1.
        -11    1    3    3    0    0 -0.13843487248E+02  0.52164544204E+01 -0.67616449752E+01  0.16265711756E+02  0.51100000000E-03 0.  1.
        -12    1    3    3    0    0 -0.42872645189E+01  0.88146390017E+01 -0.52663658788E+01  0.11127133834E+02  0.00000000000E+00 0.  1.
</event>
<event>
 7    1 -0.5912204E-009  0.4778728E+02  0.7816164E-02  0.1312668E+00
        -11   -1    0    0    0    0  0.00000000000E+00  0.00000000000E+00  0.45593999997E+02  0.45594000000E+02  0.51100000000E-03 0.  1.
         11   -1    0    0    0    0 -0.00000000000E+00 -0.00000000000E+00 -0.45593999997E+02  0.45594000000E+02  0.51100000000E-03 0. -1.
    9900012    2    1    2    0    0 -0.24107882922E+02 -0.15960984803E+02 -0.32367881105E+02  0.47787276710E+02  0.20000025832E+02 0.  0.
        -12    1    1    2    0    0  0.24107882922E+02  0.15960984803E+02  0.32367881105E+02  0.43400723290E+02  0.00000000000E+00 0.  1.
         11    1    3    3    0    0 -0.13465865325E+02 -0.67035781389E+01 -0.11426574043E+02  0.18890052499E+02  0.51100000000E-03 0. -1.
        -11    1    3    3    0    0 -0.74356676167E+01 -0.84828685024E+01 -0.22559884184E+02  0.25222937687E+02  0.51100000000E-03 0.  1.
        -12    1    3    3    0    0 -0.32063499807E+01 -0.77453816124E+00  0.16185771210E+01  0.36742865237E+01  0.00000000000E+00 0.  1.
</event>
<event>
 7    1  0.1400974E-009  0.4778728E+02  0.7816164E-02  0.1312668E+00
        -11   -1    0    0    0    0  0.00000000000E+00  0.00000000000E+00  0.45593999997E+02  0.45594000000E+02  0.51100000000E-03 0.  1.
         11   -1    0    0    0    0 -0.00000000000E+00 -0.00000000000E+00 -0.45593999997E+02  0.45594000000E+02  0.51100000000E-03 0. -1.
    9900012    2    1    2    0    0 -0.40466165153E+02 -0.96452349140E+01 -0.12372602788E+02  0.47787281360E+02  0.20000047031E+02 0.  0.
        -12    1    1    2    0    0  0.40466165153E+02  0.96452349140E+01  0.12372602788E+02  0.43400718640E+02  0.00000000000E+00 0.  1.
         11    1    3    3    0    0 -0.98234300378E+01 -0.33342635297E+01  0.30493202323E+01  0.10812744570E+02  0.51100000000E-03 0. -1.
        -11    1    3    3    0    0 -0.35815759357E+01  0.61249117931E-02  0.20720841962E+01  0.41377840536E+01  0.51100000000E-03 0.  1.
         12    1    3    3    0    0 -0.27061159180E+02 -0.63170962961E+01 -0.17494007217E+02  0.32836752736E+02  0.00000000000E+00 0. -1.
</event>
<event>
 7    1  0.1400974E-009  0.4778727E+02  0.7816164E-02  0.1312668E+00
        -11   -1    0    0    0    0  0.00000000000E+00  0.00000000000E+00  0.45593999997E+02  0.45594000000E+02  0.51100000000E-03 0.  1.
         11   -1    0    0    0    0 -0.00000000000E+00 -0.00000000000E+00 -0.45593999997E+02  0.45594000000E+02  0.51100000000E-03 0. -1.
    9900012    2    1    2    0    0 -0.53005882646E+01  0.42682480432E+02 -0.58079994181E+01  0.47787271562E+02  0.20000002358E+02 0.  0.
        -12    1    1    2    0    0  0.53005882646E+01 -0.42682480432E+02  0.58079994181E+01  0.43400728438E+02  0.00000000000E+00 0.  1.
         11    1    3    3    0    0 -0.49564367880E+00  0.30004408500E+01  0.37489434096E+01  0.48273061743E+01  0.51100000000E-03 0. -1.
        -11    1    3    3    0    0 -0.53076475833E+01  0.94399781525E+01  0.11131185697E+01  0.10886842683E+02  0.51100000000E-03 0.  1.
         12    1    3    3    0    0  0.50270299748E+00  0.30242061429E+02 -0.10670061398E+02  0.32073122704E+02  0.00000000000E+00 0. -1.
</event>
<event>
 7    1  0.1400974E-009  0.4778727E+02  0.7816164E-02  0.1312668E+00
        -11   -1    0    0    0    0  0.00000000000E+00  0.00000000000E+00  0.45593999997E+02  0.45594000000E+02  0.51100000000E-03 0.  1.
         11   -1    0    0    0    0 -0.00000000000E+00 -0.00000000000E+00 -0.45593999997E+02  0.45594000000E+02  0.51100000000E-03 0. -1.
    9900012    2    1    2    0    0  0.38044658774E+02  0.17988871930E+02  0.10612607579E+02  0.47787274036E+02  0.20000013641E+02 0.  0.
        -12    1    1    2    0    0 -0.38044658774E+02 -0.17988871930E+02 -0.10612607579E+02  0.43400725964E+02  0.00000000000E+00 0.  1.
         11    1    3    3    0    0  0.19961724852E+02  0.57855895158E+01  0.38939065765E+01  0.21144881503E+02  0.51100000000E-03 0. -1.
        -11    1    3    3    0    0  0.13596476359E+02  0.78036898508E+01 -0.20970181690E+01  0.15816422798E+02  0.51100000000E-03 0.  1.
        -12    1    3    3    0    0  0.44864575637E+01  0.43995925632E+01  0.88157191711E+01  0.10825969735E+02  0.00000000000E+00 0.  1.
</event>
<event>
 7    1  0.1400974E-009  0.4778728E+02  0.7816164E-02  0.1312668E+00
        -11   -1    0    0    0    0  0.00000000000E+00  0.00000000000E+00  0.45593999997E+02  0.45594000000E+02  0.51100000000E-03 0. -1.
         11   -1    0    0    0    0 -0.00000000000E+00 -0.00000000000E+00 -0.45593999997E+02  0.45594000000E+02  0.51100000000E-03 0.  1.
    9900012    2    1    2    0    0 -0.23910580801E+02  0.17335556155E+01  0.36178736498E+02  0.47787284984E+02  0.20000063554E+02 0.  0.
        -12    1    1    2    0    0  0.23910580801E+02 -0.17335556155E+01 -0.36178736498E+02  0.43400715016E+02  0.00000000000E+00 0.  1.
         11    1    3    3    0    0 -0.17390549004E+02 -0.40816486424E+01  0.24586628509E+02  0.30390678702E+02  0.51100000000E-03 0. -1.
        -11    1    3    3    0    0 -0.82054022350E+01  0.40637610149E+01  0.51371862598E+01  0.10499212463E+02  0.51100000000E-03 0.  1.
        -12    1    3    3    0    0  0.16853704373E+01  0.17514432430E+01  0.64549217296E+01  0.68973938179E+01  0.00000000000E+00 0.  1.
</event>
<event>
 7    1  0.1400974E-009  0.4778727E+02  0.7816164E-02  0.1312668E+00
        -11   -1    0    0    0    0  0.00000000000E+00  0.00000000000E+00  0.45593999997E+02  0.45594000000E+02  0.51100000000E-03 0. -1.
         11   -1    0    0    0    0 -0.00000000000E+00 -0.00000000000E+00 -0.45593999997E+02  0.45594000000E+02  0.51100000000E-03 0.  1.
    9900012    2    1    2    0    0  0.41302154149E+01 -0.34061724637E+02  0.26577501111E+02  0.47787270399E+02  0.19999997056E+02 0.  0.
        -12    1    1    2    0    0 -0.41302154149E+01  0.34061724637E+02 -0.26577501111E+02  0.43400729601E+02  0.00000000000E+00 0.  1.
         11    1    3    3    0    0 -0.32947588305E+01 -0.28412550065E+02  0.25072063466E+02  0.38035993528E+02  0.51100000000E-03 0. -1.
        -11    1    3    3    0    0  0.27846286465E+01 -0.12260878148E+01  0.13760760015E+01  0.33393163150E+01  0.51100000000E-03 0.  1.
         12    1    3    3    0    0  0.46403455988E+01 -0.44230867574E+01  0.12936164370E+00  0.64119605562E+01  0.00000000000E+00 0. -1.
</event>
<event>
 7    1  0.1400974E-009  0.4778727E+02  0.7816164E-02  0.1312668E+00
        -11   -1    0    0    0    0  0.00000000000E+00  0.00000000000E+00  0.45593999997E+02  0.45594000000E+02  0.51100000000E-03 0. -1.
         11   -1    0    0    0    0 -0.00000000000E+00 -0.00000000000E+00 -0.45593999997E+02  0.45594000000E+02  0.51100000000E-03 0.  1.
    9900012    2    1    2    0    0 -0.91053446985E+01 -0.42166297439E+02  0.47664755544E+01  0.47787271539E+02  0.20000002253E+02 0.  0.
        -12    1    1    2    0    0  0.91053446985E+01  0.42166297439E+02 -0.47664755544E+01  0.43400728461E+02  0.00000000000E+00 0.  1.
         11    1    3    3    0    0  0.13973826144E+01  0.80533660661E-01  0.81974323558E-01  0.14020998154E+01  0.51100000000E-03 0. -1.
        -11    1    3    3    0    0 -0.13681342239E+02 -0.35060331559E+02  0.68063000359E+01  0.38245675506E+02  0.51100000000E-03 0.  1.
        -12    1    3    3    0    0  0.31786149265E+01 -0.71864995405E+01 -0.21217988051E+01  0.81394962169E+01  0.00000000000E+00 0.  1.
</event>
<event>
 7    1  0.1676749E-009  0.4778727E+02  0.7816164E-02  0.1312668E+00
        -11   -1    0    0    0    0  0.00000000000E+00  0.00000000000E+00  0.45593999997E+02  0.45594000000E+02  0.51100000000E-03 0. -1.
         11   -1    0    0    0    0 -0.00000000000E+00 -0.00000000000E+00 -0.45593999997E+02  0.45594000000E+02  0.51100000000E-03 0.  1.
    9900012    2    1    2    0    0  0.14756256133E+01  0.29820724321E+02  0.31498729983E+02  0.47787273502E+02  0.20000011206E+02 0.  0.
        -12    1    1    2    0    0 -0.14756256133E+01 -0.29820724321E+02 -0.31498729983E+02  0.43400726498E+02  0.00000000000E+00 0.  1.
         11    1    3    3    0    0 -0.31616629954E+01  0.14247896331E+02  0.15971164930E+02  0.21635081979E+02  0.51100000000E-03 0. -1.
        -11    1    3    3    0    0 -0.19953694190E+01 -0.15444603858E+01  0.89755957325E+00  0.26781468313E+01  0.51100000000E-03 0.  1.
         12    1    3    3    0    0  0.66326580277E+01  0.17117288375E+02  0.14630005480E+02  0.23474044691E+02  0.00000000000E+00 0. -1.
</event>
<event>
 7    1  0.1400974E-009  0.4778729E+02  0.7816164E-02  0.1312668E+00
        -11   -1    0    0    0    0  0.00000000000E+00  0.00000000000E+00  0.45593999997E+02  0.45594000000E+02  0.51100000000E-03 0.  1.
         11   -1    0    0    0    0 -0.00000000000E+00 -0.00000000000E+00 -0.45593999997E+02  0.45594000000E+02  0.51100000000E-03 0. -1.
    9900012    2    1    2    0    0 -0.27044214431E+02  0.24623142042E+01 -0.33855123192E+02  0.47787286967E+02  0.20000072596E+02 0.  0.
        -12    1    1    2    0    0  0.27044214431E+02 -0.24623142042E+01  0.33855123192E+02  0.43400713033E+02  0.00000000000E+00 0.  1.
         11    1    3    3    0    0 -0.11766411955E+02 -0.58002854119E+01 -0.11628317689E+02  0.17530246253E+02  0.51100000000E-03 0. -1.
        -11    1    3    3    0    0  0.10148150770E+01  0.16629408640E+01 -0.37415413958E-01  0.19484922715E+01  0.51100000000E-03 0.  1.
         12    1    3    3    0    0 -0.16292617553E+02  0.65996587521E+01 -0.22189390089E+02  0.28308548442E+02  0.00000000000E+00 0. -1.
</event>
<event>
 7    1  0.1400974E-009  0.4778727E+02  0.7816164E-02  0.1312668E+00
        -11   -1    0    0    0    0  0.00000000000E+00  0.00000000000E+00  0.45593999997E+02  0.45594000000E+02  0.51100000000E-03 0.  1.
         11   -1    0    0    0    0 -0.00000000000E+00 -0.00000000000E+00 -0.45593999997E+02  0.45594000000E+02  0.51100000000E-03 0. -1.
    9900012    2    1    2    0    0 -0.29178493938E+02  0.42759761552E+00 -0.32125624578E+02  0.47787273016E+02  0.20000008989E+02 0.  0.
        -12    1    1    2    0    0  0.29178493938E+02 -0.42759761552E+00  0.32125624578E+02  0.43400726984E+02  0.00000000000E+00 0.  1.
         11    1    3    3    0    0 -0.16355822743E+02 -0.86805097263E+00 -0.13618065805E+02  0.21300661178E+02  0.51100000000E-03 0. -1.
        -11    1    3    3    0    0 -0.14730170736E+00 -0.41069901134E+00 -0.12232815571E+02  0.12240594288E+02  0.51100000000E-03 0.  1.
        -12    1    3    3    0    0 -0.12675369488E+02  0.17063475995E+01 -0.62747432015E+01  0.14246017550E+02  0.00000000000E+00 0.  1.
</event>
<event>
 7    1  0.1400974E-009  0.4778727E+02  0.7816164E-02  0.1312668E+00
        -11   -1    0    0    0    0  0.00000000000E+00  0.00000000000E+00  0.45593999997E+02  0.45594000000E+02  0.51100000000E-03 0.  1.
         11   -1    0    0    0    0 -0.00000000000E+00 -0.00000000000E+00 -0.45593999997E+02  0.45594000000E+02  0.51100000000E-03 0. -1.
    9900012    2    1    2    0    0  0.98185633716E+01 -0.34908299693E+02 -0.23845955706E+02  0.47787272153E+02  0.20000005054E+02 0.  0.
        -12    1    1    2    0    0 -0.98185633716E+01  0.34908299693E+02  0.23845955706E+02  0.43400727847E+02  0.00000000000E+00 0.  1.
         11    1    3    3    0    0  0.24710395965E+01 -0.29258856494E+02 -0.12236436357E+02  0.31810644366E+02  0.51100000000E-03 0. -1.
        -11    1    3    3    0    0  0.15011310684E+00  0.25302720054E+00 -0.38420116747E+01  0.38532597472E+01  0.51100000000E-03 0.  1.
        -12    1    3    3    0    0  0.71974106682E+01 -0.59024703994E+01 -0.77675076744E+01  0.12123368039E+02  0.00000000000E+00 0.  1.
</event>
<event>
 7    1  0.1400974E-009  0.4778727E+02  0.7816164E-02  0.1312668E+00
        -11   -1    0    0    0    0  0.00000000000E+00  0.00000000000E+00  0.45593999997E+02  0.45594000000E+02  0.51100000000E-03 0.  1.
         11   -1    0    0    0    0 -0.00000000000E+00 -0.00000000000E+00 -0.45593999997E+02  0.45594000000E+02  0.51100000000E-03 0. -1.
    9900012    2    1    2    0    0  0.37499030655E+02  0.64142941616E+01 -0.20887859533E+02  0.47787272523E+02  0.20000006742E+02 0.  0.
        -12    1    1    2    0    0 -0.37499030655E+02 -0.64142941616E+01  0.20887859533E+02  0.43400727477E+02  0.00000000000E+00 0.  1.
         11    1    3    3    0    0  0.25119854446E+02  0.53861710389E+01 -0.77486069557E+01  0.26833912049E+02  0.51100000000E-03 0. -1.
        -11    1    3    3    0    0 -0.28661451644E+00  0.29678621384E+01 -0.63263602691E+00  0.30480456291E+01  0.51100000000E-03 0.  1.
         12    1    3    3    0    0  0.12665790726E+02 -0.19397390156E+01 -0.12506616551E+02  0.17905314845E+02  0.00000000000E+00 0. -1.
</event>
<event>
 7    1  0.1400974E-009  0.4778727E+02  0.7816164E-02  0.1312668E+00
        -11   -1    0    0    0    0  0.00000000000E+00  0.00000000000E+00  0.45593999997E+02  0.45594000000E+02  0.51100000000E-03 0. -1.
         11   -1    0    0    0    0 -0.00000000000E+00 -0.00000000000E+00 -0.45593999997E+02  0.45594000000E+02  0.51100000000E-03 0.  1.
    9900012    2    1    2    0    0 -0.28139815514E+02 -0.31345437797E+02 -0.10451685381E+02  0.47787269416E+02  0.19999992576E+02 0.  0.
        -12    1    1    2    0    0  0.28139815514E+02  0.31345437797E+02  0.10451685381E+02  0.43400730584E+02  0.00000000000E+00 0.  1.
         11    1    3    3    0    0  0.11668852539E+01 -0.74772906785E+01 -0.34163803174E+01  0.83032012995E+01  0.51100000000E-03 0.  1.
        -11    1    3    3    0    0 -0.97752221591E+01 -0.52204327847E+01  0.14545882762E+01  0.11176927755E+02  0.51100000000E-03 0. -1.
        -12    1    3    3    0    0 -0.19531478609E+02 -0.18647714334E+02 -0.84898933396E+01  0.28307140362E+02  0.00000000000E+00 0.  1.
</event>
<event>
 7    1  0.1400974E-009  0.4778727E+02  0.7816164E-02  0.1312668E+00
        -11   -1    0    0    0    0  0.00000000000E+00  0.00000000000E+00  0.45593999997E+02  0.45594000000E+02  0.51100000000E-03 0.  1.
         11   -1    0    0    0    0 -0.00000000000E+00 -0.00000000000E+00 -0.45593999997E+02  0.45594000000E+02  0.51100000000E-03 0. -1.
    9900012    2    1    2    0    0  0.15592425229E+02 -0.13430040846E+02 -0.38211699168E+02  0.47787266424E+02  0.19999978933E+02 0.  0.
        -12    1    1    2    0    0 -0.15592425229E+02  0.13430040846E+02  0.38211699168E+02  0.43400733576E+02  0.00000000000E+00 0.  1.
         11    1    3    3    0    0  0.77552326394E+01 -0.46424097752E+01 -0.69015118970E+01  0.11372179586E+02  0.51100000000E-03 0. -1.
        -11    1    3    3    0    0  0.55222879176E+01  0.19848691721E+01 -0.19040027702E+02  0.19923805475E+02  0.51100000000E-03 0.  1.
        -12    1    3    3    0    0  0.23149046725E+01 -0.10772500243E+02 -0.12270159569E+02  0.16491281363E+02  0.00000000000E+00 0.  1.
</event>
<event>
 7    1  0.1400974E-009  0.4778727E+02  0.7816164E-02  0.1312668E+00
        -11   -1    0    0    0    0  0.00000000000E+00  0.00000000000E+00  0.45593999997E+02  0.45594000000E+02  0.51100000000E-03 0.  1.
         11   -1    0    0    0    0 -0.00000000000E+00 -0.00000000000E+00 -0.45593999997E+02  0.45594000000E+02  0.51100000000E-03 0. -1.
    9900012    2    1    2    0    0 -0.24036567194E+02 -0.13731111915E+02 -0.33426386164E+02  0.47787270872E+02  0.19999999214E+02 0.  0.
        -12    1    1    2    0    0  0.24036567194E+02  0.13731111915E+02  0.33426386164E+02  0.43400729128E+02  0.00000000000E+00 0.  1.
         11    1    3    3    0    0 -0.62349178776E+01 -0.50658023364E+01 -0.22841224233E+02  0.24212766859E+02  0.51100000000E-03 0. -1.
        -11    1    3    3    0    0 -0.93069203792E+01 -0.81063900509E+01 -0.78741345928E+01  0.14640161285E+02  0.51100000000E-03 0.  1.
        -12    1    3    3    0    0 -0.84947289372E+01 -0.55891952740E+00 -0.27110273376E+01  0.89343427279E+01  0.00000000000E+00 0.  1.
</event>
<event>
 7    1  0.1400974E-009  0.4778727E+02  0.7816164E-02  0.1312668E+00
        -11   -1    0    0    0    0  0.00000000000E+00  0.00000000000E+00  0.45593999997E+02  0.45594000000E+02  0.51100000000E-03 0.  1.
         11   -1    0    0    0    0 -0.00000000000E+00 -0.00000000000E+00 -0.45593999997E+02  0.45594000000E+02  0.51100000000E-03 0. -1.
    9900012    2    1    2    0    0  0.19472398319E+02 -0.15093678072E+02 -0.35729960447E+02  0.47787268582E+02  0.19999988774E+02 0.  0.
        -12    1    1    2    0    0 -0.19472398319E+02  0.15093678072E+02  0.35729960447E+02  0.43400731418E+02  0.00000000000E+00 0.  1.
         11    1    3    3    0    0  0.70888860096E+01 -0.98687106397E+01 -0.12865740050E+02  0.17696638716E+02  0.51100000000E-03 0. -1.
        -11    1    3    3    0    0  0.66985328507E+01  0.79704430506E+00 -0.20345333826E+02  0.21434510275E+02  0.51100000000E-03 0.  1.
         12    1    3    3    0    0  0.56849794591E+01 -0.60220117374E+01 -0.25188865703E+01  0.86561195908E+01  0.00000000000E+00 0. -1.
</event>
<event>
 7    1  0.1400974E-009  0.4778727E+02  0.7816164E-02  0.1312668E+00
        -11   -1    0    0    0    0  0.00000000000E+00  0.00000000000E+00  0.45593999997E+02  0.45594000000E+02  0.51100000000E-03 0.  1.
         11   -1    0    0    0    0 -0.00000000000E+00 -0.00000000000E+00 -0.45593999997E+02  0.45594000000E+02  0.51100000000E-03 0. -1.
    9900012    2    1    2    0    0  0.30708333227E+02  0.29812621666E+02 -0.71992373480E+01  0.47787272373E+02  0.20000006055E+02 0.  0.
        -12    1    1    2    0    0 -0.30708333227E+02 -0.29812621666E+02  0.71992373480E+01  0.43400727627E+02  0.00000000000E+00 0.  1.
         11    1    3    3    0    0  0.73490963692E+01  0.11176822322E+02 -0.45274851022E+01  0.14121922542E+02  0.51100000000E-03 0.  1.
        -11    1    3    3    0    0  0.16897328682E+02  0.47412387045E+01 -0.48002686961E+01  0.18194549757E+02  0.51100000000E-03 0. -1.
         12    1    3    3    0    0  0.64619081756E+01  0.13894560639E+02  0.21285164503E+01  0.15470800073E+02  0.00000000000E+00 0. -1.
</event>
<event>
 7    1  0.1400974E-009  0.4778728E+02  0.7816164E-02  0.1312668E+00
        -11   -1    0    0    0    0  0.00000000000E+00  0.00000000000E+00  0.45593999997E+02  0.45594000000E+02  0.51100000000E-03 0.  1.
         11   -1    0    0    0    0 -0.00000000000E+00 -0.00000000000E+00 -0.45593999997E+02  0.45594000000E+02  0.51100000000E-03 0. -1.
    9900012    2    1    2    0    0  0.13506038045E+02 -0.25910404957E+02 -0.32091431624E+02  0.47787284195E+02  0.20000059960E+02 0.  0.
        -12    1    1    2    0    0 -0.13506038045E+02  0.25910404957E+02  0.32091431624E+02  0.43400715805E+02  0.00000000000E+00 0.  1.
         11    1    3    3    0    0  0.11496015515E+01 -0.18936824374E+02 -0.11085860390E+02  0.21973192803E+02  0.51100000000E-03 0. -1.
        -11    1    3    3    0    0  0.64221101275E+01 -0.60582290709E+01 -0.14366832475E+02  0.16862725569E+02  0.51100000000E-03 0.  1.
         12    1    3    3    0    0  0.59343263656E+01 -0.91535151169E+00 -0.66387387587E+01  0.89513658237E+01  0.00000000000E+00 0. -1.
</event>
<event>
 7    1  0.1400974E-009  0.4778727E+02  0.7816164E-02  0.1312668E+00
        -11   -1    0    0    0    0  0.00000000000E+00  0.00000000000E+00  0.45593999997E+02  0.45594000000E+02  0.51100000000E-03 0.  1.
         11   -1    0    0    0    0 -0.00000000000E+00 -0.00000000000E+00 -0.45593999997E+02  0.45594000000E+02  0.51100000000E-03 0. -1.
    9900012    2    1    2    0    0  0.32893677944E+02  0.26357174477E+02 -0.10340620830E+02  0.47787272653E+02  0.20000007334E+02 0.  0.
        -12    1    1    2    0    0 -0.32893677944E+02 -0.26357174477E+02  0.10340620830E+02  0.43400727347E+02  0.00000000000E+00 0.  1.
         11    1    3    3    0    0  0.82057924556E+01  0.46390477903E+00 -0.53631735712E+01  0.98139629348E+01  0.51100000000E-03 0. -1.
        -11    1    3    3    0    0  0.15185567358E+01  0.85503123560E+01 -0.16759482922E+01  0.88443574603E+01  0.51100000000E-03 0.  1.
         12    1    3    3    0    0  0.23169328753E+02  0.17342957342E+02 -0.33014989664E+01  0.29128952258E+02  0.00000000000E+00 0. -1.
</event>
<event>
 7    1  0.1400974E-009  0.4778727E+02  0.7816164E-02  0.1312668E+00
        -11   -1    0    0    0    0  0.00000000000E+00  0.00000000000E+00  0.45593999997E+02  0.45594000000E+02  0.51100000000E-03 0. -1.
         11   -1    0    0    0    0 -0.00000000000E+00 -0.00000000000E+00 -0.45593999997E+02  0.45594000000E+02  0.51100000000E-03 0.  1.
    9900012    2    1    2    0    0  0.41980762994E+02 -0.61686635361E+01  0.91206584668E+01  0.47787270948E+02  0.19999999559E+02 0.  0.
        -12    1    1    2    0    0 -0.41980762994E+02  0.61686635361E+01 -0.91206584668E+01  0.43400729052E+02  0.00000000000E+00 0.  1.
         11    1    3    3    0    0  0.95256475122E+01 -0.65584071618E+01  0.59076792857E+01  0.12986583070E+02  0.51100000000E-03 0. -1.
        -11    1    3    3    0    0  0.23964984225E+02 -0.54846503910E-01  0.77204454513E+01  0.25177941839E+02  0.51100000000E-03 0.  1.
        -12    1    3    3    0    0  0.84901312572E+01  0.44459012965E+00 -0.45074662702E+01  0.96227460387E+01  0.00000000000E+00 0.  1.
</event>
<event>
 7    1  0.1400974E-009  0.4778726E+02  0.7816164E-02  0.1312668E+00
        -11   -1    0    0    0    0  0.00000000000E+00  0.00000000000E+00  0.45593999997E+02  0.45594000000E+02  0.51100000000E-03 0.  1.
         11   -1    0    0    0    0 -0.00000000000E+00 -0.00000000000E+00 -0.45593999997E+02  0.45594000000E+02  0.51100000000E-03 0. -1.
    9900012    2    1    2    0    0 -0.23921206070E+02  0.10928381508E+02 -0.34524926398E+02  0.47787260778E+02  0.19999953192E+02 0.  0.
        -12    1    1    2    0    0  0.23921206070E+02 -0.10928381508E+02  0.34524926398E+02  0.43400739222E+02  0.00000000000E+00 0.  1.
         11    1    3    3    0    0 -0.80158944452E+01 -0.52559721221E+00 -0.97774022206E+01  0.12654185498E+02  0.51100000000E-03 0.  1.
        -11    1    3    3    0    0 -0.14674351975E+02  0.14338488597E+02 -0.16561574406E+02  0.26366922615E+02  0.51100000000E-03 0. -1.
         12    1    3    3    0    0 -0.12309596504E+01 -0.28845098764E+01 -0.81859497707E+01  0.87661526644E+01  0.00000000000E+00 0. -1.
</event>
<event>
 7    1  0.1400974E-009  0.4778728E+02  0.7816164E-02  0.1312668E+00
        -11   -1    0    0    0    0  0.00000000000E+00  0.00000000000E+00  0.45593999997E+02  0.45594000000E+02  0.51100000000E-03 0. -1.
         11   -1    0    0    0    0 -0.00000000000E+00 -0.00000000000E+00 -0.45593999997E+02  0.45594000000E+02  0.51100000000E-03 0.  1.
    9900012    2    1    2    0    0  0.22688889746E+01 -0.41552834314E+02 -0.12322213386E+02  0.47787276049E+02  0.20000022818E+02 0.  0.
        -12    1    1    2    0    0 -0.22688889746E+01  0.41552834314E+02  0.12322213386E+02  0.43400723951E+02  0.00000000000E+00 0.  1.
         11    1    3    3    0    0  0.35529742474E+01 -0.28693109078E+02 -0.10149598388E+02  0.30642005193E+02  0.51100000000E-03 0. -1.
        -11    1    3    3    0    0  0.17359260266E+01 -0.22276013209E+00 -0.36704915346E+01  0.40663951619E+01  0.51100000000E-03 0.  1.
        -12    1    3    3    0    0 -0.30200112994E+01 -0.12636965104E+02  0.14978765365E+01  0.13078875694E+02  0.00000000000E+00 0.  1.
</event>
<event>
 7    1  0.1400974E-009  0.4778727E+02  0.7816164E-02  0.1312668E+00
        -11   -1    0    0    0    0  0.00000000000E+00  0.00000000000E+00  0.45593999997E+02  0.45594000000E+02  0.51100000000E-03 0. -1.
         11   -1    0    0    0    0 -0.00000000000E+00 -0.00000000000E+00 -0.45593999997E+02  0.45594000000E+02  0.51100000000E-03 0.  1.
    9900012    2    1    2    0    0  0.39801920509E+02  0.15915633615E+02  0.67913728896E+01  0.47787274023E+02  0.20000013583E+02 0.  0.
        -12    1    1    2    0    0 -0.39801920509E+02 -0.15915633615E+02 -0.67913728896E+01  0.43400725977E+02  0.00000000000E+00 0.  1.
         11    1    3    3    0    0  0.22237683573E+02  0.13965691996E+02  0.53818017569E+01  0.26805203115E+02  0.51100000000E-03 0. -1.
        -11    1    3    3    0    0  0.12796858457E+02  0.20911378520E+01 -0.41898468073E+01  0.13626711284E+02  0.51100000000E-03 0.  1.
        -12    1    3    3    0    0  0.47673784786E+01 -0.14119623329E+00  0.55994179401E+01  0.73553596243E+01  0.00000000000E+00 0.  1.
</event>
<event>
 7    1  0.1400974E-009  0.4778727E+02  0.7816164E-02  0.1312668E+00
        -11   -1    0    0    0    0  0.00000000000E+00  0.00000000000E+00  0.45593999997E+02  0.45594000000E+02  0.51100000000E-03 0.  1.
         11   -1    0    0    0    0 -0.00000000000E+00 -0.00000000000E+00 -0.45593999997E+02  0.45594000000E+02  0.51100000000E-03 0. -1.
    9900012    2    1    2    0    0 -0.27529425704E+02  0.12045258587E+02 -0.31315589473E+02  0.47787266388E+02  0.19999978769E+02 0.  0.
        -12    1    1    2    0    0  0.27529425704E+02 -0.12045258587E+02  0.31315589473E+02  0.43400733612E+02  0.00000000000E+00 0.  1.
         11    1    3    3    0    0 -0.17454795919E+02  0.73885551167E+01 -0.21672058367E+02  0.28791296626E+02  0.51100000000E-03 0. -1.
        -11    1    3    3    0    0 -0.31602153051E+01  0.79314653242E+01 -0.64734554807E+01  0.10714510212E+02  0.51100000000E-03 0.  1.
         12    1    3    3    0    0 -0.69144144799E+01 -0.32747618541E+01 -0.31700756256E+01  0.82814595497E+01  0.00000000000E+00 0. -1.
</event>
<event>
 7    1  0.1400974E-009  0.4778727E+02  0.7816164E-02  0.1312668E+00
        -11   -1    0    0    0    0  0.00000000000E+00  0.00000000000E+00  0.45593999997E+02  0.45594000000E+02  0.51100000000E-03 0.  1.
         11   -1    0    0    0    0 -0.00000000000E+00 -0.00000000000E+00 -0.45593999997E+02  0.45594000000E+02  0.51100000000E-03 0. -1.
    9900012    2    1    2    0    0  0.26799973843E+02  0.21530592061E+02 -0.26491850199E+02  0.47787272824E+02  0.20000008112E+02 0.  0.
        -12    1    1    2    0    0 -0.26799973843E+02 -0.21530592061E+02  0.26491850199E+02  0.43400727176E+02  0.00000000000E+00 0.  1.
         11    1    3    3    0    0  0.38166156271E+01  0.55872052742E+01  0.13326660522E+01  0.68963335685E+01  0.51100000000E-03 0.  1.
        -11    1    3    3    0    0  0.90265199941E+01  0.40945233094E+00 -0.73836058954E+01  0.11668905291E+02  0.51100000000E-03 0. -1.
        -12    1    3    3    0    0  0.13956838222E+02  0.15533934456E+02 -0.20440910355E+02  0.29222033964E+02  0.00000000000E+00 0.  1.
</event>
<event>
 7    1  0.1400974E-009  0.4778726E+02  0.7816164E-02  0.1312668E+00
        -11   -1    0    0    0    0  0.00000000000E+00  0.00000000000E+00  0.45593999997E+02  0.45594000000E+02  0.51100000000E-03 0.  1.
         11   -1    0    0    0    0 -0.00000000000E+00 -0.00000000000E+00 -0.45593999997E+02  0.45594000000E+02  0.51100000000E-03 0. -1.
    9900012    2    1    2    0    0  0.40051621501E+02 -0.15721488328E+02 -0.56856257355E+01  0.47787263599E+02  0.19999966054E+02 0.  0.
        -12    1    1    2    0    0 -0.40051621501E+02  0.15721488328E+02  0.56856257355E+01  0.43400736401E+02  0.00000000000E+00 0.  1.
         11    1    3    3    0    0  0.22320919951E+02 -0.98983878800E+01  0.65385955512E+01  0.25277554908E+02  0.51100000000E-03 0.  1.
        -11    1    3    3    0    0  0.51882459646E+01 -0.29839728945E+01 -0.47040998823E+01  0.76125256248E+01  0.51100000000E-03 0. -1.
        -12    1    3    3    0    0  0.12542455586E+02 -0.28391275538E+01 -0.75201214044E+01  0.14897183067E+02  0.00000000000E+00 0.  1.
</event>
<event>
 7    1  0.1400974E-009  0.4778727E+02  0.7816164E-02  0.1312668E+00
        -11   -1    0    0    0    0  0.00000000000E+00  0.00000000000E+00  0.45593999997E+02  0.45594000000E+02  0.51100000000E-03 0.  1.
         11   -1    0    0    0    0 -0.00000000000E+00 -0.00000000000E+00 -0.45593999997E+02  0.45594000000E+02  0.51100000000E-03 0. -1.
    9900012    2    1    2    0    0 -0.38321465679E+02  0.16838388989E+02 -0.11469837191E+02  0.47787271426E+02  0.20000001740E+02 0.  0.
        -12    1    1    2    0    0  0.38321465679E+02 -0.16838388989E+02  0.11469837191E+02  0.43400728574E+02  0.00000000000E+00 0.  1.
         11    1    3    3    0    0 -0.50667121275E+01 -0.17065788181E+01  0.18714788536E+01  0.56644873030E+01  0.51100000000E-03 0. -1.
        -11    1    3    3    0    0 -0.26571176190E+02  0.10863982838E+02 -0.53988811064E+01  0.29209612197E+02  0.51100000000E-03 0.  1.
         12    1    3    3    0    0 -0.66835773622E+01  0.76809849692E+01 -0.79424349384E+01  0.12913171926E+02  0.00000000000E+00 0. -1.
</event>
<event>
 7    1  0.1400974E-009  0.4778727E+02  0.7816164E-02  0.1312668E+00
        -11   -1    0    0    0    0  0.00000000000E+00  0.00000000000E+00  0.45593999997E+02  0.45594000000E+02  0.51100000000E-03 0.  1.
         11   -1    0    0    0    0 -0.00000000000E+00 -0.00000000000E+00 -0.45593999997E+02  0.45594000000E+02  0.51100000000E-03 0. -1.
    9900012    2    1    2    0    0  0.42642749687E+02 -0.72018313559E+01 -0.36541562569E+01  0.47787270356E+02  0.19999996859E+02 0.  0.
        -12    1    1    2    0    0 -0.42642749687E+02  0.72018313559E+01  0.36541562569E+01  0.43400729644E+02  0.00000000000E+00 0.  1.
         11    1    3    3    0    0  0.14020904449E+01 -0.31801990954E+00 -0.41566887527E+01  0.43983014820E+01  0.51100000000E-03 0. -1.
        -11    1    3    3    0    0  0.27991148141E+02 -0.17760275683E+01 -0.43500131831E+01  0.28382763486E+02  0.51100000000E-03 0.  1.
        -12    1    3    3    0    0  0.13249511101E+02 -0.51077838781E+01  0.48525456789E+01  0.15006205387E+02  0.00000000000E+00 0.  1.
</event>
<event>
 7    1  0.1400974E-009  0.4778727E+02  0.7816164E-02  0.1312668E+00
        -11   -1    0    0    0    0  0.00000000000E+00  0.00000000000E+00  0.45593999997E+02  0.45594000000E+02  0.51100000000E-03 0. -1.
         11   -1    0    0    0    0 -0.00000000000E+00 -0.00000000000E+00 -0.45593999997E+02  0.45594000000E+02  0.51100000000E-03 0.  1.
    9900012    2    1    2    0    0  0.38668193586E+02  0.11125437133E+02  0.16267119319E+02  0.47787265933E+02  0.19999976697E+02 0.  0.
        -12    1    1    2    0    0 -0.38668193586E+02 -0.11125437133E+02 -0.16267119319E+02  0.43400734067E+02  0.00000000000E+00 0.  1.
         11    1    3    3    0    0  0.25811970287E+02  0.43231710133E+01  0.17301390032E+01  0.26228629376E+02  0.51100000000E-03 0.  1.
        -11    1    3    3    0    0  0.10784271458E+02  0.33208336208E+01  0.78705195420E+01  0.13757671494E+02  0.51100000000E-03 0. -1.
        -12    1    3    3    0    0  0.20719518408E+01  0.34814324986E+01  0.66664607737E+01  0.78009650634E+01  0.00000000000E+00 0.  1.
</event>
<event>
 7    1  0.1400974E-009  0.4778728E+02  0.7816164E-02  0.1312668E+00
        -11   -1    0    0    0    0  0.00000000000E+00  0.00000000000E+00  0.45593999997E+02  0.45594000000E+02  0.51100000000E-03 0. -1.
         11   -1    0    0    0    0 -0.00000000000E+00 -0.00000000000E+00 -0.45593999997E+02  0.45594000000E+02  0.51100000000E-03 0.  1.
    9900012    2    1    2    0    0  0.16221831640E+02  0.13511528515E+02  0.37919823772E+02  0.47787282731E+02  0.20000053283E+02 0.  0.
        -12    1    1    2    0    0 -0.16221831640E+02 -0.13511528515E+02 -0.37919823772E+02  0.43400717269E+02  0.00000000000E+00 0.  1.
         11    1    3    3    0    0  0.71284711776E+01  0.12336542636E+02  0.17341499641E+02  0.22443996872E+02  0.51100000000E-03 0. -1.
        -11    1    3    3    0    0  0.14883777108E+01  0.14054656544E+01  0.16659674620E+02  0.16784974251E+02  0.51100000000E-03 0.  1.
         12    1    3    3    0    0  0.76049827519E+01 -0.23047977505E+00  0.39186495114E+01  0.85583116078E+01  0.00000000000E+00 0. -1.
</event>
<event>
 7    1  0.1400974E-009  0.4778727E+02  0.7816164E-02  0.1312668E+00
        -11   -1    0    0    0    0  0.00000000000E+00  0.00000000000E+00  0.45593999997E+02  0.45594000000E+02  0.51100000000E-03 0.  1.
         11   -1    0    0    0    0 -0.00000000000E+00 -0.00000000000E+00 -0.45593999997E+02  0.45594000000E+02  0.51100000000E-03 0. -1.
    9900012    2    1    2    0    0  0.39059004009E+02 -0.17686604554E+02  0.67232171962E+01  0.47787269311E+02  0.19999992098E+02 0.  0.
        -12    1    1    2    0    0 -0.39059004009E+02  0.17686604554E+02 -0.67232171962E+01  0.43400730689E+02  0.00000000000E+00 0.  1.
         11    1    3    3    0    0  0.18234259747E+02 -0.53674890389E+01 -0.78788615040E+00  0.19024167050E+02  0.51100000000E-03 0. -1.
        -11    1    3    3    0    0  0.65658032860E+01 -0.56870338948E+01 -0.37088630445E+01  0.94449877002E+01  0.51100000000E-03 0.  1.
         12    1    3    3    0    0  0.14258940977E+02 -0.66320816201E+01  0.11219966391E+02  0.19318114561E+02  0.00000000000E+00 0. -1.
</event>
<event>
 7    1  0.1400974E-009  0.4778727E+02  0.7816164E-02  0.1312668E+00
        -11   -1    0    0    0    0  0.00000000000E+00  0.00000000000E+00  0.45593999997E+02  0.45594000000E+02  0.51100000000E-03 0.  1.
         11   -1    0    0    0    0 -0.00000000000E+00 -0.00000000000E+00 -0.45593999997E+02  0.45594000000E+02  0.51100000000E-03 0. -1.
    9900012    2    1    2    0    0 -0.51035220385E+01 -0.24106697323E+02 -0.35727368286E+02  0.47787266853E+02  0.19999980889E+02 0.  0.
        -12    1    1    2    0    0  0.51035220385E+01  0.24106697323E+02  0.35727368286E+02  0.43400733147E+02  0.00000000000E+00 0.  1.
         11    1    3    3    0    0  0.38642445193E+01 -0.11804217179E+02 -0.23395755791E+02  0.26488361939E+02  0.51100000000E-03 0. -1.
        -11    1    3    3    0    0 -0.35348599788E+01 -0.11130534444E+02 -0.95383313865E+01  0.15078587400E+02  0.51100000000E-03 0.  1.
         12    1    3    3    0    0 -0.54329065790E+01 -0.11719457002E+01 -0.27932811086E+01  0.62203175138E+01  0.00000000000E+00 0. -1.
</event>
<event>
 7    1  0.1400974E-009  0.4778727E+02  0.7816164E-02  0.1312668E+00
        -11   -1    0    0    0    0  0.00000000000E+00  0.00000000000E+00  0.45593999997E+02  0.45594000000E+02  0.51100000000E-03 0.  1.
         11   -1    0    0    0    0 -0.00000000000E+00 -0.00000000000E+00 -0.45593999997E+02  0.45594000000E+02  0.51100000000E-03 0. -1.
    9900012    2    1    2    0    0 -0.42403766632E+02  0.46289997126E+01 -0.80072751356E+01  0.47787268232E+02  0.19999987178E+02 0.  0.
        -12    1    1    2    0    0  0.42403766632E+02 -0.46289997126E+01  0.80072751356E+01  0.43400731768E+02  0.00000000000E+00 0.  1.
         11    1    3    3    0    0 -0.18081583508E+02  0.14834732266E+01  0.14162763743E+00  0.18142888790E+02  0.51100000000E-03 0. -1.
        -11    1    3    3    0    0 -0.14423321736E+02  0.60172307552E+01 -0.10806201651E+02  0.19000349214E+02  0.51100000000E-03 0.  1.
        -12    1    3    3    0    0 -0.98988613877E+01 -0.28717042693E+01  0.26572988784E+01  0.10644030229E+02  0.00000000000E+00 0.  1.
</event>
<event>
 7    1  0.1400974E-009  0.4778727E+02  0.7816164E-02  0.1312668E+00
        -11   -1    0    0    0    0  0.00000000000E+00  0.00000000000E+00  0.45593999997E+02  0.45594000000E+02  0.51100000000E-03 0. -1.
         11   -1    0    0    0    0 -0.00000000000E+00 -0.00000000000E+00 -0.45593999997E+02  0.45594000000E+02  0.51100000000E-03 0.  1.
    9900012    2    1    2    0    0 -0.39308801604E+02  0.19801270007E+01  0.18289908571E+02  0.47787267955E+02  0.19999985913E+02 0.  0.
        -12    1    1    2    0    0  0.39308801604E+02 -0.19801270007E+01 -0.18289908571E+02  0.43400732045E+02  0.00000000000E+00 0.  1.
         11    1    3    3    0    0 -0.11378661880E+02 -0.72157367853E+00  0.18990689023E+01  0.11558593241E+02  0.51100000000E-03 0. -1.
        -11    1    3    3    0    0 -0.10251095254E+02  0.79366566608E+01  0.11045366226E+02  0.17031605567E+02  0.51100000000E-03 0.  1.
        -12    1    3    3    0    0 -0.17679044470E+02 -0.52349559815E+01  0.53454734431E+01  0.19197069147E+02  0.00000000000E+00 0.  1.
</event>
<event>
 7    1  0.1400974E-009  0.4778728E+02  0.7816164E-02  0.1312668E+00
        -11   -1    0    0    0    0  0.00000000000E+00  0.00000000000E+00  0.45593999997E+02  0.45594000000E+02  0.51100000000E-03 0. -1.
         11   -1    0    0    0    0 -0.00000000000E+00 -0.00000000000E+00 -0.45593999997E+02  0.45594000000E+02  0.51100000000E-03 0.  1.
    9900012    2    1    2    0    0  0.19191334721E+02  0.37709621130E+02 -0.96591960300E+01  0.47787275097E+02  0.20000018479E+02 0.  0.
        -12    1    1    2    0    0 -0.19191334721E+02 -0.37709621130E+02  0.96591960300E+01  0.43400724903E+02  0.00000000000E+00 0.  1.
         11    1    3    3    0    0  0.85270768271E+00 -0.22770561298E+01  0.32877481042E+00  0.24536071706E+01  0.51100000000E-03 0.  1.
        -11    1    3    3    0    0  0.70845758894E+01  0.19630280693E+02 -0.32817618168E+01  0.21126028886E+02  0.51100000000E-03 0. -1.
        -12    1    3    3    0    0  0.11254051149E+02  0.20356396567E+02 -0.67062090236E+01  0.24207639041E+02  0.00000000000E+00 0.  1.
</event>
<event>
 7    1  0.1400974E-009  0.4778727E+02  0.7816164E-02  0.1312668E+00
        -11   -1    0    0    0    0  0.00000000000E+00  0.00000000000E+00  0.45593999997E+02  0.45594000000E+02  0.51100000000E-03 0.  1.
         11   -1    0    0    0    0 -0.00000000000E+00 -0.00000000000E+00 -0.45593999997E+02  0.45594000000E+02  0.51100000000E-03 0. -1.
    9900012    2    1    2    0    0 -0.61759737408E+01  0.42958878353E+02 -0.12372553610E+00  0.47787272022E+02  0.20000004459E+02 0.  0.
        -12    1    1    2    0    0  0.61759737408E+01 -0.42958878353E+02  0.12372553610E+00  0.43400727978E+02  0.00000000000E+00 0.  1.
         11    1    3    3    0    0 -0.52973055432E+01  0.21386512460E+02 -0.86339791892E+01  0.23664106958E+02  0.51100000000E-03 0. -1.
        -11    1    3    3    0    0 -0.18866830431E+01  0.18115653871E+02  0.45552867621E+01  0.18774640498E+02  0.51100000000E-03 0.  1.
        -12    1    3    3    0    0  0.10080148454E+01  0.34567120224E+01  0.39549668910E+01  0.53485245669E+01  0.00000000000E+00 0.  1.
</event>
<event>
 7    1  0.1400974E-009  0.4778727E+02  0.7816164E-02  0.1312668E+00
        -11   -1    0    0    0    0  0.00000000000E+00  0.00000000000E+00  0.45593999997E+02  0.45594000000E+02  0.51100000000E-03 0. -1.
         11   -1    0    0    0    0 -0.00000000000E+00 -0.00000000000E+00 -0.45593999997E+02  0.45594000000E+02  0.51100000000E-03 0.  1.
    9900012    2    1    2    0    0 -0.37250327700E+02 -0.11601053598E+02  0.19011893821E+02  0.47787268842E+02  0.19999989959E+02 0.  0.
        -12    1    1    2    0    0  0.37250327700E+02  0.11601053598E+02 -0.19011893821E+02  0.43400731158E+02  0.00000000000E+00 0.  1.
         11    1    3    3    0    0 -0.16024040177E+02 -0.26646564483E+01  0.86972100251E+01  0.18425843809E+02  0.51100000000E-03 0. -1.
        -11    1    3    3    0    0 -0.66484328486E+01 -0.10506375575E+02  0.72155628670E+01  0.14375323816E+02  0.51100000000E-03 0.  1.
         12    1    3    3    0    0 -0.14577854674E+02  0.15699784249E+01  0.30991209291E+01  0.14986101217E+02  0.00000000000E+00 0. -1.
</event>
<event>
 7    1  0.1400974E-009  0.4778727E+02  0.7816164E-02  0.1312668E+00
        -11   -1    0    0    0    0  0.00000000000E+00  0.00000000000E+00  0.45593999997E+02  0.45594000000E+02  0.51100000000E-03 0. -1.
         11   -1    0    0    0    0 -0.00000000000E+00 -0.00000000000E+00 -0.45593999997E+02  0.45594000000E+02  0.51100000000E-03 0.  1.
    9900012    2    1    2    0    0 -0.95770605483E+01 -0.93639898208E+01  0.41282183252E+02  0.47787273645E+02  0.20000011855E+02 0.  0.
        -12    1    1    2    0    0  0.95770605483E+01  0.93639898208E+01 -0.41282183252E+02  0.43400726355E+02  0.00000000000E+00 0.  1.
         11    1    3    3    0    0 -0.14696765191E+01 -0.23425945428E+01  0.29014126914E+01  0.40082283031E+01  0.51100000000E-03 0. -1.
        -11    1    3    3    0    0 -0.55751506684E+01 -0.43635082265E+01  0.22016591640E+01  0.74141629571E+01  0.51100000000E-03 0.  1.
         12    1    3    3    0    0 -0.25322333608E+01 -0.26578870515E+01  0.36179111397E+02  0.36364882384E+02  0.00000000000E+00 0. -1.
</event>
<event>
 7    1  0.1720723E-009  0.4778727E+02  0.7816164E-02  0.1312668E+00
        -11   -1    0    0    0    0  0.00000000000E+00  0.00000000000E+00  0.45593999997E+02  0.45594000000E+02  0.51100000000E-03 0.  1.
         11   -1    0    0    0    0 -0.00000000000E+00 -0.00000000000E+00 -0.45593999997E+02  0.45594000000E+02  0.51100000000E-03 0. -1.
    9900012    2    1    2    0    0  0.39217529292E+02  0.17880398065E+02 -0.50892158692E+01  0.47787270088E+02  0.19999995638E+02 0.  0.
        -12    1    1    2    0    0 -0.39217529292E+02 -0.17880398065E+02  0.50892158692E+01  0.43400729912E+02  0.00000000000E+00 0.  1.
         11    1    3    3    0    0  0.96965416377E+01  0.98387720795E+01  0.14821428138E+01  0.13893203495E+02  0.51100000000E-03 0.  1.
        -11    1    3    3    0    0  0.39342991915E+01  0.68000100124E+00 -0.60691370177E+01  0.72646772737E+01  0.51100000000E-03 0. -1.
         12    1    3    3    0    0  0.25586688463E+02  0.73616249843E+01 -0.50222166538E+00  0.26629389319E+02  0.00000000000E+00 0. -1.
</event>
<event>
 7    1  0.1400974E-009  0.4778727E+02  0.7816164E-02  0.1312668E+00
        -11   -1    0    0    0    0  0.00000000000E+00  0.00000000000E+00  0.45593999997E+02  0.45594000000E+02  0.51100000000E-03 0.  1.
         11   -1    0    0    0    0 -0.00000000000E+00 -0.00000000000E+00 -0.45593999997E+02  0.45594000000E+02  0.51100000000E-03 0. -1.
    9900012    2    1    2    0    0  0.23018676159E+02 -0.34463768837E+02 -0.12884579529E+02  0.47787271847E+02  0.20000003658E+02 0.  0.
        -12    1    1    2    0    0 -0.23018676159E+02  0.34463768837E+02  0.12884579529E+02  0.43400728153E+02  0.00000000000E+00 0.  1.
         11    1    3    3    0    0  0.15230651430E+02 -0.10179306512E+02 -0.67291417257E+01  0.19515951749E+02  0.51100000000E-03 0.  1.
        -11    1    3    3    0    0  0.76031404567E+01 -0.90779216159E+01  0.62840943231E-01  0.11841467600E+02  0.51100000000E-03 0. -1.
        -12    1    3    3    0    0  0.18488427309E+00 -0.15206540710E+02 -0.62182787465E+01  0.16429852498E+02  0.00000000000E+00 0.  1.
</event>
<event>
 7    1  0.1400974E-009  0.4778727E+02  0.7816164E-02  0.1312668E+00
        -11   -1    0    0    0    0  0.00000000000E+00  0.00000000000E+00  0.45593999997E+02  0.45594000000E+02  0.51100000000E-03 0.  1.
         11   -1    0    0    0    0 -0.00000000000E+00 -0.00000000000E+00 -0.45593999997E+02  0.45594000000E+02  0.51100000000E-03 0. -1.
    9900012    2    1    2    0    0  0.30878470879E+02  0.28592754182E+01 -0.30363926631E+02  0.47787268898E+02  0.19999990213E+02 0.  0.
        -12    1    1    2    0    0 -0.30878470879E+02 -0.28592754182E+01  0.30363926631E+02  0.43400731102E+02  0.00000000000E+00 0.  1.
         11    1    3    3    0    0  0.18353020384E+02  0.16716833761E+01 -0.16759889464E+02  0.24910274540E+02  0.51100000000E-03 0. -1.
        -11    1    3    3    0    0  0.10221730035E+02 -0.14232494083E+01 -0.15718212390E+02  0.18803499801E+02  0.51100000000E-03 0.  1.
        -12    1    3    3    0    0  0.23037204592E+01  0.26108414504E+01  0.21141752225E+01  0.40734945568E+01  0.00000000000E+00 0.  1.
</event>
<event>
 7    1  0.1400974E-009  0.4778727E+02  0.7816164E-02  0.1312668E+00
        -11   -1    0    0    0    0  0.00000000000E+00  0.00000000000E+00  0.45593999997E+02  0.45594000000E+02  0.51100000000E-03 0.  1.
         11   -1    0    0    0    0 -0.00000000000E+00 -0.00000000000E+00 -0.45593999997E+02  0.45594000000E+02  0.51100000000E-03 0. -1.
    9900012    2    1    2    0    0 -0.35853771106E+02  0.19180929606E+02 -0.15173076157E+02  0.47787271859E+02  0.20000003715E+02 0.  0.
        -12    1    1    2    0    0  0.35853771106E+02 -0.19180929606E+02  0.15173076157E+02  0.43400728141E+02  0.00000000000E+00 0.  1.
         11    1    3    3    0    0 -0.13569538768E+02  0.22197878284E+01 -0.16818618997E+01  0.13852382470E+02  0.51100000000E-03 0. -1.
        -11    1    3    3    0    0 -0.19601802019E+01  0.52775940423E+00 -0.65998902885E+01  0.69050263210E+01  0.51100000000E-03 0.  1.
         12    1    3    3    0    0 -0.20324052137E+02  0.16433382373E+02 -0.68913239686E+01  0.27029863069E+02  0.00000000000E+00 0. -1.
</event>
<event>
 7    1  0.1400974E-009  0.4778730E+02  0.7816164E-02  0.1312668E+00
        -11   -1    0    0    0    0  0.00000000000E+00  0.00000000000E+00  0.45593999997E+02  0.45594000000E+02  0.51100000000E-03 0. -1.
         11   -1    0    0    0    0 -0.00000000000E+00 -0.00000000000E+00 -0.45593999997E+02  0.45594000000E+02  0.51100000000E-03 0.  1.
    9900012    2    1    2    0    0 -0.33540046571E+02  0.71369454025E+01 -0.26603574178E+02  0.47787298707E+02  0.20000126125E+02 0.  0.
        -12    1    1    2    0    0  0.33540046571E+02 -0.71369454025E+01  0.26603574178E+02  0.43400701293E+02  0.00000000000E+00 0.  1.
         11    1    3    3    0    0 -0.27027320235E+02  0.90072996837E+01 -0.16427304346E+02  0.32885617145E+02  0.51100000000E-03 0. -1.
        -11    1    3    3    0    0  0.56416483648E+00  0.23242742530E+01 -0.10419302941E+01  0.26088602425E+01  0.51100000000E-03 0.  1.
        -12    1    3    3    0    0 -0.70768911727E+01 -0.41946285342E+01 -0.91343395374E+01  0.12292821320E+02  0.00000000000E+00 0.  1.
</event>
<event>
 7    1  0.1400974E-009  0.4778727E+02  0.7816164E-02  0.1312668E+00
        -11   -1    0    0    0    0  0.00000000000E+00  0.00000000000E+00  0.45593999997E+02  0.45594000000E+02  0.51100000000E-03 0.  1.
         11   -1    0    0    0    0 -0.00000000000E+00 -0.00000000000E+00 -0.45593999997E+02  0.45594000000E+02  0.51100000000E-03 0. -1.
    9900012    2    1    2    0    0  0.21682900878E+02 -0.41089653255E+01 -0.37370995812E+02  0.47787272880E+02  0.20000008370E+02 0.  0.
        -12    1    1    2    0    0 -0.21682900878E+02  0.41089653255E+01  0.37370995812E+02  0.43400727120E+02  0.00000000000E+00 0.  1.
         11    1    3    3    0    0  0.54013206960E+01  0.48554969661E+01 -0.64411826761E+01  0.97076748286E+01  0.51100000000E-03 0. -1.
        -11    1    3    3    0    0  0.31680054904E+01  0.11447741737E+01 -0.45768976517E+00  0.33994480255E+01  0.51100000000E-03 0.  1.
        -12    1    3    3    0    0  0.13113574692E+02 -0.10109236465E+02 -0.30472123371E+02  0.34680150026E+02  0.00000000000E+00 0.  1.
</event>
<event>
 7    1  0.1400974E-009  0.4778724E+02  0.7816164E-02  0.1312668E+00
        -11   -1    0    0    0    0  0.00000000000E+00  0.00000000000E+00  0.45593999997E+02  0.45594000000E+02  0.51100000000E-03 0.  1.
         11   -1    0    0    0    0 -0.00000000000E+00 -0.00000000000E+00 -0.45593999997E+02  0.45594000000E+02  0.51100000000E-03 0. -1.
    9900012    2    1    2    0    0 -0.10489722315E+02  0.39943974993E+02 -0.13344303770E+02  0.47787241302E+02  0.19999864391E+02 0.  0.
        -12    1    1    2    0    0  0.10489722315E+02 -0.39943974993E+02  0.13344303770E+02  0.43400758698E+02  0.00000000000E+00 0.  1.
         11    1    3    3    0    0  0.69660352490E-01 -0.91859327444E+00 -0.16215996456E+00  0.93539418631E+00  0.51100000000E-03 0. -1.
        -11    1    3    3    0    0 -0.90954381181E+01  0.92507487112E+01 -0.64912904320E+01  0.14506557070E+02  0.51100000000E-03 0.  1.
         12    1    3    3    0    0 -0.14639445493E+01  0.31611819556E+02 -0.66908533739E+01  0.32345290046E+02  0.00000000000E+00 0. -1.
</event>
<event>
 7    1  0.1400974E-009  0.4778727E+02  0.7816164E-02  0.1312668E+00
        -11   -1    0    0    0    0  0.00000000000E+00  0.00000000000E+00  0.45593999997E+02  0.45594000000E+02  0.51100000000E-03 0.  1.
         11   -1    0    0    0    0 -0.00000000000E+00 -0.00000000000E+00 -0.45593999997E+02  0.45594000000E+02  0.51100000000E-03 0. -1.
    9900012    2    1    2    0    0  0.16273241259E+02 -0.21777131458E+02 -0.33831371414E+02  0.47787268124E+02  0.19999986683E+02 0.  0.
        -12    1    1    2    0    0 -0.16273241259E+02  0.21777131458E+02  0.33831371414E+02  0.43400731876E+02  0.00000000000E+00 0.  1.
         11    1    3    3    0    0  0.13330479698E+02 -0.12901744413E+02 -0.24573570530E+02  0.30789885786E+02  0.51100000000E-03 0. -1.
        -11    1    3    3    0    0  0.49040655187E+01 -0.27642444951E+01  0.12334976630E+00  0.56308189161E+01  0.51100000000E-03 0.  1.
         12    1    3    3    0    0 -0.19613039574E+01 -0.61111425500E+01 -0.93811506511E+01  0.11366563422E+02  0.00000000000E+00 0. -1.
</event>
<event>
 7    1  0.1400974E-009  0.4778727E+02  0.7816164E-02  0.1312668E+00
        -11   -1    0    0    0    0  0.00000000000E+00  0.00000000000E+00  0.45593999997E+02  0.45594000000E+02  0.51100000000E-03 0. -1.
         11   -1    0    0    0    0 -0.00000000000E+00 -0.00000000000E+00 -0.45593999997E+02  0.45594000000E+02  0.51100000000E-03 0.  1.
    9900012    2    1    2    0    0  0.21604870737E+02  0.37192439309E+02 -0.57943979581E+01  0.47787273865E+02  0.20000012862E+02 0.  0.
        -12    1    1    2    0    0 -0.21604870737E+02 -0.37192439309E+02  0.57943979581E+01  0.43400726135E+02  0.00000000000E+00 0.  1.
         11    1    3    3    0    0  0.18875983420E+02  0.17633335850E+02 -0.44172604369E+01  0.26205905313E+02  0.51100000000E-03 0. -1.
        -11    1    3    3    0    0  0.42974280839E+01  0.19406935191E+02 -0.76813655900E+00  0.19891884166E+02  0.51100000000E-03 0.  1.
        -12    1    3    3    0    0 -0.15685407666E+01  0.15216826764E+00 -0.60900096221E+00  0.16894843859E+01  0.00000000000E+00 0.  1.
</event>
<event>
 7    1  0.1400974E-009  0.4778727E+02  0.7816164E-02  0.1312668E+00
        -11   -1    0    0    0    0  0.00000000000E+00  0.00000000000E+00  0.45593999997E+02  0.45594000000E+02  0.51100000000E-03 0.  1.
         11   -1    0    0    0    0 -0.00000000000E+00 -0.00000000000E+00 -0.45593999997E+02  0.45594000000E+02  0.51100000000E-03 0. -1.
    9900012    2    1    2    0    0 -0.20559578301E+02  0.23395407433E+02 -0.30225512384E+02  0.47787274802E+02  0.20000017132E+02 0.  0.
        -12    1    1    2    0    0  0.20559578301E+02 -0.23395407433E+02  0.30225512384E+02  0.43400725198E+02  0.00000000000E+00 0.  1.
         11    1    3    3    0    0 -0.14134733197E+02  0.65436382891E+01 -0.16540829425E+02  0.22720231578E+02  0.51100000000E-03 0. -1.
        -11    1    3    3    0    0 -0.13050938148E+01 -0.13468725509E+01 -0.29018068722E+00  0.18977725433E+01  0.51100000000E-03 0.  1.
         12    1    3    3    0    0 -0.51197512892E+01  0.18198641694E+02 -0.13394502272E+02  0.23169270681E+02  0.00000000000E+00 0. -1.
</event>
<event>
 7    1  0.1400974E-009  0.4778727E+02  0.7816164E-02  0.1312668E+00
        -11   -1    0    0    0    0  0.00000000000E+00  0.00000000000E+00  0.45593999997E+02  0.45594000000E+02  0.51100000000E-03 0.  1.
         11   -1    0    0    0    0 -0.00000000000E+00 -0.00000000000E+00 -0.45593999997E+02  0.45594000000E+02  0.51100000000E-03 0. -1.
    9900012    2    1    2    0    0  0.17589414355E+02  0.80739928372E+01 -0.38846447149E+02  0.47787270585E+02  0.19999997906E+02 0.  0.
        -12    1    1    2    0    0 -0.17589414355E+02 -0.80739928372E+01  0.38846447149E+02  0.43400729415E+02  0.00000000000E+00 0.  1.
         11    1    3    3    0    0 -0.17353922998E+00  0.35222776667E+01 -0.14134958943E+02  0.14568240127E+02  0.51100000000E-03 0.  1.
        -11    1    3    3    0    0 -0.84696120138E+00  0.20079266754E+01 -0.72603233607E+01  0.75803303604E+01  0.51100000000E-03 0. -1.
        -12    1    3    3    0    0  0.18609914786E+02  0.25437884951E+01 -0.17451164845E+02  0.25638700098E+02  0.00000000000E+00 0.  1.
</event>
<event>
 7    1  0.1400974E-009  0.4778727E+02  0.7816164E-02  0.1312668E+00
        -11   -1    0    0    0    0  0.00000000000E+00  0.00000000000E+00  0.45593999997E+02  0.45594000000E+02  0.51100000000E-03 0.  1.
         11   -1    0    0    0    0 -0.00000000000E+00 -0.00000000000E+00 -0.45593999997E+02  0.45594000000E+02  0.51100000000E-03 0. -1.
    9900012    2    1    2    0    0 -0.28004741841E+02 -0.25000151877E+02 -0.21779585819E+02  0.47787268233E+02  0.19999987182E+02 0.  0.
        -12    1    1    2    0    0  0.28004741841E+02  0.25000151877E+02  0.21779585819E+02  0.43400731767E+02  0.00000000000E+00 0.  1.
         11    1    3    3    0    0 -0.10971513935E+02 -0.62379031708E+01 -0.11160997473E+01  0.12670092063E+02  0.51100000000E-03 0.  1.
        -11    1    3    3    0    0 -0.18042764127E+02 -0.14092799385E+02 -0.19787007144E+02  0.30260105483E+02  0.51100000000E-03 0. -1.
         12    1    3    3    0    0  0.10095362209E+01 -0.46694493212E+01 -0.87647892758E+00  0.48570706867E+01  0.00000000000E+00 0. -1.
</event>
<event>
 7    1  0.1400974E-009  0.4778727E+02  0.7816164E-02  0.1312668E+00
        -11   -1    0    0    0    0  0.00000000000E+00  0.00000000000E+00  0.45593999997E+02  0.45594000000E+02  0.51100000000E-03 0.  1.
         11   -1    0    0    0    0 -0.00000000000E+00 -0.00000000000E+00 -0.45593999997E+02  0.45594000000E+02  0.51100000000E-03 0. -1.
    9900012    2    1    2    0    0 -0.87400912302E+01  0.17059840642E+02 -0.38938361967E+02  0.47787269705E+02  0.19999993895E+02 0.  0.
        -12    1    1    2    0    0  0.87400912302E+01 -0.17059840642E+02  0.38938361967E+02  0.43400730295E+02  0.00000000000E+00 0.  1.
         11    1    3    3    0    0 -0.89228445048E+01  0.12922603492E+02 -0.21834969944E+02  0.26895664108E+02  0.51100000000E-03 0. -1.
        -11    1    3    3    0    0  0.26314648292E+01  0.71568116029E+01 -0.13900026952E+02  0.15854189005E+02  0.51100000000E-03 0.  1.
         12    1    3    3    0    0 -0.24487115546E+01 -0.30195744531E+01 -0.32033650706E+01  0.50374165930E+01  0.00000000000E+00 0. -1.
</event>
<event>
 7    1  0.1400974E-009  0.4778727E+02  0.7816164E-02  0.1312668E+00
        -11   -1    0    0    0    0  0.00000000000E+00  0.00000000000E+00  0.45593999997E+02  0.45594000000E+02  0.51100000000E-03 0. -1.
         11   -1    0    0    0    0 -0.00000000000E+00 -0.00000000000E+00 -0.45593999997E+02  0.45594000000E+02  0.51100000000E-03 0.  1.
    9900012    2    1    2    0    0  0.12942764115E+02  0.41178488281E+02 -0.45210838484E+01  0.47787271444E+02  0.20000001823E+02 0.  0.
        -12    1    1    2    0    0 -0.12942764115E+02 -0.41178488281E+02  0.45210838484E+01  0.43400728556E+02  0.00000000000E+00 0.  1.
         11    1    3    3    0    0 -0.37632929626E+01  0.72305956709E+01 -0.62377645140E+00  0.81751443413E+01  0.51100000000E-03 0. -1.
        -11    1    3    3    0    0  0.10480425088E+02  0.93578595266E+01 -0.11249939639E+01  0.14095192678E+02  0.51100000000E-03 0.  1.
         12    1    3    3    0    0  0.62256319891E+01  0.24590033083E+02 -0.27723134331E+01  0.25516934425E+02  0.00000000000E+00 0. -1.
</event>
<event>
 7    1  0.1400974E-009  0.4778727E+02  0.7816164E-02  0.1312668E+00
        -11   -1    0    0    0    0  0.00000000000E+00  0.00000000000E+00  0.45593999997E+02  0.45594000000E+02  0.51100000000E-03 0.  1.
         11   -1    0    0    0    0 -0.00000000000E+00 -0.00000000000E+00 -0.45593999997E+02  0.45594000000E+02  0.51100000000E-03 0. -1.
    9900012    2    1    2    0    0 -0.12177242977E+02  0.17573320175E+02 -0.37769256748E+02  0.47787267474E+02  0.19999983722E+02 0.  0.
        -12    1    1    2    0    0  0.12177242977E+02 -0.17573320175E+02  0.37769256748E+02  0.43400732526E+02  0.00000000000E+00 0.  1.
         11    1    3    3    0    0  0.39953598893E+01  0.77543810781E+01 -0.15155651629E+02  0.17486769373E+02  0.51100000000E-03 0. -1.
        -11    1    3    3    0    0 -0.64154851249E+01  0.69314198667E+00 -0.48423775810E+01  0.80676834407E+01  0.51100000000E-03 0.  1.
         12    1    3    3    0    0 -0.97571177413E+01  0.91257971103E+01 -0.17771227538E+02  0.22232814661E+02  0.00000000000E+00 0. -1.
</event>
<event>
 7    1  0.1400974E-009  0.4778727E+02  0.7816164E-02  0.1312668E+00
        -11   -1    0    0    0    0  0.00000000000E+00  0.00000000000E+00  0.45593999997E+02  0.45594000000E+02  0.51100000000E-03 0.  1.
         11   -1    0    0    0    0 -0.00000000000E+00 -0.00000000000E+00 -0.45593999997E+02  0.45594000000E+02  0.51100000000E-03 0. -1.
    9900012    2    1    2    0    0  0.66538446065E+01 -0.22694916254E+02 -0.36390799410E+02  0.47787272430E+02  0.20000006319E+02 0.  0.
        -12    1    1    2    0    0 -0.66538446065E+01  0.22694916254E+02  0.36390799410E+02  0.43400727570E+02  0.00000000000E+00 0.  1.
         11    1    3    3    0    0 -0.27086201190E+01 -0.92592731132E+00 -0.86386941794E+01  0.91006044701E+01  0.51100000000E-03 0. -1.
        -11    1    3    3    0    0  0.75916815290E+01 -0.56542103601E+01 -0.48744526262E+01  0.10647253726E+02  0.51100000000E-03 0.  1.
         12    1    3    3    0    0  0.17707831966E+01 -0.16114778583E+02 -0.22877652605E+02  0.28039414235E+02  0.00000000000E+00 0. -1.
</event>
<event>
 7    1  0.1400974E-009  0.4778727E+02  0.7816164E-02  0.1312668E+00
        -11   -1    0    0    0    0  0.00000000000E+00  0.00000000000E+00  0.45593999997E+02  0.45594000000E+02  0.51100000000E-03 0.  1.
         11   -1    0    0    0    0 -0.00000000000E+00 -0.00000000000E+00 -0.45593999997E+02  0.45594000000E+02  0.51100000000E-03 0. -1.
    9900012    2    1    2    0    0  0.22291996979E+02 -0.11021988752E+02 -0.35569732071E+02  0.47787271839E+02  0.20000003621E+02 0.  0.
        -12    1    1    2    0    0 -0.22291996979E+02  0.11021988752E+02  0.35569732071E+02  0.43400728161E+02  0.00000000000E+00 0.  1.
         11    1    3    3    0    0  0.89323120865E+01  0.10095600011E+01 -0.15969508639E+01  0.91299322522E+01  0.51100000000E-03 0.  1.
        -11    1    3    3    0    0  0.41244583147E+01 -0.58013515522E+01 -0.10638653025E+02  0.12800303694E+02  0.51100000000E-03 0. -1.
        -12    1    3    3    0    0  0.92352265773E+01 -0.62301972007E+01 -0.23334128182E+02  0.25857035892E+02  0.00000000000E+00 0.  1.
</event>
<event>
 7    1  0.1400974E-009  0.4778727E+02  0.7816164E-02  0.1312668E+00
        -11   -1    0    0    0    0  0.00000000000E+00  0.00000000000E+00  0.45593999997E+02  0.45594000000E+02  0.51100000000E-03 0. -1.
         11   -1    0    0    0    0 -0.00000000000E+00 -0.00000000000E+00 -0.45593999997E+02  0.45594000000E+02  0.51100000000E-03 0.  1.
    9900012    2    1    2    0    0 -0.30807442274E+02  0.30517772865E+02 -0.17861511352E+01  0.47787270790E+02  0.19999998841E+02 0.  0.
        -12    1    1    2    0    0  0.30807442274E+02 -0.30517772865E+02  0.17861511352E+01  0.43400729210E+02  0.00000000000E+00 0.  1.
         11    1    3    3    0    0 -0.62811753615E+01  0.10856529980E+02 -0.29616305449E+01  0.12887539054E+02  0.51100000000E-03 0. -1.
        -11    1    3    3    0    0 -0.37600111070E+01  0.10249802756E+02 -0.38067145707E+01  0.11562318805E+02  0.51100000000E-03 0.  1.
         12    1    3    3    0    0 -0.20766255805E+02  0.94114401290E+01  0.49821939804E+01  0.23337412931E+02  0.00000000000E+00 0. -1.
</event>
<event>
 7    1  0.1400974E-009  0.4778727E+02  0.7816164E-02  0.1312668E+00
        -11   -1    0    0    0    0  0.00000000000E+00  0.00000000000E+00  0.45593999997E+02  0.45594000000E+02  0.51100000000E-03 0. -1.
         11   -1    0    0    0    0 -0.00000000000E+00 -0.00000000000E+00 -0.45593999997E+02  0.45594000000E+02  0.51100000000E-03 0.  1.
    9900012    2    1    2    0    0  0.47813834259E+01 -0.15750530335E+02  0.40158213891E+02  0.47787274474E+02  0.20000015636E+02 0.  0.
        -12    1    1    2    0    0 -0.47813834259E+01  0.15750530335E+02 -0.40158213891E+02  0.43400725526E+02  0.00000000000E+00 0.  1.
         11    1    3    3    0    0  0.19579390954E+00 -0.45859515378E+01  0.19391675279E+02  0.19927527623E+02  0.51100000000E-03 0. -1.
        -11    1    3    3    0    0 -0.71468392914E+00 -0.11593742435E+02  0.82118567048E+01  0.14225337520E+02  0.51100000000E-03 0.  1.
        -12    1    3    3    0    0  0.53002734455E+01  0.42916363733E+00  0.12554681906E+02  0.13634409331E+02  0.00000000000E+00 0.  1.
</event>
<event>
 7    1  0.1400974E-009  0.4778727E+02  0.7816164E-02  0.1312668E+00
        -11   -1    0    0    0    0  0.00000000000E+00  0.00000000000E+00  0.45593999997E+02  0.45594000000E+02  0.51100000000E-03 0.  1.
         11   -1    0    0    0    0 -0.00000000000E+00 -0.00000000000E+00 -0.45593999997E+02  0.45594000000E+02  0.51100000000E-03 0. -1.
    9900012    2    1    2    0    0  0.82795604360E+00  0.40976542830E+02 -0.14277977486E+02  0.47787271727E+02  0.20000003111E+02 0.  0.
        -12    1    1    2    0    0 -0.82795604360E+00 -0.40976542830E+02  0.14277977486E+02  0.43400728273E+02  0.00000000000E+00 0.  1.
         11    1    3    3    0    0 -0.38775972295E+01  0.34912336099E+02 -0.13002115424E+02  0.37456134049E+02  0.51100000000E-03 0. -1.
        -11    1    3    3    0    0  0.35430358612E+01  0.72320258792E+01  0.28930655785E+00  0.80584737994E+01  0.51100000000E-03 0.  1.
         12    1    3    3    0    0  0.11625174119E+01 -0.11678191476E+01 -0.15651686197E+01  0.22726638780E+01  0.00000000000E+00 0. -1.
</event>
<event>
 7    1  0.1400974E-009  0.4778727E+02  0.7816164E-02  0.1312668E+00
        -11   -1    0    0    0    0  0.00000000000E+00  0.00000000000E+00  0.45593999997E+02  0.45594000000E+02  0.51100000000E-03 0. -1.
         11   -1    0    0    0    0 -0.00000000000E+00 -0.00000000000E+00 -0.45593999997E+02  0.45594000000E+02  0.51100000000E-03 0.  1.
    9900012    2    1    2    0    0 -0.30494766458E+02  0.24953543886E+02 -0.18193768642E+02  0.47787270153E+02  0.19999995938E+02 0.  0.
        -12    1    1    2    0    0  0.30494766458E+02 -0.24953543886E+02  0.18193768642E+02  0.43400729847E+02  0.00000000000E+00 0.  1.
         11    1    3    3    0    0 -0.23559382531E+02  0.14916523197E+02 -0.26364858388E+01  0.28008895504E+02  0.51100000000E-03 0. -1.
        -11    1    3    3    0    0 -0.29407944922E+01  0.39730751904E+01 -0.59418641572E+01  0.77291234068E+01  0.51100000000E-03 0.  1.
         12    1    3    3    0    0 -0.39945894349E+01  0.60639454989E+01 -0.96154186457E+01  0.12049251242E+02  0.00000000000E+00 0. -1.
</event>
<event>
 7    1  0.1400974E-009  0.4778727E+02  0.7816164E-02  0.1312668E+00
        -11   -1    0    0    0    0  0.00000000000E+00  0.00000000000E+00  0.45593999997E+02  0.45594000000E+02  0.51100000000E-03 0. -1.
         11   -1    0    0    0    0 -0.00000000000E+00 -0.00000000000E+00 -0.45593999997E+02  0.45594000000E+02  0.51100000000E-03 0.  1.
    9900012    2    1    2    0    0 -0.40516187946E+02 -0.15533257253E+02 -0.88303739090E+00  0.47787270495E+02  0.19999997495E+02 0.  0.
        -12    1    1    2    0    0  0.40516187946E+02  0.15533257253E+02  0.88303739090E+00  0.43400729505E+02  0.00000000000E+00 0.  1.
         11    1    3    3    0    0 -0.31086890799E+01  0.49236326969E+00 -0.47726772356E+01  0.57170637255E+01  0.51100000000E-03 0.  1.
        -11    1    3    3    0    0 -0.96376760483E+01 -0.27395247126E+01  0.51387723042E+01  0.11260407467E+02  0.51100000000E-03 0. -1.
         12    1    3    3    0    0 -0.27769822817E+02 -0.13286095810E+02 -0.12491324594E+01  0.30809799303E+02  0.00000000000E+00 0. -1.
</event>
<event>
 7    1  0.1400974E-009  0.4778727E+02  0.7816164E-02  0.1312668E+00
        -11   -1    0    0    0    0  0.00000000000E+00  0.00000000000E+00  0.45593999997E+02  0.45594000000E+02  0.51100000000E-03 0.  1.
         11   -1    0    0    0    0 -0.00000000000E+00 -0.00000000000E+00 -0.45593999997E+02  0.45594000000E+02  0.51100000000E-03 0. -1.
    9900012    2    1    2    0    0  0.41947202798E+02 -0.11119308644E+02  0.64530889291E+00  0.47787271080E+02  0.20000000160E+02 0.  0.
        -12    1    1    2    0    0 -0.41947202798E+02  0.11119308644E+02 -0.64530889291E+00  0.43400728920E+02  0.00000000000E+00 0.  1.
         11    1    3    3    0    0  0.10314007440E+02 -0.76915746832E+01 -0.12725323752E+01  0.12928975577E+02  0.51100000000E-03 0. -1.
        -11    1    3    3    0    0  0.59571504752E+01  0.48083412119E+01 -0.10644845291E+01  0.77292247068E+01  0.51100000000E-03 0.  1.
         12    1    3    3    0    0  0.25676044883E+02 -0.82360751722E+01  0.29823257972E+01  0.27129070795E+02  0.00000000000E+00 0. -1.
</event>
<event>
 7    1  0.1400974E-009  0.4778727E+02  0.7816164E-02  0.1312668E+00
        -11   -1    0    0    0    0  0.00000000000E+00  0.00000000000E+00  0.45593999997E+02  0.45594000000E+02  0.51100000000E-03 0.  1.
         11   -1    0    0    0    0 -0.00000000000E+00 -0.00000000000E+00 -0.45593999997E+02  0.45594000000E+02  0.51100000000E-03 0. -1.
    9900012    2    1    2    0    0 -0.14702887427E+01 -0.11381485929E+02 -0.41855983060E+02  0.47787270872E+02  0.19999999213E+02 0.  0.
        -12    1    1    2    0    0  0.14702887427E+01  0.11381485929E+02  0.41855983060E+02  0.43400729128E+02  0.00000000000E+00 0.  1.
         11    1    3    3    0    0  0.11311527823E+01  0.22164635924E+01 -0.43545008027E+01  0.50153658864E+01  0.51100000000E-03 0.  1.
        -11    1    3    3    0    0 -0.66809787684E+01 -0.59482459621E+00 -0.94886086471E+01  0.11619939239E+02  0.51100000000E-03 0. -1.
         12    1    3    3    0    0  0.40795372435E+01 -0.13003124925E+02 -0.28012873610E+02  0.31151965746E+02  0.00000000000E+00 0. -1.
</event>
<event>
 7    1  0.1400974E-009  0.4778723E+02  0.7816164E-02  0.1312668E+00
        -11   -1    0    0    0    0  0.00000000000E+00  0.00000000000E+00  0.45593999997E+02  0.45594000000E+02  0.51100000000E-03 0.  1.
         11   -1    0    0    0    0 -0.00000000000E+00 -0.00000000000E+00 -0.45593999997E+02  0.45594000000E+02  0.51100000000E-03 0. -1.
    9900012    2    1    2    0    0  0.37856021438E+02 -0.19098711655E+02 -0.92621523089E+01  0.47787232595E+02  0.19999824692E+02 0.  0.
        -12    1    1    2    0    0 -0.37856021438E+02  0.19098711655E+02  0.92621523089E+01  0.43400767405E+02  0.00000000000E+00 0.  1.
         11    1    3    3    0    0  0.36933043125E+02 -0.16203223653E+02 -0.13441942603E+02  0.42512115360E+02  0.51100000000E-03 0. -1.
        -11    1    3    3    0    0  0.62506638542E+00 -0.18640202662E+01  0.18051706559E+01  0.26690674208E+01  0.51100000000E-03 0.  1.
         12    1    3    3    0    0  0.29791192727E+00 -0.10314677361E+01  0.23746196377E+01  0.26060498136E+01  0.00000000000E+00 0. -1.
</event>
<event>
 7    1  0.1400974E-009  0.4778727E+02  0.7816164E-02  0.1312668E+00
        -11   -1    0    0    0    0  0.00000000000E+00  0.00000000000E+00  0.45593999997E+02  0.45594000000E+02  0.51100000000E-03 0.  1.
         11   -1    0    0    0    0 -0.00000000000E+00 -0.00000000000E+00 -0.45593999997E+02  0.45594000000E+02  0.51100000000E-03 0. -1.
    9900012    2    1    2    0    0 -0.45366463877E+01  0.19653823783E+02 -0.38428754973E+02  0.47787272374E+02  0.20000006062E+02 0.  0.
        -12    1    1    2    0    0  0.45366463877E+01 -0.19653823783E+02  0.38428754973E+02  0.43400727626E+02  0.00000000000E+00 0.  1.
         11    1    3    3    0    0 -0.10895014295E+01  0.18553082109E+02 -0.22342859035E+02  0.29062126887E+02  0.51100000000E-03 0. -1.
        -11    1    3    3    0    0  0.43642385934E+00  0.28012805349E+01 -0.92427215705E+00  0.29819318741E+01  0.51100000000E-03 0.  1.
        -12    1    3    3    0    0 -0.38835688175E+01 -0.17005388612E+01 -0.15161623781E+02  0.15743213612E+02  0.00000000000E+00 0.  1.
</event>
<event>
 7    1  0.1400974E-009  0.4778726E+02  0.7816164E-02  0.1312668E+00
        -11   -1    0    0    0    0  0.00000000000E+00  0.00000000000E+00  0.45593999997E+02  0.45594000000E+02  0.51100000000E-03 0.  1.
         11   -1    0    0    0    0 -0.00000000000E+00 -0.00000000000E+00 -0.45593999997E+02  0.45594000000E+02  0.51100000000E-03 0. -1.
    9900012    2    1    2    0    0 -0.93604408979E+01 -0.11782615170E+02 -0.40708427253E+02  0.47787263561E+02  0.19999965881E+02 0.  0.
        -12    1    1    2    0    0  0.93604408979E+01  0.11782615170E+02  0.40708427253E+02  0.43400736439E+02  0.00000000000E+00 0.  1.
         11    1    3    3    0    0 -0.86284670251E+01 -0.96755587297E+01 -0.29026033432E+02  0.31789581580E+02  0.51100000000E-03 0. -1.
        -11    1    3    3    0    0  0.33814841501E+01 -0.37911214180E+01 -0.10052905285E+02  0.11263567002E+02  0.51100000000E-03 0.  1.
         12    1    3    3    0    0 -0.41134580229E+01  0.16840649781E+01 -0.16294885347E+01  0.47341149797E+01  0.00000000000E+00 0. -1.
</event>
<event>
 7    1  0.1400974E-009  0.4778725E+02  0.7816164E-02  0.1312668E+00
        -11   -1    0    0    0    0  0.00000000000E+00  0.00000000000E+00  0.45593999997E+02  0.45594000000E+02  0.51100000000E-03 0.  1.
         11   -1    0    0    0    0 -0.00000000000E+00 -0.00000000000E+00 -0.45593999997E+02  0.45594000000E+02  0.51100000000E-03 0. -1.
    9900012    2    1    2    0    0 -0.64485444729E+01  0.28523812846E+02 -0.32069194740E+02  0.47787252583E+02  0.19999915826E+02 0.  0.
        -12    1    1    2    0    0  0.64485444729E+01 -0.28523812846E+02  0.32069194740E+02  0.43400747417E+02  0.00000000000E+00 0.  1.
         11    1    3    3    0    0  0.30689717153E+01  0.31570992706E+01 -0.44015144517E+01  0.62256881486E+01  0.51100000000E-03 0.  1.
        -11    1    3    3    0    0 -0.31233227206E+00  0.96508667328E+01 -0.19167741628E+02  0.21462504502E+02  0.51100000000E-03 0. -1.
        -12    1    3    3    0    0 -0.92051839161E+01  0.15715846843E+02 -0.84999386601E+01  0.20099059932E+02  0.00000000000E+00 0.  1.
</event>
<event>
 7    1  0.1400974E-009  0.4778727E+02  0.7816164E-02  0.1312668E+00
        -11   -1    0    0    0    0  0.00000000000E+00  0.00000000000E+00  0.45593999997E+02  0.45594000000E+02  0.51100000000E-03 0. -1.
         11   -1    0    0    0    0 -0.00000000000E+00 -0.00000000000E+00 -0.45593999997E+02  0.45594000000E+02  0.51100000000E-03 0.  1.
    9900012    2    1    2    0    0  0.33479586245E+02  0.35125465501E+01  0.27393474552E+02  0.47787272744E+02  0.20000007747E+02 0.  0.
        -12    1    1    2    0    0 -0.33479586245E+02 -0.35125465501E+01 -0.27393474552E+02  0.43400727256E+02  0.00000000000E+00 0.  1.
         11    1    3    3    0    0  0.14992753798E+02  0.36682404044E+01  0.12813287015E+02  0.20060383309E+02  0.51100000000E-03 0. -1.
        -11    1    3    3    0    0  0.18202092674E+02  0.42079470787E+01  0.13934606667E+02  0.23306571167E+02  0.51100000000E-03 0.  1.
        -12    1    3    3    0    0  0.28473977336E+00 -0.43636409331E+01  0.64558086890E+00  0.44203182680E+01  0.00000000000E+00 0.  1.
</event>
<event>
 7    1  0.1400974E-009  0.4778727E+02  0.7816164E-02  0.1312668E+00
        -11   -1    0    0    0    0  0.00000000000E+00  0.00000000000E+00  0.45593999997E+02  0.45594000000E+02  0.51100000000E-03 0.  1.
         11   -1    0    0    0    0 -0.00000000000E+00 -0.00000000000E+00 -0.45593999997E+02  0.45594000000E+02  0.51100000000E-03 0. -1.
    9900012    2    1    2    0    0  0.29133587536E+02  0.19907760293E+02 -0.25269323468E+02  0.47787267850E+02  0.19999985436E+02 0.  0.
        -12    1    1    2    0    0 -0.29133587536E+02 -0.19907760293E+02  0.25269323468E+02  0.43400732150E+02  0.00000000000E+00 0.  1.
         11    1    3    3    0    0  0.25016154427E+02  0.98629564308E+01 -0.10901661226E+02  0.29016066405E+02  0.51100000000E-03 0. -1.
        -11    1    3    3    0    0  0.43599621689E+01  0.44154164571E+01 -0.93767548302E+01  0.11244051939E+02  0.51100000000E-03 0.  1.
        -12    1    3    3    0    0 -0.24252905941E+00  0.56293874049E+01 -0.49909074113E+01  0.75271495061E+01  0.00000000000E+00 0.  1.
</event>
<event>
 7    1  0.1400974E-009  0.4778727E+02  0.7816164E-02  0.1312668E+00
        -11   -1    0    0    0    0  0.00000000000E+00  0.00000000000E+00  0.45593999997E+02  0.45594000000E+02  0.51100000000E-03 0. -1.
         11   -1    0    0    0    0 -0.00000000000E+00 -0.00000000000E+00 -0.45593999997E+02  0.45594000000E+02  0.51100000000E-03 0.  1.
    9900012    2    1    2    0    0 -0.29933362101E+02  0.24537230709E+02  0.19635207059E+02  0.47787271737E+02  0.20000003158E+02 0.  0.
        -12    1    1    2    0    0  0.29933362101E+02 -0.24537230709E+02 -0.19635207059E+02  0.43400728263E+02  0.00000000000E+00 0.  1.
         11    1    3    3    0    0 -0.20537910589E+02  0.96413246252E+01  0.11776372245E+02  0.25562547905E+02  0.51100000000E-03 0. -1.
        -11    1    3    3    0    0 -0.38530097681E+00 -0.56138569678E+00 -0.17772307021E+01  0.19031973027E+01  0.51100000000E-03 0.  1.
        -12    1    3    3    0    0 -0.90101505347E+01  0.15457291780E+02  0.96360655167E+01  0.20321526529E+02  0.00000000000E+00 0.  1.
</event>
<event>
 7    1  0.1400974E-009  0.4778727E+02  0.7816164E-02  0.1312668E+00
        -11   -1    0    0    0    0  0.00000000000E+00  0.00000000000E+00  0.45593999997E+02  0.45594000000E+02  0.51100000000E-03 0.  1.
         11   -1    0    0    0    0 -0.00000000000E+00 -0.00000000000E+00 -0.45593999997E+02  0.45594000000E+02  0.51100000000E-03 0. -1.
    9900012    2    1    2    0    0  0.28313149780E+02  0.81560448029E+01 -0.31866408970E+02  0.47787268002E+02  0.19999986129E+02 0.  0.
        -12    1    1    2    0    0 -0.28313149780E+02 -0.81560448029E+01  0.31866408970E+02  0.43400731998E+02  0.00000000000E+00 0.  1.
         11    1    3    3    0    0  0.58976877456E+01  0.37064519931E+01 -0.11393965800E+02  0.13354511000E+02  0.51100000000E-03 0. -1.
        -11    1    3    3    0    0  0.34308421612E+01  0.58771100061E+01 -0.11553929791E+02  0.13409116072E+02  0.51100000000E-03 0.  1.
        -12    1    3    3    0    0  0.18984619873E+02 -0.14275171964E+01 -0.89185133792E+01  0.21023640930E+02  0.00000000000E+00 0.  1.
</event>
<event>
 7    1  0.1400974E-009  0.4778727E+02  0.7816164E-02  0.1312668E+00
        -11   -1    0    0    0    0  0.00000000000E+00  0.00000000000E+00  0.45593999997E+02  0.45594000000E+02  0.51100000000E-03 0.  1.
         11   -1    0    0    0    0 -0.00000000000E+00 -0.00000000000E+00 -0.45593999997E+02  0.45594000000E+02  0.51100000000E-03 0. -1.
    9900012    2    1    2    0    0 -0.73296506638E+01 -0.20739818483E+02 -0.37413358130E+02  0.47787271710E+02  0.20000003033E+02 0.  0.
        -12    1    1    2    0    0  0.73296506638E+01  0.20739818483E+02  0.37413358130E+02  0.43400728290E+02  0.00000000000E+00 0.  1.
         11    1    3    3    0    0 -0.15826936291E+01  0.15033018765E+01 -0.59606248932E+01  0.63477464532E+01  0.51100000000E-03 0.  1.
        -11    1    3    3    0    0 -0.77859922519E+00 -0.19348464887E+02 -0.29650560729E+02  0.35413628197E+02  0.51100000000E-03 0. -1.
         12    1    3    3    0    0 -0.49683578095E+01 -0.28946554717E+01 -0.18021725076E+01  0.60258970594E+01  0.00000000000E+00 0. -1.
</event>
<event>
 7    1  0.1400974E-009  0.4778728E+02  0.7816164E-02  0.1312668E+00
        -11   -1    0    0    0    0  0.00000000000E+00  0.00000000000E+00  0.45593999997E+02  0.45594000000E+02  0.51100000000E-03 0.  1.
         11   -1    0    0    0    0 -0.00000000000E+00 -0.00000000000E+00 -0.45593999997E+02  0.45594000000E+02  0.51100000000E-03 0. -1.
    9900012    2    1    2    0    0 -0.25261338874E+01 -0.19987187353E+02 -0.38441555242E+02  0.47787283645E+02  0.20000057450E+02 0.  0.
        -12    1    1    2    0    0  0.25261338874E+01  0.19987187353E+02  0.38441555242E+02  0.43400716355E+02  0.00000000000E+00 0.  1.
         11    1    3    3    0    0  0.14261074326E+01 -0.36821576021E+01 -0.10891854637E+02  0.11585532561E+02  0.51100000000E-03 0. -1.
        -11    1    3    3    0    0 -0.89949296961E+01 -0.12733222864E+02 -0.12667353925E+02  0.20087448331E+02  0.51100000000E-03 0.  1.
        -12    1    3    3    0    0  0.50426883761E+01 -0.35718068869E+01 -0.14882346680E+02  0.16114302753E+02  0.00000000000E+00 0.  1.
</event>
<event>
 7    1  0.1400974E-009  0.4778729E+02  0.7816164E-02  0.1312668E+00
        -11   -1    0    0    0    0  0.00000000000E+00  0.00000000000E+00  0.45593999997E+02  0.45594000000E+02  0.51100000000E-03 0.  1.
         11   -1    0    0    0    0 -0.00000000000E+00 -0.00000000000E+00 -0.45593999997E+02  0.45594000000E+02  0.51100000000E-03 0. -1.
    9900012    2    1    2    0    0 -0.72750947734E+01  0.31273566514E+01 -0.42672169132E+02  0.47787292840E+02  0.20000099374E+02 0.  0.
        -12    1    1    2    0    0  0.72750947734E+01 -0.31273566514E+01  0.42672169132E+02  0.43400707160E+02  0.00000000000E+00 0.  1.
         11    1    3    3    0    0 -0.98528792509E+01 -0.92623355541E+00 -0.28983064502E+02  0.30626053717E+02  0.51100000000E-03 0. -1.
        -11    1    3    3    0    0 -0.30927271628E+01  0.10764472447E+01 -0.78046962163E+01  0.84638633770E+01  0.51100000000E-03 0.  1.
        -12    1    3    3    0    0  0.56705116402E+01  0.29771429620E+01 -0.58844084137E+01  0.86973757455E+01  0.00000000000E+00 0.  1.
</event>
<event>
 7    1  0.1400974E-009  0.4778727E+02  0.7816164E-02  0.1312668E+00
        -11   -1    0    0    0    0  0.00000000000E+00  0.00000000000E+00  0.45593999997E+02  0.45594000000E+02  0.51100000000E-03 0.  1.
         11   -1    0    0    0    0 -0.00000000000E+00 -0.00000000000E+00 -0.45593999997E+02  0.45594000000E+02  0.51100000000E-03 0. -1.
    9900012    2    1    2    0    0  0.28418960324E+02  0.56930109466E+01 -0.32304419751E+02  0.47787271723E+02  0.20000003094E+02 0.  0.
        -12    1    1    2    0    0 -0.28418960324E+02 -0.56930109466E+01  0.32304419751E+02  0.43400728277E+02  0.00000000000E+00 0.  1.
         11    1    3    3    0    0  0.76074018236E+01  0.38690080159E+01 -0.39268685064E+01  0.93947901552E+01  0.51100000000E-03 0. -1.
        -11    1    3    3    0    0 -0.70786547257E+00 -0.12854472699E+01 -0.94561456535E+01  0.95693332626E+01  0.51100000000E-03 0.  1.
        -12    1    3    3    0    0  0.21519423973E+02  0.31094502006E+01 -0.18921405591E+02  0.28823148305E+02  0.00000000000E+00 0.  1.
</event>
<event>
 7    1  0.1400974E-009  0.4778729E+02  0.7816164E-02  0.1312668E+00
        -11   -1    0    0    0    0  0.00000000000E+00  0.00000000000E+00  0.45593999997E+02  0.45594000000E+02  0.51100000000E-03 0.  1.
         11   -1    0    0    0    0 -0.00000000000E+00 -0.00000000000E+00 -0.45593999997E+02  0.45594000000E+02  0.51100000000E-03 0. -1.
    9900012    2    1    2    0    0  0.16014047685E+02  0.16113159839E+02 -0.36980240354E+02  0.47787287795E+02  0.20000076374E+02 0.  0.
        -12    1    1    2    0    0 -0.16014047685E+02 -0.16113159839E+02  0.36980240354E+02  0.43400712205E+02  0.00000000000E+00 0.  1.
         11    1    3    3    0    0  0.27269495565E+01  0.53756272517E+01 -0.15844803964E+02  0.16952623253E+02  0.51100000000E-03 0. -1.
        -11    1    3    3    0    0  0.10818434227E+02 -0.43397523578E+00 -0.12246696850E+02  0.16346511482E+02  0.51100000000E-03 0.  1.
         12    1    3    3    0    0  0.24686639012E+01  0.11171507823E+02 -0.88887395397E+01  0.14488153061E+02  0.00000000000E+00 0. -1.
</event>
<event>
 7    1  0.1400974E-009  0.4778727E+02  0.7816164E-02  0.1312668E+00
        -11   -1    0    0    0    0  0.00000000000E+00  0.00000000000E+00  0.45593999997E+02  0.45594000000E+02  0.51100000000E-03 0.  1.
         11   -1    0    0    0    0 -0.00000000000E+00 -0.00000000000E+00 -0.45593999997E+02  0.45594000000E+02  0.51100000000E-03 0. -1.
    9900012    2    1    2    0    0  0.12454539663E+02 -0.25302866522E+02 -0.32988978344E+02  0.47787270690E+02  0.19999998386E+02 0.  0.
        -12    1    1    2    0    0 -0.12454539663E+02  0.25302866522E+02  0.32988978344E+02  0.43400729310E+02  0.00000000000E+00 0.  1.
         11    1    3    3    0    0  0.26388046808E+01 -0.17151889701E+01 -0.92852665683E+01  0.98041490632E+01  0.51100000000E-03 0. -1.
        -11    1    3    3    0    0  0.79253483903E+01 -0.25451855374E+02 -0.19567061245E+02  0.33067778502E+02  0.51100000000E-03 0.  1.
        -12    1    3    3    0    0  0.18903865915E+01  0.18641778221E+01 -0.41366505312E+01  0.49153431248E+01  0.00000000000E+00 0.  1.
</event>
<event>
 7    1  0.1400974E-009  0.4778726E+02  0.7816164E-02  0.1312668E+00
        -11   -1    0    0    0    0  0.00000000000E+00  0.00000000000E+00  0.45593999997E+02  0.45594000000E+02  0.51100000000E-03 0.  1.
         11   -1    0    0    0    0 -0.00000000000E+00 -0.00000000000E+00 -0.45593999997E+02  0.45594000000E+02  0.51100000000E-03 0. -1.
    9900012    2    1    2    0    0 -0.19734503918E+02 -0.37754254386E+02 -0.82939478366E+01  0.47787263372E+02  0.19999965017E+02 0.  0.
        -12    1    1    2    0    0  0.19734503918E+02  0.37754254386E+02  0.82939478366E+01  0.43400736628E+02  0.00000000000E+00 0.  1.
         11    1    3    3    0    0 -0.93483281752E+01 -0.46913362810E+01 -0.34620492051E+01  0.11017516087E+02  0.51100000000E-03 0. -1.
        -11    1    3    3    0    0 -0.57475012644E-01 -0.12429195714E+02  0.22533784540E+01  0.12631940635E+02  0.51100000000E-03 0.  1.
         12    1    3    3    0    0 -0.10328700730E+02 -0.20633722391E+02 -0.70852770856E+01  0.24137806650E+02  0.00000000000E+00 0. -1.
</event>
<event>
 7    1  0.1400974E-009  0.4778727E+02  0.7816164E-02  0.1312668E+00
        -11   -1    0    0    0    0  0.00000000000E+00  0.00000000000E+00  0.45593999997E+02  0.45594000000E+02  0.51100000000E-03 0.  1.
         11   -1    0    0    0    0 -0.00000000000E+00 -0.00000000000E+00 -0.45593999997E+02  0.45594000000E+02  0.51100000000E-03 0. -1.
    9900012    2    1    2    0    0  0.37938357973E+02 -0.86745264118E+01  0.19210854240E+02  0.47787270343E+02  0.19999996800E+02 0.  0.
        -12    1    1    2    0    0 -0.37938357973E+02  0.86745264118E+01 -0.19210854240E+02  0.43400729657E+02  0.00000000000E+00 0.  1.
         11    1    3    3    0    0  0.17784257639E+02  0.54893689625E+00  0.18537726788E+01  0.17889036443E+02  0.51100000000E-03 0. -1.
        -11    1    3    3    0    0  0.74647663082E+01 -0.27188421454E+01  0.70580963900E+00  0.79757762102E+01  0.51100000000E-03 0.  1.
        -12    1    3    3    0    0  0.12689334026E+02 -0.65046211627E+01  0.16651271922E+02  0.21922457689E+02  0.00000000000E+00 0.  1.
</event>
<event>
 7    1  0.1400974E-009  0.4778727E+02  0.7816164E-02  0.1312668E+00
        -11   -1    0    0    0    0  0.00000000000E+00  0.00000000000E+00  0.45593999997E+02  0.45594000000E+02  0.51100000000E-03 0.  1.
         11   -1    0    0    0    0 -0.00000000000E+00 -0.00000000000E+00 -0.45593999997E+02  0.45594000000E+02  0.51100000000E-03 0. -1.
    9900012    2    1    2    0    0  0.86019446246E+01  0.38074052758E+02  0.18973571030E+02  0.47787270256E+02  0.19999996403E+02 0.  0.
        -12    1    1    2    0    0 -0.86019446246E+01 -0.38074052758E+02 -0.18973571030E+02  0.43400729744E+02  0.00000000000E+00 0.  1.
         11    1    3    3    0    0  0.79461027897E+01  0.15095912336E+02  0.14205064562E+02  0.22199346348E+02  0.51100000000E-03 0.  1.
        -11    1    3    3    0    0 -0.37041893513E+01  0.39382003430E+01  0.23887560218E+01  0.59107187621E+01  0.51100000000E-03 0. -1.
         12    1    3    3    0    0  0.43600311862E+01  0.19039940079E+02  0.23797504454E+01  0.19677205146E+02  0.00000000000E+00 0. -1.
</event>
<event>
 7    1  0.1400974E-009  0.4778727E+02  0.7816164E-02  0.1312668E+00
        -11   -1    0    0    0    0  0.00000000000E+00  0.00000000000E+00  0.45593999997E+02  0.45594000000E+02  0.51100000000E-03 0.  1.
         11   -1    0    0    0    0 -0.00000000000E+00 -0.00000000000E+00 -0.45593999997E+02  0.45594000000E+02  0.51100000000E-03 0. -1.
    9900012    2    1    2    0    0 -0.14466677129E+02 -0.82264712791E+01 -0.40083210929E+02  0.47787269877E+02  0.19999994676E+02 0.  0.
        -12    1    1    2    0    0  0.14466677129E+02  0.82264712791E+01  0.40083210929E+02  0.43400730123E+02  0.00000000000E+00 0.  1.
         11    1    3    3    0    0 -0.37688404104E+00 -0.83276804205E+01 -0.10634055911E+02  0.13512048258E+02  0.51100000000E-03 0. -1.
        -11    1    3    3    0    0 -0.51375366486E+01 -0.27693282799E+01 -0.38178873778E+01  0.69742186823E+01  0.51100000000E-03 0.  1.
         12    1    3    3    0    0 -0.89522564396E+01  0.28705374213E+01 -0.25631267641E+02  0.27301002936E+02  0.00000000000E+00 0. -1.
</event>
<event>
 7    1  0.1400974E-009  0.4778728E+02  0.7816164E-02  0.1312668E+00
        -11   -1    0    0    0    0  0.00000000000E+00  0.00000000000E+00  0.45593999997E+02  0.45594000000E+02  0.51100000000E-03 0. -1.
         11   -1    0    0    0    0 -0.00000000000E+00 -0.00000000000E+00 -0.45593999997E+02  0.45594000000E+02  0.51100000000E-03 0.  1.
    9900012    2    1    2    0    0 -0.35594556372E+02 -0.16237608507E+02  0.18788025352E+02  0.47787282609E+02  0.20000052729E+02 0.  0.
        -12    1    1    2    0    0  0.35594556372E+02  0.16237608507E+02 -0.18788025352E+02  0.43400717391E+02  0.00000000000E+00 0.  1.
         11    1    3    3    0    0 -0.33634635931E+01  0.49958884174E+00  0.65943739870E+01  0.74194504442E+01  0.51100000000E-03 0. -1.
        -11    1    3    3    0    0 -0.13083379853E+02 -0.11816678301E+02  0.10208723353E+01  0.17659300525E+02  0.51100000000E-03 0.  1.
         12    1    3    3    0    0 -0.19147712926E+02 -0.49205190483E+01  0.11172779030E+02  0.22708531640E+02  0.00000000000E+00 0. -1.
</event>
<event>
 7    1  0.1400974E-009  0.4778727E+02  0.7816164E-02  0.1312668E+00
        -11   -1    0    0    0    0  0.00000000000E+00  0.00000000000E+00  0.45593999997E+02  0.45594000000E+02  0.51100000000E-03 0.  1.
         11   -1    0    0    0    0 -0.00000000000E+00 -0.00000000000E+00 -0.45593999997E+02  0.45594000000E+02  0.51100000000E-03 0. -1.
    9900012    2    1    2    0    0 -0.41211769038E+02 -0.44853234820E+01 -0.12848943019E+02  0.47787269929E+02  0.19999994914E+02 0.  0.
        -12    1    1    2    0    0  0.41211769038E+02  0.44853234820E+01  0.12848943019E+02  0.43400730071E+02  0.00000000000E+00 0.  1.
         11    1    3    3    0    0 -0.18023435127E+02  0.28139838818E+01 -0.10598861296E+01  0.18272549848E+02  0.51100000000E-03 0. -1.
        -11    1    3    3    0    0 -0.23687613308E+02 -0.76766321162E+01 -0.87210354170E+01  0.26383520688E+02  0.51100000000E-03 0.  1.
        -12    1    3    3    0    0  0.49927939716E+00  0.37732475238E+00 -0.30680214725E+01  0.31311993933E+01  0.00000000000E+00 0.  1.
</event>
<event>
 7    1  0.1400974E-009  0.4778728E+02  0.7816164E-02  0.1312668E+00
        -11   -1    0    0    0    0  0.00000000000E+00  0.00000000000E+00  0.45593999997E+02  0.45594000000E+02  0.51100000000E-03 0.  1.
         11   -1    0    0    0    0 -0.00000000000E+00 -0.00000000000E+00 -0.45593999997E+02  0.45594000000E+02  0.51100000000E-03 0. -1.
    9900012    2    1    2    0    0  0.13354282818E+02 -0.25939563529E+02 -0.32131370850E+02  0.47787276293E+02  0.20000023929E+02 0.  0.
        -12    1    1    2    0    0 -0.13354282818E+02  0.25939563529E+02  0.32131370850E+02  0.43400723707E+02  0.00000000000E+00 0.  1.
         11    1    3    3    0    0 -0.93833894065E+00 -0.81969803042E+01 -0.82544141118E+01  0.11670746277E+02  0.51100000000E-03 0. -1.
        -11    1    3    3    0    0 -0.20521928470E+01 -0.12231191825E+01 -0.69983258283E+01  0.73948685368E+01  0.51100000000E-03 0.  1.
         12    1    3    3    0    0  0.16344814605E+02 -0.16519464042E+02 -0.16878630909E+02  0.28721661479E+02  0.00000000000E+00 0. -1.
</event>
<event>
 7    1  0.1400974E-009  0.4778728E+02  0.7816164E-02  0.1312668E+00
        -11   -1    0    0    0    0  0.00000000000E+00  0.00000000000E+00  0.45593999997E+02  0.45594000000E+02  0.51100000000E-03 0.  1.
         11   -1    0    0    0    0 -0.00000000000E+00 -0.00000000000E+00 -0.45593999997E+02  0.45594000000E+02  0.51100000000E-03 0. -1.
    9900012    2    1    2    0    0  0.17511618068E+02  0.15097473601E+02 -0.36729173848E+02  0.47787277794E+02  0.20000030773E+02 0.  0.
        -12    1    1    2    0    0 -0.17511618068E+02 -0.15097473601E+02  0.36729173848E+02  0.43400722206E+02  0.00000000000E+00 0.  1.
         11    1    3    3    0    0  0.10519839273E+02  0.85965069824E+01 -0.30907123192E+02  0.33761179110E+02  0.51100000000E-03 0. -1.
        -11    1    3    3    0    0  0.88131220455E+01  0.52790007015E+01 -0.58705910815E+01  0.11832278246E+02  0.51100000000E-03 0.  1.
        -12    1    3    3    0    0 -0.18213432508E+01  0.12219659167E+01  0.48540425728E-01  0.21938204375E+01  0.00000000000E+00 0.  1.
</event>
<event>
 7    1  0.1400974E-009  0.4778727E+02  0.7816164E-02  0.1312668E+00
        -11   -1    0    0    0    0  0.00000000000E+00  0.00000000000E+00  0.45593999997E+02  0.45594000000E+02  0.51100000000E-03 0. -1.
         11   -1    0    0    0    0 -0.00000000000E+00 -0.00000000000E+00 -0.45593999997E+02  0.45594000000E+02  0.51100000000E-03 0.  1.
    9900012    2    1    2    0    0 -0.42698612905E+02  0.52383939141E+01  0.57455272225E+01  0.47787269616E+02  0.19999993485E+02 0.  0.
        -12    1    1    2    0    0  0.42698612905E+02 -0.52383939141E+01 -0.57455272225E+01  0.43400730384E+02  0.00000000000E+00 0.  1.
         11    1    3    3    0    0 -0.21366401895E+02 -0.32476509403E+00  0.14487483655E+01  0.21417924139E+02  0.51100000000E-03 0. -1.
        -11    1    3    3    0    0 -0.28075470282E+01  0.62589064661E+01 -0.13486167634E+01  0.69910655771E+01  0.51100000000E-03 0.  1.
        -12    1    3    3    0    0 -0.18524663982E+02 -0.69574745799E+00  0.56453956204E+01  0.19378279900E+02  0.00000000000E+00 0.  1.
</event>
<event>
 7    1  0.1400974E-009  0.4778724E+02  0.7816164E-02  0.1312668E+00
        -11   -1    0    0    0    0  0.00000000000E+00  0.00000000000E+00  0.45593999997E+02  0.45594000000E+02  0.51100000000E-03 0.  1.
         11   -1    0    0    0    0 -0.00000000000E+00 -0.00000000000E+00 -0.45593999997E+02  0.45594000000E+02  0.51100000000E-03 0. -1.
    9900012    2    1    2    0    0  0.23928299791E+02 -0.28040523649E+02 -0.22908332546E+02  0.47787237364E+02  0.19999846436E+02 0.  0.
        -12    1    1    2    0    0 -0.23928299791E+02  0.28040523649E+02  0.22908332546E+02  0.43400762636E+02  0.00000000000E+00 0.  1.
         11    1    3    3    0    0  0.14575338259E+02 -0.71074426537E+01 -0.11518056392E+02  0.19890245090E+02  0.51100000000E-03 0. -1.
        -11    1    3    3    0    0 -0.24985081782E+00 -0.37815353115E+01 -0.66855971543E+01  0.76850272813E+01  0.51100000000E-03 0.  1.
         12    1    3    3    0    0  0.96028123504E+01 -0.17151545683E+02 -0.47046789991E+01  0.20211964992E+02  0.00000000000E+00 0. -1.
</event>
<event>
 7    1  0.1400974E-009  0.4778727E+02  0.7816164E-02  0.1312668E+00
        -11   -1    0    0    0    0  0.00000000000E+00  0.00000000000E+00  0.45593999997E+02  0.45594000000E+02  0.51100000000E-03 0.  1.
         11   -1    0    0    0    0 -0.00000000000E+00 -0.00000000000E+00 -0.45593999997E+02  0.45594000000E+02  0.51100000000E-03 0. -1.
    9900012    2    1    2    0    0  0.36698397652E+02  0.16946469051E+02  0.15800892217E+02  0.47787269611E+02  0.19999993463E+02 0.  0.
        -12    1    1    2    0    0 -0.36698397652E+02 -0.16946469051E+02 -0.15800892217E+02  0.43400730389E+02  0.00000000000E+00 0.  1.
         11    1    3    3    0    0  0.98656496578E+01  0.28418028142E+01  0.12813687558E+02  0.16419423726E+02  0.51100000000E-03 0.  1.
        -11    1    3    3    0    0  0.59681616437E+01  0.21141108348E+01 -0.22872594208E+01  0.67320111368E+01  0.51100000000E-03 0. -1.
        -12    1    3    3    0    0  0.20864586350E+02  0.11990555402E+02  0.52744640798E+01  0.24635834748E+02  0.00000000000E+00 0.  1.
</event>
<event>
 7    1  0.1400974E-009  0.4778727E+02  0.7816164E-02  0.1312668E+00
        -11   -1    0    0    0    0  0.00000000000E+00  0.00000000000E+00  0.45593999997E+02  0.45594000000E+02  0.51100000000E-03 0.  1.
         11   -1    0    0    0    0 -0.00000000000E+00 -0.00000000000E+00 -0.45593999997E+02  0.45594000000E+02  0.51100000000E-03 0. -1.
    9900012    2    1    2    0    0  0.25970986380E+02 -0.34356684542E+02 -0.53618441080E+01  0.47787270991E+02  0.19999999756E+02 0.  0.
        -12    1    1    2    0    0 -0.25970986380E+02  0.34356684542E+02  0.53618441080E+01  0.43400729009E+02  0.00000000000E+00 0.  1.
         11    1    3    3    0    0  0.11115540741E+02 -0.19101574975E+02  0.32817597089E+01  0.22342680223E+02  0.51100000000E-03 0. -1.
        -11    1    3    3    0    0  0.44035738714E+01 -0.12057986441E+02 -0.61487864118E+01  0.14233554527E+02  0.51100000000E-03 0.  1.
        -12    1    3    3    0    0  0.10451871767E+02 -0.31971231257E+01 -0.24948174052E+01  0.11211036241E+02  0.00000000000E+00 0.  1.
</event>
<event>
 7    1  0.1400974E-009  0.4778723E+02  0.7816164E-02  0.1312668E+00
        -11   -1    0    0    0    0  0.00000000000E+00  0.00000000000E+00  0.45593999997E+02  0.45594000000E+02  0.51100000000E-03 0.  1.
         11   -1    0    0    0    0 -0.00000000000E+00 -0.00000000000E+00 -0.45593999997E+02  0.45594000000E+02  0.51100000000E-03 0. -1.
    9900012    2    1    2    0    0  0.18178887215E+02 -0.34991088300E+02  0.18132257850E+02  0.47787228400E+02  0.19999805565E+02 0.  0.
        -12    1    1    2    0    0 -0.18178887215E+02  0.34991088300E+02 -0.18132257850E+02  0.43400771600E+02  0.00000000000E+00 0.  1.
         11    1    3    3    0    0  0.10212186606E+02 -0.10443778802E+02  0.28616773438E+01  0.14884571490E+02  0.51100000000E-03 0. -1.
        -11    1    3    3    0    0  0.11345041502E+02 -0.17494636333E+02  0.13634479879E+02  0.24913275756E+02  0.51100000000E-03 0.  1.
        -12    1    3    3    0    0 -0.33783408933E+01 -0.70526731649E+01  0.16361006275E+01  0.79893811541E+01  0.00000000000E+00 0.  1.
</event>
<event>
 7    1  0.1400974E-009  0.4778727E+02  0.7816164E-02  0.1312668E+00
        -11   -1    0    0    0    0  0.00000000000E+00  0.00000000000E+00  0.45593999997E+02  0.45594000000E+02  0.51100000000E-03 0.  1.
         11   -1    0    0    0    0 -0.00000000000E+00 -0.00000000000E+00 -0.45593999997E+02  0.45594000000E+02  0.51100000000E-03 0. -1.
    9900012    2    1    2    0    0 -0.96434707926E+01  0.12327068459E+02 -0.40480490975E+02  0.47787270797E+02  0.19999998874E+02 0.  0.
        -12    1    1    2    0    0  0.96434707926E+01 -0.12327068459E+02  0.40480490975E+02  0.43400729203E+02  0.00000000000E+00 0.  1.
         11    1    3    3    0    0 -0.47497154288E+01 -0.39156558613E+01 -0.18621473942E+02  0.19612532971E+02  0.51100000000E-03 0. -1.
        -11    1    3    3    0    0  0.16292775195E+00  0.39672041990E+01 -0.24705493957E+01  0.46764162760E+01  0.51100000000E-03 0.  1.
         12    1    3    3    0    0 -0.50566831157E+01  0.12275520122E+02 -0.19388467637E+02  0.23498321551E+02  0.00000000000E+00 0. -1.
</event>
<event>
 7    1  0.1400974E-009  0.4778727E+02  0.7816164E-02  0.1312668E+00
        -11   -1    0    0    0    0  0.00000000000E+00  0.00000000000E+00  0.45593999997E+02  0.45594000000E+02  0.51100000000E-03 0. -1.
         11   -1    0    0    0    0 -0.00000000000E+00 -0.00000000000E+00 -0.45593999997E+02  0.45594000000E+02  0.51100000000E-03 0.  1.
    9900012    2    1    2    0    0 -0.66688950365E+01 -0.83573364708E+01  0.42063099672E+02  0.47787267426E+02  0.19999983504E+02 0.  0.
        -12    1    1    2    0    0  0.66688950365E+01  0.83573364708E+01 -0.42063099672E+02  0.43400732574E+02  0.00000000000E+00 0.  1.
         11    1    3    3    0    0  0.35348258333E+01 -0.47625730074E+01  0.12344584649E+02  0.13695468804E+02  0.51100000000E-03 0. -1.
        -11    1    3    3    0    0 -0.26829547642E+01  0.35470252450E+01  0.17541850543E+02  0.18096854840E+02  0.51100000000E-03 0.  1.
        -12    1    3    3    0    0 -0.75207661056E+01 -0.71417887085E+01  0.12176664480E+02  0.15994943783E+02  0.00000000000E+00 0.  1.
</event>
<event>
 7    1  0.1400974E-009  0.4778726E+02  0.7816164E-02  0.1312668E+00
        -11   -1    0    0    0    0  0.00000000000E+00  0.00000000000E+00  0.45593999997E+02  0.45594000000E+02  0.51100000000E-03 0.  1.
         11   -1    0    0    0    0 -0.00000000000E+00 -0.00000000000E+00 -0.45593999997E+02  0.45594000000E+02  0.51100000000E-03 0. -1.
    9900012    2    1    2    0    0 -0.63098213839E+01  0.39122898777E+02 -0.17697718537E+02  0.47787259269E+02  0.19999946309E+02 0.  0.
        -12    1    1    2    0    0  0.63098213839E+01 -0.39122898777E+02  0.17697718537E+02  0.43400740731E+02  0.00000000000E+00 0.  1.
         11    1    3    3    0    0 -0.52775300827E+01  0.19950811304E+02 -0.10156271038E+02  0.23000805141E+02  0.51100000000E-03 0. -1.
        -11    1    3    3    0    0 -0.11974780677E+01  0.81180797579E+00 -0.62110303890E+01  0.63772944629E+01  0.51100000000E-03 0.  1.
        -12    1    3    3    0    0  0.16518676649E+00  0.18360279497E+02 -0.13304171098E+01  0.18409159665E+02  0.00000000000E+00 0.  1.
</event>
<event>
 7    1  0.1400974E-009  0.4778727E+02  0.7816164E-02  0.1312668E+00
        -11   -1    0    0    0    0  0.00000000000E+00  0.00000000000E+00  0.45593999997E+02  0.45594000000E+02  0.51100000000E-03 0. -1.
         11   -1    0    0    0    0 -0.00000000000E+00 -0.00000000000E+00 -0.45593999997E+02  0.45594000000E+02  0.51100000000E-03 0.  1.
    9900012    2    1    2    0    0  0.17745338429E+02 -0.36556952814E+02  0.15241890911E+02  0.47787273352E+02  0.20000010523E+02 0.  0.
        -12    1    1    2    0    0 -0.17745338429E+02  0.36556952814E+02 -0.15241890911E+02  0.43400726648E+02  0.00000000000E+00 0.  1.
         11    1    3    3    0    0  0.19150466095E+02 -0.35508842799E+02  0.10046872802E+02  0.41575929598E+02  0.51100000000E-03 0. -1.
        -11    1    3    3    0    0 -0.14489383087E+01 -0.17152243305E+01  0.22031062372E+01  0.31456468460E+01  0.51100000000E-03 0.  1.
         12    1    3    3    0    0  0.43810642579E-01  0.66711431608E+00  0.29919118719E+01  0.30656969081E+01  0.00000000000E+00 0. -1.
</event>
<event>
 7    1  0.1400974E-009  0.4778721E+02  0.7816164E-02  0.1312668E+00
        -11   -1    0    0    0    0  0.00000000000E+00  0.00000000000E+00  0.45593999997E+02  0.45594000000E+02  0.51100000000E-03 0. -1.
         11   -1    0    0    0    0 -0.00000000000E+00 -0.00000000000E+00 -0.45593999997E+02  0.45594000000E+02  0.51100000000E-03 0.  1.
    9900012    2    1    2    0    0  0.18849334355E+02 -0.98691919450E+01  0.37827636704E+02  0.47787211368E+02  0.19999727910E+02 0.  0.
        -12    1    1    2    0    0 -0.18849334355E+02  0.98691919450E+01 -0.37827636704E+02  0.43400788632E+02  0.00000000000E+00 0.  1.
         11    1    3    3    0    0  0.10368992984E+02  0.31985482251E+01  0.94216566985E+01  0.14370606858E+02  0.51100000000E-03 0.  1.
        -11    1    3    3    0    0  0.34021808606E+00 -0.50126585822E+01  0.38774577798E+01  0.63464299809E+01  0.51100000000E-03 0. -1.
        -12    1    3    3    0    0  0.81401232843E+01 -0.80550815879E+01  0.24528522226E+02  0.27070174529E+02  0.00000000000E+00 0.  1.
</event>
<event>
 7    1  0.1400974E-009  0.4778733E+02  0.7816164E-02  0.1312668E+00
        -11   -1    0    0    0    0  0.00000000000E+00  0.00000000000E+00  0.45593999997E+02  0.45594000000E+02  0.51100000000E-03 0.  1.
         11   -1    0    0    0    0 -0.00000000000E+00 -0.00000000000E+00 -0.45593999997E+02  0.45594000000E+02  0.51100000000E-03 0. -1.
    9900012    2    1    2    0    0 -0.66327096277E+00 -0.24662696104E+02 -0.35706158414E+02  0.47787328851E+02  0.20000263561E+02 0.  0.
        -12    1    1    2    0    0  0.66327096277E+00  0.24662696104E+02  0.35706158414E+02  0.43400671149E+02  0.00000000000E+00 0.  1.
         11    1    3    3    0    0  0.37063609589E+01 -0.16727706697E+02 -0.23581791514E+02  0.29148828007E+02  0.51100000000E-03 0. -1.
        -11    1    3    3    0    0 -0.30241489351E+01 -0.13447614223E+01 -0.11403185717E+02  0.11873773824E+02  0.51100000000E-03 0.  1.
         12    1    3    3    0    0 -0.13454829866E+01 -0.65902279848E+01 -0.72118118306E+00  0.67647270202E+01  0.00000000000E+00 0. -1.
</event>
<event>
 7    1  0.1400974E-009  0.4778725E+02  0.7816164E-02  0.1312668E+00
        -11   -1    0    0    0    0  0.00000000000E+00  0.00000000000E+00  0.45593999997E+02  0.45594000000E+02  0.51100000000E-03 0. -1.
         11   -1    0    0    0    0 -0.00000000000E+00 -0.00000000000E+00 -0.45593999997E+02  0.45594000000E+02  0.51100000000E-03 0.  1.
    9900012    2    1    2    0    0  0.39326429286E+02 -0.69501784112E+01  0.16992711612E+02  0.47787248068E+02  0.19999895241E+02 0.  0.
        -12    1    1    2    0    0 -0.39326429286E+02  0.69501784112E+01 -0.16992711612E+02  0.43400751932E+02  0.00000000000E+00 0.  1.
         11    1    3    3    0    0  0.72632337377E+01 -0.48467103906E+01  0.62389541421E+01  0.10731715379E+02  0.51100000000E-03 0. -1.
        -11    1    3    3    0    0  0.44622385732E+01  0.41041503112E+01 -0.14682947186E+01  0.62379093054E+01  0.51100000000E-03 0.  1.
        -12    1    3    3    0    0  0.27600956975E+02 -0.62076183318E+01  0.12222052189E+02  0.30817623383E+02  0.00000000000E+00 0.  1.
</event>
<event>
 7    1  0.1400974E-009  0.4778727E+02  0.7816164E-02  0.1312668E+00
        -11   -1    0    0    0    0  0.00000000000E+00  0.00000000000E+00  0.45593999997E+02  0.45594000000E+02  0.51100000000E-03 0.  1.
         11   -1    0    0    0    0 -0.00000000000E+00 -0.00000000000E+00 -0.45593999997E+02  0.45594000000E+02  0.51100000000E-03 0. -1.
    9900012    2    1    2    0    0  0.60490180795E+01 -0.23619299733E+02 -0.35904891183E+02  0.47787272466E+02  0.20000006480E+02 0.  0.
        -12    1    1    2    0    0 -0.60490180795E+01  0.23619299733E+02  0.35904891183E+02  0.43400727534E+02  0.00000000000E+00 0.  1.
         11    1    3    3    0    0 -0.11485241130E+01 -0.21643036970E+01 -0.12269289658E+02  0.12511546151E+02  0.51100000000E-03 0. -1.
        -11    1    3    3    0    0  0.49875987881E+01 -0.13495856576E+01 -0.17030986446E+01  0.54404106806E+01  0.51100000000E-03 0.  1.
        -12    1    3    3    0    0  0.22099434044E+01 -0.20105410379E+02 -0.21932502881E+02  0.29835315634E+02  0.00000000000E+00 0.  1.
</event>
<event>
 7    1  0.1400974E-009  0.4778726E+02  0.7816164E-02  0.1312668E+00
        -11   -1    0    0    0    0  0.00000000000E+00  0.00000000000E+00  0.45593999997E+02  0.45594000000E+02  0.51100000000E-03 0.  1.
         11   -1    0    0    0    0 -0.00000000000E+00 -0.00000000000E+00 -0.45593999997E+02  0.45594000000E+02  0.51100000000E-03 0. -1.
    9900012    2    1    2    0    0 -0.69540319568E+01  0.35619042711E+02 -0.23802297334E+02  0.47787261268E+02  0.19999955427E+02 0.  0.
        -12    1    1    2    0    0  0.69540319568E+01 -0.35619042711E+02  0.23802297334E+02  0.43400738732E+02  0.00000000000E+00 0.  1.
         11    1    3    3    0    0 -0.64355618403E+01  0.23956263380E+02 -0.64089684045E+01  0.25620185159E+02  0.51100000000E-03 0. -1.
        -11    1    3    3    0    0  0.17872306409E+01 -0.42557946499E-01 -0.18447194203E+01  0.25688508215E+01  0.51100000000E-03 0.  1.
        -12    1    3    3    0    0 -0.23057007574E+01  0.11705337277E+02 -0.15548609509E+02  0.19598225288E+02  0.00000000000E+00 0.  1.
</event>
<event>
 7    1  0.1400974E-009  0.4778727E+02  0.7816164E-02  0.1312668E+00
        -11   -1    0    0    0    0  0.00000000000E+00  0.00000000000E+00  0.45593999997E+02  0.45594000000E+02  0.51100000000E-03 0. -1.
         11   -1    0    0    0    0 -0.00000000000E+00 -0.00000000000E+00 -0.45593999997E+02  0.45594000000E+02  0.51100000000E-03 0.  1.
    9900012    2    1    2    0    0  0.18245813278E+02  0.29707757777E+02  0.25848839689E+02  0.47787273191E+02  0.20000009785E+02 0.  0.
        -12    1    1    2    0    0 -0.18245813278E+02 -0.29707757777E+02 -0.25848839689E+02  0.43400726809E+02  0.00000000000E+00 0.  1.
         11    1    3    3    0    0  0.10206723447E+02  0.45580868026E+01  0.55377595429E+01  0.12474780152E+02  0.51100000000E-03 0.  1.
        -11    1    3    3    0    0  0.28449294258E+01 -0.34672477784E+00  0.19557591283E+01  0.34697025144E+01  0.51100000000E-03 0. -1.
         12    1    3    3    0    0  0.51941604046E+01  0.25496395752E+02  0.18355321018E+02  0.31842790524E+02  0.00000000000E+00 0. -1.
</event>
<event>
 7    1  0.1400974E-009  0.4778727E+02  0.7816164E-02  0.1312668E+00
        -11   -1    0    0    0    0  0.00000000000E+00  0.00000000000E+00  0.45593999997E+02  0.45594000000E+02  0.51100000000E-03 0.  1.
         11   -1    0    0    0    0 -0.00000000000E+00 -0.00000000000E+00 -0.45593999997E+02  0.45594000000E+02  0.51100000000E-03 0. -1.
    9900012    2    1    2    0    0  0.72192843681E+00  0.64383894291E+01 -0.42914442489E+02  0.47787269439E+02  0.19999992681E+02 0.  0.
        -12    1    1    2    0    0 -0.72192843681E+00 -0.64383894291E+01  0.42914442489E+02  0.43400730561E+02  0.00000000000E+00 0.  1.
         11    1    3    3    0    0 -0.40824229256E+01  0.81632241011E+01 -0.75235664529E+01  0.11828290540E+02  0.51100000000E-03 0. -1.
        -11    1    3    3    0    0  0.26720717316E+01  0.60222426667E+00 -0.98475610013E+01  0.10221403981E+02  0.51100000000E-03 0.  1.
         12    1    3    3    0    0  0.21322796308E+01 -0.23270589388E+01 -0.25543315034E+02  0.25737574918E+02  0.00000000000E+00 0. -1.
</event>
<event>
 7    1  0.1400974E-009  0.4778727E+02  0.7816164E-02  0.1312668E+00
        -11   -1    0    0    0    0  0.00000000000E+00  0.00000000000E+00  0.45593999997E+02  0.45594000000E+02  0.51100000000E-03 0. -1.
         11   -1    0    0    0    0 -0.00000000000E+00 -0.00000000000E+00 -0.45593999997E+02  0.45594000000E+02  0.51100000000E-03 0.  1.
    9900012    2    1    2    0    0  0.42052586729E+02  0.47966169286E+00  0.10722556427E+02  0.47787270256E+02  0.19999996407E+02 0.  0.
        -12    1    1    2    0    0 -0.42052586729E+02 -0.47966169286E+00 -0.10722556427E+02  0.43400729744E+02  0.00000000000E+00 0.  1.
         11    1    3    3    0    0  0.10621848996E+01 -0.57640929200E+00  0.27176853258E+01  0.29742727219E+01  0.51100000000E-03 0.  1.
        -11    1    3    3    0    0  0.27341304430E+02 -0.24569414533E+01  0.12297145999E+02  0.30079948291E+02  0.51100000000E-03 0. -1.
         12    1    3    3    0    0  0.13649097400E+02  0.35130124381E+01 -0.42922748975E+01  0.14733049244E+02  0.00000000000E+00 0. -1.
</event>
<event>
 7    1  0.1400974E-009  0.4778727E+02  0.7816164E-02  0.1312668E+00
        -11   -1    0    0    0    0  0.00000000000E+00  0.00000000000E+00  0.45593999997E+02  0.45594000000E+02  0.51100000000E-03 0.  1.
         11   -1    0    0    0    0 -0.00000000000E+00 -0.00000000000E+00 -0.45593999997E+02  0.45594000000E+02  0.51100000000E-03 0. -1.
    9900012    2    1    2    0    0 -0.41967193800E+02 -0.11019206162E+02 -0.97717674502E+00  0.47787272653E+02  0.20000007332E+02 0.  0.
        -12    1    1    2    0    0  0.41967193800E+02  0.11019206162E+02  0.97717674502E+00  0.43400727347E+02  0.00000000000E+00 0.  1.
         11    1    3    3    0    0 -0.12900174942E+02 -0.73666987723E+01 -0.33664238980E+01  0.15232057460E+02  0.51100000000E-03 0.  1.
        -11    1    3    3    0    0 -0.72798724781E+01 -0.50524538990E+01 -0.41215644430E+01  0.97729794545E+01  0.51100000000E-03 0. -1.
        -12    1    3    3    0    0 -0.21787146380E+02  0.13999465088E+01  0.65108115959E+01  0.22782235738E+02  0.00000000000E+00 0.  1.
</event>
<event>
 7    1  0.1400974E-009  0.4778725E+02  0.7816164E-02  0.1312668E+00
        -11   -1    0    0    0    0  0.00000000000E+00  0.00000000000E+00  0.45593999997E+02  0.45594000000E+02  0.51100000000E-03 0. -1.
         11   -1    0    0    0    0 -0.00000000000E+00 -0.00000000000E+00 -0.45593999997E+02  0.45594000000E+02  0.51100000000E-03 0.  1.
    9900012    2    1    2    0    0 -0.21675974814E+02 -0.19964910016E+02  0.31861887791E+02  0.47787246439E+02  0.19999887812E+02 0.  0.
        -12    1    1    2    0    0  0.21675974814E+02  0.19964910016E+02 -0.31861887791E+02  0.43400753561E+02  0.00000000000E+00 0.  1.
         11    1    3    3    0    0 -0.12305432812E+02 -0.40066539309E+01  0.22521212028E+02  0.25974640399E+02  0.51100000000E-03 0. -1.
        -11    1    3    3    0    0 -0.64066968299E+01 -0.47577516833E+01  0.25225690835E+01  0.83693082386E+01  0.51100000000E-03 0.  1.
         12    1    3    3    0    0 -0.29638451715E+01 -0.11200504402E+02  0.68181066798E+01  0.13443297801E+02  0.00000000000E+00 0. -1.
</event>
<event>
 7    1  0.1400974E-009  0.4778725E+02  0.7816164E-02  0.1312668E+00
        -11   -1    0    0    0    0  0.00000000000E+00  0.00000000000E+00  0.45593999997E+02  0.45594000000E+02  0.51100000000E-03 0.  1.
         11   -1    0    0    0    0 -0.00000000000E+00 -0.00000000000E+00 -0.45593999997E+02  0.45594000000E+02  0.51100000000E-03 0. -1.
    9900012    2    1    2    0    0  0.33792060089E+02  0.11673269709E+02 -0.24606021830E+02  0.47787252759E+02  0.19999916629E+02 0.  0.
        -12    1    1    2    0    0 -0.33792060089E+02 -0.11673269709E+02  0.24606021830E+02  0.43400747241E+02  0.00000000000E+00 0.  1.
         11    1    3    3    0    0  0.50355872197E+01  0.34972270370E+01 -0.13721704951E+00  0.61324191291E+01  0.51100000000E-03 0. -1.
        -11    1    3    3    0    0  0.21462358574E+02  0.93359190100E+01 -0.25004917426E+02  0.34249644014E+02  0.51100000000E-03 0.  1.
        -12    1    3    3    0    0  0.72941142958E+01 -0.11598763384E+01  0.53611264563E+00  0.74051896160E+01  0.00000000000E+00 0.  1.
</event>
<event>
 7    1  0.1400974E-009  0.4778727E+02  0.7816164E-02  0.1312668E+00
        -11   -1    0    0    0    0  0.00000000000E+00  0.00000000000E+00  0.45593999997E+02  0.45594000000E+02  0.51100000000E-03 0. -1.
         11   -1    0    0    0    0 -0.00000000000E+00 -0.00000000000E+00 -0.45593999997E+02  0.45594000000E+02  0.51100000000E-03 0.  1.
    9900012    2    1    2    0    0 -0.33794301461E+01  0.43257839137E+02  0.98078036758E+00  0.47787272759E+02  0.20000007819E+02 0.  0.
        -12    1    1    2    0    0  0.33794301461E+01 -0.43257839137E+02 -0.98078036758E+00  0.43400727241E+02  0.00000000000E+00 0.  1.
         11    1    3    3    0    0 -0.48123218099E+01  0.31401859438E+02 -0.10055448949E+01  0.31784372547E+02  0.51100000000E-03 0.  1.
        -11    1    3    3    0    0  0.42366884613E+01  0.12127779560E+02  0.26309566030E+01  0.13113142228E+02  0.51100000000E-03 0. -1.
        -12    1    3    3    0    0 -0.28037967974E+01 -0.27179986188E+00 -0.64463134051E+00  0.28897579849E+01  0.00000000000E+00 0.  1.
</event>
<event>
 7    1  0.1400974E-009  0.4778727E+02  0.7816164E-02  0.1312668E+00
        -11   -1    0    0    0    0  0.00000000000E+00  0.00000000000E+00  0.45593999997E+02  0.45594000000E+02  0.51100000000E-03 0.  1.
         11   -1    0    0    0    0 -0.00000000000E+00 -0.00000000000E+00 -0.45593999997E+02  0.45594000000E+02  0.51100000000E-03 0. -1.
    9900012    2    1    2    0    0 -0.22705631077E+01 -0.41719198720E+02 -0.11746316427E+02  0.47787274795E+02  0.20000017102E+02 0.  0.
        -12    1    1    2    0    0  0.22705631077E+01  0.41719198720E+02  0.11746316427E+02  0.43400725205E+02  0.00000000000E+00 0.  1.
         11    1    3    3    0    0 -0.15884439925E+01 -0.21417075629E+02 -0.69401567603E+01  0.22569449682E+02  0.51100000000E-03 0. -1.
        -11    1    3    3    0    0  0.46354564384E+01 -0.58033737387E+01 -0.62502396238E+01  0.97073219149E+01  0.51100000000E-03 0.  1.
         12    1    3    3    0    0 -0.53175755535E+01 -0.14498749352E+02  0.14440799575E+01  0.15510503199E+02  0.00000000000E+00 0. -1.
</event>
<event>
 7    1  0.1400974E-009  0.4778728E+02  0.7816164E-02  0.1312668E+00
        -11   -1    0    0    0    0  0.00000000000E+00  0.00000000000E+00  0.45593999997E+02  0.45594000000E+02  0.51100000000E-03 0.  1.
         11   -1    0    0    0    0 -0.00000000000E+00 -0.00000000000E+00 -0.45593999997E+02  0.45594000000E+02  0.51100000000E-03 0. -1.
    9900012    2    1    2    0    0  0.19619478197E+02 -0.98203185476E+01 -0.37446762700E+02  0.47787278602E+02  0.20000034459E+02 0.  0.
        -12    1    1    2    0    0 -0.19619478197E+02  0.98203185476E+01  0.37446762700E+02  0.43400721398E+02  0.00000000000E+00 0.  1.
         11    1    3    3    0    0  0.10324183953E+02 -0.26225866720E+01 -0.12610557622E+02  0.16507358933E+02  0.51100000000E-03 0. -1.
        -11    1    3    3    0    0 -0.14426122744E+01  0.14917198351E+01 -0.12773423479E+02  0.12940892777E+02  0.51100000000E-03 0.  1.
        -12    1    3    3    0    0  0.10737906519E+02 -0.86894517107E+01 -0.12062781600E+02  0.18339026892E+02  0.00000000000E+00 0.  1.
</event>
<event>
 7    1  0.1400974E-009  0.4778728E+02  0.7816164E-02  0.1312668E+00
        -11   -1    0    0    0    0  0.00000000000E+00  0.00000000000E+00  0.45593999997E+02  0.45594000000E+02  0.51100000000E-03 0. -1.
         11   -1    0    0    0    0 -0.00000000000E+00 -0.00000000000E+00 -0.45593999997E+02  0.45594000000E+02  0.51100000000E-03 0.  1.
    9900012    2    1    2    0    0  0.54839752133E+01  0.13513640787E+02  0.40877012765E+02  0.47787278300E+02  0.20000033082E+02 0.  0.
        -12    1    1    2    0    0 -0.54839752133E+01 -0.13513640787E+02 -0.40877012765E+02  0.43400721700E+02  0.00000000000E+00 0.  1.
         11    1    3    3    0    0  0.81855490352E+01  0.93987187166E+01  0.23064482703E+02  0.26216588053E+02  0.51100000000E-03 0. -1.
        -11    1    3    3    0    0  0.20443566065E+01 -0.19436156693E+01  0.85354121991E+00  0.29471288875E+01  0.51100000000E-03 0.  1.
         12    1    3    3    0    0 -0.47459304284E+01  0.60585377395E+01  0.16958988843E+02  0.18623561360E+02  0.00000000000E+00 0. -1.
</event>
<event>
 7    1  0.1400974E-009  0.4778727E+02  0.7816164E-02  0.1312668E+00
        -11   -1    0    0    0    0  0.00000000000E+00  0.00000000000E+00  0.45593999997E+02  0.45594000000E+02  0.51100000000E-03 0.  1.
         11   -1    0    0    0    0 -0.00000000000E+00 -0.00000000000E+00 -0.45593999997E+02  0.45594000000E+02  0.51100000000E-03 0. -1.
    9900012    2    1    2    0    0  0.26794394904E+02 -0.18021214854E+02 -0.28998612264E+02  0.47787270786E+02  0.19999998823E+02 0.  0.
        -12    1    1    2    0    0 -0.26794394904E+02  0.18021214854E+02  0.28998612264E+02  0.43400729214E+02  0.00000000000E+00 0.  1.
         11    1    3    3    0    0  0.28380025433E+02 -0.11579067484E+02 -0.26124631344E+02  0.40274024017E+02  0.51100000000E-03 0. -1.
        -11    1    3    3    0    0 -0.11512602795E+01 -0.18595647008E+01 -0.16798206977E+01  0.27577488909E+01  0.51100000000E-03 0.  1.
         12    1    3    3    0    0 -0.43437024991E+00 -0.45825826697E+01 -0.11941602216E+01  0.47554978786E+01  0.00000000000E+00 0. -1.
</event>
<event>
 7    1  0.1400974E-009  0.4778727E+02  0.7816164E-02  0.1312668E+00
        -11   -1    0    0    0    0  0.00000000000E+00  0.00000000000E+00  0.45593999997E+02  0.45594000000E+02  0.51100000000E-03 0.  1.
         11   -1    0    0    0    0 -0.00000000000E+00 -0.00000000000E+00 -0.45593999997E+02  0.45594000000E+02  0.51100000000E-03 0. -1.
    9900012    2    1    2    0    0  0.10102203365E+02 -0.33254827602E+02 -0.25993946226E+02  0.47787270605E+02  0.19999997994E+02 0.  0.
        -12    1    1    2    0    0 -0.10102203365E+02  0.33254827602E+02  0.25993946226E+02  0.43400729395E+02  0.00000000000E+00 0.  1.
         11    1    3    3    0    0  0.39091459168E+01 -0.18267639690E+02 -0.20096351957E+02  0.27438138491E+02  0.51100000000E-03 0. -1.
        -11    1    3    3    0    0 -0.19643593478E+01  0.40014519489E+00 -0.10899451984E+01  0.22818423742E+01  0.51100000000E-03 0.  1.
         12    1    3    3    0    0  0.81574167958E+01 -0.15387333107E+02 -0.48076490708E+01  0.18067289739E+02  0.00000000000E+00 0. -1.
</event>
<event>
 7    1  0.1400974E-009  0.4778727E+02  0.7816164E-02  0.1312668E+00
        -11   -1    0    0    0    0  0.00000000000E+00  0.00000000000E+00  0.45593999997E+02  0.45594000000E+02  0.51100000000E-03 0.  1.
         11   -1    0    0    0    0 -0.00000000000E+00 -0.00000000000E+00 -0.45593999997E+02  0.45594000000E+02  0.51100000000E-03 0. -1.
    9900012    2    1    2    0    0 -0.22820013931E+02  0.25604734516E+02 -0.26594505083E+02  0.47787272286E+02  0.20000005661E+02 0.  0.
        -12    1    1    2    0    0  0.22820013931E+02 -0.25604734516E+02  0.26594505083E+02  0.43400727714E+02  0.00000000000E+00 0.  1.
         11    1    3    3    0    0 -0.42089951287E+01 -0.13568051413E+01 -0.40289104120E+01  0.59823640439E+01  0.51100000000E-03 0. -1.
        -11    1    3    3    0    0 -0.87336880723E+01  0.29391689505E+01 -0.61417444537E+01  0.11074161217E+02  0.51100000000E-03 0.  1.
        -12    1    3    3    0    0 -0.98773307303E+01  0.24022370707E+02 -0.16423850218E+02  0.30730747025E+02  0.00000000000E+00 0.  1.
</event>
<event>
 7    1  0.1400974E-009  0.4778727E+02  0.7816164E-02  0.1312668E+00
        -11   -1    0    0    0    0  0.00000000000E+00  0.00000000000E+00  0.45593999997E+02  0.45594000000E+02  0.51100000000E-03 0.  1.
         11   -1    0    0    0    0 -0.00000000000E+00 -0.00000000000E+00 -0.45593999997E+02  0.45594000000E+02  0.51100000000E-03 0. -1.
    9900012    2    1    2    0    0 -0.13138826126E+02 -0.16702493550E+02 -0.37842053029E+02  0.47787273967E+02  0.20000013325E+02 0.  0.
        -12    1    1    2    0    0  0.13138826126E+02  0.16702493550E+02  0.37842053029E+02  0.43400726033E+02  0.00000000000E+00 0.  1.
         11    1    3    3    0    0  0.10234119270E+01 -0.57345453131E+01 -0.59161526046E+01  0.83026046408E+01  0.51100000000E-03 0. -1.
        -11    1    3    3    0    0 -0.15315510979E+02 -0.13349697359E+02 -0.29910920377E+02  0.36158573730E+02  0.51100000000E-03 0.  1.
         12    1    3    3    0    0  0.11532729266E+01  0.23817491221E+01 -0.20149800474E+01  0.33260955962E+01  0.00000000000E+00 0. -1.
</event>
<event>
 7    1  0.1400974E-009  0.4778730E+02  0.7816164E-02  0.1312668E+00
        -11   -1    0    0    0    0  0.00000000000E+00  0.00000000000E+00  0.45593999997E+02  0.45594000000E+02  0.51100000000E-03 0. -1.
         11   -1    0    0    0    0 -0.00000000000E+00 -0.00000000000E+00 -0.45593999997E+02  0.45594000000E+02  0.51100000000E-03 0.  1.
    9900012    2    1    2    0    0  0.52875075930E+01  0.18135425688E+02  0.39073894149E+02  0.47787301787E+02  0.20000140166E+02 0.  0.
        -12    1    1    2    0    0 -0.52875075930E+01 -0.18135425688E+02 -0.39073894149E+02  0.43400698213E+02  0.00000000000E+00 0.  1.
         11    1    3    3    0    0  0.76741620351E+01  0.67855994554E+01  0.90003230452E+01  0.13636089545E+02  0.51100000000E-03 0. -1.
        -11    1    3    3    0    0  0.27035066454E+01  0.61894017203E+01  0.23195537619E+02  0.24158861884E+02  0.51100000000E-03 0.  1.
         12    1    3    3    0    0 -0.50901610875E+01  0.51604245125E+01  0.68780334852E+01  0.99923503576E+01  0.00000000000E+00 0. -1.
</event>
<event>
 7    1  0.1400974E-009  0.4778727E+02  0.7816164E-02  0.1312668E+00
        -11   -1    0    0    0    0  0.00000000000E+00  0.00000000000E+00  0.45593999997E+02  0.45594000000E+02  0.51100000000E-03 0. -1.
         11   -1    0    0    0    0 -0.00000000000E+00 -0.00000000000E+00 -0.45593999997E+02  0.45594000000E+02  0.51100000000E-03 0.  1.
    9900012    2    1    2    0    0  0.36789490264E+02  0.45156908152E+01  0.22577981913E+02  0.47787270459E+02  0.19999997330E+02 0.  0.
        -12    1    1    2    0    0 -0.36789490264E+02 -0.45156908152E+01 -0.22577981913E+02  0.43400729541E+02  0.00000000000E+00 0.  1.
         11    1    3    3    0    0  0.11618857378E+02  0.35711940354E+01 -0.81896011876E+00  0.12182855558E+02  0.51100000000E-03 0. -1.
        -11    1    3    3    0    0  0.60081503153E+01  0.41381270028E+01  0.79047293498E+01  0.10756705428E+02  0.51100000000E-03 0.  1.
        -12    1    3    3    0    0  0.19162482570E+02 -0.31936302230E+01  0.15492212682E+02  0.24847709473E+02  0.00000000000E+00 0.  1.
</event>
<event>
 7    1  0.1400974E-009  0.4778727E+02  0.7816164E-02  0.1312668E+00
        -11   -1    0    0    0    0  0.00000000000E+00  0.00000000000E+00  0.45593999997E+02  0.45594000000E+02  0.51100000000E-03 0.  1.
         11   -1    0    0    0    0 -0.00000000000E+00 -0.00000000000E+00 -0.45593999997E+02  0.45594000000E+02  0.51100000000E-03 0. -1.
    9900012    2    1    2    0    0 -0.94949698644E+01  0.31812300938E+02 -0.27954359181E+02  0.47787272576E+02  0.20000006983E+02 0.  0.
        -12    1    1    2    0    0  0.94949698644E+01 -0.31812300938E+02  0.27954359181E+02  0.43400727424E+02  0.00000000000E+00 0.  1.
         11    1    3    3    0    0 -0.11392459032E+02  0.15366105493E+02 -0.14940562550E+02  0.24271912376E+02  0.51100000000E-03 0. -1.
        -11    1    3    3    0    0  0.15217354261E+01  0.30604271426E+01 -0.88576141693E+01  0.94941677906E+01  0.51100000000E-03 0.  1.
        -12    1    3    3    0    0  0.37575374118E+00  0.13385768303E+02 -0.41561824611E+01  0.14021192410E+02  0.00000000000E+00 0.  1.
</event>
<event>
 7    1  0.1400974E-009  0.4778727E+02  0.7816164E-02  0.1312668E+00
        -11   -1    0    0    0    0  0.00000000000E+00  0.00000000000E+00  0.45593999997E+02  0.45594000000E+02  0.51100000000E-03 0.  1.
         11   -1    0    0    0    0 -0.00000000000E+00 -0.00000000000E+00 -0.45593999997E+02  0.45594000000E+02  0.51100000000E-03 0. -1.
    9900012    2    1    2    0    0  0.14484496780E+02 -0.22250826615E+02 -0.34332544847E+02  0.47787267659E+02  0.19999984567E+02 0.  0.
        -12    1    1    2    0    0 -0.14484496780E+02  0.22250826615E+02  0.34332544847E+02  0.43400732341E+02  0.00000000000E+00 0.  1.
         11    1    3    3    0    0 -0.14527220344E+01 -0.11700166712E+02 -0.17848578013E+02  0.21391027085E+02  0.51100000000E-03 0. -1.
        -11    1    3    3    0    0  0.60756315681E+01 -0.75553353497E+01 -0.48070130519E+01  0.10821449346E+02  0.51100000000E-03 0.  1.
        -12    1    3    3    0    0  0.98615872465E+01 -0.29953245535E+01 -0.11676953782E+02  0.15574791229E+02  0.00000000000E+00 0.  1.
</event>
<event>
 7    1  0.1400974E-009  0.4778727E+02  0.7816164E-02  0.1312668E+00
        -11   -1    0    0    0    0  0.00000000000E+00  0.00000000000E+00  0.45593999997E+02  0.45594000000E+02  0.51100000000E-03 0.  1.
         11   -1    0    0    0    0 -0.00000000000E+00 -0.00000000000E+00 -0.45593999997E+02  0.45594000000E+02  0.51100000000E-03 0. -1.
    9900012    2    1    2    0    0 -0.32336762468E+02 -0.90122991589E+01 -0.27508826077E+02  0.47787271260E+02  0.20000000982E+02 0.  0.
        -12    1    1    2    0    0  0.32336762468E+02  0.90122991589E+01  0.27508826077E+02  0.43400728740E+02  0.00000000000E+00 0.  1.
         11    1    3    3    0    0 -0.69744637924E+00  0.14925904132E+01  0.40166468729E-01  0.16479900484E+01  0.51100000000E-03 0. -1.
        -11    1    3    3    0    0 -0.22162004030E+02 -0.10712281464E+01 -0.10712548533E+02  0.24638600786E+02  0.51100000000E-03 0.  1.
         12    1    3    3    0    0 -0.94773120587E+01 -0.94336614257E+01 -0.16836444012E+02  0.21500680425E+02  0.00000000000E+00 0. -1.
</event>
<event>
 7    1  0.1400974E-009  0.4778728E+02  0.7816164E-02  0.1312668E+00
        -11   -1    0    0    0    0  0.00000000000E+00  0.00000000000E+00  0.45593999997E+02  0.45594000000E+02  0.51100000000E-03 0.  1.
         11   -1    0    0    0    0 -0.00000000000E+00 -0.00000000000E+00 -0.45593999997E+02  0.45594000000E+02  0.51100000000E-03 0. -1.
    9900012    2    1    2    0    0  0.23074456067E+02  0.15916429926E+02 -0.33133963137E+02  0.47787276762E+02  0.20000026070E+02 0.  0.
        -12    1    1    2    0    0 -0.23074456067E+02 -0.15916429926E+02  0.33133963137E+02  0.43400723238E+02  0.00000000000E+00 0.  1.
         11    1    3    3    0    0  0.11642648255E+02  0.26583482494E+01 -0.10002127081E+02  0.15577567853E+02  0.51100000000E-03 0. -1.
        -11    1    3    3    0    0  0.22849420026E+01 -0.14860865738E+01  0.62001505018E+00  0.27953232700E+01  0.51100000000E-03 0.  1.
         12    1    3    3    0    0  0.91468658084E+01  0.14744168251E+02 -0.23751851107E+02  0.29414385639E+02  0.00000000000E+00 0. -1.
</event>
<event>
 7    1  0.1400974E-009  0.4778727E+02  0.7816164E-02  0.1312668E+00
        -11   -1    0    0    0    0  0.00000000000E+00  0.00000000000E+00  0.45593999997E+02  0.45594000000E+02  0.51100000000E-03 0.  1.
         11   -1    0    0    0    0 -0.00000000000E+00 -0.00000000000E+00 -0.45593999997E+02  0.45594000000E+02  0.51100000000E-03 0. -1.
    9900012    2    1    2    0    0 -0.39179203557E+02  0.11189123599E+02  0.14947129275E+02  0.47787272450E+02  0.20000006410E+02 0.  0.
        -12    1    1    2    0    0  0.39179203557E+02 -0.11189123599E+02 -0.14947129275E+02  0.43400727550E+02  0.00000000000E+00 0.  1.
         11    1    3    3    0    0 -0.12943319676E+02  0.16270769291E+01  0.13211689334E+01  0.13111917906E+02  0.51100000000E-03 0. -1.
        -11    1    3    3    0    0 -0.17337209579E+02 -0.18253004562E+01  0.75859631867E+01  0.19012032913E+02  0.51100000000E-03 0.  1.
        -12    1    3    3    0    0 -0.88986743018E+01  0.11387347126E+02  0.60399971548E+01  0.15663321631E+02  0.00000000000E+00 0.  1.
</event>
<event>
 7    1  0.1400974E-009  0.4778727E+02  0.7816164E-02  0.1312668E+00
        -11   -1    0    0    0    0  0.00000000000E+00  0.00000000000E+00  0.45593999997E+02  0.45594000000E+02  0.51100000000E-03 0.  1.
         11   -1    0    0    0    0 -0.00000000000E+00 -0.00000000000E+00 -0.45593999997E+02  0.45594000000E+02  0.51100000000E-03 0. -1.
    9900012    2    1    2    0    0  0.26730293034E+02 -0.17525128271E+02 -0.29359578266E+02  0.47787268179E+02  0.19999986935E+02 0.  0.
        -12    1    1    2    0    0 -0.26730293034E+02  0.17525128271E+02  0.29359578266E+02  0.43400731821E+02  0.00000000000E+00 0.  1.
         11    1    3    3    0    0 -0.18221065370E-01 -0.57044256470E-01 -0.16671674887E+00  0.17714623872E+00  0.51100000000E-03 0. -1.
        -11    1    3    3    0    0  0.13854594190E+02 -0.14291592501E+02 -0.58368289538E+01  0.20742901651E+02  0.51100000000E-03 0.  1.
        -12    1    3    3    0    0  0.12893919910E+02 -0.31764915135E+01 -0.23356032564E+02  0.26867220290E+02  0.00000000000E+00 0.  1.
</event>
<event>
 7    1  0.1400974E-009  0.4778726E+02  0.7816164E-02  0.1312668E+00
        -11   -1    0    0    0    0  0.00000000000E+00  0.00000000000E+00  0.45593999997E+02  0.45594000000E+02  0.51100000000E-03 0.  1.
         11   -1    0    0    0    0 -0.00000000000E+00 -0.00000000000E+00 -0.45593999997E+02  0.45594000000E+02  0.51100000000E-03 0. -1.
    9900012    2    1    2    0    0 -0.20994072499E+02  0.28024998384E+02 -0.25641233019E+02  0.47787257549E+02  0.19999938471E+02 0.  0.
        -12    1    1    2    0    0  0.20994072499E+02 -0.28024998384E+02  0.25641233019E+02  0.43400742451E+02  0.00000000000E+00 0.  1.
         11    1    3    3    0    0 -0.63637998728E+01  0.27229295020E+01 -0.93042300722E+00  0.69841235046E+01  0.51100000000E-03 0. -1.
        -11    1    3    3    0    0 -0.99830496929E+00  0.12207186058E+02 -0.15559797368E+02  0.19802002390E+02  0.51100000000E-03 0.  1.
         12    1    3    3    0    0 -0.13631967657E+02  0.13094882825E+02 -0.91510126440E+01  0.21001131655E+02  0.00000000000E+00 0. -1.
</event>
<event>
 7    1  0.1400974E-009  0.4778727E+02  0.7816164E-02  0.1312668E+00
        -11   -1    0    0    0    0  0.00000000000E+00  0.00000000000E+00  0.45593999997E+02  0.45594000000E+02  0.51100000000E-03 0.  1.
         11   -1    0    0    0    0 -0.00000000000E+00 -0.00000000000E+00 -0.45593999997E+02  0.45594000000E+02  0.51100000000E-03 0. -1.
    9900012    2    1    2    0    0 -0.94055606780E+01  0.41671455532E+02  0.76582435673E+01  0.47787268758E+02  0.19999989575E+02 0.  0.
        -12    1    1    2    0    0  0.94055606780E+01 -0.41671455532E+02 -0.76582435673E+01  0.43400731242E+02  0.00000000000E+00 0.  1.
         11    1    3    3    0    0 -0.21643343795E+01  0.35206233741E+02  0.10799560230E+02  0.36888937894E+02  0.51100000000E-03 0. -1.
        -11    1    3    3    0    0 -0.22716348036E+01  0.16577266175E+01  0.82037279980E+00  0.29294016472E+01  0.51100000000E-03 0.  1.
         12    1    3    3    0    0 -0.49695914949E+01  0.48074951732E+01 -0.39616894622E+01  0.79689292168E+01  0.00000000000E+00 0. -1.
</event>
<event>
 7    1  0.1400974E-009  0.4778726E+02  0.7816164E-02  0.1312668E+00
        -11   -1    0    0    0    0  0.00000000000E+00  0.00000000000E+00  0.45593999997E+02  0.45594000000E+02  0.51100000000E-03 0.  1.
         11   -1    0    0    0    0 -0.00000000000E+00 -0.00000000000E+00 -0.45593999997E+02  0.45594000000E+02  0.51100000000E-03 0. -1.
    9900012    2    1    2    0    0  0.21096748964E+02  0.34896778407E+02 -0.14858213707E+02  0.47787257211E+02  0.19999936928E+02 0.  0.
        -12    1    1    2    0    0 -0.21096748964E+02 -0.34896778407E+02  0.14858213707E+02  0.43400742789E+02  0.00000000000E+00 0.  1.
         11    1    3    3    0    0  0.77876387181E+01  0.21138991651E+02 -0.19259570211E+01  0.22610033072E+02  0.51100000000E-03 0. -1.
        -11    1    3    3    0    0  0.69987672835E+01  0.13334544711E+02 -0.10685644528E+02  0.18465530736E+02  0.51100000000E-03 0.  1.
         12    1    3    3    0    0  0.63103429628E+01  0.42324204481E+00 -0.22466121584E+01  0.67116934023E+01  0.00000000000E+00 0. -1.
</event>
<event>
 7    1  0.1400974E-009  0.4778727E+02  0.7816164E-02  0.1312668E+00
        -11   -1    0    0    0    0  0.00000000000E+00  0.00000000000E+00  0.45593999997E+02  0.45594000000E+02  0.51100000000E-03 0.  1.
         11   -1    0    0    0    0 -0.00000000000E+00 -0.00000000000E+00 -0.45593999997E+02  0.45594000000E+02  0.51100000000E-03 0. -1.
    9900012    2    1    2    0    0  0.28751363955E+02 -0.32303346372E+02 -0.36709994342E+01  0.47787270133E+02  0.19999995846E+02 0.  0.
        -12    1    1    2    0    0 -0.28751363955E+02  0.32303346372E+02  0.36709994342E+01  0.43400729867E+02  0.00000000000E+00 0.  1.
         11    1    3    3    0    0  0.18362091318E+02 -0.88166932862E+01 -0.45648633119E+01  0.20874349221E+02  0.51100000000E-03 0. -1.
        -11    1    3    3    0    0  0.94046758775E+01 -0.13514878602E+02  0.28321397656E+01  0.16706911381E+02  0.51100000000E-03 0.  1.
        -12    1    3    3    0    0  0.98459675970E+00 -0.99717744840E+01 -0.19382758880E+01  0.10206009532E+02  0.00000000000E+00 0.  1.
</event>
<event>
 7    1  0.1400974E-009  0.4778727E+02  0.7816164E-02  0.1312668E+00
        -11   -1    0    0    0    0  0.00000000000E+00  0.00000000000E+00  0.45593999997E+02  0.45594000000E+02  0.51100000000E-03 0.  1.
         11   -1    0    0    0    0 -0.00000000000E+00 -0.00000000000E+00 -0.45593999997E+02  0.45594000000E+02  0.51100000000E-03 0. -1.
    9900012    2    1    2    0    0 -0.52894674054E+01  0.13783589523E+02 -0.40812470136E+02  0.47787268161E+02  0.19999986852E+02 0.  0.
        -12    1    1    2    0    0  0.52894674054E+01 -0.13783589523E+02  0.40812470136E+02  0.43400731839E+02  0.00000000000E+00 0.  1.
         11    1    3    3    0    0  0.43741816851E+01  0.37077609667E+00 -0.93386819035E+01  0.10319007718E+02  0.51100000000E-03 0. -1.
        -11    1    3    3    0    0 -0.10319891044E+02  0.53794169108E+01 -0.13860890999E+02  0.18098689925E+02  0.51100000000E-03 0.  1.
         12    1    3    3    0    0  0.65624195349E+00  0.80333965155E+01 -0.17612897233E+02  0.19369570517E+02  0.00000000000E+00 0. -1.
</event>
<event>
 7    1  0.1400974E-009  0.4778727E+02  0.7816164E-02  0.1312668E+00
        -11   -1    0    0    0    0  0.00000000000E+00  0.00000000000E+00  0.45593999997E+02  0.45594000000E+02  0.51100000000E-03 0.  1.
         11   -1    0    0    0    0 -0.00000000000E+00 -0.00000000000E+00 -0.45593999997E+02  0.45594000000E+02  0.51100000000E-03 0. -1.
    9900012    2    1    2    0    0 -0.49380626047E+01 -0.37825770583E+02 -0.20699025567E+02  0.47787273717E+02  0.20000012183E+02 0.  0.
        -12    1    1    2    0    0  0.49380626047E+01  0.37825770583E+02  0.20699025567E+02  0.43400726283E+02  0.00000000000E+00 0.  1.
         11    1    3    3    0    0 -0.14336040156E+01 -0.26505756746E+02 -0.10148191588E+02  0.28418236291E+02  0.51100000000E-03 0. -1.
        -11    1    3    3    0    0  0.28197549558E+01 -0.60318349264E+01 -0.96831928222E+00  0.67284242645E+01  0.51100000000E-03 0.  1.
        -12    1    3    3    0    0 -0.63242135449E+01 -0.52881789110E+01 -0.95825146973E+01  0.12640613161E+02  0.00000000000E+00 0.  1.
</event>
<event>
 7    1  0.1400974E-009  0.4778727E+02  0.7816164E-02  0.1312668E+00
        -11   -1    0    0    0    0  0.00000000000E+00  0.00000000000E+00  0.45593999997E+02  0.45594000000E+02  0.51100000000E-03 0.  1.
         11   -1    0    0    0    0 -0.00000000000E+00 -0.00000000000E+00 -0.45593999997E+02  0.45594000000E+02  0.51100000000E-03 0. -1.
    9900012    2    1    2    0    0  0.86139678213E+01 -0.42482439967E+02  0.21598663714E+01  0.47787272242E+02  0.20000005460E+02 0.  0.
        -12    1    1    2    0    0 -0.86139678213E+01  0.42482439967E+02 -0.21598663714E+01  0.43400727758E+02  0.00000000000E+00 0.  1.
         11    1    3    3    0    0  0.13174607624E+02 -0.32628888873E+02  0.13379647232E+01  0.35213702234E+02  0.51100000000E-03 0. -1.
        -11    1    3    3    0    0 -0.39969518553E+01 -0.10653108254E+02  0.13563863177E+01  0.11458801146E+02  0.51100000000E-03 0.  1.
        -12    1    3    3    0    0 -0.56368794756E+00  0.79955715975E+00 -0.53448466953E+00  0.11147688621E+01  0.00000000000E+00 0.  1.
</event>
<event>
 7    1  0.1400974E-009  0.4778727E+02  0.7816164E-02  0.1312668E+00
        -11   -1    0    0    0    0  0.00000000000E+00  0.00000000000E+00  0.45593999997E+02  0.45594000000E+02  0.51100000000E-03 0.  1.
         11   -1    0    0    0    0 -0.00000000000E+00 -0.00000000000E+00 -0.45593999997E+02  0.45594000000E+02  0.51100000000E-03 0. -1.
    9900012    2    1    2    0    0  0.33220031972E+01 -0.40692712369E+02  0.14720425238E+02  0.47787268850E+02  0.19999989993E+02 0.  0.
        -12    1    1    2    0    0 -0.33220031972E+01  0.40692712369E+02 -0.14720425238E+02  0.43400731150E+02  0.00000000000E+00 0.  1.
         11    1    3    3    0    0  0.42527422543E+01 -0.31820345005E+02  0.14699645399E+02  0.35308635602E+02  0.51100000000E-03 0. -1.
        -11    1    3    3    0    0 -0.56034676894E+00 -0.63546830661E+01  0.41627459379E+01  0.76173774605E+01  0.51100000000E-03 0.  1.
        -12    1    3    3    0    0 -0.37039228817E+00 -0.25176842979E+01 -0.41419660986E+01  0.48612557876E+01  0.00000000000E+00 0.  1.
</event>
<event>
 7    1  0.1400974E-009  0.4778728E+02  0.7816164E-02  0.1312668E+00
        -11   -1    0    0    0    0  0.00000000000E+00  0.00000000000E+00  0.45593999997E+02  0.45594000000E+02  0.51100000000E-03 0.  1.
         11   -1    0    0    0    0 -0.00000000000E+00 -0.00000000000E+00 -0.45593999997E+02  0.45594000000E+02  0.51100000000E-03 0. -1.
    9900012    2    1    2    0    0 -0.83136189888E+01 -0.27773601773E+02 -0.32297574045E+02  0.47787279899E+02  0.20000040369E+02 0.  0.
        -12    1    1    2    0    0  0.83136189888E+01  0.27773601773E+02  0.32297574045E+02  0.43400720101E+02  0.00000000000E+00 0.  1.
         11    1    3    3    0    0 -0.56567342865E+01 -0.19510317193E+02 -0.23907465946E+02  0.31372249648E+02  0.51100000000E-03 0. -1.
        -11    1    3    3    0    0 -0.93586247950E+00  0.98267587259E-01 -0.78013758166E+01  0.78579233893E+01  0.51100000000E-03 0.  1.
         12    1    3    3    0    0 -0.17210222229E+01 -0.83615521673E+01 -0.58873228273E+00  0.85571068615E+01  0.00000000000E+00 0. -1.
</event>
<event>
 7    1  0.1400974E-009  0.4778726E+02  0.7816164E-02  0.1312668E+00
        -11   -1    0    0    0    0  0.00000000000E+00  0.00000000000E+00  0.45593999997E+02  0.45594000000E+02  0.51100000000E-03 0.  1.
         11   -1    0    0    0    0 -0.00000000000E+00 -0.00000000000E+00 -0.45593999997E+02  0.45594000000E+02  0.51100000000E-03 0. -1.
    9900012    2    1    2    0    0  0.37241693212E+01 -0.32589985417E+02 -0.28419141258E+02  0.47787260647E+02  0.19999952592E+02 0.  0.
        -12    1    1    2    0    0 -0.37241693212E+01  0.32589985417E+02  0.28419141258E+02  0.43400739353E+02  0.00000000000E+00 0.  1.
         11    1    3    3    0    0  0.48076781381E+01 -0.58968770969E+01 -0.10397244560E+02  0.12883696025E+02  0.51100000000E-03 0. -1.
        -11    1    3    3    0    0  0.56046285412E+01 -0.66347148755E+01 -0.62825088928E+01  0.10719198702E+02  0.51100000000E-03 0.  1.
        -12    1    3    3    0    0 -0.66881373580E+01 -0.20058393444E+02 -0.11739387805E+02  0.24184365920E+02  0.00000000000E+00 0.  1.
</event>
<event>
 7    1  0.1400974E-009  0.4778727E+02  0.7816164E-02  0.1312668E+00
        -11   -1    0    0    0    0  0.00000000000E+00  0.00000000000E+00  0.45593999997E+02  0.45594000000E+02  0.51100000000E-03 0. -1.
         11   -1    0    0    0    0 -0.00000000000E+00 -0.00000000000E+00 -0.45593999997E+02  0.45594000000E+02  0.51100000000E-03 0.  1.
    9900012    2    1    2    0    0  0.47023834790E+01 -0.41808324896E+02  0.10657146260E+02  0.47787271810E+02  0.20000003492E+02 0.  0.
        -12    1    1    2    0    0 -0.47023834790E+01  0.41808324896E+02 -0.10657146260E+02  0.43400728190E+02  0.00000000000E+00 0.  1.
         11    1    3    3    0    0  0.14702262481E+01 -0.11701021630E+02  0.89623768394E+01  0.14812146072E+02  0.51100000000E-03 0. -1.
        -11    1    3    3    0    0  0.20244336878E+01 -0.16722921801E+02 -0.55145992988E+01  0.17724707360E+02  0.51100000000E-03 0.  1.
         12    1    3    3    0    0  0.12077235430E+01 -0.13384381465E+02  0.72093687197E+01  0.15250418378E+02  0.00000000000E+00 0. -1.
</event>
<event>
 7    1  0.1400974E-009  0.4778728E+02  0.7816164E-02  0.1312668E+00
        -11   -1    0    0    0    0  0.00000000000E+00  0.00000000000E+00  0.45593999997E+02  0.45594000000E+02  0.51100000000E-03 0.  1.
         11   -1    0    0    0    0 -0.00000000000E+00 -0.00000000000E+00 -0.45593999997E+02  0.45594000000E+02  0.51100000000E-03 0. -1.
    9900012    2    1    2    0    0  0.80928237466E+01  0.35538944183E+02 -0.23560822596E+02  0.47787277527E+02  0.20000029555E+02 0.  0.
        -12    1    1    2    0    0 -0.80928237466E+01 -0.35538944183E+02  0.23560822596E+02  0.43400722473E+02  0.00000000000E+00 0.  1.
         11    1    3    3    0    0  0.10156856003E+02  0.20208687023E+02 -0.17217253828E+02  0.28425104832E+02  0.51100000000E-03 0. -1.
        -11    1    3    3    0    0 -0.22301453818E+01  0.11729590557E+02 -0.89434747168E+01  0.14917861218E+02  0.51100000000E-03 0.  1.
         12    1    3    3    0    0  0.16611312486E+00  0.36006666035E+01  0.25999059490E+01  0.44443114768E+01  0.00000000000E+00 0. -1.
</event>
<event>
 7    1  0.1472068E-009  0.4778727E+02  0.7816164E-02  0.1312668E+00
        -11   -1    0    0    0    0  0.00000000000E+00  0.00000000000E+00  0.45593999997E+02  0.45594000000E+02  0.51100000000E-03 0.  1.
         11   -1    0    0    0    0 -0.00000000000E+00 -0.00000000000E+00 -0.45593999997E+02  0.45594000000E+02  0.51100000000E-03 0. -1.
    9900012    2    1    2    0    0  0.32776898126E+02  0.24933584543E+02 -0.13697246854E+02  0.47787271201E+02  0.20000000713E+02 0.  0.
        -12    1    1    2    0    0 -0.32776898126E+02 -0.24933584543E+02  0.13697246854E+02  0.43400728799E+02  0.00000000000E+00 0.  1.
         11    1    3    3    0    0  0.19456996482E+02  0.13681122469E+02 -0.36311823484E+01  0.24061033013E+02  0.51100000000E-03 0. -1.
        -11    1    3    3    0    0 -0.92679831114E-01  0.41463651728E+00  0.24068741199E+01  0.24440859811E+01  0.51100000000E-03 0.  1.
        -12    1    3    3    0    0  0.13412581475E+02  0.10837825557E+02 -0.12472938625E+02  0.21282152207E+02  0.00000000000E+00 0.  1.
</event>
<event>
 7    1  0.1400974E-009  0.4778727E+02  0.7816164E-02  0.1312668E+00
        -11   -1    0    0    0    0  0.00000000000E+00  0.00000000000E+00  0.45593999997E+02  0.45594000000E+02  0.51100000000E-03 0. -1.
         11   -1    0    0    0    0 -0.00000000000E+00 -0.00000000000E+00 -0.45593999997E+02  0.45594000000E+02  0.51100000000E-03 0.  1.
    9900012    2    1    2    0    0  0.19993728299E+02  0.11993211413E+02  0.36606515583E+02  0.47787271038E+02  0.19999999971E+02 0.  0.
        -12    1    1    2    0    0 -0.19993728299E+02 -0.11993211413E+02 -0.36606515583E+02  0.43400728962E+02  0.00000000000E+00 0.  1.
         11    1    3    3    0    0  0.20840817248E+02  0.73531596364E+01  0.33845367191E+02  0.40421745395E+02  0.51100000000E-03 0. -1.
        -11    1    3    3    0    0 -0.13939630120E+01  0.25300969544E+01  0.39415488594E+01  0.48867505716E+01  0.51100000000E-03 0.  1.
        -12    1    3    3    0    0  0.54687406318E+00  0.21099548223E+01 -0.11804004673E+01  0.24787750717E+01  0.00000000000E+00 0.  1.
</event>
<event>
 7    1  0.1400974E-009  0.4778728E+02  0.7816164E-02  0.1312668E+00
        -11   -1    0    0    0    0  0.00000000000E+00  0.00000000000E+00  0.45593999997E+02  0.45594000000E+02  0.51100000000E-03 0.  1.
         11   -1    0    0    0    0 -0.00000000000E+00 -0.00000000000E+00 -0.45593999997E+02  0.45594000000E+02  0.51100000000E-03 0. -1.
    9900012    2    1    2    0    0 -0.26851128845E+02 -0.28570085059E+02 -0.18611556545E+02  0.47787275149E+02  0.20000018717E+02 0.  0.
        -12    1    1    2    0    0  0.26851128845E+02  0.28570085059E+02  0.18611556545E+02  0.43400724851E+02  0.00000000000E+00 0.  1.
         11    1    3    3    0    0 -0.13072873978E+02 -0.10303317554E+02 -0.34248077421E+01  0.16993754588E+02  0.51100000000E-03 0. -1.
        -11    1    3    3    0    0 -0.27003364829E+01  0.95856806206E+00 -0.62449268269E+01  0.68709374313E+01  0.51100000000E-03 0.  1.
        -12    1    3    3    0    0 -0.11077918385E+02 -0.19225335566E+02 -0.89418219760E+01  0.23922583130E+02  0.00000000000E+00 0.  1.
</event>
<event>
 7    1  0.1400974E-009  0.4778727E+02  0.7816164E-02  0.1312668E+00
        -11   -1    0    0    0    0  0.00000000000E+00  0.00000000000E+00  0.45593999997E+02  0.45594000000E+02  0.51100000000E-03 0.  1.
         11   -1    0    0    0    0 -0.00000000000E+00 -0.00000000000E+00 -0.45593999997E+02  0.45594000000E+02  0.51100000000E-03 0. -1.
    9900012    2    1    2    0    0 -0.11849399130E+02  0.35040298421E+02 -0.22702254140E+02  0.47787272861E+02  0.20000008281E+02 0.  0.
        -12    1    1    2    0    0  0.11849399130E+02 -0.35040298421E+02  0.22702254140E+02  0.43400727139E+02  0.00000000000E+00 0.  1.
         11    1    3    3    0    0 -0.66490203046E+01  0.25017957319E+01 -0.29626750123E+01  0.76971355961E+01  0.51100000000E-03 0. -1.
        -11    1    3    3    0    0 -0.16908330263E+01  0.16377944377E+02 -0.33405229814E+01  0.16800448577E+02  0.51100000000E-03 0.  1.
         12    1    3    3    0    0 -0.35095457996E+01  0.16160558312E+02 -0.16399056147E+02  0.23289688688E+02  0.00000000000E+00 0. -1.
</event>
<event>
 7    1  0.1400974E-009  0.4778728E+02  0.7816164E-02  0.1312668E+00
        -11   -1    0    0    0    0  0.00000000000E+00  0.00000000000E+00  0.45593999997E+02  0.45594000000E+02  0.51100000000E-03 0. -1.
         11   -1    0    0    0    0 -0.00000000000E+00 -0.00000000000E+00 -0.45593999997E+02  0.45594000000E+02  0.51100000000E-03 0.  1.
    9900012    2    1    2    0    0 -0.15241525643E+02 -0.39208857095E+02  0.10676334827E+02  0.47787277610E+02  0.20000029936E+02 0.  0.
        -12    1    1    2    0    0  0.15241525643E+02  0.39208857095E+02 -0.10676334827E+02  0.43400722390E+02  0.00000000000E+00 0.  1.
         11    1    3    3    0    0 -0.76894180254E+01 -0.15268851483E+02  0.43670717260E+01  0.17644724166E+02  0.51100000000E-03 0. -1.
        -11    1    3    3    0    0  0.30900980504E+01 -0.95721650894E+01  0.69913142778E+01  0.12249633711E+02  0.51100000000E-03 0.  1.
         12    1    3    3    0    0 -0.10642205668E+02 -0.14367840523E+02 -0.68205117719E+00  0.17892919733E+02  0.00000000000E+00 0. -1.
</event>
<event>
 7    1  0.1400974E-009  0.4778726E+02  0.7816164E-02  0.1312668E+00
        -11   -1    0    0    0    0  0.00000000000E+00  0.00000000000E+00  0.45593999997E+02  0.45594000000E+02  0.51100000000E-03 0. -1.
         11   -1    0    0    0    0 -0.00000000000E+00 -0.00000000000E+00 -0.45593999997E+02  0.45594000000E+02  0.51100000000E-03 0.  1.
    9900012    2    1    2    0    0 -0.37183049454E+02 -0.16490023903E+02  0.15136847741E+02  0.47787260207E+02  0.19999950589E+02 0.  0.
        -12    1    1    2    0    0  0.37183049454E+02  0.16490023903E+02 -0.15136847741E+02  0.43400739793E+02  0.00000000000E+00 0.  1.
         11    1    3    3    0    0 -0.13110785696E+02 -0.16497468756E+01  0.47422441392E+01  0.14039346354E+02  0.51100000000E-03 0. -1.
        -11    1    3    3    0    0 -0.17114262832E+02 -0.15814508771E+02  0.12460476952E+02  0.26424612884E+02  0.51100000000E-03 0.  1.
        -12    1    3    3    0    0 -0.69580009262E+01  0.97423174324E+00 -0.20658733506E+01  0.73233009687E+01  0.00000000000E+00 0.  1.
</event>
<event>
 7    1  0.1400974E-009  0.4778726E+02  0.7816164E-02  0.1312668E+00
        -11   -1    0    0    0    0  0.00000000000E+00  0.00000000000E+00  0.45593999997E+02  0.45594000000E+02  0.51100000000E-03 0. -1.
         11   -1    0    0    0    0 -0.00000000000E+00 -0.00000000000E+00 -0.45593999997E+02  0.45594000000E+02  0.51100000000E-03 0.  1.
    9900012    2    1    2    0    0 -0.14817515411E+02 -0.35846401088E+01  0.40635154773E+02  0.47787260248E+02  0.19999950773E+02 0.  0.
        -12    1    1    2    0    0  0.14817515411E+02  0.35846401088E+01 -0.40635154773E+02  0.43400739752E+02  0.00000000000E+00 0.  1.
         11    1    3    3    0    0 -0.25858506817E+01 -0.14682655104E+01  0.82732377245E+01  0.87914100157E+01  0.51100000000E-03 0. -1.
        -11    1    3    3    0    0 -0.96266536951E+01  0.56153767954E+01  0.92408954503E+01  0.14477536631E+02  0.51100000000E-03 0.  1.
        -12    1    3    3    0    0 -0.26050110344E+01 -0.77317513938E+01  0.23121021598E+02  0.24518313601E+02  0.00000000000E+00 0.  1.
</event>
<event>
 7    1  0.1400974E-009  0.4778727E+02  0.7816164E-02  0.1312668E+00
        -11   -1    0    0    0    0  0.00000000000E+00  0.00000000000E+00  0.45593999997E+02  0.45594000000E+02  0.51100000000E-03 0.  1.
         11   -1    0    0    0    0 -0.00000000000E+00 -0.00000000000E+00 -0.45593999997E+02  0.45594000000E+02  0.51100000000E-03 0. -1.
    9900012    2    1    2    0    0 -0.51376505432E+01 -0.13667029307E+02 -0.40871019272E+02  0.47787270058E+02  0.19999995503E+02 0.  0.
        -12    1    1    2    0    0  0.51376505432E+01  0.13667029307E+02  0.40871019272E+02  0.43400729942E+02  0.00000000000E+00 0.  1.
         11    1    3    3    0    0  0.16095649317E+01 -0.32639686232E+01 -0.20128142129E+02  0.20454493303E+02  0.51100000000E-03 0. -1.
        -11    1    3    3    0    0 -0.78426888665E+01 -0.11308915862E+02 -0.11366545770E+02  0.17849305579E+02  0.51100000000E-03 0.  1.
         12    1    3    3    0    0  0.10954733916E+01  0.90585517795E+00 -0.93763313720E+01  0.94834711763E+01  0.00000000000E+00 0. -1.
</event>
<event>
 7    1  0.2031424E-009  0.4778727E+02  0.7816164E-02  0.1312668E+00
        -11   -1    0    0    0    0  0.00000000000E+00  0.00000000000E+00  0.45593999997E+02  0.45594000000E+02  0.51100000000E-03 0. -1.
         11   -1    0    0    0    0 -0.00000000000E+00 -0.00000000000E+00 -0.45593999997E+02  0.45594000000E+02  0.51100000000E-03 0.  1.
    9900012    2    1    2    0    0  0.22421896483E+02 -0.64168729743E+01  0.36601990423E+02  0.47787269550E+02  0.19999993187E+02 0.  0.
        -12    1    1    2    0    0 -0.22421896483E+02  0.64168729743E+01 -0.36601990423E+02  0.43400730450E+02  0.00000000000E+00 0.  1.
         11    1    3    3    0    0  0.17718053060E+02 -0.50552692020E+01  0.19169504368E+02  0.26588626308E+02  0.51100000000E-03 0. -1.
        -11    1    3    3    0    0  0.14102024269E+01  0.13308004776E+01 -0.10691602953E+01  0.22142278100E+01  0.51100000000E-03 0.  1.
         12    1    3    3    0    0  0.32936409965E+01 -0.26924042499E+01  0.18501646350E+02  0.18984415432E+02  0.00000000000E+00 0. -1.
</event>
<event>
 7    1  0.1400974E-009  0.4778727E+02  0.7816164E-02  0.1312668E+00
        -11   -1    0    0    0    0  0.00000000000E+00  0.00000000000E+00  0.45593999997E+02  0.45594000000E+02  0.51100000000E-03 0. -1.
         11   -1    0    0    0    0 -0.00000000000E+00 -0.00000000000E+00 -0.45593999997E+02  0.45594000000E+02  0.51100000000E-03 0.  1.
    9900012    2    1    2    0    0  0.33051014605E+02 -0.75024618730E+01  0.27110271455E+02  0.47787270526E+02  0.19999997634E+02 0.  0.
        -12    1    1    2    0    0 -0.33051014605E+02  0.75024618730E+01 -0.27110271455E+02  0.43400729474E+02  0.00000000000E+00 0.  1.
         11    1    3    3    0    0  0.30379731413E+01 -0.53888351749E+01  0.15682064727E+01  0.63818568734E+01  0.51100000000E-03 0. -1.
        -11    1    3    3    0    0  0.63281366047E+01  0.16437454570E+00 -0.22277042632E+00  0.63341896722E+01  0.51100000000E-03 0.  1.
        -12    1    3    3    0    0  0.23684904859E+02 -0.22780012438E+01  0.25764835408E+02  0.35071223980E+02  0.00000000000E+00 0.  1.
</event>
<event>
 7    1  0.1595996E-009  0.4778727E+02  0.7816164E-02  0.1312668E+00
        -11   -1    0    0    0    0  0.00000000000E+00  0.00000000000E+00  0.45593999997E+02  0.45594000000E+02  0.51100000000E-03 0.  1.
         11   -1    0    0    0    0 -0.00000000000E+00 -0.00000000000E+00 -0.45593999997E+02  0.45594000000E+02  0.51100000000E-03 0. -1.
    9900012    2    1    2    0    0  0.41271048226E+02  0.11504544543E+02 -0.69259731573E+01  0.47787273382E+02  0.20000010659E+02 0.  0.
        -12    1    1    2    0    0 -0.41271048226E+02 -0.11504544543E+02  0.69259731573E+01  0.43400726618E+02  0.00000000000E+00 0.  1.
         11    1    3    3    0    0  0.70199339096E+01  0.27010328177E+01 -0.67552966314E+01  0.10109850801E+02  0.51100000000E-03 0. -1.
        -11    1    3    3    0    0  0.61784065663E+01  0.45631998518E+01  0.45039768334E+01  0.89040051754E+01  0.51100000000E-03 0.  1.
         12    1    3    3    0    0  0.28072707750E+02  0.42403118732E+01 -0.46746533593E+01  0.28773417406E+02  0.00000000000E+00 0. -1.
</event>
<event>
 7    1  0.1400974E-009  0.4778727E+02  0.7816164E-02  0.1312668E+00
        -11   -1    0    0    0    0  0.00000000000E+00  0.00000000000E+00  0.45593999997E+02  0.45594000000E+02  0.51100000000E-03 0. -1.
         11   -1    0    0    0    0 -0.00000000000E+00 -0.00000000000E+00 -0.45593999997E+02  0.45594000000E+02  0.51100000000E-03 0.  1.
    9900012    2    1    2    0    0 -0.78575158343E+00 -0.70560818049E+01  0.42816093290E+02  0.47787267971E+02  0.19999985988E+02 0.  0.
        -12    1    1    2    0    0  0.78575158343E+00  0.70560818049E+01 -0.42816093290E+02  0.43400732029E+02  0.00000000000E+00 0.  1.
         11    1    3    3    0    0 -0.54418459412E+01 -0.36086082324E+01  0.11847085846E+02  0.13527349479E+02  0.51100000000E-03 0. -1.
        -11    1    3    3    0    0  0.41117005165E+01 -0.23470987678E+01  0.17999766140E+01  0.50650636556E+01  0.51100000000E-03 0.  1.
         12    1    3    3    0    0  0.54439384127E+00 -0.11003748047E+01  0.29169030830E+02  0.29194854836E+02  0.00000000000E+00 0. -1.
</event>
<event>
 7    1  0.1400974E-009  0.4778727E+02  0.7816164E-02  0.1312668E+00
        -11   -1    0    0    0    0  0.00000000000E+00  0.00000000000E+00  0.45593999997E+02  0.45594000000E+02  0.51100000000E-03 0. -1.
         11   -1    0    0    0    0 -0.00000000000E+00 -0.00000000000E+00 -0.45593999997E+02  0.45594000000E+02  0.51100000000E-03 0.  1.
    9900012    2    1    2    0    0 -0.71350378898E+01 -0.41823051553E+02 -0.91403833649E+01  0.47787274027E+02  0.20000013600E+02 0.  0.
        -12    1    1    2    0    0  0.71350378898E+01  0.41823051553E+02  0.91403833649E+01  0.43400725973E+02  0.00000000000E+00 0.  1.
         11    1    3    3    0    0 -0.12290343934E+02 -0.36783214570E+02 -0.71205925667E+01  0.39430448474E+02  0.51100000000E-03 0. -1.
        -11    1    3    3    0    0  0.20745899150E+01 -0.32383160482E+00  0.54207538914E+00  0.21685562507E+01  0.51100000000E-03 0.  1.
        -12    1    3    3    0    0  0.30807161289E+01 -0.47160053785E+01 -0.25618661874E+01  0.61882693024E+01  0.00000000000E+00 0.  1.
</event>
<event>
 7    1  0.1400974E-009  0.4778727E+02  0.7816164E-02  0.1312668E+00
        -11   -1    0    0    0    0  0.00000000000E+00  0.00000000000E+00  0.45593999997E+02  0.45594000000E+02  0.51100000000E-03 0.  1.
         11   -1    0    0    0    0 -0.00000000000E+00 -0.00000000000E+00 -0.45593999997E+02  0.45594000000E+02  0.51100000000E-03 0. -1.
    9900012    2    1    2    0    0 -0.24753395887E+02 -0.51203251375E+01 -0.35279950783E+02  0.47787271150E+02  0.20000000481E+02 0.  0.
        -12    1    1    2    0    0  0.24753395887E+02  0.51203251375E+01  0.35279950783E+02  0.43400728850E+02  0.00000000000E+00 0.  1.
         11    1    3    3    0    0 -0.34346871699E+01 -0.14450323433E+01 -0.12736406670E+02  0.13270314599E+02  0.51100000000E-03 0.  1.
        -11    1    3    3    0    0 -0.39776564046E+01 -0.24783768166E+01  0.14345144078E+01  0.49012176003E+01  0.51100000000E-03 0. -1.
         12    1    3    3    0    0 -0.17341052312E+02 -0.11969159776E+01 -0.23978058522E+02  0.29615738951E+02  0.00000000000E+00 0. -1.
</event>
<event>
 7    1  0.1400974E-009  0.4778726E+02  0.7816164E-02  0.1312668E+00
        -11   -1    0    0    0    0  0.00000000000E+00  0.00000000000E+00  0.45593999997E+02  0.45594000000E+02  0.51100000000E-03 0. -1.
         11   -1    0    0    0    0 -0.00000000000E+00 -0.00000000000E+00 -0.45593999997E+02  0.45594000000E+02  0.51100000000E-03 0.  1.
    9900012    2    1    2    0    0  0.25222673471E+02 -0.10337402573E+02  0.33772458649E+02  0.47787261387E+02  0.19999955966E+02 0.  0.
        -12    1    1    2    0    0 -0.25222673471E+02  0.10337402573E+02 -0.33772458649E+02  0.43400738613E+02  0.00000000000E+00 0.  1.
         11    1    3    3    0    0  0.34462594617E+01 -0.32323135729E+00 -0.16589034367E+01  0.38383777382E+01  0.51100000000E-03 0. -1.
        -11    1    3    3    0    0  0.12596182465E+02 -0.29579854271E+00  0.16070130027E+02  0.20420587377E+02  0.51100000000E-03 0.  1.
         12    1    3    3    0    0  0.91802315448E+01 -0.97183726729E+01  0.19361232058E+02  0.23528296272E+02  0.00000000000E+00 0. -1.
</event>
<event>
 7    1  0.1400974E-009  0.4778727E+02  0.7816164E-02  0.1312668E+00
        -11   -1    0    0    0    0  0.00000000000E+00  0.00000000000E+00  0.45593999997E+02  0.45594000000E+02  0.51100000000E-03 0.  1.
         11   -1    0    0    0    0 -0.00000000000E+00 -0.00000000000E+00 -0.45593999997E+02  0.45594000000E+02  0.51100000000E-03 0. -1.
    9900012    2    1    2    0    0 -0.34781624744E+02 -0.14729162267E+02 -0.21375532257E+02  0.47787273967E+02  0.20000013326E+02 0.  0.
        -12    1    1    2    0    0  0.34781624744E+02  0.14729162267E+02  0.21375532257E+02  0.43400726033E+02  0.00000000000E+00 0.  1.
         11    1    3    3    0    0 -0.17474529611E+02 -0.58958690314E+01 -0.14512015563E+02  0.23467404047E+02  0.51100000000E-03 0. -1.
        -11    1    3    3    0    0 -0.12721662585E+01  0.30870290891E+01 -0.12593706808E+01  0.35684969327E+01  0.51100000000E-03 0.  1.
         12    1    3    3    0    0 -0.16034928874E+02 -0.11920322324E+02 -0.56041460138E+01  0.20751372987E+02  0.00000000000E+00 0. -1.
</event>
<event>
 7    1  0.1400974E-009  0.4778723E+02  0.7816164E-02  0.1312668E+00
        -11   -1    0    0    0    0  0.00000000000E+00  0.00000000000E+00  0.45593999997E+02  0.45594000000E+02  0.51100000000E-03 0.  1.
         11   -1    0    0    0    0 -0.00000000000E+00 -0.00000000000E+00 -0.45593999997E+02  0.45594000000E+02  0.51100000000E-03 0. -1.
    9900012    2    1    2    0    0  0.20730640259E+02 -0.49911816434E+00 -0.38126345076E+02  0.47787230959E+02  0.19999817233E+02 0.  0.
        -12    1    1    2    0    0 -0.20730640259E+02  0.49911816434E+00  0.38126345076E+02  0.43400769041E+02  0.00000000000E+00 0.  1.
         11    1    3    3    0    0 -0.10166154025E+00  0.46297383580E+01 -0.15963253931E+02  0.16621380468E+02  0.51100000000E-03 0. -1.
        -11    1    3    3    0    0  0.91477458479E+01 -0.41270253321E+00 -0.11172911694E+02  0.14445952148E+02  0.51100000000E-03 0.  1.
        -12    1    3    3    0    0  0.11684555952E+02 -0.47161539891E+01 -0.10990179451E+02  0.16719898343E+02  0.00000000000E+00 0.  1.
</event>
<event>
 7    1  0.1400974E-009  0.4778727E+02  0.7816164E-02  0.1312668E+00
        -11   -1    0    0    0    0  0.00000000000E+00  0.00000000000E+00  0.45593999997E+02  0.45594000000E+02  0.51100000000E-03 0.  1.
         11   -1    0    0    0    0 -0.00000000000E+00 -0.00000000000E+00 -0.45593999997E+02  0.45594000000E+02  0.51100000000E-03 0. -1.
    9900012    2    1    2    0    0 -0.26535345142E+02  0.24561536361E+02 -0.24004786648E+02  0.47787269681E+02  0.19999993785E+02 0.  0.
        -12    1    1    2    0    0  0.26535345142E+02 -0.24561536361E+02  0.24004786648E+02  0.43400730319E+02  0.00000000000E+00 0.  1.
         11    1    3    3    0    0 -0.10059916203E+02  0.11108753616E+02 -0.21951017493E+01  0.15146774999E+02  0.51100000000E-03 0. -1.
        -11    1    3    3    0    0  0.17417570634E+01  0.22469665298E+01 -0.18948181043E+01  0.34165643801E+01  0.51100000000E-03 0.  1.
         12    1    3    3    0    0 -0.18217186002E+02  0.11205816215E+02 -0.19914866794E+02  0.29223930302E+02  0.00000000000E+00 0. -1.
</event>
<event>
 7    1  0.1400974E-009  0.4778725E+02  0.7816164E-02  0.1312668E+00
        -11   -1    0    0    0    0  0.00000000000E+00  0.00000000000E+00  0.45593999997E+02  0.45594000000E+02  0.51100000000E-03 0.  1.
         11   -1    0    0    0    0 -0.00000000000E+00 -0.00000000000E+00 -0.45593999997E+02  0.45594000000E+02  0.51100000000E-03 0. -1.
    9900012    2    1    2    0    0 -0.41588503529E+02  0.12374121019E+02 -0.95012313151E+00  0.47787248501E+02  0.19999897213E+02 0.  0.
        -12    1    1    2    0    0  0.41588503529E+02 -0.12374121019E+02  0.95012313151E+00  0.43400751499E+02  0.00000000000E+00 0.  1.
         11    1    3    3    0    0 -0.26242729298E+01  0.28679542499E+01 -0.27232750736E+01  0.47463878242E+01  0.51100000000E-03 0. -1.
        -11    1    3    3    0    0 -0.29782717575E+02  0.14242769125E+01  0.53584748544E+01  0.30294423313E+02  0.51100000000E-03 0.  1.
         12    1    3    3    0    0 -0.91815130243E+01  0.80818898562E+01 -0.35853229123E+01  0.12746437363E+02  0.00000000000E+00 0. -1.
</event>
<event>
 7    1  0.1400974E-009  0.4778727E+02  0.7816164E-02  0.1312668E+00
        -11   -1    0    0    0    0  0.00000000000E+00  0.00000000000E+00  0.45593999997E+02  0.45594000000E+02  0.51100000000E-03 0.  1.
         11   -1    0    0    0    0 -0.00000000000E+00 -0.00000000000E+00 -0.45593999997E+02  0.45594000000E+02  0.51100000000E-03 0. -1.
    9900012    2    1    2    0    0 -0.28882539018E+02 -0.31762558571E+02 -0.63688271982E+01  0.47787272506E+02  0.20000006663E+02 0.  0.
        -12    1    1    2    0    0  0.28882539018E+02  0.31762558571E+02  0.63688271982E+01  0.43400727494E+02  0.00000000000E+00 0.  1.
         11    1    3    3    0    0 -0.29722882620E+01 -0.47916421042E+01  0.28554465027E+01  0.63204356304E+01  0.51100000000E-03 0. -1.
        -11    1    3    3    0    0 -0.22236534582E+02 -0.13593690190E+02 -0.29083808067E+01  0.26224236164E+02  0.51100000000E-03 0.  1.
         12    1    3    3    0    0 -0.36737161742E+01 -0.13377226277E+02 -0.63158928942E+01  0.15242600712E+02  0.00000000000E+00 0. -1.
</event>
<event>
 7    1  0.1400974E-009  0.4778727E+02  0.7816164E-02  0.1312668E+00
        -11   -1    0    0    0    0  0.00000000000E+00  0.00000000000E+00  0.45593999997E+02  0.45594000000E+02  0.51100000000E-03 0.  1.
         11   -1    0    0    0    0 -0.00000000000E+00 -0.00000000000E+00 -0.45593999997E+02  0.45594000000E+02  0.51100000000E-03 0. -1.
    9900012    2    1    2    0    0  0.94460766656E+01  0.14597112260E+02 -0.39765804330E+02  0.47787271380E+02  0.20000001532E+02 0.  0.
        -12    1    1    2    0    0 -0.94460766656E+01 -0.14597112260E+02  0.39765804330E+02  0.43400728620E+02  0.00000000000E+00 0.  1.
         11    1    3    3    0    0 -0.51355440675E+01  0.28621477010E+01 -0.14895883234E+02  0.16014151239E+02  0.51100000000E-03 0. -1.
        -11    1    3    3    0    0  0.11263054523E+02  0.51379981755E+01 -0.16060987258E+02  0.20278331647E+02  0.51100000000E-03 0.  1.
         12    1    3    3    0    0  0.33185662103E+01  0.65969663840E+01 -0.88089338383E+01  0.11494788494E+02  0.00000000000E+00 0. -1.
</event>
<event>
 7    1  0.1400974E-009  0.4778727E+02  0.7816164E-02  0.1312668E+00
        -11   -1    0    0    0    0  0.00000000000E+00  0.00000000000E+00  0.45593999997E+02  0.45594000000E+02  0.51100000000E-03 0. -1.
         11   -1    0    0    0    0 -0.00000000000E+00 -0.00000000000E+00 -0.45593999997E+02  0.45594000000E+02  0.51100000000E-03 0.  1.
    9900012    2    1    2    0    0 -0.27575671538E+01  0.10926472577E+02  0.41912182609E+02  0.47787273846E+02  0.20000012776E+02 0.  0.
        -12    1    1    2    0    0  0.27575671538E+01 -0.10926472577E+02 -0.41912182609E+02  0.43400726154E+02  0.00000000000E+00 0.  1.
         11    1    3    3    0    0 -0.36497580334E+01  0.54184111571E+01  0.21213298698E+01  0.68687665448E+01  0.51100000000E-03 0. -1.
        -11    1    3    3    0    0 -0.17341281878E+01 -0.13045190597E+01  0.11338074231E+02  0.11543868419E+02  0.51100000000E-03 0.  1.
         12    1    3    3    0    0  0.26263190675E+01  0.68125804797E+01  0.28452778509E+02  0.29374638883E+02  0.00000000000E+00 0. -1.
</event>
<event>
 7    1  0.1400974E-009  0.4778727E+02  0.7816164E-02  0.1312668E+00
        -11   -1    0    0    0    0  0.00000000000E+00  0.00000000000E+00  0.45593999997E+02  0.45594000000E+02  0.51100000000E-03 0.  1.
         11   -1    0    0    0    0 -0.00000000000E+00 -0.00000000000E+00 -0.45593999997E+02  0.45594000000E+02  0.51100000000E-03 0. -1.
    9900012    2    1    2    0    0  0.60549784100E-01 -0.21564562581E+02 -0.37664168983E+02  0.47787266703E+02  0.19999980205E+02 0.  0.
        -12    1    1    2    0    0 -0.60549784100E-01  0.21564562581E+02  0.37664168983E+02  0.43400733297E+02  0.00000000000E+00 0.  1.
         11    1    3    3    0    0 -0.63251085609E+00 -0.54824563975E+01 -0.18678380708E+02  0.19476634829E+02  0.51100000000E-03 0. -1.
        -11    1    3    3    0    0  0.69948946580E+01 -0.67541150929E+01 -0.94169991379E+01  0.13536118165E+02  0.51100000000E-03 0.  1.
        -12    1    3    3    0    0 -0.63018340178E+01 -0.93279910905E+01 -0.95687891363E+01  0.14774513708E+02  0.00000000000E+00 0.  1.
</event>
<event>
 7    1  0.1400974E-009  0.4778727E+02  0.7816164E-02  0.1312668E+00
        -11   -1    0    0    0    0  0.00000000000E+00  0.00000000000E+00  0.45593999997E+02  0.45594000000E+02  0.51100000000E-03 0.  1.
         11   -1    0    0    0    0 -0.00000000000E+00 -0.00000000000E+00 -0.45593999997E+02  0.45594000000E+02  0.51100000000E-03 0. -1.
    9900012    2    1    2    0    0 -0.18457122643E+02  0.32500850729E+02  0.22060202950E+02  0.47787271567E+02  0.20000002382E+02 0.  0.
        -12    1    1    2    0    0  0.18457122643E+02 -0.32500850729E+02 -0.22060202950E+02  0.43400728433E+02  0.00000000000E+00 0.  1.
         11    1    3    3    0    0 -0.10766170371E+01  0.36177122744E+01  0.23827899110E+00  0.37820263727E+01  0.51100000000E-03 0.  1.
        -11    1    3    3    0    0 -0.10242902972E+02  0.22562176757E+01  0.42667699206E+01  0.11323113764E+02  0.51100000000E-03 0. -1.
         12    1    3    3    0    0 -0.71376026334E+01  0.26626920779E+02  0.17555154038E+02  0.32682131430E+02  0.00000000000E+00 0. -1.
</event>
<event>
 7    1  0.1400974E-009  0.4778728E+02  0.7816164E-02  0.1312668E+00
        -11   -1    0    0    0    0  0.00000000000E+00  0.00000000000E+00  0.45593999997E+02  0.45594000000E+02  0.51100000000E-03 0.  1.
         11   -1    0    0    0    0 -0.00000000000E+00 -0.00000000000E+00 -0.45593999997E+02  0.45594000000E+02  0.51100000000E-03 0. -1.
    9900012    2    1    2    0    0 -0.34500123276E+02 -0.18234635743E+02 -0.18996379649E+02  0.47787275508E+02  0.20000020349E+02 0.  0.
        -12    1    1    2    0    0  0.34500123276E+02  0.18234635743E+02  0.18996379649E+02  0.43400724492E+02  0.00000000000E+00 0.  1.
         11    1    3    3    0    0 -0.16658766869E+02 -0.94822052331E+01 -0.58845491039E+01  0.20051300409E+02  0.51100000000E-03 0. -1.
        -11    1    3    3    0    0 -0.24956572881E+01 -0.75331525824E+01 -0.85831172278E+01  0.11689593438E+02  0.51100000000E-03 0.  1.
         12    1    3    3    0    0 -0.15345699118E+02 -0.12192779270E+01 -0.45287133175E+01  0.16046381661E+02  0.00000000000E+00 0. -1.
</event>
<event>
 7    1  0.1400974E-009  0.4778727E+02  0.7816164E-02  0.1312668E+00
        -11   -1    0    0    0    0  0.00000000000E+00  0.00000000000E+00  0.45593999997E+02  0.45594000000E+02  0.51100000000E-03 0.  1.
         11   -1    0    0    0    0 -0.00000000000E+00 -0.00000000000E+00 -0.45593999997E+02  0.45594000000E+02  0.51100000000E-03 0. -1.
    9900012    2    1    2    0    0  0.38022801587E+02 -0.18837768519E+02 -0.91120060405E+01  0.47787267087E+02  0.19999981955E+02 0.  0.
        -12    1    1    2    0    0 -0.38022801587E+02  0.18837768519E+02  0.91120060405E+01  0.43400732913E+02  0.00000000000E+00 0.  1.
         11    1    3    3    0    0  0.26198753386E+02 -0.17745141106E+02 -0.47964854166E+01  0.32004233852E+02  0.51100000000E-03 0. -1.
        -11    1    3    3    0    0 -0.83625589532E-01 -0.27300349358E+01 -0.23510738850E+01  0.36038358264E+01  0.51100000000E-03 0.  1.
        -12    1    3    3    0    0  0.11907673791E+02  0.16374075234E+01 -0.19644467389E+01  0.12179197408E+02  0.00000000000E+00 0.  1.
</event>
<event>
 7    1  0.1400974E-009  0.4778727E+02  0.7816164E-02  0.1312668E+00
        -11   -1    0    0    0    0  0.00000000000E+00  0.00000000000E+00  0.45593999997E+02  0.45594000000E+02  0.51100000000E-03 0.  1.
         11   -1    0    0    0    0 -0.00000000000E+00 -0.00000000000E+00 -0.45593999997E+02  0.45594000000E+02  0.51100000000E-03 0. -1.
    9900012    2    1    2    0    0  0.73422797289E+00  0.18998487919E+02 -0.39014634289E+02  0.47787270483E+02  0.19999997438E+02 0.  0.
        -12    1    1    2    0    0 -0.73422797289E+00 -0.18998487919E+02  0.39014634289E+02  0.43400729517E+02  0.00000000000E+00 0.  1.
         11    1    3    3    0    0  0.40054200917E+01  0.91463792480E+01 -0.88043511183E+01  0.13312259100E+02  0.51100000000E-03 0. -1.
        -11    1    3    3    0    0 -0.13530049231E+01 -0.31663689602E+01 -0.66736624506E+01  0.75096128715E+01  0.51100000000E-03 0.  1.
         12    1    3    3    0    0 -0.19181871957E+01  0.13018477631E+02 -0.23536620720E+02  0.26965398512E+02  0.00000000000E+00 0. -1.
</event>
<event>
 7    1  0.1400974E-009  0.4778727E+02  0.7816164E-02  0.1312668E+00
        -11   -1    0    0    0    0  0.00000000000E+00  0.00000000000E+00  0.45593999997E+02  0.45594000000E+02  0.51100000000E-03 0.  1.
         11   -1    0    0    0    0 -0.00000000000E+00 -0.00000000000E+00 -0.45593999997E+02  0.45594000000E+02  0.51100000000E-03 0. -1.
    9900012    2    1    2    0    0 -0.13361611273E+02 -0.39798907974E+02  0.11006242209E+02  0.47787273056E+02  0.20000009170E+02 0.  0.
        -12    1    1    2    0    0  0.13361611273E+02  0.39798907974E+02 -0.11006242209E+02  0.43400726944E+02  0.00000000000E+00 0.  1.
         11    1    3    3    0    0 -0.83003598693E+01 -0.19472794805E+02  0.79030825032E+01  0.22595230133E+02  0.51100000000E-03 0.  1.
        -11    1    3    3    0    0 -0.56281862508E+01 -0.22263479673E+02  0.31093946943E+01  0.23173418894E+02  0.51100000000E-03 0. -1.
        -12    1    3    3    0    0  0.56693484716E+00  0.19373665038E+01 -0.62349887146E-02  0.20186240280E+01  0.00000000000E+00 0.  1.
</event>
<event>
 7    1  0.1400974E-009  0.4778728E+02  0.7816164E-02  0.1312668E+00
        -11   -1    0    0    0    0  0.00000000000E+00  0.00000000000E+00  0.45593999997E+02  0.45594000000E+02  0.51100000000E-03 0.  1.
         11   -1    0    0    0    0 -0.00000000000E+00 -0.00000000000E+00 -0.45593999997E+02  0.45594000000E+02  0.51100000000E-03 0. -1.
    9900012    2    1    2    0    0  0.22700628714E+02  0.25587197383E+02 -0.26713287005E+02  0.47787275161E+02  0.20000018770E+02 0.  0.
        -12    1    1    2    0    0 -0.22700628714E+02 -0.25587197383E+02  0.26713287005E+02  0.43400724839E+02  0.00000000000E+00 0.  1.
         11    1    3    3    0    0  0.74977999882E-02  0.62472309236E+01  0.17844275091E+01  0.64970864413E+01  0.51100000000E-03 0.  1.
        -11    1    3    3    0    0  0.57184878997E+01  0.40461216148E+01 -0.74263945887E+01  0.10208993135E+02  0.51100000000E-03 0. -1.
        -12    1    3    3    0    0  0.16974643014E+02  0.15293844845E+02 -0.21071319926E+02  0.31081195585E+02  0.00000000000E+00 0.  1.
</event>
<event>
 7    1  0.1400974E-009  0.4778727E+02  0.7816164E-02  0.1312668E+00
        -11   -1    0    0    0    0  0.00000000000E+00  0.00000000000E+00  0.45593999997E+02  0.45594000000E+02  0.51100000000E-03 0.  1.
         11   -1    0    0    0    0 -0.00000000000E+00 -0.00000000000E+00 -0.45593999997E+02  0.45594000000E+02  0.51100000000E-03 0. -1.
    9900012    2    1    2    0    0  0.30091951815E+02  0.14859259321E+02 -0.27519094712E+02  0.47787265843E+02  0.19999976285E+02 0.  0.
        -12    1    1    2    0    0 -0.30091951815E+02 -0.14859259321E+02  0.27519094712E+02  0.43400734157E+02  0.00000000000E+00 0.  1.
         11    1    3    3    0    0  0.27326983779E+01  0.26811453722E+01 -0.45248161515E+01  0.59270686176E+01  0.51100000000E-03 0. -1.
        -11    1    3    3    0    0  0.14265218921E+02 -0.39888673175E+00 -0.18113407896E+02  0.23059729559E+02  0.51100000000E-03 0.  1.
         12    1    3    3    0    0  0.13094034516E+02  0.12577000681E+02 -0.48808706647E+01  0.18800467667E+02  0.00000000000E+00 0. -1.
</event>
<event>
 7    1  0.1400974E-009  0.4778727E+02  0.7816164E-02  0.1312668E+00
        -11   -1    0    0    0    0  0.00000000000E+00  0.00000000000E+00  0.45593999997E+02  0.45594000000E+02  0.51100000000E-03 0.  1.
         11   -1    0    0    0    0 -0.00000000000E+00 -0.00000000000E+00 -0.45593999997E+02  0.45594000000E+02  0.51100000000E-03 0. -1.
    9900012    2    1    2    0    0  0.37412374019E+01 -0.30218101118E+02 -0.30927214490E+02  0.47787273179E+02  0.20000009730E+02 0.  0.
        -12    1    1    2    0    0 -0.37412374019E+01  0.30218101118E+02  0.30927214490E+02  0.43400726821E+02  0.00000000000E+00 0.  1.
         11    1    3    3    0    0  0.90777647922E+01 -0.16222516263E+02 -0.15659918572E+02  0.24306560790E+02  0.51100000000E-03 0. -1.
        -11    1    3    3    0    0  0.19229928631E+01 -0.85464406215E+01 -0.76924422893E+01  0.11658182426E+02  0.51100000000E-03 0.  1.
        -12    1    3    3    0    0 -0.72595202535E+01 -0.54491442337E+01 -0.75748536295E+01  0.11822529962E+02  0.00000000000E+00 0.  1.
</event>
