<event>
 7    1  0.1905073E-013  0.7246155E+02  0.7816164E-02  0.1226708E+00
        -11   -1    0    0    0    0  0.00000000000E+00  0.00000000000E+00  0.45593999997E+02  0.45594000000E+02  0.51100000000E-03 0. -1.
         11   -1    0    0    0    0 -0.00000000000E+00 -0.00000000000E+00 -0.45593999997E+02  0.45594000000E+02  0.51100000000E-03 0.  1.
    9900012    2    1    2    0    0  0.13413730212E+02 -0.71712249056E+01  0.10923609263E+02  0.72461551747E+02  0.69999975839E+02 0.  0.
        -12    1    1    2    0    0 -0.13413730212E+02  0.71712249056E+01 -0.10923609263E+02  0.18726448253E+02  0.00000000000E+00 0.  1.
         11    1    3    3    0    0  0.23558988012E+02 -0.43605697533E+01 -0.13239770843E+02  0.27373929512E+02  0.51100000000E-03 0. -1.
        -11    1    3    3    0    0 -0.22439585296E+02  0.56493858148E+01  0.14444380757E+02  0.27278025662E+02  0.51100000000E-03 0.  1.
         12    1    3    3    0    0  0.12294327496E+02 -0.84600409671E+01  0.97189993491E+01  0.17809596573E+02  0.00000000000E+00 0. -1.
</event>
<event>
 7    1  0.1905073E-013  0.7246157E+02  0.7816164E-02  0.1226708E+00
        -11   -1    0    0    0    0  0.00000000000E+00  0.00000000000E+00  0.45593999997E+02  0.45594000000E+02  0.51100000000E-03 0. -1.
         11   -1    0    0    0    0 -0.00000000000E+00 -0.00000000000E+00 -0.45593999997E+02  0.45594000000E+02  0.51100000000E-03 0.  1.
    9900012    2    1    2    0    0  0.82926032855E+01 -0.77621864210E+01  0.14888267526E+02  0.72461566351E+02  0.69999994863E+02 0.  0.
        -12    1    1    2    0    0 -0.82926032855E+01  0.77621864210E+01 -0.14888267526E+02  0.18726433649E+02  0.00000000000E+00 0.  1.
         11    1    3    3    0    0 -0.20611994724E+02 -0.35080963941E+01  0.28850590512E+02  0.35630291045E+02  0.51100000000E-03 0. -1.
        -11    1    3    3    0    0  0.16474279890E+02  0.61365628733E+01 -0.48213100921E+01  0.18229216469E+02  0.51100000000E-03 0.  1.
         12    1    3    3    0    0  0.12430318120E+02 -0.10390652900E+02 -0.91410128934E+01  0.18602058837E+02  0.00000000000E+00 0. -1.
</event>
<event>
 7    1  0.1905073E-013  0.7246154E+02  0.7816164E-02  0.1226708E+00
        -11   -1    0    0    0    0  0.00000000000E+00  0.00000000000E+00  0.45593999997E+02  0.45594000000E+02  0.51100000000E-03 0. -1.
         11   -1    0    0    0    0 -0.00000000000E+00 -0.00000000000E+00 -0.45593999997E+02  0.45594000000E+02  0.51100000000E-03 0.  1.
    9900012    2    1    2    0    0  0.15870339964E+02  0.34300546468E+00  0.99345416963E+01  0.72461535784E+02  0.69999955043E+02 0.  0.
        -12    1    1    2    0    0 -0.15870339964E+02 -0.34300546468E+00 -0.99345416963E+01  0.18726464216E+02  0.00000000000E+00 0.  1.
         11    1    3    3    0    0 -0.95207760604E+01  0.25708734217E+02  0.12304554199E+02  0.30049729552E+02  0.51100000000E-03 0. -1.
        -11    1    3    3    0    0  0.27360266395E+02 -0.17455163310E+02  0.30891119883E+01  0.32600759447E+02  0.51100000000E-03 0.  1.
         12    1    3    3    0    0 -0.19691503707E+01 -0.79105654426E+01 -0.54591244909E+01  0.98110467847E+01  0.00000000000E+00 0. -1.
</event>
<event>
 7    1  0.1905073E-013  0.7246178E+02  0.7816164E-02  0.1226707E+00
        -11   -1    0    0    0    0  0.00000000000E+00  0.00000000000E+00  0.45593999997E+02  0.45594000000E+02  0.51100000000E-03 0.  1.
         11   -1    0    0    0    0 -0.00000000000E+00 -0.00000000000E+00 -0.45593999997E+02  0.45594000000E+02  0.51100000000E-03 0. -1.
    9900012    2    1    2    0    0  0.25885946265E+01 -0.75059046011E+01 -0.16959717645E+02  0.72461776445E+02  0.70000268549E+02 0.  0.
        -12    1    1    2    0    0 -0.25885946265E+01  0.75059046011E+01  0.16959717645E+02  0.18726223555E+02  0.00000000000E+00 0.  1.
         11    1    3    3    0    0 -0.81979123062E+01 -0.25549261469E+02  0.66946048123E+01  0.27654805398E+02  0.51100000000E-03 0. -1.
        -11    1    3    3    0    0  0.12234206589E+02  0.82547068452E+01  0.41197986728E+01  0.15322817538E+02  0.51100000000E-03 0.  1.
         12    1    3    3    0    0 -0.14476996558E+01  0.97886500224E+01 -0.27774121130E+02  0.29484153508E+02  0.00000000000E+00 0. -1.
</event>
<event>
 7    1  0.1905073E-013  0.7246156E+02  0.7816164E-02  0.1226708E+00
        -11   -1    0    0    0    0  0.00000000000E+00  0.00000000000E+00  0.45593999997E+02  0.45594000000E+02  0.51100000000E-03 0.  1.
         11   -1    0    0    0    0 -0.00000000000E+00 -0.00000000000E+00 -0.45593999997E+02  0.45594000000E+02  0.51100000000E-03 0. -1.
    9900012    2    1    2    0    0  0.10470002956E+01  0.95734509915E+01 -0.16060269110E+02  0.72461563676E+02  0.69999991379E+02 0.  0.
        -12    1    1    2    0    0 -0.10470002956E+01 -0.95734509915E+01  0.16060269110E+02  0.18726436324E+02  0.00000000000E+00 0.  1.
         11    1    3    3    0    0 -0.14051379434E+02  0.13278214294E+02 -0.26863584262E+02  0.33096894092E+02  0.51100000000E-03 0. -1.
        -11    1    3    3    0    0  0.74936806308E+01 -0.85407608436E+01  0.22138196606E+02  0.24883721474E+02  0.51100000000E-03 0.  1.
         12    1    3    3    0    0  0.76046990993E+01  0.48359975411E+01 -0.11334881454E+02  0.14480948110E+02  0.00000000000E+00 0. -1.
</event>
<event>
 7    1  0.1905073E-013  0.7246116E+02  0.7816164E-02  0.1226709E+00
        -11   -1    0    0    0    0  0.00000000000E+00  0.00000000000E+00  0.45593999997E+02  0.45594000000E+02  0.51100000000E-03 0. -1.
         11   -1    0    0    0    0 -0.00000000000E+00 -0.00000000000E+00 -0.45593999997E+02  0.45594000000E+02  0.51100000000E-03 0.  1.
    9900012    2    1    2    0    0 -0.66457040872E+01  0.25624560322E+01  0.17319438838E+02  0.72461160294E+02  0.69999465896E+02 0.  0.
        -12    1    1    2    0    0  0.66457040872E+01 -0.25624560322E+01 -0.17319438838E+02  0.18726839706E+02  0.00000000000E+00 0.  1.
         11    1    3    3    0    0  0.68078098123E+01 -0.11032198102E+01  0.11341699241E+02  0.13273941025E+02  0.51100000000E-03 0. -1.
        -11    1    3    3    0    0 -0.30424329977E+02 -0.13341882586E+02 -0.34019425256E+01  0.33394893303E+02  0.51100000000E-03 0.  1.
        -12    1    3    3    0    0  0.16970816078E+02  0.17007558428E+02  0.93796821220E+01  0.25792325966E+02  0.00000000000E+00 0.  1.
</event>
<event>
 7    1  0.1905073E-013  0.7246140E+02  0.7816164E-02  0.1226708E+00
        -11   -1    0    0    0    0  0.00000000000E+00  0.00000000000E+00  0.45593999997E+02  0.45594000000E+02  0.51100000000E-03 0. -1.
         11   -1    0    0    0    0 -0.00000000000E+00 -0.00000000000E+00 -0.45593999997E+02  0.45594000000E+02  0.51100000000E-03 0.  1.
    9900012    2    1    2    0    0  0.11115774312E+01  0.14807514694E+02  0.11409965079E+02  0.72461403969E+02  0.69999783331E+02 0.  0.
        -12    1    1    2    0    0 -0.11115774312E+01 -0.14807514694E+02 -0.11409965079E+02  0.18726596031E+02  0.00000000000E+00 0.  1.
         11    1    3    3    0    0  0.22599041531E+02 -0.10252955302E+01  0.25548634618E+02  0.34124780441E+02  0.51100000000E-03 0. -1.
        -11    1    3    3    0    0 -0.55501117528E+01  0.17969224764E+02 -0.11492913706E+02  0.22040504640E+02  0.51100000000E-03 0.  1.
         12    1    3    3    0    0 -0.15937352347E+02 -0.21364145394E+01 -0.26457558333E+01  0.16296118889E+02  0.00000000000E+00 0. -1.
</event>
<event>
 7    1  0.1905073E-013  0.7246155E+02  0.7816164E-02  0.1226708E+00
        -11   -1    0    0    0    0  0.00000000000E+00  0.00000000000E+00  0.45593999997E+02  0.45594000000E+02  0.51100000000E-03 0. -1.
         11   -1    0    0    0    0 -0.00000000000E+00 -0.00000000000E+00 -0.45593999997E+02  0.45594000000E+02  0.51100000000E-03 0.  1.
    9900012    2    1    2    0    0 -0.87069072967E+01  0.75878989722E+01  0.14740880870E+02  0.72461547738E+02  0.69999970616E+02 0.  0.
        -12    1    1    2    0    0  0.87069072967E+01 -0.75878989722E+01 -0.14740880870E+02  0.18726452262E+02  0.00000000000E+00 0.  1.
         11    1    3    3    0    0  0.25134278369E+02  0.48986801582E+01 -0.11538092865E+02  0.28086591171E+02  0.51100000000E-03 0.  1.
        -11    1    3    3    0    0 -0.32691349999E+02  0.83054220697E+00  0.26615061858E+02  0.42163677296E+02  0.51100000000E-03 0. -1.
        -12    1    3    3    0    0 -0.11498356665E+01  0.18586766070E+01 -0.33608812323E+00  0.22112792714E+01  0.00000000000E+00 0.  1.
</event>
<event>
 7    1  0.1905073E-013  0.7246129E+02  0.7816164E-02  0.1226709E+00
        -11   -1    0    0    0    0  0.00000000000E+00  0.00000000000E+00  0.45593999997E+02  0.45594000000E+02  0.51100000000E-03 0.  1.
         11   -1    0    0    0    0 -0.00000000000E+00 -0.00000000000E+00 -0.45593999997E+02  0.45594000000E+02  0.51100000000E-03 0. -1.
    9900012    2    1    2    0    0 -0.15252141233E+02 -0.10706536415E+02  0.18525788814E+01  0.72461286922E+02  0.69999630853E+02 0.  0.
        -12    1    1    2    0    0  0.15252141233E+02  0.10706536415E+02 -0.18525788814E+01  0.18726713078E+02  0.00000000000E+00 0.  1.
         11    1    3    3    0    0 -0.68079580340E+01  0.26892276295E+02 -0.51264330362E+01  0.28210337340E+02  0.51100000000E-03 0.  1.
        -11    1    3    3    0    0 -0.14408982529E+02 -0.22717940309E+02  0.83301470497E+01  0.28162296418E+02  0.51100000000E-03 0. -1.
         12    1    3    3    0    0  0.59647993302E+01 -0.14880872401E+02 -0.13511351322E+01  0.16088653163E+02  0.00000000000E+00 0. -1.
</event>
<event>
 7    1  0.1905073E-013  0.7246156E+02  0.7816164E-02  0.1226708E+00
        -11   -1    0    0    0    0  0.00000000000E+00  0.00000000000E+00  0.45593999997E+02  0.45594000000E+02  0.51100000000E-03 0. -1.
         11   -1    0    0    0    0 -0.00000000000E+00 -0.00000000000E+00 -0.45593999997E+02  0.45594000000E+02  0.51100000000E-03 0.  1.
    9900012    2    1    2    0    0  0.88253289619E+01 -0.83874204532E+01  0.14228285764E+02  0.72461564970E+02  0.69999993064E+02 0.  0.
        -12    1    1    2    0    0 -0.88253289619E+01  0.83874204532E+01 -0.14228285764E+02  0.18726435030E+02  0.00000000000E+00 0.  1.
         11    1    3    3    0    0  0.12708019798E+02  0.14708472036E+02  0.34364785510E+02  0.39481279111E+02  0.51100000000E-03 0. -1.
        -11    1    3    3    0    0  0.23337753411E+01 -0.84113417186E+01 -0.12636702796E+02  0.15358497148E+02  0.51100000000E-03 0.  1.
         12    1    3    3    0    0 -0.62164661770E+01 -0.14684550771E+02 -0.74997969504E+01  0.17621788711E+02  0.00000000000E+00 0. -1.
</event>
<event>
 7    1  0.1905073E-013  0.7246157E+02  0.7816164E-02  0.1226708E+00
        -11   -1    0    0    0    0  0.00000000000E+00  0.00000000000E+00  0.45593999997E+02  0.45594000000E+02  0.51100000000E-03 0.  1.
         11   -1    0    0    0    0 -0.00000000000E+00 -0.00000000000E+00 -0.45593999997E+02  0.45594000000E+02  0.51100000000E-03 0. -1.
    9900012    2    1    2    0    0  0.27367773721E+01 -0.12210610222E+02  0.13931629493E+02  0.72461568073E+02  0.69999997107E+02 0.  0.
        -12    1    1    2    0    0 -0.27367773721E+01  0.12210610222E+02 -0.13931629493E+02  0.18726431927E+02  0.00000000000E+00 0.  1.
         11    1    3    3    0    0 -0.21301408912E+02 -0.11008598184E+02  0.77072704824E+00  0.23990274614E+02  0.51100000000E-03 0. -1.
        -11    1    3    3    0    0  0.19308837885E+02  0.13152926156E+02  0.21027878968E+02  0.31432505167E+02  0.51100000000E-03 0.  1.
         12    1    3    3    0    0  0.47293483988E+01 -0.14354938194E+02 -0.78669765232E+01  0.17038788292E+02  0.00000000000E+00 0. -1.
</event>
<event>
 7    1  0.1905073E-013  0.7246161E+02  0.7816164E-02  0.1226708E+00
        -11   -1    0    0    0    0  0.00000000000E+00  0.00000000000E+00  0.45593999997E+02  0.45594000000E+02  0.51100000000E-03 0.  1.
         11   -1    0    0    0    0 -0.00000000000E+00 -0.00000000000E+00 -0.45593999997E+02  0.45594000000E+02  0.51100000000E-03 0. -1.
    9900012    2    1    2    0    0 -0.51130466659E+01  0.16018595178E+02  0.82425246927E+01  0.72461605499E+02  0.70000045861E+02 0.  0.
        -12    1    1    2    0    0  0.51130466659E+01 -0.16018595178E+02 -0.82425246927E+01  0.18726394501E+02  0.00000000000E+00 0.  1.
         11    1    3    3    0    0  0.21831217187E+02 -0.93703951179E+01  0.88464442004E+01  0.25350856470E+02  0.51100000000E-03 0. -1.
        -11    1    3    3    0    0 -0.12270465350E+02  0.19256497561E+02  0.12918954677E+02  0.26235022554E+02  0.51100000000E-03 0.  1.
         12    1    3    3    0    0 -0.14673798503E+02  0.61324927350E+01 -0.13522874184E+02  0.20875726475E+02  0.00000000000E+00 0. -1.
</event>
<event>
 7    1  0.1905073E-013  0.7246158E+02  0.7816164E-02  0.1226708E+00
        -11   -1    0    0    0    0  0.00000000000E+00  0.00000000000E+00  0.45593999997E+02  0.45594000000E+02  0.51100000000E-03 0.  1.
         11   -1    0    0    0    0 -0.00000000000E+00 -0.00000000000E+00 -0.45593999997E+02  0.45594000000E+02  0.51100000000E-03 0. -1.
    9900012    2    1    2    0    0 -0.11904089718E+02 -0.26943099366E-01 -0.14455816500E+02  0.72461582601E+02  0.70000016031E+02 0.  0.
        -12    1    1    2    0    0  0.11904089718E+02  0.26943099366E-01  0.14455816500E+02  0.18726417399E+02  0.00000000000E+00 0.  1.
         11    1    3    3    0    0  0.13204111543E+02 -0.19838316501E+01 -0.25633418314E+02  0.28902530761E+02  0.51100000000E-03 0. -1.
        -11    1    3    3    0    0  0.54754765978E+01  0.38607407948E+01  0.11042357518E+02  0.12915874855E+02  0.51100000000E-03 0.  1.
         12    1    3    3    0    0 -0.30583677858E+02 -0.19038522441E+01  0.13524429657E+00  0.30643176985E+02  0.00000000000E+00 0. -1.
</event>
<event>
 7    1  0.1905073E-013  0.7246159E+02  0.7816164E-02  0.1226708E+00
        -11   -1    0    0    0    0  0.00000000000E+00  0.00000000000E+00  0.45593999997E+02  0.45594000000E+02  0.51100000000E-03 0.  1.
         11   -1    0    0    0    0 -0.00000000000E+00 -0.00000000000E+00 -0.45593999997E+02  0.45594000000E+02  0.51100000000E-03 0. -1.
    9900012    2    1    2    0    0  0.29158750648E+01 -0.11314109742E+02 -0.14634441815E+02  0.72461593674E+02  0.70000030456E+02 0.  0.
        -12    1    1    2    0    0 -0.29158750648E+01  0.11314109742E+02  0.14634441815E+02  0.18726406326E+02  0.00000000000E+00 0.  1.
         11    1    3    3    0    0  0.22097876291E+02 -0.24823827874E+01 -0.18544256260E+02  0.28954581699E+02  0.51100000000E-03 0. -1.
        -11    1    3    3    0    0 -0.29884754706E+02 -0.11516638230E+01  0.54938029234E+00  0.29911982756E+02  0.51100000000E-03 0.  1.
        -12    1    3    3    0    0  0.10702753480E+02 -0.76800631320E+01  0.33604341524E+01  0.13595029219E+02  0.00000000000E+00 0.  1.
</event>
<event>
 7    1  0.1905073E-013  0.7246160E+02  0.7816164E-02  0.1226708E+00
        -11   -1    0    0    0    0  0.00000000000E+00  0.00000000000E+00  0.45593999997E+02  0.45594000000E+02  0.51100000000E-03 0.  1.
         11   -1    0    0    0    0 -0.00000000000E+00 -0.00000000000E+00 -0.45593999997E+02  0.45594000000E+02  0.51100000000E-03 0. -1.
    9900012    2    1    2    0    0 -0.11852462343E+02  0.58556059367E+01 -0.13263070807E+02  0.72461600674E+02  0.70000039575E+02 0.  0.
        -12    1    1    2    0    0  0.11852462343E+02 -0.58556059367E+01  0.13263070807E+02  0.18726399326E+02  0.00000000000E+00 0.  1.
         11    1    3    3    0    0  0.39390637653E+01  0.20520014306E+02 -0.13896745008E+01  0.20940831071E+02  0.51100000000E-03 0. -1.
        -11    1    3    3    0    0  0.13220932288E+02 -0.16266591162E+02 -0.67051984634E+01  0.22008060462E+02  0.51100000000E-03 0.  1.
         12    1    3    3    0    0 -0.29012458396E+02  0.16021827929E+01 -0.51681978432E+01  0.29512709141E+02  0.00000000000E+00 0. -1.
</event>
<event>
 7    1  0.1905073E-013  0.7246158E+02  0.7816164E-02  0.1226708E+00
        -11   -1    0    0    0    0  0.00000000000E+00  0.00000000000E+00  0.45593999997E+02  0.45594000000E+02  0.51100000000E-03 0.  1.
         11   -1    0    0    0    0 -0.00000000000E+00 -0.00000000000E+00 -0.45593999997E+02  0.45594000000E+02  0.51100000000E-03 0. -1.
    9900012    2    1    2    0    0  0.11807464506E+02  0.12437267577E+02 -0.75217747985E+01  0.72461576450E+02  0.70000008019E+02 0.  0.
        -12    1    1    2    0    0 -0.11807464506E+02 -0.12437267577E+02  0.75217747985E+01  0.18726423550E+02  0.00000000000E+00 0.  1.
         11    1    3    3    0    0  0.13506204011E+02  0.98655934442E+01 -0.74333893710E+01  0.18303080576E+02  0.51100000000E-03 0. -1.
        -11    1    3    3    0    0 -0.56464266342E+01 -0.20746560870E+02 -0.14985070710E+02  0.26207904650E+02  0.51100000000E-03 0.  1.
        -12    1    3    3    0    0  0.39476871294E+01  0.23318235003E+02  0.14896685283E+02  0.27950591224E+02  0.00000000000E+00 0.  1.
</event>
<event>
 7    1  0.1905073E-013  0.7246159E+02  0.7816164E-02  0.1226708E+00
        -11   -1    0    0    0    0  0.00000000000E+00  0.00000000000E+00  0.45593999997E+02  0.45594000000E+02  0.51100000000E-03 0. -1.
         11   -1    0    0    0    0 -0.00000000000E+00 -0.00000000000E+00 -0.45593999997E+02  0.45594000000E+02  0.51100000000E-03 0.  1.
    9900012    2    1    2    0    0  0.11137771121E+02  0.28894090963E+01  0.14774291075E+02  0.72461593318E+02  0.70000029992E+02 0.  0.
        -12    1    1    2    0    0 -0.11137771121E+02 -0.28894090963E+01 -0.14774291075E+02  0.18726406682E+02  0.00000000000E+00 0.  1.
         11    1    3    3    0    0  0.10661067173E+02  0.14395809943E+02  0.38259391367E+02  0.42245458043E+02  0.51100000000E-03 0. -1.
        -11    1    3    3    0    0 -0.25415717958E+01 -0.12135212210E+02 -0.24072293583E+02  0.27077634335E+02  0.51100000000E-03 0.  1.
         12    1    3    3    0    0  0.30182757433E+01  0.62881136339E+00  0.58719329026E+00  0.31385009405E+01  0.00000000000E+00 0. -1.
</event>
<event>
 7    1  0.1905073E-013  0.7246114E+02  0.7816164E-02  0.1226709E+00
        -11   -1    0    0    0    0  0.00000000000E+00  0.00000000000E+00  0.45593999997E+02  0.45594000000E+02  0.51100000000E-03 0.  1.
         11   -1    0    0    0    0 -0.00000000000E+00 -0.00000000000E+00 -0.45593999997E+02  0.45594000000E+02  0.51100000000E-03 0. -1.
    9900012    2    1    2    0    0 -0.17623789412E+02  0.18316075395E+01 -0.60615686512E+01  0.72461138172E+02  0.69999437078E+02 0.  0.
        -12    1    1    2    0    0  0.17623789412E+02 -0.18316075395E+01  0.60615686512E+01  0.18726861828E+02  0.00000000000E+00 0.  1.
         11    1    3    3    0    0  0.25157000332E+01 -0.23829645691E+02 -0.11916036700E+02  0.26761403015E+02  0.51100000000E-03 0. -1.
        -11    1    3    3    0    0  0.55598742181E+01  0.14545464282E+02 -0.38932860942E+01  0.16051180934E+02  0.51100000000E-03 0.  1.
         12    1    3    3    0    0 -0.25699363664E+02  0.11115788949E+02  0.97477541432E+01  0.29648554223E+02  0.00000000000E+00 0. -1.
</event>
<event>
 7    1  0.1905073E-013  0.7246163E+02  0.7816164E-02  0.1226708E+00
        -11   -1    0    0    0    0  0.00000000000E+00  0.00000000000E+00  0.45593999997E+02  0.45594000000E+02  0.51100000000E-03 0.  1.
         11   -1    0    0    0    0 -0.00000000000E+00 -0.00000000000E+00 -0.45593999997E+02  0.45594000000E+02  0.51100000000E-03 0. -1.
    9900012    2    1    2    0    0  0.12037059201E+02 -0.12085767173E+02 -0.77278934986E+01  0.72461630883E+02  0.70000078928E+02 0.  0.
        -12    1    1    2    0    0 -0.12037059201E+02  0.12085767173E+02  0.77278934986E+01  0.18726369117E+02  0.00000000000E+00 0.  1.
         11    1    3    3    0    0  0.14630325897E+02 -0.13962585514E+02 -0.33385567642E+01  0.20497467932E+02  0.51100000000E-03 0. -1.
        -11    1    3    3    0    0 -0.86412456282E+01  0.21937629890E+02 -0.15530654178E+02  0.28233525296E+02  0.51100000000E-03 0.  1.
        -12    1    3    3    0    0  0.60479789318E+01 -0.20060811549E+02  0.11141317444E+02  0.23730637655E+02  0.00000000000E+00 0.  1.
</event>
<event>
 7    1  0.1905073E-013  0.7246140E+02  0.7816164E-02  0.1226708E+00
        -11   -1    0    0    0    0  0.00000000000E+00  0.00000000000E+00  0.45593999997E+02  0.45594000000E+02  0.51100000000E-03 0.  1.
         11   -1    0    0    0    0 -0.00000000000E+00 -0.00000000000E+00 -0.45593999997E+02  0.45594000000E+02  0.51100000000E-03 0. -1.
    9900012    2    1    2    0    0 -0.15217042465E+02 -0.57305722616E+01 -0.92891223909E+01  0.72461397676E+02  0.69999775132E+02 0.  0.
        -12    1    1    2    0    0  0.15217042465E+02  0.57305722616E+01  0.92891223909E+01  0.18726602324E+02  0.00000000000E+00 0.  1.
         11    1    3    3    0    0 -0.72339782798E+00 -0.15006570275E+02 -0.20916511057E+02  0.25753075368E+02  0.51100000000E-03 0. -1.
        -11    1    3    3    0    0 -0.18838265671E+02  0.34508177424E+01  0.24997658606E+02  0.31490813465E+02  0.51100000000E-03 0.  1.
         12    1    3    3    0    0  0.43446210343E+01  0.58251802709E+01 -0.13370269940E+02  0.15217508843E+02  0.00000000000E+00 0. -1.
</event>
<event>
 7    1  0.1905073E-013  0.7246166E+02  0.7816164E-02  0.1226708E+00
        -11   -1    0    0    0    0  0.00000000000E+00  0.00000000000E+00  0.45593999997E+02  0.45594000000E+02  0.51100000000E-03 0.  1.
         11   -1    0    0    0    0 -0.00000000000E+00 -0.00000000000E+00 -0.45593999997E+02  0.45594000000E+02  0.51100000000E-03 0. -1.
    9900012    2    1    2    0    0  0.73017620929E+01 -0.17063579268E+02  0.24888676834E+01  0.72461656805E+02  0.70000112697E+02 0.  0.
        -12    1    1    2    0    0 -0.73017620929E+01  0.17063579268E+02 -0.24888676834E+01  0.18726343195E+02  0.00000000000E+00 0.  1.
         11    1    3    3    0    0 -0.59542523475E+01  0.85102565411E+01 -0.17251074042E+02  0.20136463028E+02  0.51100000000E-03 0. -1.
        -11    1    3    3    0    0  0.95122377983E+01 -0.32331923456E+02  0.29353698804E+01  0.33829755230E+02  0.51100000000E-03 0.  1.
        -12    1    3    3    0    0  0.37437766421E+01  0.67580876470E+01  0.16804571845E+02  0.18495438548E+02  0.00000000000E+00 0.  1.
</event>
<event>
 7    1  0.1905073E-013  0.7246157E+02  0.7816164E-02  0.1226708E+00
        -11   -1    0    0    0    0  0.00000000000E+00  0.00000000000E+00  0.45593999997E+02  0.45594000000E+02  0.51100000000E-03 0. -1.
         11   -1    0    0    0    0 -0.00000000000E+00 -0.00000000000E+00 -0.45593999997E+02  0.45594000000E+02  0.51100000000E-03 0.  1.
    9900012    2    1    2    0    0 -0.95733833310E+01  0.99005028220E+01  0.12688954811E+02  0.72461569514E+02  0.69999998984E+02 0.  0.
        -12    1    1    2    0    0  0.95733833310E+01 -0.99005028220E+01 -0.12688954811E+02  0.18726430486E+02  0.00000000000E+00 0.  1.
         11    1    3    3    0    0  0.40755994345E+01  0.96331656966E+01  0.12163051005E+02  0.16042075991E+02  0.51100000000E-03 0. -1.
        -11    1    3    3    0    0  0.94984178549E+01  0.30273787976E+01 -0.21906225416E+02  0.24067980314E+02  0.51100000000E-03 0.  1.
        -12    1    3    3    0    0 -0.23147400620E+02 -0.27600416722E+01  0.22432129222E+02  0.32351513210E+02  0.00000000000E+00 0.  1.
</event>
<event>
 7    1  0.1905073E-013  0.7246147E+02  0.7816164E-02  0.1226708E+00
        -11   -1    0    0    0    0  0.00000000000E+00  0.00000000000E+00  0.45593999997E+02  0.45594000000E+02  0.51100000000E-03 0.  1.
         11   -1    0    0    0    0 -0.00000000000E+00 -0.00000000000E+00 -0.45593999997E+02  0.45594000000E+02  0.51100000000E-03 0. -1.
    9900012    2    1    2    0    0 -0.77797906082E+01 -0.93385559978E+01 -0.14246026351E+02  0.72461467037E+02  0.69999865487E+02 0.  0.
        -12    1    1    2    0    0  0.77797906082E+01  0.93385559978E+01  0.14246026351E+02  0.18726532963E+02  0.00000000000E+00 0.  1.
         11    1    3    3    0    0  0.77413720563E+01  0.15392644608E+02 -0.10684570210E+02  0.20273687138E+02  0.51100000000E-03 0. -1.
        -11    1    3    3    0    0 -0.24668159601E+02 -0.89620718110E+01  0.11390048022E+02  0.28610662758E+02  0.51100000000E-03 0.  1.
        -12    1    3    3    0    0  0.91469969366E+01 -0.15769128795E+02 -0.14951504164E+02  0.23577117141E+02  0.00000000000E+00 0.  1.
</event>
<event>
 7    1  0.1905073E-013  0.7246156E+02  0.7816164E-02  0.1226708E+00
        -11   -1    0    0    0    0  0.00000000000E+00  0.00000000000E+00  0.45593999997E+02  0.45594000000E+02  0.51100000000E-03 0.  1.
         11   -1    0    0    0    0 -0.00000000000E+00 -0.00000000000E+00 -0.45593999997E+02  0.45594000000E+02  0.51100000000E-03 0. -1.
    9900012    2    1    2    0    0  0.85536378091E+01  0.13493918496E+01 -0.16604029567E+02  0.72461564781E+02  0.69999992818E+02 0.  0.
        -12    1    1    2    0    0 -0.85536378091E+01 -0.13493918496E+01  0.16604029567E+02  0.18726435219E+02  0.00000000000E+00 0.  1.
         11    1    3    3    0    0  0.55959458574E+01 -0.23023809575E+02 -0.10478601583E+02  0.25907749975E+02  0.51100000000E-03 0. -1.
        -11    1    3    3    0    0 -0.74070490168E+01  0.77194203016E+00  0.12639388823E+02  0.14670188128E+02  0.51100000000E-03 0.  1.
         12    1    3    3    0    0  0.10364740969E+02  0.23601259394E+02 -0.18764816807E+02  0.31883626678E+02  0.00000000000E+00 0. -1.
</event>
<event>
 7    1  0.1905073E-013  0.7246121E+02  0.7816164E-02  0.1226709E+00
        -11   -1    0    0    0    0  0.00000000000E+00  0.00000000000E+00  0.45593999997E+02  0.45594000000E+02  0.51100000000E-03 0. -1.
         11   -1    0    0    0    0 -0.00000000000E+00 -0.00000000000E+00 -0.45593999997E+02  0.45594000000E+02  0.51100000000E-03 0.  1.
    9900012    2    1    2    0    0  0.94992009357E+01 -0.18233589298E+01  0.16035378046E+02  0.72461206220E+02  0.69999525723E+02 0.  0.
        -12    1    1    2    0    0 -0.94992009357E+01  0.18233589298E+01 -0.16035378046E+02  0.18726793780E+02  0.00000000000E+00 0.  1.
         11    1    3    3    0    0  0.26332014133E+02 -0.50529668549E+01  0.18211133257E+02  0.32412232523E+02  0.51100000000E-03 0. -1.
        -11    1    3    3    0    0 -0.12978536713E+02 -0.14810706743E+02 -0.71370028596E+01  0.20946032071E+02  0.51100000000E-03 0.  1.
         12    1    3    3    0    0 -0.38542764841E+01  0.18040314668E+02  0.49612476489E+01  0.19102941626E+02  0.00000000000E+00 0. -1.
</event>
<event>
 7    1  0.1905073E-013  0.7246159E+02  0.7816164E-02  0.1226708E+00
        -11   -1    0    0    0    0  0.00000000000E+00  0.00000000000E+00  0.45593999997E+02  0.45594000000E+02  0.51100000000E-03 0.  1.
         11   -1    0    0    0    0 -0.00000000000E+00 -0.00000000000E+00 -0.45593999997E+02  0.45594000000E+02  0.51100000000E-03 0. -1.
    9900012    2    1    2    0    0 -0.55456318046E+01 -0.40556528622E+01 -0.17420563562E+02  0.72461591186E+02  0.70000027215E+02 0.  0.
        -12    1    1    2    0    0  0.55456318046E+01  0.40556528622E+01  0.17420563562E+02  0.18726408814E+02  0.00000000000E+00 0.  1.
         11    1    3    3    0    0 -0.10066112479E+02 -0.55076420390E+01  0.21992078810E+02  0.24805488746E+02  0.51100000000E-03 0. -1.
        -11    1    3    3    0    0  0.56851953103E+01  0.53379208114E+01  0.23454348478E+00  0.78019135610E+01  0.51100000000E-03 0.  1.
         12    1    3    3    0    0 -0.11647146358E+01 -0.38859316346E+01 -0.39647185857E+02  0.39854188879E+02  0.00000000000E+00 0. -1.
</event>
<event>
 7    1  0.1905073E-013  0.7246156E+02  0.7816164E-02  0.1226708E+00
        -11   -1    0    0    0    0  0.00000000000E+00  0.00000000000E+00  0.45593999997E+02  0.45594000000E+02  0.51100000000E-03 0.  1.
         11   -1    0    0    0    0 -0.00000000000E+00 -0.00000000000E+00 -0.45593999997E+02  0.45594000000E+02  0.51100000000E-03 0. -1.
    9900012    2    1    2    0    0  0.11767608030E+02  0.10987310493E+02 -0.95646124655E+01  0.72461564081E+02  0.69999991906E+02 0.  0.
        -12    1    1    2    0    0 -0.11767608030E+02 -0.10987310493E+02  0.95646124655E+01  0.18726435919E+02  0.00000000000E+00 0.  1.
         11    1    3    3    0    0  0.14771024687E+02  0.17117266679E+02 -0.28132399578E+02  0.36091770463E+02  0.51100000000E-03 0. -1.
        -11    1    3    3    0    0 -0.16495679966E+02 -0.26426603260E+01  0.13710877714E+02  0.21612017006E+02  0.51100000000E-03 0.  1.
        -12    1    3    3    0    0  0.13492263309E+02 -0.34872958603E+01  0.48569093983E+01  0.14757776612E+02  0.00000000000E+00 0.  1.
</event>
<event>
 7    1  0.1905073E-013  0.7246158E+02  0.7816164E-02  0.1226708E+00
        -11   -1    0    0    0    0  0.00000000000E+00  0.00000000000E+00  0.45593999997E+02  0.45594000000E+02  0.51100000000E-03 0. -1.
         11   -1    0    0    0    0 -0.00000000000E+00 -0.00000000000E+00 -0.45593999997E+02  0.45594000000E+02  0.51100000000E-03 0.  1.
    9900012    2    1    2    0    0  0.55205091625E+01  0.67560785276E+01  0.16569797587E+02  0.72461579878E+02  0.70000012485E+02 0.  0.
        -12    1    1    2    0    0 -0.55205091625E+01 -0.67560785276E+01 -0.16569797587E+02  0.18726420122E+02  0.00000000000E+00 0.  1.
         11    1    3    3    0    0 -0.20994672162E+02  0.47184751590E+01 -0.15400535347E+02  0.26461609102E+02  0.51100000000E-03 0. -1.
        -11    1    3    3    0    0  0.12988648823E+02 -0.87170583373E+01  0.17386215665E+02  0.23387445344E+02  0.51100000000E-03 0.  1.
         12    1    3    3    0    0  0.13526532502E+02  0.10754661706E+02  0.14584117269E+02  0.22612525433E+02  0.00000000000E+00 0. -1.
</event>
<event>
 7    1  0.1905073E-013  0.7246164E+02  0.7816164E-02  0.1226708E+00
        -11   -1    0    0    0    0  0.00000000000E+00  0.00000000000E+00  0.45593999997E+02  0.45594000000E+02  0.51100000000E-03 0.  1.
         11   -1    0    0    0    0 -0.00000000000E+00 -0.00000000000E+00 -0.45593999997E+02  0.45594000000E+02  0.51100000000E-03 0. -1.
    9900012    2    1    2    0    0 -0.68263371051E+01 -0.17272956217E+02  0.23922162936E+01  0.72461639074E+02  0.70000089598E+02 0.  0.
        -12    1    1    2    0    0  0.68263371051E+01  0.17272956217E+02 -0.23922162936E+01  0.18726360926E+02  0.00000000000E+00 0.  1.
         11    1    3    3    0    0  0.59381911546E+01 -0.10437895948E+02 -0.90124347977E+01  0.15014518549E+02  0.51100000000E-03 0. -1.
        -11    1    3    3    0    0  0.16077171728E+02  0.49293351901E+01  0.19013197268E+02  0.25382581957E+02  0.51100000000E-03 0.  1.
        -12    1    3    3    0    0 -0.28841699988E+02 -0.11764395459E+02 -0.76085461764E+01  0.32064538569E+02  0.00000000000E+00 0.  1.
</event>
<event>
 7    1  0.1905073E-013  0.7246159E+02  0.7816164E-02  0.1226708E+00
        -11   -1    0    0    0    0  0.00000000000E+00  0.00000000000E+00  0.45593999997E+02  0.45594000000E+02  0.51100000000E-03 0. -1.
         11   -1    0    0    0    0 -0.00000000000E+00 -0.00000000000E+00 -0.45593999997E+02  0.45594000000E+02  0.51100000000E-03 0.  1.
    9900012    2    1    2    0    0  0.23165642942E+01  0.17120586225E+02  0.72247759767E+01  0.72461592690E+02  0.70000029175E+02 0.  0.
        -12    1    1    2    0    0 -0.23165642942E+01 -0.17120586225E+02 -0.72247759767E+01  0.18726407310E+02  0.00000000000E+00 0.  1.
         11    1    3    3    0    0  0.25198268227E+02  0.15886898759E+02  0.21941858347E+01  0.29869059670E+02  0.51100000000E-03 0. -1.
        -11    1    3    3    0    0 -0.26590470283E+02 -0.85878243497E+01  0.11548575731E+02  0.30235301199E+02  0.51100000000E-03 0.  1.
        -12    1    3    3    0    0  0.37087663502E+01  0.98215118149E+01 -0.65179855886E+01  0.12357231822E+02  0.00000000000E+00 0.  1.
</event>
<event>
 7    1  0.1905073E-013  0.7246175E+02  0.7816164E-02  0.1226708E+00
        -11   -1    0    0    0    0  0.00000000000E+00  0.00000000000E+00  0.45593999997E+02  0.45594000000E+02  0.51100000000E-03 0. -1.
         11   -1    0    0    0    0 -0.00000000000E+00 -0.00000000000E+00 -0.45593999997E+02  0.45594000000E+02  0.51100000000E-03 0.  1.
    9900012    2    1    2    0    0 -0.10977638638E+02 -0.15065321590E+02 -0.17888903115E+01  0.72461745884E+02  0.70000228738E+02 0.  0.
        -12    1    1    2    0    0  0.10977638638E+02  0.15065321590E+02  0.17888903115E+01  0.18726254116E+02  0.00000000000E+00 0.  1.
         11    1    3    3    0    0 -0.69367630696E+01 -0.21404538599E+02  0.14332748031E+02  0.26677717685E+02  0.51100000000E-03 0. -1.
        -11    1    3    3    0    0  0.10881048826E+02  0.18221511620E+02 -0.66614457708E+00  0.21233569133E+02  0.51100000000E-03 0.  1.
        -12    1    3    3    0    0 -0.14921924394E+02 -0.11882294611E+02 -0.15455493766E+02  0.24550459066E+02  0.00000000000E+00 0.  1.
</event>
<event>
 7    1  0.1905073E-013  0.7246156E+02  0.7816164E-02  0.1226708E+00
        -11   -1    0    0    0    0  0.00000000000E+00  0.00000000000E+00  0.45593999997E+02  0.45594000000E+02  0.51100000000E-03 0. -1.
         11   -1    0    0    0    0 -0.00000000000E+00 -0.00000000000E+00 -0.45593999997E+02  0.45594000000E+02  0.51100000000E-03 0.  1.
    9900012    2    1    2    0    0 -0.89248688886E+01 -0.15823950000E+02  0.45418849348E+01  0.72461564220E+02  0.69999992086E+02 0.  0.
        -12    1    1    2    0    0  0.89248688886E+01  0.15823950000E+02 -0.45418849348E+01  0.18726435780E+02  0.00000000000E+00 0.  1.
         11    1    3    3    0    0 -0.25935164397E+02 -0.18705386534E+02 -0.10520855996E+02  0.33663223982E+02  0.51100000000E-03 0. -1.
        -11    1    3    3    0    0  0.20780846628E+02  0.13109656790E+02  0.81347877455E+01  0.25882068303E+02  0.51100000000E-03 0.  1.
        -12    1    3    3    0    0 -0.37705511192E+01 -0.10228220256E+02  0.69279531853E+01  0.12916271935E+02  0.00000000000E+00 0.  1.
</event>
<event>
 7    1  0.1905073E-013  0.7246155E+02  0.7816164E-02  0.1226708E+00
        -11   -1    0    0    0    0  0.00000000000E+00  0.00000000000E+00  0.45593999997E+02  0.45594000000E+02  0.51100000000E-03 0.  1.
         11   -1    0    0    0    0 -0.00000000000E+00 -0.00000000000E+00 -0.45593999997E+02  0.45594000000E+02  0.51100000000E-03 0. -1.
    9900012    2    1    2    0    0  0.79990741109E+01 -0.16211112896E+02 -0.48881949937E+01  0.72461552973E+02  0.69999977436E+02 0.  0.
        -12    1    1    2    0    0 -0.79990741109E+01  0.16211112896E+02  0.48881949937E+01  0.18726447027E+02  0.00000000000E+00 0.  1.
         11    1    3    3    0    0 -0.12591030346E+01 -0.17152310066E+02 -0.64551614926E+01  0.18369980708E+02  0.51100000000E-03 0. -1.
        -11    1    3    3    0    0 -0.11801074939E+02  0.86232290373E+01  0.20206080098E+02  0.24938145920E+02  0.51100000000E-03 0.  1.
        -12    1    3    3    0    0  0.21059252084E+02 -0.76820318672E+01 -0.18639113599E+02  0.29153426346E+02  0.00000000000E+00 0.  1.
</event>
<event>
 7    1  0.1905073E-013  0.7246156E+02  0.7816164E-02  0.1226708E+00
        -11   -1    0    0    0    0  0.00000000000E+00  0.00000000000E+00  0.45593999997E+02  0.45594000000E+02  0.51100000000E-03 0.  1.
         11   -1    0    0    0    0 -0.00000000000E+00 -0.00000000000E+00 -0.45593999997E+02  0.45594000000E+02  0.51100000000E-03 0. -1.
    9900012    2    1    2    0    0  0.61341628637E+01 -0.14018014741E+02 -0.10795691228E+02  0.72461557721E+02  0.69999983621E+02 0.  0.
        -12    1    1    2    0    0 -0.61341628637E+01  0.14018014741E+02  0.10795691228E+02  0.18726442279E+02  0.00000000000E+00 0.  1.
         11    1    3    3    0    0  0.11357748619E+02  0.81270134219E+01 -0.99052102629E+01  0.17121915531E+02  0.51100000000E-03 0. -1.
        -11    1    3    3    0    0  0.41352229844E+01 -0.13083887716E+02  0.23772109039E+02  0.27448157594E+02  0.51100000000E-03 0.  1.
        -12    1    3    3    0    0 -0.93588087398E+01 -0.90611404472E+01 -0.24662590004E+02  0.27891484596E+02  0.00000000000E+00 0.  1.
</event>
<event>
 7    1  0.1905073E-013  0.7246147E+02  0.7816164E-02  0.1226708E+00
        -11   -1    0    0    0    0  0.00000000000E+00  0.00000000000E+00  0.45593999997E+02  0.45594000000E+02  0.51100000000E-03 0.  1.
         11   -1    0    0    0    0 -0.00000000000E+00 -0.00000000000E+00 -0.45593999997E+02  0.45594000000E+02  0.51100000000E-03 0. -1.
    9900012    2    1    2    0    0 -0.14908816448E+02  0.11328183826E+02 -0.28714201800E+00  0.72461467827E+02  0.69999866518E+02 0.  0.
        -12    1    1    2    0    0  0.14908816448E+02 -0.11328183826E+02  0.28714201800E+00  0.18726532173E+02  0.00000000000E+00 0.  1.
         11    1    3    3    0    0 -0.17474809442E+01  0.14722169571E+01 -0.76861425429E+01  0.80185971261E+01  0.51100000000E-03 0. -1.
        -11    1    3    3    0    0 -0.14586589565E+02 -0.24980101631E+02  0.60417092922E+01  0.29551249112E+02  0.51100000000E-03 0.  1.
        -12    1    3    3    0    0  0.14252540607E+01  0.34836068500E+02  0.13572912327E+01  0.34891621589E+02  0.00000000000E+00 0.  1.
</event>
<event>
 7    1  0.1905073E-013  0.7246166E+02  0.7816164E-02  0.1226708E+00
        -11   -1    0    0    0    0  0.00000000000E+00  0.00000000000E+00  0.45593999997E+02  0.45594000000E+02  0.51100000000E-03 0. -1.
         11   -1    0    0    0    0 -0.00000000000E+00 -0.00000000000E+00 -0.45593999997E+02  0.45594000000E+02  0.51100000000E-03 0.  1.
    9900012    2    1    2    0    0  0.83265731851E+01  0.86486334819E+01  0.14371672324E+02  0.72461664333E+02  0.70000122503E+02 0.  0.
        -12    1    1    2    0    0 -0.83265731851E+01 -0.86486334819E+01 -0.14371672324E+02  0.18726335667E+02  0.00000000000E+00 0.  1.
         11    1    3    3    0    0  0.16225855009E+01  0.21262637827E+02  0.34989786641E+02  0.40975818729E+02  0.51100000000E-03 0. -1.
        -11    1    3    3    0    0  0.20086430696E+01 -0.38596688294E+01 -0.21096304116E+02  0.21540328179E+02  0.51100000000E-03 0.  1.
         12    1    3    3    0    0  0.46953446146E+01 -0.87543355157E+01  0.47818979896E+00  0.99455174252E+01  0.00000000000E+00 0. -1.
</event>
<event>
 7    1  0.1905073E-013  0.7246157E+02  0.7816164E-02  0.1226708E+00
        -11   -1    0    0    0    0  0.00000000000E+00  0.00000000000E+00  0.45593999997E+02  0.45594000000E+02  0.51100000000E-03 0. -1.
         11   -1    0    0    0    0 -0.00000000000E+00 -0.00000000000E+00 -0.45593999997E+02  0.45594000000E+02  0.51100000000E-03 0.  1.
    9900012    2    1    2    0    0  0.10157185797E+02  0.26538333990E+01  0.15507031041E+02  0.72461567699E+02  0.69999996619E+02 0.  0.
        -12    1    1    2    0    0 -0.10157185797E+02 -0.26538333990E+01 -0.15507031041E+02  0.18726432301E+02  0.00000000000E+00 0.  1.
         11    1    3    3    0    0 -0.91420382041E+01  0.11825262021E+02  0.22217593235E+02  0.26777511718E+02  0.51100000000E-03 0. -1.
        -11    1    3    3    0    0  0.25500336854E+02  0.29036785030E+01  0.67806698476E+01  0.26545734354E+02  0.51100000000E-03 0.  1.
         12    1    3    3    0    0 -0.62011128533E+01 -0.12075107125E+02 -0.13491232041E+02  0.19138321627E+02  0.00000000000E+00 0. -1.
</event>
<event>
 7    1  0.1905073E-013  0.7246157E+02  0.7816164E-02  0.1226708E+00
        -11   -1    0    0    0    0  0.00000000000E+00  0.00000000000E+00  0.45593999997E+02  0.45594000000E+02  0.51100000000E-03 0.  1.
         11   -1    0    0    0    0 -0.00000000000E+00 -0.00000000000E+00 -0.45593999997E+02  0.45594000000E+02  0.51100000000E-03 0. -1.
    9900012    2    1    2    0    0  0.13972854956E+02  0.12279945771E+02  0.21544120079E+01  0.72461568549E+02  0.69999997727E+02 0.  0.
        -12    1    1    2    0    0 -0.13972854956E+02 -0.12279945771E+02 -0.21544120079E+01  0.18726431451E+02  0.00000000000E+00 0.  1.
         11    1    3    3    0    0  0.97650449929E+01 -0.98240486569E+01 -0.24920284391E+02  0.28511201485E+02  0.51100000000E-03 0. -1.
        -11    1    3    3    0    0 -0.36815234310E+00  0.25779896612E+02  0.13372969341E+02  0.29044361152E+02  0.51100000000E-03 0.  1.
         12    1    3    3    0    0  0.45759623067E+01 -0.36759021845E+01  0.13701727057E+02  0.14906005912E+02  0.00000000000E+00 0. -1.
</event>
<event>
 7    1  0.1905073E-013  0.7246159E+02  0.7816164E-02  0.1226708E+00
        -11   -1    0    0    0    0  0.00000000000E+00  0.00000000000E+00  0.45593999997E+02  0.45594000000E+02  0.51100000000E-03 0.  1.
         11   -1    0    0    0    0 -0.00000000000E+00 -0.00000000000E+00 -0.45593999997E+02  0.45594000000E+02  0.51100000000E-03 0. -1.
    9900012    2    1    2    0    0  0.32711099410E-02  0.11613417029E+02 -0.14690369191E+02  0.72461590501E+02  0.70000026322E+02 0.  0.
        -12    1    1    2    0    0 -0.32711099410E-02 -0.11613417029E+02  0.14690369191E+02  0.18726409499E+02  0.00000000000E+00 0.  1.
         11    1    3    3    0    0  0.57835800534E+01  0.22591116368E+02 -0.19286225793E+02  0.30261639787E+02  0.51100000000E-03 0. -1.
        -11    1    3    3    0    0 -0.13229760480E+02 -0.99098397082E+01  0.19463935965E+02  0.25535784478E+02  0.51100000000E-03 0.  1.
        -12    1    3    3    0    0  0.74494515365E+01 -0.10678596313E+01 -0.14868079363E+02  0.16664166235E+02  0.00000000000E+00 0.  1.
</event>
<event>
 7    1  0.1905073E-013  0.7246154E+02  0.7816164E-02  0.1226708E+00
        -11   -1    0    0    0    0  0.00000000000E+00  0.00000000000E+00  0.45593999997E+02  0.45594000000E+02  0.51100000000E-03 0. -1.
         11   -1    0    0    0    0 -0.00000000000E+00 -0.00000000000E+00 -0.45593999997E+02  0.45594000000E+02  0.51100000000E-03 0.  1.
    9900012    2    1    2    0    0 -0.62354025168E+01 -0.17577498003E+02 -0.16827370621E+01  0.72461540521E+02  0.69999961214E+02 0.  0.
        -12    1    1    2    0    0  0.62354025168E+01  0.17577498003E+02  0.16827370621E+01  0.18726459479E+02  0.00000000000E+00 0.  1.
         11    1    3    3    0    0  0.65676634560E+01 -0.26844896957E+01  0.50672713241E+01  0.87188260179E+01  0.51100000000E-03 0. -1.
        -11    1    3    3    0    0 -0.94113681880E+01  0.12838289804E+02 -0.25525222936E+02  0.30082096710E+02  0.51100000000E-03 0.  1.
        -12    1    3    3    0    0 -0.33916977848E+01 -0.27731298112E+02  0.18775214550E+02  0.33660617793E+02  0.00000000000E+00 0.  1.
</event>
<event>
 7    1  0.1905073E-013  0.7246155E+02  0.7816164E-02  0.1226708E+00
        -11   -1    0    0    0    0  0.00000000000E+00  0.00000000000E+00  0.45593999997E+02  0.45594000000E+02  0.51100000000E-03 0.  1.
         11   -1    0    0    0    0 -0.00000000000E+00 -0.00000000000E+00 -0.45593999997E+02  0.45594000000E+02  0.51100000000E-03 0. -1.
    9900012    2    1    2    0    0 -0.32287776256E+01  0.14991185454E+02 -0.10747983951E+02  0.72461553319E+02  0.69999977887E+02 0.  0.
        -12    1    1    2    0    0  0.32287776256E+01 -0.14991185454E+02  0.10747983951E+02  0.18726446681E+02  0.00000000000E+00 0.  1.
         11    1    3    3    0    0  0.10378689258E+02 -0.23777392345E+02 -0.13214716194E+02  0.29115464994E+02  0.51100000000E-03 0. -1.
        -11    1    3    3    0    0 -0.75324340083E+01  0.28502814704E+02  0.74663848944E+01  0.30412084963E+02  0.51100000000E-03 0.  1.
         12    1    3    3    0    0 -0.60750328751E+01  0.10265763095E+02 -0.49996526510E+01  0.12934003363E+02  0.00000000000E+00 0. -1.
</event>
<event>
 7    1  0.1905073E-013  0.7246138E+02  0.7816164E-02  0.1226709E+00
        -11   -1    0    0    0    0  0.00000000000E+00  0.00000000000E+00  0.45593999997E+02  0.45594000000E+02  0.51100000000E-03 0.  1.
         11   -1    0    0    0    0 -0.00000000000E+00 -0.00000000000E+00 -0.45593999997E+02  0.45594000000E+02  0.51100000000E-03 0. -1.
    9900012    2    1    2    0    0 -0.16041867196E+01  0.67493147162E+01 -0.17394243742E+02  0.72461377786E+02  0.69999749222E+02 0.  0.
        -12    1    1    2    0    0  0.16041867196E+01 -0.67493147162E+01  0.17394243742E+02  0.18726622214E+02  0.00000000000E+00 0.  1.
         11    1    3    3    0    0 -0.16056606229E+02 -0.35684284863E+00 -0.31485021692E+02  0.35344710093E+02  0.51100000000E-03 0. -1.
        -11    1    3    3    0    0  0.11919595224E+02  0.96417642654E+01 -0.61812884814E+01  0.16530235812E+02  0.51100000000E-03 0.  1.
         12    1    3    3    0    0  0.25328242850E+01 -0.25356067006E+01  0.20272066431E+02  0.20586431881E+02  0.00000000000E+00 0. -1.
</event>
<event>
 7    1  0.1905073E-013  0.7246163E+02  0.7816164E-02  0.1226708E+00
        -11   -1    0    0    0    0  0.00000000000E+00  0.00000000000E+00  0.45593999997E+02  0.45594000000E+02  0.51100000000E-03 0.  1.
         11   -1    0    0    0    0 -0.00000000000E+00 -0.00000000000E+00 -0.45593999997E+02  0.45594000000E+02  0.51100000000E-03 0. -1.
    9900012    2    1    2    0    0  0.80388404576E+01 -0.16840073145E+02 -0.15703392870E+01  0.72461628624E+02  0.70000075985E+02 0.  0.
        -12    1    1    2    0    0 -0.80388404576E+01  0.16840073145E+02  0.15703392870E+01  0.18726371376E+02  0.00000000000E+00 0.  1.
         11    1    3    3    0    0  0.18626716949E+02 -0.21777195932E+02 -0.13373642578E+02  0.31623648794E+02  0.51100000000E-03 0. -1.
        -11    1    3    3    0    0 -0.12041972056E+02  0.40295877033E+01 -0.11703356835E+02  0.17268909332E+02  0.51100000000E-03 0.  1.
        -12    1    3    3    0    0  0.14540955647E+01  0.90753508346E+00  0.23506660126E+02  0.23569070497E+02  0.00000000000E+00 0.  1.
</event>
<event>
 7    1  0.1905073E-013  0.7246155E+02  0.7816164E-02  0.1226708E+00
        -11   -1    0    0    0    0  0.00000000000E+00  0.00000000000E+00  0.45593999997E+02  0.45594000000E+02  0.51100000000E-03 0. -1.
         11   -1    0    0    0    0 -0.00000000000E+00 -0.00000000000E+00 -0.45593999997E+02  0.45594000000E+02  0.51100000000E-03 0.  1.
    9900012    2    1    2    0    0 -0.78866880276E+01  0.16984546985E+02  0.73303263204E-01  0.72461546580E+02  0.69999969107E+02 0.  0.
        -12    1    1    2    0    0  0.78866880276E+01 -0.16984546985E+02 -0.73303263204E-01  0.18726453420E+02  0.00000000000E+00 0.  1.
         11    1    3    3    0    0  0.10828815744E+02  0.33838285766E+02 -0.14773158613E+02  0.38477773450E+02  0.51100000000E-03 0. -1.
        -11    1    3    3    0    0 -0.16531139774E+02 -0.47891452394E+01  0.13034975434E+02  0.21589930041E+02  0.51100000000E-03 0.  1.
        -12    1    3    3    0    0 -0.21843639980E+01 -0.12064593541E+02  0.18114864423E+01  0.12393843089E+02  0.00000000000E+00 0.  1.
</event>
<event>
 7    1  0.1905073E-013  0.7246162E+02  0.7816164E-02  0.1226708E+00
        -11   -1    0    0    0    0  0.00000000000E+00  0.00000000000E+00  0.45593999997E+02  0.45594000000E+02  0.51100000000E-03 0.  1.
         11   -1    0    0    0    0 -0.00000000000E+00 -0.00000000000E+00 -0.45593999997E+02  0.45594000000E+02  0.51100000000E-03 0. -1.
    9900012    2    1    2    0    0  0.95894916205E+01  0.14738832909E+02  0.64409353509E+01  0.72461623061E+02  0.70000068738E+02 0.  0.
        -12    1    1    2    0    0 -0.95894916205E+01 -0.14738832909E+02 -0.64409353509E+01  0.18726376939E+02  0.00000000000E+00 0.  1.
         11    1    3    3    0    0 -0.21624163160E+01  0.11444158817E+02 -0.13583513802E+02  0.17892922143E+02  0.51100000000E-03 0. -1.
        -11    1    3    3    0    0  0.23406513966E+02 -0.54602075552E+01  0.28833298473E+02  0.37537153111E+02  0.51100000000E-03 0.  1.
        -12    1    3    3    0    0 -0.11654606029E+02  0.87548816475E+01 -0.88088493201E+01  0.17031547807E+02  0.00000000000E+00 0.  1.
</event>
<event>
 7    1  0.1905073E-013  0.7246157E+02  0.7816164E-02  0.1226708E+00
        -11   -1    0    0    0    0  0.00000000000E+00  0.00000000000E+00  0.45593999997E+02  0.45594000000E+02  0.51100000000E-03 0. -1.
         11   -1    0    0    0    0 -0.00000000000E+00 -0.00000000000E+00 -0.45593999997E+02  0.45594000000E+02  0.51100000000E-03 0.  1.
    9900012    2    1    2    0    0  0.15310384270E+02 -0.86226374364E+01 -0.64746884205E+01  0.72461565929E+02  0.69999994314E+02 0.  0.
        -12    1    1    2    0    0 -0.15310384270E+02  0.86226374364E+01  0.64746884205E+01  0.18726434071E+02  0.00000000000E+00 0.  1.
         11    1    3    3    0    0 -0.22984783448E+02  0.40474267284E+01 -0.58785719689E+01  0.24067395828E+02  0.51100000000E-03 0. -1.
        -11    1    3    3    0    0  0.31996947842E+02  0.15586959903E+01 -0.45056101394E+01  0.32350188985E+02  0.51100000000E-03 0.  1.
         12    1    3    3    0    0  0.62982198769E+01 -0.14228760155E+02  0.39094936878E+01  0.16043981116E+02  0.00000000000E+00 0. -1.
</event>
<event>
 7    1  0.1905073E-013  0.7246157E+02  0.7816164E-02  0.1226708E+00
        -11   -1    0    0    0    0  0.00000000000E+00  0.00000000000E+00  0.45593999997E+02  0.45594000000E+02  0.51100000000E-03 0.  1.
         11   -1    0    0    0    0 -0.00000000000E+00 -0.00000000000E+00 -0.45593999997E+02  0.45594000000E+02  0.51100000000E-03 0. -1.
    9900012    2    1    2    0    0 -0.16525273829E+02 -0.86794774485E+01 -0.15037206741E+01  0.72461570020E+02  0.69999999643E+02 0.  0.
        -12    1    1    2    0    0  0.16525273829E+02  0.86794774485E+01  0.15037206741E+01  0.18726429980E+02  0.00000000000E+00 0.  1.
         11    1    3    3    0    0  0.10583938839E+02  0.74639336037E+01 -0.19205938255E+02  0.23164587859E+02  0.51100000000E-03 0. -1.
        -11    1    3    3    0    0 -0.14249535066E+02  0.92131490394E+01  0.10547337794E+02  0.19979431915E+02  0.51100000000E-03 0.  1.
        -12    1    3    3    0    0 -0.12859677602E+02 -0.25356560092E+02  0.71548797867E+01  0.29317550247E+02  0.00000000000E+00 0.  1.
</event>
<event>
 7    1  0.1905073E-013  0.7246166E+02  0.7816164E-02  0.1226708E+00
        -11   -1    0    0    0    0  0.00000000000E+00  0.00000000000E+00  0.45593999997E+02  0.45594000000E+02  0.51100000000E-03 0. -1.
         11   -1    0    0    0    0 -0.00000000000E+00 -0.00000000000E+00 -0.45593999997E+02  0.45594000000E+02  0.51100000000E-03 0.  1.
    9900012    2    1    2    0    0  0.36678818969E+01 -0.14788655754E+02 -0.10886609070E+02  0.72461656159E+02  0.70000111854E+02 0.  0.
        -12    1    1    2    0    0 -0.36678818969E+01  0.14788655754E+02  0.10886609070E+02  0.18726343841E+02  0.00000000000E+00 0.  1.
         11    1    3    3    0    0  0.21099172644E+02 -0.71216795666E+01  0.17016820564E+02  0.28026159003E+02  0.51100000000E-03 0. -1.
        -11    1    3    3    0    0  0.11882474094E+00 -0.10809523661E+02 -0.23800187115E+02  0.26140176512E+02  0.51100000000E-03 0.  1.
         12    1    3    3    0    0 -0.17550115488E+02  0.31425474733E+01 -0.41032425185E+01  0.18295320643E+02  0.00000000000E+00 0. -1.
</event>
<event>
 7    1  0.1905073E-013  0.7246155E+02  0.7816164E-02  0.1226708E+00
        -11   -1    0    0    0    0  0.00000000000E+00  0.00000000000E+00  0.45593999997E+02  0.45594000000E+02  0.51100000000E-03 0. -1.
         11   -1    0    0    0    0 -0.00000000000E+00 -0.00000000000E+00 -0.45593999997E+02  0.45594000000E+02  0.51100000000E-03 0.  1.
    9900012    2    1    2    0    0  0.18595548932E+02 -0.21858309155E+01  0.32825517734E+00  0.72461546830E+02  0.69999969433E+02 0.  0.
        -12    1    1    2    0    0 -0.18595548932E+02  0.21858309155E+01 -0.32825517734E+00  0.18726453170E+02  0.00000000000E+00 0.  1.
         11    1    3    3    0    0  0.10514611515E+02  0.29160669421E+02  0.12896188765E+02  0.33573998590E+02  0.51100000000E-03 0. -1.
        -11    1    3    3    0    0  0.18168782838E+00 -0.15504639173E+02 -0.14310192452E+02  0.21099963379E+02  0.51100000000E-03 0.  1.
         12    1    3    3    0    0  0.78992495884E+01 -0.15841861164E+02  0.17422588638E+01  0.17787584860E+02  0.00000000000E+00 0. -1.
</event>
<event>
 7    1  0.1905073E-013  0.7246164E+02  0.7816164E-02  0.1226708E+00
        -11   -1    0    0    0    0  0.00000000000E+00  0.00000000000E+00  0.45593999997E+02  0.45594000000E+02  0.51100000000E-03 0.  1.
         11   -1    0    0    0    0 -0.00000000000E+00 -0.00000000000E+00 -0.45593999997E+02  0.45594000000E+02  0.51100000000E-03 0. -1.
    9900012    2    1    2    0    0  0.55570056170E+01  0.14534346989E+02 -0.10418690096E+02  0.72461637376E+02  0.70000087386E+02 0.  0.
        -12    1    1    2    0    0 -0.55570056170E+01 -0.14534346989E+02  0.10418690096E+02  0.18726362624E+02  0.00000000000E+00 0.  1.
         11    1    3    3    0    0 -0.97602116726E+01 -0.91838090277E+01 -0.10346907978E+01  0.13441527646E+02  0.51100000000E-03 0. -1.
        -11    1    3    3    0    0  0.18591579325E+02  0.38603665093E+02 -0.89528245385E+01  0.43772626696E+02  0.51100000000E-03 0.  1.
        -12    1    3    3    0    0 -0.32743620353E+01 -0.14885509076E+02 -0.43117475944E+00  0.15247483034E+02  0.00000000000E+00 0.  1.
</event>
<event>
 7    1  0.1905073E-013  0.7246156E+02  0.7816164E-02  0.1226708E+00
        -11   -1    0    0    0    0  0.00000000000E+00  0.00000000000E+00  0.45593999997E+02  0.45594000000E+02  0.51100000000E-03 0.  1.
         11   -1    0    0    0    0 -0.00000000000E+00 -0.00000000000E+00 -0.45593999997E+02  0.45594000000E+02  0.51100000000E-03 0. -1.
    9900012    2    1    2    0    0  0.14671648130E+02  0.34196640085E+01 -0.11123310373E+02  0.72461564289E+02  0.69999992177E+02 0.  0.
        -12    1    1    2    0    0 -0.14671648130E+02 -0.34196640085E+01  0.11123310373E+02  0.18726435711E+02  0.00000000000E+00 0.  1.
         11    1    3    3    0    0 -0.13191488840E+02 -0.11513850275E+02 -0.20953556655E+02  0.27306330085E+02  0.51100000000E-03 0. -1.
        -11    1    3    3    0    0  0.76598966481E+01  0.26881283188E+01  0.18330775191E+02  0.20047876942E+02  0.51100000000E-03 0.  1.
         12    1    3    3    0    0  0.20203240322E+02  0.12245385965E+02 -0.85005289089E+01  0.25107357261E+02  0.00000000000E+00 0. -1.
</event>
<event>
 7    1  0.1905073E-013  0.7246161E+02  0.7816164E-02  0.1226708E+00
        -11   -1    0    0    0    0  0.00000000000E+00  0.00000000000E+00  0.45593999997E+02  0.45594000000E+02  0.51100000000E-03 0. -1.
         11   -1    0    0    0    0 -0.00000000000E+00 -0.00000000000E+00 -0.45593999997E+02  0.45594000000E+02  0.51100000000E-03 0.  1.
    9900012    2    1    2    0    0 -0.56511280134E+01  0.13360627726E+02  0.11842123824E+02  0.72461614398E+02  0.70000057453E+02 0.  0.
        -12    1    1    2    0    0  0.56511280134E+01 -0.13360627726E+02 -0.11842123824E+02  0.18726385602E+02  0.00000000000E+00 0.  1.
         11    1    3    3    0    0  0.56869260293E+01  0.38837480675E+02  0.14853396560E+02  0.41968016661E+02  0.51100000000E-03 0. -1.
        -11    1    3    3    0    0 -0.42269413033E+00 -0.96319098110E+01 -0.54885792022E+01  0.11094001030E+02  0.51100000000E-03 0.  1.
         12    1    3    3    0    0 -0.10915359912E+02 -0.15844943138E+02  0.24773064665E+01  0.19399596707E+02  0.00000000000E+00 0. -1.
</event>
<event>
 7    1  0.1905073E-013  0.7246164E+02  0.7816164E-02  0.1226708E+00
        -11   -1    0    0    0    0  0.00000000000E+00  0.00000000000E+00  0.45593999997E+02  0.45594000000E+02  0.51100000000E-03 0.  1.
         11   -1    0    0    0    0 -0.00000000000E+00 -0.00000000000E+00 -0.45593999997E+02  0.45594000000E+02  0.51100000000E-03 0. -1.
    9900012    2    1    2    0    0  0.71247881527E+01 -0.16338299954E+02  0.57422977207E+01  0.72461637974E+02  0.70000088166E+02 0.  0.
        -12    1    1    2    0    0 -0.71247881527E+01  0.16338299954E+02 -0.57422977207E+01  0.18726362026E+02  0.00000000000E+00 0.  1.
         11    1    3    3    0    0  0.66079096383E+01  0.16332680633E+02 -0.89642630804E+01  0.19768129382E+02  0.51100000000E-03 0. -1.
        -11    1    3    3    0    0  0.17457211820E+02 -0.24926593469E+02  0.27413718966E+01  0.30554941117E+02  0.51100000000E-03 0.  1.
        -12    1    3    3    0    0 -0.16940333306E+02 -0.77443871175E+01  0.11965188904E+02  0.22138567475E+02  0.00000000000E+00 0.  1.
</event>
<event>
 7    1  0.1905073E-013  0.7246157E+02  0.7816164E-02  0.1226708E+00
        -11   -1    0    0    0    0  0.00000000000E+00  0.00000000000E+00  0.45593999997E+02  0.45594000000E+02  0.51100000000E-03 0.  1.
         11   -1    0    0    0    0 -0.00000000000E+00 -0.00000000000E+00 -0.45593999997E+02  0.45594000000E+02  0.51100000000E-03 0. -1.
    9900012    2    1    2    0    0 -0.22085887002E+01  0.56318705911E+01 -0.17722392427E+02  0.72461574187E+02  0.70000005071E+02 0.  0.
        -12    1    1    2    0    0  0.22085887002E+01 -0.56318705911E+01  0.17722392427E+02  0.18726425813E+02  0.00000000000E+00 0.  1.
         11    1    3    3    0    0 -0.64106940624E+01  0.13678253235E+02  0.16445538647E+01  0.15195267934E+02  0.51100000000E-03 0. -1.
        -11    1    3    3    0    0 -0.14363217486E+02 -0.22939609486E+02 -0.19679262898E+02  0.33463429119E+02  0.51100000000E-03 0.  1.
        -12    1    3    3    0    0  0.18565322848E+02  0.14893226842E+02  0.31231660703E+00  0.23802877134E+02  0.00000000000E+00 0.  1.
</event>
<event>
 7    1  0.1905073E-013  0.7246160E+02  0.7816164E-02  0.1226708E+00
        -11   -1    0    0    0    0  0.00000000000E+00  0.00000000000E+00  0.45593999997E+02  0.45594000000E+02  0.51100000000E-03 0.  1.
         11   -1    0    0    0    0 -0.00000000000E+00 -0.00000000000E+00 -0.45593999997E+02  0.45594000000E+02  0.51100000000E-03 0. -1.
    9900012    2    1    2    0    0 -0.10671856551E+02  0.53850885746E+01 -0.14414935713E+02  0.72461599577E+02  0.70000038146E+02 0.  0.
        -12    1    1    2    0    0  0.10671856551E+02 -0.53850885746E+01  0.14414935713E+02  0.18726400423E+02  0.00000000000E+00 0.  1.
         11    1    3    3    0    0  0.21406993289E+01  0.16311338389E+02  0.71712421824E+01  0.17946282857E+02  0.51100000000E-03 0. -1.
        -11    1    3    3    0    0  0.61917707194E+01 -0.25416397921E+02 -0.11069652003E+02  0.28405430883E+02  0.51100000000E-03 0.  1.
        -12    1    3    3    0    0 -0.19004326599E+02  0.14490148106E+02 -0.10516525892E+02  0.26109885837E+02  0.00000000000E+00 0.  1.
</event>
<event>
 7    1  0.1905073E-013  0.7246155E+02  0.7816164E-02  0.1226708E+00
        -11   -1    0    0    0    0  0.00000000000E+00  0.00000000000E+00  0.45593999997E+02  0.45594000000E+02  0.51100000000E-03 0. -1.
         11   -1    0    0    0    0 -0.00000000000E+00 -0.00000000000E+00 -0.45593999997E+02  0.45594000000E+02  0.51100000000E-03 0.  1.
    9900012    2    1    2    0    0 -0.21535099345E+01 -0.14489933152E+02  0.11665514777E+02  0.72461548046E+02  0.69999971017E+02 0.  0.
        -12    1    1    2    0    0  0.21535099345E+01  0.14489933152E+02 -0.11665514777E+02  0.18726451954E+02  0.00000000000E+00 0.  1.
         11    1    3    3    0    0  0.25916953008E+02 -0.47936203473E+01  0.83219500251E+00  0.26369675729E+02  0.51100000000E-03 0.  1.
        -11    1    3    3    0    0 -0.28314944163E+02  0.44252586140E+01  0.62546335690E+00  0.28665487637E+02  0.51100000000E-03 0. -1.
         12    1    3    3    0    0  0.24448122095E+00 -0.14121571419E+02  0.10207856417E+02  0.17426384680E+02  0.00000000000E+00 0. -1.
</event>
<event>
 7    1  0.1905073E-013  0.7246159E+02  0.7816164E-02  0.1226708E+00
        -11   -1    0    0    0    0  0.00000000000E+00  0.00000000000E+00  0.45593999997E+02  0.45594000000E+02  0.51100000000E-03 0.  1.
         11   -1    0    0    0    0 -0.00000000000E+00 -0.00000000000E+00 -0.45593999997E+02  0.45594000000E+02  0.51100000000E-03 0. -1.
    9900012    2    1    2    0    0 -0.15721543879E+02 -0.89684433952E+01 -0.48040013287E+01  0.72461592239E+02  0.70000028587E+02 0.  0.
        -12    1    1    2    0    0  0.15721543879E+02  0.89684433952E+01  0.48040013287E+01  0.18726407761E+02  0.00000000000E+00 0.  1.
         11    1    3    3    0    0 -0.18970598234E+02 -0.54138453273E+01  0.28568626847E+02  0.34718291415E+02  0.51100000000E-03 0. -1.
        -11    1    3    3    0    0  0.80407751027E+01 -0.72465546923E+01 -0.15746550045E+02  0.19108125438E+02  0.51100000000E-03 0.  1.
         12    1    3    3    0    0 -0.47917207469E+01  0.36919566244E+01 -0.17626078130E+02  0.18635175387E+02  0.00000000000E+00 0. -1.
</event>
<event>
 7    1  0.1905073E-013  0.7246154E+02  0.7816164E-02  0.1226708E+00
        -11   -1    0    0    0    0  0.00000000000E+00  0.00000000000E+00  0.45593999997E+02  0.45594000000E+02  0.51100000000E-03 0.  1.
         11   -1    0    0    0    0 -0.00000000000E+00 -0.00000000000E+00 -0.45593999997E+02  0.45594000000E+02  0.51100000000E-03 0. -1.
    9900012    2    1    2    0    0 -0.42840275885E+01 -0.13979725804E+01 -0.18176169991E+02  0.72461538101E+02  0.69999958062E+02 0.  0.
        -12    1    1    2    0    0  0.42840275885E+01  0.13979725804E+01  0.18176169991E+02  0.18726461899E+02  0.00000000000E+00 0.  1.
         11    1    3    3    0    0 -0.92451041692E+01  0.31313467262E+01 -0.54352930333E+01  0.11172273450E+02  0.51100000000E-03 0. -1.
        -11    1    3    3    0    0  0.29536903044E+02  0.84493885022E+01 -0.13333962108E+02  0.33490526321E+02  0.51100000000E-03 0.  1.
        -12    1    3    3    0    0 -0.24575826463E+02 -0.12978707809E+02  0.59308514962E+00  0.27798738330E+02  0.00000000000E+00 0.  1.
</event>
<event>
 7    1  0.1905073E-013  0.7246180E+02  0.7816164E-02  0.1226707E+00
        -11   -1    0    0    0    0  0.00000000000E+00  0.00000000000E+00  0.45593999997E+02  0.45594000000E+02  0.51100000000E-03 0. -1.
         11   -1    0    0    0    0 -0.00000000000E+00 -0.00000000000E+00 -0.45593999997E+02  0.45594000000E+02  0.51100000000E-03 0.  1.
    9900012    2    1    2    0    0 -0.59982066097E+01  0.10697531034E+02  0.14151145964E+02  0.72461799508E+02  0.70000298593E+02 0.  0.
        -12    1    1    2    0    0  0.59982066097E+01 -0.10697531034E+02 -0.14151145964E+02  0.18726200492E+02  0.00000000000E+00 0.  1.
         11    1    3    3    0    0  0.17930017319E+02 -0.17513830334E+02  0.17448255306E+02  0.30539505358E+02  0.51100000000E-03 0. -1.
        -11    1    3    3    0    0 -0.22973951073E+02  0.30430984937E+02 -0.56549175885E+01  0.38546405349E+02  0.51100000000E-03 0.  1.
         12    1    3    3    0    0 -0.95427285519E+00 -0.22196235690E+01  0.23578082470E+01  0.33758888014E+01  0.00000000000E+00 0. -1.
</event>
<event>
 7    1  0.2003118E-013  0.7246158E+02  0.7816164E-02  0.1226708E+00
        -11   -1    0    0    0    0  0.00000000000E+00  0.00000000000E+00  0.45593999997E+02  0.45594000000E+02  0.51100000000E-03 0. -1.
         11   -1    0    0    0    0 -0.00000000000E+00 -0.00000000000E+00 -0.45593999997E+02  0.45594000000E+02  0.51100000000E-03 0.  1.
    9900012    2    1    2    0    0 -0.14871973814E+02  0.45563836486E+01  0.10427975297E+02  0.72461577334E+02  0.70000009171E+02 0.  0.
        -12    1    1    2    0    0  0.14871973814E+02 -0.45563836486E+01 -0.10427975297E+02  0.18726422666E+02  0.00000000000E+00 0.  1.
         11    1    3    3    0    0 -0.26645496835E+02  0.81319730556E+01  0.28041907794E+02  0.39527965801E+02  0.51100000000E-03 0. -1.
        -11    1    3    3    0    0  0.24124101768E+01 -0.13637003995E+02 -0.66998666802E+01  0.15384271664E+02  0.51100000000E-03 0.  1.
         12    1    3    3    0    0  0.93611128444E+01  0.10061414588E+02 -0.10914065817E+02  0.17549339870E+02  0.00000000000E+00 0. -1.
</event>
<event>
 7    1  0.1905073E-013  0.7246159E+02  0.7816164E-02  0.1226708E+00
        -11   -1    0    0    0    0  0.00000000000E+00  0.00000000000E+00  0.45593999997E+02  0.45594000000E+02  0.51100000000E-03 0.  1.
         11   -1    0    0    0    0 -0.00000000000E+00 -0.00000000000E+00 -0.45593999997E+02  0.45594000000E+02  0.51100000000E-03 0. -1.
    9900012    2    1    2    0    0  0.20504449392E+01 -0.80245895014E+01 -0.16795234877E+02  0.72461594160E+02  0.70000031090E+02 0.  0.
        -12    1    1    2    0    0 -0.20504449392E+01  0.80245895014E+01  0.16795234877E+02  0.18726405840E+02  0.00000000000E+00 0.  1.
         11    1    3    3    0    0  0.18831897286E+02  0.90221266684E+00  0.11904608580E+01  0.18891043920E+02  0.51100000000E-03 0. -1.
        -11    1    3    3    0    0 -0.81943546429E+01 -0.12609339940E+02 -0.32784555953E+02  0.36068961879E+02  0.51100000000E-03 0.  1.
        -12    1    3    3    0    0 -0.85870977038E+01  0.36825377715E+01  0.14798860218E+02  0.17501588361E+02  0.00000000000E+00 0.  1.
</event>
<event>
 7    1  0.1905073E-013  0.7246159E+02  0.7816164E-02  0.1226708E+00
        -11   -1    0    0    0    0  0.00000000000E+00  0.00000000000E+00  0.45593999997E+02  0.45594000000E+02  0.51100000000E-03 0.  1.
         11   -1    0    0    0    0 -0.00000000000E+00 -0.00000000000E+00 -0.45593999997E+02  0.45594000000E+02  0.51100000000E-03 0. -1.
    9900012    2    1    2    0    0  0.72361786548E+01  0.15422400877E+01 -0.17202843620E+02  0.72461585110E+02  0.70000019301E+02 0.  0.
        -12    1    1    2    0    0 -0.72361786548E+01 -0.15422400877E+01  0.17202843620E+02  0.18726414890E+02  0.00000000000E+00 0.  1.
         11    1    3    3    0    0  0.29064428915E+02  0.36137578376E+01 -0.28445628193E+02  0.40828348453E+02  0.51100000000E-03 0. -1.
        -11    1    3    3    0    0 -0.16410887810E+02 -0.70587115431E+01  0.15036169619E+02  0.23350140137E+02  0.51100000000E-03 0.  1.
         12    1    3    3    0    0 -0.54173624503E+01  0.49871937932E+01 -0.37933850459E+01  0.82830965197E+01  0.00000000000E+00 0. -1.
</event>
<event>
 7    1  0.1905073E-013  0.7246158E+02  0.7816164E-02  0.1226708E+00
        -11   -1    0    0    0    0  0.00000000000E+00  0.00000000000E+00  0.45593999997E+02  0.45594000000E+02  0.51100000000E-03 0.  1.
         11   -1    0    0    0    0 -0.00000000000E+00 -0.00000000000E+00 -0.45593999997E+02  0.45594000000E+02  0.51100000000E-03 0. -1.
    9900012    2    1    2    0    0  0.18606314030E+02 -0.46744167874E+00 -0.20652948406E+01  0.72461578391E+02  0.70000010547E+02 0.  0.
        -12    1    1    2    0    0 -0.18606314030E+02  0.46744167874E+00  0.20652948406E+01  0.18726421609E+02  0.00000000000E+00 0.  1.
         11    1    3    3    0    0  0.10552444213E+02 -0.25160912050E+02 -0.16347112216E+02  0.31806503299E+02  0.51100000000E-03 0. -1.
        -11    1    3    3    0    0  0.11186592784E+02  0.20932536686E+02 -0.18411577211E+01  0.23805478618E+02  0.51100000000E-03 0.  1.
        -12    1    3    3    0    0 -0.31327229665E+01  0.37609336855E+01  0.16122975096E+02  0.16849596474E+02  0.00000000000E+00 0.  1.
</event>
<event>
 7    1  0.1905073E-013  0.7246157E+02  0.7816164E-02  0.1226708E+00
        -11   -1    0    0    0    0  0.00000000000E+00  0.00000000000E+00  0.45593999997E+02  0.45594000000E+02  0.51100000000E-03 0.  1.
         11   -1    0    0    0    0 -0.00000000000E+00 -0.00000000000E+00 -0.45593999997E+02  0.45594000000E+02  0.51100000000E-03 0. -1.
    9900012    2    1    2    0    0  0.21481471930E+01  0.82545416419E+01 -0.16671147357E+02  0.72461570861E+02  0.70000000739E+02 0.  0.
        -12    1    1    2    0    0 -0.21481471930E+01 -0.82545416419E+01  0.16671147357E+02  0.18726429139E+02  0.00000000000E+00 0.  1.
         11    1    3    3    0    0  0.12367905245E+02 -0.35718430486E+01 -0.19067318544E+02  0.23006211762E+02  0.51100000000E-03 0. -1.
        -11    1    3    3    0    0 -0.18212144519E+02  0.26591833279E+02  0.44659712860E+01  0.32538480371E+02  0.51100000000E-03 0.  1.
        -12    1    3    3    0    0  0.79923864663E+01 -0.14765448588E+02 -0.20698000990E+01  0.16916878728E+02  0.00000000000E+00 0.  1.
</event>
<event>
 7    1  0.1905073E-013  0.7246157E+02  0.7816164E-02  0.1226708E+00
        -11   -1    0    0    0    0  0.00000000000E+00  0.00000000000E+00  0.45593999997E+02  0.45594000000E+02  0.51100000000E-03 0.  1.
         11   -1    0    0    0    0 -0.00000000000E+00 -0.00000000000E+00 -0.45593999997E+02  0.45594000000E+02  0.51100000000E-03 0. -1.
    9900012    2    1    2    0    0 -0.10292531920E+02  0.17053572262E+00 -0.15643335857E+02  0.72461568078E+02  0.69999997113E+02 0.  0.
        -12    1    1    2    0    0  0.10292531920E+02 -0.17053572262E+00  0.15643335857E+02  0.18726431922E+02  0.00000000000E+00 0.  1.
         11    1    3    3    0    0  0.12677370911E+02  0.22094770619E+02 -0.12403482073E+02  0.28332684125E+02  0.51100000000E-03 0. -1.
        -11    1    3    3    0    0 -0.51091568301E+01 -0.18155729905E+02  0.10217356971E+02  0.21450603619E+02  0.51100000000E-03 0.  1.
        -12    1    3    3    0    0 -0.17860746002E+02 -0.37685049911E+01 -0.13457210755E+02  0.22678280334E+02  0.00000000000E+00 0.  1.
</event>
<event>
 7    1  0.1905073E-013  0.7246146E+02  0.7816164E-02  0.1226708E+00
        -11   -1    0    0    0    0  0.00000000000E+00  0.00000000000E+00  0.45593999997E+02  0.45594000000E+02  0.51100000000E-03 0.  1.
         11   -1    0    0    0    0 -0.00000000000E+00 -0.00000000000E+00 -0.45593999997E+02  0.45594000000E+02  0.51100000000E-03 0. -1.
    9900012    2    1    2    0    0  0.76733282294E+01  0.15548229811E+02 -0.70750286370E+01  0.72461456096E+02  0.69999851236E+02 0.  0.
        -12    1    1    2    0    0 -0.76733282294E+01 -0.15548229811E+02  0.70750286370E+01  0.18726543904E+02  0.00000000000E+00 0.  1.
         11    1    3    3    0    0 -0.23813297692E+01 -0.97221514274E+01 -0.14145288963E+02  0.17328593710E+02  0.51100000000E-03 0. -1.
        -11    1    3    3    0    0  0.52130882375E+01  0.30351878701E+02  0.22527813018E+02  0.38156456718E+02  0.51100000000E-03 0.  1.
        -12    1    3    3    0    0  0.48415697611E+01 -0.50814974625E+01 -0.15457552692E+02  0.16976405669E+02  0.00000000000E+00 0.  1.
</event>
<event>
 7    1  0.1905073E-013  0.7246155E+02  0.7816164E-02  0.1226708E+00
        -11   -1    0    0    0    0  0.00000000000E+00  0.00000000000E+00  0.45593999997E+02  0.45594000000E+02  0.51100000000E-03 0. -1.
         11   -1    0    0    0    0 -0.00000000000E+00 -0.00000000000E+00 -0.45593999997E+02  0.45594000000E+02  0.51100000000E-03 0.  1.
    9900012    2    1    2    0    0  0.63766141509E-01 -0.12338782051E+02  0.14086533978E+02  0.72461546834E+02  0.69999969439E+02 0.  0.
        -12    1    1    2    0    0 -0.63766141509E-01  0.12338782051E+02 -0.14086533978E+02  0.18726453166E+02  0.00000000000E+00 0.  1.
         11    1    3    3    0    0  0.87806434679E+01  0.17434019326E+02 -0.19159659174E+01  0.19614169757E+02  0.51100000000E-03 0. -1.
        -11    1    3    3    0    0  0.12110980662E+02 -0.26672850467E+02  0.99537082616E+01  0.30938537668E+02  0.51100000000E-03 0.  1.
         12    1    3    3    0    0 -0.20827857989E+02 -0.30999509113E+01  0.60487916343E+01  0.21908839410E+02  0.00000000000E+00 0. -1.
</event>
<event>
 7    1  0.1905073E-013  0.7246167E+02  0.7816164E-02  0.1226708E+00
        -11   -1    0    0    0    0  0.00000000000E+00  0.00000000000E+00  0.45593999997E+02  0.45594000000E+02  0.51100000000E-03 0.  1.
         11   -1    0    0    0    0 -0.00000000000E+00 -0.00000000000E+00 -0.45593999997E+02  0.45594000000E+02  0.51100000000E-03 0. -1.
    9900012    2    1    2    0    0  0.90195963044E+01  0.15992566304E+02  0.36824104791E+01  0.72461669836E+02  0.70000129672E+02 0.  0.
        -12    1    1    2    0    0 -0.90195963044E+01 -0.15992566304E+02 -0.36824104791E+01  0.18726330164E+02  0.00000000000E+00 0.  1.
         11    1    3    3    0    0  0.12163522950E+02 -0.19585205168E+02 -0.87972474527E+01  0.24676367541E+02  0.51100000000E-03 0. -1.
        -11    1    3    3    0    0 -0.12205180822E+01  0.34770633908E+02 -0.34335443260E+00  0.34793742818E+02  0.51100000000E-03 0.  1.
        -12    1    3    3    0    0 -0.19234085637E+01  0.80713756351E+00  0.12823012364E+02  0.12991559477E+02  0.00000000000E+00 0.  1.
</event>
<event>
 7    1  0.1905073E-013  0.7246159E+02  0.7816164E-02  0.1226708E+00
        -11   -1    0    0    0    0  0.00000000000E+00  0.00000000000E+00  0.45593999997E+02  0.45594000000E+02  0.51100000000E-03 0. -1.
         11   -1    0    0    0    0 -0.00000000000E+00 -0.00000000000E+00 -0.45593999997E+02  0.45594000000E+02  0.51100000000E-03 0.  1.
    9900012    2    1    2    0    0  0.74641746150E+00  0.13020555517E+02 -0.13438243575E+02  0.72461590964E+02  0.70000026926E+02 0.  0.
        -12    1    1    2    0    0 -0.74641746150E+00 -0.13020555517E+02  0.13438243575E+02  0.18726409036E+02  0.00000000000E+00 0.  1.
         11    1    3    3    0    0 -0.17834867595E+02 -0.10579336571E+02  0.11876917029E+02  0.23896987735E+02  0.51100000000E-03 0. -1.
        -11    1    3    3    0    0  0.20259781795E+02  0.33728648054E+01 -0.85812882849E+01  0.22259233686E+02  0.51100000000E-03 0.  1.
        -12    1    3    3    0    0 -0.16784967387E+01  0.20227027283E+02 -0.16733872319E+02  0.26305369543E+02  0.00000000000E+00 0.  1.
</event>
<event>
 7    1  0.1905073E-013  0.7246157E+02  0.7816164E-02  0.1226708E+00
        -11   -1    0    0    0    0  0.00000000000E+00  0.00000000000E+00  0.45593999997E+02  0.45594000000E+02  0.51100000000E-03 0.  1.
         11   -1    0    0    0    0 -0.00000000000E+00 -0.00000000000E+00 -0.45593999997E+02  0.45594000000E+02  0.51100000000E-03 0. -1.
    9900012    2    1    2    0    0  0.48367700078E+01  0.18037471375E+02  0.13908877381E+01  0.72461567173E+02  0.69999995934E+02 0.  0.
        -12    1    1    2    0    0 -0.48367700078E+01 -0.18037471375E+02 -0.13908877381E+01  0.18726432827E+02  0.00000000000E+00 0.  1.
         11    1    3    3    0    0  0.15718304772E+01  0.85630549642E+01  0.27638018807E+02  0.28976829454E+02  0.51100000000E-03 0. -1.
        -11    1    3    3    0    0  0.12161713571E+02  0.18390333450E+02 -0.17518141625E+02  0.28160201129E+02  0.51100000000E-03 0.  1.
        -12    1    3    3    0    0 -0.88967740404E+01 -0.89159170396E+01 -0.87289894439E+01  0.15324536590E+02  0.00000000000E+00 0.  1.
</event>
<event>
 7    1  0.1905073E-013  0.7246159E+02  0.7816164E-02  0.1226708E+00
        -11   -1    0    0    0    0  0.00000000000E+00  0.00000000000E+00  0.45593999997E+02  0.45594000000E+02  0.51100000000E-03 0. -1.
         11   -1    0    0    0    0 -0.00000000000E+00 -0.00000000000E+00 -0.45593999997E+02  0.45594000000E+02  0.51100000000E-03 0.  1.
    9900012    2    1    2    0    0  0.35850615938E+01 -0.96691828138E+01  0.15631145330E+02  0.72461589046E+02  0.70000024427E+02 0.  0.
        -12    1    1    2    0    0 -0.35850615938E+01  0.96691828138E+01 -0.15631145330E+02  0.18726410954E+02  0.00000000000E+00 0.  1.
         11    1    3    3    0    0  0.81820652826E+01 -0.30541736302E+02  0.37611955937E+01  0.31841646333E+02  0.51100000000E-03 0. -1.
        -11    1    3    3    0    0 -0.74924934737E+01  0.46264547995E+01  0.20272050827E+02  0.22101981528E+02  0.51100000000E-03 0.  1.
         12    1    3    3    0    0  0.28954897850E+01  0.16246098688E+02 -0.84021010917E+01  0.18517961185E+02  0.00000000000E+00 0. -1.
</event>
<event>
 7    1  0.1905073E-013  0.7246148E+02  0.7816164E-02  0.1226708E+00
        -11   -1    0    0    0    0  0.00000000000E+00  0.00000000000E+00  0.45593999997E+02  0.45594000000E+02  0.51100000000E-03 0.  1.
         11   -1    0    0    0    0 -0.00000000000E+00 -0.00000000000E+00 -0.45593999997E+02  0.45594000000E+02  0.51100000000E-03 0. -1.
    9900012    2    1    2    0    0 -0.31483315051E+01 -0.43288756965E+01 -0.17945231835E+02  0.72461481325E+02  0.69999884101E+02 0.  0.
        -12    1    1    2    0    0  0.31483315051E+01  0.43288756965E+01  0.17945231835E+02  0.18726518675E+02  0.00000000000E+00 0.  1.
         11    1    3    3    0    0  0.12355571428E+01  0.26934232245E+02  0.66955739602E+01  0.27781471865E+02  0.51100000000E-03 0. -1.
        -11    1    3    3    0    0 -0.87141759584E+01 -0.88504838761E+01 -0.20950301199E+01  0.12595915169E+02  0.51100000000E-03 0.  1.
         12    1    3    3    0    0  0.43302873104E+01 -0.22412624065E+02 -0.22545775676E+02  0.32084094291E+02  0.00000000000E+00 0. -1.
</event>
<event>
 7    1  0.2489333E-013  0.7246178E+02  0.7816164E-02  0.1226707E+00
        -11   -1    0    0    0    0  0.00000000000E+00  0.00000000000E+00  0.45593999997E+02  0.45594000000E+02  0.51100000000E-03 0. -1.
         11   -1    0    0    0    0 -0.00000000000E+00 -0.00000000000E+00 -0.45593999997E+02  0.45594000000E+02  0.51100000000E-03 0.  1.
    9900012    2    1    2    0    0 -0.11044683281E+02 -0.65111529844E+01  0.13648857510E+02  0.72461776321E+02  0.70000268387E+02 0.  0.
        -12    1    1    2    0    0  0.11044683281E+02  0.65111529844E+01 -0.13648857510E+02  0.18726223679E+02  0.00000000000E+00 0.  1.
         11    1    3    3    0    0 -0.20886100745E+02 -0.28951918519E+02  0.99242993806E+01  0.37053130890E+02  0.51100000000E-03 0. -1.
        -11    1    3    3    0    0 -0.30496732464E+01  0.85573836326E+01 -0.88397781714E+01  0.12675606491E+02  0.51100000000E-03 0.  1.
         12    1    3    3    0    0  0.12891090711E+02  0.13883381902E+02  0.12564336301E+02  0.22733038939E+02  0.00000000000E+00 0. -1.
</event>
<event>
 8    1  0.1905073E-013  0.7246165E+02  0.7816164E-02  0.1226708E+00
        -11   -1    0    0    0    0  0.00000000000E+00  0.00000000000E+00  0.45593999997E+02  0.45594000000E+02  0.51100000000E-03 0. -1.
         11   -1    0    0    0    0 -0.00000000000E+00 -0.00000000000E+00 -0.45593999997E+02  0.45594000000E+02  0.51100000000E-03 0.  1.
    9900012    2    1    2    0    0 -0.19878863524E+01 -0.59099597807E+01  0.17657770224E+02  0.72461650488E+02  0.70000104467E+02 0.  0.
        -24    2    3    3    0    0  0.10734698750E+02 -0.36298923543E+01  0.26291628175E+02  0.56917957795E+02  0.49193437893E+02 0.  0.
        -12    1    1    2    0    0  0.19878863524E+01  0.59099597807E+01 -0.17657770224E+02  0.18726349512E+02  0.00000000000E+00 0.  1.
         11    1    4    4    0    0  0.30401844568E+02 -0.12235527693E+01  0.13178206251E+02  0.33157719384E+02  0.51100000000E-03 0. -1.
        -11    1    3    3    0    0 -0.12722585102E+02 -0.22800674264E+01 -0.86338579504E+01  0.15543692693E+02  0.51100000000E-03 0.  1.
        -12    1    4    4    0    0 -0.19667145818E+02 -0.24063395850E+01  0.13113421924E+02  0.23760238411E+02  0.00000000000E+00 0.  1.
</event>
<event>
 7    1  0.1905073E-013  0.7246159E+02  0.7816164E-02  0.1226708E+00
        -11   -1    0    0    0    0  0.00000000000E+00  0.00000000000E+00  0.45593999997E+02  0.45594000000E+02  0.51100000000E-03 0. -1.
         11   -1    0    0    0    0 -0.00000000000E+00 -0.00000000000E+00 -0.45593999997E+02  0.45594000000E+02  0.51100000000E-03 0.  1.
    9900012    2    1    2    0    0  0.13127654951E+02 -0.82053462823E+01  0.10536390049E+02  0.72461586905E+02  0.70000021639E+02 0.  0.
        -12    1    1    2    0    0 -0.13127654951E+02  0.82053462823E+01 -0.10536390049E+02  0.18726413095E+02  0.00000000000E+00 0.  1.
         11    1    3    3    0    0  0.30160349935E+02  0.99895571892E+01 -0.72838615869E+00  0.31780001694E+02  0.51100000000E-03 0. -1.
        -11    1    3    3    0    0 -0.90681458688E+01 -0.21926509115E+02 -0.30067928775E+01  0.23917438724E+02  0.51100000000E-03 0.  1.
        -12    1    3    3    0    0 -0.79645491148E+01  0.37316056431E+01  0.14271569086E+02  0.16764146487E+02  0.00000000000E+00 0.  1.
</event>
<event>
 7    1  0.1905073E-013  0.7246181E+02  0.7816164E-02  0.1226707E+00
        -11   -1    0    0    0    0  0.00000000000E+00  0.00000000000E+00  0.45593999997E+02  0.45594000000E+02  0.51100000000E-03 0.  1.
         11   -1    0    0    0    0 -0.00000000000E+00 -0.00000000000E+00 -0.45593999997E+02  0.45594000000E+02  0.51100000000E-03 0. -1.
    9900012    2    1    2    0    0 -0.16210924025E+02 -0.57175827396E+01 -0.74286769596E+01  0.72461813749E+02  0.70000317144E+02 0.  0.
        -12    1    1    2    0    0  0.16210924025E+02  0.57175827396E+01  0.74286769596E+01  0.18726186251E+02  0.00000000000E+00 0.  1.
         11    1    3    3    0    0  0.42957433786E+01 -0.19316599306E+02  0.80779076995E+00  0.19804972763E+02  0.51100000000E-03 0.  1.
        -11    1    3    3    0    0 -0.25695781839E+01  0.15270976267E+02 -0.24104376307E+02  0.28650068160E+02  0.51100000000E-03 0. -1.
        -12    1    3    3    0    0 -0.17937089220E+02 -0.16719597000E+01  0.15867908577E+02  0.24006772826E+02  0.00000000000E+00 0.  1.
</event>
<event>
 7    1  0.1905073E-013  0.7246156E+02  0.7816164E-02  0.1226708E+00
        -11   -1    0    0    0    0  0.00000000000E+00  0.00000000000E+00  0.45593999997E+02  0.45594000000E+02  0.51100000000E-03 0.  1.
         11   -1    0    0    0    0 -0.00000000000E+00 -0.00000000000E+00 -0.45593999997E+02  0.45594000000E+02  0.51100000000E-03 0. -1.
    9900012    2    1    2    0    0  0.10963163306E+02  0.14184139568E+02 -0.54128340139E+01  0.72461560482E+02  0.69999987218E+02 0.  0.
        -12    1    1    2    0    0 -0.10963163306E+02 -0.14184139568E+02  0.54128340139E+01  0.18726439518E+02  0.00000000000E+00 0.  1.
         11    1    3    3    0    0  0.57548418271E+01  0.10258730648E+02 -0.13154223175E+02  0.17646340883E+02  0.51100000000E-03 0. -1.
        -11    1    3    3    0    0 -0.18897943401E+02 -0.12485763389E+02  0.11516222894E+02  0.25409642701E+02  0.51100000000E-03 0.  1.
        -12    1    3    3    0    0  0.24106264880E+02  0.16411172309E+02 -0.37748337325E+01  0.29405576898E+02  0.00000000000E+00 0.  1.
</event>
<event>
 7    1  0.1905073E-013  0.7246159E+02  0.7816164E-02  0.1226708E+00
        -11   -1    0    0    0    0  0.00000000000E+00  0.00000000000E+00  0.45593999997E+02  0.45594000000E+02  0.51100000000E-03 0. -1.
         11   -1    0    0    0    0 -0.00000000000E+00 -0.00000000000E+00 -0.45593999997E+02  0.45594000000E+02  0.51100000000E-03 0.  1.
    9900012    2    1    2    0    0  0.13349156104E+02  0.72265201666E+01  0.10966119590E+02  0.72461592408E+02  0.70000028808E+02 0.  0.
        -12    1    1    2    0    0 -0.13349156104E+02 -0.72265201666E+01 -0.10966119590E+02  0.18726407592E+02  0.00000000000E+00 0.  1.
         11    1    3    3    0    0  0.28409043494E+01 -0.40469435043E+01  0.13769723818E+02  0.14630577007E+02  0.51100000000E-03 0. -1.
        -11    1    3    3    0    0  0.13420928328E+02  0.23618432531E+02 -0.21908535702E+02  0.34898934214E+02  0.51100000000E-03 0.  1.
        -12    1    3    3    0    0 -0.29126765730E+01 -0.12344968860E+02  0.19104931474E+02  0.22932081188E+02  0.00000000000E+00 0.  1.
</event>
<event>
 7    1  0.2467053E-013  0.7246148E+02  0.7816164E-02  0.1226708E+00
        -11   -1    0    0    0    0  0.00000000000E+00  0.00000000000E+00  0.45593999997E+02  0.45594000000E+02  0.51100000000E-03 0. -1.
         11   -1    0    0    0    0 -0.00000000000E+00 -0.00000000000E+00 -0.45593999997E+02  0.45594000000E+02  0.51100000000E-03 0.  1.
    9900012    2    1    2    0    0 -0.12330134062E+02 -0.12296479534E+02  0.68881843347E+01  0.72461476074E+02  0.69999877260E+02 0.  0.
        -12    1    1    2    0    0  0.12330134062E+02  0.12296479534E+02 -0.68881843347E+01  0.18726523926E+02  0.00000000000E+00 0.  1.
         11    1    3    3    0    0  0.16163973533E+02  0.11864181526E+02  0.65858829467E+01  0.21104660578E+02  0.51100000000E-03 0. -1.
        -11    1    3    3    0    0 -0.17565764644E+02 -0.13528352553E+02 -0.17261223958E+02  0.28098438802E+02  0.51100000000E-03 0.  1.
         12    1    3    3    0    0 -0.10928342952E+02 -0.10632308507E+02  0.17563525346E+02  0.23258376694E+02  0.00000000000E+00 0. -1.
</event>
<event>
 7    1  0.1905073E-013  0.7246164E+02  0.7816164E-02  0.1226708E+00
        -11   -1    0    0    0    0  0.00000000000E+00  0.00000000000E+00  0.45593999997E+02  0.45594000000E+02  0.51100000000E-03 0.  1.
         11   -1    0    0    0    0 -0.00000000000E+00 -0.00000000000E+00 -0.45593999997E+02  0.45594000000E+02  0.51100000000E-03 0. -1.
    9900012    2    1    2    0    0  0.66366750887E+01 -0.15627607146E+02  0.78999291844E+01  0.72461643108E+02  0.70000094853E+02 0.  0.
        -12    1    1    2    0    0 -0.66366750887E+01  0.15627607146E+02 -0.78999291844E+01  0.18726356892E+02  0.00000000000E+00 0.  1.
         11    1    3    3    0    0  0.11760855663E+02  0.17481702284E+01 -0.23645415717E+02  0.26466573442E+02  0.51100000000E-03 0. -1.
        -11    1    3    3    0    0  0.10224575494E+02 -0.98117969394E+01  0.22629272125E+02  0.26700135962E+02  0.51100000000E-03 0.  1.
         12    1    3    3    0    0 -0.15348756068E+02 -0.75639804351E+01  0.89160727761E+01  0.19294933703E+02  0.00000000000E+00 0. -1.
</event>
<event>
 7    1  0.1905073E-013  0.7246158E+02  0.7816164E-02  0.1226708E+00
        -11   -1    0    0    0    0  0.00000000000E+00  0.00000000000E+00  0.45593999997E+02  0.45594000000E+02  0.51100000000E-03 0.  1.
         11   -1    0    0    0    0 -0.00000000000E+00 -0.00000000000E+00 -0.45593999997E+02  0.45594000000E+02  0.51100000000E-03 0. -1.
    9900012    2    1    2    0    0  0.67009109624E+01 -0.16384269948E+02 -0.61100289723E+01  0.72461575795E+02  0.70000007166E+02 0.  0.
        -12    1    1    2    0    0 -0.67009109624E+01  0.16384269948E+02  0.61100289723E+01  0.18726424205E+02  0.00000000000E+00 0.  1.
         11    1    3    3    0    0  0.24314324212E+02  0.95374589569E+01 -0.96539841613E+01  0.27845087461E+02  0.51100000000E-03 0. -1.
        -11    1    3    3    0    0 -0.57377991239E+01 -0.13906476180E+02  0.17231069611E+02  0.22874050335E+02  0.51100000000E-03 0.  1.
        -12    1    3    3    0    0 -0.11875614126E+02 -0.12015252725E+02 -0.13687114422E+02  0.21742437999E+02  0.00000000000E+00 0.  1.
</event>
<event>
 7    1  0.1905073E-013  0.7246159E+02  0.7816164E-02  0.1226708E+00
        -11   -1    0    0    0    0  0.00000000000E+00  0.00000000000E+00  0.45593999997E+02  0.45594000000E+02  0.51100000000E-03 0.  1.
         11   -1    0    0    0    0 -0.00000000000E+00 -0.00000000000E+00 -0.45593999997E+02  0.45594000000E+02  0.51100000000E-03 0. -1.
    9900012    2    1    2    0    0  0.10770761469E+01  0.94232221909E+01 -0.16146863715E+02  0.72461590378E+02  0.70000026163E+02 0.  0.
        -12    1    1    2    0    0 -0.10770761469E+01 -0.94232221909E+01  0.16146863715E+02  0.18726409622E+02  0.00000000000E+00 0.  1.
         11    1    3    3    0    0  0.12977400083E+02 -0.52894594779E+01 -0.16691397851E+02  0.21794358375E+02  0.51100000000E-03 0. -1.
        -11    1    3    3    0    0 -0.23860171501E+02 -0.73466068468E+01  0.41777909148E+01  0.25312731054E+02  0.51100000000E-03 0.  1.
        -12    1    3    3    0    0  0.11959847565E+02  0.22059288516E+02 -0.36332567788E+01  0.25354500950E+02  0.00000000000E+00 0.  1.
</event>
<event>
 7    1  0.1905073E-013  0.7246156E+02  0.7816164E-02  0.1226708E+00
        -11   -1    0    0    0    0  0.00000000000E+00  0.00000000000E+00  0.45593999997E+02  0.45594000000E+02  0.51100000000E-03 0.  1.
         11   -1    0    0    0    0 -0.00000000000E+00 -0.00000000000E+00 -0.45593999997E+02  0.45594000000E+02  0.51100000000E-03 0. -1.
    9900012    2    1    2    0    0 -0.16027149819E+02 -0.68574079135E+01  0.68400196490E+01  0.72461562981E+02  0.69999990473E+02 0.  0.
        -12    1    1    2    0    0  0.16027149819E+02  0.68574079135E+01 -0.68400196490E+01  0.18726437019E+02  0.00000000000E+00 0.  1.
         11    1    3    3    0    0  0.14755267290E+02  0.70721500911E+01 -0.73277331276E+01  0.17928438101E+02  0.51100000000E-03 0. -1.
        -11    1    3    3    0    0 -0.35421601207E+02 -0.30515239077E+01  0.20580961423E+02  0.41080136362E+02  0.51100000000E-03 0.  1.
        -12    1    3    3    0    0  0.46391840978E+01 -0.10878034097E+02 -0.64132086462E+01  0.13452988517E+02  0.00000000000E+00 0.  1.
</event>
<event>
 7    1  0.1905073E-013  0.7246134E+02  0.7816164E-02  0.1226709E+00
        -11   -1    0    0    0    0  0.00000000000E+00  0.00000000000E+00  0.45593999997E+02  0.45594000000E+02  0.51100000000E-03 0.  1.
         11   -1    0    0    0    0 -0.00000000000E+00 -0.00000000000E+00 -0.45593999997E+02  0.45594000000E+02  0.51100000000E-03 0. -1.
    9900012    2    1    2    0    0  0.13989742216E+02  0.54473275495E+01 -0.11193810378E+02  0.72461343719E+02  0.69999704843E+02 0.  0.
        -12    1    1    2    0    0 -0.13989742216E+02 -0.54473275495E+01  0.11193810378E+02  0.18726656281E+02  0.00000000000E+00 0.  1.
         11    1    3    3    0    0 -0.16548940700E+02  0.21844179019E+01 -0.19261055860E+02  0.25487789095E+02  0.51100000000E-03 0. -1.
        -11    1    3    3    0    0  0.17244068981E+01  0.59840652567E+01  0.15827639483E+02  0.17008726819E+02  0.51100000000E-03 0.  1.
         12    1    3    3    0    0  0.28814276018E+02 -0.27211556091E+01 -0.77603940008E+01  0.29964827804E+02  0.00000000000E+00 0. -1.
</event>
<event>
 7    1  0.1905073E-013  0.7246157E+02  0.7816164E-02  0.1226708E+00
        -11   -1    0    0    0    0  0.00000000000E+00  0.00000000000E+00  0.45593999997E+02  0.45594000000E+02  0.51100000000E-03 0.  1.
         11   -1    0    0    0    0 -0.00000000000E+00 -0.00000000000E+00 -0.45593999997E+02  0.45594000000E+02  0.51100000000E-03 0. -1.
    9900012    2    1    2    0    0 -0.14597324612E+02 -0.11032402649E+02 -0.39854058915E+01  0.72461568035E+02  0.69999997057E+02 0.  0.
        -12    1    1    2    0    0  0.14597324612E+02  0.11032402649E+02  0.39854058915E+01  0.18726431965E+02  0.00000000000E+00 0.  1.
         11    1    3    3    0    0 -0.92758571432E+01 -0.10358806527E+02 -0.31023876879E+02  0.33997460718E+02  0.51100000000E-03 0. -1.
        -11    1    3    3    0    0  0.27824941306E+01 -0.88004027443E+01  0.25204867606E+02  0.26841660034E+02  0.51100000000E-03 0.  1.
         12    1    3    3    0    0 -0.81039615989E+01  0.81268066227E+01  0.18336033813E+01  0.11622447283E+02  0.00000000000E+00 0. -1.
</event>
<event>
 7    1  0.1905073E-013  0.7246159E+02  0.7816164E-02  0.1226708E+00
        -11   -1    0    0    0    0  0.00000000000E+00  0.00000000000E+00  0.45593999997E+02  0.45594000000E+02  0.51100000000E-03 0. -1.
         11   -1    0    0    0    0 -0.00000000000E+00 -0.00000000000E+00 -0.45593999997E+02  0.45594000000E+02  0.51100000000E-03 0.  1.
    9900012    2    1    2    0    0 -0.53433110787E+01  0.14548401666E+01  0.17888843416E+02  0.72461594793E+02  0.70000031915E+02 0.  0.
        -12    1    1    2    0    0  0.53433110787E+01 -0.14548401666E+01 -0.17888843416E+02  0.18726405207E+02  0.00000000000E+00 0.  1.
         11    1    3    3    0    0 -0.20240628026E+01  0.15585176788E+02  0.36782738383E+02  0.39999555110E+02  0.51100000000E-03 0. -1.
        -11    1    3    3    0    0  0.17257840215E+01 -0.16618604847E+02 -0.49493712817E+01  0.17425631521E+02  0.51100000000E-03 0.  1.
        -12    1    3    3    0    0 -0.50450322976E+01  0.24882682256E+01 -0.13944523685E+02  0.15036408163E+02  0.00000000000E+00 0.  1.
</event>
<event>
 7    1  0.1905073E-013  0.7246164E+02  0.7816164E-02  0.1226708E+00
        -11   -1    0    0    0    0  0.00000000000E+00  0.00000000000E+00  0.45593999997E+02  0.45594000000E+02  0.51100000000E-03 0. -1.
         11   -1    0    0    0    0 -0.00000000000E+00 -0.00000000000E+00 -0.45593999997E+02  0.45594000000E+02  0.51100000000E-03 0.  1.
    9900012    2    1    2    0    0 -0.13328432998E+02 -0.50085135267E+00  0.13144529833E+02  0.72461637759E+02  0.70000087885E+02 0.  0.
        -12    1    1    2    0    0  0.13328432998E+02  0.50085135267E+00 -0.13144529833E+02  0.18726362241E+02  0.00000000000E+00 0.  1.
         11    1    3    3    0    0  0.15233995321E+02 -0.19628459796E+02  0.23338331504E+02  0.34088543018E+02  0.51100000000E-03 0. -1.
        -11    1    3    3    0    0 -0.10724894540E+01  0.55492792423E+01 -0.44168136866E+01  0.71730730612E+01  0.51100000000E-03 0.  1.
         12    1    3    3    0    0 -0.27489938864E+02  0.13578329201E+02 -0.57769879839E+01  0.31200021680E+02  0.00000000000E+00 0. -1.
</event>
<event>
 7    1  0.1905073E-013  0.7246161E+02  0.7816164E-02  0.1226708E+00
        -11   -1    0    0    0    0  0.00000000000E+00  0.00000000000E+00  0.45593999997E+02  0.45594000000E+02  0.51100000000E-03 0. -1.
         11   -1    0    0    0    0 -0.00000000000E+00 -0.00000000000E+00 -0.45593999997E+02  0.45594000000E+02  0.51100000000E-03 0.  1.
    9900012    2    1    2    0    0 -0.31951163541E+01 -0.11021224845E+02 -0.14798701341E+02  0.72461608811E+02  0.70000050175E+02 0.  0.
        -12    1    1    2    0    0  0.31951163541E+01  0.11021224845E+02  0.14798701341E+02  0.18726391189E+02  0.00000000000E+00 0.  1.
         11    1    3    3    0    0  0.23689474193E+02 -0.20806271340E+02 -0.16599343789E+02  0.35631872377E+02  0.51100000000E-03 0.  1.
        -11    1    3    3    0    0 -0.22598193672E+02 -0.27018474675E+01 -0.26147302542E+01  0.22908844396E+02  0.51100000000E-03 0. -1.
         12    1    3    3    0    0 -0.42863968748E+01  0.12486893963E+02  0.44153727017E+01  0.13920892037E+02  0.00000000000E+00 0. -1.
</event>
<event>
 7    1  0.1905073E-013  0.7246142E+02  0.7816164E-02  0.1226708E+00
        -11   -1    0    0    0    0  0.00000000000E+00  0.00000000000E+00  0.45593999997E+02  0.45594000000E+02  0.51100000000E-03 0.  1.
         11   -1    0    0    0    0 -0.00000000000E+00 -0.00000000000E+00 -0.45593999997E+02  0.45594000000E+02  0.51100000000E-03 0. -1.
    9900012    2    1    2    0    0 -0.14790834301E+02 -0.64644745426E+01 -0.94934931440E+01  0.72461424699E+02  0.69999810335E+02 0.  0.
        -12    1    1    2    0    0  0.14790834301E+02  0.64644745426E+01  0.94934931440E+01  0.18726575301E+02  0.00000000000E+00 0.  1.
         11    1    3    3    0    0 -0.40304487767E+01  0.16985112129E+02 -0.91296367787E+01  0.19699970034E+02  0.51100000000E-03 0. -1.
        -11    1    3    3    0    0 -0.20917054578E+02 -0.32632404573E+02 -0.27684494182E+01  0.38859507368E+02  0.51100000000E-03 0.  1.
        -12    1    3    3    0    0  0.10156669054E+02  0.91828179016E+01  0.24045930529E+01  0.13901947296E+02  0.00000000000E+00 0.  1.
</event>
<event>
 7    1  0.1905073E-013  0.7246163E+02  0.7816164E-02  0.1226708E+00
        -11   -1    0    0    0    0  0.00000000000E+00  0.00000000000E+00  0.45593999997E+02  0.45594000000E+02  0.51100000000E-03 0. -1.
         11   -1    0    0    0    0 -0.00000000000E+00 -0.00000000000E+00 -0.45593999997E+02  0.45594000000E+02  0.51100000000E-03 0.  1.
    9900012    2    1    2    0    0  0.11292724759E+02 -0.14439452674E+02  0.38279940505E+01  0.72461629170E+02  0.70000076697E+02 0.  0.
        -12    1    1    2    0    0 -0.11292724759E+02  0.14439452674E+02 -0.38279940505E+01  0.18726370830E+02  0.00000000000E+00 0.  1.
         11    1    3    3    0    0 -0.47429151784E+01 -0.14338947878E+01  0.70951256052E+01  0.86540225484E+01  0.51100000000E-03 0. -1.
        -11    1    3    3    0    0  0.10044951290E+02  0.49470313713E-01 -0.30993913472E+02  0.32581070675E+02  0.51100000000E-03 0.  1.
        -12    1    3    3    0    0  0.59906886471E+01 -0.13055028200E+02  0.27726781917E+02  0.31226535947E+02  0.00000000000E+00 0.  1.
</event>
<event>
 8    1  0.1905073E-013  0.7246160E+02  0.7816164E-02  0.1226708E+00
        -11   -1    0    0    0    0  0.00000000000E+00  0.00000000000E+00  0.45593999997E+02  0.45594000000E+02  0.51100000000E-03 0. -1.
         11   -1    0    0    0    0 -0.00000000000E+00 -0.00000000000E+00 -0.45593999997E+02  0.45594000000E+02  0.51100000000E-03 0.  1.
    9900012    2    1    2    0    0 -0.50036827034E+01  0.17724390227E+02  0.33892613759E+01  0.72461603064E+02  0.70000042689E+02 0.  0.
         24    2    3    3    0    0 -0.52233174346E+01  0.29238304670E+02  0.74605177510E+01  0.60247120106E+02  0.51883471847E+02 0.  0.
        -12    1    1    2    0    0  0.50036827034E+01 -0.17724390227E+02 -0.33892613759E+01  0.18726396936E+02  0.00000000000E+00 0.  1.
         11    1    3    3    0    0  0.21963473121E+00 -0.11513914443E+02 -0.40712563751E+01  0.12214482959E+02  0.51100000000E-03 0.  1.
        -11    1    4    4    0    0 -0.24221891715E+02  0.24680760199E+02  0.16967465265E+02  0.38519278810E+02  0.51100000000E-03 0. -1.
         12    1    4    4    0    0  0.18998574281E+02  0.45575444712E+01 -0.95069475143E+01  0.21727841295E+02  0.00000000000E+00 0. -1.
</event>
<event>
 7    1  0.1905073E-013  0.7246157E+02  0.7816164E-02  0.1226708E+00
        -11   -1    0    0    0    0  0.00000000000E+00  0.00000000000E+00  0.45593999997E+02  0.45594000000E+02  0.51100000000E-03 0. -1.
         11   -1    0    0    0    0 -0.00000000000E+00 -0.00000000000E+00 -0.45593999997E+02  0.45594000000E+02  0.51100000000E-03 0.  1.
    9900012    2    1    2    0    0 -0.16562140250E+02 -0.80403208468E+01  0.34246311574E+01  0.72461565541E+02  0.69999993808E+02 0.  0.
        -12    1    1    2    0    0  0.16562140250E+02  0.80403208468E+01 -0.34246311574E+01  0.18726434459E+02  0.00000000000E+00 0.  1.
         11    1    3    3    0    0 -0.17888111445E+02 -0.26784059957E+01 -0.72927748432E+01  0.19502383314E+02  0.51100000000E-03 0. -1.
        -11    1    3    3    0    0  0.14151058610E+02 -0.23239378796E+02  0.14186923074E+02  0.30685338081E+02  0.51100000000E-03 0.  1.
        -12    1    3    3    0    0 -0.12825087416E+02  0.17877463945E+02 -0.34695170732E+01  0.22273844146E+02  0.00000000000E+00 0.  1.
</event>
<event>
 7    1  0.1905073E-013  0.7246138E+02  0.7816164E-02  0.1226709E+00
        -11   -1    0    0    0    0  0.00000000000E+00  0.00000000000E+00  0.45593999997E+02  0.45594000000E+02  0.51100000000E-03 0.  1.
         11   -1    0    0    0    0 -0.00000000000E+00 -0.00000000000E+00 -0.45593999997E+02  0.45594000000E+02  0.51100000000E-03 0. -1.
    9900012    2    1    2    0    0  0.17019668687E+02 -0.77018209015E+01 -0.13035468687E+01  0.72461377191E+02  0.69999748446E+02 0.  0.
        -12    1    1    2    0    0 -0.17019668687E+02  0.77018209015E+01  0.13035468687E+01  0.18726622809E+02  0.00000000000E+00 0.  1.
         11    1    3    3    0    0  0.31963830589E+02  0.16424776174E+02 -0.26020969297E+01  0.36030967889E+02  0.51100000000E-03 0. -1.
        -11    1    3    3    0    0 -0.54480628512E+01  0.38166549750E+01 -0.13895239020E+01  0.67955147682E+01  0.51100000000E-03 0.  1.
         12    1    3    3    0    0 -0.94960990516E+01 -0.27943252051E+02  0.26880739630E+01  0.29634894534E+02  0.00000000000E+00 0. -1.
</event>
<event>
 7    1  0.1905073E-013  0.7246165E+02  0.7816164E-02  0.1226708E+00
        -11   -1    0    0    0    0  0.00000000000E+00  0.00000000000E+00  0.45593999997E+02  0.45594000000E+02  0.51100000000E-03 0. -1.
         11   -1    0    0    0    0 -0.00000000000E+00 -0.00000000000E+00 -0.45593999997E+02  0.45594000000E+02  0.51100000000E-03 0.  1.
    9900012    2    1    2    0    0  0.11593732364E+02  0.14558824236E+02 -0.20741391236E+01  0.72461653683E+02  0.70000108629E+02 0.  0.
        -12    1    1    2    0    0 -0.11593732364E+02 -0.14558824236E+02  0.20741391236E+01  0.18726346317E+02  0.00000000000E+00 0.  1.
         11    1    3    3    0    0 -0.12706099450E+01  0.27761152600E+02 -0.25368827601E+02  0.37628093991E+02  0.51100000000E-03 0. -1.
        -11    1    3    3    0    0 -0.45111271316E+00 -0.10872164810E+02  0.47208744687E+01  0.11861455491E+02  0.51100000000E-03 0.  1.
         12    1    3    3    0    0  0.13315455023E+02 -0.23301635532E+01  0.18573814008E+02  0.22972104202E+02  0.00000000000E+00 0. -1.
</event>
<event>
 7    1  0.1905073E-013  0.7246151E+02  0.7816164E-02  0.1226708E+00
        -11   -1    0    0    0    0  0.00000000000E+00  0.00000000000E+00  0.45593999997E+02  0.45594000000E+02  0.51100000000E-03 0.  1.
         11   -1    0    0    0    0 -0.00000000000E+00 -0.00000000000E+00 -0.45593999997E+02  0.45594000000E+02  0.51100000000E-03 0. -1.
    9900012    2    1    2    0    0  0.16412043881E+02 -0.63731637768E+01 -0.63803605077E+01  0.72461510711E+02  0.69999922381E+02 0.  0.
        -12    1    1    2    0    0 -0.16412043881E+02  0.63731637768E+01  0.63803605077E+01  0.18726489289E+02  0.00000000000E+00 0.  1.
         11    1    3    3    0    0 -0.14462369301E+02  0.11812311220E+02 -0.15557295435E+02  0.24304737474E+02  0.51100000000E-03 0. -1.
        -11    1    3    3    0    0  0.19109050297E+02  0.36160085878E+01  0.12562881936E+02  0.23152911786E+02  0.51100000000E-03 0.  1.
         12    1    3    3    0    0  0.11765362885E+02 -0.21801483585E+02 -0.33859470079E+01  0.25003861451E+02  0.00000000000E+00 0. -1.
</event>
<event>
 7    1  0.1905073E-013  0.7246155E+02  0.7816164E-02  0.1226708E+00
        -11   -1    0    0    0    0  0.00000000000E+00  0.00000000000E+00  0.45593999997E+02  0.45594000000E+02  0.51100000000E-03 0. -1.
         11   -1    0    0    0    0 -0.00000000000E+00 -0.00000000000E+00 -0.45593999997E+02  0.45594000000E+02  0.51100000000E-03 0.  1.
    9900012    2    1    2    0    0  0.21410395163E+00  0.17213390812E+02  0.73710993267E+01  0.72461554287E+02  0.69999979147E+02 0.  0.
        -12    1    1    2    0    0 -0.21410395163E+00 -0.17213390812E+02 -0.73710993267E+01  0.18726445713E+02  0.00000000000E+00 0.  1.
         11    1    3    3    0    0  0.20222054158E+00  0.97552445218E+01  0.61678675796E+00  0.97768151764E+01  0.51100000000E-03 0. -1.
        -11    1    3    3    0    0 -0.29430041321E+02 -0.26378443663E+01  0.10449510109E+02  0.31341311664E+02  0.51100000000E-03 0.  1.
        -12    1    3    3    0    0  0.29441924731E+02  0.10095990657E+02 -0.36951975405E+01  0.31343427446E+02  0.00000000000E+00 0.  1.
</event>
<event>
 7    1  0.1905073E-013  0.7246158E+02  0.7816164E-02  0.1226708E+00
        -11   -1    0    0    0    0  0.00000000000E+00  0.00000000000E+00  0.45593999997E+02  0.45594000000E+02  0.51100000000E-03 0. -1.
         11   -1    0    0    0    0 -0.00000000000E+00 -0.00000000000E+00 -0.45593999997E+02  0.45594000000E+02  0.51100000000E-03 0.  1.
    9900012    2    1    2    0    0 -0.98863618733E-01 -0.18645078541E+02  0.17407469607E+01  0.72461576749E+02  0.70000008408E+02 0.  0.
        -12    1    1    2    0    0  0.98863618733E-01  0.18645078541E+02 -0.17407469607E+01  0.18726423251E+02  0.00000000000E+00 0.  1.
         11    1    3    3    0    0  0.79213776432E+01  0.61151652548E+01  0.56305346772E+01  0.11482438368E+02  0.51100000000E-03 0. -1.
        -11    1    3    3    0    0 -0.17389361594E+02 -0.24531624739E+02 -0.24208203349E+02  0.38603466407E+02  0.51100000000E-03 0.  1.
        -12    1    3    3    0    0  0.93691203323E+01 -0.22861905626E+00  0.20318415632E+02  0.22375671974E+02  0.00000000000E+00 0.  1.
</event>
<event>
 7    1  0.1905073E-013  0.7246162E+02  0.7816164E-02  0.1226708E+00
        -11   -1    0    0    0    0  0.00000000000E+00  0.00000000000E+00  0.45593999997E+02  0.45594000000E+02  0.51100000000E-03 0.  1.
         11   -1    0    0    0    0 -0.00000000000E+00 -0.00000000000E+00 -0.45593999997E+02  0.45594000000E+02  0.51100000000E-03 0. -1.
    9900012    2    1    2    0    0  0.48519016929E+01  0.94407812625E+01 -0.15427511589E+02  0.72461617148E+02  0.70000061035E+02 0.  0.
        -12    1    1    2    0    0 -0.48519016929E+01 -0.94407812625E+01  0.15427511589E+02  0.18726382852E+02  0.00000000000E+00 0.  1.
         11    1    3    3    0    0  0.27235229023E+02  0.40714334525E+01 -0.22794652845E+02  0.35748153363E+02  0.51100000000E-03 0. -1.
        -11    1    3    3    0    0 -0.12208452054E+02  0.15106906424E+02 -0.24049734497E+01  0.19571633065E+02  0.51100000000E-03 0.  1.
         12    1    3    3    0    0 -0.10174875276E+02 -0.97375586142E+01  0.97721147048E+01  0.17141830720E+02  0.00000000000E+00 0. -1.
</event>
<event>
 7    1  0.2122322E-013  0.7246154E+02  0.7816164E-02  0.1226708E+00
        -11   -1    0    0    0    0  0.00000000000E+00  0.00000000000E+00  0.45593999997E+02  0.45594000000E+02  0.51100000000E-03 0. -1.
         11   -1    0    0    0    0 -0.00000000000E+00 -0.00000000000E+00 -0.45593999997E+02  0.45594000000E+02  0.51100000000E-03 0.  1.
    9900012    2    1    2    0    0  0.91364894172E+01 -0.12123220837E+02  0.10965060236E+02  0.72461535617E+02  0.69999954826E+02 0.  0.
        -12    1    1    2    0    0 -0.91364894172E+01  0.12123220837E+02 -0.10965060236E+02  0.18726464383E+02  0.00000000000E+00 0.  1.
         11    1    3    3    0    0  0.11396442102E+02 -0.30528401432E+02  0.22972881277E+02  0.39869981954E+02  0.51100000000E-03 0. -1.
        -11    1    3    3    0    0  0.10847320870E+02  0.88721485437E+01 -0.44052519550E+01  0.14689643797E+02  0.51100000000E-03 0.  1.
         12    1    3    3    0    0 -0.13107273554E+02  0.95330320516E+01 -0.76025690865E+01  0.17901909866E+02  0.00000000000E+00 0. -1.
</event>
<event>
 7    1  0.1905073E-013  0.7246145E+02  0.7816164E-02  0.1226708E+00
        -11   -1    0    0    0    0  0.00000000000E+00  0.00000000000E+00  0.45593999997E+02  0.45594000000E+02  0.51100000000E-03 0. -1.
         11   -1    0    0    0    0 -0.00000000000E+00 -0.00000000000E+00 -0.45593999997E+02  0.45594000000E+02  0.51100000000E-03 0.  1.
    9900012    2    1    2    0    0 -0.42532910075E+01 -0.43706545490E+01  0.17705663227E+02  0.72461451576E+02  0.69999845347E+02 0.  0.
        -12    1    1    2    0    0  0.42532910075E+01  0.43706545490E+01 -0.17705663227E+02  0.18726548424E+02  0.00000000000E+00 0.  1.
         11    1    3    3    0    0 -0.15668441888E+02  0.40098252516E+00 -0.19288234881E+02  0.24853508068E+02  0.51100000000E-03 0. -1.
        -11    1    3    3    0    0  0.10685762849E+02  0.10312462597E+02  0.17612953104E+02  0.23037980158E+02  0.51100000000E-03 0.  1.
         12    1    3    3    0    0  0.72938803124E+00 -0.15084099671E+02  0.19380945004E+02  0.24569963350E+02  0.00000000000E+00 0. -1.
</event>
<event>
 7    1  0.1905073E-013  0.7246172E+02  0.7816164E-02  0.1226708E+00
        -11   -1    0    0    0    0  0.00000000000E+00  0.00000000000E+00  0.45593999997E+02  0.45594000000E+02  0.51100000000E-03 0. -1.
         11   -1    0    0    0    0 -0.00000000000E+00 -0.00000000000E+00 -0.45593999997E+02  0.45594000000E+02  0.51100000000E-03 0.  1.
    9900012    2    1    2    0    0  0.42442305350E+01 -0.14692018479E+02  0.10807612476E+02  0.72461724683E+02  0.70000201120E+02 0.  0.
        -12    1    1    2    0    0 -0.42442305350E+01  0.14692018479E+02 -0.10807612476E+02  0.18726275317E+02  0.00000000000E+00 0.  1.
         11    1    3    3    0    0  0.19875510051E+02 -0.32900724153E+02  0.20002916802E+02  0.43331400052E+02  0.51100000000E-03 0.  1.
        -11    1    3    3    0    0 -0.13864271076E+02  0.13778676766E+02 -0.90690793688E+00  0.19567637266E+02  0.51100000000E-03 0. -1.
        -12    1    3    3    0    0 -0.17670084398E+01  0.44300289082E+01 -0.82883963889E+01  0.95626873657E+01  0.00000000000E+00 0.  1.
</event>
<event>
 7    1  0.1905073E-013  0.7246156E+02  0.7816164E-02  0.1226708E+00
        -11   -1    0    0    0    0  0.00000000000E+00  0.00000000000E+00  0.45593999997E+02  0.45594000000E+02  0.51100000000E-03 0.  1.
         11   -1    0    0    0    0 -0.00000000000E+00 -0.00000000000E+00 -0.45593999997E+02  0.45594000000E+02  0.51100000000E-03 0. -1.
    9900012    2    1    2    0    0 -0.14778436376E+02  0.19849554985E+01  0.11328604574E+02  0.72461561160E+02  0.69999988101E+02 0.  0.
        -12    1    1    2    0    0  0.14778436376E+02 -0.19849554985E+01 -0.11328604574E+02  0.18726438840E+02  0.00000000000E+00 0.  1.
         11    1    3    3    0    0  0.33494376410E+01  0.24216157076E+02 -0.57972668695E+01  0.25124675111E+02  0.51100000000E-03 0. -1.
        -11    1    3    3    0    0 -0.23145552749E+02 -0.19808639659E+01  0.80486365308E+01  0.24584974769E+02  0.51100000000E-03 0.  1.
         12    1    3    3    0    0  0.50176787325E+01 -0.20250337611E+02  0.90772349127E+01  0.22751911280E+02  0.00000000000E+00 0. -1.
</event>
<event>
 7    1  0.1905073E-013  0.7246105E+02  0.7816164E-02  0.1226709E+00
        -11   -1    0    0    0    0  0.00000000000E+00  0.00000000000E+00  0.45593999997E+02  0.45594000000E+02  0.51100000000E-03 0.  1.
         11   -1    0    0    0    0 -0.00000000000E+00 -0.00000000000E+00 -0.45593999997E+02  0.45594000000E+02  0.51100000000E-03 0. -1.
    9900012    2    1    2    0    0  0.14018530032E+02 -0.19994638253E+01 -0.12254856732E+02  0.72461052748E+02  0.69999325797E+02 0.  0.
        -12    1    1    2    0    0 -0.14018530032E+02  0.19994638253E+01  0.12254856732E+02  0.18726947252E+02  0.00000000000E+00 0.  1.
         11    1    3    3    0    0 -0.56750305532E+01  0.18108209582E+02 -0.83858393811E+00  0.18995169105E+02  0.51100000000E-03 0. -1.
        -11    1    3    3    0    0  0.27068990758E+02 -0.24527908638E+02 -0.19720483538E+02  0.41511998676E+02  0.51100000000E-03 0.  1.
        -12    1    3    3    0    0 -0.73754301731E+01  0.44202352307E+01  0.83042107438E+01  0.11953884967E+02  0.00000000000E+00 0.  1.
</event>
<event>
 7    1  0.1905073E-013  0.7246151E+02  0.7816164E-02  0.1226708E+00
        -11   -1    0    0    0    0  0.00000000000E+00  0.00000000000E+00  0.45593999997E+02  0.45594000000E+02  0.51100000000E-03 0. -1.
         11   -1    0    0    0    0 -0.00000000000E+00 -0.00000000000E+00 -0.45593999997E+02  0.45594000000E+02  0.51100000000E-03 0.  1.
    9900012    2    1    2    0    0  0.75626782895E+01  0.91300533382E+01 -0.14495842142E+02  0.72461510305E+02  0.69999921853E+02 0.  0.
        -12    1    1    2    0    0 -0.75626782895E+01 -0.91300533382E+01  0.14495842142E+02  0.18726489695E+02  0.00000000000E+00 0.  1.
         11    1    3    3    0    0 -0.38898742202E+00 -0.76338348431E+01 -0.14828486330E+01  0.77862433789E+01  0.51100000000E-03 0. -1.
        -11    1    3    3    0    0  0.32104992909E+02  0.15086917297E+02  0.30747806831E+01  0.35606178112E+02  0.51100000000E-03 0.  1.
        -12    1    3    3    0    0 -0.24153327197E+02  0.16769708841E+01 -0.16087774193E+02  0.29069088815E+02  0.00000000000E+00 0.  1.
</event>
<event>
 7    1  0.1905073E-013  0.7246159E+02  0.7816164E-02  0.1226708E+00
        -11   -1    0    0    0    0  0.00000000000E+00  0.00000000000E+00  0.45593999997E+02  0.45594000000E+02  0.51100000000E-03 0.  1.
         11   -1    0    0    0    0 -0.00000000000E+00 -0.00000000000E+00 -0.45593999997E+02  0.45594000000E+02  0.51100000000E-03 0. -1.
    9900012    2    1    2    0    0 -0.28416577377E+01  0.11692720624E+02 -0.14348649730E+02  0.72461588615E+02  0.70000023866E+02 0.  0.
        -12    1    1    2    0    0  0.28416577377E+01 -0.11692720624E+02  0.14348649730E+02  0.18726411385E+02  0.00000000000E+00 0.  1.
         11    1    3    3    0    0  0.42208122284E+01  0.21852501224E+02 -0.32254510926E+02  0.39188015272E+02  0.51100000000E-03 0. -1.
        -11    1    3    3    0    0 -0.45591102590E+01 -0.25947964620E+01  0.23148320290E+02  0.23735273066E+02  0.51100000000E-03 0.  1.
        -12    1    3    3    0    0 -0.25033597071E+01 -0.75649841373E+01 -0.52424590931E+01  0.95383002765E+01  0.00000000000E+00 0.  1.
</event>
<event>
 7    1  0.1905073E-013  0.7246160E+02  0.7816164E-02  0.1226708E+00
        -11   -1    0    0    0    0  0.00000000000E+00  0.00000000000E+00  0.45593999997E+02  0.45594000000E+02  0.51100000000E-03 0.  1.
         11   -1    0    0    0    0 -0.00000000000E+00 -0.00000000000E+00 -0.45593999997E+02  0.45594000000E+02  0.51100000000E-03 0. -1.
    9900012    2    1    2    0    0  0.17210288193E+02  0.73785705115E+01  0.20184505675E+00  0.72461599815E+02  0.70000038456E+02 0.  0.
        -12    1    1    2    0    0 -0.17210288193E+02 -0.73785705115E+01 -0.20184505675E+00  0.18726400185E+02  0.00000000000E+00 0.  1.
         11    1    3    3    0    0 -0.78135191023E+01 -0.10401365744E+02  0.18302591299E+02  0.22454940183E+02  0.51100000000E-03 0.  1.
        -11    1    3    3    0    0  0.25469678953E+02  0.22510123141E+02 -0.24597711291E+02  0.41957807269E+02  0.51100000000E-03 0. -1.
         12    1    3    3    0    0 -0.44587165773E+00 -0.47301868860E+01  0.64969650491E+01  0.80488523630E+01  0.00000000000E+00 0. -1.
</event>
<event>
 7    1  0.2044206E-013  0.7246158E+02  0.7816164E-02  0.1226708E+00
        -11   -1    0    0    0    0  0.00000000000E+00  0.00000000000E+00  0.45593999997E+02  0.45594000000E+02  0.51100000000E-03 0. -1.
         11   -1    0    0    0    0 -0.00000000000E+00 -0.00000000000E+00 -0.45593999997E+02  0.45594000000E+02  0.51100000000E-03 0.  1.
    9900012    2    1    2    0    0 -0.52915757181E+01 -0.10016641103E+02  0.14911236366E+02  0.72461579025E+02  0.70000011374E+02 0.  0.
        -12    1    1    2    0    0  0.52915757181E+01  0.10016641103E+02 -0.14911236366E+02  0.18726420975E+02  0.00000000000E+00 0.  1.
         11    1    3    3    0    0 -0.55738983766E+01 -0.37951494097E+01  0.33327076829E+02  0.34002434506E+02  0.51100000000E-03 0. -1.
        -11    1    3    3    0    0  0.22131333397E+01 -0.19720571077E+02 -0.84467487891E+01  0.21567254071E+02  0.51100000000E-03 0.  1.
         12    1    3    3    0    0 -0.19308106813E+01  0.13499079384E+02 -0.99690916734E+01  0.16891890448E+02  0.00000000000E+00 0. -1.
</event>
<event>
 7    1  0.1905073E-013  0.7246142E+02  0.7816164E-02  0.1226708E+00
        -11   -1    0    0    0    0  0.00000000000E+00  0.00000000000E+00  0.45593999997E+02  0.45594000000E+02  0.51100000000E-03 0.  1.
         11   -1    0    0    0    0 -0.00000000000E+00 -0.00000000000E+00 -0.45593999997E+02  0.45594000000E+02  0.51100000000E-03 0. -1.
    9900012    2    1    2    0    0  0.95551156434E+01  0.10952454379E+02  0.11807972155E+02  0.72461422675E+02  0.69999807698E+02 0.  0.
        -12    1    1    2    0    0 -0.95551156434E+01 -0.10952454379E+02 -0.11807972155E+02  0.18726577325E+02  0.00000000000E+00 0.  1.
         11    1    3    3    0    0 -0.31583254013E+01  0.26746086295E+02 -0.16365816594E+01  0.26981596528E+02  0.51100000000E-03 0. -1.
        -11    1    3    3    0    0  0.15074329040E+02 -0.27027984928E+02  0.52845750693E+01  0.31395447109E+02  0.51100000000E-03 0.  1.
         12    1    3    3    0    0 -0.23608879953E+01  0.11234353013E+02  0.81599787455E+01  0.14084379037E+02  0.00000000000E+00 0. -1.
</event>
<event>
 7    1  0.1905073E-013  0.7246161E+02  0.7816164E-02  0.1226708E+00
        -11   -1    0    0    0    0  0.00000000000E+00  0.00000000000E+00  0.45593999997E+02  0.45594000000E+02  0.51100000000E-03 0.  1.
         11   -1    0    0    0    0 -0.00000000000E+00 -0.00000000000E+00 -0.45593999997E+02  0.45594000000E+02  0.51100000000E-03 0. -1.
    9900012    2    1    2    0    0 -0.28740844171E+01 -0.15224715509E+02 -0.10517851421E+02  0.72461614281E+02  0.70000057301E+02 0.  0.
        -12    1    1    2    0    0  0.28740844171E+01  0.15224715509E+02  0.10517851421E+02  0.18726385719E+02  0.00000000000E+00 0.  1.
         11    1    3    3    0    0 -0.23719064273E+01  0.15848193977E+02  0.95657076966E+01  0.18662635302E+02  0.51100000000E-03 0.  1.
        -11    1    3    3    0    0 -0.53552025823E+01 -0.29890313506E+02  0.26889661655E+01  0.30485071354E+02  0.51100000000E-03 0. -1.
         12    1    3    3    0    0  0.48530245924E+01 -0.11825959803E+01 -0.22772525283E+02  0.23313907624E+02  0.00000000000E+00 0. -1.
</event>
<event>
 7    1  0.1905073E-013  0.7246158E+02  0.7816164E-02  0.1226708E+00
        -11   -1    0    0    0    0  0.00000000000E+00  0.00000000000E+00  0.45593999997E+02  0.45594000000E+02  0.51100000000E-03 0.  1.
         11   -1    0    0    0    0 -0.00000000000E+00 -0.00000000000E+00 -0.45593999997E+02  0.45594000000E+02  0.51100000000E-03 0. -1.
    9900012    2    1    2    0    0  0.15096697356E+02 -0.10770153747E+02 -0.26023904873E+01  0.72461576982E+02  0.70000008712E+02 0.  0.
        -12    1    1    2    0    0 -0.15096697356E+02  0.10770153747E+02  0.26023904873E+01  0.18726423018E+02  0.00000000000E+00 0.  1.
         11    1    3    3    0    0  0.92067741939E+01  0.19711479418E+01  0.17082262693E+02  0.19505225306E+02  0.51100000000E-03 0. -1.
        -11    1    3    3    0    0 -0.15124739159E+02 -0.21178054151E+02 -0.14241918542E+02  0.29666478664E+02  0.51100000000E-03 0.  1.
         12    1    3    3    0    0  0.21014662321E+02  0.84367524627E+01 -0.54427346379E+01  0.23289873012E+02  0.00000000000E+00 0. -1.
</event>
<event>
 7    1  0.1905073E-013  0.7246157E+02  0.7816164E-02  0.1226708E+00
        -11   -1    0    0    0    0  0.00000000000E+00  0.00000000000E+00  0.45593999997E+02  0.45594000000E+02  0.51100000000E-03 0.  1.
         11   -1    0    0    0    0 -0.00000000000E+00 -0.00000000000E+00 -0.45593999997E+02  0.45594000000E+02  0.51100000000E-03 0. -1.
    9900012    2    1    2    0    0  0.10586313198E+02  0.55706394059E+01 -0.14407540672E+02  0.72461567378E+02  0.69999996201E+02 0.  0.
        -12    1    1    2    0    0 -0.10586313198E+02 -0.55706394059E+01  0.14407540672E+02  0.18726432622E+02  0.00000000000E+00 0.  1.
         11    1    3    3    0    0  0.61547774369E+01  0.80503235736E+01 -0.27044491769E+02  0.28880677454E+02  0.51100000000E-03 0. -1.
        -11    1    3    3    0    0  0.21662840181E+02 -0.74169496710E+01  0.11492595000E+02  0.25619709742E+02  0.51100000000E-03 0.  1.
        -12    1    3    3    0    0 -0.17231304420E+02  0.49372655034E+01  0.11443560965E+01  0.17961180182E+02  0.00000000000E+00 0.  1.
</event>
<event>
 7    1  0.1905073E-013  0.7246158E+02  0.7816164E-02  0.1226708E+00
        -11   -1    0    0    0    0  0.00000000000E+00  0.00000000000E+00  0.45593999997E+02  0.45594000000E+02  0.51100000000E-03 0.  1.
         11   -1    0    0    0    0 -0.00000000000E+00 -0.00000000000E+00 -0.45593999997E+02  0.45594000000E+02  0.51100000000E-03 0. -1.
    9900012    2    1    2    0    0  0.10933920841E+02 -0.78291669129E+01 -0.13031974430E+02  0.72461579171E+02  0.70000011564E+02 0.  0.
        -12    1    1    2    0    0 -0.10933920841E+02  0.78291669129E+01  0.13031974430E+02  0.18726420829E+02  0.00000000000E+00 0.  1.
         11    1    3    3    0    0  0.59764467714E+01  0.21101661564E+02 -0.47873675312E+01  0.22448094015E+02  0.51100000000E-03 0. -1.
        -11    1    3    3    0    0  0.18463533963E+02 -0.27932324784E+02  0.11966461766E+01  0.33504459652E+02  0.51100000000E-03 0.  1.
         12    1    3    3    0    0 -0.13506059893E+02 -0.99850369334E+00 -0.94412530756E+01  0.16509025504E+02  0.00000000000E+00 0. -1.
</event>
<event>
 7    1  0.1905073E-013  0.7246155E+02  0.7816164E-02  0.1226708E+00
        -11   -1    0    0    0    0  0.00000000000E+00  0.00000000000E+00  0.45593999997E+02  0.45594000000E+02  0.51100000000E-03 0.  1.
         11   -1    0    0    0    0 -0.00000000000E+00 -0.00000000000E+00 -0.45593999997E+02  0.45594000000E+02  0.51100000000E-03 0. -1.
    9900012    2    1    2    0    0 -0.17766797249E+02 -0.57020984859E+01  0.15833676674E+01  0.72461546391E+02  0.69999968861E+02 0.  0.
        -12    1    1    2    0    0  0.17766797249E+02  0.57020984859E+01 -0.15833676674E+01  0.18726453609E+02  0.00000000000E+00 0.  1.
         11    1    3    3    0    0 -0.14995987952E+02 -0.18990968482E+02 -0.21497697556E+02  0.32368001777E+02  0.51100000000E-03 0. -1.
        -11    1    3    3    0    0  0.12917746519E+02  0.10924371495E+02  0.11915426545E+02  0.20692690925E+02  0.51100000000E-03 0.  1.
         12    1    3    3    0    0 -0.15688555816E+02  0.23644985012E+01  0.11165638679E+02  0.19400853689E+02  0.00000000000E+00 0. -1.
</event>
<event>
 7    1  0.1905073E-013  0.7246152E+02  0.7816164E-02  0.1226708E+00
        -11   -1    0    0    0    0  0.00000000000E+00  0.00000000000E+00  0.45593999997E+02  0.45594000000E+02  0.51100000000E-03 0.  1.
         11   -1    0    0    0    0 -0.00000000000E+00 -0.00000000000E+00 -0.45593999997E+02  0.45594000000E+02  0.51100000000E-03 0. -1.
    9900012    2    1    2    0    0  0.17225812657E+01 -0.62971680861E+01 -0.17551619821E+02  0.72461522209E+02  0.69999937360E+02 0.  0.
        -12    1    1    2    0    0 -0.17225812657E+01  0.62971680861E+01  0.17551619821E+02  0.18726477791E+02  0.00000000000E+00 0.  1.
         11    1    3    3    0    0  0.16275858337E+01  0.41127146754E+01 -0.39228728486E+02  0.39477292163E+02  0.51100000000E-03 0. -1.
        -11    1    3    3    0    0  0.84029013096E+01 -0.77528297458E+01  0.21994482897E+01  0.11642709845E+02  0.51100000000E-03 0.  1.
         12    1    3    3    0    0 -0.83079058776E+01 -0.26570530157E+01  0.19477660376E+02  0.21341520201E+02  0.00000000000E+00 0. -1.
</event>
<event>
 7    1  0.1905073E-013  0.7246159E+02  0.7816164E-02  0.1226708E+00
        -11   -1    0    0    0    0  0.00000000000E+00  0.00000000000E+00  0.45593999997E+02  0.45594000000E+02  0.51100000000E-03 0. -1.
         11   -1    0    0    0    0 -0.00000000000E+00 -0.00000000000E+00 -0.45593999997E+02  0.45594000000E+02  0.51100000000E-03 0.  1.
    9900012    2    1    2    0    0  0.73490242476E+01  0.30598058956E+01  0.16950161385E+02  0.72461587089E+02  0.70000021879E+02 0.  0.
        -12    1    1    2    0    0 -0.73490242476E+01 -0.30598058956E+01 -0.16950161385E+02  0.18726412911E+02  0.00000000000E+00 0.  1.
         11    1    3    3    0    0 -0.13464254066E+02  0.13495233395E+02  0.77991131010E+01  0.20596932474E+02  0.51100000000E-03 0. -1.
        -11    1    3    3    0    0  0.16227236113E+02 -0.19588982634E+02  0.23235686108E+02  0.34452119553E+02  0.51100000000E-03 0.  1.
        -12    1    3    3    0    0  0.45860422007E+01  0.91535551344E+01 -0.14084637824E+02  0.17412535062E+02  0.00000000000E+00 0.  1.
</event>
<event>
 7    1  0.1905073E-013  0.7246154E+02  0.7816164E-02  0.1226708E+00
        -11   -1    0    0    0    0  0.00000000000E+00  0.00000000000E+00  0.45593999997E+02  0.45594000000E+02  0.51100000000E-03 0.  1.
         11   -1    0    0    0    0 -0.00000000000E+00 -0.00000000000E+00 -0.45593999997E+02  0.45594000000E+02  0.51100000000E-03 0. -1.
    9900012    2    1    2    0    0  0.28776376814E+01 -0.14570298254E+02 -0.11406403780E+02  0.72461536452E+02  0.69999955914E+02 0.  0.
        -12    1    1    2    0    0 -0.28776376814E+01  0.14570298254E+02  0.11406403780E+02  0.18726463548E+02  0.00000000000E+00 0.  1.
         11    1    3    3    0    0  0.17230197112E+02  0.17490023770E+02  0.51812647461E+01  0.25092351994E+02  0.51100000000E-03 0. -1.
        -11    1    3    3    0    0 -0.68167650812E+01  0.74915259477E+00 -0.11406097110E+02  0.13308965674E+02  0.51100000000E-03 0.  1.
         12    1    3    3    0    0 -0.75357943495E+01 -0.32809474618E+02 -0.51815714167E+01  0.34060218783E+02  0.00000000000E+00 0. -1.
</event>
<event>
 7    1  0.1905073E-013  0.7246153E+02  0.7816164E-02  0.1226708E+00
        -11   -1    0    0    0    0  0.00000000000E+00  0.00000000000E+00  0.45593999997E+02  0.45594000000E+02  0.51100000000E-03 0. -1.
         11   -1    0    0    0    0 -0.00000000000E+00 -0.00000000000E+00 -0.45593999997E+02  0.45594000000E+02  0.51100000000E-03 0.  1.
    9900012    2    1    2    0    0 -0.73861590735E+01 -0.14604825212E+02  0.91008019092E+01  0.72461525139E+02  0.69999941176E+02 0.  0.
        -12    1    1    2    0    0  0.73861590735E+01  0.14604825212E+02 -0.91008019092E+01  0.18726474861E+02  0.00000000000E+00 0.  1.
         11    1    3    3    0    0 -0.62133428045E+01  0.16267452106E+02 -0.35806762897E+01  0.17777988350E+02  0.51100000000E-03 0. -1.
        -11    1    3    3    0    0  0.94456164922E+01 -0.35302904365E+02  0.19384640376E+02  0.41367608225E+02  0.51100000000E-03 0.  1.
        -12    1    3    3    0    0 -0.10618432761E+02  0.44306270464E+01 -0.67031621773E+01  0.13315928563E+02  0.00000000000E+00 0.  1.
</event>
<event>
 7    1  0.2337744E-013  0.7246157E+02  0.7816164E-02  0.1226708E+00
        -11   -1    0    0    0    0  0.00000000000E+00  0.00000000000E+00  0.45593999997E+02  0.45594000000E+02  0.51100000000E-03 0. -1.
         11   -1    0    0    0    0 -0.00000000000E+00 -0.00000000000E+00 -0.45593999997E+02  0.45594000000E+02  0.51100000000E-03 0.  1.
    9900012    2    1    2    0    0  0.15221269258E+02  0.81803602332E+01  0.72162211090E+01  0.72461570056E+02  0.69999999689E+02 0.  0.
        -12    1    1    2    0    0 -0.15221269258E+02 -0.81803602332E+01 -0.72162211090E+01  0.18726429944E+02  0.00000000000E+00 0.  1.
         11    1    3    3    0    0 -0.15699444159E+02 -0.12406701090E+02  0.16303037003E+02  0.25810613992E+02  0.51100000000E-03 0. -1.
        -11    1    3    3    0    0  0.90715062224E+01  0.53806590897E+01 -0.15985596349E+02  0.19151579785E+02  0.51100000000E-03 0.  1.
         12    1    3    3    0    0  0.21849207195E+02  0.15206402234E+02  0.68987804543E+01  0.27499376278E+02  0.00000000000E+00 0. -1.
</event>
<event>
 7    1  0.1905073E-013  0.7246155E+02  0.7816164E-02  0.1226708E+00
        -11   -1    0    0    0    0  0.00000000000E+00  0.00000000000E+00  0.45593999997E+02  0.45594000000E+02  0.51100000000E-03 0.  1.
         11   -1    0    0    0    0 -0.00000000000E+00 -0.00000000000E+00 -0.45593999997E+02  0.45594000000E+02  0.51100000000E-03 0. -1.
    9900012    2    1    2    0    0  0.13052865510E+02  0.94157522519E+01 -0.95731970998E+01  0.72461553696E+02  0.69999978377E+02 0.  0.
        -12    1    1    2    0    0 -0.13052865510E+02 -0.94157522519E+01  0.95731970998E+01  0.18726446304E+02  0.00000000000E+00 0.  1.
         11    1    3    3    0    0  0.94245661858E+01  0.24323611288E+02 -0.46995795762E+01  0.26505594925E+02  0.51100000000E-03 0. -1.
        -11    1    3    3    0    0  0.19404488128E+02  0.13818961321E+01 -0.11155248511E+02  0.22425061115E+02  0.51100000000E-03 0.  1.
         12    1    3    3    0    0 -0.15776188804E+02 -0.16289755168E+02  0.62816309873E+01  0.23530897655E+02  0.00000000000E+00 0. -1.
</event>
<event>
 7    1  0.1905073E-013  0.7246158E+02  0.7816164E-02  0.1226708E+00
        -11   -1    0    0    0    0  0.00000000000E+00  0.00000000000E+00  0.45593999997E+02  0.45594000000E+02  0.51100000000E-03 0.  1.
         11   -1    0    0    0    0 -0.00000000000E+00 -0.00000000000E+00 -0.45593999997E+02  0.45594000000E+02  0.51100000000E-03 0. -1.
    9900012    2    1    2    0    0  0.84649484256E+01  0.10749030540E+02 -0.12786006371E+02  0.72461575667E+02  0.70000006998E+02 0.  0.
        -12    1    1    2    0    0 -0.84649484256E+01 -0.10749030540E+02  0.12786006371E+02  0.18726424333E+02  0.00000000000E+00 0.  1.
         11    1    3    3    0    0  0.32055128326E+02  0.14454162730E+02  0.69850467091E+01  0.35850313109E+02  0.51100000000E-03 0. -1.
        -11    1    3    3    0    0 -0.10513503245E+02 -0.10038695408E+02 -0.15964689349E+02  0.21591212616E+02  0.51100000000E-03 0.  1.
         12    1    3    3    0    0 -0.13076676655E+02  0.63335632181E+01 -0.38063637315E+01  0.15020049941E+02  0.00000000000E+00 0. -1.
</event>
<event>
 7    1  0.1905073E-013  0.7246167E+02  0.7816164E-02  0.1226708E+00
        -11   -1    0    0    0    0  0.00000000000E+00  0.00000000000E+00  0.45593999997E+02  0.45594000000E+02  0.51100000000E-03 0.  1.
         11   -1    0    0    0    0 -0.00000000000E+00 -0.00000000000E+00 -0.45593999997E+02  0.45594000000E+02  0.51100000000E-03 0. -1.
    9900012    2    1    2    0    0 -0.75374129225E+01 -0.15463161314E+02 -0.73995661664E+01  0.72461667448E+02  0.70000126561E+02 0.  0.
        -12    1    1    2    0    0  0.75374129225E+01  0.15463161314E+02  0.73995661664E+01  0.18726332552E+02  0.00000000000E+00 0.  1.
         11    1    3    3    0    0  0.60630073053E+01 -0.26898255781E+02 -0.31500004610E+02  0.41863188033E+02  0.51100000000E-03 0. -1.
        -11    1    3    3    0    0 -0.12000171399E+02  0.78630720766E+01  0.15340590003E+02  0.21003945296E+02  0.51100000000E-03 0.  1.
         12    1    3    3    0    0 -0.16002488288E+01  0.35720223903E+01  0.87598484399E+01  0.95945341190E+01  0.00000000000E+00 0. -1.
</event>
<event>
 7    1  0.1905073E-013  0.7246158E+02  0.7816164E-02  0.1226708E+00
        -11   -1    0    0    0    0  0.00000000000E+00  0.00000000000E+00  0.45593999997E+02  0.45594000000E+02  0.51100000000E-03 0.  1.
         11   -1    0    0    0    0 -0.00000000000E+00 -0.00000000000E+00 -0.45593999997E+02  0.45594000000E+02  0.51100000000E-03 0. -1.
    9900012    2    1    2    0    0  0.44934476118E+01  0.18055967395E+02 -0.21141625607E+01  0.72461582474E+02  0.70000015867E+02 0.  0.
        -12    1    1    2    0    0 -0.44934476118E+01 -0.18055967395E+02  0.21141625607E+01  0.18726417526E+02  0.00000000000E+00 0.  1.
         11    1    3    3    0    0  0.31865659499E+02  0.21090681827E+02 -0.10137902545E+02  0.39534974182E+02  0.51100000000E-03 0. -1.
        -11    1    3    3    0    0 -0.13069035546E+02 -0.54216228450E+01 -0.32992596571E+01  0.14528551164E+02  0.51100000000E-03 0.  1.
         12    1    3    3    0    0 -0.14303176341E+02  0.23869084128E+01  0.11322999642E+02  0.18398057129E+02  0.00000000000E+00 0. -1.
</event>
<event>
 7    1  0.1905073E-013  0.7246159E+02  0.7816164E-02  0.1226708E+00
        -11   -1    0    0    0    0  0.00000000000E+00  0.00000000000E+00  0.45593999997E+02  0.45594000000E+02  0.51100000000E-03 0.  1.
         11   -1    0    0    0    0 -0.00000000000E+00 -0.00000000000E+00 -0.45593999997E+02  0.45594000000E+02  0.51100000000E-03 0. -1.
    9900012    2    1    2    0    0 -0.67877883696E+01  0.98724694163E+01 -0.14392319724E+02  0.72461585758E+02  0.70000020144E+02 0.  0.
        -12    1    1    2    0    0  0.67877883696E+01 -0.98724694163E+01  0.14392319724E+02  0.18726414242E+02  0.00000000000E+00 0.  1.
         11    1    3    3    0    0 -0.42079069229E+01 -0.14460714916E+02 -0.22238220985E+02  0.26858094300E+02  0.51100000000E-03 0.  1.
        -11    1    3    3    0    0  0.32165766818E+01  0.17540050664E+02  0.22336772092E+02  0.28582007113E+02  0.51100000000E-03 0. -1.
         12    1    3    3    0    0 -0.57964581285E+01  0.67931336691E+01 -0.14490870831E+02  0.17021484345E+02  0.00000000000E+00 0. -1.
</event>
<event>
 7    1  0.1905073E-013  0.7246159E+02  0.7816164E-02  0.1226708E+00
        -11   -1    0    0    0    0  0.00000000000E+00  0.00000000000E+00  0.45593999997E+02  0.45594000000E+02  0.51100000000E-03 0.  1.
         11   -1    0    0    0    0 -0.00000000000E+00 -0.00000000000E+00 -0.45593999997E+02  0.45594000000E+02  0.51100000000E-03 0. -1.
    9900012    2    1    2    0    0  0.79902816369E+01  0.12595412533E+02 -0.11322082447E+02  0.72461586343E+02  0.70000020906E+02 0.  0.
        -12    1    1    2    0    0 -0.79902816369E+01 -0.12595412533E+02  0.11322082447E+02  0.18726413657E+02  0.00000000000E+00 0.  1.
         11    1    3    3    0    0  0.16525278802E+02  0.25268990991E+02 -0.15848139518E+02  0.34099417467E+02  0.51100000000E-03 0. -1.
        -11    1    3    3    0    0 -0.21173837122E+02 -0.37404450616E+01  0.71600981840E+01  0.22662508996E+02  0.51100000000E-03 0.  1.
        -12    1    3    3    0    0  0.12638839957E+02 -0.89331333961E+01 -0.26340411130E+01  0.15699659879E+02  0.00000000000E+00 0.  1.
</event>
<event>
 7    1  0.1905073E-013  0.7246156E+02  0.7816164E-02  0.1226708E+00
        -11   -1    0    0    0    0  0.00000000000E+00  0.00000000000E+00  0.45593999997E+02  0.45594000000E+02  0.51100000000E-03 0. -1.
         11   -1    0    0    0    0 -0.00000000000E+00 -0.00000000000E+00 -0.45593999997E+02  0.45594000000E+02  0.51100000000E-03 0.  1.
    9900012    2    1    2    0    0  0.47323086356E+01 -0.14908434754E+02 -0.10296773895E+02  0.72461555476E+02  0.69999980697E+02 0.  0.
        -12    1    1    2    0    0 -0.47323086356E+01  0.14908434754E+02  0.10296773895E+02  0.18726444524E+02  0.00000000000E+00 0.  1.
         11    1    3    3    0    0 -0.38083423705E+01  0.13314110250E+01  0.63519501537E+01  0.75248520214E+01  0.51100000000E-03 0. -1.
        -11    1    3    3    0    0  0.29353378824E+02 -0.13542777047E+02 -0.26454990980E+02  0.41771930845E+02  0.51100000000E-03 0.  1.
        -12    1    3    3    0    0 -0.20812727818E+02 -0.26970687323E+01  0.98062669310E+01  0.23164772610E+02  0.00000000000E+00 0.  1.
</event>
<event>
 7    1  0.1905073E-013  0.7246154E+02  0.7816164E-02  0.1226708E+00
        -11   -1    0    0    0    0  0.00000000000E+00  0.00000000000E+00  0.45593999997E+02  0.45594000000E+02  0.51100000000E-03 0.  1.
         11   -1    0    0    0    0 -0.00000000000E+00 -0.00000000000E+00 -0.45593999997E+02  0.45594000000E+02  0.51100000000E-03 0. -1.
    9900012    2    1    2    0    0 -0.16154446563E+01 -0.29963299455E+01 -0.18414467767E+02  0.72461540705E+02  0.69999961455E+02 0.  0.
        -12    1    1    2    0    0  0.16154446563E+01  0.29963299455E+01  0.18414467767E+02  0.18726459295E+02  0.00000000000E+00 0.  1.
         11    1    3    3    0    0 -0.14991064013E+02  0.19067116069E+02 -0.24910845066E+02  0.34768334985E+02  0.51100000000E-03 0. -1.
        -11    1    3    3    0    0  0.28123217701E+00  0.37973886829E+01  0.77969213964E+01  0.86770522569E+01  0.51100000000E-03 0.  1.
         12    1    3    3    0    0  0.13094387180E+02 -0.25860834698E+02 -0.13005440974E+01  0.29016153464E+02  0.00000000000E+00 0. -1.
</event>
<event>
 7    1  0.1905073E-013  0.7246157E+02  0.7816164E-02  0.1226708E+00
        -11   -1    0    0    0    0  0.00000000000E+00  0.00000000000E+00  0.45593999997E+02  0.45594000000E+02  0.51100000000E-03 0. -1.
         11   -1    0    0    0    0 -0.00000000000E+00 -0.00000000000E+00 -0.45593999997E+02  0.45594000000E+02  0.51100000000E-03 0.  1.
    9900012    2    1    2    0    0 -0.10931834524E+02  0.11363483898E+02  0.10101750219E+02  0.72461571353E+02  0.70000001379E+02 0.  0.
        -12    1    1    2    0    0  0.10931834524E+02 -0.11363483898E+02 -0.10101750219E+02  0.18726428647E+02  0.00000000000E+00 0.  1.
         11    1    3    3    0    0  0.17055201717E+02  0.83708356383E+01  0.15692877606E+02  0.24641777588E+02  0.51100000000E-03 0. -1.
        -11    1    3    3    0    0 -0.17888084638E+02 -0.14730276839E+02 -0.12442362825E+02  0.26301654334E+02  0.51100000000E-03 0.  1.
         12    1    3    3    0    0 -0.10098951603E+02  0.17722925099E+02  0.68512354382E+01  0.21518139431E+02  0.00000000000E+00 0. -1.
</event>
<event>
 7    1  0.1905073E-013  0.7246158E+02  0.7816164E-02  0.1226708E+00
        -11   -1    0    0    0    0  0.00000000000E+00  0.00000000000E+00  0.45593999997E+02  0.45594000000E+02  0.51100000000E-03 0.  1.
         11   -1    0    0    0    0 -0.00000000000E+00 -0.00000000000E+00 -0.45593999997E+02  0.45594000000E+02  0.51100000000E-03 0. -1.
    9900012    2    1    2    0    0  0.99866697873E+01 -0.50857202340E+01 -0.15002686775E+02  0.72461581917E+02  0.70000015141E+02 0.  0.
        -12    1    1    2    0    0 -0.99866697873E+01  0.50857202340E+01  0.15002686775E+02  0.18726418083E+02  0.00000000000E+00 0.  1.
         11    1    3    3    0    0  0.89608490939E+01  0.22827959750E+01  0.47277851370E+01  0.10385563370E+02  0.51100000000E-03 0. -1.
        -11    1    3    3    0    0 -0.20158089125E+02 -0.20089637723E+02  0.28511326618E+01  0.28601941520E+02  0.51100000000E-03 0.  1.
        -12    1    3    3    0    0  0.21183909818E+02  0.12721121514E+02 -0.22581604574E+02  0.33474077028E+02  0.00000000000E+00 0.  1.
</event>
<event>
 7    1  0.1905073E-013  0.7246156E+02  0.7816164E-02  0.1226708E+00
        -11   -1    0    0    0    0  0.00000000000E+00  0.00000000000E+00  0.45593999997E+02  0.45594000000E+02  0.51100000000E-03 0. -1.
         11   -1    0    0    0    0 -0.00000000000E+00 -0.00000000000E+00 -0.45593999997E+02  0.45594000000E+02  0.51100000000E-03 0.  1.
    9900012    2    1    2    0    0 -0.18184134271E+02  0.44422979421E+01  0.53174626727E+00  0.72461561357E+02  0.69999988357E+02 0.  0.
        -12    1    1    2    0    0  0.18184134271E+02 -0.44422979421E+01 -0.53174626727E+00  0.18726438643E+02  0.00000000000E+00 0.  1.
         11    1    3    3    0    0 -0.15585418869E+02  0.20628319192E+02  0.28758669137E+01  0.26013524266E+02  0.51100000000E-03 0. -1.
        -11    1    3    3    0    0  0.17013838631E+02 -0.58885179066E+01  0.10499980692E+02  0.20842143433E+02  0.51100000000E-03 0.  1.
        -12    1    3    3    0    0 -0.19612554033E+02 -0.10297503343E+02 -0.12844101338E+02  0.25605893657E+02  0.00000000000E+00 0.  1.
</event>
<event>
 7    1  0.1905073E-013  0.7246154E+02  0.7816164E-02  0.1226708E+00
        -11   -1    0    0    0    0  0.00000000000E+00  0.00000000000E+00  0.45593999997E+02  0.45594000000E+02  0.51100000000E-03 0. -1.
         11   -1    0    0    0    0 -0.00000000000E+00 -0.00000000000E+00 -0.45593999997E+02  0.45594000000E+02  0.51100000000E-03 0.  1.
    9900012    2    1    2    0    0 -0.18679656649E+02 -0.13183436791E+01  0.11289771059E+00  0.72461538816E+02  0.69999958994E+02 0.  0.
        -12    1    1    2    0    0  0.18679656649E+02  0.13183436791E+01 -0.11289771059E+00  0.18726461184E+02  0.00000000000E+00 0.  1.
         11    1    3    3    0    0 -0.45834298247E+01  0.10783708861E+02 -0.30323469639E+02  0.32508599123E+02  0.51100000000E-03 0. -1.
        -11    1    3    3    0    0 -0.29521076252E+01 -0.66651940160E+01  0.22187111713E+00  0.72930773858E+01  0.51100000000E-03 0.  1.
         12    1    3    3    0    0 -0.11144119199E+02 -0.54368585242E+01  0.30214496232E+02  0.32659862307E+02  0.00000000000E+00 0. -1.
</event>
<event>
 7    1  0.1905073E-013  0.7246155E+02  0.7816164E-02  0.1226708E+00
        -11   -1    0    0    0    0  0.00000000000E+00  0.00000000000E+00  0.45593999997E+02  0.45594000000E+02  0.51100000000E-03 0. -1.
         11   -1    0    0    0    0 -0.00000000000E+00 -0.00000000000E+00 -0.45593999997E+02  0.45594000000E+02  0.51100000000E-03 0.  1.
    9900012    2    1    2    0    0 -0.16743262935E+01 -0.18358849135E+02 -0.32907726672E+01  0.72461550928E+02  0.69999974771E+02 0.  0.
        -12    1    1    2    0    0  0.16743262935E+01  0.18358849135E+02  0.32907726672E+01  0.18726449072E+02  0.00000000000E+00 0.  1.
         11    1    3    3    0    0 -0.11811503815E+02  0.10792402034E+02  0.17507188853E+02  0.23716855311E+02  0.51100000000E-03 0. -1.
        -11    1    3    3    0    0  0.20319078426E+02 -0.18470435534E+02 -0.19992237730E+02  0.33966329012E+02  0.51100000000E-03 0.  1.
         12    1    3    3    0    0 -0.10181900904E+02 -0.10680815636E+02 -0.80572379007E+00  0.14778366604E+02  0.00000000000E+00 0. -1.
</event>
<event>
 7    1  0.1905073E-013  0.7246157E+02  0.7816164E-02  0.1226708E+00
        -11   -1    0    0    0    0  0.00000000000E+00  0.00000000000E+00  0.45593999997E+02  0.45594000000E+02  0.51100000000E-03 0. -1.
         11   -1    0    0    0    0 -0.00000000000E+00 -0.00000000000E+00 -0.45593999997E+02  0.45594000000E+02  0.51100000000E-03 0.  1.
    9900012    2    1    2    0    0 -0.52687294703E+01  0.12451747658E+02 -0.12956611210E+02  0.72461566704E+02  0.69999995323E+02 0.  0.
        -12    1    1    2    0    0  0.52687294703E+01 -0.12451747658E+02  0.12956611210E+02  0.18726433296E+02  0.00000000000E+00 0.  1.
         11    1    3    3    0    0  0.90467828547E+01  0.12057473439E+02  0.15870040643E+02  0.21888013524E+02  0.51100000000E-03 0. -1.
        -11    1    3    3    0    0 -0.17178189635E+02 -0.15225873511E+02 -0.78416780017E+01  0.24257150234E+02  0.51100000000E-03 0.  1.
        -12    1    3    3    0    0  0.28626773102E+01  0.15620147729E+02 -0.20984973851E+02  0.26316402946E+02  0.00000000000E+00 0.  1.
</event>
<event>
 7    1  0.1905073E-013  0.7246152E+02  0.7816164E-02  0.1226708E+00
        -11   -1    0    0    0    0  0.00000000000E+00  0.00000000000E+00  0.45593999997E+02  0.45594000000E+02  0.51100000000E-03 0.  1.
         11   -1    0    0    0    0 -0.00000000000E+00 -0.00000000000E+00 -0.45593999997E+02  0.45594000000E+02  0.51100000000E-03 0. -1.
    9900012    2    1    2    0    0  0.72970794646E+01  0.30500430736E+01 -0.16974419597E+02  0.72461520029E+02  0.69999934520E+02 0.  0.
        -12    1    1    2    0    0 -0.72970794646E+01 -0.30500430736E+01  0.16974419597E+02  0.18726479971E+02  0.00000000000E+00 0.  1.
         11    1    3    3    0    0 -0.15549992313E+02  0.12056877838E+02  0.10059816994E+02  0.22099105918E+02  0.51100000000E-03 0.  1.
        -11    1    3    3    0    0 -0.42628146648E+01 -0.63229636300E+01 -0.21162348252E+02  0.22494364666E+02  0.51100000000E-03 0. -1.
         12    1    3    3    0    0  0.27109886443E+02 -0.26838711348E+01 -0.58718883381E+01  0.27868049445E+02  0.00000000000E+00 0. -1.
</event>
<event>
 7    1  0.1905073E-013  0.7246150E+02  0.7816164E-02  0.1226708E+00
        -11   -1    0    0    0    0  0.00000000000E+00  0.00000000000E+00  0.45593999997E+02  0.45594000000E+02  0.51100000000E-03 0.  1.
         11   -1    0    0    0    0 -0.00000000000E+00 -0.00000000000E+00 -0.45593999997E+02  0.45594000000E+02  0.51100000000E-03 0. -1.
    9900012    2    1    2    0    0  0.17309382522E+02  0.13886181775E+01  0.70099180196E+01  0.72461496473E+02  0.69999903833E+02 0.  0.
        -12    1    1    2    0    0 -0.17309382522E+02 -0.13886181775E+01 -0.70099180196E+01  0.18726503527E+02  0.00000000000E+00 0.  1.
         11    1    3    3    0    0  0.29504833701E+02 -0.20288575176E+02 -0.71946747274E+01  0.36522935795E+02  0.51100000000E-03 0. -1.
        -11    1    3    3    0    0 -0.29720189518E+01  0.21659891985E+02  0.15249973918E+02  0.26656059765E+02  0.51100000000E-03 0.  1.
        -12    1    3    3    0    0 -0.92234322277E+01  0.17301368732E-01 -0.10453811711E+01  0.92825009124E+01  0.00000000000E+00 0.  1.
</event>
<event>
 7    1  0.1905073E-013  0.7246151E+02  0.7816164E-02  0.1226708E+00
        -11   -1    0    0    0    0  0.00000000000E+00  0.00000000000E+00  0.45593999997E+02  0.45594000000E+02  0.51100000000E-03 0. -1.
         11   -1    0    0    0    0 -0.00000000000E+00 -0.00000000000E+00 -0.45593999997E+02  0.45594000000E+02  0.51100000000E-03 0.  1.
    9900012    2    1    2    0    0 -0.14243868985E+02  0.37523370195E+01 -0.11563453211E+02  0.72461513760E+02  0.69999926353E+02 0.  0.
        -12    1    1    2    0    0  0.14243868985E+02 -0.37523370195E+01  0.11563453211E+02  0.18726486240E+02  0.00000000000E+00 0.  1.
         11    1    3    3    0    0 -0.12256116123E+02 -0.20691223464E+02  0.89181510611E+01  0.25649025897E+02  0.51100000000E-03 0. -1.
        -11    1    3    3    0    0 -0.15125729955E+02  0.16001209574E+02 -0.21995294377E+02  0.31122650747E+02  0.51100000000E-03 0.  1.
        -12    1    3    3    0    0  0.13137977094E+02  0.84423509092E+01  0.15136901053E+01  0.15689837116E+02  0.00000000000E+00 0.  1.
</event>
<event>
 7    1  0.1905073E-013  0.7246160E+02  0.7816164E-02  0.1226708E+00
        -11   -1    0    0    0    0  0.00000000000E+00  0.00000000000E+00  0.45593999997E+02  0.45594000000E+02  0.51100000000E-03 0. -1.
         11   -1    0    0    0    0 -0.00000000000E+00 -0.00000000000E+00 -0.45593999997E+02  0.45594000000E+02  0.51100000000E-03 0.  1.
    9900012    2    1    2    0    0  0.13546726527E+02 -0.11182090375E+02 -0.64903745159E+01  0.72461604028E+02  0.70000043944E+02 0.  0.
        -12    1    1    2    0    0 -0.13546726527E+02  0.11182090375E+02  0.64903745159E+01  0.18726395972E+02  0.00000000000E+00 0.  1.
         11    1    3    3    0    0  0.21699122096E+01  0.29365852413E+01  0.28483906874E+02  0.28716981091E+02  0.51100000000E-03 0. -1.
        -11    1    3    3    0    0  0.21139897047E+01 -0.13170872743E+02 -0.88439185209E+01  0.16004866021E+02  0.51100000000E-03 0.  1.
         12    1    3    3    0    0  0.92628246127E+01 -0.94780287374E+00 -0.26130362869E+02  0.27739756916E+02  0.00000000000E+00 0. -1.
</event>
<event>
 7    1  0.3055564E-013  0.7246155E+02  0.7816164E-02  0.1226708E+00
        -11   -1    0    0    0    0  0.00000000000E+00  0.00000000000E+00  0.45593999997E+02  0.45594000000E+02  0.51100000000E-03 0. -1.
         11   -1    0    0    0    0 -0.00000000000E+00 -0.00000000000E+00 -0.45593999997E+02  0.45594000000E+02  0.51100000000E-03 0.  1.
    9900012    2    1    2    0    0  0.97503922481E+01 -0.21514856054E+01  0.15842374284E+02  0.72461551798E+02  0.69999975905E+02 0.  0.
        -12    1    1    2    0    0 -0.97503922481E+01  0.21514856054E+01 -0.15842374284E+02  0.18726448202E+02  0.00000000000E+00 0.  1.
         11    1    3    3    0    0 -0.25472055047E+01  0.18860725734E+02  0.28879429261E+02  0.34586654447E+02  0.51100000000E-03 0. -1.
        -11    1    3    3    0    0 -0.23805142749E+01 -0.48853291992E+01 -0.15025356815E+02  0.15977942211E+02  0.51100000000E-03 0.  1.
         12    1    3    3    0    0  0.14678112028E+02 -0.16126882140E+02  0.19883018378E+01  0.21896955141E+02  0.00000000000E+00 0. -1.
</event>
<event>
 7    1  0.1905073E-013  0.7246157E+02  0.7816164E-02  0.1226708E+00
        -11   -1    0    0    0    0  0.00000000000E+00  0.00000000000E+00  0.45593999997E+02  0.45594000000E+02  0.51100000000E-03 0.  1.
         11   -1    0    0    0    0 -0.00000000000E+00 -0.00000000000E+00 -0.45593999997E+02  0.45594000000E+02  0.51100000000E-03 0. -1.
    9900012    2    1    2    0    0 -0.84185316323E+01  0.13781572895E+02 -0.94802894253E+01  0.72461566440E+02  0.69999994978E+02 0.  0.
        -12    1    1    2    0    0  0.84185316323E+01 -0.13781572895E+02  0.94802894253E+01  0.18726433560E+02  0.00000000000E+00 0.  1.
         11    1    3    3    0    0  0.73532422993E+01 -0.15501832718E+02  0.21139780508E+02  0.27226224676E+02  0.51100000000E-03 0.  1.
        -11    1    3    3    0    0 -0.12360208668E+02  0.21532681327E+02 -0.22841419319E+02  0.33736650104E+02  0.51100000000E-03 0. -1.
        -12    1    3    3    0    0 -0.34115652637E+01  0.77507242861E+01 -0.77786506143E+01  0.11498691660E+02  0.00000000000E+00 0.  1.
</event>
<event>
 7    1  0.1905073E-013  0.7246159E+02  0.7816164E-02  0.1226708E+00
        -11   -1    0    0    0    0  0.00000000000E+00  0.00000000000E+00  0.45593999997E+02  0.45594000000E+02  0.51100000000E-03 0. -1.
         11   -1    0    0    0    0 -0.00000000000E+00 -0.00000000000E+00 -0.45593999997E+02  0.45594000000E+02  0.51100000000E-03 0.  1.
    9900012    2    1    2    0    0 -0.45615800995E+01 -0.29713540277E+01  0.17917633616E+02  0.72461586778E+02  0.70000021472E+02 0.  0.
        -12    1    1    2    0    0  0.45615800995E+01  0.29713540277E+01 -0.17917633616E+02  0.18726413222E+02  0.00000000000E+00 0.  1.
         11    1    3    3    0    0 -0.21014740487E+02 -0.65974442921E+01 -0.93377870476E+00  0.22045805312E+02  0.51100000000E-03 0. -1.
        -11    1    3    3    0    0  0.54482438606E+01  0.80961998165E+01 -0.13095756098E+02  0.16331890297E+02  0.51100000000E-03 0.  1.
         12    1    3    3    0    0  0.11004916526E+02 -0.44701095522E+01  0.31947168420E+02  0.34083891169E+02  0.00000000000E+00 0. -1.
</event>
<event>
 7    1  0.1905073E-013  0.7246145E+02  0.7816164E-02  0.1226708E+00
        -11   -1    0    0    0    0  0.00000000000E+00  0.00000000000E+00  0.45593999997E+02  0.45594000000E+02  0.51100000000E-03 0. -1.
         11   -1    0    0    0    0 -0.00000000000E+00 -0.00000000000E+00 -0.45593999997E+02  0.45594000000E+02  0.51100000000E-03 0.  1.
    9900012    2    1    2    0    0 -0.16339004216E+02 -0.90537415817E+01  0.13230760213E+01  0.72461445977E+02  0.69999838054E+02 0.  0.
        -12    1    1    2    0    0  0.16339004216E+02  0.90537415817E+01 -0.13230760213E+01  0.18726554023E+02  0.00000000000E+00 0.  1.
         11    1    3    3    0    0  0.27349712680E-01  0.21711480030E+02 -0.20684142819E+01  0.21809801718E+02  0.51100000000E-03 0.  1.
        -11    1    3    3    0    0 -0.49429043056E+01 -0.63169251971E+01  0.18186363510E+02  0.19876611001E+02  0.51100000000E-03 0. -1.
         12    1    3    3    0    0 -0.11423449623E+02 -0.24448296414E+02 -0.14794873206E+02  0.30775033258E+02  0.00000000000E+00 0. -1.
</event>
<event>
 7    1  0.1905073E-013  0.7246158E+02  0.7816164E-02  0.1226708E+00
        -11   -1    0    0    0    0  0.00000000000E+00  0.00000000000E+00  0.45593999997E+02  0.45594000000E+02  0.51100000000E-03 0.  1.
         11   -1    0    0    0    0 -0.00000000000E+00 -0.00000000000E+00 -0.45593999997E+02  0.45594000000E+02  0.51100000000E-03 0. -1.
    9900012    2    1    2    0    0 -0.32013056687E+01  0.16018282671E+02 -0.91567020927E+01  0.72461576665E+02  0.70000008299E+02 0.  0.
        -12    1    1    2    0    0  0.32013056687E+01 -0.16018282671E+02  0.91567020927E+01  0.18726423335E+02  0.00000000000E+00 0.  1.
         11    1    3    3    0    0 -0.18432929251E+02  0.83185418160E+01 -0.10427658324E+02  0.22753177296E+02  0.51100000000E-03 0. -1.
        -11    1    3    3    0    0  0.34127454967E+01  0.45271150200E+01  0.23586215163E+02  0.24258012042E+02  0.51100000000E-03 0.  1.
        -12    1    3    3    0    0  0.11818878085E+02  0.31726258349E+01 -0.22315258932E+02  0.25450387327E+02  0.00000000000E+00 0.  1.
</event>
<event>
 7    1  0.2388568E-013  0.7246157E+02  0.7816164E-02  0.1226708E+00
        -11   -1    0    0    0    0  0.00000000000E+00  0.00000000000E+00  0.45593999997E+02  0.45594000000E+02  0.51100000000E-03 0. -1.
         11   -1    0    0    0    0 -0.00000000000E+00 -0.00000000000E+00 -0.45593999997E+02  0.45594000000E+02  0.51100000000E-03 0.  1.
    9900012    2    1    2    0    0  0.67096825383E+01 -0.13792540216E+02  0.10743614421E+02  0.72461567980E+02  0.69999996985E+02 0.  0.
        -12    1    1    2    0    0 -0.67096825383E+01  0.13792540216E+02 -0.10743614421E+02  0.18726432020E+02  0.00000000000E+00 0.  1.
         11    1    3    3    0    0 -0.15594072224E+02  0.14988783517E+02 -0.95639952666E+00  0.21650714080E+02  0.51100000000E-03 0. -1.
        -11    1    3    3    0    0  0.18043959964E+02 -0.15673568318E+02 -0.93380098447E+01  0.25660157114E+02  0.51100000000E-03 0.  1.
         12    1    3    3    0    0  0.42597947987E+01 -0.13107755415E+02  0.21038023793E+02  0.25150696786E+02  0.00000000000E+00 0. -1.
</event>
<event>
 7    1  0.1905073E-013  0.7246158E+02  0.7816164E-02  0.1226708E+00
        -11   -1    0    0    0    0  0.00000000000E+00  0.00000000000E+00  0.45593999997E+02  0.45594000000E+02  0.51100000000E-03 0. -1.
         11   -1    0    0    0    0 -0.00000000000E+00 -0.00000000000E+00 -0.45593999997E+02  0.45594000000E+02  0.51100000000E-03 0.  1.
    9900012    2    1    2    0    0  0.90135386217E+01 -0.12975143682E+02  0.10053882011E+02  0.72461580813E+02  0.70000013703E+02 0.  0.
        -12    1    1    2    0    0 -0.90135386217E+01  0.12975143682E+02 -0.10053882011E+02  0.18726419187E+02  0.00000000000E+00 0.  1.
         11    1    3    3    0    0  0.30231530454E+02 -0.16625655262E+02 -0.10972907662E+02  0.36204454827E+02  0.51100000000E-03 0. -1.
        -11    1    3    3    0    0 -0.16134748355E+02  0.96332239751E+01  0.21296422046E+02  0.28401878474E+02  0.51100000000E-03 0.  1.
        -12    1    3    3    0    0 -0.50832434776E+01 -0.59827123952E+01 -0.26963237276E+00  0.78552475119E+01  0.00000000000E+00 0.  1.
</event>
<event>
 7    1  0.1905073E-013  0.7246158E+02  0.7816164E-02  0.1226708E+00
        -11   -1    0    0    0    0  0.00000000000E+00  0.00000000000E+00  0.45593999997E+02  0.45594000000E+02  0.51100000000E-03 0. -1.
         11   -1    0    0    0    0 -0.00000000000E+00 -0.00000000000E+00 -0.45593999997E+02  0.45594000000E+02  0.51100000000E-03 0.  1.
    9900012    2    1    2    0    0 -0.16973372589E+02  0.78201164307E+01 -0.11954237763E+01  0.72461584539E+02  0.70000018556E+02 0.  0.
        -12    1    1    2    0    0  0.16973372589E+02 -0.78201164307E+01  0.11954237763E+01  0.18726415461E+02  0.00000000000E+00 0.  1.
         11    1    3    3    0    0 -0.33128262420E+02  0.27219077120E+02 -0.11770011511E+02  0.44462266040E+02  0.51100000000E-03 0.  1.
        -11    1    3    3    0    0  0.13603509571E+02 -0.18564673269E+02  0.82527496896E+01  0.24450162453E+02  0.51100000000E-03 0. -1.
        -12    1    3    3    0    0  0.25513802598E+01 -0.83428741958E+00  0.23218380450E+01  0.35491560455E+01  0.00000000000E+00 0.  1.
</event>
<event>
 7    1  0.1905073E-013  0.7246156E+02  0.7816164E-02  0.1226708E+00
        -11   -1    0    0    0    0  0.00000000000E+00  0.00000000000E+00  0.45593999997E+02  0.45594000000E+02  0.51100000000E-03 0.  1.
         11   -1    0    0    0    0 -0.00000000000E+00 -0.00000000000E+00 -0.45593999997E+02  0.45594000000E+02  0.51100000000E-03 0. -1.
    9900012    2    1    2    0    0  0.31425845352E+01 -0.34015560577E+01 -0.18144779490E+02  0.72461562968E+02  0.69999990456E+02 0.  0.
        -12    1    1    2    0    0 -0.31425845352E+01  0.34015560577E+01  0.18144779490E+02  0.18726437032E+02  0.00000000000E+00 0.  1.
         11    1    3    3    0    0  0.10809679080E+02  0.24018238424E+02  0.97693789551E+01  0.28092093269E+02  0.51100000000E-03 0.  1.
        -11    1    3    3    0    0  0.41256660947E+01 -0.12740312270E+02 -0.40894229081E+01  0.14002144745E+02  0.51100000000E-03 0. -1.
         12    1    3    3    0    0 -0.11792760639E+02 -0.14679482212E+02 -0.23824735537E+02  0.30367324955E+02  0.00000000000E+00 0. -1.
</event>
<event>
 7    1  0.1905073E-013  0.7246157E+02  0.7816164E-02  0.1226708E+00
        -11   -1    0    0    0    0  0.00000000000E+00  0.00000000000E+00  0.45593999997E+02  0.45594000000E+02  0.51100000000E-03 0. -1.
         11   -1    0    0    0    0 -0.00000000000E+00 -0.00000000000E+00 -0.45593999997E+02  0.45594000000E+02  0.51100000000E-03 0.  1.
    9900012    2    1    2    0    0  0.10549867133E+01 -0.14787630244E+02  0.11440808022E+02  0.72461572326E+02  0.70000002647E+02 0.  0.
        -12    1    1    2    0    0 -0.10549867133E+01  0.14787630244E+02 -0.11440808022E+02  0.18726427674E+02  0.00000000000E+00 0.  1.
         11    1    3    3    0    0  0.17710751161E+02  0.17138010519E+02  0.17448965483E+00  0.24645741177E+02  0.51100000000E-03 0. -1.
        -11    1    3    3    0    0 -0.19671439320E+02 -0.62878031812E+01  0.52812249383E+01  0.21316503721E+02  0.51100000000E-03 0.  1.
        -12    1    3    3    0    0  0.30156748720E+01 -0.25637837583E+02  0.59850934291E+01  0.26499327429E+02  0.00000000000E+00 0.  1.
</event>
<event>
 7    1  0.1905073E-013  0.7246150E+02  0.7816164E-02  0.1226708E+00
        -11   -1    0    0    0    0  0.00000000000E+00  0.00000000000E+00  0.45593999997E+02  0.45594000000E+02  0.51100000000E-03 0. -1.
         11   -1    0    0    0    0 -0.00000000000E+00 -0.00000000000E+00 -0.45593999997E+02  0.45594000000E+02  0.51100000000E-03 0.  1.
    9900012    2    1    2    0    0 -0.15651321128E+02  0.21191816810E+01  0.10061172439E+02  0.72461495390E+02  0.69999902424E+02 0.  0.
        -12    1    1    2    0    0  0.15651321128E+02 -0.21191816810E+01 -0.10061172439E+02  0.18726504610E+02  0.00000000000E+00 0.  1.
         11    1    3    3    0    0 -0.32745486021E+02  0.17218457521E+01  0.19236445066E+02  0.38016738768E+02  0.51100000000E-03 0. -1.
        -11    1    3    3    0    0  0.20163729464E+02 -0.19440147406E+01  0.40581434299E+01  0.20659712185E+02  0.51100000000E-03 0.  1.
        -12    1    3    3    0    0 -0.30695645703E+01  0.23413506695E+01 -0.13233416057E+02  0.13785044437E+02  0.00000000000E+00 0.  1.
</event>
<event>
 7    1  0.1905073E-013  0.7246158E+02  0.7816164E-02  0.1226708E+00
        -11   -1    0    0    0    0  0.00000000000E+00  0.00000000000E+00  0.45593999997E+02  0.45594000000E+02  0.51100000000E-03 0.  1.
         11   -1    0    0    0    0 -0.00000000000E+00 -0.00000000000E+00 -0.45593999997E+02  0.45594000000E+02  0.51100000000E-03 0. -1.
    9900012    2    1    2    0    0 -0.73270942763E+01  0.12529045359E+02 -0.11832820815E+02  0.72461576514E+02  0.70000008102E+02 0.  0.
        -12    1    1    2    0    0  0.73270942763E+01 -0.12529045359E+02  0.11832820815E+02  0.18726423486E+02  0.00000000000E+00 0.  1.
         11    1    3    3    0    0 -0.47526489892E+01 -0.21538542958E+02  0.30659230474E+01  0.22268731206E+02  0.51100000000E-03 0. -1.
        -11    1    3    3    0    0 -0.54977534082E+01  0.35094558835E+02 -0.22455848357E+02  0.42025212409E+02  0.51100000000E-03 0.  1.
        -12    1    3    3    0    0  0.29233081211E+01 -0.10269705177E+01  0.75571044952E+01  0.81676328986E+01  0.00000000000E+00 0.  1.
</event>
<event>
 7    1  0.1905073E-013  0.7246158E+02  0.7816164E-02  0.1226708E+00
        -11   -1    0    0    0    0  0.00000000000E+00  0.00000000000E+00  0.45593999997E+02  0.45594000000E+02  0.51100000000E-03 0.  1.
         11   -1    0    0    0    0 -0.00000000000E+00 -0.00000000000E+00 -0.45593999997E+02  0.45594000000E+02  0.51100000000E-03 0. -1.
    9900012    2    1    2    0    0  0.87369850222E+01  0.13182517654E+02 -0.10028219949E+02  0.72461578176E+02  0.70000010268E+02 0.  0.
        -12    1    1    2    0    0 -0.87369850222E+01 -0.13182517654E+02  0.10028219949E+02  0.18726421824E+02  0.00000000000E+00 0.  1.
         11    1    3    3    0    0  0.33159037397E+02  0.15139700442E+02 -0.78467757647E+01  0.37286782923E+02  0.51100000000E-03 0. -1.
        -11    1    3    3    0    0 -0.17840670826E+02  0.70827570889E+01  0.72778037362E+01  0.20528551117E+02  0.51100000000E-03 0.  1.
        -12    1    3    3    0    0 -0.65813815492E+01 -0.90399398768E+01 -0.94592479204E+01  0.14646244136E+02  0.00000000000E+00 0.  1.
</event>
<event>
 7    1  0.1905073E-013  0.7246154E+02  0.7816164E-02  0.1226708E+00
        -11   -1    0    0    0    0  0.00000000000E+00  0.00000000000E+00  0.45593999997E+02  0.45594000000E+02  0.51100000000E-03 0.  1.
         11   -1    0    0    0    0 -0.00000000000E+00 -0.00000000000E+00 -0.45593999997E+02  0.45594000000E+02  0.51100000000E-03 0. -1.
    9900012    2    1    2    0    0  0.17145773429E+02  0.67293483577E+01 -0.33791371786E+01  0.72461541609E+02  0.69999962632E+02 0.  0.
        -12    1    1    2    0    0 -0.17145773429E+02 -0.67293483577E+01  0.33791371786E+01  0.18726458391E+02  0.00000000000E+00 0.  1.
         11    1    3    3    0    0 -0.46115594252E+01  0.17913165445E+02 -0.18131090614E+02  0.25901436712E+02  0.51100000000E-03 0. -1.
        -11    1    3    3    0    0  0.23092198529E+02 -0.21452073912E+02  0.42366285867E+01  0.31802360448E+02  0.51100000000E-03 0.  1.
         12    1    3    3    0    0 -0.13348656747E+01  0.10268256824E+02  0.10515324849E+02  0.14757744450E+02  0.00000000000E+00 0. -1.
</event>
<event>
 7    1  0.1905073E-013  0.7246158E+02  0.7816164E-02  0.1226708E+00
        -11   -1    0    0    0    0  0.00000000000E+00  0.00000000000E+00  0.45593999997E+02  0.45594000000E+02  0.51100000000E-03 0. -1.
         11   -1    0    0    0    0 -0.00000000000E+00 -0.00000000000E+00 -0.45593999997E+02  0.45594000000E+02  0.51100000000E-03 0.  1.
    9900012    2    1    2    0    0  0.50863958386E+01 -0.17367242710E+02  0.48152102591E+01  0.72461580379E+02  0.70000013137E+02 0.  0.
        -12    1    1    2    0    0 -0.50863958386E+01  0.17367242710E+02 -0.48152102591E+01  0.18726419621E+02  0.00000000000E+00 0.  1.
         11    1    3    3    0    0 -0.96414716792E+01 -0.31883459145E+02  0.22531971569E+02  0.40214458672E+02  0.51100000000E-03 0. -1.
        -11    1    3    3    0    0 -0.20192525800E+01  0.82194649561E+01 -0.26865716439E+01  0.88800142233E+01  0.51100000000E-03 0.  1.
         12    1    3    3    0    0  0.16747120098E+02  0.62967514784E+01 -0.15030189667E+02  0.23367107484E+02  0.00000000000E+00 0. -1.
</event>
<event>
 7    1  0.1905073E-013  0.7246157E+02  0.7816164E-02  0.1226708E+00
        -11   -1    0    0    0    0  0.00000000000E+00  0.00000000000E+00  0.45593999997E+02  0.45594000000E+02  0.51100000000E-03 0.  1.
         11   -1    0    0    0    0 -0.00000000000E+00 -0.00000000000E+00 -0.45593999997E+02  0.45594000000E+02  0.51100000000E-03 0. -1.
    9900012    2    1    2    0    0 -0.17037246780E+02 -0.76086040266E+01 -0.15876002507E+01  0.72461571947E+02  0.70000002153E+02 0.  0.
        -12    1    1    2    0    0  0.17037246780E+02  0.76086040266E+01  0.15876002507E+01  0.18726428053E+02  0.00000000000E+00 0.  1.
         11    1    3    3    0    0 -0.14666629369E+02 -0.12883804143E+02 -0.29551905923E+02  0.35417757836E+02  0.51100000000E-03 0. -1.
        -11    1    3    3    0    0 -0.13022844480E+02  0.33830423557E+01  0.16260233055E+02  0.21105322390E+02  0.51100000000E-03 0.  1.
         12    1    3    3    0    0  0.10652227068E+02  0.18921577606E+01  0.11704072617E+02  0.15938491721E+02  0.00000000000E+00 0. -1.
</event>
<event>
 7    1  0.1905073E-013  0.7246154E+02  0.7816164E-02  0.1226708E+00
        -11   -1    0    0    0    0  0.00000000000E+00  0.00000000000E+00  0.45593999997E+02  0.45594000000E+02  0.51100000000E-03 0.  1.
         11   -1    0    0    0    0 -0.00000000000E+00 -0.00000000000E+00 -0.45593999997E+02  0.45594000000E+02  0.51100000000E-03 0. -1.
    9900012    2    1    2    0    0 -0.14317481578E+02  0.27771310866E+01 -0.11746380294E+02  0.72461543159E+02  0.69999964651E+02 0.  0.
        -12    1    1    2    0    0  0.14317481578E+02 -0.27771310866E+01  0.11746380294E+02  0.18726456841E+02  0.00000000000E+00 0.  1.
         11    1    3    3    0    0 -0.12287130564E+02 -0.18159648164E+02 -0.28373086228E+01  0.22108747577E+02  0.51100000000E-03 0. -1.
        -11    1    3    3    0    0  0.20217756259E+02  0.32186822077E+01  0.24744209289E+00  0.20473856773E+02  0.51100000000E-03 0.  1.
         12    1    3    3    0    0 -0.22248107273E+02  0.17718097043E+02 -0.91565137636E+01  0.29878938809E+02  0.00000000000E+00 0. -1.
</event>
<event>
 7    1  0.1905073E-013  0.7246153E+02  0.7816164E-02  0.1226708E+00
        -11   -1    0    0    0    0  0.00000000000E+00  0.00000000000E+00  0.45593999997E+02  0.45594000000E+02  0.51100000000E-03 0. -1.
         11   -1    0    0    0    0 -0.00000000000E+00 -0.00000000000E+00 -0.45593999997E+02  0.45594000000E+02  0.51100000000E-03 0.  1.
    9900012    2    1    2    0    0  0.16503274726E+02  0.16845410671E+01  0.86881953058E+01  0.72461534958E+02  0.69999953968E+02 0.  0.
        -12    1    1    2    0    0 -0.16503274726E+02 -0.16845410671E+01 -0.86881953058E+01  0.18726465042E+02  0.00000000000E+00 0.  1.
         11    1    3    3    0    0 -0.26930240741E+01 -0.27603713379E+02  0.56834033252E+01  0.28311101084E+02  0.51100000000E-03 0.  1.
        -11    1    3    3    0    0  0.24830987445E+02  0.28927471996E+02  0.42779413977E+01  0.38362447217E+02  0.51100000000E-03 0. -1.
         12    1    3    3    0    0 -0.56346886450E+01  0.36078244983E+00 -0.12731494170E+01  0.57879866569E+01  0.00000000000E+00 0. -1.
</event>
<event>
 7    1  0.1905073E-013  0.7246159E+02  0.7816164E-02  0.1226708E+00
        -11   -1    0    0    0    0  0.00000000000E+00  0.00000000000E+00  0.45593999997E+02  0.45594000000E+02  0.51100000000E-03 0.  1.
         11   -1    0    0    0    0 -0.00000000000E+00 -0.00000000000E+00 -0.45593999997E+02  0.45594000000E+02  0.51100000000E-03 0. -1.
    9900012    2    1    2    0    0  0.15755756887E+02 -0.91794307406E+01 -0.42629196097E+01  0.72461593313E+02  0.70000029986E+02 0.  0.
        -12    1    1    2    0    0 -0.15755756887E+02  0.91794307406E+01  0.42629196097E+01  0.18726406687E+02  0.00000000000E+00 0.  1.
         11    1    3    3    0    0 -0.19157765555E+02 -0.14817701042E+02 -0.11764479594E+02  0.26925586820E+02  0.51100000000E-03 0. -1.
        -11    1    3    3    0    0  0.26791388771E+02  0.32828064271E+01 -0.77625293210E+01  0.28085800541E+02  0.51100000000E-03 0.  1.
         12    1    3    3    0    0  0.81221336711E+01  0.23554638738E+01  0.15264089306E+02  0.17450205952E+02  0.00000000000E+00 0. -1.
</event>
<event>
 7    1  0.1905073E-013  0.7246163E+02  0.7816164E-02  0.1226708E+00
        -11   -1    0    0    0    0  0.00000000000E+00  0.00000000000E+00  0.45593999997E+02  0.45594000000E+02  0.51100000000E-03 0. -1.
         11   -1    0    0    0    0 -0.00000000000E+00 -0.00000000000E+00 -0.45593999997E+02  0.45594000000E+02  0.51100000000E-03 0.  1.
    9900012    2    1    2    0    0  0.15425246025E+02 -0.10617773285E+02  0.42015918903E-01  0.72461625823E+02  0.70000072337E+02 0.  0.
        -12    1    1    2    0    0 -0.15425246025E+02  0.10617773285E+02 -0.42015918903E-01  0.18726374177E+02  0.00000000000E+00 0.  1.
         11    1    3    3    0    0  0.25773991716E+02 -0.12705951731E+01  0.17464713429E+02  0.31159738068E+02  0.51100000000E-03 0. -1.
        -11    1    3    3    0    0 -0.13436241898E+02  0.34169414151E+01 -0.23142991081E+02  0.26977882078E+02  0.51100000000E-03 0.  1.
         12    1    3    3    0    0  0.30874962073E+01 -0.12764119527E+02  0.57202935713E+01  0.14324005678E+02  0.00000000000E+00 0. -1.
</event>
<event>
 7    1  0.1905073E-013  0.7246160E+02  0.7816164E-02  0.1226708E+00
        -11   -1    0    0    0    0  0.00000000000E+00  0.00000000000E+00  0.45593999997E+02  0.45594000000E+02  0.51100000000E-03 0. -1.
         11   -1    0    0    0    0 -0.00000000000E+00 -0.00000000000E+00 -0.45593999997E+02  0.45594000000E+02  0.51100000000E-03 0.  1.
    9900012    2    1    2    0    0  0.21963645058E+01 -0.24254154551E+01  0.18438313666E+02  0.72461599705E+02  0.70000038313E+02 0.  0.
        -12    1    1    2    0    0 -0.21963645058E+01  0.24254154551E+01 -0.18438313666E+02  0.18726400295E+02  0.00000000000E+00 0.  1.
         11    1    3    3    0    0 -0.15330391584E+02 -0.13155231666E+02  0.20414788218E+02  0.28720108018E+02  0.51100000000E-03 0. -1.
        -11    1    3    3    0    0  0.58198715152E+01  0.17238773617E+02 -0.16086428274E+02  0.24286197626E+02  0.51100000000E-03 0.  1.
        -12    1    3    3    0    0  0.11706884575E+02 -0.65089574059E+01  0.14109953721E+02  0.19455294061E+02  0.00000000000E+00 0.  1.
</event>
<event>
 7    1  0.1905073E-013  0.7246147E+02  0.7816164E-02  0.1226708E+00
        -11   -1    0    0    0    0  0.00000000000E+00  0.00000000000E+00  0.45593999997E+02  0.45594000000E+02  0.51100000000E-03 0.  1.
         11   -1    0    0    0    0 -0.00000000000E+00 -0.00000000000E+00 -0.45593999997E+02  0.45594000000E+02  0.51100000000E-03 0. -1.
    9900012    2    1    2    0    0  0.18239861356E+02 -0.14319602373E+01 -0.39924674271E+01  0.72461472063E+02  0.69999872035E+02 0.  0.
        -12    1    1    2    0    0 -0.18239861356E+02  0.14319602373E+01  0.39924674271E+01  0.18726527937E+02  0.00000000000E+00 0.  1.
         11    1    3    3    0    0  0.63850883297E+01 -0.12687008596E+02  0.71074185611E+01  0.15882220845E+02  0.51100000000E-03 0.  1.
        -11    1    3    3    0    0  0.19530233885E+02  0.10254780395E+02 -0.29373388500E+02  0.36733996635E+02  0.51100000000E-03 0. -1.
        -12    1    3    3    0    0 -0.76754608582E+01  0.10002679638E+01  0.18273502512E+02  0.19845254583E+02  0.00000000000E+00 0.  1.
</event>
<event>
 7    1  0.1905073E-013  0.7246159E+02  0.7816164E-02  0.1226708E+00
        -11   -1    0    0    0    0  0.00000000000E+00  0.00000000000E+00  0.45593999997E+02  0.45594000000E+02  0.51100000000E-03 0. -1.
         11   -1    0    0    0    0 -0.00000000000E+00 -0.00000000000E+00 -0.45593999997E+02  0.45594000000E+02  0.51100000000E-03 0.  1.
    9900012    2    1    2    0    0 -0.13960476967E+02 -0.72661175868E+01  0.10148259095E+02  0.72461586980E+02  0.70000021736E+02 0.  0.
        -12    1    1    2    0    0  0.13960476967E+02  0.72661175868E+01 -0.10148259095E+02  0.18726413020E+02  0.00000000000E+00 0.  1.
         11    1    3    3    0    0  0.11655598597E+02 -0.11842244799E+02  0.65445470059E+01  0.17858410800E+02  0.51100000000E-03 0. -1.
        -11    1    3    3    0    0 -0.22289046723E+02 -0.18294633799E+02 -0.62060900168E+01  0.29495945199E+02  0.51100000000E-03 0.  1.
        -12    1    3    3    0    0 -0.33270288421E+01  0.22870761011E+02  0.98098021056E+01  0.25107230980E+02  0.00000000000E+00 0.  1.
</event>
<event>
 7    1  0.1905073E-013  0.7246167E+02  0.7816164E-02  0.1226708E+00
        -11   -1    0    0    0    0  0.00000000000E+00  0.00000000000E+00  0.45593999997E+02  0.45594000000E+02  0.51100000000E-03 0. -1.
         11   -1    0    0    0    0 -0.00000000000E+00 -0.00000000000E+00 -0.45593999997E+02  0.45594000000E+02  0.51100000000E-03 0.  1.
    9900012    2    1    2    0    0  0.56559711369E+00  0.46674954164E+01  0.18126497923E+02  0.72461672531E+02  0.70000133182E+02 0.  0.
        -12    1    1    2    0    0 -0.56559711369E+00 -0.46674954164E+01 -0.18126497923E+02  0.18726327469E+02  0.00000000000E+00 0.  1.
         11    1    3    3    0    0 -0.53727687533E+01  0.25793586630E+02  0.19309481104E+02  0.32665452945E+02  0.51100000000E-03 0. -1.
        -11    1    3    3    0    0 -0.94485196681E+01 -0.80596008668E+01 -0.11675749700E+02  0.17045668698E+02  0.51100000000E-03 0.  1.
        -12    1    3    3    0    0  0.15386885535E+02 -0.13066490347E+02  0.10492766519E+02  0.22750550888E+02  0.00000000000E+00 0.  1.
</event>
<event>
 7    1  0.1905073E-013  0.7246155E+02  0.7816164E-02  0.1226708E+00
        -11   -1    0    0    0    0  0.00000000000E+00  0.00000000000E+00  0.45593999997E+02  0.45594000000E+02  0.51100000000E-03 0.  1.
         11   -1    0    0    0    0 -0.00000000000E+00 -0.00000000000E+00 -0.45593999997E+02  0.45594000000E+02  0.51100000000E-03 0. -1.
    9900012    2    1    2    0    0  0.80926247110E+01  0.99169314558E+01 -0.13669076184E+02  0.72461554851E+02  0.69999979882E+02 0.  0.
        -12    1    1    2    0    0 -0.80926247110E+01 -0.99169314558E+01  0.13669076184E+02  0.18726445149E+02  0.00000000000E+00 0.  1.
         11    1    3    3    0    0 -0.84364911480E+01 -0.23712734963E+02 -0.96804712098E+01  0.26966269772E+02  0.51100000000E-03 0.  1.
        -11    1    3    3    0    0  0.17274622532E+02  0.15845569698E+02 -0.11578519436E+02  0.26144918728E+02  0.51100000000E-03 0. -1.
        -12    1    3    3    0    0 -0.74550667329E+00  0.17784096721E+02  0.75899144621E+01  0.19350366351E+02  0.00000000000E+00 0.  1.
</event>
<event>
 7    1  0.1905073E-013  0.7246155E+02  0.7816164E-02  0.1226708E+00
        -11   -1    0    0    0    0  0.00000000000E+00  0.00000000000E+00  0.45593999997E+02  0.45594000000E+02  0.51100000000E-03 0.  1.
         11   -1    0    0    0    0 -0.00000000000E+00 -0.00000000000E+00 -0.45593999997E+02  0.45594000000E+02  0.51100000000E-03 0. -1.
    9900012    2    1    2    0    0  0.10721571395E+02  0.87209991842E+01 -0.12636144586E+02  0.72461546252E+02  0.69999968681E+02 0.  0.
        -12    1    1    2    0    0 -0.10721571395E+02 -0.87209991842E+01  0.12636144586E+02  0.18726453748E+02  0.00000000000E+00 0.  1.
         11    1    3    3    0    0 -0.11943892505E+02  0.25071121043E+02 -0.18129438126E+02  0.33164652954E+02  0.51100000000E-03 0. -1.
        -11    1    3    3    0    0  0.10466052572E+02 -0.21118494945E+02  0.97755085510E+01  0.25516458470E+02  0.51100000000E-03 0.  1.
         12    1    3    3    0    0  0.12199411328E+02  0.47683730859E+01 -0.42822150109E+01  0.13780434828E+02  0.00000000000E+00 0. -1.
</event>
<event>
 7    1  0.1905073E-013  0.7246155E+02  0.7816164E-02  0.1226708E+00
        -11   -1    0    0    0    0  0.00000000000E+00  0.00000000000E+00  0.45593999997E+02  0.45594000000E+02  0.51100000000E-03 0. -1.
         11   -1    0    0    0    0 -0.00000000000E+00 -0.00000000000E+00 -0.45593999997E+02  0.45594000000E+02  0.51100000000E-03 0.  1.
    9900012    2    1    2    0    0  0.92183393520E+01 -0.98002093433E+01  0.13025290485E+02  0.72461546097E+02  0.69999968478E+02 0.  0.
        -12    1    1    2    0    0 -0.92183393520E+01  0.98002093433E+01 -0.13025290485E+02  0.18726453903E+02  0.00000000000E+00 0.  1.
         11    1    3    3    0    0  0.69898416360E+01  0.41817377739E+01  0.56300033400E+01  0.99016036467E+01  0.51100000000E-03 0. -1.
        -11    1    3    3    0    0 -0.13957079034E+02  0.12644996498E+01  0.28590722809E+02  0.31840672818E+02  0.51100000000E-03 0.  1.
        -12    1    3    3    0    0  0.16185576750E+02 -0.15246446767E+02 -0.21195435664E+02  0.30719269632E+02  0.00000000000E+00 0.  1.
</event>
<event>
 7    1  0.1905073E-013  0.7246156E+02  0.7816164E-02  0.1226708E+00
        -11   -1    0    0    0    0  0.00000000000E+00  0.00000000000E+00  0.45593999997E+02  0.45594000000E+02  0.51100000000E-03 0.  1.
         11   -1    0    0    0    0 -0.00000000000E+00 -0.00000000000E+00 -0.45593999997E+02  0.45594000000E+02  0.51100000000E-03 0. -1.
    9900012    2    1    2    0    0  0.14991996504E+02 -0.74364899220E+01 -0.84034725964E+01  0.72461556312E+02  0.69999981785E+02 0.  0.
        -12    1    1    2    0    0 -0.14991996504E+02  0.74364899220E+01  0.84034725964E+01  0.18726443688E+02  0.00000000000E+00 0.  1.
         11    1    3    3    0    0  0.14316561561E+01 -0.15262799028E+02 -0.30876329820E+02  0.34472458817E+02  0.51100000000E-03 0. -1.
        -11    1    3    3    0    0  0.20863358728E+02  0.90842765624E+01  0.19628795841E+02  0.30051513181E+02  0.51100000000E-03 0.  1.
         12    1    3    3    0    0 -0.73030183799E+01 -0.12579674563E+01  0.28440613826E+01  0.79375843130E+01  0.00000000000E+00 0. -1.
</event>
<event>
 7    1  0.1905073E-013  0.7246161E+02  0.7816164E-02  0.1226708E+00
        -11   -1    0    0    0    0  0.00000000000E+00  0.00000000000E+00  0.45593999997E+02  0.45594000000E+02  0.51100000000E-03 0.  1.
         11   -1    0    0    0    0 -0.00000000000E+00 -0.00000000000E+00 -0.45593999997E+02  0.45594000000E+02  0.51100000000E-03 0. -1.
    9900012    2    1    2    0    0  0.10984692133E+02 -0.75000713773E+01 -0.13181929912E+02  0.72461606644E+02  0.70000047352E+02 0.  0.
        -12    1    1    2    0    0 -0.10984692133E+02  0.75000713773E+01  0.13181929912E+02  0.18726393356E+02  0.00000000000E+00 0.  1.
         11    1    3    3    0    0  0.57661196744E+01 -0.30957547667E+02 -0.50838428332E+00  0.31494068465E+02  0.51100000000E-03 0. -1.
        -11    1    3    3    0    0 -0.12072969936E+02  0.16194527144E+02 -0.68461375589E+01  0.21328124911E+02  0.51100000000E-03 0.  1.
         12    1    3    3    0    0  0.17291542395E+02  0.72629491453E+01 -0.58274080700E+01  0.19639413267E+02  0.00000000000E+00 0. -1.
</event>
<event>
 7    1  0.1905073E-013  0.7246155E+02  0.7816164E-02  0.1226708E+00
        -11   -1    0    0    0    0  0.00000000000E+00  0.00000000000E+00  0.45593999997E+02  0.45594000000E+02  0.51100000000E-03 0.  1.
         11   -1    0    0    0    0 -0.00000000000E+00 -0.00000000000E+00 -0.45593999997E+02  0.45594000000E+02  0.51100000000E-03 0. -1.
    9900012    2    1    2    0    0  0.16623335922E+02 -0.86205567473E+01  0.17543094619E+00  0.72461546203E+02  0.69999968616E+02 0.  0.
        -12    1    1    2    0    0 -0.16623335922E+02  0.86205567473E+01 -0.17543094619E+00  0.18726453797E+02  0.00000000000E+00 0.  1.
         11    1    3    3    0    0 -0.11753622977E+02  0.15997849485E+02 -0.15852671687E+02  0.25404449239E+02  0.51100000000E-03 0. -1.
        -11    1    3    3    0    0  0.15849014148E+02 -0.74584787382E+01  0.18724347089E+02  0.25640228718E+02  0.51100000000E-03 0.  1.
         12    1    3    3    0    0  0.12527944750E+02 -0.17159927495E+02 -0.26962444553E+01  0.21416868246E+02  0.00000000000E+00 0. -1.
</event>
<event>
 7    1  0.1905073E-013  0.7246154E+02  0.7816164E-02  0.1226708E+00
        -11   -1    0    0    0    0  0.00000000000E+00  0.00000000000E+00  0.45593999997E+02  0.45594000000E+02  0.51100000000E-03 0.  1.
         11   -1    0    0    0    0 -0.00000000000E+00 -0.00000000000E+00 -0.45593999997E+02  0.45594000000E+02  0.51100000000E-03 0. -1.
    9900012    2    1    2    0    0 -0.31883616768E+01 -0.18373625879E+02  0.17101217114E+01  0.72461540261E+02  0.69999960875E+02 0.  0.
        -12    1    1    2    0    0  0.31883616768E+01  0.18373625879E+02 -0.17101217114E+01  0.18726459739E+02  0.00000000000E+00 0.  1.
         11    1    3    3    0    0  0.65386271431E+01 -0.21509457679E+02 -0.10531672827E+02  0.24825924905E+02  0.51100000000E-03 0. -1.
        -11    1    3    3    0    0 -0.44586031397E+01  0.14247520957E+02  0.25502318070E+02  0.29550621357E+02  0.51100000000E-03 0.  1.
        -12    1    3    3    0    0 -0.52683856802E+01 -0.11111689157E+02 -0.13260523532E+02  0.18084993998E+02  0.00000000000E+00 0.  1.
</event>
<event>
 7    1  0.1905073E-013  0.7246167E+02  0.7816164E-02  0.1226708E+00
        -11   -1    0    0    0    0  0.00000000000E+00  0.00000000000E+00  0.45593999997E+02  0.45594000000E+02  0.51100000000E-03 0. -1.
         11   -1    0    0    0    0 -0.00000000000E+00 -0.00000000000E+00 -0.45593999997E+02  0.45594000000E+02  0.51100000000E-03 0.  1.
    9900012    2    1    2    0    0  0.13544736671E+02 -0.41879793893E+00  0.12924397449E+02  0.72461672741E+02  0.70000133456E+02 0.  0.
        -12    1    1    2    0    0 -0.13544736671E+02  0.41879793893E+00 -0.12924397449E+02  0.18726327259E+02  0.00000000000E+00 0.  1.
         11    1    3    3    0    0 -0.89659360550E+00  0.26871821318E+02 -0.72771239526E+01  0.27854177323E+02  0.51100000000E-03 0. -1.
        -11    1    3    3    0    0  0.26475589095E+01 -0.26530620553E+02  0.18976381851E+02  0.32725929528E+02  0.51100000000E-03 0.  1.
         12    1    3    3    0    0  0.11793771367E+02 -0.75999870424E+00  0.12251395511E+01  0.11881565890E+02  0.00000000000E+00 0. -1.
</event>
<event>
 7    1  0.1905073E-013  0.7246156E+02  0.7816164E-02  0.1226708E+00
        -11   -1    0    0    0    0  0.00000000000E+00  0.00000000000E+00  0.45593999997E+02  0.45594000000E+02  0.51100000000E-03 0.  1.
         11   -1    0    0    0    0 -0.00000000000E+00 -0.00000000000E+00 -0.45593999997E+02  0.45594000000E+02  0.51100000000E-03 0. -1.
    9900012    2    1    2    0    0 -0.69538216898E+01  0.14056295615E+02 -0.10234477335E+02  0.72461558565E+02  0.69999984721E+02 0.  0.
        -12    1    1    2    0    0  0.69538216898E+01 -0.14056295615E+02  0.10234477335E+02  0.18726441435E+02  0.00000000000E+00 0.  1.
         11    1    3    3    0    0 -0.19379772819E+02  0.24616303123E+02 -0.13375165386E+02  0.34065129139E+02  0.51100000000E-03 0. -1.
        -11    1    3    3    0    0  0.23653255435E+02 -0.28356574758E+01  0.57837017922E+01  0.24514661994E+02  0.51100000000E-03 0.  1.
         12    1    3    3    0    0 -0.11227304306E+02 -0.77243500322E+01 -0.26430137408E+01  0.13881767432E+02  0.00000000000E+00 0. -1.
</event>
<event>
 7    1  0.1905073E-013  0.7246160E+02  0.7816164E-02  0.1226708E+00
        -11   -1    0    0    0    0  0.00000000000E+00  0.00000000000E+00  0.45593999997E+02  0.45594000000E+02  0.51100000000E-03 0.  1.
         11   -1    0    0    0    0 -0.00000000000E+00 -0.00000000000E+00 -0.45593999997E+02  0.45594000000E+02  0.51100000000E-03 0. -1.
    9900012    2    1    2    0    0  0.63374586796E+01 -0.14187458664E+02 -0.10451351916E+02  0.72461598243E+02  0.70000036409E+02 0.  0.
        -12    1    1    2    0    0 -0.63374586796E+01  0.14187458664E+02  0.10451351916E+02  0.18726401757E+02  0.00000000000E+00 0.  1.
         11    1    3    3    0    0  0.20884918486E+02 -0.27577883092E+02 -0.12559240782E+01  0.34616423870E+02  0.51100000000E-03 0. -1.
        -11    1    3    3    0    0 -0.17412191761E+02  0.20397341017E+02 -0.12496102005E+02  0.29586965172E+02  0.51100000000E-03 0.  1.
        -12    1    3    3    0    0  0.28647319542E+01 -0.70069165894E+01  0.33006741667E+01  0.82582092014E+01  0.00000000000E+00 0.  1.
</event>
<event>
 7    1  0.1905073E-013  0.7246163E+02  0.7816164E-02  0.1226708E+00
        -11   -1    0    0    0    0  0.00000000000E+00  0.00000000000E+00  0.45593999997E+02  0.45594000000E+02  0.51100000000E-03 0. -1.
         11   -1    0    0    0    0 -0.00000000000E+00 -0.00000000000E+00 -0.45593999997E+02  0.45594000000E+02  0.51100000000E-03 0.  1.
    9900012    2    1    2    0    0  0.17001813950E+02  0.47864727877E+01  0.62213430791E+01  0.72461625309E+02  0.70000071667E+02 0.  0.
        -12    1    1    2    0    0 -0.17001813950E+02 -0.47864727877E+01 -0.62213430791E+01  0.18726374691E+02  0.00000000000E+00 0.  1.
         11    1    3    3    0    0 -0.20003791528E+02  0.14856596196E+02  0.31882654982E+01  0.25120413276E+02  0.51100000000E-03 0. -1.
        -11    1    3    3    0    0  0.18015375353E+02 -0.18754488322E+02  0.45660306986E+01  0.26403280439E+02  0.51100000000E-03 0.  1.
         12    1    3    3    0    0  0.18990230125E+02  0.86843649138E+01 -0.15329531177E+01  0.20937931594E+02  0.00000000000E+00 0. -1.
</event>
<event>
 7    1  0.1905073E-013  0.7246156E+02  0.7816164E-02  0.1226708E+00
        -11   -1    0    0    0    0  0.00000000000E+00  0.00000000000E+00  0.45593999997E+02  0.45594000000E+02  0.51100000000E-03 0.  1.
         11   -1    0    0    0    0 -0.00000000000E+00 -0.00000000000E+00 -0.45593999997E+02  0.45594000000E+02  0.51100000000E-03 0. -1.
    9900012    2    1    2    0    0  0.36770807164E+01 -0.87639424598E+01 -0.16135419786E+02  0.72461564629E+02  0.69999992620E+02 0.  0.
        -12    1    1    2    0    0 -0.36770807164E+01  0.87639424598E+01  0.16135419786E+02  0.18726435371E+02  0.00000000000E+00 0.  1.
         11    1    3    3    0    0  0.87271842059E+01  0.54464895867E+01 -0.70982330422E+01  0.12498516135E+02  0.51100000000E-03 0. -1.
        -11    1    3    3    0    0 -0.43935943750E+01 -0.35653573142E+02  0.17190718791E+01  0.35964373451E+02  0.51100000000E-03 0.  1.
        -12    1    3    3    0    0 -0.65650911451E+00  0.21443141096E+02 -0.10756258623E+02  0.23998675043E+02  0.00000000000E+00 0.  1.
</event>
<event>
 7    1  0.1905073E-013  0.7246159E+02  0.7816164E-02  0.1226708E+00
        -11   -1    0    0    0    0  0.00000000000E+00  0.00000000000E+00  0.45593999997E+02  0.45594000000E+02  0.51100000000E-03 0. -1.
         11   -1    0    0    0    0 -0.00000000000E+00 -0.00000000000E+00 -0.45593999997E+02  0.45594000000E+02  0.51100000000E-03 0.  1.
    9900012    2    1    2    0    0  0.13730235154E+02  0.10798622365E+02 -0.67489960612E+01  0.72461586830E+02  0.70000021541E+02 0.  0.
        -12    1    1    2    0    0 -0.13730235154E+02 -0.10798622365E+02  0.67489960612E+01  0.18726413170E+02  0.00000000000E+00 0.  1.
         11    1    3    3    0    0  0.21387966523E+02 -0.21338333276E+02 -0.36722579245E+01  0.30434438676E+02  0.51100000000E-03 0. -1.
        -11    1    3    3    0    0 -0.15951552240E+02  0.17568196815E+02 -0.71344946394E+01  0.24778913863E+02  0.51100000000E-03 0.  1.
         12    1    3    3    0    0  0.82938208707E+01  0.14568758826E+02  0.40577565027E+01  0.17248234292E+02  0.00000000000E+00 0. -1.
</event>
<event>
 7    1  0.1905073E-013  0.7246152E+02  0.7816164E-02  0.1226708E+00
        -11   -1    0    0    0    0  0.00000000000E+00  0.00000000000E+00  0.45593999997E+02  0.45594000000E+02  0.51100000000E-03 0.  1.
         11   -1    0    0    0    0 -0.00000000000E+00 -0.00000000000E+00 -0.45593999997E+02  0.45594000000E+02  0.51100000000E-03 0. -1.
    9900012    2    1    2    0    0 -0.15992218791E+02 -0.86085911398E+01  0.45631426997E+01  0.72461516759E+02  0.69999930260E+02 0.  0.
        -12    1    1    2    0    0  0.15992218791E+02  0.86085911398E+01 -0.45631426997E+01  0.18726483241E+02  0.00000000000E+00 0.  1.
         11    1    3    3    0    0  0.90334236701E+00 -0.33610366186E+02  0.14213245206E+02  0.36503274950E+02  0.51100000000E-03 0. -1.
        -11    1    3    3    0    0 -0.12531116570E+02  0.12884584785E+02  0.26277311028E+01  0.18164426183E+02  0.51100000000E-03 0.  1.
         12    1    3    3    0    0 -0.43644445882E+01  0.12117190261E+02 -0.12277833609E+02  0.17793815625E+02  0.00000000000E+00 0. -1.
</event>
<event>
 7    1  0.1905073E-013  0.7246153E+02  0.7816164E-02  0.1226708E+00
        -11   -1    0    0    0    0  0.00000000000E+00  0.00000000000E+00  0.45593999997E+02  0.45594000000E+02  0.51100000000E-03 0.  1.
         11   -1    0    0    0    0 -0.00000000000E+00 -0.00000000000E+00 -0.45593999997E+02  0.45594000000E+02  0.51100000000E-03 0. -1.
    9900012    2    1    2    0    0 -0.18404616427E+02 -0.14835174181E+01  0.31224876666E+01  0.72461530525E+02  0.69999948193E+02 0.  0.
        -12    1    1    2    0    0  0.18404616427E+02  0.14835174181E+01 -0.31224876666E+01  0.18726469475E+02  0.00000000000E+00 0.  1.
         11    1    3    3    0    0 -0.63880085228E+01  0.30229102678E+02 -0.13317439099E+02  0.33644605600E+02  0.51100000000E-03 0. -1.
        -11    1    3    3    0    0 -0.10026786066E+02 -0.15252676141E+02  0.11259755410E+02  0.21446740089E+02  0.51100000000E-03 0.  1.
         12    1    3    3    0    0 -0.19898218382E+01 -0.16459943955E+02  0.51801713554E+01  0.17370184836E+02  0.00000000000E+00 0. -1.
</event>
<event>
 7    1  0.1905073E-013  0.7246157E+02  0.7816164E-02  0.1226708E+00
        -11   -1    0    0    0    0  0.00000000000E+00  0.00000000000E+00  0.45593999997E+02  0.45594000000E+02  0.51100000000E-03 0.  1.
         11   -1    0    0    0    0 -0.00000000000E+00 -0.00000000000E+00 -0.45593999997E+02  0.45594000000E+02  0.51100000000E-03 0. -1.
    9900012    2    1    2    0    0 -0.23256729484E+01  0.69477088357E+01 -0.17233681237E+02  0.72461569969E+02  0.69999999576E+02 0.  0.
        -12    1    1    2    0    0  0.23256729484E+01 -0.69477088357E+01  0.17233681237E+02  0.18726430031E+02  0.00000000000E+00 0.  1.
         11    1    3    3    0    0  0.71189226830E+01 -0.24101102135E+02 -0.15907515403E+02  0.29742078456E+02  0.51100000000E-03 0. -1.
        -11    1    3    3    0    0 -0.12892244964E+02  0.19322694361E+02  0.10698080476E+02  0.25573920773E+02  0.51100000000E-03 0.  1.
         12    1    3    3    0    0  0.34476493327E+01  0.11726116610E+02 -0.12024246310E+02  0.17145570740E+02  0.00000000000E+00 0. -1.
</event>
<event>
 7    1  0.1905073E-013  0.7246155E+02  0.7816164E-02  0.1226708E+00
        -11   -1    0    0    0    0  0.00000000000E+00  0.00000000000E+00  0.45593999997E+02  0.45594000000E+02  0.51100000000E-03 0.  1.
         11   -1    0    0    0    0 -0.00000000000E+00 -0.00000000000E+00 -0.45593999997E+02  0.45594000000E+02  0.51100000000E-03 0. -1.
    9900012    2    1    2    0    0 -0.61178082527E+01 -0.12930815324E+02 -0.12084957112E+02  0.72461554764E+02  0.69999979769E+02 0.  0.
        -12    1    1    2    0    0  0.61178082527E+01  0.12930815324E+02  0.12084957112E+02  0.18726445236E+02  0.00000000000E+00 0.  1.
         11    1    3    3    0    0 -0.94716628499E+01 -0.70889324223E+00 -0.21245261505E+02  0.23271786855E+02  0.51100000000E-03 0. -1.
        -11    1    3    3    0    0  0.93666953545E+01 -0.28308259177E+02  0.19766531022E+00  0.29818309666E+02  0.51100000000E-03 0.  1.
        -12    1    3    3    0    0 -0.60128407573E+01  0.16086337096E+02  0.89626390821E+01  0.19371458243E+02  0.00000000000E+00 0.  1.
</event>
<event>
 7    1  0.2154480E-013  0.7246155E+02  0.7816164E-02  0.1226708E+00
        -11   -1    0    0    0    0  0.00000000000E+00  0.00000000000E+00  0.45593999997E+02  0.45594000000E+02  0.51100000000E-03 0.  1.
         11   -1    0    0    0    0 -0.00000000000E+00 -0.00000000000E+00 -0.45593999997E+02  0.45594000000E+02  0.51100000000E-03 0. -1.
    9900012    2    1    2    0    0  0.14410829424E+02  0.80789528518E+01 -0.88169354759E+01  0.72461552525E+02  0.69999976852E+02 0.  0.
        -12    1    1    2    0    0 -0.14410829424E+02 -0.80789528518E+01  0.88169354759E+01  0.18726447475E+02  0.00000000000E+00 0.  1.
         11    1    3    3    0    0  0.35308864866E+02  0.15985118273E+02 -0.48628467203E+01  0.39062606452E+02  0.51100000000E-03 0. -1.
        -11    1    3    3    0    0 -0.10861428491E+02  0.53411830034E+01  0.65256798730E+01  0.13750758627E+02  0.51100000000E-03 0.  1.
         12    1    3    3    0    0 -0.10036606952E+02 -0.13247348425E+02 -0.10479768629E+02  0.19648187446E+02  0.00000000000E+00 0. -1.
</event>
<event>
 7    1  0.1905073E-013  0.7246161E+02  0.7816164E-02  0.1226708E+00
        -11   -1    0    0    0    0  0.00000000000E+00  0.00000000000E+00  0.45593999997E+02  0.45594000000E+02  0.51100000000E-03 0. -1.
         11   -1    0    0    0    0 -0.00000000000E+00 -0.00000000000E+00 -0.45593999997E+02  0.45594000000E+02  0.51100000000E-03 0.  1.
    9900012    2    1    2    0    0 -0.28661070601E+01 -0.11499582757E+02  0.14499055645E+02  0.72461612525E+02  0.70000055013E+02 0.  0.
        -12    1    1    2    0    0  0.28661070601E+01  0.11499582757E+02 -0.14499055645E+02  0.18726387475E+02  0.00000000000E+00 0.  1.
         11    1    3    3    0    0  0.32689601028E+01 -0.16810111462E+02 -0.11447347954E+02  0.20598731101E+02  0.51100000000E-03 0. -1.
        -11    1    3    3    0    0  0.15749458412E+02  0.10870970387E+02  0.21618748162E+02  0.28872022960E+02  0.51100000000E-03 0.  1.
         12    1    3    3    0    0 -0.21884525575E+02 -0.55604416821E+01  0.43276554372E+01  0.22990858464E+02  0.00000000000E+00 0. -1.
</event>
<event>
 7    1  0.1905073E-013  0.7246153E+02  0.7816164E-02  0.1226708E+00
        -11   -1    0    0    0    0  0.00000000000E+00  0.00000000000E+00  0.45593999997E+02  0.45594000000E+02  0.51100000000E-03 0.  1.
         11   -1    0    0    0    0 -0.00000000000E+00 -0.00000000000E+00 -0.45593999997E+02  0.45594000000E+02  0.51100000000E-03 0. -1.
    9900012    2    1    2    0    0  0.18342301083E+02  0.13305410769E+01 -0.35313492113E+01  0.72461527406E+02  0.69999944129E+02 0.  0.
        -12    1    1    2    0    0 -0.18342301083E+02 -0.13305410769E+01  0.35313492113E+01  0.18726472594E+02  0.00000000000E+00 0.  1.
         11    1    3    3    0    0  0.31338821100E+02  0.21476613746E+01 -0.16647811300E+01  0.31456408787E+02  0.51100000000E-03 0. -1.
        -11    1    3    3    0    0 -0.26494186618E+02 -0.12766233441E+01 -0.53467421037E+01  0.27058443102E+02  0.51100000000E-03 0.  1.
        -12    1    3    3    0    0  0.13497666601E+02  0.45950304643E+00  0.34801740224E+01  0.13946675516E+02  0.00000000000E+00 0.  1.
</event>
<event>
 7    1  0.1905073E-013  0.7246165E+02  0.7816164E-02  0.1226708E+00
        -11   -1    0    0    0    0  0.00000000000E+00  0.00000000000E+00  0.45593999997E+02  0.45594000000E+02  0.51100000000E-03 0. -1.
         11   -1    0    0    0    0 -0.00000000000E+00 -0.00000000000E+00 -0.45593999997E+02  0.45594000000E+02  0.51100000000E-03 0.  1.
    9900012    2    1    2    0    0  0.80898505953E+01 -0.16751775668E+02 -0.21467471638E+01  0.72461649740E+02  0.70000103492E+02 0.  0.
        -12    1    1    2    0    0 -0.80898505953E+01  0.16751775668E+02  0.21467471638E+01  0.18726350260E+02  0.00000000000E+00 0.  1.
         11    1    3    3    0    0 -0.21773959897E+02 -0.17882850802E+02 -0.19302967522E+00  0.28176922173E+02  0.51100000000E-03 0.  1.
        -11    1    3    3    0    0  0.17568498197E+02  0.16808230058E+02 -0.13736575704E+01  0.24352734178E+02  0.51100000000E-03 0. -1.
         12    1    3    3    0    0  0.12295312296E+02 -0.15677154923E+02 -0.58005991818E+00  0.19931993389E+02  0.00000000000E+00 0. -1.
</event>
<event>
 7    1  0.1905073E-013  0.7246151E+02  0.7816164E-02  0.1226708E+00
        -11   -1    0    0    0    0  0.00000000000E+00  0.00000000000E+00  0.45593999997E+02  0.45594000000E+02  0.51100000000E-03 0. -1.
         11   -1    0    0    0    0 -0.00000000000E+00 -0.00000000000E+00 -0.45593999997E+02  0.45594000000E+02  0.51100000000E-03 0.  1.
    9900012    2    1    2    0    0 -0.12030703806E+02 -0.98477844413E+01  0.10438612078E+02  0.72461513020E+02  0.69999925390E+02 0.  0.
        -12    1    1    2    0    0  0.12030703806E+02  0.98477844413E+01 -0.10438612078E+02  0.18726486980E+02  0.00000000000E+00 0.  1.
         11    1    3    3    0    0 -0.11032854513E+02 -0.29302565760E+02  0.11983975697E+02  0.33525809649E+02  0.51100000000E-03 0. -1.
        -11    1    3    3    0    0 -0.44504974664E+01  0.78766434442E+01  0.15556879760E+02  0.17996248158E+02  0.51100000000E-03 0.  1.
         12    1    3    3    0    0  0.34526481732E+01  0.11578137875E+02 -0.17102243379E+02  0.20939455213E+02  0.00000000000E+00 0. -1.
</event>
<event>
 7    1  0.1905073E-013  0.7246159E+02  0.7816164E-02  0.1226708E+00
        -11   -1    0    0    0    0  0.00000000000E+00  0.00000000000E+00  0.45593999997E+02  0.45594000000E+02  0.51100000000E-03 0.  1.
         11   -1    0    0    0    0 -0.00000000000E+00 -0.00000000000E+00 -0.45593999997E+02  0.45594000000E+02  0.51100000000E-03 0. -1.
    9900012    2    1    2    0    0 -0.50455341785E+01  0.17447725870E+02  0.45604614331E+01  0.72461591864E+02  0.70000028099E+02 0.  0.
        -12    1    1    2    0    0  0.50455341785E+01 -0.17447725870E+02 -0.45604614331E+01  0.18726408136E+02  0.00000000000E+00 0.  1.
         11    1    3    3    0    0  0.12231372772E+02  0.23693894932E+02 -0.72038007759E+01  0.27620678536E+02  0.51100000000E-03 0. -1.
        -11    1    3    3    0    0 -0.37112311438E+01 -0.13041723492E+02  0.22489073137E+02  0.26260582611E+02  0.51100000000E-03 0.  1.
        -12    1    3    3    0    0 -0.13565675807E+02  0.67955544304E+01 -0.10724810928E+02  0.18580330717E+02  0.00000000000E+00 0.  1.
</event>
<event>
 7    1  0.1905073E-013  0.7246189E+02  0.7816164E-02  0.1226707E+00
        -11   -1    0    0    0    0  0.00000000000E+00  0.00000000000E+00  0.45593999997E+02  0.45594000000E+02  0.51100000000E-03 0. -1.
         11   -1    0    0    0    0 -0.00000000000E+00 -0.00000000000E+00 -0.45593999997E+02  0.45594000000E+02  0.51100000000E-03 0.  1.
    9900012    2    1    2    0    0 -0.39879302912E+01 -0.17852084536E+02  0.40083179396E+01  0.72461891942E+02  0.70000419005E+02 0.  0.
        -12    1    1    2    0    0  0.39879302912E+01  0.17852084536E+02 -0.40083179396E+01  0.18726108058E+02  0.00000000000E+00 0.  1.
         11    1    3    3    0    0  0.17392788389E+02 -0.33271757790E+02  0.59592870144E+01  0.38013577263E+02  0.51100000000E-03 0. -1.
        -11    1    3    3    0    0 -0.11028244717E+02 -0.52110634891E+00 -0.89301813929E+01  0.14200065963E+02  0.51100000000E-03 0.  1.
         12    1    3    3    0    0 -0.10352473963E+02  0.15940779603E+02  0.69792123181E+01  0.20248248716E+02  0.00000000000E+00 0. -1.
</event>
<event>
 7    1  0.1905073E-013  0.7246158E+02  0.7816164E-02  0.1226708E+00
        -11   -1    0    0    0    0  0.00000000000E+00  0.00000000000E+00  0.45593999997E+02  0.45594000000E+02  0.51100000000E-03 0.  1.
         11   -1    0    0    0    0 -0.00000000000E+00 -0.00000000000E+00 -0.45593999997E+02  0.45594000000E+02  0.51100000000E-03 0. -1.
    9900012    2    1    2    0    0 -0.66304625275E+01  0.16831010745E+02 -0.48407533366E+01  0.72461578855E+02  0.70000011152E+02 0.  0.
        -12    1    1    2    0    0  0.66304625275E+01 -0.16831010745E+02  0.48407533366E+01  0.18726421145E+02  0.00000000000E+00 0.  1.
         11    1    3    3    0    0 -0.16487962776E+00  0.46091060362E+00 -0.65405554120E+01  0.65588481637E+01  0.51100000000E-03 0. -1.
        -11    1    3    3    0    0 -0.30788249181E+02  0.10216235778E+02  0.16890843364E+02  0.36573054984E+02  0.51100000000E-03 0.  1.
        -12    1    3    3    0    0  0.24322666281E+02  0.61538643638E+01 -0.15191041289E+02  0.29329675707E+02  0.00000000000E+00 0.  1.
</event>
<event>
 7    1  0.1905073E-013  0.7246157E+02  0.7816164E-02  0.1226708E+00
        -11   -1    0    0    0    0  0.00000000000E+00  0.00000000000E+00  0.45593999997E+02  0.45594000000E+02  0.51100000000E-03 0.  1.
         11   -1    0    0    0    0 -0.00000000000E+00 -0.00000000000E+00 -0.45593999997E+02  0.45594000000E+02  0.51100000000E-03 0. -1.
    9900012    2    1    2    0    0 -0.11675354367E+02 -0.12845692023E+02  0.70252065155E+01  0.72461568686E+02  0.69999997905E+02 0.  0.
        -12    1    1    2    0    0  0.11675354367E+02  0.12845692023E+02 -0.70252065155E+01  0.18726431314E+02  0.00000000000E+00 0.  1.
         11    1    3    3    0    0 -0.63607138242E+01 -0.24819789136E+01 -0.19793787069E+02  0.20938311930E+02  0.51100000000E-03 0. -1.
        -11    1    3    3    0    0 -0.10710267574E+02 -0.25605521325E+02  0.18328574589E+02  0.33260926033E+02  0.51100000000E-03 0.  1.
        -12    1    3    3    0    0  0.53956270312E+01  0.15241808216E+02  0.84904189950E+01  0.18262330724E+02  0.00000000000E+00 0.  1.
</event>
<event>
 7    1  0.1905073E-013  0.7246157E+02  0.7816164E-02  0.1226708E+00
        -11   -1    0    0    0    0  0.00000000000E+00  0.00000000000E+00  0.45593999997E+02  0.45594000000E+02  0.51100000000E-03 0.  1.
         11   -1    0    0    0    0 -0.00000000000E+00 -0.00000000000E+00 -0.45593999997E+02  0.45594000000E+02  0.51100000000E-03 0. -1.
    9900012    2    1    2    0    0  0.13065250198E+01  0.54395925994E+01 -0.17871287672E+02  0.72461572195E+02  0.70000002476E+02 0.  0.
        -12    1    1    2    0    0 -0.13065250198E+01 -0.54395925994E+01  0.17871287672E+02  0.18726427805E+02  0.00000000000E+00 0.  1.
         11    1    3    3    0    0  0.19805432708E+02 -0.12951420998E+02 -0.10169713158E+02  0.25756892992E+02  0.51100000000E-03 0.  1.
        -11    1    3    3    0    0 -0.10247278713E+02  0.20625674209E+02 -0.20819918461E+02  0.31046644949E+02  0.51100000000E-03 0. -1.
         12    1    3    3    0    0 -0.82516289757E+01 -0.22346606121E+01  0.13118343947E+02  0.15658034254E+02  0.00000000000E+00 0. -1.
</event>
<event>
 8    1  0.1905073E-013  0.7246183E+02  0.7816164E-02  0.1226707E+00
        -11   -1    0    0    0    0  0.00000000000E+00  0.00000000000E+00  0.45593999997E+02  0.45594000000E+02  0.51100000000E-03 0. -1.
         11   -1    0    0    0    0 -0.00000000000E+00 -0.00000000000E+00 -0.45593999997E+02  0.45594000000E+02  0.51100000000E-03 0.  1.
    9900012    2    1    2    0    0  0.14425035195E+01  0.12866037952E+02  0.13529727463E+02  0.72461834503E+02  0.70000344180E+02 0.  0.
        -24    2    3    3    0    0  0.10868804863E+02 -0.50111344563E+01  0.72588560293E+01  0.51301204099E+02  0.49354636696E+02 0.  0.
        -12    1    1    2    0    0 -0.14425035195E+01 -0.12866037952E+02 -0.13529727463E+02  0.18726165497E+02  0.00000000000E+00 0.  1.
         11    1    4    4    0    0  0.28079245949E+02 -0.58241100629E+01 -0.63186038198E+01  0.29364758906E+02  0.51100000000E-03 0.  1.
        -11    1    3    3    0    0 -0.94263013433E+01  0.17877172408E+02  0.62708714341E+01  0.21160630405E+02  0.51100000000E-03 0. -1.
        -12    1    4    4    0    0 -0.17210441087E+02  0.81297560666E+00  0.13577459849E+02  0.21936445193E+02  0.00000000000E+00 0.  1.
</event>
<event>
 7    1  0.1905073E-013  0.7246163E+02  0.7816164E-02  0.1226708E+00
        -11   -1    0    0    0    0  0.00000000000E+00  0.00000000000E+00  0.45593999997E+02  0.45594000000E+02  0.51100000000E-03 0.  1.
         11   -1    0    0    0    0 -0.00000000000E+00 -0.00000000000E+00 -0.45593999997E+02  0.45594000000E+02  0.51100000000E-03 0. -1.
    9900012    2    1    2    0    0  0.12660591764E+02  0.12614603441E+02 -0.55908896811E+01  0.72461632193E+02  0.70000080635E+02 0.  0.
        -12    1    1    2    0    0 -0.12660591764E+02 -0.12614603441E+02  0.55908896811E+01  0.18726367807E+02  0.00000000000E+00 0.  1.
         11    1    3    3    0    0  0.84888012311E+00 -0.10595811549E+02 -0.29525919942E+02  0.31381073413E+02  0.51100000000E-03 0. -1.
        -11    1    3    3    0    0  0.69160922449E+01  0.14873079080E+02  0.26420330990E+02  0.31097824733E+02  0.51100000000E-03 0.  1.
        -12    1    3    3    0    0  0.48956193965E+01  0.83373359103E+01 -0.24853007282E+01  0.99827340477E+01  0.00000000000E+00 0.  1.
</event>
<event>
 7    1  0.1905073E-013  0.7246155E+02  0.7816164E-02  0.1226708E+00
        -11   -1    0    0    0    0  0.00000000000E+00  0.00000000000E+00  0.45593999997E+02  0.45594000000E+02  0.51100000000E-03 0.  1.
         11   -1    0    0    0    0 -0.00000000000E+00 -0.00000000000E+00 -0.45593999997E+02  0.45594000000E+02  0.51100000000E-03 0. -1.
    9900012    2    1    2    0    0  0.68152046001E+01 -0.92909802475E+01 -0.14761799575E+02  0.72461546668E+02  0.69999969222E+02 0.  0.
        -12    1    1    2    0    0 -0.68152046001E+01  0.92909802475E+01  0.14761799575E+02  0.18726453332E+02  0.00000000000E+00 0.  1.
         11    1    3    3    0    0 -0.16901776408E+01  0.12960600841E+02 -0.13200560774E+02  0.18576562643E+02  0.51100000000E-03 0. -1.
        -11    1    3    3    0    0  0.18873101037E+02  0.23501197544E+01  0.13415170649E+02  0.23274101689E+02  0.51100000000E-03 0.  1.
        -12    1    3    3    0    0 -0.10367718796E+02 -0.24601700843E+02 -0.14976409450E+02  0.30610882336E+02  0.00000000000E+00 0.  1.
</event>
<event>
 7    1  0.1905073E-013  0.7246174E+02  0.7816164E-02  0.1226708E+00
        -11   -1    0    0    0    0  0.00000000000E+00  0.00000000000E+00  0.45593999997E+02  0.45594000000E+02  0.51100000000E-03 0.  1.
         11   -1    0    0    0    0 -0.00000000000E+00 -0.00000000000E+00 -0.45593999997E+02  0.45594000000E+02  0.51100000000E-03 0. -1.
    9900012    2    1    2    0    0  0.28531748882E+01 -0.17633554442E+02 -0.56204889078E+01  0.72461741838E+02  0.70000223467E+02 0.  0.
        -12    1    1    2    0    0 -0.28531748882E+01  0.17633554442E+02  0.56204889078E+01  0.18726258162E+02  0.00000000000E+00 0.  1.
         11    1    3    3    0    0 -0.13836251142E-01 -0.51028735981E+01  0.21479701753E+02  0.22077524726E+02  0.51100000000E-03 0.  1.
        -11    1    3    3    0    0  0.15419870271E+01 -0.19558534424E+01 -0.36251422969E+02  0.36336878708E+02  0.51100000000E-03 0. -1.
         12    1    3    3    0    0  0.13250241123E+01 -0.10574827401E+02  0.91512323088E+01  0.14047338404E+02  0.00000000000E+00 0. -1.
</event>
<event>
 7    1  0.1905073E-013  0.7246159E+02  0.7816164E-02  0.1226708E+00
        -11   -1    0    0    0    0  0.00000000000E+00  0.00000000000E+00  0.45593999997E+02  0.45594000000E+02  0.51100000000E-03 0. -1.
         11   -1    0    0    0    0 -0.00000000000E+00 -0.00000000000E+00 -0.45593999997E+02  0.45594000000E+02  0.51100000000E-03 0.  1.
    9900012    2    1    2    0    0 -0.14044553386E+02  0.12355378897E+02 -0.87946296001E+00  0.72461592907E+02  0.70000029458E+02 0.  0.
        -12    1    1    2    0    0  0.14044553386E+02 -0.12355378897E+02  0.87946296001E+00  0.18726407093E+02  0.00000000000E+00 0.  1.
         11    1    3    3    0    0 -0.20852492414E+01  0.14530982631E+02  0.25379519233E+02  0.29319238009E+02  0.51100000000E-03 0. -1.
        -11    1    3    3    0    0 -0.22997061266E+02 -0.30512248429E+00 -0.18584645007E+02  0.29569358412E+02  0.51100000000E-03 0.  1.
        -12    1    3    3    0    0  0.11037757122E+02 -0.18704812494E+01 -0.76743371862E+01  0.13572996487E+02  0.00000000000E+00 0.  1.
</event>
<event>
 7    1  0.1905073E-013  0.7246163E+02  0.7816164E-02  0.1226708E+00
        -11   -1    0    0    0    0  0.00000000000E+00  0.00000000000E+00  0.45593999997E+02  0.45594000000E+02  0.51100000000E-03 0. -1.
         11   -1    0    0    0    0 -0.00000000000E+00 -0.00000000000E+00 -0.45593999997E+02  0.45594000000E+02  0.51100000000E-03 0.  1.
    9900012    2    1    2    0    0  0.34220007878E+01  0.37462159253E+01  0.18025893609E+02  0.72461626525E+02  0.70000073250E+02 0.  0.
        -12    1    1    2    0    0 -0.34220007878E+01 -0.37462159253E+01 -0.18025893609E+02  0.18726373475E+02  0.00000000000E+00 0.  1.
         11    1    3    3    0    0 -0.35324911600E+01  0.11389816362E+02  0.49686891243E+01  0.12918757000E+02  0.51100000000E-03 0. -1.
        -11    1    3    3    0    0  0.26158011428E+02 -0.21917088750E+02  0.65838904020E+01  0.34755545662E+02  0.51100000000E-03 0.  1.
        -12    1    3    3    0    0 -0.19203519480E+02  0.14273488314E+02  0.64733140823E+01  0.24787323863E+02  0.00000000000E+00 0.  1.
</event>
<event>
 7    1  0.1905073E-013  0.7246154E+02  0.7816164E-02  0.1226708E+00
        -11   -1    0    0    0    0  0.00000000000E+00  0.00000000000E+00  0.45593999997E+02  0.45594000000E+02  0.51100000000E-03 0. -1.
         11   -1    0    0    0    0 -0.00000000000E+00 -0.00000000000E+00 -0.45593999997E+02  0.45594000000E+02  0.51100000000E-03 0.  1.
    9900012    2    1    2    0    0  0.14278137262E+02 -0.10763809399E+02 -0.55637713040E+01  0.72461538840E+02  0.69999959025E+02 0.  0.
        -12    1    1    2    0    0 -0.14278137262E+02  0.10763809399E+02  0.55637713040E+01  0.18726461160E+02  0.00000000000E+00 0.  1.
         11    1    3    3    0    0  0.15876982356E+02  0.21846213125E+01  0.15723335855E+02  0.22451601940E+02  0.51100000000E-03 0. -1.
        -11    1    3    3    0    0 -0.19526165066E+02 -0.12735736594E+02 -0.22017906451E+02  0.32066467120E+02  0.51100000000E-03 0.  1.
        -12    1    3    3    0    0  0.17927319972E+02 -0.21269411749E+00  0.73079929221E+00  0.17943469780E+02  0.00000000000E+00 0.  1.
</event>
<event>
 7    1  0.1905073E-013  0.7246155E+02  0.7816164E-02  0.1226708E+00
        -11   -1    0    0    0    0  0.00000000000E+00  0.00000000000E+00  0.45593999997E+02  0.45594000000E+02  0.51100000000E-03 0.  1.
         11   -1    0    0    0    0 -0.00000000000E+00 -0.00000000000E+00 -0.45593999997E+02  0.45594000000E+02  0.51100000000E-03 0. -1.
    9900012    2    1    2    0    0 -0.11586729562E+02  0.72564834443E+01 -0.12797301230E+02  0.72461554190E+02  0.69999979021E+02 0.  0.
        -12    1    1    2    0    0  0.11586729562E+02 -0.72564834443E+01  0.12797301230E+02  0.18726445810E+02  0.00000000000E+00 0.  1.
         11    1    3    3    0    0 -0.11198662797E+02 -0.11243921532E+02 -0.12848939817E+02  0.20418890140E+02  0.51100000000E-03 0. -1.
        -11    1    3    3    0    0  0.12713666722E+02  0.12167487424E+02  0.20453975009E+02  0.26982404742E+02  0.51100000000E-03 0.  1.
        -12    1    3    3    0    0 -0.13101733487E+02  0.63329175525E+01 -0.20402336422E+02  0.25060259307E+02  0.00000000000E+00 0.  1.
</event>
<event>
 7    1  0.1905073E-013  0.7246160E+02  0.7816164E-02  0.1226708E+00
        -11   -1    0    0    0    0  0.00000000000E+00  0.00000000000E+00  0.45593999997E+02  0.45594000000E+02  0.51100000000E-03 0. -1.
         11   -1    0    0    0    0 -0.00000000000E+00 -0.00000000000E+00 -0.45593999997E+02  0.45594000000E+02  0.51100000000E-03 0.  1.
    9900012    2    1    2    0    0 -0.13892351713E+02  0.12539931355E+02 -0.65625755186E+00  0.72461601828E+02  0.70000041079E+02 0.  0.
        -12    1    1    2    0    0  0.13892351713E+02 -0.12539931355E+02  0.65625755186E+00  0.18726398172E+02  0.00000000000E+00 0.  1.
         11    1    3    3    0    0  0.10231508746E+02  0.17252832053E+02 -0.23781910670E+02  0.31111465096E+02  0.51100000000E-03 0.  1.
        -11    1    3    3    0    0 -0.14054405202E+02  0.34366091975E+01  0.24364813207E+02  0.28336914285E+02  0.51100000000E-03 0. -1.
        -12    1    3    3    0    0 -0.10069455258E+02 -0.81495098952E+01 -0.12391600892E+01  0.13013222447E+02  0.00000000000E+00 0.  1.
</event>
<event>
 7    1  0.1905073E-013  0.7246158E+02  0.7816164E-02  0.1226708E+00
        -11   -1    0    0    0    0  0.00000000000E+00  0.00000000000E+00  0.45593999997E+02  0.45594000000E+02  0.51100000000E-03 0. -1.
         11   -1    0    0    0    0 -0.00000000000E+00 -0.00000000000E+00 -0.45593999997E+02  0.45594000000E+02  0.51100000000E-03 0.  1.
    9900012    2    1    2    0    0 -0.13230176247E+02 -0.58790618869E+01  0.11877622882E+02  0.72461578625E+02  0.70000010852E+02 0.  0.
        -12    1    1    2    0    0  0.13230176247E+02  0.58790618869E+01 -0.11877622882E+02  0.18726421375E+02  0.00000000000E+00 0.  1.
         11    1    3    3    0    0 -0.12873930001E+02  0.57702050202E+01  0.86189906192E+01  0.16532402705E+02  0.51100000000E-03 0. -1.
        -11    1    3    3    0    0  0.12244833233E+02  0.10058976671E+02 -0.17316887051E+02  0.23473251372E+02  0.51100000000E-03 0.  1.
        -12    1    3    3    0    0 -0.12601079479E+02 -0.21708243578E+02  0.20575519314E+02  0.32455924548E+02  0.00000000000E+00 0.  1.
</event>
<event>
 7    1  0.1905073E-013  0.7246156E+02  0.7816164E-02  0.1226708E+00
        -11   -1    0    0    0    0  0.00000000000E+00  0.00000000000E+00  0.45593999997E+02  0.45594000000E+02  0.51100000000E-03 0. -1.
         11   -1    0    0    0    0 -0.00000000000E+00 -0.00000000000E+00 -0.45593999997E+02  0.45594000000E+02  0.51100000000E-03 0.  1.
    9900012    2    1    2    0    0  0.18153912723E+02 -0.41121447892E+01  0.20506962586E+01  0.72461557811E+02  0.69999983738E+02 0.  0.
        -12    1    1    2    0    0 -0.18153912723E+02  0.41121447892E+01 -0.20506962586E+01  0.18726442189E+02  0.00000000000E+00 0.  1.
         11    1    3    3    0    0  0.30169634827E+02 -0.50995722705E+01  0.11966992922E+02  0.32854549500E+02  0.51100000000E-03 0. -1.
        -11    1    3    3    0    0 -0.61940527094E+01  0.17115129795E+02 -0.12757156586E+02  0.22226988129E+02  0.51100000000E-03 0.  1.
        -12    1    3    3    0    0 -0.58216693955E+01 -0.16127702313E+02  0.28408599229E+01  0.17380020183E+02  0.00000000000E+00 0.  1.
</event>
<event>
 7    1  0.1905073E-013  0.7246151E+02  0.7816164E-02  0.1226708E+00
        -11   -1    0    0    0    0  0.00000000000E+00  0.00000000000E+00  0.45593999997E+02  0.45594000000E+02  0.51100000000E-03 0. -1.
         11   -1    0    0    0    0 -0.00000000000E+00 -0.00000000000E+00 -0.45593999997E+02  0.45594000000E+02  0.51100000000E-03 0.  1.
    9900012    2    1    2    0    0  0.18270023470E+02 -0.35929478880E+01 -0.19946215251E+01  0.72461506811E+02  0.69999917301E+02 0.  0.
        -12    1    1    2    0    0 -0.18270023470E+02  0.35929478880E+01  0.19946215251E+01  0.18726493189E+02  0.00000000000E+00 0.  1.
         11    1    3    3    0    0 -0.37429811549E+01 -0.31852214050E+02  0.11130204988E+02  0.33947826310E+02  0.51100000000E-03 0. -1.
        -11    1    3    3    0    0  0.98374155220E+01  0.16143264634E+02 -0.52646321448E+01  0.19623865294E+02  0.51100000000E-03 0.  1.
         12    1    3    3    0    0  0.12175589103E+02  0.12116001528E+02 -0.78601943687E+01  0.18889815207E+02  0.00000000000E+00 0. -1.
</event>
<event>
 7    1  0.1905073E-013  0.7246158E+02  0.7816164E-02  0.1226708E+00
        -11   -1    0    0    0    0  0.00000000000E+00  0.00000000000E+00  0.45593999997E+02  0.45594000000E+02  0.51100000000E-03 0.  1.
         11   -1    0    0    0    0 -0.00000000000E+00 -0.00000000000E+00 -0.45593999997E+02  0.45594000000E+02  0.51100000000E-03 0. -1.
    9900012    2    1    2    0    0 -0.27696770768E+01 -0.17215677512E+02  0.68284748232E+01  0.72461581984E+02  0.70000015228E+02 0.  0.
        -12    1    1    2    0    0  0.27696770768E+01  0.17215677512E+02 -0.68284748232E+01  0.18726418016E+02  0.00000000000E+00 0.  1.
         11    1    3    3    0    0 -0.10201623295E+02 -0.13660686556E+02 -0.26476610430E+02  0.31491242833E+02  0.51100000000E-03 0. -1.
        -11    1    3    3    0    0  0.55825672500E+01 -0.12262384628E+02  0.12660342508E+02  0.18488250500E+02  0.51100000000E-03 0.  1.
         12    1    3    3    0    0  0.18493789684E+01  0.87073936724E+01  0.20644742745E+02  0.22482088651E+02  0.00000000000E+00 0. -1.
</event>
<event>
 7    1  0.1905073E-013  0.7246156E+02  0.7816164E-02  0.1226708E+00
        -11   -1    0    0    0    0  0.00000000000E+00  0.00000000000E+00  0.45593999997E+02  0.45594000000E+02  0.51100000000E-03 0. -1.
         11   -1    0    0    0    0 -0.00000000000E+00 -0.00000000000E+00 -0.45593999997E+02  0.45594000000E+02  0.51100000000E-03 0.  1.
    9900012    2    1    2    0    0 -0.11661897421E+02 -0.11203526397E+02 -0.94424983412E+01  0.72461557997E+02  0.69999983980E+02 0.  0.
        -12    1    1    2    0    0  0.11661897421E+02  0.11203526397E+02  0.94424983412E+01  0.18726442003E+02  0.00000000000E+00 0.  1.
         11    1    3    3    0    0  0.75729970574E+01  0.12729843940E+02  0.21540425621E+02  0.26141712786E+02  0.51100000000E-03 0. -1.
        -11    1    3    3    0    0 -0.50745837568E+01  0.88110887142E+00 -0.86053848781E+01  0.10028978129E+02  0.51100000000E-03 0.  1.
         12    1    3    3    0    0 -0.14160310721E+02 -0.24814479209E+02 -0.22377539084E+02  0.36290867082E+02  0.00000000000E+00 0. -1.
</event>
<event>
 7    1  0.1905073E-013  0.7246156E+02  0.7816164E-02  0.1226708E+00
        -11   -1    0    0    0    0  0.00000000000E+00  0.00000000000E+00  0.45593999997E+02  0.45594000000E+02  0.51100000000E-03 0.  1.
         11   -1    0    0    0    0 -0.00000000000E+00 -0.00000000000E+00 -0.45593999997E+02  0.45594000000E+02  0.51100000000E-03 0. -1.
    9900012    2    1    2    0    0 -0.62883503578E+01  0.17529403748E+02 -0.19636811620E+01  0.72461564416E+02  0.69999992342E+02 0.  0.
        -12    1    1    2    0    0  0.62883503578E+01 -0.17529403748E+02  0.19636811620E+01  0.18726435584E+02  0.00000000000E+00 0.  1.
         11    1    3    3    0    0  0.16292385752E+02  0.10822683367E+02 -0.19133428340E+02  0.27361659106E+02  0.51100000000E-03 0. -1.
        -11    1    3    3    0    0 -0.55920452179E+01 -0.75060497270E+01  0.20655559038E+02  0.22677386791E+02  0.51100000000E-03 0.  1.
         12    1    3    3    0    0 -0.16988690892E+02  0.14212770109E+02 -0.34858118606E+01  0.22422518519E+02  0.00000000000E+00 0. -1.
</event>
<event>
 7    1  0.1905073E-013  0.7246156E+02  0.7816164E-02  0.1226708E+00
        -11   -1    0    0    0    0  0.00000000000E+00  0.00000000000E+00  0.45593999997E+02  0.45594000000E+02  0.51100000000E-03 0. -1.
         11   -1    0    0    0    0 -0.00000000000E+00 -0.00000000000E+00 -0.45593999997E+02  0.45594000000E+02  0.51100000000E-03 0.  1.
    9900012    2    1    2    0    0  0.13716384725E+02 -0.81218037951E+01 -0.98273382260E+01  0.72461561913E+02  0.69999989082E+02 0.  0.
        -12    1    1    2    0    0 -0.13716384725E+02  0.81218037951E+01  0.98273382260E+01  0.18726438087E+02  0.00000000000E+00 0.  1.
         11    1    3    3    0    0  0.28072714382E+02 -0.37288509703E+01 -0.11056268506E+00  0.28319495877E+02  0.51100000000E-03 0. -1.
        -11    1    3    3    0    0 -0.16600937010E+02  0.15372489191E+02 -0.86452153391E+01  0.24220740741E+02  0.51100000000E-03 0.  1.
        -12    1    3    3    0    0  0.22446073535E+01 -0.19765442015E+02 -0.10715602019E+01  0.19921325295E+02  0.00000000000E+00 0.  1.
</event>
<event>
 7    1  0.1905073E-013  0.7246157E+02  0.7816164E-02  0.1226708E+00
        -11   -1    0    0    0    0  0.00000000000E+00  0.00000000000E+00  0.45593999997E+02  0.45594000000E+02  0.51100000000E-03 0.  1.
         11   -1    0    0    0    0 -0.00000000000E+00 -0.00000000000E+00 -0.45593999997E+02  0.45594000000E+02  0.51100000000E-03 0. -1.
    9900012    2    1    2    0    0 -0.40040281735E+01 -0.10236339006E+02 -0.15161271345E+02  0.72461574109E+02  0.70000004969E+02 0.  0.
        -12    1    1    2    0    0  0.40040281735E+01  0.10236339006E+02  0.15161271345E+02  0.18726425891E+02  0.00000000000E+00 0.  1.
         11    1    3    3    0    0  0.18872773687E+02 -0.20746932292E+02  0.11476501495E+01  0.28070160087E+02  0.51100000000E-03 0. -1.
        -11    1    3    3    0    0 -0.25705932458E+02  0.16459156427E+02 -0.44781431662E+01  0.30850487198E+02  0.51100000000E-03 0.  1.
         12    1    3    3    0    0  0.28291305975E+01 -0.59485631418E+01 -0.11830778329E+02  0.13540926824E+02  0.00000000000E+00 0. -1.
</event>
<event>
 7    1  0.1905073E-013  0.7246155E+02  0.7816164E-02  0.1226708E+00
        -11   -1    0    0    0    0  0.00000000000E+00  0.00000000000E+00  0.45593999997E+02  0.45594000000E+02  0.51100000000E-03 0. -1.
         11   -1    0    0    0    0 -0.00000000000E+00 -0.00000000000E+00 -0.45593999997E+02  0.45594000000E+02  0.51100000000E-03 0.  1.
    9900012    2    1    2    0    0  0.48313531918E+00 -0.19088874087E+01  0.18622636275E+02  0.72461552053E+02  0.69999976237E+02 0.  0.
        -12    1    1    2    0    0 -0.48313531918E+00  0.19088874087E+01 -0.18622636275E+02  0.18726447947E+02  0.00000000000E+00 0.  1.
         11    1    3    3    0    0 -0.16618571719E+02 -0.14376843912E+02  0.10493138862E+02  0.24351109426E+02  0.51100000000E-03 0. -1.
        -11    1    3    3    0    0  0.25107381243E+02  0.23089570959E+02  0.62363884770E+01  0.34675660360E+02  0.51100000000E-03 0.  1.
        -12    1    3    3    0    0 -0.80056742039E+01 -0.10621614456E+02  0.18931089368E+01  0.13434782267E+02  0.00000000000E+00 0.  1.
</event>
<event>
 7    1  0.2610804E-013  0.7246168E+02  0.7816164E-02  0.1226708E+00
        -11   -1    0    0    0    0  0.00000000000E+00  0.00000000000E+00  0.45593999997E+02  0.45594000000E+02  0.51100000000E-03 0. -1.
         11   -1    0    0    0    0 -0.00000000000E+00 -0.00000000000E+00 -0.45593999997E+02  0.45594000000E+02  0.51100000000E-03 0.  1.
    9900012    2    1    2    0    0  0.56713756841E+01  0.87315506250E+01  0.15565046160E+02  0.72461677873E+02  0.70000140140E+02 0.  0.
        -12    1    1    2    0    0 -0.56713756841E+01 -0.87315506250E+01 -0.15565046160E+02  0.18726322127E+02  0.00000000000E+00 0.  1.
         11    1    3    3    0    0  0.24678714097E+01  0.66263481101E+01  0.27503724447E+02  0.28398129116E+02  0.51100000000E-03 0. -1.
        -11    1    3    3    0    0  0.76935685462E+01 -0.16385061664E+02 -0.16504136578E+02  0.24495872452E+02  0.51100000000E-03 0.  1.
         12    1    3    3    0    0 -0.44900642717E+01  0.18490264179E+02  0.45654582910E+01  0.19567676305E+02  0.00000000000E+00 0. -1.
</event>
<event>
 7    1  0.1905073E-013  0.7246196E+02  0.7816164E-02  0.1226707E+00
        -11   -1    0    0    0    0  0.00000000000E+00  0.00000000000E+00  0.45593999997E+02  0.45594000000E+02  0.51100000000E-03 0.  1.
         11   -1    0    0    0    0 -0.00000000000E+00 -0.00000000000E+00 -0.45593999997E+02  0.45594000000E+02  0.51100000000E-03 0. -1.
    9900012    2    1    2    0    0  0.11116127050E+02  0.10368186368E+02 -0.10936048794E+02  0.72461955773E+02  0.70000502156E+02 0.  0.
        -12    1    1    2    0    0 -0.11116127050E+02 -0.10368186368E+02  0.10936048794E+02  0.18726044227E+02  0.00000000000E+00 0.  1.
         11    1    3    3    0    0  0.20623350824E+02  0.19031516623E+02 -0.18405091557E+02  0.33559925800E+02  0.51100000000E-03 0. -1.
        -11    1    3    3    0    0 -0.18208085968E+02 -0.79014880019E+01 -0.77880075397E+01  0.21321842532E+02  0.51100000000E-03 0.  1.
         12    1    3    3    0    0  0.87008621932E+01 -0.76184225311E+00  0.15257050303E+02  0.17580187441E+02  0.00000000000E+00 0. -1.
</event>
<event>
 7    1  0.1905073E-013  0.7246156E+02  0.7816164E-02  0.1226708E+00
        -11   -1    0    0    0    0  0.00000000000E+00  0.00000000000E+00  0.45593999997E+02  0.45594000000E+02  0.51100000000E-03 0.  1.
         11   -1    0    0    0    0 -0.00000000000E+00 -0.00000000000E+00 -0.45593999997E+02  0.45594000000E+02  0.51100000000E-03 0. -1.
    9900012    2    1    2    0    0 -0.11047781645E+01  0.92150345508E+01 -0.16264746571E+02  0.72461564739E+02  0.69999992764E+02 0.  0.
        -12    1    1    2    0    0  0.11047781645E+01 -0.92150345508E+01  0.16264746571E+02  0.18726435261E+02  0.00000000000E+00 0.  1.
         11    1    3    3    0    0  0.19301598422E+02  0.30381073018E+02 -0.52873813306E+01  0.36380182806E+02  0.51100000000E-03 0. -1.
        -11    1    3    3    0    0  0.13249372035E+01 -0.52862871071E+01 -0.70043329307E+01  0.88747377447E+01  0.51100000000E-03 0.  1.
         12    1    3    3    0    0 -0.21731313790E+02 -0.15879751360E+02 -0.39730323093E+01  0.27206644189E+02  0.00000000000E+00 0. -1.
</event>
<event>
 7    1  0.1905073E-013  0.7246158E+02  0.7816164E-02  0.1226708E+00
        -11   -1    0    0    0    0  0.00000000000E+00  0.00000000000E+00  0.45593999997E+02  0.45594000000E+02  0.51100000000E-03 0.  1.
         11   -1    0    0    0    0 -0.00000000000E+00 -0.00000000000E+00 -0.45593999997E+02  0.45594000000E+02  0.51100000000E-03 0. -1.
    9900012    2    1    2    0    0  0.71559685542E+01  0.11952784297E+02 -0.12514074038E+02  0.72461575157E+02  0.70000006334E+02 0.  0.
        -12    1    1    2    0    0 -0.71559685542E+01 -0.11952784297E+02  0.12514074038E+02  0.18726424843E+02  0.00000000000E+00 0.  1.
         11    1    3    3    0    0 -0.39671361228E+01 -0.99964891991E+01 -0.12342337309E+02  0.16370743900E+02  0.51100000000E-03 0. -1.
        -11    1    3    3    0    0  0.30792566529E+02  0.18948908211E+02  0.87406896718E+00  0.36166383185E+02  0.51100000000E-03 0.  1.
        -12    1    3    3    0    0 -0.19669461852E+02  0.30003652853E+01 -0.10458056957E+01  0.19924448072E+02  0.00000000000E+00 0.  1.
</event>
<event>
 7    1  0.1905073E-013  0.7246144E+02  0.7816164E-02  0.1226708E+00
        -11   -1    0    0    0    0  0.00000000000E+00  0.00000000000E+00  0.45593999997E+02  0.45594000000E+02  0.51100000000E-03 0.  1.
         11   -1    0    0    0    0 -0.00000000000E+00 -0.00000000000E+00 -0.45593999997E+02  0.45594000000E+02  0.51100000000E-03 0. -1.
    9900012    2    1    2    0    0 -0.36074315158E+01 -0.11766004815E+02 -0.14114945734E+02  0.72461437995E+02  0.69999827655E+02 0.  0.
        -12    1    1    2    0    0  0.36074315158E+01  0.11766004815E+02  0.14114945734E+02  0.18726562005E+02  0.00000000000E+00 0.  1.
         11    1    3    3    0    0 -0.19340968932E+02  0.54492704589E+01 -0.86694261693E+01  0.21884391198E+02  0.51100000000E-03 0. -1.
        -11    1    3    3    0    0  0.21775221484E+02  0.44527266046E+01  0.88515007291E+01  0.23923547194E+02  0.51100000000E-03 0.  1.
        -12    1    3    3    0    0 -0.60416840682E+01 -0.21668001879E+02 -0.14297020294E+02  0.26653499603E+02  0.00000000000E+00 0.  1.
</event>
<event>
 7    1  0.1905073E-013  0.7246162E+02  0.7816164E-02  0.1226708E+00
        -11   -1    0    0    0    0  0.00000000000E+00  0.00000000000E+00  0.45593999997E+02  0.45594000000E+02  0.51100000000E-03 0. -1.
         11   -1    0    0    0    0 -0.00000000000E+00 -0.00000000000E+00 -0.45593999997E+02  0.45594000000E+02  0.51100000000E-03 0.  1.
    9900012    2    1    2    0    0  0.13797412922E+02  0.30019272130E+01  0.12300292428E+02  0.72461618499E+02  0.70000062795E+02 0.  0.
        -12    1    1    2    0    0 -0.13797412922E+02 -0.30019272130E+01 -0.12300292428E+02  0.18726381501E+02  0.00000000000E+00 0.  1.
         11    1    3    3    0    0 -0.95014907992E+00 -0.19612021204E+02 -0.26829584643E+01  0.19817477775E+02  0.51100000000E-03 0.  1.
        -11    1    3    3    0    0  0.26355753467E+02  0.14894620802E+02 -0.23920624864E+01  0.30367703779E+02  0.51100000000E-03 0. -1.
         12    1    3    3    0    0 -0.11608191465E+02  0.77193276150E+01  0.17375313378E+02  0.22276436944E+02  0.00000000000E+00 0. -1.
</event>
<event>
 7    1  0.1905073E-013  0.7246156E+02  0.7816164E-02  0.1226708E+00
        -11   -1    0    0    0    0  0.00000000000E+00  0.00000000000E+00  0.45593999997E+02  0.45594000000E+02  0.51100000000E-03 0. -1.
         11   -1    0    0    0    0 -0.00000000000E+00 -0.00000000000E+00 -0.45593999997E+02  0.45594000000E+02  0.51100000000E-03 0.  1.
    9900012    2    1    2    0    0  0.18000447955E+02  0.50887830708E+01 -0.87620617632E+00  0.72461559415E+02  0.69999985828E+02 0.  0.
        -12    1    1    2    0    0 -0.18000447955E+02 -0.50887830708E+01  0.87620617632E+00  0.18726440585E+02  0.00000000000E+00 0.  1.
         11    1    3    3    0    0  0.20146358675E+01  0.24782235027E+01  0.32800068749E+01  0.45780776280E+01  0.51100000000E-03 0. -1.
        -11    1    3    3    0    0  0.17931256242E+02 -0.98129453990E+01 -0.31634895289E+02  0.37664179907E+02  0.51100000000E-03 0.  1.
        -12    1    3    3    0    0 -0.19454441550E+01  0.12423504967E+02  0.27478682238E+02  0.30219301881E+02  0.00000000000E+00 0.  1.
</event>
<event>
 7    1  0.1905073E-013  0.7246168E+02  0.7816164E-02  0.1226708E+00
        -11   -1    0    0    0    0  0.00000000000E+00  0.00000000000E+00  0.45593999997E+02  0.45594000000E+02  0.51100000000E-03 0. -1.
         11   -1    0    0    0    0 -0.00000000000E+00 -0.00000000000E+00 -0.45593999997E+02  0.45594000000E+02  0.51100000000E-03 0.  1.
    9900012    2    1    2    0    0  0.11804986966E+02 -0.11236313033E+02  0.92229435029E+01  0.72461678026E+02  0.70000140340E+02 0.  0.
        -12    1    1    2    0    0 -0.11804986966E+02  0.11236313033E+02 -0.92229435029E+01  0.18726321974E+02  0.00000000000E+00 0.  1.
         11    1    3    3    0    0  0.66261674019E+01  0.22527707899E+02  0.18555361715E+02  0.29928333837E+02  0.51100000000E-03 0. -1.
        -11    1    3    3    0    0  0.10742695064E+02 -0.33538082989E+02 -0.10687078561E+02  0.36802474866E+02  0.51100000000E-03 0.  1.
        -12    1    3    3    0    0 -0.55638755000E+01 -0.22593794214E+00  0.13546603494E+01  0.57308693228E+01  0.00000000000E+00 0.  1.
</event>
<event>
 7    1  0.1905073E-013  0.7246166E+02  0.7816164E-02  0.1226708E+00
        -11   -1    0    0    0    0  0.00000000000E+00  0.00000000000E+00  0.45593999997E+02  0.45594000000E+02  0.51100000000E-03 0.  1.
         11   -1    0    0    0    0 -0.00000000000E+00 -0.00000000000E+00 -0.45593999997E+02  0.45594000000E+02  0.51100000000E-03 0. -1.
    9900012    2    1    2    0    0 -0.36727994564E+01 -0.12642376164E+02 -0.13317530596E+02  0.72461661541E+02  0.70000118865E+02 0.  0.
        -12    1    1    2    0    0  0.36727994564E+01  0.12642376164E+02  0.13317530596E+02  0.18726338459E+02  0.00000000000E+00 0.  1.
         11    1    3    3    0    0  0.15648158833E+02  0.59265579202E+01 -0.10840130641E+02  0.19937336738E+02  0.51100000000E-03 0.  1.
        -11    1    3    3    0    0 -0.12769259840E+02 -0.33663975911E+02 -0.20660784311E+01  0.36063637523E+02  0.51100000000E-03 0. -1.
         12    1    3    3    0    0 -0.65516984491E+01  0.15095041827E+02 -0.41132152383E+00  0.16460687280E+02  0.00000000000E+00 0. -1.
</event>
<event>
 7    1  0.1905073E-013  0.7246157E+02  0.7816164E-02  0.1226708E+00
        -11   -1    0    0    0    0  0.00000000000E+00  0.00000000000E+00  0.45593999997E+02  0.45594000000E+02  0.51100000000E-03 0.  1.
         11   -1    0    0    0    0 -0.00000000000E+00 -0.00000000000E+00 -0.45593999997E+02  0.45594000000E+02  0.51100000000E-03 0. -1.
    9900012    2    1    2    0    0  0.12100174976E+02 -0.96678798894E+01 -0.10526014240E+02  0.72461571836E+02  0.70000002008E+02 0.  0.
        -12    1    1    2    0    0 -0.12100174976E+02  0.96678798894E+01  0.10526014240E+02  0.18726428164E+02  0.00000000000E+00 0.  1.
         11    1    3    3    0    0 -0.52656330860E+00 -0.19688617713E+01 -0.77942284175E+01  0.80562821746E+01  0.51100000000E-03 0. -1.
        -11    1    3    3    0    0  0.36742388920E+02 -0.12827106008E+02  0.31952358129E+01  0.39048013064E+02  0.51100000000E-03 0.  1.
        -12    1    3    3    0    0 -0.24115650635E+02  0.51280878895E+01 -0.59270216357E+01  0.25357276597E+02  0.00000000000E+00 0.  1.
</event>
<event>
 7    1  0.1905073E-013  0.7246155E+02  0.7816164E-02  0.1226708E+00
        -11   -1    0    0    0    0  0.00000000000E+00  0.00000000000E+00  0.45593999997E+02  0.45594000000E+02  0.51100000000E-03 0. -1.
         11   -1    0    0    0    0 -0.00000000000E+00 -0.00000000000E+00 -0.45593999997E+02  0.45594000000E+02  0.51100000000E-03 0.  1.
    9900012    2    1    2    0    0  0.19840764647E+01 -0.18367768410E+02  0.30607951387E+01  0.72461549651E+02  0.69999973108E+02 0.  0.
        -12    1    1    2    0    0 -0.19840764647E+01  0.18367768410E+02 -0.30607951387E+01  0.18726450349E+02  0.00000000000E+00 0.  1.
         11    1    3    3    0    0 -0.16652924944E+02 -0.18162350193E+02  0.20066287673E+02  0.31778086395E+02  0.51100000000E-03 0. -1.
        -11    1    3    3    0    0  0.18024505409E+02 -0.13329560641E+02 -0.15929455614E+02  0.27501046135E+02  0.51100000000E-03 0.  1.
        -12    1    3    3    0    0  0.61249600019E+00  0.13124142423E+02 -0.10760369199E+01  0.13182417121E+02  0.00000000000E+00 0.  1.
</event>
<event>
 7    1  0.1905073E-013  0.7246154E+02  0.7816164E-02  0.1226708E+00
        -11   -1    0    0    0    0  0.00000000000E+00  0.00000000000E+00  0.45593999997E+02  0.45594000000E+02  0.51100000000E-03 0.  1.
         11   -1    0    0    0    0 -0.00000000000E+00 -0.00000000000E+00 -0.45593999997E+02  0.45594000000E+02  0.51100000000E-03 0. -1.
    9900012    2    1    2    0    0  0.11226735937E+02  0.19922361884E+00 -0.14986695601E+02  0.72461539179E+02  0.69999959467E+02 0.  0.
        -12    1    1    2    0    0 -0.11226735937E+02 -0.19922361884E+00  0.14986695601E+02  0.18726460821E+02  0.00000000000E+00 0.  1.
         11    1    3    3    0    0 -0.33668326262E+00  0.18034704704E+02  0.45107314070E+01  0.18593295229E+02  0.51100000000E-03 0. -1.
        -11    1    3    3    0    0  0.18442105370E+01 -0.29722224201E+02 -0.95622223867E+00  0.29794732507E+02  0.51100000000E-03 0.  1.
         12    1    3    3    0    0  0.97192086622E+01  0.11886743115E+02 -0.18541204769E+02  0.24073511443E+02  0.00000000000E+00 0. -1.
</event>
<event>
 7    1  0.1905073E-013  0.7246183E+02  0.7816164E-02  0.1226707E+00
        -11   -1    0    0    0    0  0.00000000000E+00  0.00000000000E+00  0.45593999997E+02  0.45594000000E+02  0.51100000000E-03 0.  1.
         11   -1    0    0    0    0 -0.00000000000E+00 -0.00000000000E+00 -0.45593999997E+02  0.45594000000E+02  0.51100000000E-03 0. -1.
    9900012    2    1    2    0    0 -0.44100959979E+01 -0.10124593944E+02 -0.15123266786E+02  0.72461827205E+02  0.70000334674E+02 0.  0.
        -12    1    1    2    0    0  0.44100959979E+01  0.10124593944E+02  0.15123266786E+02  0.18726172795E+02  0.00000000000E+00 0.  1.
         11    1    3    3    0    0 -0.10539134152E+02 -0.18715876387E+02  0.44466914099E+01  0.21934685828E+02  0.51100000000E-03 0. -1.
        -11    1    3    3    0    0  0.15981870288E+02  0.17489919466E+02  0.34609180148E+01  0.23943588173E+02  0.51100000000E-03 0.  1.
         12    1    3    3    0    0 -0.98528321337E+01 -0.88986370233E+01 -0.23030876211E+02  0.26583553204E+02  0.00000000000E+00 0. -1.
</event>
<event>
 7    1  0.1905073E-013  0.7246157E+02  0.7816164E-02  0.1226708E+00
        -11   -1    0    0    0    0  0.00000000000E+00  0.00000000000E+00  0.45593999997E+02  0.45594000000E+02  0.51100000000E-03 0.  1.
         11   -1    0    0    0    0 -0.00000000000E+00 -0.00000000000E+00 -0.45593999997E+02  0.45594000000E+02  0.51100000000E-03 0. -1.
    9900012    2    1    2    0    0 -0.16728149251E+02 -0.53972370100E+01  0.64589509774E+01  0.72461569683E+02  0.69999999204E+02 0.  0.
        -12    1    1    2    0    0  0.16728149251E+02  0.53972370100E+01 -0.64589509774E+01  0.18726430317E+02  0.00000000000E+00 0.  1.
         11    1    3    3    0    0 -0.20134741559E+02  0.15888420906E+02 -0.23834828721E+02  0.35013551619E+02  0.51100000000E-03 0. -1.
        -11    1    3    3    0    0  0.14585745609E+01 -0.14251419316E+01  0.32884104994E+01  0.38693814943E+01  0.51100000000E-03 0.  1.
         12    1    3    3    0    0  0.19480177479E+01 -0.19860515984E+02  0.27005369199E+02  0.33578636570E+02  0.00000000000E+00 0. -1.
</event>
<event>
 7    1  0.1905073E-013  0.7246139E+02  0.7816164E-02  0.1226709E+00
        -11   -1    0    0    0    0  0.00000000000E+00  0.00000000000E+00  0.45593999997E+02  0.45594000000E+02  0.51100000000E-03 0.  1.
         11   -1    0    0    0    0 -0.00000000000E+00 -0.00000000000E+00 -0.45593999997E+02  0.45594000000E+02  0.51100000000E-03 0. -1.
    9900012    2    1    2    0    0 -0.11514950105E+01  0.16212870751E+02 -0.93006949548E+01  0.72461386708E+02  0.69999760844E+02 0.  0.
        -12    1    1    2    0    0  0.11514950105E+01 -0.16212870751E+02  0.93006949548E+01  0.18726613292E+02  0.00000000000E+00 0.  1.
         11    1    3    3    0    0  0.98600097734E+01  0.23548287099E+02 -0.22806807543E+02  0.34232909438E+02  0.51100000000E-03 0. -1.
        -11    1    3    3    0    0 -0.21038136817E+02 -0.90462446490E+01  0.21779998380E+01  0.23003943717E+02  0.51100000000E-03 0.  1.
         12    1    3    3    0    0  0.10026632033E+02  0.17108283015E+01  0.11328112751E+02  0.15224533553E+02  0.00000000000E+00 0. -1.
</event>
<event>
 7    1  0.1905073E-013  0.7246155E+02  0.7816164E-02  0.1226708E+00
        -11   -1    0    0    0    0  0.00000000000E+00  0.00000000000E+00  0.45593999997E+02  0.45594000000E+02  0.51100000000E-03 0. -1.
         11   -1    0    0    0    0 -0.00000000000E+00 -0.00000000000E+00 -0.45593999997E+02  0.45594000000E+02  0.51100000000E-03 0.  1.
    9900012    2    1    2    0    0  0.81687680243E+01  0.26647610004E+01  0.16638813086E+02  0.72461552842E+02  0.69999977266E+02 0.  0.
        -12    1    1    2    0    0 -0.81687680243E+01 -0.26647610004E+01 -0.16638813086E+02  0.18726447158E+02  0.00000000000E+00 0.  1.
         11    1    3    3    0    0 -0.54531068599E+01 -0.14590320219E+02  0.25222394596E+02  0.29644274455E+02  0.51100000000E-03 0. -1.
        -11    1    3    3    0    0  0.14806538675E+01  0.23495963472E+02 -0.14809589306E+02  0.27813244525E+02  0.51100000000E-03 0.  1.
         12    1    3    3    0    0  0.12141221017E+02 -0.62408822527E+01  0.62260077962E+01  0.15004033862E+02  0.00000000000E+00 0. -1.
</event>
<event>
 7    1  0.1905073E-013  0.7246159E+02  0.7816164E-02  0.1226708E+00
        -11   -1    0    0    0    0  0.00000000000E+00  0.00000000000E+00  0.45593999997E+02  0.45594000000E+02  0.51100000000E-03 0.  1.
         11   -1    0    0    0    0 -0.00000000000E+00 -0.00000000000E+00 -0.45593999997E+02  0.45594000000E+02  0.51100000000E-03 0. -1.
    9900012    2    1    2    0    0 -0.10223498706E+02  0.73433837222E+01 -0.13864818279E+02  0.72461590942E+02  0.70000026898E+02 0.  0.
        -12    1    1    2    0    0  0.10223498706E+02 -0.73433837222E+01  0.13864818279E+02  0.18726409058E+02  0.00000000000E+00 0.  1.
         11    1    3    3    0    0  0.17639679589E+02 -0.65842414104E+01 -0.65694855783E+01  0.19941631627E+02  0.51100000000E-03 0. -1.
        -11    1    3    3    0    0 -0.15143036005E+02  0.28022007748E+02  0.84421206015E+00  0.31863100162E+02  0.51100000000E-03 0.  1.
        -12    1    3    3    0    0 -0.12720142289E+02 -0.14094382615E+02 -0.81395447611E+01  0.20656859153E+02  0.00000000000E+00 0.  1.
</event>
<event>
 7    1  0.1905073E-013  0.7246143E+02  0.7816164E-02  0.1226708E+00
        -11   -1    0    0    0    0  0.00000000000E+00  0.00000000000E+00  0.45593999997E+02  0.45594000000E+02  0.51100000000E-03 0.  1.
         11   -1    0    0    0    0 -0.00000000000E+00 -0.00000000000E+00 -0.45593999997E+02  0.45594000000E+02  0.51100000000E-03 0. -1.
    9900012    2    1    2    0    0  0.61162295145E+01 -0.16298250156E+02  0.69023931952E+01  0.72461434553E+02  0.69999823171E+02 0.  0.
        -12    1    1    2    0    0 -0.61162295145E+01  0.16298250156E+02 -0.69023931952E+01  0.18726565447E+02  0.00000000000E+00 0.  1.
         11    1    3    3    0    0 -0.18710307182E+01 -0.18469542556E+02  0.28993795793E+02  0.34427677135E+02  0.51100000000E-03 0. -1.
        -11    1    3    3    0    0 -0.23970925339E+01 -0.39958310066E+01 -0.25147456163E+02  0.25575520910E+02  0.51100000000E-03 0.  1.
         12    1    3    3    0    0  0.10384352767E+02  0.61671234069E+01  0.30560535660E+01  0.12458236508E+02  0.00000000000E+00 0. -1.
</event>
<event>
 7    1  0.1905073E-013  0.7246158E+02  0.7816164E-02  0.1226708E+00
        -11   -1    0    0    0    0  0.00000000000E+00  0.00000000000E+00  0.45593999997E+02  0.45594000000E+02  0.51100000000E-03 0.  1.
         11   -1    0    0    0    0 -0.00000000000E+00 -0.00000000000E+00 -0.45593999997E+02  0.45594000000E+02  0.51100000000E-03 0. -1.
    9900012    2    1    2    0    0 -0.13031985427E+02 -0.83405068449E+01 -0.10549034329E+02  0.72461579523E+02  0.70000012022E+02 0.  0.
        -12    1    1    2    0    0  0.13031985427E+02  0.83405068449E+01  0.10549034329E+02  0.18726420477E+02  0.00000000000E+00 0.  1.
         11    1    3    3    0    0  0.91146107556E+01  0.10183849954E+02  0.14885472764E+02  0.20208023871E+02  0.51100000000E-03 0. -1.
        -11    1    3    3    0    0  0.94292403915E+01 -0.78082331695E+01 -0.80168909565E+01  0.14633851867E+02  0.51100000000E-03 0.  1.
         12    1    3    3    0    0 -0.31575836574E+02 -0.10716123630E+02 -0.17417616136E+02  0.37619703785E+02  0.00000000000E+00 0. -1.
</event>
<event>
 7    1  0.1905073E-013  0.7246167E+02  0.7816164E-02  0.1226708E+00
        -11   -1    0    0    0    0  0.00000000000E+00  0.00000000000E+00  0.45593999997E+02  0.45594000000E+02  0.51100000000E-03 0.  1.
         11   -1    0    0    0    0 -0.00000000000E+00 -0.00000000000E+00 -0.45593999997E+02  0.45594000000E+02  0.51100000000E-03 0. -1.
    9900012    2    1    2    0    0 -0.28849205080E+01  0.17142971587E+02 -0.69621172881E+01  0.72461673123E+02  0.70000133954E+02 0.  0.
        -12    1    1    2    0    0  0.28849205080E+01 -0.17142971587E+02  0.69621172881E+01  0.18726326877E+02  0.00000000000E+00 0.  1.
         11    1    3    3    0    0 -0.36505487985E+01  0.20194337720E+02  0.25969447906E+02  0.33099093753E+02  0.51100000000E-03 0. -1.
        -11    1    3    3    0    0 -0.89545895106E+01 -0.19816138027E+01 -0.66722315182E+01  0.11341522837E+02  0.51100000000E-03 0.  1.
         12    1    3    3    0    0  0.97202178011E+01 -0.10697523308E+01 -0.26259333676E+02  0.28021056533E+02  0.00000000000E+00 0. -1.
</event>
<event>
 7    1  0.1905073E-013  0.7246155E+02  0.7816164E-02  0.1226708E+00
        -11   -1    0    0    0    0  0.00000000000E+00  0.00000000000E+00  0.45593999997E+02  0.45594000000E+02  0.51100000000E-03 0. -1.
         11   -1    0    0    0    0 -0.00000000000E+00 -0.00000000000E+00 -0.45593999997E+02  0.45594000000E+02  0.51100000000E-03 0.  1.
    9900012    2    1    2    0    0  0.38323783207E+01 -0.99133038485E+01  0.15418142139E+02  0.72461552825E+02  0.69999977243E+02 0.  0.
        -12    1    1    2    0    0 -0.38323783207E+01  0.99133038485E+01 -0.15418142139E+02  0.18726447175E+02  0.00000000000E+00 0.  1.
         11    1    3    3    0    0  0.10137910993E+01 -0.56814588687E+01 -0.75927737948E+01  0.95371359134E+01  0.51100000000E-03 0.  1.
        -11    1    3    3    0    0  0.57772009324E+01  0.26420352452E+02  0.58468943076E+01  0.27669428032E+02  0.51100000000E-03 0. -1.
        -12    1    3    3    0    0 -0.29586137110E+01 -0.30652197432E+02  0.17164021626E+02  0.35254988879E+02  0.00000000000E+00 0.  1.
</event>
<event>
 7    1  0.1905073E-013  0.7246157E+02  0.7816164E-02  0.1226708E+00
        -11   -1    0    0    0    0  0.00000000000E+00  0.00000000000E+00  0.45593999997E+02  0.45594000000E+02  0.51100000000E-03 0. -1.
         11   -1    0    0    0    0 -0.00000000000E+00 -0.00000000000E+00 -0.45593999997E+02  0.45594000000E+02  0.51100000000E-03 0.  1.
    9900012    2    1    2    0    0  0.62709486187E+00  0.25520345863E+01  0.18541121813E+02  0.72461566101E+02  0.69999994537E+02 0.  0.
        -12    1    1    2    0    0 -0.62709486187E+00 -0.25520345863E+01 -0.18541121813E+02  0.18726433899E+02  0.00000000000E+00 0.  1.
         11    1    3    3    0    0  0.14467457365E+02 -0.31495188539E+01  0.18625422812E+02  0.23793553052E+02  0.51100000000E-03 0. -1.
        -11    1    3    3    0    0 -0.26298887386E+02  0.17182629983E+02 -0.26787255747E+01  0.31528555657E+02  0.51100000000E-03 0.  1.
        -12    1    3    3    0    0  0.12458524883E+02 -0.11481076543E+02  0.25944245754E+01  0.17139457392E+02  0.00000000000E+00 0.  1.
</event>
<event>
 7    1  0.1905073E-013  0.7246221E+02  0.7816164E-02  0.1226706E+00
        -11   -1    0    0    0    0  0.00000000000E+00  0.00000000000E+00  0.45593999997E+02  0.45594000000E+02  0.51100000000E-03 0. -1.
         11   -1    0    0    0    0 -0.00000000000E+00 -0.00000000000E+00 -0.45593999997E+02  0.45594000000E+02  0.51100000000E-03 0.  1.
    9900012    2    1    2    0    0  0.18640836376E+01 -0.17219980108E+02  0.71170805142E+01  0.72462206084E+02  0.70000828230E+02 0.  0.
        -12    1    1    2    0    0 -0.18640836376E+01  0.17219980108E+02 -0.71170805142E+01  0.18725793916E+02  0.00000000000E+00 0.  1.
         11    1    3    3    0    0  0.10844723233E+02  0.16335274533E+02 -0.16051711132E+02  0.25339823334E+02  0.51100000000E-03 0.  1.
        -11    1    3    3    0    0 -0.90851640007E+01 -0.19859373697E+02  0.20281613112E+01  0.21932814847E+02  0.51100000000E-03 0. -1.
         12    1    3    3    0    0  0.10452440546E+00 -0.13695880944E+02  0.21140630335E+02  0.25189567903E+02  0.00000000000E+00 0. -1.
</event>
<event>
 7    1  0.1905073E-013  0.7246158E+02  0.7816164E-02  0.1226708E+00
        -11   -1    0    0    0    0  0.00000000000E+00  0.00000000000E+00  0.45593999997E+02  0.45594000000E+02  0.51100000000E-03 0. -1.
         11   -1    0    0    0    0 -0.00000000000E+00 -0.00000000000E+00 -0.45593999997E+02  0.45594000000E+02  0.51100000000E-03 0.  1.
    9900012    2    1    2    0    0  0.16490980485E+02 -0.88471384838E+01 -0.67426626044E+00  0.72461576644E+02  0.70000008272E+02 0.  0.
        -12    1    1    2    0    0 -0.16490980485E+02  0.88471384838E+01  0.67426626044E+00  0.18726423356E+02  0.00000000000E+00 0.  1.
         11    1    3    3    0    0  0.11715675084E+02 -0.12171742861E+02  0.11188403453E+02  0.20262989390E+02  0.51100000000E-03 0. -1.
        -11    1    3    3    0    0 -0.15114759929E+02  0.19760925792E+02 -0.78376056574E+01  0.26084060623E+02  0.51100000000E-03 0.  1.
        -12    1    3    3    0    0  0.19890065331E+02 -0.16436321415E+02 -0.40250640555E+01  0.26114526631E+02  0.00000000000E+00 0.  1.
</event>
<event>
 7    1  0.1905073E-013  0.7246157E+02  0.7816164E-02  0.1226708E+00
        -11   -1    0    0    0    0  0.00000000000E+00  0.00000000000E+00  0.45593999997E+02  0.45594000000E+02  0.51100000000E-03 0.  1.
         11   -1    0    0    0    0 -0.00000000000E+00 -0.00000000000E+00 -0.45593999997E+02  0.45594000000E+02  0.51100000000E-03 0. -1.
    9900012    2    1    2    0    0  0.36201417636E+01 -0.18372730584E+02  0.12921812440E+00  0.72461565400E+02  0.69999993624E+02 0.  0.
        -12    1    1    2    0    0 -0.36201417636E+01  0.18372730584E+02 -0.12921812440E+00  0.18726434600E+02  0.00000000000E+00 0.  1.
         11    1    3    3    0    0  0.13053094832E+02 -0.28851607184E+02  0.20758189427E+02  0.37864243692E+02  0.51100000000E-03 0. -1.
        -11    1    3    3    0    0 -0.13163247203E+02 -0.22897784360E+01 -0.54913892501E+01  0.14445397826E+02  0.51100000000E-03 0.  1.
         12    1    3    3    0    0  0.37302941345E+01  0.12768655036E+02 -0.15137582053E+02  0.20151923882E+02  0.00000000000E+00 0. -1.
</event>
<event>
 7    1  0.1905073E-013  0.7246148E+02  0.7816164E-02  0.1226708E+00
        -11   -1    0    0    0    0  0.00000000000E+00  0.00000000000E+00  0.45593999997E+02  0.45594000000E+02  0.51100000000E-03 0. -1.
         11   -1    0    0    0    0 -0.00000000000E+00 -0.00000000000E+00 -0.45593999997E+02  0.45594000000E+02  0.51100000000E-03 0.  1.
    9900012    2    1    2    0    0  0.42924965624E+01  0.49178846111E+01  0.17551959391E+02  0.72461484193E+02  0.69999887837E+02 0.  0.
        -12    1    1    2    0    0 -0.42924965624E+01 -0.49178846111E+01 -0.17551959391E+02  0.18726515807E+02  0.00000000000E+00 0.  1.
         11    1    3    3    0    0 -0.15248141791E+02  0.13077403967E+02 -0.19950735213E+02  0.28311767137E+02  0.51100000000E-03 0.  1.
        -11    1    3    3    0    0  0.20211055098E+02 -0.61072478118E+01  0.33406060905E+02  0.39518984418E+02  0.51100000000E-03 0. -1.
        -12    1    3    3    0    0 -0.67041674477E+00 -0.20522715445E+01  0.40966336992E+01  0.46307326385E+01  0.00000000000E+00 0.  1.
</event>
<event>
 7    1  0.1905073E-013  0.7246147E+02  0.7816164E-02  0.1226708E+00
        -11   -1    0    0    0    0  0.00000000000E+00  0.00000000000E+00  0.45593999997E+02  0.45594000000E+02  0.51100000000E-03 0.  1.
         11   -1    0    0    0    0 -0.00000000000E+00 -0.00000000000E+00 -0.45593999997E+02  0.45594000000E+02  0.51100000000E-03 0. -1.
    9900012    2    1    2    0    0  0.85243584013E+01  0.24399525965E+01 -0.16494385411E+02  0.72461473229E+02  0.69999873554E+02 0.  0.
        -12    1    1    2    0    0 -0.85243584013E+01 -0.24399525965E+01  0.16494385411E+02  0.18726526771E+02  0.00000000000E+00 0.  1.
         11    1    3    3    0    0 -0.14878060872E+02 -0.18935335369E+02 -0.12682097404E+02  0.27216524680E+02  0.51100000000E-03 0. -1.
        -11    1    3    3    0    0  0.12461883600E+02  0.19162395483E+02  0.12057083843E+02  0.25843165723E+02  0.51100000000E-03 0.  1.
         12    1    3    3    0    0  0.10940535673E+02  0.22128924817E+01 -0.15869371849E+02  0.19401782826E+02  0.00000000000E+00 0. -1.
</event>
<event>
 7    1  0.1905073E-013  0.7246169E+02  0.7816164E-02  0.1226708E+00
        -11   -1    0    0    0    0  0.00000000000E+00  0.00000000000E+00  0.45593999997E+02  0.45594000000E+02  0.51100000000E-03 0. -1.
         11   -1    0    0    0    0 -0.00000000000E+00 -0.00000000000E+00 -0.45593999997E+02  0.45594000000E+02  0.51100000000E-03 0.  1.
    9900012    2    1    2    0    0  0.16655918023E+02 -0.11445199590E+01 -0.84820485406E+01  0.72461690204E+02  0.70000156204E+02 0.  0.
        -12    1    1    2    0    0 -0.16655918023E+02  0.11445199590E+01  0.84820485406E+01  0.18726309796E+02  0.00000000000E+00 0.  1.
         11    1    3    3    0    0  0.19692122098E+02  0.57190930801E+01  0.76804297892E+01  0.21896956418E+02  0.51100000000E-03 0. -1.
        -11    1    3    3    0    0 -0.21714216354E+02  0.84152704767E+01 -0.43232247281E+01  0.23685739198E+02  0.51100000000E-03 0.  1.
        -12    1    3    3    0    0  0.18678012279E+02 -0.15278883516E+02 -0.11839253602E+02  0.26878994588E+02  0.00000000000E+00 0.  1.
</event>
<event>
 7    1  0.1905073E-013  0.7246155E+02  0.7816164E-02  0.1226708E+00
        -11   -1    0    0    0    0  0.00000000000E+00  0.00000000000E+00  0.45593999997E+02  0.45594000000E+02  0.51100000000E-03 0.  1.
         11   -1    0    0    0    0 -0.00000000000E+00 -0.00000000000E+00 -0.45593999997E+02  0.45594000000E+02  0.51100000000E-03 0. -1.
    9900012    2    1    2    0    0 -0.49901354739E+01 -0.18045769909E+02 -0.35856799390E+00  0.72461552534E+02  0.69999976864E+02 0.  0.
        -12    1    1    2    0    0  0.49901354739E+01  0.18045769909E+02  0.35856799390E+00  0.18726447466E+02  0.00000000000E+00 0.  1.
         11    1    3    3    0    0  0.10944501634E+02  0.67989554312E+01 -0.96513033275E+01  0.16098309450E+02  0.51100000000E-03 0. -1.
        -11    1    3    3    0    0 -0.25928609245E+02 -0.24783591500E+02  0.20527339556E+02  0.41326636138E+02  0.51100000000E-03 0.  1.
        -12    1    3    3    0    0  0.99939721363E+01 -0.61133840604E-01 -0.11234604222E+02  0.15036606946E+02  0.00000000000E+00 0.  1.
</event>
<event>
 7    1  0.1905073E-013  0.7246154E+02  0.7816164E-02  0.1226708E+00
        -11   -1    0    0    0    0  0.00000000000E+00  0.00000000000E+00  0.45593999997E+02  0.45594000000E+02  0.51100000000E-03 0.  1.
         11   -1    0    0    0    0 -0.00000000000E+00 -0.00000000000E+00 -0.45593999997E+02  0.45594000000E+02  0.51100000000E-03 0. -1.
    9900012    2    1    2    0    0 -0.10410335719E+02 -0.51385239707E+01 -0.14693565824E+02  0.72461537574E+02  0.69999957376E+02 0.  0.
        -12    1    1    2    0    0  0.10410335719E+02  0.51385239707E+01  0.14693565824E+02  0.18726462426E+02  0.00000000000E+00 0.  1.
         11    1    3    3    0    0 -0.25475865897E+02  0.12737487890E+02 -0.17531168133E+02  0.33445555718E+02  0.51100000000E-03 0. -1.
        -11    1    3    3    0    0  0.87326409986E+00 -0.36303081389E+01  0.15038633569E+02  0.15495232404E+02  0.51100000000E-03 0.  1.
         12    1    3    3    0    0  0.14192266078E+02 -0.14245703722E+02 -0.12201031260E+02  0.23520749452E+02  0.00000000000E+00 0. -1.
</event>
<event>
 7    1  0.1905073E-013  0.7246158E+02  0.7816164E-02  0.1226708E+00
        -11   -1    0    0    0    0  0.00000000000E+00  0.00000000000E+00  0.45593999997E+02  0.45594000000E+02  0.51100000000E-03 0.  1.
         11   -1    0    0    0    0 -0.00000000000E+00 -0.00000000000E+00 -0.45593999997E+02  0.45594000000E+02  0.51100000000E-03 0. -1.
    9900012    2    1    2    0    0 -0.55116064972E+01 -0.15164209038E+02  0.95051475710E+01  0.72461578231E+02  0.70000010338E+02 0.  0.
        -12    1    1    2    0    0  0.55116064972E+01  0.15164209038E+02 -0.95051475710E+01  0.18726421769E+02  0.00000000000E+00 0.  1.
         11    1    3    3    0    0 -0.13299647697E+02 -0.19994596461E+02  0.28430162963E+02  0.37214764313E+02  0.51100000000E-03 0.  1.
        -11    1    3    3    0    0  0.17081147380E+02  0.77854380064E+01 -0.74707498867E+01  0.20203730965E+02  0.51100000000E-03 0. -1.
         12    1    3    3    0    0 -0.92931061804E+01 -0.29550505842E+01 -0.11454265506E+02  0.15043082952E+02  0.00000000000E+00 0. -1.
</event>
<event>
 7    1  0.1905073E-013  0.7246153E+02  0.7816164E-02  0.1226708E+00
        -11   -1    0    0    0    0  0.00000000000E+00  0.00000000000E+00  0.45593999997E+02  0.45594000000E+02  0.51100000000E-03 0. -1.
         11   -1    0    0    0    0 -0.00000000000E+00 -0.00000000000E+00 -0.45593999997E+02  0.45594000000E+02  0.51100000000E-03 0.  1.
    9900012    2    1    2    0    0  0.21483834506E+01 -0.64981954502E+01  0.17430961757E+02  0.72461534147E+02  0.69999952912E+02 0.  0.
        -12    1    1    2    0    0 -0.21483834506E+01  0.64981954502E+01 -0.17430961757E+02  0.18726465853E+02  0.00000000000E+00 0.  1.
         11    1    3    3    0    0 -0.25479190979E+02 -0.13033200222E+01 -0.82389891016E+01  0.26809863067E+02  0.51100000000E-03 0. -1.
        -11    1    3    3    0    0  0.12653792183E+02  0.90652811444E+01  0.48396938335E+01  0.16300932964E+02  0.51100000000E-03 0.  1.
         12    1    3    3    0    0  0.14973782247E+02 -0.14260156572E+02  0.20830257025E+02  0.29350738116E+02  0.00000000000E+00 0. -1.
</event>
<event>
 7    1  0.1905073E-013  0.7246154E+02  0.7816164E-02  0.1226708E+00
        -11   -1    0    0    0    0  0.00000000000E+00  0.00000000000E+00  0.45593999997E+02  0.45594000000E+02  0.51100000000E-03 0.  1.
         11   -1    0    0    0    0 -0.00000000000E+00 -0.00000000000E+00 -0.45593999997E+02  0.45594000000E+02  0.51100000000E-03 0. -1.
    9900012    2    1    2    0    0 -0.16772470522E+02  0.46173595167E+01 -0.69314203018E+01  0.72461538409E+02  0.69999958464E+02 0.  0.
        -12    1    1    2    0    0  0.16772470522E+02 -0.46173595167E+01  0.69314203018E+01  0.18726461591E+02  0.00000000000E+00 0.  1.
         11    1    3    3    0    0  0.14516337353E+02  0.19470415132E+02  0.69978146281E+01  0.25274305636E+02  0.51100000000E-03 0.  1.
        -11    1    3    3    0    0 -0.34417631345E+02 -0.11380431810E+02 -0.18457869055E+02  0.40678993423E+02  0.51100000000E-03 0. -1.
        -12    1    3    3    0    0  0.31288234703E+01 -0.34726238057E+01  0.45286341248E+01  0.65082393502E+01  0.00000000000E+00 0.  1.
</event>
<event>
 7    1  0.1905073E-013  0.7246134E+02  0.7816164E-02  0.1226709E+00
        -11   -1    0    0    0    0  0.00000000000E+00  0.00000000000E+00  0.45593999997E+02  0.45594000000E+02  0.51100000000E-03 0.  1.
         11   -1    0    0    0    0 -0.00000000000E+00 -0.00000000000E+00 -0.45593999997E+02  0.45594000000E+02  0.51100000000E-03 0. -1.
    9900012    2    1    2    0    0  0.31490559763E+01  0.18459359838E+02 -0.15314218260E+00  0.72461335276E+02  0.69999693844E+02 0.  0.
        -12    1    1    2    0    0 -0.31490559763E+01 -0.18459359838E+02  0.15314218260E+00  0.18726664724E+02  0.00000000000E+00 0.  1.
         11    1    3    3    0    0  0.24058920714E+01  0.34455584622E+01 -0.17401733400E+02  0.17901969595E+02  0.51100000000E-03 0. -1.
        -11    1    3    3    0    0 -0.14314615020E+02 -0.36376571802E+01  0.25280249188E+02  0.29278520321E+02  0.51100000000E-03 0.  1.
        -12    1    3    3    0    0  0.15057778925E+02  0.18651458556E+02 -0.80316579700E+01  0.25280845361E+02  0.00000000000E+00 0.  1.
</event>
<event>
 7    1  0.1905073E-013  0.7246158E+02  0.7816164E-02  0.1226708E+00
        -11   -1    0    0    0    0  0.00000000000E+00  0.00000000000E+00  0.45593999997E+02  0.45594000000E+02  0.51100000000E-03 0.  1.
         11   -1    0    0    0    0 -0.00000000000E+00 -0.00000000000E+00 -0.45593999997E+02  0.45594000000E+02  0.51100000000E-03 0. -1.
    9900012    2    1    2    0    0 -0.18313778911E+02 -0.22633563025E+01  0.31876956361E+01  0.72461583278E+02  0.70000016914E+02 0.  0.
        -12    1    1    2    0    0  0.18313778911E+02  0.22633563025E+01 -0.31876956361E+01  0.18726416722E+02  0.00000000000E+00 0.  1.
         11    1    3    3    0    0 -0.19526631643E+02 -0.15921819959E+00 -0.20590186942E+02  0.28377288319E+02  0.51100000000E-03 0. -1.
        -11    1    3    3    0    0  0.17546014261E+02  0.63859456971E+01  0.13021155127E+02  0.22763861711E+02  0.51100000000E-03 0.  1.
         12    1    3    3    0    0 -0.16333161529E+02 -0.84900838000E+01  0.10756727451E+02  0.21320433249E+02  0.00000000000E+00 0. -1.
</event>
<event>
 7    1  0.1905073E-013  0.7246146E+02  0.7816164E-02  0.1226708E+00
        -11   -1    0    0    0    0  0.00000000000E+00  0.00000000000E+00  0.45593999997E+02  0.45594000000E+02  0.51100000000E-03 0. -1.
         11   -1    0    0    0    0 -0.00000000000E+00 -0.00000000000E+00 -0.45593999997E+02  0.45594000000E+02  0.51100000000E-03 0.  1.
    9900012    2    1    2    0    0  0.12447378490E+02  0.59993516049E+01 -0.12639379801E+02  0.72461458069E+02  0.69999853806E+02 0.  0.
        -12    1    1    2    0    0 -0.12447378490E+02 -0.59993516049E+01  0.12639379801E+02  0.18726541931E+02  0.00000000000E+00 0.  1.
         11    1    3    3    0    0  0.25863571590E+02 -0.33458839141E+00 -0.65814162424E+01  0.26689910543E+02  0.51100000000E-03 0. -1.
        -11    1    3    3    0    0 -0.18834361055E+02  0.28169833822E+01 -0.21686162059E+02  0.28861014827E+02  0.51100000000E-03 0.  1.
         12    1    3    3    0    0  0.54181679555E+01  0.35169566141E+01  0.15628198500E+02  0.16910532700E+02  0.00000000000E+00 0. -1.
</event>
<event>
 7    1  0.1905073E-013  0.7246157E+02  0.7816164E-02  0.1226708E+00
        -11   -1    0    0    0    0  0.00000000000E+00  0.00000000000E+00  0.45593999997E+02  0.45594000000E+02  0.51100000000E-03 0. -1.
         11   -1    0    0    0    0 -0.00000000000E+00 -0.00000000000E+00 -0.45593999997E+02  0.45594000000E+02  0.51100000000E-03 0.  1.
    9900012    2    1    2    0    0 -0.32932818575E+01 -0.10343853948E+02  0.15259038755E+02  0.72461567248E+02  0.69999996031E+02 0.  0.
        -12    1    1    2    0    0  0.32932818575E+01  0.10343853948E+02 -0.15259038755E+02  0.18726432752E+02  0.00000000000E+00 0.  1.
         11    1    3    3    0    0 -0.64390268316E+00  0.14655023308E+02 -0.10913048099E+02  0.18283296691E+02  0.51100000000E-03 0. -1.
        -11    1    3    3    0    0 -0.15314673911E+02 -0.15841072900E+02 -0.18302835737E+01  0.22109472310E+02  0.51100000000E-03 0.  1.
         12    1    3    3    0    0  0.12665294736E+02 -0.91578043555E+01  0.28002370428E+02  0.32068798246E+02  0.00000000000E+00 0. -1.
</event>
<event>
 7    1  0.1905073E-013  0.7246154E+02  0.7816164E-02  0.1226708E+00
        -11   -1    0    0    0    0  0.00000000000E+00  0.00000000000E+00  0.45593999997E+02  0.45594000000E+02  0.51100000000E-03 0.  1.
         11   -1    0    0    0    0 -0.00000000000E+00 -0.00000000000E+00 -0.45593999997E+02  0.45594000000E+02  0.51100000000E-03 0. -1.
    9900012    2    1    2    0    0  0.79150234217E+01 -0.13298280745E+02 -0.10544589905E+02  0.72461541638E+02  0.69999962670E+02 0.  0.
        -12    1    1    2    0    0 -0.79150234217E+01  0.13298280745E+02  0.10544589905E+02  0.18726458362E+02  0.00000000000E+00 0.  1.
         11    1    3    3    0    0 -0.23370261520E+02  0.23163451809E+00 -0.10895011701E+02  0.25786121428E+02  0.51100000000E-03 0. -1.
        -11    1    3    3    0    0  0.21579767997E+02 -0.24019429595E+02  0.16062717566E+01  0.32329545219E+02  0.51100000000E-03 0.  1.
        -12    1    3    3    0    0  0.97055169453E+01  0.10489514333E+02 -0.12558499604E+01  0.14345874990E+02  0.00000000000E+00 0.  1.
</event>
<event>
 7    1  0.1905073E-013  0.7246161E+02  0.7816164E-02  0.1226708E+00
        -11   -1    0    0    0    0  0.00000000000E+00  0.00000000000E+00  0.45593999997E+02  0.45594000000E+02  0.51100000000E-03 0.  1.
         11   -1    0    0    0    0 -0.00000000000E+00 -0.00000000000E+00 -0.45593999997E+02  0.45594000000E+02  0.51100000000E-03 0. -1.
    9900012    2    1    2    0    0 -0.13917104258E+01 -0.74975346729E+01 -0.17103443466E+02  0.72461610533E+02  0.70000052418E+02 0.  0.
        -12    1    1    2    0    0  0.13917104258E+01  0.74975346729E+01  0.17103443466E+02  0.18726389467E+02  0.00000000000E+00 0.  1.
         11    1    3    3    0    0 -0.19147097400E+02  0.16429155961E+02 -0.23418923429E+02  0.34423458270E+02  0.51100000000E-03 0. -1.
        -11    1    3    3    0    0  0.80058083526E+01 -0.26074527437E+02  0.26546929865E+01  0.27404768628E+02  0.51100000000E-03 0.  1.
        -12    1    3    3    0    0  0.97495786218E+01  0.21478368028E+01  0.36607869766E+01  0.10633383635E+02  0.00000000000E+00 0.  1.
</event>
<event>
 7    1  0.1905073E-013  0.7246159E+02  0.7816164E-02  0.1226708E+00
        -11   -1    0    0    0    0  0.00000000000E+00  0.00000000000E+00  0.45593999997E+02  0.45594000000E+02  0.51100000000E-03 0. -1.
         11   -1    0    0    0    0 -0.00000000000E+00 -0.00000000000E+00 -0.45593999997E+02  0.45594000000E+02  0.51100000000E-03 0.  1.
    9900012    2    1    2    0    0  0.82175779795E+01 -0.27380935398E+01  0.16602793548E+02  0.72461588233E+02  0.70000023369E+02 0.  0.
        -12    1    1    2    0    0 -0.82175779795E+01  0.27380935398E+01 -0.16602793548E+02  0.18726411767E+02  0.00000000000E+00 0.  1.
         11    1    3    3    0    0 -0.13563619216E+02 -0.89951070058E+01  0.16303191732E+02  0.23036444543E+02  0.51100000000E-03 0. -1.
        -11    1    3    3    0    0  0.25821292191E+02  0.18354151680E+02  0.10197921338E+02  0.33280799482E+02  0.51100000000E-03 0.  1.
         12    1    3    3    0    0 -0.40400949953E+01 -0.12097138214E+02 -0.98983195219E+01  0.16144344208E+02  0.00000000000E+00 0. -1.
</event>
<event>
 7    1  0.1905073E-013  0.7246168E+02  0.7816164E-02  0.1226708E+00
        -11   -1    0    0    0    0  0.00000000000E+00  0.00000000000E+00  0.45593999997E+02  0.45594000000E+02  0.51100000000E-03 0. -1.
         11   -1    0    0    0    0 -0.00000000000E+00 -0.00000000000E+00 -0.45593999997E+02  0.45594000000E+02  0.51100000000E-03 0.  1.
    9900012    2    1    2    0    0 -0.89202801855E+01  0.39536381456E+01  0.15983507303E+02  0.72461677380E+02  0.70000139498E+02 0.  0.
        -12    1    1    2    0    0  0.89202801855E+01 -0.39536381456E+01 -0.15983507303E+02  0.18726322620E+02  0.00000000000E+00 0.  1.
         11    1    3    3    0    0  0.17136247716E+02  0.10953101082E+02  0.22169585380E+02  0.30085078117E+02  0.51100000000E-03 0. -1.
        -11    1    3    3    0    0 -0.21443377815E+02  0.10143583372E+02 -0.47005751335E+00  0.23726181532E+02  0.51100000000E-03 0.  1.
        -12    1    3    3    0    0 -0.46131500858E+01 -0.17143046309E+02 -0.57160205635E+01  0.18650417731E+02  0.00000000000E+00 0.  1.
</event>
<event>
 7    1  0.1905073E-013  0.7246156E+02  0.7816164E-02  0.1226708E+00
        -11   -1    0    0    0    0  0.00000000000E+00  0.00000000000E+00  0.45593999997E+02  0.45594000000E+02  0.51100000000E-03 0. -1.
         11   -1    0    0    0    0 -0.00000000000E+00 -0.00000000000E+00 -0.45593999997E+02  0.45594000000E+02  0.51100000000E-03 0.  1.
    9900012    2    1    2    0    0 -0.56190750661E+01 -0.63002641816E+01  0.16715631372E+02  0.72461557051E+02  0.69999982748E+02 0.  0.
        -12    1    1    2    0    0  0.56190750661E+01  0.63002641816E+01 -0.16715631372E+02  0.18726442949E+02  0.00000000000E+00 0.  1.
         11    1    3    3    0    0 -0.26887311178E+02 -0.15755522206E+02 -0.27039393893E+01  0.31280589363E+02  0.51100000000E-03 0. -1.
        -11    1    3    3    0    0  0.22213577809E+02  0.21362894133E+01  0.21727330672E+01  0.22421586491E+02  0.51100000000E-03 0.  1.
         12    1    3    3    0    0 -0.94534169618E+00  0.73189686112E+01  0.17246837694E+02  0.18759381197E+02  0.00000000000E+00 0. -1.
</event>
<event>
 7    1  0.1905073E-013  0.7246153E+02  0.7816164E-02  0.1226708E+00
        -11   -1    0    0    0    0  0.00000000000E+00  0.00000000000E+00  0.45593999997E+02  0.45594000000E+02  0.51100000000E-03 0.  1.
         11   -1    0    0    0    0 -0.00000000000E+00 -0.00000000000E+00 -0.45593999997E+02  0.45594000000E+02  0.51100000000E-03 0. -1.
    9900012    2    1    2    0    0 -0.86803092738E+00 -0.67204595806E+01 -0.17457451199E+02  0.72461530578E+02  0.69999948262E+02 0.  0.
        -12    1    1    2    0    0  0.86803092738E+00  0.67204595806E+01  0.17457451199E+02  0.18726469422E+02  0.00000000000E+00 0.  1.
         11    1    3    3    0    0 -0.28294781076E+02 -0.19701102025E+02  0.13174351178E+00  0.34478187507E+02  0.51100000000E-03 0. -1.
        -11    1    3    3    0    0  0.11410324834E+02  0.67375431962E+01 -0.15918693274E+02  0.20712189574E+02  0.51100000000E-03 0.  1.
         12    1    3    3    0    0  0.16016425315E+02  0.62430992479E+01 -0.16705014367E+01  0.17271153497E+02  0.00000000000E+00 0. -1.
</event>
<event>
 7    1  0.1905073E-013  0.7246160E+02  0.7816164E-02  0.1226708E+00
        -11   -1    0    0    0    0  0.00000000000E+00  0.00000000000E+00  0.45593999997E+02  0.45594000000E+02  0.51100000000E-03 0.  1.
         11   -1    0    0    0    0 -0.00000000000E+00 -0.00000000000E+00 -0.45593999997E+02  0.45594000000E+02  0.51100000000E-03 0. -1.
    9900012    2    1    2    0    0 -0.17493654303E+02 -0.53152351470E+01 -0.40495031515E+01  0.72461597748E+02  0.70000035763E+02 0.  0.
        -12    1    1    2    0    0  0.17493654303E+02  0.53152351470E+01  0.40495031515E+01  0.18726402252E+02  0.00000000000E+00 0.  1.
         11    1    3    3    0    0  0.16730924031E+02  0.43615670920E+01 -0.90609500711E+01  0.19520448327E+02  0.51100000000E-03 0. -1.
        -11    1    3    3    0    0 -0.11166088825E+02 -0.21544808165E+02  0.10487702091E+02  0.26435812716E+02  0.51100000000E-03 0.  1.
        -12    1    3    3    0    0 -0.23058489510E+02  0.11868005926E+02 -0.54762551716E+01  0.26505336705E+02  0.00000000000E+00 0.  1.
</event>
<event>
 7    1  0.1905073E-013  0.7246157E+02  0.7816164E-02  0.1226708E+00
        -11   -1    0    0    0    0  0.00000000000E+00  0.00000000000E+00  0.45593999997E+02  0.45594000000E+02  0.51100000000E-03 0. -1.
         11   -1    0    0    0    0 -0.00000000000E+00 -0.00000000000E+00 -0.45593999997E+02  0.45594000000E+02  0.51100000000E-03 0.  1.
    9900012    2    1    2    0    0  0.16138448623E+02 -0.89392096105E+01  0.32124801324E+01  0.72461574259E+02  0.70000005165E+02 0.  0.
        -12    1    1    2    0    0 -0.16138448623E+02  0.89392096105E+01 -0.32124801324E+01  0.18726425741E+02  0.00000000000E+00 0.  1.
         11    1    3    3    0    0  0.32173285049E+02  0.88687088790E+01 -0.68824873365E+01  0.34075546954E+02  0.51100000000E-03 0. -1.
        -11    1    3    3    0    0 -0.13497821688E+02 -0.18252297660E+02  0.18695258892E+02  0.29408336667E+02  0.51100000000E-03 0.  1.
        -12    1    3    3    0    0 -0.25370147382E+01  0.44437917083E+00 -0.86002914235E+01  0.89776906384E+01  0.00000000000E+00 0.  1.
</event>
<event>
 7    1  0.1905073E-013  0.7246159E+02  0.7816164E-02  0.1226708E+00
        -11   -1    0    0    0    0  0.00000000000E+00  0.00000000000E+00  0.45593999997E+02  0.45594000000E+02  0.51100000000E-03 0.  1.
         11   -1    0    0    0    0 -0.00000000000E+00 -0.00000000000E+00 -0.45593999997E+02  0.45594000000E+02  0.51100000000E-03 0. -1.
    9900012    2    1    2    0    0  0.17278545339E+02  0.16784413966E+01 -0.70223209848E+01  0.72461593870E+02  0.70000030711E+02 0.  0.
        -12    1    1    2    0    0 -0.17278545339E+02 -0.16784413966E+01  0.70223209848E+01  0.18726406130E+02  0.00000000000E+00 0.  1.
         11    1    3    3    0    0 -0.27628780416E+01  0.59874260765E+01  0.14048686838E+01  0.67421378193E+01  0.51100000000E-03 0. -1.
        -11    1    3    3    0    0  0.36971100400E+02 -0.19027133441E+02  0.48027472845E+00  0.41582745651E+02  0.51100000000E-03 0.  1.
        -12    1    3    3    0    0 -0.16929677019E+02  0.14718148761E+02 -0.89074643971E+01  0.24136710400E+02  0.00000000000E+00 0.  1.
</event>
<event>
 7    1  0.1905073E-013  0.7246153E+02  0.7816164E-02  0.1226708E+00
        -11   -1    0    0    0    0  0.00000000000E+00  0.00000000000E+00  0.45593999997E+02  0.45594000000E+02  0.51100000000E-03 0.  1.
         11   -1    0    0    0    0 -0.00000000000E+00 -0.00000000000E+00 -0.45593999997E+02  0.45594000000E+02  0.51100000000E-03 0. -1.
    9900012    2    1    2    0    0 -0.15521952293E+02 -0.10456242420E+02 -0.64556839578E+00  0.72461527639E+02  0.69999944434E+02 0.  0.
        -12    1    1    2    0    0  0.15521952293E+02  0.10456242420E+02  0.64556839578E+00  0.18726472361E+02  0.00000000000E+00 0.  1.
         11    1    3    3    0    0 -0.29542716228E+02 -0.21135642557E+02 -0.36463046911E+01  0.36507300729E+02  0.51100000000E-03 0. -1.
        -11    1    3    3    0    0  0.99203090214E+01  0.21802041749E+02  0.14208451559E+01  0.23995006912E+02  0.51100000000E-03 0.  1.
         12    1    3    3    0    0  0.41004549136E+01 -0.11122641612E+02  0.15798911394E+01  0.11959219998E+02  0.00000000000E+00 0. -1.
</event>
<event>
 7    1  0.1905073E-013  0.7246156E+02  0.7816164E-02  0.1226708E+00
        -11   -1    0    0    0    0  0.00000000000E+00  0.00000000000E+00  0.45593999997E+02  0.45594000000E+02  0.51100000000E-03 0.  1.
         11   -1    0    0    0    0 -0.00000000000E+00 -0.00000000000E+00 -0.45593999997E+02  0.45594000000E+02  0.51100000000E-03 0. -1.
    9900012    2    1    2    0    0 -0.69820998280E+01  0.17126553158E+02 -0.29344283244E+01  0.72461563856E+02  0.69999991613E+02 0.  0.
        -12    1    1    2    0    0  0.69820998280E+01 -0.17126553158E+02  0.29344283244E+01  0.18726436144E+02  0.00000000000E+00 0.  1.
         11    1    3    3    0    0 -0.29129597453E+02  0.69751937452E+01 -0.11943778490E+02  0.32246559823E+02  0.51100000000E-03 0. -1.
        -11    1    3    3    0    0  0.86318026623E+01  0.10522116444E+02  0.19022836183E+02  0.23389981795E+02  0.51100000000E-03 0.  1.
        -12    1    3    3    0    0  0.13515694962E+02 -0.37075703184E+00 -0.10013486017E+02  0.16825022238E+02  0.00000000000E+00 0.  1.
</event>
<event>
 7    1  0.1905073E-013  0.7246159E+02  0.7816164E-02  0.1226708E+00
        -11   -1    0    0    0    0  0.00000000000E+00  0.00000000000E+00  0.45593999997E+02  0.45594000000E+02  0.51100000000E-03 0. -1.
         11   -1    0    0    0    0 -0.00000000000E+00 -0.00000000000E+00 -0.45593999997E+02  0.45594000000E+02  0.51100000000E-03 0.  1.
    9900012    2    1    2    0    0  0.86589543570E+01 -0.73075484651E+01  0.14909753282E+02  0.72461588222E+02  0.70000023355E+02 0.  0.
        -12    1    1    2    0    0 -0.86589543570E+01  0.73075484651E+01 -0.14909753282E+02  0.18726411778E+02  0.00000000000E+00 0.  1.
         11    1    3    3    0    0  0.37423108467E+02 -0.75851051865E+01 -0.20624474164E+00  0.38184622628E+02  0.51100000000E-03 0.  1.
        -11    1    3    3    0    0 -0.21707039516E+02 -0.25032694014E+01  0.64986956776E+01  0.22796819253E+02  0.51100000000E-03 0. -1.
        -12    1    3    3    0    0 -0.70571145940E+01  0.27808261227E+01  0.86173023462E+01  0.11480146342E+02  0.00000000000E+00 0.  1.
</event>
<event>
 7    1  0.1905073E-013  0.7246163E+02  0.7816164E-02  0.1226708E+00
        -11   -1    0    0    0    0  0.00000000000E+00  0.00000000000E+00  0.45593999997E+02  0.45594000000E+02  0.51100000000E-03 0.  1.
         11   -1    0    0    0    0 -0.00000000000E+00 -0.00000000000E+00 -0.45593999997E+02  0.45594000000E+02  0.51100000000E-03 0. -1.
    9900012    2    1    2    0    0  0.17565986493E+02 -0.34704833700E+01 -0.54834976616E+01  0.72461631348E+02  0.70000079533E+02 0.  0.
        -12    1    1    2    0    0 -0.17565986493E+02  0.34704833700E+01  0.54834976616E+01  0.18726368652E+02  0.00000000000E+00 0.  1.
         11    1    3    3    0    0  0.10374157659E+02  0.33350968934E+01 -0.38156318836E+01  0.11545781280E+02  0.51100000000E-03 0. -1.
        -11    1    3    3    0    0 -0.23547244468E+02  0.75206547853E+01  0.74145380974E+01  0.25807137499E+02  0.51100000000E-03 0.  1.
        -12    1    3    3    0    0  0.30739073302E+02 -0.14326235049E+02 -0.90824038754E+01  0.35108712569E+02  0.00000000000E+00 0.  1.
</event>
<event>
 7    1  0.1905073E-013  0.7246153E+02  0.7816164E-02  0.1226708E+00
        -11   -1    0    0    0    0  0.00000000000E+00  0.00000000000E+00  0.45593999997E+02  0.45594000000E+02  0.51100000000E-03 0.  1.
         11   -1    0    0    0    0 -0.00000000000E+00 -0.00000000000E+00 -0.45593999997E+02  0.45594000000E+02  0.51100000000E-03 0. -1.
    9900012    2    1    2    0    0 -0.66674759091E+01  0.15597201482E+02  0.79342815755E+01  0.72461528010E+02  0.69999944917E+02 0.  0.
        -12    1    1    2    0    0  0.66674759091E+01 -0.15597201482E+02 -0.79342815755E+01  0.18726471990E+02  0.00000000000E+00 0.  1.
         11    1    3    3    0    0 -0.64642701057E+01 -0.15006217188E+01  0.24145333601E+02  0.25040682668E+02  0.51100000000E-03 0. -1.
        -11    1    3    3    0    0  0.18566294811E+02  0.17811254185E+02 -0.10503394276E+02  0.27789734979E+02  0.51100000000E-03 0.  1.
         12    1    3    3    0    0 -0.18769500614E+02 -0.71343098411E+00 -0.57076577496E+01  0.19631110362E+02  0.00000000000E+00 0. -1.
</event>
<event>
 7    1  0.1905073E-013  0.7246156E+02  0.7816164E-02  0.1226708E+00
        -11   -1    0    0    0    0  0.00000000000E+00  0.00000000000E+00  0.45593999997E+02  0.45594000000E+02  0.51100000000E-03 0.  1.
         11   -1    0    0    0    0 -0.00000000000E+00 -0.00000000000E+00 -0.45593999997E+02  0.45594000000E+02  0.51100000000E-03 0. -1.
    9900012    2    1    2    0    0 -0.10827662397E+02  0.15169143120E+02  0.18270847796E+01  0.72461563746E+02  0.69999991470E+02 0.  0.
        -12    1    1    2    0    0  0.10827662397E+02 -0.15169143120E+02 -0.18270847796E+01  0.18726436254E+02  0.00000000000E+00 0.  1.
         11    1    3    3    0    0 -0.52660914703E+01  0.10349526659E+02 -0.14730794978E+02  0.18757418329E+02  0.51100000000E-03 0. -1.
        -11    1    3    3    0    0 -0.26211547372E+02 -0.33649076304E+01  0.17114291093E+02  0.31484389448E+02  0.51100000000E-03 0.  1.
        -12    1    3    3    0    0  0.20649976445E+02  0.81845240914E+01 -0.55641133589E+00  0.22219755970E+02  0.00000000000E+00 0.  1.
</event>
<event>
 7    1  0.1905073E-013  0.7246149E+02  0.7816164E-02  0.1226708E+00
        -11   -1    0    0    0    0  0.00000000000E+00  0.00000000000E+00  0.45593999997E+02  0.45594000000E+02  0.51100000000E-03 0.  1.
         11   -1    0    0    0    0 -0.00000000000E+00 -0.00000000000E+00 -0.45593999997E+02  0.45594000000E+02  0.51100000000E-03 0. -1.
    9900012    2    1    2    0    0  0.98764537608E+01  0.15355226720E+02 -0.41659026073E+01  0.72461492824E+02  0.69999899080E+02 0.  0.
        -12    1    1    2    0    0 -0.98764537608E+01 -0.15355226720E+02  0.41659026073E+01  0.18726507176E+02  0.00000000000E+00 0.  1.
         11    1    3    3    0    0 -0.12791202971E+02  0.40784340518E+01  0.20959839784E+02  0.24891030148E+02  0.51100000000E-03 0.  1.
        -11    1    3    3    0    0 -0.43716295425E+00  0.15610230864E+02 -0.15988144622E+02  0.22349299492E+02  0.51100000000E-03 0. -1.
        -12    1    3    3    0    0  0.23104819686E+02 -0.43334381960E+01 -0.91375977698E+01  0.25221163184E+02  0.00000000000E+00 0.  1.
</event>
<event>
 7    1  0.1905073E-013  0.7246160E+02  0.7816164E-02  0.1226708E+00
        -11   -1    0    0    0    0  0.00000000000E+00  0.00000000000E+00  0.45593999997E+02  0.45594000000E+02  0.51100000000E-03 0. -1.
         11   -1    0    0    0    0 -0.00000000000E+00 -0.00000000000E+00 -0.45593999997E+02  0.45594000000E+02  0.51100000000E-03 0.  1.
    9900012    2    1    2    0    0  0.11354386448E+02  0.27737294234E+01  0.14630875959E+02  0.72461596238E+02  0.70000033797E+02 0.  0.
        -12    1    1    2    0    0 -0.11354386448E+02 -0.27737294234E+01 -0.14630875959E+02  0.18726403762E+02  0.00000000000E+00 0.  1.
         11    1    3    3    0    0  0.19326890830E+02  0.14877355248E+02  0.30624160569E+02  0.39149758864E+02  0.51100000000E-03 0. -1.
        -11    1    3    3    0    0 -0.36275666696E+01  0.79087532337E+01 -0.39629843794E+01  0.95610074315E+01  0.51100000000E-03 0.  1.
         12    1    3    3    0    0 -0.43449377118E+01 -0.20012379059E+02 -0.12030300231E+02  0.23750829942E+02  0.00000000000E+00 0. -1.
</event>
<event>
 7    1  0.1905073E-013  0.7246153E+02  0.7816164E-02  0.1226708E+00
        -11   -1    0    0    0    0  0.00000000000E+00  0.00000000000E+00  0.45593999997E+02  0.45594000000E+02  0.51100000000E-03 0. -1.
         11   -1    0    0    0    0 -0.00000000000E+00 -0.00000000000E+00 -0.45593999997E+02  0.45594000000E+02  0.51100000000E-03 0.  1.
    9900012    2    1    2    0    0  0.67091761873E+01  0.39423520640E+01  0.17033069642E+02  0.72461530863E+02  0.69999948634E+02 0.  0.
        -12    1    1    2    0    0 -0.67091761873E+01 -0.39423520640E+01 -0.17033069642E+02  0.18726469137E+02  0.00000000000E+00 0.  1.
         11    1    3    3    0    0 -0.16054032148E+02 -0.10615162169E+02  0.24573831559E+02  0.31213567785E+02  0.51100000000E-03 0. -1.
        -11    1    3    3    0    0  0.27974342217E+02  0.82365915956E+01  0.13058221877E+01  0.29190930705E+02  0.51100000000E-03 0.  1.
         12    1    3    3    0    0 -0.52111338816E+01  0.63209226375E+01 -0.88465841054E+01  0.12057032373E+02  0.00000000000E+00 0. -1.
</event>
<event>
 7    1  0.1905073E-013  0.7246157E+02  0.7816164E-02  0.1226708E+00
        -11   -1    0    0    0    0  0.00000000000E+00  0.00000000000E+00  0.45593999997E+02  0.45594000000E+02  0.51100000000E-03 0.  1.
         11   -1    0    0    0    0 -0.00000000000E+00 -0.00000000000E+00 -0.45593999997E+02  0.45594000000E+02  0.51100000000E-03 0. -1.
    9900012    2    1    2    0    0 -0.31992383990E+01  0.17359215923E+02  0.62531194013E+01  0.72461574659E+02  0.70000005686E+02 0.  0.
        -12    1    1    2    0    0  0.31992383990E+01 -0.17359215923E+02 -0.62531194013E+01  0.18726425341E+02  0.00000000000E+00 0.  1.
         11    1    3    3    0    0 -0.68962852986E+01  0.32959263295E+02 -0.18354431986E+02  0.38350449302E+02  0.51100000000E-03 0. -1.
        -11    1    3    3    0    0  0.10588881765E+02 -0.11276067887E+02  0.15481078247E+02  0.21884650054E+02  0.51100000000E-03 0.  1.
         12    1    3    3    0    0 -0.68918348650E+01 -0.43239794850E+01  0.91264731399E+01  0.12226475304E+02  0.00000000000E+00 0. -1.
</event>
<event>
 7    1  0.1905073E-013  0.7246150E+02  0.7816164E-02  0.1226708E+00
        -11   -1    0    0    0    0  0.00000000000E+00  0.00000000000E+00  0.45593999997E+02  0.45594000000E+02  0.51100000000E-03 0.  1.
         11   -1    0    0    0    0 -0.00000000000E+00 -0.00000000000E+00 -0.45593999997E+02  0.45594000000E+02  0.51100000000E-03 0. -1.
    9900012    2    1    2    0    0  0.71066199429E+01 -0.27687894581E+01 -0.17102970763E+02  0.72461498698E+02  0.69999906733E+02 0.  0.
        -12    1    1    2    0    0 -0.71066199429E+01  0.27687894581E+01  0.17102970763E+02  0.18726501302E+02  0.00000000000E+00 0.  1.
         11    1    3    3    0    0  0.29507732797E+02 -0.13287963046E+02 -0.97230105889E+01  0.33790726419E+02  0.51100000000E-03 0.  1.
        -11    1    3    3    0    0  0.19289157592E+01  0.12051638299E+02  0.23380345892E+01  0.12426950861E+02  0.51100000000E-03 0. -1.
         12    1    3    3    0    0 -0.24330028613E+02 -0.15324647111E+01 -0.97179947636E+01  0.26243821418E+02  0.00000000000E+00 0. -1.
</event>
<event>
 7    1  0.1905073E-013  0.7246150E+02  0.7816164E-02  0.1226708E+00
        -11   -1    0    0    0    0  0.00000000000E+00  0.00000000000E+00  0.45593999997E+02  0.45594000000E+02  0.51100000000E-03 0. -1.
         11   -1    0    0    0    0 -0.00000000000E+00 -0.00000000000E+00 -0.45593999997E+02  0.45594000000E+02  0.51100000000E-03 0.  1.
    9900012    2    1    2    0    0  0.14711684211E+02  0.37030896258E+00 -0.11580629894E+02  0.72461500866E+02  0.69999909557E+02 0.  0.
        -12    1    1    2    0    0 -0.14711684211E+02 -0.37030896258E+00  0.11580629894E+02  0.18726499134E+02  0.00000000000E+00 0.  1.
         11    1    3    3    0    0  0.15717173571E+02 -0.44847867437E+01  0.18266403848E+02  0.24511311002E+02  0.51100000000E-03 0. -1.
        -11    1    3    3    0    0 -0.57490869042E+01  0.19147252653E+02 -0.82627636266E+01  0.21631979738E+02  0.51100000000E-03 0.  1.
         12    1    3    3    0    0  0.47435975439E+01 -0.14292156946E+02 -0.21584270116E+02  0.26318210127E+02  0.00000000000E+00 0. -1.
</event>
<event>
 7    1  0.1905073E-013  0.7246155E+02  0.7816164E-02  0.1226708E+00
        -11   -1    0    0    0    0  0.00000000000E+00  0.00000000000E+00  0.45593999997E+02  0.45594000000E+02  0.51100000000E-03 0. -1.
         11   -1    0    0    0    0 -0.00000000000E+00 -0.00000000000E+00 -0.45593999997E+02  0.45594000000E+02  0.51100000000E-03 0.  1.
    9900012    2    1    2    0    0 -0.23623533443E+00  0.14220458723E+02  0.12182067071E+02  0.72461547812E+02  0.69999970712E+02 0.  0.
        -12    1    1    2    0    0  0.23623533443E+00 -0.14220458723E+02 -0.12182067071E+02  0.18726452188E+02  0.00000000000E+00 0.  1.
         11    1    3    3    0    0  0.28037948023E+01 -0.31623886015E+01  0.10617920869E+02  0.11428132428E+02  0.51100000000E-03 0. -1.
        -11    1    3    3    0    0  0.12415231207E+02  0.32848186783E+02  0.11591149003E+02  0.36979671123E+02  0.51100000000E-03 0.  1.
        -12    1    3    3    0    0 -0.15455261344E+02 -0.15465339459E+02 -0.10027002801E+02  0.24053744261E+02  0.00000000000E+00 0.  1.
</event>
<event>
 7    1  0.1905073E-013  0.7246159E+02  0.7816164E-02  0.1226708E+00
        -11   -1    0    0    0    0  0.00000000000E+00  0.00000000000E+00  0.45593999997E+02  0.45594000000E+02  0.51100000000E-03 0.  1.
         11   -1    0    0    0    0 -0.00000000000E+00 -0.00000000000E+00 -0.45593999997E+02  0.45594000000E+02  0.51100000000E-03 0. -1.
    9900012    2    1    2    0    0 -0.17343331188E+02 -0.44120372396E+00 -0.70493128976E+01  0.72461585240E+02  0.70000019470E+02 0.  0.
        -12    1    1    2    0    0  0.17343331188E+02  0.44120372396E+00  0.70493128976E+01  0.18726414760E+02  0.00000000000E+00 0.  1.
         11    1    3    3    0    0 -0.14878494597E+02  0.65567061725E+01 -0.26532841292E+02  0.31118349323E+02  0.51100000000E-03 0. -1.
        -11    1    3    3    0    0  0.15235122612E+02 -0.89284114547E+01  0.48936592815E+01  0.18324120539E+02  0.51100000000E-03 0.  1.
        -12    1    3    3    0    0 -0.17699959204E+02  0.19305015582E+01  0.14589869113E+02  0.23019115378E+02  0.00000000000E+00 0.  1.
</event>
<event>
 7    1  0.1905073E-013  0.7246161E+02  0.7816164E-02  0.1226708E+00
        -11   -1    0    0    0    0  0.00000000000E+00  0.00000000000E+00  0.45593999997E+02  0.45594000000E+02  0.51100000000E-03 0. -1.
         11   -1    0    0    0    0 -0.00000000000E+00 -0.00000000000E+00 -0.45593999997E+02  0.45594000000E+02  0.51100000000E-03 0.  1.
    9900012    2    1    2    0    0  0.15751660442E+02 -0.97346577385E+01  0.27927211133E+01  0.72461610621E+02  0.70000052532E+02 0.  0.
        -12    1    1    2    0    0 -0.15751660442E+02  0.97346577385E+01 -0.27927211133E+01  0.18726389379E+02  0.00000000000E+00 0.  1.
         11    1    3    3    0    0  0.35536139977E+02 -0.27200648829E+01 -0.21042548425E+01  0.35702155203E+02  0.51100000000E-03 0. -1.
        -11    1    3    3    0    0 -0.18871492641E+02  0.19664445350E+01  0.14273928599E+02  0.23743318565E+02  0.51100000000E-03 0.  1.
         12    1    3    3    0    0 -0.91298689440E+00 -0.89810373907E+01 -0.93769526429E+01  0.13016136852E+02  0.00000000000E+00 0. -1.
</event>
<event>
 7    1  0.1905073E-013  0.7246159E+02  0.7816164E-02  0.1226708E+00
        -11   -1    0    0    0    0  0.00000000000E+00  0.00000000000E+00  0.45593999997E+02  0.45594000000E+02  0.51100000000E-03 0. -1.
         11   -1    0    0    0    0 -0.00000000000E+00 -0.00000000000E+00 -0.45593999997E+02  0.45594000000E+02  0.51100000000E-03 0.  1.
    9900012    2    1    2    0    0 -0.16693898431E+02 -0.27745118172E+01  0.80183759936E+01  0.72461587791E+02  0.70000022792E+02 0.  0.
        -12    1    1    2    0    0  0.16693898431E+02  0.27745118172E+01 -0.80183759936E+01  0.18726412209E+02  0.00000000000E+00 0.  1.
         11    1    3    3    0    0 -0.28521663832E+02 -0.29738266796E+01  0.16478832159E+02  0.33073869784E+02  0.51100000000E-03 0. -1.
        -11    1    3    3    0    0  0.13129792607E+02  0.16775672745E+02 -0.14793551227E+01  0.21354230068E+02  0.51100000000E-03 0.  1.
        -12    1    3    3    0    0 -0.13020272059E+01 -0.16576357883E+02 -0.69811010423E+01  0.18033487939E+02  0.00000000000E+00 0.  1.
</event>
<event>
 7    1  0.1905073E-013  0.7246149E+02  0.7816164E-02  0.1226708E+00
        -11   -1    0    0    0    0  0.00000000000E+00  0.00000000000E+00  0.45593999997E+02  0.45594000000E+02  0.51100000000E-03 0. -1.
         11   -1    0    0    0    0 -0.00000000000E+00 -0.00000000000E+00 -0.45593999997E+02  0.45594000000E+02  0.51100000000E-03 0.  1.
    9900012    2    1    2    0    0 -0.16731030444E+02  0.66699207745E+01  0.51251306659E+01  0.72461489721E+02  0.69999895039E+02 0.  0.
        -12    1    1    2    0    0  0.16731030444E+02 -0.66699207745E+01 -0.51251306659E+01  0.18726510279E+02  0.00000000000E+00 0.  1.
         11    1    3    3    0    0  0.13433838685E+02  0.10123972564E+02  0.26923516558E+02  0.31746473606E+02  0.51100000000E-03 0. -1.
        -11    1    3    3    0    0 -0.11916347101E+02 -0.50977743957E+01 -0.17703099474E+02  0.21940518756E+02  0.51100000000E-03 0.  1.
        -12    1    3    3    0    0 -0.18248522029E+02  0.16437226066E+01 -0.40952864182E+01  0.18774497359E+02  0.00000000000E+00 0.  1.
</event>
<event>
 7    1  0.1905073E-013  0.7246156E+02  0.7816164E-02  0.1226708E+00
        -11   -1    0    0    0    0  0.00000000000E+00  0.00000000000E+00  0.45593999997E+02  0.45594000000E+02  0.51100000000E-03 0. -1.
         11   -1    0    0    0    0 -0.00000000000E+00 -0.00000000000E+00 -0.45593999997E+02  0.45594000000E+02  0.51100000000E-03 0.  1.
    9900012    2    1    2    0    0 -0.29613231985E+01 -0.17597602123E+02  0.56775421541E+01  0.72461560924E+02  0.69999987793E+02 0.  0.
        -12    1    1    2    0    0  0.29613231985E+01  0.17597602123E+02 -0.56775421541E+01  0.18726439076E+02  0.00000000000E+00 0.  1.
         11    1    3    3    0    0  0.15922988083E+02 -0.25759556709E+02 -0.13648386215E+02  0.33217085331E+02  0.51100000000E-03 0. -1.
        -11    1    3    3    0    0 -0.22584199121E+01  0.15478042329E+02  0.11749819737E+02  0.19563448544E+02  0.51100000000E-03 0.  1.
         12    1    3    3    0    0 -0.16625891369E+02 -0.73160877430E+01  0.75761086326E+01  0.19681027049E+02  0.00000000000E+00 0. -1.
</event>
<event>
 7    1  0.1905073E-013  0.7246162E+02  0.7816164E-02  0.1226708E+00
        -11   -1    0    0    0    0  0.00000000000E+00  0.00000000000E+00  0.45593999997E+02  0.45594000000E+02  0.51100000000E-03 0.  1.
         11   -1    0    0    0    0 -0.00000000000E+00 -0.00000000000E+00 -0.45593999997E+02  0.45594000000E+02  0.51100000000E-03 0. -1.
    9900012    2    1    2    0    0 -0.27919979179E+01  0.17288196984E+02 -0.66332659461E+01  0.72461622228E+02  0.70000067654E+02 0.  0.
        -12    1    1    2    0    0  0.27919979179E+01 -0.17288196984E+02  0.66332659461E+01  0.18726377772E+02  0.00000000000E+00 0.  1.
         11    1    3    3    0    0 -0.89808620095E+00 -0.99559127888E+01 -0.38543947625E+01  0.10713688325E+02  0.51100000000E-03 0. -1.
        -11    1    3    3    0    0 -0.22011182744E+02  0.33762714068E+02  0.73634792879E+00  0.40310733504E+02  0.51100000000E-03 0.  1.
        -12    1    3    3    0    0  0.20117271027E+02 -0.65186042954E+01 -0.35152191124E+01  0.21437200399E+02  0.00000000000E+00 0.  1.
</event>
<event>
 7    1  0.1905073E-013  0.7246157E+02  0.7816164E-02  0.1226708E+00
        -11   -1    0    0    0    0  0.00000000000E+00  0.00000000000E+00  0.45593999997E+02  0.45594000000E+02  0.51100000000E-03 0. -1.
         11   -1    0    0    0    0 -0.00000000000E+00 -0.00000000000E+00 -0.45593999997E+02  0.45594000000E+02  0.51100000000E-03 0.  1.
    9900012    2    1    2    0    0 -0.67782453953E+01 -0.15190816118E+02  0.86007874494E+01  0.72461573493E+02  0.70000004167E+02 0.  0.
        -12    1    1    2    0    0  0.67782453953E+01  0.15190816118E+02 -0.86007874494E+01  0.18726426507E+02  0.00000000000E+00 0.  1.
         11    1    3    3    0    0 -0.10559534580E+02 -0.16536795655E+02  0.25239288242E+02  0.31968594782E+02  0.51100000000E-03 0. -1.
        -11    1    3    3    0    0 -0.51680386031E+01 -0.96832192681E+01 -0.22572735993E+02  0.25099836032E+02  0.51100000000E-03 0.  1.
        -12    1    3    3    0    0  0.89493277874E+01  0.11029198805E+02  0.59342351999E+01  0.15393142679E+02  0.00000000000E+00 0.  1.
</event>
<event>
 7    1  0.1905073E-013  0.7246160E+02  0.7816164E-02  0.1226708E+00
        -11   -1    0    0    0    0  0.00000000000E+00  0.00000000000E+00  0.45593999997E+02  0.45594000000E+02  0.51100000000E-03 0.  1.
         11   -1    0    0    0    0 -0.00000000000E+00 -0.00000000000E+00 -0.45593999997E+02  0.45594000000E+02  0.51100000000E-03 0. -1.
    9900012    2    1    2    0    0 -0.92532346363E+01 -0.14713084916E+02  0.69699908638E+01  0.72461601745E+02  0.70000040970E+02 0.  0.
        -12    1    1    2    0    0  0.92532346363E+01  0.14713084916E+02 -0.69699908638E+01  0.18726398255E+02  0.00000000000E+00 0.  1.
         11    1    3    3    0    0  0.54283927066E+01 -0.64502502787E+01  0.66798627563E+01  0.10756102581E+02  0.51100000000E-03 0. -1.
        -11    1    3    3    0    0  0.11486390220E+02  0.88790036392E+00 -0.22853274622E+02  0.25592922626E+02  0.51100000000E-03 0.  1.
        -12    1    3    3    0    0 -0.26168017563E+02 -0.91507350008E+01  0.23143402729E+02  0.36112576537E+02  0.00000000000E+00 0.  1.
</event>
<event>
 7    1  0.1905073E-013  0.7246165E+02  0.7816164E-02  0.1226708E+00
        -11   -1    0    0    0    0  0.00000000000E+00  0.00000000000E+00  0.45593999997E+02  0.45594000000E+02  0.51100000000E-03 0.  1.
         11   -1    0    0    0    0 -0.00000000000E+00 -0.00000000000E+00 -0.45593999997E+02  0.45594000000E+02  0.51100000000E-03 0. -1.
    9900012    2    1    2    0    0  0.15201102852E+02 -0.68922731399E+00 -0.10914551668E+02  0.72461654913E+02  0.70000110232E+02 0.  0.
        -12    1    1    2    0    0 -0.15201102852E+02  0.68922731399E+00  0.10914551668E+02  0.18726345087E+02  0.00000000000E+00 0.  1.
         11    1    3    3    0    0 -0.74448571379E+01 -0.19259900425E+02 -0.23542892314E+02  0.31315131182E+02  0.51100000000E-03 0. -1.
        -11    1    3    3    0    0  0.18243532211E+02 -0.17883085036E+01  0.58445623430E+01  0.19240151353E+02  0.51100000000E-03 0.  1.
         12    1    3    3    0    0  0.44024277785E+01  0.20358981614E+02  0.67837783026E+01  0.21906372378E+02  0.00000000000E+00 0. -1.
</event>
<event>
 7    1  0.1905073E-013  0.7246157E+02  0.7816164E-02  0.1226708E+00
        -11   -1    0    0    0    0  0.00000000000E+00  0.00000000000E+00  0.45593999997E+02  0.45594000000E+02  0.51100000000E-03 0.  1.
         11   -1    0    0    0    0 -0.00000000000E+00 -0.00000000000E+00 -0.45593999997E+02  0.45594000000E+02  0.51100000000E-03 0. -1.
    9900012    2    1    2    0    0 -0.68259600976E+01  0.16581324691E+02  0.53986279236E+01  0.72461568327E+02  0.69999997437E+02 0.  0.
        -12    1    1    2    0    0  0.68259600976E+01 -0.16581324691E+02 -0.53986279236E+01  0.18726431673E+02  0.00000000000E+00 0.  1.
         11    1    3    3    0    0 -0.15379361281E+02  0.21512293572E+02  0.97992634229E+01  0.28201579602E+02  0.51100000000E-03 0. -1.
        -11    1    3    3    0    0  0.16971274585E+01 -0.22721310815E+02 -0.92443351965E+01  0.24588532698E+02  0.51100000000E-03 0.  1.
        -12    1    3    3    0    0  0.68562737246E+01  0.17790341933E+02  0.48436996972E+01  0.19671456027E+02  0.00000000000E+00 0.  1.
</event>
<event>
 7    1  0.1905073E-013  0.7246138E+02  0.7816164E-02  0.1226709E+00
        -11   -1    0    0    0    0  0.00000000000E+00  0.00000000000E+00  0.45593999997E+02  0.45594000000E+02  0.51100000000E-03 0.  1.
         11   -1    0    0    0    0 -0.00000000000E+00 -0.00000000000E+00 -0.45593999997E+02  0.45594000000E+02  0.51100000000E-03 0. -1.
    9900012    2    1    2    0    0  0.28305932533E+00 -0.23112911885E+01 -0.18581285728E+02  0.72461378072E+02  0.69999749594E+02 0.  0.
        -12    1    1    2    0    0 -0.28305932533E+00  0.23112911885E+01  0.18581285728E+02  0.18726621928E+02  0.00000000000E+00 0.  1.
         11    1    3    3    0    0 -0.24228066540E+02 -0.60156649325E+01 -0.12522836714E+02  0.27928638930E+02  0.51100000000E-03 0. -1.
        -11    1    3    3    0    0  0.28524992860E+02 -0.44586321755E+01 -0.14335209378E+02  0.32234342660E+02  0.51100000000E-03 0.  1.
        -12    1    3    3    0    0 -0.40138669944E+01  0.81630059195E+01  0.82767603646E+01  0.12298396482E+02  0.00000000000E+00 0.  1.
</event>
<event>
 7    1  0.1905073E-013  0.7246158E+02  0.7816164E-02  0.1226708E+00
        -11   -1    0    0    0    0  0.00000000000E+00  0.00000000000E+00  0.45593999997E+02  0.45594000000E+02  0.51100000000E-03 0.  1.
         11   -1    0    0    0    0 -0.00000000000E+00 -0.00000000000E+00 -0.45593999997E+02  0.45594000000E+02  0.51100000000E-03 0. -1.
    9900012    2    1    2    0    0 -0.82352278043E+01  0.16802513158E+02  0.73166729733E+00  0.72461581163E+02  0.70000014159E+02 0.  0.
        -12    1    1    2    0    0  0.82352278043E+01 -0.16802513158E+02 -0.73166729733E+00  0.18726418837E+02  0.00000000000E+00 0.  1.
         11    1    3    3    0    0  0.75994437320E+00  0.39201913229E+02  0.13377323319E+02  0.41428496180E+02  0.51100000000E-03 0.  1.
        -11    1    3    3    0    0 -0.13024424198E+02 -0.19093651241E+02 -0.99221196663E+01  0.25152566516E+02  0.51100000000E-03 0. -1.
        -12    1    3    3    0    0  0.40292520204E+01 -0.33057488301E+01 -0.27235363554E+01  0.58805184679E+01  0.00000000000E+00 0.  1.
</event>
<event>
 7    1  0.1905073E-013  0.7246158E+02  0.7816164E-02  0.1226708E+00
        -11   -1    0    0    0    0  0.00000000000E+00  0.00000000000E+00  0.45593999997E+02  0.45594000000E+02  0.51100000000E-03 0.  1.
         11   -1    0    0    0    0 -0.00000000000E+00 -0.00000000000E+00 -0.45593999997E+02  0.45594000000E+02  0.51100000000E-03 0. -1.
    9900012    2    1    2    0    0 -0.18510946018E+02  0.38287223155E+00 -0.28066147118E+01  0.72461580167E+02  0.70000012861E+02 0.  0.
        -12    1    1    2    0    0  0.18510946018E+02 -0.38287223155E+00  0.28066147118E+01  0.18726419833E+02  0.00000000000E+00 0.  1.
         11    1    3    3    0    0 -0.33324784302E+02 -0.55373212374E+01 -0.23751964018E+01  0.33865096094E+02  0.51100000000E-03 0. -1.
        -11    1    3    3    0    0  0.17516868163E+02  0.12954055620E+02  0.11385031424E+02  0.24581846311E+02  0.51100000000E-03 0.  1.
         12    1    3    3    0    0 -0.27030298783E+01 -0.70338621515E+01 -0.11816449734E+02  0.14014637762E+02  0.00000000000E+00 0. -1.
</event>
<event>
 7    1  0.1905073E-013  0.7246171E+02  0.7816164E-02  0.1226708E+00
        -11   -1    0    0    0    0  0.00000000000E+00  0.00000000000E+00  0.45593999997E+02  0.45594000000E+02  0.51100000000E-03 0.  1.
         11   -1    0    0    0    0 -0.00000000000E+00 -0.00000000000E+00 -0.45593999997E+02  0.45594000000E+02  0.51100000000E-03 0. -1.
    9900012    2    1    2    0    0  0.90408793663E+01 -0.38756979538E+01 -0.15934719107E+02  0.72461713465E+02  0.70000186507E+02 0.  0.
        -12    1    1    2    0    0 -0.90408793663E+01  0.38756979538E+01  0.15934719107E+02  0.18726286535E+02  0.00000000000E+00 0.  1.
         11    1    3    3    0    0 -0.27656223848E+02  0.16677816197E+00 -0.48274645806E+00  0.27660939552E+02  0.51100000000E-03 0.  1.
        -11    1    3    3    0    0  0.27324680836E+02 -0.85426524746E+01 -0.18353269531E+02  0.34006728700E+02  0.51100000000E-03 0. -1.
        -12    1    3    3    0    0  0.93724223779E+01  0.45001763588E+01  0.29012968819E+01  0.10794045214E+02  0.00000000000E+00 0.  1.
</event>
<event>
 7    1  0.1905073E-013  0.7246160E+02  0.7816164E-02  0.1226708E+00
        -11   -1    0    0    0    0  0.00000000000E+00  0.00000000000E+00  0.45593999997E+02  0.45594000000E+02  0.51100000000E-03 0.  1.
         11   -1    0    0    0    0 -0.00000000000E+00 -0.00000000000E+00 -0.45593999997E+02  0.45594000000E+02  0.51100000000E-03 0. -1.
    9900012    2    1    2    0    0 -0.10699430532E+02  0.16894284106E+01 -0.15275670641E+02  0.72461598968E+02  0.70000037353E+02 0.  0.
        -12    1    1    2    0    0  0.10699430532E+02 -0.16894284106E+01  0.15275670641E+02  0.18726401032E+02  0.00000000000E+00 0.  1.
         11    1    3    3    0    0 -0.60659954812E+01  0.34888999937E+01 -0.83873552358E+01  0.10923207059E+02  0.51100000000E-03 0. -1.
        -11    1    3    3    0    0 -0.12340677801E+02 -0.24773053190E+02  0.12630963524E+02  0.30422651639E+02  0.51100000000E-03 0.  1.
        -12    1    3    3    0    0  0.77072427496E+01  0.22973581607E+02 -0.19519278929E+02  0.31115740270E+02  0.00000000000E+00 0.  1.
</event>
<event>
 7    1  0.1905073E-013  0.7246092E+02  0.7816164E-02  0.1226710E+00
        -11   -1    0    0    0    0  0.00000000000E+00  0.00000000000E+00  0.45593999997E+02  0.45594000000E+02  0.51100000000E-03 0. -1.
         11   -1    0    0    0    0 -0.00000000000E+00 -0.00000000000E+00 -0.45593999997E+02  0.45594000000E+02  0.51100000000E-03 0.  1.
    9900012    2    1    2    0    0  0.16185501012E+02  0.71299429652E+01  0.61560514664E+01  0.72460920694E+02  0.69999153769E+02 0.  0.
        -12    1    1    2    0    0 -0.16185501012E+02 -0.71299429652E+01 -0.61560514664E+01  0.18727079306E+02  0.00000000000E+00 0.  1.
         11    1    3    3    0    0  0.30310043574E+02  0.18758419115E+02  0.13241884547E+01  0.35669742141E+02  0.51100000000E-03 0. -1.
        -11    1    3    3    0    0 -0.29868873795E+01 -0.15890335305E+02  0.14283874957E+02  0.21574367578E+02  0.51100000000E-03 0.  1.
         12    1    3    3    0    0 -0.11137655182E+02  0.42618591558E+01 -0.94520119452E+01  0.15216810975E+02  0.00000000000E+00 0. -1.
</event>
<event>
 7    1  0.1905073E-013  0.7246155E+02  0.7816164E-02  0.1226708E+00
        -11   -1    0    0    0    0  0.00000000000E+00  0.00000000000E+00  0.45593999997E+02  0.45594000000E+02  0.51100000000E-03 0.  1.
         11   -1    0    0    0    0 -0.00000000000E+00 -0.00000000000E+00 -0.45593999997E+02  0.45594000000E+02  0.51100000000E-03 0. -1.
    9900012    2    1    2    0    0 -0.49079834019E+01  0.91251355155E+01  0.15598828398E+02  0.72461552215E+02  0.69999976448E+02 0.  0.
        -12    1    1    2    0    0  0.49079834019E+01 -0.91251355155E+01 -0.15598828398E+02  0.18726447785E+02  0.00000000000E+00 0.  1.
         11    1    3    3    0    0  0.22259597113E+02  0.29839847179E+01  0.21301863382E+02  0.30954211543E+02  0.51100000000E-03 0. -1.
        -11    1    3    3    0    0 -0.19437022432E+02 -0.46889794097E+00  0.10710664971E+02  0.22197658676E+02  0.51100000000E-03 0.  1.
         12    1    3    3    0    0 -0.77305580833E+01  0.66100487386E+01 -0.16413699955E+02  0.19309681997E+02  0.00000000000E+00 0. -1.
</event>
<event>
 7    1  0.1905073E-013  0.7246164E+02  0.7816164E-02  0.1226708E+00
        -11   -1    0    0    0    0  0.00000000000E+00  0.00000000000E+00  0.45593999997E+02  0.45594000000E+02  0.51100000000E-03 0. -1.
         11   -1    0    0    0    0 -0.00000000000E+00 -0.00000000000E+00 -0.45593999997E+02  0.45594000000E+02  0.51100000000E-03 0.  1.
    9900012    2    1    2    0    0  0.41231948787E+01 -0.77754819300E+00  0.18250235892E+02  0.72461643512E+02  0.70000095380E+02 0.  0.
        -12    1    1    2    0    0 -0.41231948787E+01  0.77754819300E+00 -0.18250235892E+02  0.18726356488E+02  0.00000000000E+00 0.  1.
         11    1    3    3    0    0 -0.26371832051E+01  0.14930460621E+02  0.16251670642E+02  0.22225890051E+02  0.51100000000E-03 0. -1.
        -11    1    3    3    0    0 -0.18840640041E+02 -0.15423347319E+02 -0.15028555914E+01  0.24394834184E+02  0.51100000000E-03 0.  1.
        -12    1    3    3    0    0  0.25601018125E+02 -0.28466149438E+00  0.35014208407E+01  0.25840919277E+02  0.00000000000E+00 0.  1.
</event>
<event>
 7    1  0.1905073E-013  0.7246155E+02  0.7816164E-02  0.1226708E+00
        -11   -1    0    0    0    0  0.00000000000E+00  0.00000000000E+00  0.45593999997E+02  0.45594000000E+02  0.51100000000E-03 0. -1.
         11   -1    0    0    0    0 -0.00000000000E+00 -0.00000000000E+00 -0.45593999997E+02  0.45594000000E+02  0.51100000000E-03 0.  1.
    9900012    2    1    2    0    0 -0.11777216242E+02 -0.81189058818E+01  0.12085545073E+02  0.72461551996E+02  0.69999976163E+02 0.  0.
        -12    1    1    2    0    0  0.11777216242E+02  0.81189058818E+01 -0.12085545073E+02  0.18726448004E+02  0.00000000000E+00 0.  1.
         11    1    3    3    0    0 -0.34667379745E+01 -0.18774673194E+02  0.26508049090E+01  0.19275201494E+02  0.51100000000E-03 0. -1.
        -11    1    3    3    0    0  0.12773026961E+02  0.21799220829E+02 -0.43562877433E+01  0.25638515746E+02  0.51100000000E-03 0.  1.
        -12    1    3    3    0    0 -0.21083505229E+02 -0.11143453517E+02  0.13791027907E+02  0.27547834756E+02  0.00000000000E+00 0.  1.
</event>
<event>
 7    1  0.2462768E-013  0.7246160E+02  0.7816164E-02  0.1226708E+00
        -11   -1    0    0    0    0  0.00000000000E+00  0.00000000000E+00  0.45593999997E+02  0.45594000000E+02  0.51100000000E-03 0. -1.
         11   -1    0    0    0    0 -0.00000000000E+00 -0.00000000000E+00 -0.45593999997E+02  0.45594000000E+02  0.51100000000E-03 0.  1.
    9900012    2    1    2    0    0 -0.63699608067E+01  0.52452096082E+01  0.16810397350E+02  0.72461599289E+02  0.70000037771E+02 0.  0.
        -12    1    1    2    0    0  0.63699608067E+01 -0.52452096082E+01 -0.16810397350E+02  0.18726400711E+02  0.00000000000E+00 0.  1.
         11    1    3    3    0    0  0.27428684263E+01  0.25300723950E+02  0.12414226134E+02  0.28315419304E+02  0.51100000000E-03 0. -1.
        -11    1    3    3    0    0 -0.23198386154E+02 -0.17616175079E+02 -0.20202121153E+00  0.29129633664E+02  0.51100000000E-03 0.  1.
         12    1    3    3    0    0  0.14085556921E+02 -0.24393392625E+01  0.45981924273E+01  0.15016546321E+02  0.00000000000E+00 0. -1.
</event>
<event>
 7    1  0.1905073E-013  0.7246157E+02  0.7816164E-02  0.1226708E+00
        -11   -1    0    0    0    0  0.00000000000E+00  0.00000000000E+00  0.45593999997E+02  0.45594000000E+02  0.51100000000E-03 0. -1.
         11   -1    0    0    0    0 -0.00000000000E+00 -0.00000000000E+00 -0.45593999997E+02  0.45594000000E+02  0.51100000000E-03 0.  1.
    9900012    2    1    2    0    0 -0.15176841682E+02  0.65115579054E+01  0.88284961858E+01  0.72461568020E+02  0.69999997038E+02 0.  0.
        -12    1    1    2    0    0  0.15176841682E+02 -0.65115579054E+01 -0.88284961858E+01  0.18726431980E+02  0.00000000000E+00 0.  1.
         11    1    3    3    0    0  0.47563783655E+01 -0.15607654122E+02  0.26648163927E+02  0.31246546102E+02  0.51100000000E-03 0. -1.
        -11    1    3    3    0    0 -0.20030911204E+02  0.64875516904E+01 -0.13447200503E+02  0.24983052900E+02  0.51100000000E-03 0.  1.
         12    1    3    3    0    0  0.97691156509E-01  0.15631660337E+02 -0.43724672375E+01  0.16231969018E+02  0.00000000000E+00 0. -1.
</event>
<event>
 7    1  0.1905073E-013  0.7246154E+02  0.7816164E-02  0.1226708E+00
        -11   -1    0    0    0    0  0.00000000000E+00  0.00000000000E+00  0.45593999997E+02  0.45594000000E+02  0.51100000000E-03 0. -1.
         11   -1    0    0    0    0 -0.00000000000E+00 -0.00000000000E+00 -0.45593999997E+02  0.45594000000E+02  0.51100000000E-03 0.  1.
    9900012    2    1    2    0    0  0.81254776213E-01  0.34417624122E+01  0.18407280833E+02  0.72461539616E+02  0.69999960036E+02 0.  0.
        -12    1    1    2    0    0 -0.81254776213E-01 -0.34417624122E+01 -0.18407280833E+02  0.18726460384E+02  0.00000000000E+00 0.  1.
         11    1    3    3    0    0  0.67188266739E+01  0.25660075705E+02  0.20994664197E+02  0.33828361505E+02  0.51100000000E-03 0. -1.
        -11    1    3    3    0    0 -0.15838647422E+02 -0.13402948108E+02 -0.10881831985E+02  0.23428957249E+02  0.51100000000E-03 0.  1.
        -12    1    3    3    0    0  0.92010755242E+01 -0.88153651848E+01  0.82944486206E+01  0.15204220863E+02  0.00000000000E+00 0.  1.
</event>
<event>
 7    1  0.1905073E-013  0.7246179E+02  0.7816164E-02  0.1226707E+00
        -11   -1    0    0    0    0  0.00000000000E+00  0.00000000000E+00  0.45593999997E+02  0.45594000000E+02  0.51100000000E-03 0. -1.
         11   -1    0    0    0    0 -0.00000000000E+00 -0.00000000000E+00 -0.45593999997E+02  0.45594000000E+02  0.51100000000E-03 0.  1.
    9900012    2    1    2    0    0 -0.10453319693E+02 -0.15552708822E+01 -0.15458986172E+02  0.72461788061E+02  0.70000283681E+02 0.  0.
        -12    1    1    2    0    0  0.10453319693E+02  0.15552708822E+01  0.15458986172E+02  0.18726211939E+02  0.00000000000E+00 0.  1.
         11    1    3    3    0    0  0.24241254826E+02 -0.63963724038E+01  0.15961504828E+01  0.25121698033E+02  0.51100000000E-03 0. -1.
        -11    1    3    3    0    0 -0.16340594557E+02 -0.59686382072E+01 -0.19226869701E+02  0.25928983614E+02  0.51100000000E-03 0.  1.
         12    1    3    3    0    0 -0.18353979961E+02  0.10809739729E+02  0.21717330462E+01  0.21411106414E+02  0.00000000000E+00 0. -1.
</event>
<event>
 7    1  0.1905073E-013  0.7246171E+02  0.7816164E-02  0.1226708E+00
        -11   -1    0    0    0    0  0.00000000000E+00  0.00000000000E+00  0.45593999997E+02  0.45594000000E+02  0.51100000000E-03 0.  1.
         11   -1    0    0    0    0 -0.00000000000E+00 -0.00000000000E+00 -0.45593999997E+02  0.45594000000E+02  0.51100000000E-03 0. -1.
    9900012    2    1    2    0    0  0.64818733086E+01  0.17443249326E+02 -0.20958222509E+01  0.72461705664E+02  0.70000176344E+02 0.  0.
        -12    1    1    2    0    0 -0.64818733086E+01 -0.17443249326E+02  0.20958222509E+01  0.18726294336E+02  0.00000000000E+00 0.  1.
         11    1    3    3    0    0 -0.15156852013E+00 -0.68066003261E+01  0.21930620617E+02  0.22963120475E+02  0.51100000000E-03 0.  1.
        -11    1    3    3    0    0  0.18907490681E+02  0.24360610272E+02 -0.15198553859E+02  0.34379188128E+02  0.51100000000E-03 0. -1.
        -12    1    3    3    0    0 -0.12274048853E+02 -0.11076061979E+00 -0.88278890089E+01  0.15119397061E+02  0.00000000000E+00 0.  1.
</event>
<event>
 7    1  0.1905073E-013  0.7246160E+02  0.7816164E-02  0.1226708E+00
        -11   -1    0    0    0    0  0.00000000000E+00  0.00000000000E+00  0.45593999997E+02  0.45594000000E+02  0.51100000000E-03 0. -1.
         11   -1    0    0    0    0 -0.00000000000E+00 -0.00000000000E+00 -0.45593999997E+02  0.45594000000E+02  0.51100000000E-03 0.  1.
    9900012    2    1    2    0    0  0.78096494334E+00 -0.15944981281E+02  0.97890562944E+01  0.72461602657E+02  0.70000042159E+02 0.  0.
        -12    1    1    2    0    0 -0.78096494334E+00  0.15944981281E+02 -0.97890562944E+01  0.18726397343E+02  0.00000000000E+00 0.  1.
         11    1    3    3    0    0 -0.39543703900E+01 -0.80308420333E+01 -0.24521616942E+02  0.26104428104E+02  0.51100000000E-03 0.  1.
        -11    1    3    3    0    0 -0.84982866767E+01 -0.57600197454E+01  0.30845082009E+02  0.32508734031E+02  0.51100000000E-03 0. -1.
         12    1    3    3    0    0  0.13233622010E+02 -0.21541195024E+01  0.34655912278E+01  0.13848440522E+02  0.00000000000E+00 0. -1.
</event>
<event>
 7    1  0.1905073E-013  0.7246173E+02  0.7816164E-02  0.1226708E+00
        -11   -1    0    0    0    0  0.00000000000E+00  0.00000000000E+00  0.45593999997E+02  0.45594000000E+02  0.51100000000E-03 0. -1.
         11   -1    0    0    0    0 -0.00000000000E+00 -0.00000000000E+00 -0.45593999997E+02  0.45594000000E+02  0.51100000000E-03 0.  1.
    9900012    2    1    2    0    0 -0.17348469730E+02  0.58275799457E+01  0.39677782809E+01  0.72461725558E+02  0.70000202259E+02 0.  0.
        -12    1    1    2    0    0  0.17348469730E+02 -0.58275799457E+01 -0.39677782809E+01  0.18726274442E+02  0.00000000000E+00 0.  1.
         11    1    3    3    0    0 -0.33444302458E+01  0.56929485663E+01 -0.16586442983E+02  0.17852309883E+02  0.51100000000E-03 0.  1.
        -11    1    3    3    0    0 -0.26126659204E+02 -0.74524544761E+01  0.27546490940E+02  0.38690445361E+02  0.51100000000E-03 0. -1.
        -12    1    3    3    0    0  0.12122619720E+02  0.75870858555E+01 -0.69922696754E+01  0.15918970314E+02  0.00000000000E+00 0.  1.
</event>
<event>
 7    1  0.1905073E-013  0.7246159E+02  0.7816164E-02  0.1226708E+00
        -11   -1    0    0    0    0  0.00000000000E+00  0.00000000000E+00  0.45593999997E+02  0.45594000000E+02  0.51100000000E-03 0.  1.
         11   -1    0    0    0    0 -0.00000000000E+00 -0.00000000000E+00 -0.45593999997E+02  0.45594000000E+02  0.51100000000E-03 0. -1.
    9900012    2    1    2    0    0  0.11091497047E+02 -0.61577315001E+01  0.13774596876E+02  0.72461588623E+02  0.70000023876E+02 0.  0.
        -12    1    1    2    0    0 -0.11091497047E+02  0.61577315001E+01 -0.13774596876E+02  0.18726411377E+02  0.00000000000E+00 0.  1.
         11    1    3    3    0    0 -0.10063207421E+02  0.78786989105E+01  0.56113773949E+00  0.12792846280E+02  0.51100000000E-03 0. -1.
        -11    1    3    3    0    0 -0.56003727247E+01 -0.27145029033E+02  0.18393804385E+01  0.27777690626E+02  0.51100000000E-03 0.  1.
        -12    1    3    3    0    0  0.26755077192E+02  0.13108598622E+02  0.11374078698E+02  0.31891051717E+02  0.00000000000E+00 0.  1.
</event>
<event>
 7    1  0.1905073E-013  0.7246166E+02  0.7816164E-02  0.1226708E+00
        -11   -1    0    0    0    0  0.00000000000E+00  0.00000000000E+00  0.45593999997E+02  0.45594000000E+02  0.51100000000E-03 0. -1.
         11   -1    0    0    0    0 -0.00000000000E+00 -0.00000000000E+00 -0.45593999997E+02  0.45594000000E+02  0.51100000000E-03 0.  1.
    9900012    2    1    2    0    0 -0.14495001161E+02 -0.11466228069E+02  0.30160010222E+01  0.72461662746E+02  0.70000120436E+02 0.  0.
        -12    1    1    2    0    0  0.14495001161E+02  0.11466228069E+02 -0.30160010222E+01  0.18726337254E+02  0.00000000000E+00 0.  1.
         11    1    3    3    0    0  0.12050004738E+02  0.15860956540E+02  0.16486266396E+01  0.19987259107E+02  0.51100000000E-03 0. -1.
        -11    1    3    3    0    0 -0.28266075292E+02 -0.18352208487E+02 -0.12433923124E+02  0.35921818068E+02  0.51100000000E-03 0.  1.
         12    1    3    3    0    0  0.17210693938E+01 -0.89749761221E+01  0.13801297506E+02  0.16552585572E+02  0.00000000000E+00 0. -1.
</event>
<event>
 7    1  0.1905073E-013  0.7246160E+02  0.7816164E-02  0.1226708E+00
        -11   -1    0    0    0    0  0.00000000000E+00  0.00000000000E+00  0.45593999997E+02  0.45594000000E+02  0.51100000000E-03 0.  1.
         11   -1    0    0    0    0 -0.00000000000E+00 -0.00000000000E+00 -0.45593999997E+02  0.45594000000E+02  0.51100000000E-03 0. -1.
    9900012    2    1    2    0    0 -0.14628519104E+01  0.95201866881E+01 -0.16059391306E+02  0.72461603139E+02  0.70000042786E+02 0.  0.
        -12    1    1    2    0    0  0.14628519104E+01 -0.95201866881E+01  0.16059391306E+02  0.18726396861E+02  0.00000000000E+00 0.  1.
         11    1    3    3    0    0 -0.24302888599E+02 -0.14054255521E+02 -0.94915412441E+01  0.29635145485E+02  0.51100000000E-03 0. -1.
        -11    1    3    3    0    0  0.27561718323E+01  0.20512547177E+02 -0.85930203939E+01  0.22409843252E+02  0.51100000000E-03 0.  1.
        -12    1    3    3    0    0  0.20083864856E+02  0.30618950324E+01  0.20251703324E+01  0.20416614401E+02  0.00000000000E+00 0.  1.
</event>
<event>
 7    1  0.1905073E-013  0.7246159E+02  0.7816164E-02  0.1226708E+00
        -11   -1    0    0    0    0  0.00000000000E+00  0.00000000000E+00  0.45593999997E+02  0.45594000000E+02  0.51100000000E-03 0. -1.
         11   -1    0    0    0    0 -0.00000000000E+00 -0.00000000000E+00 -0.45593999997E+02  0.45594000000E+02  0.51100000000E-03 0.  1.
    9900012    2    1    2    0    0  0.68244257802E+01  0.19564126792E+01  0.17328533476E+02  0.72461590568E+02  0.70000026410E+02 0.  0.
        -12    1    1    2    0    0 -0.68244257802E+01 -0.19564126792E+01 -0.17328533476E+02  0.18726409432E+02  0.00000000000E+00 0.  1.
         11    1    3    3    0    0 -0.41943418357E+00 -0.40257203750E+01  0.15745292054E+02  0.16257200611E+02  0.51100000000E-03 0. -1.
        -11    1    3    3    0    0 -0.33843448919E+01  0.29599833118E+02 -0.28503135150E+01  0.29928718622E+02  0.51100000000E-03 0.  1.
        -12    1    3    3    0    0  0.10628204856E+02 -0.23617700063E+02  0.44335549371E+01  0.26275671335E+02  0.00000000000E+00 0.  1.
</event>
<event>
 7    1  0.1905073E-013  0.7246146E+02  0.7816164E-02  0.1226708E+00
        -11   -1    0    0    0    0  0.00000000000E+00  0.00000000000E+00  0.45593999997E+02  0.45594000000E+02  0.51100000000E-03 0.  1.
         11   -1    0    0    0    0 -0.00000000000E+00 -0.00000000000E+00 -0.45593999997E+02  0.45594000000E+02  0.51100000000E-03 0. -1.
    9900012    2    1    2    0    0 -0.53384033540E+01 -0.15966157801E+02 -0.82016274876E+01  0.72461456306E+02  0.69999851508E+02 0.  0.
        -12    1    1    2    0    0  0.53384033540E+01  0.15966157801E+02  0.82016274876E+01  0.18726543694E+02  0.00000000000E+00 0.  1.
         11    1    3    3    0    0 -0.25959083108E+02 -0.10458551512E+02 -0.23135295012E+02  0.36311116357E+02  0.51100000000E-03 0. -1.
        -11    1    3    3    0    0 -0.37235708919E+01 -0.70440473930E+01  0.66852762359E+01  0.10400793358E+02  0.51100000000E-03 0.  1.
         12    1    3    3    0    0  0.24344250646E+02  0.15364411042E+01  0.82483912887E+01  0.25749546591E+02  0.00000000000E+00 0. -1.
</event>
<event>
 7    1  0.1905073E-013  0.7246153E+02  0.7816164E-02  0.1226708E+00
        -11   -1    0    0    0    0  0.00000000000E+00  0.00000000000E+00  0.45593999997E+02  0.45594000000E+02  0.51100000000E-03 0.  1.
         11   -1    0    0    0    0 -0.00000000000E+00 -0.00000000000E+00 -0.45593999997E+02  0.45594000000E+02  0.51100000000E-03 0. -1.
    9900012    2    1    2    0    0  0.88052205629E+01  0.83096047273E+01 -0.14286334365E+02  0.72461527041E+02  0.69999943655E+02 0.  0.
        -12    1    1    2    0    0 -0.88052205629E+01 -0.83096047273E+01  0.14286334365E+02  0.18726472959E+02  0.00000000000E+00 0.  1.
         11    1    3    3    0    0  0.65554564313E+00 -0.14765613219E+02 -0.26518125108E+02  0.30358920161E+02  0.51100000000E-03 0. -1.
        -11    1    3    3    0    0 -0.53989607453E+01  0.25887131361E+02  0.77100432187E+01  0.27545183134E+02  0.51100000000E-03 0.  1.
        -12    1    3    3    0    0  0.13548635665E+02 -0.28119134143E+01  0.45217475245E+01  0.14557423746E+02  0.00000000000E+00 0.  1.
</event>
<event>
 7    1  0.1905073E-013  0.7246159E+02  0.7816164E-02  0.1226708E+00
        -11   -1    0    0    0    0  0.00000000000E+00  0.00000000000E+00  0.45593999997E+02  0.45594000000E+02  0.51100000000E-03 0.  1.
         11   -1    0    0    0    0 -0.00000000000E+00 -0.00000000000E+00 -0.45593999997E+02  0.45594000000E+02  0.51100000000E-03 0. -1.
    9900012    2    1    2    0    0  0.45865780348E+01  0.18841882940E+01 -0.18058001161E+02  0.72461594325E+02  0.70000031304E+02 0.  0.
        -12    1    1    2    0    0 -0.45865780348E+01 -0.18841882940E+01  0.18058001161E+02  0.18726405675E+02  0.00000000000E+00 0.  1.
         11    1    3    3    0    0  0.14608284881E+02 -0.18986241817E+02 -0.27071821684E+02  0.36149175579E+02  0.51100000000E-03 0. -1.
        -11    1    3    3    0    0  0.49298219206E+01  0.19521093503E+02  0.44253987432E+01  0.20614567423E+02  0.51100000000E-03 0.  1.
        -12    1    3    3    0    0 -0.14951528766E+02  0.13493366072E+01  0.45884217801E+01  0.15697851323E+02  0.00000000000E+00 0.  1.
</event>
<event>
 7    1  0.1905073E-013  0.7246157E+02  0.7816164E-02  0.1226708E+00
        -11   -1    0    0    0    0  0.00000000000E+00  0.00000000000E+00  0.45593999997E+02  0.45594000000E+02  0.51100000000E-03 0. -1.
         11   -1    0    0    0    0 -0.00000000000E+00 -0.00000000000E+00 -0.45593999997E+02  0.45594000000E+02  0.51100000000E-03 0.  1.
    9900012    2    1    2    0    0  0.54594368987E+00 -0.18565737522E+02 -0.23863429134E+01  0.72461566897E+02  0.69999995574E+02 0.  0.
        -12    1    1    2    0    0 -0.54594368987E+00  0.18565737522E+02  0.23863429134E+01  0.18726433103E+02  0.00000000000E+00 0.  1.
         11    1    3    3    0    0 -0.11729906632E+02 -0.25548267138E+02 -0.19885131690E+02  0.34434330630E+02  0.51100000000E-03 0. -1.
        -11    1    3    3    0    0 -0.35001366793E+01  0.13992462730E+02  0.15190602345E+01  0.14503362172E+02  0.51100000000E-03 0.  1.
         12    1    3    3    0    0  0.15775987002E+02 -0.70099331146E+01  0.15979728542E+02  0.23523874095E+02  0.00000000000E+00 0. -1.
</event>
<event>
 7    1  0.1905073E-013  0.7246156E+02  0.7816164E-02  0.1226708E+00
        -11   -1    0    0    0    0  0.00000000000E+00  0.00000000000E+00  0.45593999997E+02  0.45594000000E+02  0.51100000000E-03 0. -1.
         11   -1    0    0    0    0 -0.00000000000E+00 -0.00000000000E+00 -0.45593999997E+02  0.45594000000E+02  0.51100000000E-03 0.  1.
    9900012    2    1    2    0    0  0.13542622875E+02 -0.94321940916E+01 -0.88493326615E+01  0.72461558580E+02  0.69999984740E+02 0.  0.
        -12    1    1    2    0    0 -0.13542622875E+02  0.94321940916E+01  0.88493326615E+01  0.18726441420E+02  0.00000000000E+00 0.  1.
         11    1    3    3    0    0 -0.16556868121E+02 -0.16389384672E+02 -0.25669785029E+01  0.23437815402E+02  0.51100000000E-03 0. -1.
        -11    1    3    3    0    0  0.16959098048E+02 -0.16346237910E+01 -0.21314859187E+02  0.27287473755E+02  0.51100000000E-03 0.  1.
         12    1    3    3    0    0  0.13140392948E+02  0.85918143712E+01  0.15032505028E+02  0.21736269423E+02  0.00000000000E+00 0. -1.
</event>
<event>
 7    1  0.1905073E-013  0.7246159E+02  0.7816164E-02  0.1226708E+00
        -11   -1    0    0    0    0  0.00000000000E+00  0.00000000000E+00  0.45593999997E+02  0.45594000000E+02  0.51100000000E-03 0.  1.
         11   -1    0    0    0    0 -0.00000000000E+00 -0.00000000000E+00 -0.45593999997E+02  0.45594000000E+02  0.51100000000E-03 0. -1.
    9900012    2    1    2    0    0 -0.70218934463E+01  0.91195087731E+01 -0.14771794085E+02  0.72461592755E+02  0.70000029259E+02 0.  0.
        -12    1    1    2    0    0  0.70218934463E+01 -0.91195087731E+01  0.14771794085E+02  0.18726407245E+02  0.00000000000E+00 0.  1.
         11    1    3    3    0    0 -0.87036448055E+01 -0.17975763066E+02 -0.10566942279E+02  0.22595171168E+02  0.51100000000E-03 0. -1.
        -11    1    3    3    0    0  0.19649555614E+02  0.21363188491E+02  0.39981260465E+01  0.29299758881E+02  0.51100000000E-03 0.  1.
         12    1    3    3    0    0 -0.17967804254E+02  0.57320833478E+01 -0.82029778523E+01  0.20566662706E+02  0.00000000000E+00 0. -1.
</event>
<event>
 7    1  0.1905073E-013  0.7246159E+02  0.7816164E-02  0.1226708E+00
        -11   -1    0    0    0    0  0.00000000000E+00  0.00000000000E+00  0.45593999997E+02  0.45594000000E+02  0.51100000000E-03 0.  1.
         11   -1    0    0    0    0 -0.00000000000E+00 -0.00000000000E+00 -0.45593999997E+02  0.45594000000E+02  0.51100000000E-03 0. -1.
    9900012    2    1    2    0    0  0.17408768626E+01 -0.12295881401E+01 -0.18604728008E+02  0.72461589680E+02  0.70000025253E+02 0.  0.
        -12    1    1    2    0    0 -0.17408768626E+01  0.12295881401E+01  0.18604728008E+02  0.18726410320E+02  0.00000000000E+00 0.  1.
         11    1    3    3    0    0 -0.30506743957E+02 -0.17221973487E+01 -0.32524076991E+01  0.30727927796E+02  0.51100000000E-03 0.  1.
        -11    1    3    3    0    0  0.26575067162E+02 -0.35876382407E+01 -0.22823959395E+01  0.26913094848E+02  0.51100000000E-03 0. -1.
         12    1    3    3    0    0  0.56725536572E+01  0.40802474493E+01 -0.13069924369E+02  0.14820567035E+02  0.00000000000E+00 0. -1.
</event>
<event>
 7    1  0.1905073E-013  0.7246156E+02  0.7816164E-02  0.1226708E+00
        -11   -1    0    0    0    0  0.00000000000E+00  0.00000000000E+00  0.45593999997E+02  0.45594000000E+02  0.51100000000E-03 0. -1.
         11   -1    0    0    0    0 -0.00000000000E+00 -0.00000000000E+00 -0.45593999997E+02  0.45594000000E+02  0.51100000000E-03 0.  1.
    9900012    2    1    2    0    0  0.68412707028E+01 -0.16151511087E+02 -0.65578535291E+01  0.72461555112E+02  0.69999980223E+02 0.  0.
        -12    1    1    2    0    0 -0.68412707028E+01  0.16151511087E+02  0.65578535291E+01  0.18726444888E+02  0.00000000000E+00 0.  1.
         11    1    3    3    0    0  0.99910975057E+01  0.11435319359E+01  0.96395427808E+00  0.10102420639E+02  0.51100000000E-03 0. -1.
        -11    1    3    3    0    0 -0.14738459049E+02 -0.36165277217E+02 -0.92937475742E+01  0.40143781530E+02  0.51100000000E-03 0.  1.
        -12    1    3    3    0    0  0.11588632246E+02  0.18870234194E+02  0.17719397670E+01  0.22215352943E+02  0.00000000000E+00 0.  1.
</event>
<event>
 7    1  0.1905073E-013  0.7246158E+02  0.7816164E-02  0.1226708E+00
        -11   -1    0    0    0    0  0.00000000000E+00  0.00000000000E+00  0.45593999997E+02  0.45594000000E+02  0.51100000000E-03 0.  1.
         11   -1    0    0    0    0 -0.00000000000E+00 -0.00000000000E+00 -0.45593999997E+02  0.45594000000E+02  0.51100000000E-03 0. -1.
    9900012    2    1    2    0    0 -0.12022286321E+01  0.16829141008E+02 -0.81248610905E+01  0.72461582604E+02  0.70000016036E+02 0.  0.
        -12    1    1    2    0    0  0.12022286321E+01 -0.16829141008E+02  0.81248610905E+01  0.18726417396E+02  0.00000000000E+00 0.  1.
         11    1    3    3    0    0 -0.11435397146E+02  0.63336760199E+01 -0.28588349234E+02  0.31435290232E+02  0.51100000000E-03 0. -1.
        -11    1    3    3    0    0  0.28707521218E+01  0.17026962209E+02 -0.11212027469E+01  0.17303634175E+02  0.51100000000E-03 0.  1.
         12    1    3    3    0    0  0.73624163925E+01 -0.65314972212E+01  0.21584690890E+02  0.23722658197E+02  0.00000000000E+00 0. -1.
</event>
<event>
 7    1  0.1905073E-013  0.7246156E+02  0.7816164E-02  0.1226708E+00
        -11   -1    0    0    0    0  0.00000000000E+00  0.00000000000E+00  0.45593999997E+02  0.45594000000E+02  0.51100000000E-03 0.  1.
         11   -1    0    0    0    0 -0.00000000000E+00 -0.00000000000E+00 -0.45593999997E+02  0.45594000000E+02  0.51100000000E-03 0. -1.
    9900012    2    1    2    0    0 -0.91450331083E+01 -0.10591437354E+02  0.12444654215E+02  0.72461558952E+02  0.69999985225E+02 0.  0.
        -12    1    1    2    0    0  0.91450331083E+01  0.10591437354E+02 -0.12444654215E+02  0.18726441048E+02  0.00000000000E+00 0.  1.
         11    1    3    3    0    0 -0.13240701746E+02 -0.19475356493E+02 -0.57736487752E+01  0.24247488813E+02  0.51100000000E-03 0. -1.
        -11    1    3    3    0    0 -0.14033504276E+01 -0.62961819674E+00  0.31181955754E+02  0.31219868296E+02  0.51100000000E-03 0.  1.
        -12    1    3    3    0    0  0.54990190657E+01  0.95135373360E+01 -0.12963652764E+02  0.16994201844E+02  0.00000000000E+00 0.  1.
</event>
<event>
 7    1  0.1905073E-013  0.7246155E+02  0.7816164E-02  0.1226708E+00
        -11   -1    0    0    0    0  0.00000000000E+00  0.00000000000E+00  0.45593999997E+02  0.45594000000E+02  0.51100000000E-03 0.  1.
         11   -1    0    0    0    0 -0.00000000000E+00 -0.00000000000E+00 -0.45593999997E+02  0.45594000000E+02  0.51100000000E-03 0. -1.
    9900012    2    1    2    0    0  0.71088469647E+01 -0.64324915509E+01 -0.16086248907E+02  0.72461546608E+02  0.69999969144E+02 0.  0.
        -12    1    1    2    0    0 -0.71088469647E+01  0.64324915509E+01  0.16086248907E+02  0.18726453392E+02  0.00000000000E+00 0.  1.
         11    1    3    3    0    0 -0.26573114676E+02  0.33709027149E+01 -0.16705471340E+02  0.31568436478E+02  0.51100000000E-03 0.  1.
        -11    1    3    3    0    0  0.24134614125E+02 -0.16480806831E+02 -0.18417895495E-01  0.29224936822E+02  0.51100000000E-03 0. -1.
        -12    1    3    3    0    0  0.95473475161E+01  0.66774125653E+01  0.63764032814E+00  0.11668173308E+02  0.00000000000E+00 0.  1.
</event>
<event>
 7    1  0.1905073E-013  0.7246153E+02  0.7816164E-02  0.1226708E+00
        -11   -1    0    0    0    0  0.00000000000E+00  0.00000000000E+00  0.45593999997E+02  0.45594000000E+02  0.51100000000E-03 0.  1.
         11   -1    0    0    0    0 -0.00000000000E+00 -0.00000000000E+00 -0.45593999997E+02  0.45594000000E+02  0.51100000000E-03 0. -1.
    9900012    2    1    2    0    0  0.15612769964E+02  0.22452501960E+01  0.10093602507E+02  0.72461533543E+02  0.69999952125E+02 0.  0.
        -12    1    1    2    0    0 -0.15612769964E+02 -0.22452501960E+01 -0.10093602507E+02  0.18726466457E+02  0.00000000000E+00 0.  1.
         11    1    3    3    0    0  0.35417437704E+02 -0.19745589318E+02  0.42276777331E+01  0.40769552981E+02  0.51100000000E-03 0. -1.
        -11    1    3    3    0    0 -0.47308035654E+01  0.10112367795E+02  0.56194471417E+01  0.12498746787E+02  0.51100000000E-03 0.  1.
         12    1    3    3    0    0 -0.15073864174E+02  0.11878471719E+02  0.24647763202E+00  0.19193233775E+02  0.00000000000E+00 0. -1.
</event>
<event>
 7    1  0.1905073E-013  0.7246162E+02  0.7816164E-02  0.1226708E+00
        -11   -1    0    0    0    0  0.00000000000E+00  0.00000000000E+00  0.45593999997E+02  0.45594000000E+02  0.51100000000E-03 0.  1.
         11   -1    0    0    0    0 -0.00000000000E+00 -0.00000000000E+00 -0.45593999997E+02  0.45594000000E+02  0.51100000000E-03 0. -1.
    9900012    2    1    2    0    0 -0.16653477664E+02 -0.76748385107E+01 -0.37994655232E+01  0.72461617468E+02  0.70000061452E+02 0.  0.
        -12    1    1    2    0    0  0.16653477664E+02  0.76748385107E+01  0.37994655232E+01  0.18726382532E+02  0.00000000000E+00 0.  1.
         11    1    3    3    0    0 -0.14083771943E+02 -0.11239969547E+02 -0.32769626577E+02  0.37397031618E+02  0.51100000000E-03 0. -1.
        -11    1    3    3    0    0 -0.98802481294E+01  0.38171690690E+01  0.93617883580E+01  0.14136235861E+02  0.51100000000E-03 0.  1.
         12    1    3    3    0    0  0.73105424083E+01 -0.25203803222E+00  0.19608372696E+02  0.20928349989E+02  0.00000000000E+00 0. -1.
</event>
<event>
 7    1  0.1905073E-013  0.7246156E+02  0.7816164E-02  0.1226708E+00
        -11   -1    0    0    0    0  0.00000000000E+00  0.00000000000E+00  0.45593999997E+02  0.45594000000E+02  0.51100000000E-03 0. -1.
         11   -1    0    0    0    0 -0.00000000000E+00 -0.00000000000E+00 -0.45593999997E+02  0.45594000000E+02  0.51100000000E-03 0.  1.
    9900012    2    1    2    0    0  0.43339874006E+01  0.16930333191E+00  0.18217229489E+02  0.72461559851E+02  0.69999986396E+02 0.  0.
        -12    1    1    2    0    0 -0.43339874006E+01 -0.16930333191E+00 -0.18217229489E+02  0.18726440149E+02  0.00000000000E+00 0.  1.
         11    1    3    3    0    0  0.25967023880E+02  0.12164983848E+01  0.12415362336E+01  0.26025134198E+02  0.51100000000E-03 0.  1.
        -11    1    3    3    0    0 -0.30474899979E+02  0.68432795414E+01  0.13938197641E+02  0.34202680558E+02  0.51100000000E-03 0. -1.
         12    1    3    3    0    0  0.88418634989E+01 -0.78904745943E+01  0.30374956139E+01  0.12233745095E+02  0.00000000000E+00 0. -1.
</event>
<event>
 7    1  0.1905073E-013  0.7246166E+02  0.7816164E-02  0.1226708E+00
        -11   -1    0    0    0    0  0.00000000000E+00  0.00000000000E+00  0.45593999997E+02  0.45594000000E+02  0.51100000000E-03 0. -1.
         11   -1    0    0    0    0 -0.00000000000E+00 -0.00000000000E+00 -0.45593999997E+02  0.45594000000E+02  0.51100000000E-03 0.  1.
    9900012    2    1    2    0    0  0.47673941032E+01  0.11233742746E+02  0.14203895973E+02  0.72461663374E+02  0.70000121254E+02 0.  0.
        -12    1    1    2    0    0 -0.47673941032E+01 -0.11233742746E+02 -0.14203895973E+02  0.18726336626E+02  0.00000000000E+00 0.  1.
         11    1    3    3    0    0  0.19019504401E+02  0.37999308196E+01  0.34327694179E+02  0.39428056125E+02  0.51100000000E-03 0. -1.
        -11    1    3    3    0    0 -0.47125540095E+01 -0.21984417712E+01 -0.18691617067E+02  0.19401491189E+02  0.51100000000E-03 0.  1.
         12    1    3    3    0    0 -0.95395562880E+01  0.96322536973E+01 -0.14321811388E+01  0.13632116060E+02  0.00000000000E+00 0. -1.
</event>
<event>
 7    1  0.1905073E-013  0.7246157E+02  0.7816164E-02  0.1226708E+00
        -11   -1    0    0    0    0  0.00000000000E+00  0.00000000000E+00  0.45593999997E+02  0.45594000000E+02  0.51100000000E-03 0.  1.
         11   -1    0    0    0    0 -0.00000000000E+00 -0.00000000000E+00 -0.45593999997E+02  0.45594000000E+02  0.51100000000E-03 0. -1.
    9900012    2    1    2    0    0  0.67622106920E+01 -0.16995729146E+02 -0.40120937755E+01  0.72461569504E+02  0.69999998971E+02 0.  0.
        -12    1    1    2    0    0 -0.67622106920E+01  0.16995729146E+02  0.40120937755E+01  0.18726430496E+02  0.00000000000E+00 0.  1.
         11    1    3    3    0    0 -0.43072179551E+01 -0.14656561955E+02 -0.60361194606E+01  0.16425640726E+02  0.51100000000E-03 0. -1.
        -11    1    3    3    0    0  0.32860733718E+02  0.21842339222E+01 -0.34596887092E+01  0.33114470319E+02  0.51100000000E-03 0.  1.
        -12    1    3    3    0    0 -0.21791305071E+02 -0.45234011132E+01  0.54837143943E+01  0.22921458459E+02  0.00000000000E+00 0.  1.
</event>
<event>
 7    1  0.1905073E-013  0.7246154E+02  0.7816164E-02  0.1226708E+00
        -11   -1    0    0    0    0  0.00000000000E+00  0.00000000000E+00  0.45593999997E+02  0.45594000000E+02  0.51100000000E-03 0.  1.
         11   -1    0    0    0    0 -0.00000000000E+00 -0.00000000000E+00 -0.45593999997E+02  0.45594000000E+02  0.51100000000E-03 0. -1.
    9900012    2    1    2    0    0  0.14103075027E+02 -0.61374314241E+01 -0.10682478655E+02  0.72461544384E+02  0.69999966248E+02 0.  0.
        -12    1    1    2    0    0 -0.14103075027E+02  0.61374314241E+01  0.10682478655E+02  0.18726455616E+02  0.00000000000E+00 0.  1.
         11    1    3    3    0    0  0.24175201824E+02 -0.11244959950E+02 -0.62520993195E+01  0.27385730840E+02  0.51100000000E-03 0. -1.
        -11    1    3    3    0    0 -0.19704224347E+02  0.97903235057E+01 -0.17546645498E+02  0.28142346383E+02  0.51100000000E-03 0.  1.
        -12    1    3    3    0    0  0.96320975500E+01 -0.46827949803E+01  0.13116266163E+02  0.16933467161E+02  0.00000000000E+00 0.  1.
</event>
<event>
 7    1  0.1905073E-013  0.7246159E+02  0.7816164E-02  0.1226708E+00
        -11   -1    0    0    0    0  0.00000000000E+00  0.00000000000E+00  0.45593999997E+02  0.45594000000E+02  0.51100000000E-03 0.  1.
         11   -1    0    0    0    0 -0.00000000000E+00 -0.00000000000E+00 -0.45593999997E+02  0.45594000000E+02  0.51100000000E-03 0. -1.
    9900012    2    1    2    0    0  0.95648471338E+01 -0.15763434562E+02  0.32720333421E+01  0.72461591586E+02  0.70000027737E+02 0.  0.
        -12    1    1    2    0    0 -0.95648471338E+01  0.15763434562E+02 -0.32720333421E+01  0.18726408414E+02  0.00000000000E+00 0.  1.
         11    1    3    3    0    0 -0.15786333782E+02 -0.87462780417E+01  0.25162628967E+02  0.30965522935E+02  0.51100000000E-03 0.  1.
        -11    1    3    3    0    0  0.17075949886E+02  0.69340457547E+01 -0.15428029616E+02  0.24035248140E+02  0.51100000000E-03 0. -1.
        -12    1    3    3    0    0  0.82752310294E+01 -0.13951202275E+02 -0.64625660090E+01  0.17460820512E+02  0.00000000000E+00 0.  1.
</event>
<event>
 7    1  0.1905073E-013  0.7246152E+02  0.7816164E-02  0.1226708E+00
        -11   -1    0    0    0    0  0.00000000000E+00  0.00000000000E+00  0.45593999997E+02  0.45594000000E+02  0.51100000000E-03 0. -1.
         11   -1    0    0    0    0 -0.00000000000E+00 -0.00000000000E+00 -0.45593999997E+02  0.45594000000E+02  0.51100000000E-03 0.  1.
    9900012    2    1    2    0    0 -0.10664041181E+02 -0.12085380487E+02  0.95342961407E+01  0.72461521454E+02  0.69999936377E+02 0.  0.
        -12    1    1    2    0    0  0.10664041181E+02  0.12085380487E+02 -0.95342961407E+01  0.18726478546E+02  0.00000000000E+00 0.  1.
         11    1    3    3    0    0  0.80471263051E+01 -0.12548531564E+02  0.12715772280E+02  0.19593691616E+02  0.51100000000E-03 0. -1.
        -11    1    3    3    0    0 -0.32717975832E+02 -0.15947532837E+01 -0.13417001950E+02  0.35398094895E+02  0.51100000000E-03 0.  1.
        -12    1    3    3    0    0  0.14006808346E+02  0.20579043610E+01  0.10235525810E+02  0.17469734944E+02  0.00000000000E+00 0.  1.
</event>
<event>
 7    1  0.1905073E-013  0.7246235E+02  0.7816164E-02  0.1226706E+00
        -11   -1    0    0    0    0  0.00000000000E+00  0.00000000000E+00  0.45593999997E+02  0.45594000000E+02  0.51100000000E-03 0. -1.
         11   -1    0    0    0    0 -0.00000000000E+00 -0.00000000000E+00 -0.45593999997E+02  0.45594000000E+02  0.51100000000E-03 0.  1.
    9900012    2    1    2    0    0  0.66395736787E+01  0.82009233728E+01  0.15469673996E+02  0.72462351911E+02  0.70001018194E+02 0.  0.
        -12    1    1    2    0    0 -0.66395736787E+01 -0.82009233728E+01 -0.15469673996E+02  0.18725648089E+02  0.00000000000E+00 0.  1.
         11    1    3    3    0    0  0.95963446260E+01  0.10569086759E+02  0.12387254096E+02  0.18900780127E+02  0.51100000000E-03 0. -1.
        -11    1    3    3    0    0 -0.12419234897E+02 -0.25122145033E+02 -0.29842547025E+01  0.28182713546E+02  0.51100000000E-03 0.  1.
        -12    1    3    3    0    0  0.94624639493E+01  0.22753981646E+02  0.60666746024E+01  0.25378858238E+02  0.00000000000E+00 0.  1.
</event>
<event>
 7    1  0.1905073E-013  0.7246153E+02  0.7816164E-02  0.1226708E+00
        -11   -1    0    0    0    0  0.00000000000E+00  0.00000000000E+00  0.45593999997E+02  0.45594000000E+02  0.51100000000E-03 0.  1.
         11   -1    0    0    0    0 -0.00000000000E+00 -0.00000000000E+00 -0.45593999997E+02  0.45594000000E+02  0.51100000000E-03 0. -1.
    9900012    2    1    2    0    0 -0.78466675407E+01  0.13008394582E+02 -0.10949525226E+02  0.72461531466E+02  0.69999949419E+02 0.  0.
        -12    1    1    2    0    0  0.78466675407E+01 -0.13008394582E+02  0.10949525226E+02  0.18726468534E+02  0.00000000000E+00 0.  1.
         11    1    3    3    0    0 -0.29104675807E+02  0.14344540277E+02  0.52822549449E+01  0.32874765507E+02  0.51100000000E-03 0. -1.
        -11    1    3    3    0    0  0.94079129286E+01 -0.15068714296E+02 -0.59366197670E+01  0.18730147643E+02  0.51100000000E-03 0.  1.
        -12    1    3    3    0    0  0.11850095337E+02  0.13732568600E+02 -0.10295160404E+02  0.20856618317E+02  0.00000000000E+00 0.  1.
</event>
<event>
 7    1  0.1905073E-013  0.7246162E+02  0.7816164E-02  0.1226708E+00
        -11   -1    0    0    0    0  0.00000000000E+00  0.00000000000E+00  0.45593999997E+02  0.45594000000E+02  0.51100000000E-03 0.  1.
         11   -1    0    0    0    0 -0.00000000000E+00 -0.00000000000E+00 -0.45593999997E+02  0.45594000000E+02  0.51100000000E-03 0. -1.
    9900012    2    1    2    0    0 -0.16138516867E+02  0.85165567013E+01 -0.42063992741E+01  0.72461621291E+02  0.70000066432E+02 0.  0.
        -12    1    1    2    0    0  0.16138516867E+02 -0.85165567013E+01  0.42063992741E+01  0.18726378709E+02  0.00000000000E+00 0.  1.
         11    1    3    3    0    0 -0.20842797605E+02 -0.18107428011E+02  0.18127094441E+02  0.33028665040E+02  0.51100000000E-03 0.  1.
        -11    1    3    3    0    0  0.37898666656E+01  0.16163165371E+02 -0.23601960717E+02  0.28855910211E+02  0.51100000000E-03 0. -1.
        -12    1    3    3    0    0  0.91441407219E+00  0.10460819341E+02  0.12684670023E+01  0.10577046040E+02  0.00000000000E+00 0.  1.
</event>
<event>
 7    1  0.1905073E-013  0.7246158E+02  0.7816164E-02  0.1226708E+00
        -11   -1    0    0    0    0  0.00000000000E+00  0.00000000000E+00  0.45593999997E+02  0.45594000000E+02  0.51100000000E-03 0.  1.
         11   -1    0    0    0    0 -0.00000000000E+00 -0.00000000000E+00 -0.45593999997E+02  0.45594000000E+02  0.51100000000E-03 0. -1.
    9900012    2    1    2    0    0  0.56840311778E+01  0.10777321352E+02  0.14220410880E+02  0.72461576114E+02  0.70000007581E+02 0.  0.
        -12    1    1    2    0    0 -0.56840311778E+01 -0.10777321352E+02 -0.14220410880E+02  0.18726423886E+02  0.00000000000E+00 0.  1.
         11    1    3    3    0    0  0.10507033150E+02 -0.15514188971E+02  0.39567827360E+01  0.19150559651E+02  0.51100000000E-03 0. -1.
        -11    1    3    3    0    0 -0.16926254255E+02  0.20316331506E+02  0.22780507788E+02  0.34902764136E+02  0.51100000000E-03 0.  1.
         12    1    3    3    0    0  0.12103252283E+02  0.59751788174E+01 -0.12516879644E+02  0.18408252327E+02  0.00000000000E+00 0. -1.
</event>
<event>
 7    1  0.1905073E-013  0.7246161E+02  0.7816164E-02  0.1226708E+00
        -11   -1    0    0    0    0  0.00000000000E+00  0.00000000000E+00  0.45593999997E+02  0.45594000000E+02  0.51100000000E-03 0.  1.
         11   -1    0    0    0    0 -0.00000000000E+00 -0.00000000000E+00 -0.45593999997E+02  0.45594000000E+02  0.51100000000E-03 0. -1.
    9900012    2    1    2    0    0  0.13797116602E+02 -0.12660442011E+02  0.17476260418E+00  0.72461607918E+02  0.70000049012E+02 0.  0.
        -12    1    1    2    0    0 -0.13797116602E+02  0.12660442011E+02 -0.17476260418E+00  0.18726392082E+02  0.00000000000E+00 0.  1.
         11    1    3    3    0    0  0.34489943327E+02  0.80569542518E+01  0.78300722027E+01  0.36273692030E+02  0.51100000000E-03 0.  1.
        -11    1    3    3    0    0 -0.24418312999E+02 -0.17663077849E+02 -0.84640804904E+01  0.31303018826E+02  0.51100000000E-03 0. -1.
         12    1    3    3    0    0  0.37254862740E+01 -0.30543184134E+01  0.80877089192E+00  0.48848970618E+01  0.00000000000E+00 0. -1.
</event>
<event>
 7    1  0.1905073E-013  0.7246158E+02  0.7816164E-02  0.1226708E+00
        -11   -1    0    0    0    0  0.00000000000E+00  0.00000000000E+00  0.45593999997E+02  0.45594000000E+02  0.51100000000E-03 0. -1.
         11   -1    0    0    0    0 -0.00000000000E+00 -0.00000000000E+00 -0.45593999997E+02  0.45594000000E+02  0.51100000000E-03 0.  1.
    9900012    2    1    2    0    0 -0.10727818604E+02 -0.15328263437E+02  0.79820601390E+00  0.72461577896E+02  0.70000009902E+02 0.  0.
        -12    1    1    2    0    0  0.10727818604E+02  0.15328263437E+02 -0.79820601390E+00  0.18726422104E+02  0.00000000000E+00 0.  1.
         11    1    3    3    0    0  0.13542294345E+02  0.22933166102E+00  0.58638314231E+01  0.14759093751E+02  0.51100000000E-03 0. -1.
        -11    1    3    3    0    0 -0.31031938655E+02 -0.28931834450E+02 -0.25214300381E+01  0.42501645509E+02  0.51100000000E-03 0.  1.
        -12    1    3    3    0    0  0.67618257060E+01  0.13374239352E+02 -0.25441953711E+01  0.15200838635E+02  0.00000000000E+00 0.  1.
</event>
<event>
 7    1  0.1905073E-013  0.7246152E+02  0.7816164E-02  0.1226708E+00
        -11   -1    0    0    0    0  0.00000000000E+00  0.00000000000E+00  0.45593999997E+02  0.45594000000E+02  0.51100000000E-03 0. -1.
         11   -1    0    0    0    0 -0.00000000000E+00 -0.00000000000E+00 -0.45593999997E+02  0.45594000000E+02  0.51100000000E-03 0.  1.
    9900012    2    1    2    0    0  0.18284231484E+02  0.77172173410E+00 -0.39714590825E+01  0.72461517078E+02  0.69999930675E+02 0.  0.
        -12    1    1    2    0    0 -0.18284231484E+02 -0.77172173410E+00  0.39714590825E+01  0.18726482922E+02  0.00000000000E+00 0.  1.
         11    1    3    3    0    0 -0.35951149727E+01 -0.18652801171E+02  0.68451753697E+01  0.20191787174E+02  0.51100000000E-03 0. -1.
        -11    1    3    3    0    0  0.28851002452E+02  0.89765124843E+01 -0.20411778735E+02  0.36463664521E+02  0.51100000000E-03 0.  1.
        -12    1    3    3    0    0 -0.69716559955E+01  0.10448010421E+02  0.95951442830E+01  0.15806065383E+02  0.00000000000E+00 0.  1.
</event>
<event>
 7    1  0.1905073E-013  0.7246156E+02  0.7816164E-02  0.1226708E+00
        -11   -1    0    0    0    0  0.00000000000E+00  0.00000000000E+00  0.45593999997E+02  0.45594000000E+02  0.51100000000E-03 0.  1.
         11   -1    0    0    0    0 -0.00000000000E+00 -0.00000000000E+00 -0.45593999997E+02  0.45594000000E+02  0.51100000000E-03 0. -1.
    9900012    2    1    2    0    0  0.18046020226E+02 -0.46638092011E+01 -0.18081798266E+01  0.72461562097E+02  0.69999989321E+02 0.  0.
        -12    1    1    2    0    0 -0.18046020226E+02  0.46638092011E+01  0.18081798266E+01  0.18726437903E+02  0.00000000000E+00 0.  1.
         11    1    3    3    0    0 -0.15840533959E+02  0.28587206532E+01  0.21828344046E+02  0.27121419652E+02  0.51100000000E-03 0. -1.
        -11    1    3    3    0    0  0.70318893146E+01  0.34596065357E+01  0.12564049356E+00  0.78378651755E+01  0.51100000000E-03 0.  1.
         12    1    3    3    0    0  0.26854664871E+02 -0.10982136390E+02 -0.23762164366E+02  0.37502277269E+02  0.00000000000E+00 0. -1.
</event>
<event>
 8    1  0.1905073E-013  0.7246159E+02  0.7816164E-02  0.1226708E+00
        -11   -1    0    0    0    0  0.00000000000E+00  0.00000000000E+00  0.45593999997E+02  0.45594000000E+02  0.51100000000E-03 0. -1.
         11   -1    0    0    0    0 -0.00000000000E+00 -0.00000000000E+00 -0.45593999997E+02  0.45594000000E+02  0.51100000000E-03 0.  1.
    9900012    2    1    2    0    0 -0.11551102423E+02  0.14739234768E+02  0.72940311397E-01  0.72461592736E+02  0.70000029235E+02 0.  0.
        -24    2    3    3    0    0 -0.40052796784E+01 -0.44533868363E+01  0.15547818229E+01  0.51785712599E+02  0.51414664866E+02 0.  0.
        -12    1    1    2    0    0  0.11551102423E+02 -0.14739234768E+02 -0.72940311397E-01  0.18726407264E+02  0.00000000000E+00 0.  1.
         11    1    4    4    0    0 -0.66584719578E+01 -0.49647797458E+01  0.25947192579E+02  0.27244101925E+02  0.51100000000E-03 0. -1.
        -11    1    3    3    0    0 -0.75458227442E+01  0.19192621604E+02 -0.14818415115E+01  0.20675880137E+02  0.51100000000E-03 0.  1.
        -12    1    4    4    0    0  0.26531922794E+01  0.51139290953E+00 -0.24392410756E+02  0.24541610674E+02  0.00000000000E+00 0.  1.
</event>
<event>
 7    1  0.1905073E-013  0.7246153E+02  0.7816164E-02  0.1226708E+00
        -11   -1    0    0    0    0  0.00000000000E+00  0.00000000000E+00  0.45593999997E+02  0.45594000000E+02  0.51100000000E-03 0.  1.
         11   -1    0    0    0    0 -0.00000000000E+00 -0.00000000000E+00 -0.45593999997E+02  0.45594000000E+02  0.51100000000E-03 0. -1.
    9900012    2    1    2    0    0 -0.18096721529E+02 -0.34614033060E+01 -0.33478508590E+01  0.72461528141E+02  0.69999945087E+02 0.  0.
        -12    1    1    2    0    0  0.18096721529E+02  0.34614033060E+01  0.33478508590E+01  0.18726471859E+02  0.00000000000E+00 0.  1.
         11    1    3    3    0    0 -0.18662936997E+02  0.84159155116E+01  0.27154619678E+02  0.34007443617E+02  0.51100000000E-03 0.  1.
        -11    1    3    3    0    0 -0.38941898893E+01 -0.93960402703E+01 -0.31631556793E+02  0.33226580821E+02  0.51100000000E-03 0. -1.
        -12    1    3    3    0    0  0.44604053583E+01 -0.24812785474E+01  0.11290862561E+01  0.52275037029E+01  0.00000000000E+00 0.  1.
</event>
<event>
 7    1  0.1905073E-013  0.7246161E+02  0.7816164E-02  0.1226708E+00
        -11   -1    0    0    0    0  0.00000000000E+00  0.00000000000E+00  0.45593999997E+02  0.45594000000E+02  0.51100000000E-03 0.  1.
         11   -1    0    0    0    0 -0.00000000000E+00 -0.00000000000E+00 -0.45593999997E+02  0.45594000000E+02  0.51100000000E-03 0. -1.
    9900012    2    1    2    0    0  0.28275751245E+01  0.18186741835E+02  0.34532418104E+01  0.72461611169E+02  0.70000053247E+02 0.  0.
        -12    1    1    2    0    0 -0.28275751245E+01 -0.18186741835E+02 -0.34532418104E+01  0.18726388831E+02  0.00000000000E+00 0.  1.
         11    1    3    3    0    0  0.60612454246E+01 -0.16906692529E+02  0.23598206346E+02  0.29655527163E+02  0.51100000000E-03 0. -1.
        -11    1    3    3    0    0 -0.42601638920E+01  0.24951356998E+02 -0.20550201991E+02  0.32604141064E+02  0.51100000000E-03 0.  1.
         12    1    3    3    0    0  0.10264935919E+01  0.10142077366E+02  0.40523745562E+00  0.10201942942E+02  0.00000000000E+00 0. -1.
</event>
<event>
 7    1  0.1905073E-013  0.7246147E+02  0.7816164E-02  0.1226708E+00
        -11   -1    0    0    0    0  0.00000000000E+00  0.00000000000E+00  0.45593999997E+02  0.45594000000E+02  0.51100000000E-03 0.  1.
         11   -1    0    0    0    0 -0.00000000000E+00 -0.00000000000E+00 -0.45593999997E+02  0.45594000000E+02  0.51100000000E-03 0. -1.
    9900012    2    1    2    0    0  0.46820241952E+01 -0.17277899168E+01 -0.18049273107E+02  0.72461471538E+02  0.69999871351E+02 0.  0.
        -12    1    1    2    0    0 -0.46820241952E+01  0.17277899168E+01  0.18049273107E+02  0.18726528462E+02  0.00000000000E+00 0.  1.
         11    1    3    3    0    0 -0.24501762144E+02  0.61463727539E+01 -0.85357436329E+01  0.26664080067E+02  0.51100000000E-03 0. -1.
        -11    1    3    3    0    0  0.27672612391E+02 -0.20097256759E+01 -0.19643443637E+02  0.33995254845E+02  0.51100000000E-03 0.  1.
        -12    1    3    3    0    0  0.15111739485E+01 -0.58644369948E+01  0.10129914163E+02  0.11802136625E+02  0.00000000000E+00 0.  1.
</event>
<event>
 7    1  0.1905073E-013  0.7246168E+02  0.7816164E-02  0.1226708E+00
        -11   -1    0    0    0    0  0.00000000000E+00  0.00000000000E+00  0.45593999997E+02  0.45594000000E+02  0.51100000000E-03 0. -1.
         11   -1    0    0    0    0 -0.00000000000E+00 -0.00000000000E+00 -0.45593999997E+02  0.45594000000E+02  0.51100000000E-03 0.  1.
    9900012    2    1    2    0    0  0.89657503458E+01 -0.14562435295E+02  0.76305864854E+01  0.72461680258E+02  0.70000143247E+02 0.  0.
        -12    1    1    2    0    0 -0.89657503458E+01  0.14562435295E+02 -0.76305864854E+01  0.18726319742E+02  0.00000000000E+00 0.  1.
         11    1    3    3    0    0 -0.60552639078E+01 -0.57189619377E+00  0.22238064616E+02  0.23054821717E+02  0.51100000000E-03 0. -1.
        -11    1    3    3    0    0  0.51434134484E+01 -0.77418294900E+01 -0.29238561695E+02  0.30680353909E+02  0.51100000000E-03 0.  1.
        -12    1    3    3    0    0  0.98776008052E+01 -0.62487096112E+01  0.14631083564E+02  0.18726504632E+02  0.00000000000E+00 0.  1.
</event>
<event>
 7    1  0.1905073E-013  0.7246156E+02  0.7816164E-02  0.1226708E+00
        -11   -1    0    0    0    0  0.00000000000E+00  0.00000000000E+00  0.45593999997E+02  0.45594000000E+02  0.51100000000E-03 0.  1.
         11   -1    0    0    0    0 -0.00000000000E+00 -0.00000000000E+00 -0.45593999997E+02  0.45594000000E+02  0.51100000000E-03 0. -1.
    9900012    2    1    2    0    0  0.48603716246E+01 -0.10107825403E+02 -0.14996277476E+02  0.72461556535E+02  0.69999982076E+02 0.  0.
        -12    1    1    2    0    0 -0.48603716246E+01  0.10107825403E+02  0.14996277476E+02  0.18726443465E+02  0.00000000000E+00 0.  1.
         11    1    3    3    0    0 -0.50917203888E+00  0.10490436324E+02  0.69502742087E+01  0.12594237661E+02  0.51100000000E-03 0.  1.
        -11    1    3    3    0    0  0.23951733595E+01 -0.37977497027E+02 -0.14355119737E+02  0.40670586408E+02  0.51100000000E-03 0. -1.
        -12    1    3    3    0    0  0.29743703040E+01  0.17379235300E+02 -0.75914319479E+01  0.19196732465E+02  0.00000000000E+00 0.  1.
</event>
<event>
 7    1  0.1905073E-013  0.7246164E+02  0.7816164E-02  0.1226708E+00
        -11   -1    0    0    0    0  0.00000000000E+00  0.00000000000E+00  0.45593999997E+02  0.45594000000E+02  0.51100000000E-03 0.  1.
         11   -1    0    0    0    0 -0.00000000000E+00 -0.00000000000E+00 -0.45593999997E+02  0.45594000000E+02  0.51100000000E-03 0. -1.
    9900012    2    1    2    0    0  0.12198231183E+01  0.14125339280E+02 -0.12233699223E+02  0.72461639571E+02  0.70000090246E+02 0.  0.
        -12    1    1    2    0    0 -0.12198231183E+01 -0.14125339280E+02  0.12233699223E+02  0.18726360429E+02  0.00000000000E+00 0.  1.
         11    1    3    3    0    0  0.16691780166E+02 -0.16564414704E+02 -0.16980546973E+01  0.23577081024E+02  0.51100000000E-03 0. -1.
        -11    1    3    3    0    0 -0.11170925611E+02 -0.30698410068E+00  0.68283833407E+01  0.13096206991E+02  0.51100000000E-03 0.  1.
         12    1    3    3    0    0 -0.43010314362E+01  0.30996738085E+02 -0.17364027867E+02  0.35788351556E+02  0.00000000000E+00 0. -1.
</event>
<event>
 7    1  0.1905073E-013  0.7246089E+02  0.7816164E-02  0.1226710E+00
        -11   -1    0    0    0    0  0.00000000000E+00  0.00000000000E+00  0.45593999997E+02  0.45594000000E+02  0.51100000000E-03 0.  1.
         11   -1    0    0    0    0 -0.00000000000E+00 -0.00000000000E+00 -0.45593999997E+02  0.45594000000E+02  0.51100000000E-03 0. -1.
    9900012    2    1    2    0    0 -0.78312075514E+01 -0.16868277191E+02  0.21995313504E+01  0.72460893302E+02  0.69999118087E+02 0.  0.
        -12    1    1    2    0    0  0.78312075514E+01  0.16868277191E+02 -0.21995313504E+01  0.18727106698E+02  0.00000000000E+00 0.  1.
         11    1    3    3    0    0 -0.31474135950E+02  0.10540452567E+02  0.64834709841E+00  0.33198535033E+02  0.51100000000E-03 0. -1.
        -11    1    3    3    0    0  0.73060757714E+00 -0.60816259779E+01  0.48140290043E+01  0.77906891533E+01  0.51100000000E-03 0.  1.
         12    1    3    3    0    0  0.22912320822E+02 -0.21327103780E+02 -0.32628447524E+01  0.31471669116E+02  0.00000000000E+00 0. -1.
</event>
<event>
 7    1  0.1905073E-013  0.7246158E+02  0.7816164E-02  0.1226708E+00
        -11   -1    0    0    0    0  0.00000000000E+00  0.00000000000E+00  0.45593999997E+02  0.45594000000E+02  0.51100000000E-03 0. -1.
         11   -1    0    0    0    0 -0.00000000000E+00 -0.00000000000E+00 -0.45593999997E+02  0.45594000000E+02  0.51100000000E-03 0.  1.
    9900012    2    1    2    0    0  0.17359481370E+02  0.61954718744E+01  0.33080758828E+01  0.72461579327E+02  0.70000011767E+02 0.  0.
        -12    1    1    2    0    0 -0.17359481370E+02 -0.61954718744E+01 -0.33080758828E+01  0.18726420673E+02  0.00000000000E+00 0.  1.
         11    1    3    3    0    0  0.13849837961E+02 -0.82689600419E+01  0.15546674643E+02  0.22402964189E+02  0.51100000000E-03 0. -1.
        -11    1    3    3    0    0 -0.14045360393E+02 -0.10699211869E+02 -0.66767203846E+01  0.18876543077E+02  0.51100000000E-03 0.  1.
        -12    1    3    3    0    0  0.17555003801E+02  0.25163643785E+02 -0.55618783755E+01  0.31182072062E+02  0.00000000000E+00 0.  1.
</event>
<event>
 7    1  0.1905073E-013  0.7246152E+02  0.7816164E-02  0.1226708E+00
        -11   -1    0    0    0    0  0.00000000000E+00  0.00000000000E+00  0.45593999997E+02  0.45594000000E+02  0.51100000000E-03 0. -1.
         11   -1    0    0    0    0 -0.00000000000E+00 -0.00000000000E+00 -0.45593999997E+02  0.45594000000E+02  0.51100000000E-03 0.  1.
    9900012    2    1    2    0    0 -0.54305058084E+01 -0.11983237559E+02  0.13326384717E+02  0.72461523948E+02  0.69999939625E+02 0.  0.
        -12    1    1    2    0    0  0.54305058084E+01  0.11983237559E+02 -0.13326384717E+02  0.18726476052E+02  0.00000000000E+00 0.  1.
         11    1    3    3    0    0 -0.20767830214E+02 -0.69270903454E+01 -0.10981045096E+02  0.24492258044E+02  0.51100000000E-03 0. -1.
        -11    1    3    3    0    0  0.16712895881E+02  0.95229535653E+01 -0.40960406634E+00  0.19239940465E+02  0.51100000000E-03 0.  1.
         12    1    3    3    0    0 -0.13755714756E+01 -0.14579100779E+02  0.24717033879E+02  0.28729325439E+02  0.00000000000E+00 0. -1.
</event>
<event>
 7    1  0.1905073E-013  0.7246156E+02  0.7816164E-02  0.1226708E+00
        -11   -1    0    0    0    0  0.00000000000E+00  0.00000000000E+00  0.45593999997E+02  0.45594000000E+02  0.51100000000E-03 0.  1.
         11   -1    0    0    0    0 -0.00000000000E+00 -0.00000000000E+00 -0.45593999997E+02  0.45594000000E+02  0.51100000000E-03 0. -1.
    9900012    2    1    2    0    0 -0.10574161485E+02  0.15383260819E+02 -0.14905868814E+01  0.72461562704E+02  0.69999990113E+02 0.  0.
        -12    1    1    2    0    0  0.10574161485E+02 -0.15383260819E+02  0.14905868814E+01  0.18726437296E+02  0.00000000000E+00 0.  1.
         11    1    3    3    0    0 -0.35655133908E+01  0.16043238908E+02 -0.59800028207E+01  0.17488820269E+02  0.51100000000E-03 0. -1.
        -11    1    3    3    0    0 -0.30138977381E+02 -0.66771568756E+01  0.32513744897E+01  0.31040518968E+02  0.51100000000E-03 0.  1.
        -12    1    3    3    0    0  0.23130329287E+02  0.60171787869E+01  0.12380414495E+01  0.23932223467E+02  0.00000000000E+00 0.  1.
</event>
<event>
 7    1  0.1905073E-013  0.7246152E+02  0.7816164E-02  0.1226708E+00
        -11   -1    0    0    0    0  0.00000000000E+00  0.00000000000E+00  0.45593999997E+02  0.45594000000E+02  0.51100000000E-03 0. -1.
         11   -1    0    0    0    0 -0.00000000000E+00 -0.00000000000E+00 -0.45593999997E+02  0.45594000000E+02  0.51100000000E-03 0.  1.
    9900012    2    1    2    0    0  0.36958628430E+01  0.44291082570E+01  0.17815850037E+02  0.72461523699E+02  0.69999939301E+02 0.  0.
        -12    1    1    2    0    0 -0.36958628430E+01 -0.44291082570E+01 -0.17815850037E+02  0.18726476301E+02  0.00000000000E+00 0.  1.
         11    1    3    3    0    0  0.92959111538E+01  0.81643631351E+01  0.31565883973E+02  0.33903920435E+02  0.51100000000E-03 0. -1.
        -11    1    3    3    0    0 -0.12779497392E+02 -0.16422399300E+02 -0.11595604330E+02  0.23821603481E+02  0.51100000000E-03 0.  1.
         12    1    3    3    0    0  0.71794490808E+01  0.12687144422E+02 -0.21544296061E+01  0.14735999783E+02  0.00000000000E+00 0. -1.
</event>
<event>
 7    1  0.1905073E-013  0.7246163E+02  0.7816164E-02  0.1226708E+00
        -11   -1    0    0    0    0  0.00000000000E+00  0.00000000000E+00  0.45593999997E+02  0.45594000000E+02  0.51100000000E-03 0.  1.
         11   -1    0    0    0    0 -0.00000000000E+00 -0.00000000000E+00 -0.45593999997E+02  0.45594000000E+02  0.51100000000E-03 0. -1.
    9900012    2    1    2    0    0  0.12704853805E+02 -0.15992532152E+01 -0.13664039897E+02  0.72461630694E+02  0.70000078682E+02 0.  0.
        -12    1    1    2    0    0 -0.12704853805E+02  0.15992532152E+01  0.13664039897E+02  0.18726369306E+02  0.00000000000E+00 0.  1.
         11    1    3    3    0    0 -0.90112911713E+01  0.29253165380E+01  0.32022190388E+01  0.10000752594E+02  0.51100000000E-03 0. -1.
        -11    1    3    3    0    0  0.85325887752E+01 -0.10996938174E+02 -0.35851135644E+02  0.38458310515E+02  0.51100000000E-03 0.  1.
        -12    1    3    3    0    0  0.13183556201E+02  0.64723684203E+01  0.18984876708E+02  0.24002567585E+02  0.00000000000E+00 0.  1.
</event>
<event>
 7    1  0.1905073E-013  0.7246149E+02  0.7816164E-02  0.1226708E+00
        -11   -1    0    0    0    0  0.00000000000E+00  0.00000000000E+00  0.45593999997E+02  0.45594000000E+02  0.51100000000E-03 0.  1.
         11   -1    0    0    0    0 -0.00000000000E+00 -0.00000000000E+00 -0.45593999997E+02  0.45594000000E+02  0.51100000000E-03 0. -1.
    9900012    2    1    2    0    0  0.14511670125E+02  0.11661103874E+02 -0.20278441761E+01  0.72461492974E+02  0.69999899276E+02 0.  0.
        -12    1    1    2    0    0 -0.14511670125E+02 -0.11661103874E+02  0.20278441761E+01  0.18726507026E+02  0.00000000000E+00 0.  1.
         11    1    3    3    0    0 -0.85086348658E+01 -0.20781784176E+02 -0.10417529000E+01  0.22480317395E+02  0.51100000000E-03 0. -1.
        -11    1    3    3    0    0  0.52498316185E+01  0.45512518973E+01  0.12471475297E+02  0.14276285308E+02  0.51100000000E-03 0.  1.
         12    1    3    3    0    0  0.17770473373E+02  0.27891636153E+02 -0.13457566573E+02  0.35704890271E+02  0.00000000000E+00 0. -1.
</event>
<event>
 7    1  0.1905073E-013  0.7246143E+02  0.7816164E-02  0.1226708E+00
        -11   -1    0    0    0    0  0.00000000000E+00  0.00000000000E+00  0.45593999997E+02  0.45594000000E+02  0.51100000000E-03 0. -1.
         11   -1    0    0    0    0 -0.00000000000E+00 -0.00000000000E+00 -0.45593999997E+02  0.45594000000E+02  0.51100000000E-03 0.  1.
    9900012    2    1    2    0    0 -0.14830448534E+02  0.77831802924E+01  0.83764122688E+01  0.72461431129E+02  0.69999818711E+02 0.  0.
        -12    1    1    2    0    0  0.14830448534E+02 -0.77831802924E+01 -0.83764122688E+01  0.18726568871E+02  0.00000000000E+00 0.  1.
         11    1    3    3    0    0  0.26580875646E+01 -0.14840846440E+02 -0.30461226520E+01  0.15381645427E+02  0.51100000000E-03 0. -1.
        -11    1    3    3    0    0 -0.27706019774E+01  0.31533996075E+02 -0.64129708537E+01  0.32298534630E+02  0.51100000000E-03 0.  1.
        -12    1    3    3    0    0 -0.14717934121E+02 -0.89099693428E+01  0.17835505774E+02  0.24781251073E+02  0.00000000000E+00 0.  1.
</event>
<event>
 7    1  0.1905073E-013  0.7246190E+02  0.7816164E-02  0.1226707E+00
        -11   -1    0    0    0    0  0.00000000000E+00  0.00000000000E+00  0.45593999997E+02  0.45594000000E+02  0.51100000000E-03 0. -1.
         11   -1    0    0    0    0 -0.00000000000E+00 -0.00000000000E+00 -0.45593999997E+02  0.45594000000E+02  0.51100000000E-03 0.  1.
    9900012    2    1    2    0    0  0.20691346949E+01 -0.98366944058E+01  0.15799517910E+02  0.72461904801E+02  0.70000435756E+02 0.  0.
        -12    1    1    2    0    0 -0.20691346949E+01  0.98366944058E+01 -0.15799517910E+02  0.18726095199E+02  0.00000000000E+00 0.  1.
         11    1    3    3    0    0  0.23632621169E+02 -0.56075458728E+01 -0.11123465392E+02  0.26714730704E+02  0.51100000000E-03 0. -1.
        -11    1    3    3    0    0 -0.27788069210E+01  0.11333963111E+02  0.41798162580E+01  0.12395618254E+02  0.51100000000E-03 0.  1.
         12    1    3    3    0    0 -0.18784679553E+02 -0.15563111644E+02  0.22743167043E+02  0.33351555842E+02  0.00000000000E+00 0. -1.
</event>
<event>
 7    1  0.1905073E-013  0.7246154E+02  0.7816164E-02  0.1226708E+00
        -11   -1    0    0    0    0  0.00000000000E+00  0.00000000000E+00  0.45593999997E+02  0.45594000000E+02  0.51100000000E-03 0.  1.
         11   -1    0    0    0    0 -0.00000000000E+00 -0.00000000000E+00 -0.45593999997E+02  0.45594000000E+02  0.51100000000E-03 0. -1.
    9900012    2    1    2    0    0  0.95653484596E+01 -0.73622034048E+01  0.14317201556E+02  0.72461543034E+02  0.69999964488E+02 0.  0.
        -12    1    1    2    0    0 -0.95653484596E+01  0.73622034048E+01 -0.14317201556E+02  0.18726456966E+02  0.00000000000E+00 0.  1.
         11    1    3    3    0    0  0.18980776013E+01  0.27232098030E+02  0.12027885615E+02  0.29830519511E+02  0.51100000000E-03 0. -1.
        -11    1    3    3    0    0  0.48189681295E+01 -0.30516775858E+01  0.86172959546E+01  0.10334068887E+02  0.51100000000E-03 0.  1.
         12    1    3    3    0    0  0.28483027288E+01 -0.31542623849E+02 -0.63279800138E+01  0.32296954636E+02  0.00000000000E+00 0. -1.
</event>
<event>
 8    1  0.1905073E-013  0.7246159E+02  0.7816164E-02  0.1226708E+00
        -11   -1    0    0    0    0  0.00000000000E+00  0.00000000000E+00  0.45593999997E+02  0.45594000000E+02  0.51100000000E-03 0. -1.
         11   -1    0    0    0    0 -0.00000000000E+00 -0.00000000000E+00 -0.45593999997E+02  0.45594000000E+02  0.51100000000E-03 0.  1.
    9900012    2    1    2    0    0  0.11111367869E+02  0.15004597605E+02 -0.14415699818E+01  0.72461586322E+02  0.70000020879E+02 0.  0.
        -24    2    3    3    0    0 -0.49088648197E+01  0.65160942725E+01  0.38960548297E+01  0.53562041801E+02  0.52793528393E+02 0.  0.
        -12    1    1    2    0    0 -0.11111367869E+02 -0.15004597605E+02  0.14415699818E+01  0.18726413678E+02  0.00000000000E+00 0.  1.
         11    1    4    4    0    0 -0.14705621437E+02 -0.20150646495E+02  0.31376203376E+01  0.25142563863E+02  0.51100000000E-03 0. -1.
        -11    1    3    3    0    0  0.16020232689E+02  0.84885033324E+01 -0.53376248115E+01  0.18899544522E+02  0.51100000000E-03 0.  1.
        -12    1    4    4    0    0  0.97967566168E+01  0.26666740767E+02  0.75843449205E+00  0.28419477937E+02  0.00000000000E+00 0.  1.
</event>
<event>
 7    1  0.1905073E-013  0.7246158E+02  0.7816164E-02  0.1226708E+00
        -11   -1    0    0    0    0  0.00000000000E+00  0.00000000000E+00  0.45593999997E+02  0.45594000000E+02  0.51100000000E-03 0.  1.
         11   -1    0    0    0    0 -0.00000000000E+00 -0.00000000000E+00 -0.45593999997E+02  0.45594000000E+02  0.51100000000E-03 0. -1.
    9900012    2    1    2    0    0 -0.76584577040E+01  0.21269404463E-01 -0.17088778517E+02  0.72461580749E+02  0.70000013619E+02 0.  0.
        -12    1    1    2    0    0  0.76584577040E+01 -0.21269404463E-01  0.17088778517E+02  0.18726419251E+02  0.00000000000E+00 0.  1.
         11    1    3    3    0    0  0.21198316004E+01 -0.52420466004E+01 -0.23322934164E+02  0.23998583226E+02  0.51100000000E-03 0. -1.
        -11    1    3    3    0    0  0.69767499792E+01  0.37310442158E+01  0.23234481202E+02  0.24544588980E+02  0.51100000000E-03 0.  1.
         12    1    3    3    0    0 -0.16755039284E+02  0.15322717891E+01 -0.17000325555E+02  0.23918408543E+02  0.00000000000E+00 0. -1.
</event>
<event>
 8    1  0.1905073E-013  0.7246138E+02  0.7816164E-02  0.1226709E+00
        -11   -1    0    0    0    0  0.00000000000E+00  0.00000000000E+00  0.45593999997E+02  0.45594000000E+02  0.51100000000E-03 0. -1.
         11   -1    0    0    0    0 -0.00000000000E+00 -0.00000000000E+00 -0.45593999997E+02  0.45594000000E+02  0.51100000000E-03 0.  1.
    9900012    2    1    2    0    0  0.15246345713E+02 -0.10550002593E+02  0.26330151650E+01  0.72461377743E+02  0.69999749166E+02 0.  0.
        -24    2    3    3    0    0  0.19017812896E+02 -0.20177291854E+02 -0.91082882467E+01  0.56816350760E+02  0.48747681843E+02 0.  0.
        -12    1    1    2    0    0 -0.15246345713E+02  0.10550002593E+02 -0.26330151650E+01  0.18726622257E+02  0.00000000000E+00 0.  1.
         11    1    4    4    0    0  0.26943211503E+02 -0.29804642937E+02 -0.15176242807E+02  0.42948477653E+02  0.51100000000E-03 0. -1.
        -11    1    3    3    0    0 -0.37714671830E+01  0.96272892607E+01  0.11741303412E+02  0.15645026983E+02  0.51100000000E-03 0.  1.
        -12    1    4    4    0    0 -0.79253986076E+01  0.96273510831E+01  0.60679545608E+01  0.13867873107E+02  0.00000000000E+00 0.  1.
</event>
<event>
 7    1  0.1905073E-013  0.7246132E+02  0.7816164E-02  0.1226709E+00
        -11   -1    0    0    0    0  0.00000000000E+00  0.00000000000E+00  0.45593999997E+02  0.45594000000E+02  0.51100000000E-03 0.  1.
         11   -1    0    0    0    0 -0.00000000000E+00 -0.00000000000E+00 -0.45593999997E+02  0.45594000000E+02  0.51100000000E-03 0. -1.
    9900012    2    1    2    0    0  0.97244592463E+01 -0.55792972247E+01 -0.14999830380E+02  0.72461319125E+02  0.69999672804E+02 0.  0.
        -12    1    1    2    0    0 -0.97244592463E+01  0.55792972247E+01  0.14999830380E+02  0.18726680875E+02  0.00000000000E+00 0.  1.
         11    1    3    3    0    0 -0.57345192462E+01 -0.20384639118E+02 -0.26564084765E+02  0.33971588462E+02  0.51100000000E-03 0. -1.
        -11    1    3    3    0    0  0.99781905100E+00  0.20796689508E+01  0.18025026089E+02  0.18172017818E+02  0.51100000000E-03 0.  1.
        -12    1    3    3    0    0  0.14461159442E+02  0.12725672943E+02 -0.64607717048E+01  0.20317712845E+02  0.00000000000E+00 0.  1.
</event>
<event>
 7    1  0.1905073E-013  0.7246157E+02  0.7816164E-02  0.1226708E+00
        -11   -1    0    0    0    0  0.00000000000E+00  0.00000000000E+00  0.45593999997E+02  0.45594000000E+02  0.51100000000E-03 0.  1.
         11   -1    0    0    0    0 -0.00000000000E+00 -0.00000000000E+00 -0.45593999997E+02  0.45594000000E+02  0.51100000000E-03 0. -1.
    9900012    2    1    2    0    0  0.13972697929E+02  0.59776658512E+01 -0.10941217127E+02  0.72461574589E+02  0.70000005595E+02 0.  0.
        -12    1    1    2    0    0 -0.13972697929E+02 -0.59776658512E+01  0.10941217127E+02  0.18726425411E+02  0.00000000000E+00 0.  1.
         11    1    3    3    0    0 -0.27157776340E+01  0.14781785195E+02  0.13778646727E+02  0.20389402335E+02  0.51100000000E-03 0. -1.
        -11    1    3    3    0    0  0.47431144809E+01 -0.16315337213E+02  0.61984359239E+01  0.18086126493E+02  0.51100000000E-03 0.  1.
         12    1    3    3    0    0  0.11945361082E+02  0.75112178700E+01 -0.30918299778E+02  0.33986045761E+02  0.00000000000E+00 0. -1.
</event>
<event>
 7    1  0.1905073E-013  0.7246156E+02  0.7816164E-02  0.1226708E+00
        -11   -1    0    0    0    0  0.00000000000E+00  0.00000000000E+00  0.45593999997E+02  0.45594000000E+02  0.51100000000E-03 0.  1.
         11   -1    0    0    0    0 -0.00000000000E+00 -0.00000000000E+00 -0.45593999997E+02  0.45594000000E+02  0.51100000000E-03 0. -1.
    9900012    2    1    2    0    0  0.96564593746E+00 -0.83569658748E+01 -0.16730461102E+02  0.72461556681E+02  0.69999982266E+02 0.  0.
        -12    1    1    2    0    0 -0.96564593746E+00  0.83569658748E+01  0.16730461102E+02  0.18726443319E+02  0.00000000000E+00 0.  1.
         11    1    3    3    0    0  0.16625843207E+02  0.60065698813E-01 -0.37278835861E+02  0.40818303170E+02  0.51100000000E-03 0. -1.
        -11    1    3    3    0    0  0.57154405124E+00  0.25987673950E+01  0.78164633497E+01  0.82569579225E+01  0.51100000000E-03 0.  1.
         12    1    3    3    0    0 -0.16231741321E+02 -0.11015798969E+02  0.12731911409E+02  0.23386295589E+02  0.00000000000E+00 0. -1.
</event>
<event>
 7    1  0.1905073E-013  0.7246156E+02  0.7816164E-02  0.1226708E+00
        -11   -1    0    0    0    0  0.00000000000E+00  0.00000000000E+00  0.45593999997E+02  0.45594000000E+02  0.51100000000E-03 0.  1.
         11   -1    0    0    0    0 -0.00000000000E+00 -0.00000000000E+00 -0.45593999997E+02  0.45594000000E+02  0.51100000000E-03 0. -1.
    9900012    2    1    2    0    0 -0.89973342301E+01  0.16266837050E+02 -0.22622351181E+01  0.72461555634E+02  0.69999980902E+02 0.  0.
        -12    1    1    2    0    0  0.89973342301E+01 -0.16266837050E+02  0.22622351181E+01  0.18726444366E+02  0.00000000000E+00 0.  1.
         11    1    3    3    0    0 -0.41994384988E+01  0.54156754190E+01  0.26360844933E+02  0.27237088130E+02  0.51100000000E-03 0. -1.
        -11    1    3    3    0    0 -0.17136148897E+02  0.13365527372E+02 -0.13662085695E+02  0.25669778082E+02  0.51100000000E-03 0.  1.
         12    1    3    3    0    0  0.12338253166E+02 -0.25143657411E+01 -0.14960994356E+02  0.19554689422E+02  0.00000000000E+00 0. -1.
</event>
<event>
 7    1  0.1905073E-013  0.7246156E+02  0.7816164E-02  0.1226708E+00
        -11   -1    0    0    0    0  0.00000000000E+00  0.00000000000E+00  0.45593999997E+02  0.45594000000E+02  0.51100000000E-03 0.  1.
         11   -1    0    0    0    0 -0.00000000000E+00 -0.00000000000E+00 -0.45593999997E+02  0.45594000000E+02  0.51100000000E-03 0. -1.
    9900012    2    1    2    0    0  0.92690853710E+01 -0.14146370806E+02 -0.80401259921E+01  0.72461564766E+02  0.69999992798E+02 0.  0.
        -12    1    1    2    0    0 -0.92690853710E+01  0.14146370806E+02  0.80401259921E+01  0.18726435234E+02  0.00000000000E+00 0.  1.
         11    1    3    3    0    0  0.19873395081E+01 -0.15712381643E+01 -0.27820214522E+02  0.27935329674E+02  0.51100000000E-03 0. -1.
        -11    1    3    3    0    0  0.22882713645E+01 -0.25236254207E+02  0.81336923032E+01  0.26613185885E+02  0.51100000000E-03 0.  1.
        -12    1    3    3    0    0  0.49934744984E+01  0.12661121565E+02  0.11646396226E+02  0.17913049207E+02  0.00000000000E+00 0.  1.
</event>
<event>
 7    1  0.1905073E-013  0.7246153E+02  0.7816164E-02  0.1226708E+00
        -11   -1    0    0    0    0  0.00000000000E+00  0.00000000000E+00  0.45593999997E+02  0.45594000000E+02  0.51100000000E-03 0.  1.
         11   -1    0    0    0    0 -0.00000000000E+00 -0.00000000000E+00 -0.45593999997E+02  0.45594000000E+02  0.51100000000E-03 0. -1.
    9900012    2    1    2    0    0 -0.12771664896E+02  0.11039760288E+02 -0.81048617546E+01  0.72461534356E+02  0.69999953184E+02 0.  0.
        -12    1    1    2    0    0  0.12771664896E+02 -0.11039760288E+02  0.81048617546E+01  0.18726465644E+02  0.00000000000E+00 0.  1.
         11    1    3    3    0    0 -0.15608219857E+02 -0.11011887065E+02  0.17498055112E+02  0.25904828059E+02  0.51100000000E-03 0.  1.
        -11    1    3    3    0    0 -0.78275783615E+01  0.20532140040E+02 -0.38853349785E+01  0.22314470323E+02  0.51100000000E-03 0. -1.
         12    1    3    3    0    0  0.10664133322E+02  0.15195073136E+01 -0.21717581888E+02  0.24242235974E+02  0.00000000000E+00 0. -1.
</event>
<event>
 7    1  0.1905073E-013  0.7246160E+02  0.7816164E-02  0.1226708E+00
        -11   -1    0    0    0    0  0.00000000000E+00  0.00000000000E+00  0.45593999997E+02  0.45594000000E+02  0.51100000000E-03 0. -1.
         11   -1    0    0    0    0 -0.00000000000E+00 -0.00000000000E+00 -0.45593999997E+02  0.45594000000E+02  0.51100000000E-03 0.  1.
    9900012    2    1    2    0    0  0.17072894318E+02  0.71119348024E+01 -0.29350581374E+01  0.72461604103E+02  0.70000044042E+02 0.  0.
        -12    1    1    2    0    0 -0.17072894318E+02 -0.71119348024E+01  0.29350581374E+01  0.18726395897E+02  0.00000000000E+00 0.  1.
         11    1    3    3    0    0 -0.27226116981E+01 -0.21622102356E+02 -0.12192405846E+02  0.24971637618E+02  0.51100000000E-03 0.  1.
        -11    1    3    3    0    0 -0.13922707865E+01  0.14846550165E+02  0.15385371509E+02  0.21425875162E+02  0.51100000000E-03 0. -1.
        -12    1    3    3    0    0  0.21187776802E+02  0.13887486993E+02 -0.61280238001E+01  0.26064091323E+02  0.00000000000E+00 0.  1.
</event>
<event>
 7    1  0.1905073E-013  0.7246158E+02  0.7816164E-02  0.1226708E+00
        -11   -1    0    0    0    0  0.00000000000E+00  0.00000000000E+00  0.45593999997E+02  0.45594000000E+02  0.51100000000E-03 0.  1.
         11   -1    0    0    0    0 -0.00000000000E+00 -0.00000000000E+00 -0.45593999997E+02  0.45594000000E+02  0.51100000000E-03 0. -1.
    9900012    2    1    2    0    0 -0.15902708825E+02  0.58731545794E+01  0.79554270338E+01  0.72461577170E+02  0.70000008957E+02 0.  0.
        -12    1    1    2    0    0  0.15902708825E+02 -0.58731545794E+01 -0.79554270338E+01  0.18726422830E+02  0.00000000000E+00 0.  1.
         11    1    3    3    0    0  0.19995591700E+01  0.30060093852E+00  0.28371530621E+02  0.28443493946E+02  0.51100000000E-03 0.  1.
        -11    1    3    3    0    0 -0.28166765279E+02  0.54156993713E+01 -0.15992430367E+02  0.32839827882E+02  0.51100000000E-03 0. -1.
        -12    1    3    3    0    0  0.10264497284E+02  0.15685426954E+00 -0.44236732202E+01  0.11178255343E+02  0.00000000000E+00 0.  1.
</event>
<event>
 7    1  0.1905073E-013  0.7246158E+02  0.7816164E-02  0.1226708E+00
        -11   -1    0    0    0    0  0.00000000000E+00  0.00000000000E+00  0.45593999997E+02  0.45594000000E+02  0.51100000000E-03 0.  1.
         11   -1    0    0    0    0 -0.00000000000E+00 -0.00000000000E+00 -0.45593999997E+02  0.45594000000E+02  0.51100000000E-03 0. -1.
    9900012    2    1    2    0    0 -0.87091728982E+01  0.13966722257E+02 -0.89308384488E+01  0.72461577528E+02  0.70000009424E+02 0.  0.
        -12    1    1    2    0    0  0.87091728982E+01 -0.13966722257E+02  0.89308384488E+01  0.18726422472E+02  0.00000000000E+00 0.  1.
         11    1    3    3    0    0 -0.14866136403E+02  0.19533367642E+02 -0.29843508469E+02  0.38641809753E+02  0.51100000000E-03 0. -1.
        -11    1    3    3    0    0  0.15172846014E+02 -0.64824945058E+01  0.88225445778E+01  0.18710298882E+02  0.51100000000E-03 0.  1.
        -12    1    3    3    0    0 -0.90158825092E+01  0.91584912068E+00  0.12090125442E+02  0.15109468893E+02  0.00000000000E+00 0.  1.
</event>
<event>
 7    1  0.1905073E-013  0.7246156E+02  0.7816164E-02  0.1226708E+00
        -11   -1    0    0    0    0  0.00000000000E+00  0.00000000000E+00  0.45593999997E+02  0.45594000000E+02  0.51100000000E-03 0. -1.
         11   -1    0    0    0    0 -0.00000000000E+00 -0.00000000000E+00 -0.45593999997E+02  0.45594000000E+02  0.51100000000E-03 0.  1.
    9900012    2    1    2    0    0  0.14706390159E+02  0.74954770110E+01  0.88441715702E+01  0.72461562595E+02  0.69999989970E+02 0.  0.
        -12    1    1    2    0    0 -0.14706390159E+02 -0.74954770110E+01 -0.88441715702E+01  0.18726437405E+02  0.00000000000E+00 0.  1.
         11    1    3    3    0    0 -0.11228292479E+01 -0.53307609847E+01  0.26473643032E+02  0.27028346857E+02  0.51100000000E-03 0. -1.
        -11    1    3    3    0    0  0.97343673993E+01  0.22176219567E+02  0.40779856781E+00  0.24222075116E+02  0.51100000000E-03 0.  1.
        -12    1    3    3    0    0  0.60948520073E+01 -0.93499815717E+01 -0.18037270029E+02  0.21211140622E+02  0.00000000000E+00 0.  1.
</event>
<event>
 7    1  0.1905073E-013  0.7246149E+02  0.7816164E-02  0.1226708E+00
        -11   -1    0    0    0    0  0.00000000000E+00  0.00000000000E+00  0.45593999997E+02  0.45594000000E+02  0.51100000000E-03 0. -1.
         11   -1    0    0    0    0 -0.00000000000E+00 -0.00000000000E+00 -0.45593999997E+02  0.45594000000E+02  0.51100000000E-03 0.  1.
    9900012    2    1    2    0    0  0.13754349566E+02 -0.29305097244E+01 -0.12365760493E+02  0.72461493337E+02  0.69999899749E+02 0.  0.
        -12    1    1    2    0    0 -0.13754349566E+02  0.29305097244E+01  0.12365760493E+02  0.18726506663E+02  0.00000000000E+00 0.  1.
         11    1    3    3    0    0  0.43504607061E+01  0.19756632263E+02  0.16281764909E+02  0.25968190070E+02  0.51100000000E-03 0. -1.
        -11    1    3    3    0    0  0.10170745732E+02 -0.33815264290E+01 -0.24486426957E+02  0.26729457442E+02  0.51100000000E-03 0.  1.
         12    1    3    3    0    0 -0.76685687236E+00 -0.19305615558E+02 -0.41610984448E+01  0.19763845825E+02  0.00000000000E+00 0. -1.
</event>
<event>
 8    1  0.1905073E-013  0.7246168E+02  0.7816164E-02  0.1226708E+00
        -11   -1    0    0    0    0  0.00000000000E+00  0.00000000000E+00  0.45593999997E+02  0.45594000000E+02  0.51100000000E-03 0. -1.
         11   -1    0    0    0    0 -0.00000000000E+00 -0.00000000000E+00 -0.45593999997E+02  0.45594000000E+02  0.51100000000E-03 0.  1.
    9900012    2    1    2    0    0  0.42263960760E+01 -0.19972230802E+01  0.18133498275E+02  0.72461679392E+02  0.70000142120E+02 0.  0.
        -24    2    3    3    0    0  0.11634025161E+02 -0.10718962558E+02  0.24950131016E+02  0.59142212798E+02  0.51235198810E+02 0.  0.
        -12    1    1    2    0    0 -0.42263960760E+01  0.19972230802E+01 -0.18133498275E+02  0.18726320608E+02  0.00000000000E+00 0.  1.
         11    1    4    4    0    0  0.13766461271E+02 -0.30511429920E+02  0.18328808893E+02  0.38162914556E+02  0.51100000000E-03 0. -1.
        -11    1    3    3    0    0 -0.74076290847E+01  0.87217394773E+01 -0.68166327413E+01  0.13319466594E+02  0.51100000000E-03 0.  1.
        -12    1    4    4    0    0 -0.21324361099E+01  0.19792467363E+02  0.66213221232E+01  0.20979298242E+02  0.00000000000E+00 0.  1.
</event>
<event>
 7    1  0.1905073E-013  0.7246157E+02  0.7816164E-02  0.1226708E+00
        -11   -1    0    0    0    0  0.00000000000E+00  0.00000000000E+00  0.45593999997E+02  0.45594000000E+02  0.51100000000E-03 0.  1.
         11   -1    0    0    0    0 -0.00000000000E+00 -0.00000000000E+00 -0.45593999997E+02  0.45594000000E+02  0.51100000000E-03 0. -1.
    9900012    2    1    2    0    0  0.18616349318E+02  0.17330038395E+01 -0.10523554387E+01  0.72461569048E+02  0.69999998377E+02 0.  0.
        -12    1    1    2    0    0 -0.18616349318E+02 -0.17330038395E+01  0.10523554387E+01  0.18726430952E+02  0.00000000000E+00 0.  1.
         11    1    3    3    0    0 -0.33603779841E+01 -0.12002538380E+02  0.12884621208E+02  0.17926698851E+02  0.51100000000E-03 0. -1.
        -11    1    3    3    0    0  0.33190788078E+02  0.98041627723E+01  0.19872107269E+01  0.34665530828E+02  0.51100000000E-03 0.  1.
         12    1    3    3    0    0 -0.11214060776E+02  0.39313794475E+01 -0.15924187374E+02  0.19869339369E+02  0.00000000000E+00 0. -1.
</event>
<event>
 7    1  0.2076257E-013  0.7246155E+02  0.7816164E-02  0.1226708E+00
        -11   -1    0    0    0    0  0.00000000000E+00  0.00000000000E+00  0.45593999997E+02  0.45594000000E+02  0.51100000000E-03 0. -1.
         11   -1    0    0    0    0 -0.00000000000E+00 -0.00000000000E+00 -0.45593999997E+02  0.45594000000E+02  0.51100000000E-03 0.  1.
    9900012    2    1    2    0    0 -0.37558165937E+01 -0.59823500030E+01  0.17343160298E+02  0.72461551352E+02  0.69999975324E+02 0.  0.
        -12    1    1    2    0    0  0.37558165937E+01  0.59823500030E+01 -0.17343160298E+02  0.18726448648E+02  0.00000000000E+00 0.  1.
         11    1    3    3    0    0  0.20289102691E+02 -0.22400158402E+02  0.19931278172E+02  0.36203185416E+02  0.51100000000E-03 0. -1.
        -11    1    3    3    0    0 -0.17977683473E+02 -0.67745684968E+00 -0.48634177869E+00  0.17997015848E+02  0.51100000000E-03 0.  1.
         12    1    3    3    0    0 -0.60672358116E+01  0.17095265248E+02 -0.21017760960E+01  0.18261350089E+02  0.00000000000E+00 0. -1.
</event>
<event>
 7    1  0.1905073E-013  0.7246132E+02  0.7816164E-02  0.1226709E+00
        -11   -1    0    0    0    0  0.00000000000E+00  0.00000000000E+00  0.45593999997E+02  0.45594000000E+02  0.51100000000E-03 0. -1.
         11   -1    0    0    0    0 -0.00000000000E+00 -0.00000000000E+00 -0.45593999997E+02  0.45594000000E+02  0.51100000000E-03 0.  1.
    9900012    2    1    2    0    0 -0.12584796564E+02 -0.44068986823E+01  0.13148786290E+02  0.72461322733E+02  0.69999677505E+02 0.  0.
        -12    1    1    2    0    0  0.12584796564E+02  0.44068986823E+01 -0.13148786290E+02  0.18726677267E+02  0.00000000000E+00 0.  1.
         11    1    3    3    0    0  0.19807185076E+02 -0.22503689167E+02  0.82264923611E+01  0.31087228625E+02  0.51100000000E-03 0.  1.
        -11    1    3    3    0    0 -0.26919737657E+02  0.21208899946E+02  0.17270189186E+01  0.34314316357E+02  0.51100000000E-03 0. -1.
        -12    1    3    3    0    0 -0.54722439827E+01 -0.31121094615E+01  0.31952750103E+01  0.70597777513E+01  0.00000000000E+00 0.  1.
</event>
<event>
 7    1  0.1905073E-013  0.7246156E+02  0.7816164E-02  0.1226708E+00
        -11   -1    0    0    0    0  0.00000000000E+00  0.00000000000E+00  0.45593999997E+02  0.45594000000E+02  0.51100000000E-03 0.  1.
         11   -1    0    0    0    0 -0.00000000000E+00 -0.00000000000E+00 -0.45593999997E+02  0.45594000000E+02  0.51100000000E-03 0. -1.
    9900012    2    1    2    0    0 -0.18315757079E+02  0.25206383435E+01 -0.29764027292E+01  0.72461560183E+02  0.69999986828E+02 0.  0.
        -12    1    1    2    0    0  0.18315757079E+02 -0.25206383435E+01  0.29764027292E+01  0.18726439817E+02  0.00000000000E+00 0.  1.
         11    1    3    3    0    0 -0.25262935714E+02  0.14808390497E+02 -0.25880304978E+02  0.39080615861E+02  0.51100000000E-03 0. -1.
        -11    1    3    3    0    0  0.21879350963E+00 -0.65271426752E+01  0.23608767769E+02  0.24495415448E+02  0.51100000000E-03 0.  1.
        -12    1    3    3    0    0  0.67283851263E+01 -0.57606094788E+01 -0.70486552018E+00  0.88855288743E+01  0.00000000000E+00 0.  1.
</event>
<event>
 7    1  0.1905073E-013  0.7246150E+02  0.7816164E-02  0.1226708E+00
        -11   -1    0    0    0    0  0.00000000000E+00  0.00000000000E+00  0.45593999997E+02  0.45594000000E+02  0.51100000000E-03 0.  1.
         11   -1    0    0    0    0 -0.00000000000E+00 -0.00000000000E+00 -0.45593999997E+02  0.45594000000E+02  0.51100000000E-03 0. -1.
    9900012    2    1    2    0    0 -0.15233239467E+02 -0.10595753135E+02 -0.25219522499E+01  0.72461499731E+02  0.69999908078E+02 0.  0.
        -12    1    1    2    0    0  0.15233239467E+02  0.10595753135E+02  0.25219522499E+01  0.18726500269E+02  0.00000000000E+00 0.  1.
         11    1    3    3    0    0 -0.23732715825E+02 -0.26093711280E+02  0.14501465963E+02  0.38136807471E+02  0.51100000000E-03 0. -1.
        -11    1    3    3    0    0  0.48945565367E+01  0.17326866450E+02 -0.12574678070E+01  0.18048773094E+02  0.51100000000E-03 0.  1.
         12    1    3    3    0    0  0.36049198206E+01 -0.18289083055E+01 -0.15765950406E+02  0.16275919166E+02  0.00000000000E+00 0. -1.
</event>
<event>
 7    1  0.1905073E-013  0.7246192E+02  0.7816164E-02  0.1226707E+00
        -11   -1    0    0    0    0  0.00000000000E+00  0.00000000000E+00  0.45593999997E+02  0.45594000000E+02  0.51100000000E-03 0. -1.
         11   -1    0    0    0    0 -0.00000000000E+00 -0.00000000000E+00 -0.45593999997E+02  0.45594000000E+02  0.51100000000E-03 0.  1.
    9900012    2    1    2    0    0  0.18387365838E+02 -0.35430070171E+01  0.13387755093E+00  0.72461920742E+02  0.70000456521E+02 0.  0.
        -12    1    1    2    0    0 -0.18387365838E+02  0.35430070171E+01 -0.13387755093E+00  0.18726079258E+02  0.00000000000E+00 0.  1.
         11    1    3    3    0    0 -0.33985065845E+01 -0.11997002137E+01  0.10728980482E+02  0.11318133682E+02  0.51100000000E-03 0. -1.
        -11    1    3    3    0    0 -0.59936930874E+01 -0.23364972147E+01 -0.27755547051E+02  0.28491296363E+02  0.51100000000E-03 0.  1.
        -12    1    3    3    0    0  0.27779565510E+02 -0.68095885909E-02  0.17160444120E+02  0.32652490697E+02  0.00000000000E+00 0.  1.
</event>
<event>
 7    1  0.1905073E-013  0.7246155E+02  0.7816164E-02  0.1226708E+00
        -11   -1    0    0    0    0  0.00000000000E+00  0.00000000000E+00  0.45593999997E+02  0.45594000000E+02  0.51100000000E-03 0.  1.
         11   -1    0    0    0    0 -0.00000000000E+00 -0.00000000000E+00 -0.45593999997E+02  0.45594000000E+02  0.51100000000E-03 0. -1.
    9900012    2    1    2    0    0  0.14054643185E+02 -0.11108679277E+02 -0.54538235516E+01  0.72461549677E+02  0.69999973143E+02 0.  0.
        -12    1    1    2    0    0 -0.14054643185E+02  0.11108679277E+02  0.54538235516E+01  0.18726450323E+02  0.00000000000E+00 0.  1.
         11    1    3    3    0    0 -0.76342683867E+00  0.25560254138E+02 -0.89239635686E+00  0.25587219147E+02  0.51100000000E-03 0. -1.
        -11    1    3    3    0    0  0.11784456068E+01 -0.29343771555E+02  0.32258019466E+01  0.29544059667E+02  0.51100000000E-03 0.  1.
         12    1    3    3    0    0  0.13639624417E+02 -0.73251618605E+01 -0.77872291413E+01  0.17330270864E+02  0.00000000000E+00 0. -1.
</event>
<event>
 7    1  0.1905073E-013  0.7246156E+02  0.7816164E-02  0.1226708E+00
        -11   -1    0    0    0    0  0.00000000000E+00  0.00000000000E+00  0.45593999997E+02  0.45594000000E+02  0.51100000000E-03 0.  1.
         11   -1    0    0    0    0 -0.00000000000E+00 -0.00000000000E+00 -0.45593999997E+02  0.45594000000E+02  0.51100000000E-03 0. -1.
    9900012    2    1    2    0    0  0.51840371606E+01  0.12753090423E+01 -0.17949347282E+02  0.72461555535E+02  0.69999980774E+02 0.  0.
        -12    1    1    2    0    0 -0.51840371606E+01 -0.12753090423E+01  0.17949347282E+02  0.18726444465E+02  0.00000000000E+00 0.  1.
         11    1    3    3    0    0 -0.17705309948E+02  0.10425808862E+02 -0.22655281855E+02  0.30584919273E+02  0.51100000000E-03 0. -1.
        -11    1    3    3    0    0  0.22028188114E+02 -0.71494691657E+01  0.17418595673E+02  0.28978672440E+02  0.51100000000E-03 0.  1.
        -12    1    3    3    0    0  0.86115899469E+00 -0.20010306541E+01 -0.12712661101E+02  0.12897963822E+02  0.00000000000E+00 0.  1.
</event>
<event>
 7    1  0.1905073E-013  0.7246156E+02  0.7816164E-02  0.1226708E+00
        -11   -1    0    0    0    0  0.00000000000E+00  0.00000000000E+00  0.45593999997E+02  0.45594000000E+02  0.51100000000E-03 0.  1.
         11   -1    0    0    0    0 -0.00000000000E+00 -0.00000000000E+00 -0.45593999997E+02  0.45594000000E+02  0.51100000000E-03 0. -1.
    9900012    2    1    2    0    0 -0.21301342972E+01  0.66342007990E+01 -0.17381869959E+02  0.72461561587E+02  0.69999988657E+02 0.  0.
        -12    1    1    2    0    0  0.21301342972E+01 -0.66342007990E+01  0.17381869959E+02  0.18726438413E+02  0.00000000000E+00 0.  1.
         11    1    3    3    0    0  0.20415201117E+02  0.16470850108E+02 -0.14812369878E+02  0.30124336367E+02  0.51100000000E-03 0. -1.
        -11    1    3    3    0    0 -0.29818376244E+02 -0.40348130285E+01  0.47972765441E+01  0.30470135223E+02  0.51100000000E-03 0.  1.
         12    1    3    3    0    0  0.72730408304E+01 -0.58018362805E+01 -0.73667766253E+01  0.11867089997E+02  0.00000000000E+00 0. -1.
</event>
<event>
 7    1  0.1905073E-013  0.7246157E+02  0.7816164E-02  0.1226708E+00
        -11   -1    0    0    0    0  0.00000000000E+00  0.00000000000E+00  0.45593999997E+02  0.45594000000E+02  0.51100000000E-03 0.  1.
         11   -1    0    0    0    0 -0.00000000000E+00 -0.00000000000E+00 -0.45593999997E+02  0.45594000000E+02  0.51100000000E-03 0. -1.
    9900012    2    1    2    0    0  0.14540560962E+01 -0.11850178580E+02 -0.14426995429E+02  0.72461569251E+02  0.69999998640E+02 0.  0.
        -12    1    1    2    0    0 -0.14540560962E+01  0.11850178580E+02  0.14426995429E+02  0.18726430749E+02  0.00000000000E+00 0.  1.
         11    1    3    3    0    0  0.18764452168E+02 -0.11897431977E+02  0.54692453962E+01  0.22881568964E+02  0.51100000000E-03 0. -1.
        -11    1    3    3    0    0 -0.41505789094E+01  0.76293692359E+01 -0.30070239252E+02  0.31299422825E+02  0.51100000000E-03 0.  1.
        -12    1    3    3    0    0 -0.13159817162E+02 -0.75821158391E+01  0.10173998427E+02  0.18280577462E+02  0.00000000000E+00 0.  1.
</event>
<event>
 7    1  0.1905073E-013  0.7246140E+02  0.7816164E-02  0.1226708E+00
        -11   -1    0    0    0    0  0.00000000000E+00  0.00000000000E+00  0.45593999997E+02  0.45594000000E+02  0.51100000000E-03 0.  1.
         11   -1    0    0    0    0 -0.00000000000E+00 -0.00000000000E+00 -0.45593999997E+02  0.45594000000E+02  0.51100000000E-03 0. -1.
    9900012    2    1    2    0    0 -0.99391949324E+01  0.93641838825E+01 -0.12814438155E+02  0.72461404983E+02  0.69999784651E+02 0.  0.
        -12    1    1    2    0    0  0.99391949324E+01 -0.93641838825E+01  0.12814438155E+02  0.18726595017E+02  0.00000000000E+00 0.  1.
         11    1    3    3    0    0  0.17513490783E+02 -0.76160526241E+01 -0.59641241799E+01  0.20007433481E+02  0.51100000000E-03 0. -1.
        -11    1    3    3    0    0 -0.23417217173E+02 -0.61236678804E+01  0.70247416816E+01  0.25203419696E+02  0.51100000000E-03 0.  1.
        -12    1    3    3    0    0 -0.40354685427E+01  0.23103904387E+02 -0.13875055657E+02  0.27250551806E+02  0.00000000000E+00 0.  1.
</event>
<event>
 7    1  0.1905073E-013  0.7246159E+02  0.7816164E-02  0.1226708E+00
        -11   -1    0    0    0    0  0.00000000000E+00  0.00000000000E+00  0.45593999997E+02  0.45594000000E+02  0.51100000000E-03 0.  1.
         11   -1    0    0    0    0 -0.00000000000E+00 -0.00000000000E+00 -0.45593999997E+02  0.45594000000E+02  0.51100000000E-03 0. -1.
    9900012    2    1    2    0    0 -0.96795156262E+01  0.79496995423E+01 -0.13920766522E+02  0.72461588541E+02  0.70000023769E+02 0.  0.
        -12    1    1    2    0    0  0.96795156262E+01 -0.79496995423E+01  0.13920766522E+02  0.18726411459E+02  0.00000000000E+00 0.  1.
         11    1    3    3    0    0 -0.83688953457E+01 -0.16634586178E+02 -0.16906873691E+02  0.25151346781E+02  0.51100000000E-03 0. -1.
        -11    1    3    3    0    0 -0.11189427573E+02  0.12530008271E+02  0.18728044225E+02  0.25158379070E+02  0.51100000000E-03 0.  1.
         12    1    3    3    0    0  0.98788072929E+01  0.12054277449E+02 -0.15741937056E+02  0.22151862690E+02  0.00000000000E+00 0. -1.
</event>
<event>
 7    1  0.1905073E-013  0.7246142E+02  0.7816164E-02  0.1226708E+00
        -11   -1    0    0    0    0  0.00000000000E+00  0.00000000000E+00  0.45593999997E+02  0.45594000000E+02  0.51100000000E-03 0. -1.
         11   -1    0    0    0    0 -0.00000000000E+00 -0.00000000000E+00 -0.45593999997E+02  0.45594000000E+02  0.51100000000E-03 0.  1.
    9900012    2    1    2    0    0 -0.15778433314E+02  0.71426386338E+01  0.71209909291E+01  0.72461421126E+02  0.69999805680E+02 0.  0.
        -12    1    1    2    0    0  0.15778433314E+02 -0.71426386338E+01 -0.71209909291E+01  0.18726578874E+02  0.00000000000E+00 0.  1.
         11    1    3    3    0    0 -0.90506383150E+01 -0.58823518284E+01 -0.51198601216E+00  0.10806398423E+02  0.51100000000E-03 0. -1.
        -11    1    3    3    0    0  0.23265648155E+02 -0.54036020113E+01 -0.47222006045E+01  0.24347247844E+02  0.51100000000E-03 0.  1.
        -12    1    3    3    0    0 -0.29993443154E+02  0.18428592473E+02  0.12355177546E+02  0.37307774859E+02  0.00000000000E+00 0.  1.
</event>
<event>
 7    1  0.1905073E-013  0.7246156E+02  0.7816164E-02  0.1226708E+00
        -11   -1    0    0    0    0  0.00000000000E+00  0.00000000000E+00  0.45593999997E+02  0.45594000000E+02  0.51100000000E-03 0.  1.
         11   -1    0    0    0    0 -0.00000000000E+00 -0.00000000000E+00 -0.45593999997E+02  0.45594000000E+02  0.51100000000E-03 0. -1.
    9900012    2    1    2    0    0 -0.13199086366E+02 -0.23288227786E+01 -0.13078232548E+02  0.72461562459E+02  0.69999989792E+02 0.  0.
        -12    1    1    2    0    0  0.13199086366E+02  0.23288227786E+01  0.13078232548E+02  0.18726437541E+02  0.00000000000E+00 0.  1.
         11    1    3    3    0    0 -0.18607482581E+02  0.18435146000E+02 -0.27636717255E+02  0.38077305012E+02  0.51100000000E-03 0. -1.
        -11    1    3    3    0    0  0.91015294181E+01 -0.12656192560E+02 -0.18647072017E+01  0.15700133155E+02  0.51100000000E-03 0.  1.
         12    1    3    3    0    0 -0.36931332026E+01 -0.81077762186E+01  0.16423191909E+02  0.18684124292E+02  0.00000000000E+00 0. -1.
</event>
<event>
 7    1  0.1905073E-013  0.7246159E+02  0.7816164E-02  0.1226708E+00
        -11   -1    0    0    0    0  0.00000000000E+00  0.00000000000E+00  0.45593999997E+02  0.45594000000E+02  0.51100000000E-03 0.  1.
         11   -1    0    0    0    0 -0.00000000000E+00 -0.00000000000E+00 -0.45593999997E+02  0.45594000000E+02  0.51100000000E-03 0. -1.
    9900012    2    1    2    0    0 -0.15611096048E+02 -0.83649123656E+01 -0.60827957557E+01  0.72461588627E+02  0.70000023882E+02 0.  0.
        -12    1    1    2    0    0  0.15611096048E+02  0.83649123656E+01  0.60827957557E+01  0.18726411373E+02  0.00000000000E+00 0.  1.
         11    1    3    3    0    0 -0.12826104211E+01  0.19415205271E+02 -0.17726253548E+02  0.26321385798E+02  0.51100000000E-03 0. -1.
        -11    1    3    3    0    0 -0.21483193950E+02 -0.75747035413E+01  0.91980901698E+01  0.24566412417E+02  0.51100000000E-03 0.  1.
        -12    1    3    3    0    0  0.71547083232E+01 -0.20205414095E+02  0.24453676228E+01  0.21573790413E+02  0.00000000000E+00 0.  1.
</event>
<event>
 7    1  0.1905073E-013  0.7246157E+02  0.7816164E-02  0.1226708E+00
        -11   -1    0    0    0    0  0.00000000000E+00  0.00000000000E+00  0.45593999997E+02  0.45594000000E+02  0.51100000000E-03 0.  1.
         11   -1    0    0    0    0 -0.00000000000E+00 -0.00000000000E+00 -0.45593999997E+02  0.45594000000E+02  0.51100000000E-03 0. -1.
    9900012    2    1    2    0    0  0.12979309430E+02  0.15557975512E+01 -0.13408811650E+02  0.72461569236E+02  0.69999998621E+02 0.  0.
        -12    1    1    2    0    0 -0.12979309430E+02 -0.15557975512E+01  0.13408811650E+02  0.18726430764E+02  0.00000000000E+00 0.  1.
         11    1    3    3    0    0  0.93089366306E+01 -0.26786223738E+02  0.44729831415E+01  0.28708285595E+02  0.51100000000E-03 0. -1.
        -11    1    3    3    0    0  0.85801670757E+01  0.17341322396E+02  0.30653132671E+01  0.19589203025E+02  0.51100000000E-03 0.  1.
        -12    1    3    3    0    0 -0.49097942768E+01  0.11000698894E+02 -0.20947108059E+02  0.24164080616E+02  0.00000000000E+00 0.  1.
</event>
<event>
 7    1  0.1905073E-013  0.7246154E+02  0.7816164E-02  0.1226708E+00
        -11   -1    0    0    0    0  0.00000000000E+00  0.00000000000E+00  0.45593999997E+02  0.45594000000E+02  0.51100000000E-03 0. -1.
         11   -1    0    0    0    0 -0.00000000000E+00 -0.00000000000E+00 -0.45593999997E+02  0.45594000000E+02  0.51100000000E-03 0.  1.
    9900012    2    1    2    0    0 -0.28957778965E+01 -0.51157145644E+01  0.17779879307E+02  0.72461543493E+02  0.69999965086E+02 0.  0.
        -12    1    1    2    0    0  0.28957778965E+01  0.51157145644E+01 -0.17779879307E+02  0.18726456507E+02  0.00000000000E+00 0.  1.
         11    1    3    3    0    0  0.19930172665E+01 -0.25518593557E+02  0.20714080624E+02  0.32927858590E+02  0.51100000000E-03 0. -1.
        -11    1    3    3    0    0  0.10826543120E+02  0.20409390411E+02  0.16538408421E+01  0.23162306506E+02  0.51100000000E-03 0.  1.
        -12    1    3    3    0    0 -0.15715338284E+02 -0.65114186109E-02 -0.45880421590E+01  0.16371378397E+02  0.00000000000E+00 0.  1.
</event>
<event>
 7    1  0.1905073E-013  0.7246169E+02  0.7816164E-02  0.1226708E+00
        -11   -1    0    0    0    0  0.00000000000E+00  0.00000000000E+00  0.45593999997E+02  0.45594000000E+02  0.51100000000E-03 0. -1.
         11   -1    0    0    0    0 -0.00000000000E+00 -0.00000000000E+00 -0.45593999997E+02  0.45594000000E+02  0.51100000000E-03 0.  1.
    9900012    2    1    2    0    0  0.18382939200E+02 -0.31285127274E+01  0.17189521237E+01  0.72461685842E+02  0.70000150522E+02 0.  0.
        -12    1    1    2    0    0 -0.18382939200E+02  0.31285127274E+01 -0.17189521237E+01  0.18726314158E+02  0.00000000000E+00 0.  1.
         11    1    3    3    0    0  0.21602906396E+02 -0.63559131101E+01  0.11271767131E+02  0.25182055729E+02  0.51100000000E-03 0. -1.
        -11    1    3    3    0    0  0.54896220660E+01  0.17313640337E+02 -0.20529480268E+02  0.27410903898E+02  0.51100000000E-03 0.  1.
        -12    1    3    3    0    0 -0.87095892621E+01 -0.14086239955E+02  0.10976665261E+02  0.19868726215E+02  0.00000000000E+00 0.  1.
</event>
<event>
 7    1  0.1905073E-013  0.7246154E+02  0.7816164E-02  0.1226708E+00
        -11   -1    0    0    0    0  0.00000000000E+00  0.00000000000E+00  0.45593999997E+02  0.45594000000E+02  0.51100000000E-03 0.  1.
         11   -1    0    0    0    0 -0.00000000000E+00 -0.00000000000E+00 -0.45593999997E+02  0.45594000000E+02  0.51100000000E-03 0. -1.
    9900012    2    1    2    0    0  0.76534245597E+01  0.16483599904E+02 -0.45162094370E+01  0.72461544891E+02  0.69999966907E+02 0.  0.
        -12    1    1    2    0    0 -0.76534245597E+01 -0.16483599904E+02  0.45162094370E+01  0.18726455109E+02  0.00000000000E+00 0.  1.
         11    1    3    3    0    0 -0.20445212877E+02  0.16301027582E+02  0.43950986501E-01  0.26148272635E+02  0.51100000000E-03 0. -1.
        -11    1    3    3    0    0  0.73806300471E+01  0.35191691921E+01  0.15346239756E+02  0.17388655112E+02  0.51100000000E-03 0.  1.
         12    1    3    3    0    0  0.20718007390E+02 -0.33365968704E+01 -0.19906400179E+02  0.28924617145E+02  0.00000000000E+00 0. -1.
</event>
<event>
 7    1  0.1905073E-013  0.7246157E+02  0.7816164E-02  0.1226708E+00
        -11   -1    0    0    0    0  0.00000000000E+00  0.00000000000E+00  0.45593999997E+02  0.45594000000E+02  0.51100000000E-03 0. -1.
         11   -1    0    0    0    0 -0.00000000000E+00 -0.00000000000E+00 -0.45593999997E+02  0.45594000000E+02  0.51100000000E-03 0.  1.
    9900012    2    1    2    0    0 -0.14043222236E+02  0.11134347630E+02  0.54307651202E+01  0.72461574882E+02  0.70000005976E+02 0.  0.
        -12    1    1    2    0    0  0.14043222236E+02 -0.11134347630E+02 -0.54307651202E+01  0.18726425118E+02  0.00000000000E+00 0.  1.
         11    1    3    3    0    0  0.44083262932E+01 -0.13731465177E+02  0.88487785467E+01  0.16920028328E+02  0.51100000000E-03 0. -1.
        -11    1    3    3    0    0 -0.24346406453E+02  0.19914561403E+02  0.15537762750E+02  0.35082179729E+02  0.51100000000E-03 0.  1.
        -12    1    3    3    0    0  0.58948579234E+01  0.49512514035E+01 -0.18955776176E+02  0.20459366824E+02  0.00000000000E+00 0.  1.
</event>
<event>
 7    1  0.1905073E-013  0.7246152E+02  0.7816164E-02  0.1226708E+00
        -11   -1    0    0    0    0  0.00000000000E+00  0.00000000000E+00  0.45593999997E+02  0.45594000000E+02  0.51100000000E-03 0. -1.
         11   -1    0    0    0    0 -0.00000000000E+00 -0.00000000000E+00 -0.45593999997E+02  0.45594000000E+02  0.51100000000E-03 0.  1.
    9900012    2    1    2    0    0 -0.82875149905E+01  0.14803040826E+02  0.79289366608E+01  0.72461522515E+02  0.69999937758E+02 0.  0.
        -12    1    1    2    0    0  0.82875149905E+01 -0.14803040826E+02 -0.79289366608E+01  0.18726477485E+02  0.00000000000E+00 0.  1.
         11    1    3    3    0    0  0.40069650250E+01 -0.13832811924E+02 -0.21301629451E+02  0.25713068117E+02  0.51100000000E-03 0. -1.
        -11    1    3    3    0    0  0.23858627684E+01  0.18330543559E+02  0.13480789892E+02  0.22878655221E+02  0.51100000000E-03 0.  1.
         12    1    3    3    0    0 -0.14680342784E+02  0.10305309192E+02  0.15749776220E+02  0.23869799177E+02  0.00000000000E+00 0. -1.
</event>
<event>
 7    1  0.1905073E-013  0.7246151E+02  0.7816164E-02  0.1226708E+00
        -11   -1    0    0    0    0  0.00000000000E+00  0.00000000000E+00  0.45593999997E+02  0.45594000000E+02  0.51100000000E-03 0.  1.
         11   -1    0    0    0    0 -0.00000000000E+00 -0.00000000000E+00 -0.45593999997E+02  0.45594000000E+02  0.51100000000E-03 0. -1.
    9900012    2    1    2    0    0 -0.18397054247E+02  0.10858016473E+01 -0.33242827855E+01  0.72461510040E+02  0.69999921507E+02 0.  0.
        -12    1    1    2    0    0  0.18397054247E+02 -0.10858016473E+01  0.33242827855E+01  0.18726489960E+02  0.00000000000E+00 0.  1.
         11    1    3    3    0    0  0.17744586860E+02  0.21893989186E+02  0.97043826021E+00  0.28198561594E+02  0.51100000000E-03 0. -1.
        -11    1    3    3    0    0 -0.15563778460E+02 -0.16891307523E+02 -0.39964839738E+01  0.23313501543E+02  0.51100000000E-03 0.  1.
         12    1    3    3    0    0 -0.20577862647E+02 -0.39168800158E+01 -0.29823707195E+00  0.20949446903E+02  0.00000000000E+00 0. -1.
</event>
<event>
 7    1  0.1905073E-013  0.7246154E+02  0.7816164E-02  0.1226708E+00
        -11   -1    0    0    0    0  0.00000000000E+00  0.00000000000E+00  0.45593999997E+02  0.45594000000E+02  0.51100000000E-03 0.  1.
         11   -1    0    0    0    0 -0.00000000000E+00 -0.00000000000E+00 -0.45593999997E+02  0.45594000000E+02  0.51100000000E-03 0. -1.
    9900012    2    1    2    0    0 -0.62057420480E+01  0.88542008122E+01 -0.15289605707E+02  0.72461544141E+02  0.69999965930E+02 0.  0.
        -12    1    1    2    0    0  0.62057420480E+01 -0.88542008122E+01  0.15289605707E+02  0.18726455859E+02  0.00000000000E+00 0.  1.
         11    1    3    3    0    0  0.93093444741E+01  0.77769946410E+00  0.86109783063E+01  0.12705024937E+02  0.51100000000E-03 0. -1.
        -11    1    3    3    0    0 -0.92699587781E+01  0.18792784175E+02 -0.36493042407E+02  0.42081385638E+02  0.51100000000E-03 0.  1.
        -12    1    3    3    0    0 -0.62451277439E+01 -0.10716282827E+02  0.12592458394E+02  0.17675133566E+02  0.00000000000E+00 0.  1.
</event>
<event>
 7    1  0.1905073E-013  0.7246113E+02  0.7816164E-02  0.1226709E+00
        -11   -1    0    0    0    0  0.00000000000E+00  0.00000000000E+00  0.45593999997E+02  0.45594000000E+02  0.51100000000E-03 0.  1.
         11   -1    0    0    0    0 -0.00000000000E+00 -0.00000000000E+00 -0.45593999997E+02  0.45594000000E+02  0.51100000000E-03 0. -1.
    9900012    2    1    2    0    0  0.10325131490E+01 -0.17507593830E+02 -0.65661051379E+01  0.72461129951E+02  0.69999426369E+02 0.  0.
        -12    1    1    2    0    0 -0.10325131490E+01  0.17507593830E+02  0.65661051379E+01  0.18726870049E+02  0.00000000000E+00 0.  1.
         11    1    3    3    0    0  0.21174851669E+02 -0.15980129652E+02  0.26836715314E+01  0.26663476518E+02  0.51100000000E-03 0. -1.
        -11    1    3    3    0    0 -0.22606056641E+02 -0.16220775182E+02 -0.12574079184E+02  0.30532848081E+02  0.51100000000E-03 0.  1.
        -12    1    3    3    0    0  0.24637181210E+01  0.14693311003E+02  0.33243025144E+01  0.15264805352E+02  0.00000000000E+00 0.  1.
</event>
<event>
 7    1  0.1905073E-013  0.7246157E+02  0.7816164E-02  0.1226708E+00
        -11   -1    0    0    0    0  0.00000000000E+00  0.00000000000E+00  0.45593999997E+02  0.45594000000E+02  0.51100000000E-03 0. -1.
         11   -1    0    0    0    0 -0.00000000000E+00 -0.00000000000E+00 -0.45593999997E+02  0.45594000000E+02  0.51100000000E-03 0.  1.
    9900012    2    1    2    0    0 -0.14162924869E+02 -0.11316591759E+02  0.46931437109E+01  0.72461567137E+02  0.69999995887E+02 0.  0.
        -12    1    1    2    0    0  0.14162924869E+02  0.11316591759E+02 -0.46931437109E+01  0.18726432863E+02  0.00000000000E+00 0.  1.
         11    1    3    3    0    0 -0.23659847024E+02  0.13985370680E+01  0.55746952918E+01  0.24347925886E+02  0.51100000000E-03 0. -1.
        -11    1    3    3    0    0  0.25886364046E+02  0.21250202390E+01 -0.12064093385E+01  0.26001441850E+02  0.51100000000E-03 0.  1.
        -12    1    3    3    0    0 -0.16389441891E+02 -0.14840149066E+02  0.32485775757E+00  0.22112199401E+02  0.00000000000E+00 0.  1.
</event>
<event>
 7    1  0.1905073E-013  0.7246174E+02  0.7816164E-02  0.1226708E+00
        -11   -1    0    0    0    0  0.00000000000E+00  0.00000000000E+00  0.45593999997E+02  0.45594000000E+02  0.51100000000E-03 0. -1.
         11   -1    0    0    0    0 -0.00000000000E+00 -0.00000000000E+00 -0.45593999997E+02  0.45594000000E+02  0.51100000000E-03 0.  1.
    9900012    2    1    2    0    0  0.90745908614E+01  0.63485811289E+01  0.15100334285E+02  0.72461740972E+02  0.70000222340E+02 0.  0.
        -12    1    1    2    0    0 -0.90745908614E+01 -0.63485811289E+01 -0.15100334285E+02  0.18726259028E+02  0.00000000000E+00 0.  1.
         11    1    3    3    0    0 -0.15436962532E+02 -0.97927217314E+01  0.20404740046E+02  0.27396179072E+02  0.51100000000E-03 0.  1.
        -11    1    3    3    0    0  0.30392656103E+02  0.17657326388E+02 -0.10906748033E+02  0.36802878598E+02  0.51100000000E-03 0. -1.
         12    1    3    3    0    0 -0.58811027099E+01 -0.15160235281E+01  0.56023422718E+01  0.82626833022E+01  0.00000000000E+00 0. -1.
</event>
<event>
 7    1  0.1905073E-013  0.7246169E+02  0.7816164E-02  0.1226708E+00
        -11   -1    0    0    0    0  0.00000000000E+00  0.00000000000E+00  0.45593999997E+02  0.45594000000E+02  0.51100000000E-03 0. -1.
         11   -1    0    0    0    0 -0.00000000000E+00 -0.00000000000E+00 -0.45593999997E+02  0.45594000000E+02  0.51100000000E-03 0.  1.
    9900012    2    1    2    0    0  0.69578581294E+01  0.12987216299E+01  0.17337137587E+02  0.72461686766E+02  0.70000151726E+02 0.  0.
        -12    1    1    2    0    0 -0.69578581294E+01 -0.12987216299E+01 -0.17337137587E+02  0.18726313234E+02  0.00000000000E+00 0.  1.
         11    1    3    3    0    0  0.27802937870E+01  0.59797279240E+01  0.20214815449E+02  0.21263253361E+02  0.51100000000E-03 0. -1.
        -11    1    3    3    0    0  0.61504981990E+01 -0.26642928315E+02 -0.81386716293E+01  0.28529147086E+02  0.51100000000E-03 0.  1.
        -12    1    3    3    0    0 -0.19729338567E+01  0.21961922021E+02  0.52609937673E+01  0.22669286320E+02  0.00000000000E+00 0.  1.
</event>
<event>
 7    1  0.1905073E-013  0.7246107E+02  0.7816164E-02  0.1226709E+00
        -11   -1    0    0    0    0  0.00000000000E+00  0.00000000000E+00  0.45593999997E+02  0.45594000000E+02  0.51100000000E-03 0. -1.
         11   -1    0    0    0    0 -0.00000000000E+00 -0.00000000000E+00 -0.45593999997E+02  0.45594000000E+02  0.51100000000E-03 0.  1.
    9900012    2    1    2    0    0  0.12727185289E+02  0.12187828782E+01  0.13683243250E+02  0.72461072251E+02  0.69999351203E+02 0.  0.
        -12    1    1    2    0    0 -0.12727185289E+02 -0.12187828782E+01 -0.13683243250E+02  0.18726927749E+02  0.00000000000E+00 0.  1.
         11    1    3    3    0    0  0.15575967413E+02  0.88867855977E+01  0.31032214414E+02  0.35841094442E+02  0.51100000000E-03 0. -1.
        -11    1    3    3    0    0  0.35760081174E+01 -0.18243257581E+02 -0.52584029915E+01  0.19319810649E+02  0.51100000000E-03 0.  1.
        -12    1    3    3    0    0 -0.64247902413E+01  0.10575254862E+02 -0.12090568173E+02  0.17300167160E+02  0.00000000000E+00 0.  1.
</event>
<event>
 7    1  0.1905073E-013  0.7246155E+02  0.7816164E-02  0.1226708E+00
        -11   -1    0    0    0    0  0.00000000000E+00  0.00000000000E+00  0.45593999997E+02  0.45594000000E+02  0.51100000000E-03 0. -1.
         11   -1    0    0    0    0 -0.00000000000E+00 -0.00000000000E+00 -0.45593999997E+02  0.45594000000E+02  0.51100000000E-03 0.  1.
    9900012    2    1    2    0    0  0.57021364907E+01  0.15767567203E+02  0.83396208944E+01  0.72461553121E+02  0.69999977629E+02 0.  0.
        -12    1    1    2    0    0 -0.57021364907E+01 -0.15767567203E+02 -0.83396208944E+01  0.18726446879E+02  0.00000000000E+00 0.  1.
         11    1    3    3    0    0 -0.24141816975E+01  0.11915127953E+02  0.35803935139E+02  0.37811642640E+02  0.51100000000E-03 0. -1.
        -11    1    3    3    0    0  0.30245391918E+01 -0.74952900834E+01 -0.69505341427E+01  0.10660072039E+02  0.51100000000E-03 0.  1.
         12    1    3    3    0    0  0.50917789963E+01  0.11347729333E+02 -0.20513780102E+02  0.23989838442E+02  0.00000000000E+00 0. -1.
</event>
<event>
 7    1  0.1905073E-013  0.7246158E+02  0.7816164E-02  0.1226708E+00
        -11   -1    0    0    0    0  0.00000000000E+00  0.00000000000E+00  0.45593999997E+02  0.45594000000E+02  0.51100000000E-03 0.  1.
         11   -1    0    0    0    0 -0.00000000000E+00 -0.00000000000E+00 -0.45593999997E+02  0.45594000000E+02  0.51100000000E-03 0. -1.
    9900012    2    1    2    0    0  0.17113135098E+02  0.24486638995E+01  0.71988533794E+01  0.72461579153E+02  0.70000011540E+02 0.  0.
        -12    1    1    2    0    0 -0.17113135098E+02 -0.24486638995E+01 -0.71988533794E+01  0.18726420847E+02  0.00000000000E+00 0.  1.
         11    1    3    3    0    0  0.83768951660E+01 -0.28344411898E+02 -0.88136344705E+01  0.30842474143E+02  0.51100000000E-03 0. -1.
        -11    1    3    3    0    0  0.13820551346E+02  0.30132666541E+02  0.12622556903E+02  0.35472724386E+02  0.51100000000E-03 0.  1.
         12    1    3    3    0    0 -0.50843114140E+01  0.66040925659E+00  0.33899309474E+01  0.61463806235E+01  0.00000000000E+00 0. -1.
</event>
<event>
 7    1  0.1905073E-013  0.7246152E+02  0.7816164E-02  0.1226708E+00
        -11   -1    0    0    0    0  0.00000000000E+00  0.00000000000E+00  0.45593999997E+02  0.45594000000E+02  0.51100000000E-03 0.  1.
         11   -1    0    0    0    0 -0.00000000000E+00 -0.00000000000E+00 -0.45593999997E+02  0.45594000000E+02  0.51100000000E-03 0. -1.
    9900012    2    1    2    0    0  0.75362597816E+01 -0.11030268549E+02 -0.13123223312E+02  0.72461520730E+02  0.69999935433E+02 0.  0.
        -12    1    1    2    0    0 -0.75362597816E+01  0.11030268549E+02  0.13123223312E+02  0.18726479270E+02  0.00000000000E+00 0.  1.
         11    1    3    3    0    0 -0.18186827867E+02  0.60906626568E+01 -0.21039835459E+02  0.28469835895E+02  0.51100000000E-03 0. -1.
        -11    1    3    3    0    0  0.25426561227E+02 -0.23590478349E+02  0.11560708409E+02  0.36560506886E+02  0.51100000000E-03 0.  1.
        -12    1    3    3    0    0  0.29652642207E+00  0.64695471431E+01 -0.36440962610E+01  0.74311779494E+01  0.00000000000E+00 0.  1.
</event>
<event>
 7    1  0.1905073E-013  0.7246162E+02  0.7816164E-02  0.1226708E+00
        -11   -1    0    0    0    0  0.00000000000E+00  0.00000000000E+00  0.45593999997E+02  0.45594000000E+02  0.51100000000E-03 0. -1.
         11   -1    0    0    0    0 -0.00000000000E+00 -0.00000000000E+00 -0.45593999997E+02  0.45594000000E+02  0.51100000000E-03 0.  1.
    9900012    2    1    2    0    0  0.13845906501E+02 -0.12600214413E+02 -0.45042634399E+00  0.72461617168E+02  0.70000061061E+02 0.  0.
        -12    1    1    2    0    0 -0.13845906501E+02  0.12600214413E+02  0.45042634399E+00  0.18726382832E+02  0.00000000000E+00 0.  1.
         11    1    3    3    0    0 -0.18179519028E+02 -0.16457527348E+02  0.43512766548E+01  0.24905395546E+02  0.51100000000E-03 0. -1.
        -11    1    3    3    0    0  0.12370531856E+02  0.11430166234E+02 -0.16402123829E+02  0.23509751697E+02  0.51100000000E-03 0.  1.
        -12    1    3    3    0    0  0.19654893673E+02 -0.75728532978E+01  0.11600420830E+02  0.24046469924E+02  0.00000000000E+00 0.  1.
</event>
<event>
 7    1  0.1905073E-013  0.7246153E+02  0.7816164E-02  0.1226708E+00
        -11   -1    0    0    0    0  0.00000000000E+00  0.00000000000E+00  0.45593999997E+02  0.45594000000E+02  0.51100000000E-03 0. -1.
         11   -1    0    0    0    0 -0.00000000000E+00 -0.00000000000E+00 -0.45593999997E+02  0.45594000000E+02  0.51100000000E-03 0.  1.
    9900012    2    1    2    0    0 -0.59980335866E+01 -0.70202127855E+01  0.16291738561E+02  0.72461533707E+02  0.69999952338E+02 0.  0.
        -12    1    1    2    0    0  0.59980335866E+01  0.70202127855E+01 -0.16291738561E+02  0.18726466293E+02  0.00000000000E+00 0.  1.
         11    1    3    3    0    0 -0.11515697982E+02 -0.21209509076E+02  0.26602564565E+01  0.24280270591E+02  0.51100000000E-03 0. -1.
        -11    1    3    3    0    0  0.24566112383E+02  0.75508295477E+01  0.10522273921E+02  0.27770976814E+02  0.51100000000E-03 0.  1.
        -12    1    3    3    0    0 -0.19048447987E+02  0.66384667431E+01  0.31092081837E+01  0.20410286302E+02  0.00000000000E+00 0.  1.
</event>
<event>
 7    1  0.1905073E-013  0.7246150E+02  0.7816164E-02  0.1226708E+00
        -11   -1    0    0    0    0  0.00000000000E+00  0.00000000000E+00  0.45593999997E+02  0.45594000000E+02  0.51100000000E-03 0. -1.
         11   -1    0    0    0    0 -0.00000000000E+00 -0.00000000000E+00 -0.45593999997E+02  0.45594000000E+02  0.51100000000E-03 0.  1.
    9900012    2    1    2    0    0 -0.12998799142E+02  0.42849612512E+01  0.12780926407E+02  0.72461501345E+02  0.69999910181E+02 0.  0.
        -12    1    1    2    0    0  0.12998799142E+02 -0.42849612512E+01 -0.12780926407E+02  0.18726498655E+02  0.00000000000E+00 0.  1.
         11    1    3    3    0    0  0.16429158459E+02 -0.33311453424E+01  0.26279647017E+02  0.31171038233E+02  0.51100000000E-03 0. -1.
        -11    1    3    3    0    0 -0.12372229901E+01 -0.43933335907E+01 -0.93030232148E+01  0.10362352144E+02  0.51100000000E-03 0.  1.
         12    1    3    3    0    0 -0.28190734610E+02  0.12009440184E+02 -0.41956973948E+01  0.30928110968E+02  0.00000000000E+00 0. -1.
</event>
<event>
 7    1  0.1905073E-013  0.7246148E+02  0.7816164E-02  0.1226708E+00
        -11   -1    0    0    0    0  0.00000000000E+00  0.00000000000E+00  0.45593999997E+02  0.45594000000E+02  0.51100000000E-03 0.  1.
         11   -1    0    0    0    0 -0.00000000000E+00 -0.00000000000E+00 -0.45593999997E+02  0.45594000000E+02  0.51100000000E-03 0. -1.
    9900012    2    1    2    0    0 -0.10026144758E+02 -0.67103300180E+01  0.14322379563E+02  0.72461476991E+02  0.69999878455E+02 0.  0.
        -12    1    1    2    0    0  0.10026144758E+02  0.67103300180E+01 -0.14322379563E+02  0.18726523009E+02  0.00000000000E+00 0.  1.
         11    1    3    3    0    0  0.23487809938E+02 -0.52183265098E+01 -0.10759168483E+02  0.26356552391E+02  0.51100000000E-03 0. -1.
        -11    1    3    3    0    0 -0.12873234898E+02 -0.33534080205E+01  0.21187908578E+02  0.25017853470E+02  0.51100000000E-03 0.  1.
         12    1    3    3    0    0 -0.20640719798E+02  0.18614045123E+01  0.38936394685E+01  0.21087071130E+02  0.00000000000E+00 0. -1.
</event>
<event>
 7    1  0.1905073E-013  0.7246154E+02  0.7816164E-02  0.1226708E+00
        -11   -1    0    0    0    0  0.00000000000E+00  0.00000000000E+00  0.45593999997E+02  0.45594000000E+02  0.51100000000E-03 0.  1.
         11   -1    0    0    0    0 -0.00000000000E+00 -0.00000000000E+00 -0.45593999997E+02  0.45594000000E+02  0.51100000000E-03 0. -1.
    9900012    2    1    2    0    0  0.93837192810E+00 -0.46717908675E+01 -0.18110059038E+02  0.72461537169E+02  0.69999956849E+02 0.  0.
        -12    1    1    2    0    0 -0.93837192810E+00  0.46717908675E+01  0.18110059038E+02  0.18726462831E+02  0.00000000000E+00 0.  1.
         11    1    3    3    0    0 -0.22859116028E+01  0.16139825889E+02 -0.27336614364E+02  0.31827815771E+02  0.51100000000E-03 0. -1.
        -11    1    3    3    0    0  0.14105549592E+02 -0.24341150490E+02  0.65208302644E+01  0.28878700872E+02  0.51100000000E-03 0.  1.
         12    1    3    3    0    0 -0.10881266061E+02  0.35295337335E+01  0.27057250616E+01  0.11755020526E+02  0.00000000000E+00 0. -1.
</event>
<event>
 7    1  0.1905073E-013  0.7246157E+02  0.7816164E-02  0.1226708E+00
        -11   -1    0    0    0    0  0.00000000000E+00  0.00000000000E+00  0.45593999997E+02  0.45594000000E+02  0.51100000000E-03 0.  1.
         11   -1    0    0    0    0 -0.00000000000E+00 -0.00000000000E+00 -0.45593999997E+02  0.45594000000E+02  0.51100000000E-03 0. -1.
    9900012    2    1    2    0    0 -0.73019514579E+00  0.55157734971E+01 -0.17880779798E+02  0.72461568722E+02  0.69999997952E+02 0.  0.
        -12    1    1    2    0    0  0.73019514579E+00 -0.55157734971E+01  0.17880779798E+02  0.18726431278E+02  0.00000000000E+00 0.  1.
         11    1    3    3    0    0  0.16984748241E+02  0.17284844821E+02 -0.55546823863E+01  0.24861657828E+02  0.51100000000E-03 0. -1.
        -11    1    3    3    0    0 -0.48652753455E+01 -0.18618528094E+02  0.94225873393E+01  0.21426750687E+02  0.51100000000E-03 0.  1.
        -12    1    3    3    0    0 -0.12849668041E+02  0.68494567704E+01 -0.21748684751E+02  0.26173160207E+02  0.00000000000E+00 0.  1.
</event>
<event>
 7    1  0.1905073E-013  0.7246153E+02  0.7816164E-02  0.1226708E+00
        -11   -1    0    0    0    0  0.00000000000E+00  0.00000000000E+00  0.45593999997E+02  0.45594000000E+02  0.51100000000E-03 0.  1.
         11   -1    0    0    0    0 -0.00000000000E+00 -0.00000000000E+00 -0.45593999997E+02  0.45594000000E+02  0.51100000000E-03 0. -1.
    9900012    2    1    2    0    0  0.50339498698E+01 -0.82139414812E+01 -0.16058370173E+02  0.72461528401E+02  0.69999945426E+02 0.  0.
        -12    1    1    2    0    0 -0.50339498698E+01  0.82139414812E+01  0.16058370173E+02  0.18726471599E+02  0.00000000000E+00 0.  1.
         11    1    3    3    0    0 -0.27498615782E+02  0.85907597690E+01 -0.86515495524E+00  0.28822274662E+02  0.51100000000E-03 0. -1.
        -11    1    3    3    0    0  0.17370080533E+02 -0.16172310207E+02 -0.25177658695E+01  0.23866345770E+02  0.51100000000E-03 0.  1.
        -12    1    3    3    0    0  0.15162485118E+02 -0.63239104315E+00 -0.12675449348E+02  0.19772907969E+02  0.00000000000E+00 0.  1.
</event>
<event>
 7    1  0.1905073E-013  0.7246158E+02  0.7816164E-02  0.1226708E+00
        -11   -1    0    0    0    0  0.00000000000E+00  0.00000000000E+00  0.45593999997E+02  0.45594000000E+02  0.51100000000E-03 0.  1.
         11   -1    0    0    0    0 -0.00000000000E+00 -0.00000000000E+00 -0.45593999997E+02  0.45594000000E+02  0.51100000000E-03 0. -1.
    9900012    2    1    2    0    0  0.43202574589E+01 -0.14562100646E+02 -0.10952604647E+02  0.72461576202E+02  0.70000007695E+02 0.  0.
        -12    1    1    2    0    0 -0.43202574589E+01  0.14562100646E+02  0.10952604647E+02  0.18726423798E+02  0.00000000000E+00 0.  1.
         11    1    3    3    0    0  0.15915166043E+02  0.49546448306E+01  0.26186443095E+00  0.16670620529E+02  0.51100000000E-03 0. -1.
        -11    1    3    3    0    0 -0.27178309808E+02 -0.22260509860E+02  0.19823122231E+01  0.35186934866E+02  0.51100000000E-03 0.  1.
        -12    1    3    3    0    0  0.15583401224E+02  0.27437643833E+01 -0.13196781301E+02  0.20604020807E+02  0.00000000000E+00 0.  1.
</event>
<event>
 7    1  0.1905073E-013  0.7246157E+02  0.7816164E-02  0.1226708E+00
        -11   -1    0    0    0    0  0.00000000000E+00  0.00000000000E+00  0.45593999997E+02  0.45594000000E+02  0.51100000000E-03 0.  1.
         11   -1    0    0    0    0 -0.00000000000E+00 -0.00000000000E+00 -0.45593999997E+02  0.45594000000E+02  0.51100000000E-03 0. -1.
    9900012    2    1    2    0    0 -0.15697376682E+02  0.16685416970E+01  0.10074097803E+02  0.72461571813E+02  0.70000001978E+02 0.  0.
        -12    1    1    2    0    0  0.15697376682E+02 -0.16685416970E+01 -0.10074097803E+02  0.18726428187E+02  0.00000000000E+00 0.  1.
         11    1    3    3    0    0  0.16034223403E+02  0.17036777505E-01  0.10134139234E+02  0.18968325932E+02  0.51100000000E-03 0. -1.
        -11    1    3    3    0    0 -0.33369112724E+02  0.68794235352E+01  0.15179182082E+02  0.37299218773E+02  0.51100000000E-03 0.  1.
        -12    1    3    3    0    0  0.16375126389E+01 -0.52279186157E+01 -0.15239223513E+02  0.16194027108E+02  0.00000000000E+00 0.  1.
</event>
<event>
 7    1  0.1905073E-013  0.7246156E+02  0.7816164E-02  0.1226708E+00
        -11   -1    0    0    0    0  0.00000000000E+00  0.00000000000E+00  0.45593999997E+02  0.45594000000E+02  0.51100000000E-03 0.  1.
         11   -1    0    0    0    0 -0.00000000000E+00 -0.00000000000E+00 -0.45593999997E+02  0.45594000000E+02  0.51100000000E-03 0. -1.
    9900012    2    1    2    0    0 -0.17739463044E+02 -0.49391806696E+01 -0.34052125651E+01  0.72461560739E+02  0.69999987553E+02 0.  0.
        -12    1    1    2    0    0  0.17739463044E+02  0.49391806696E+01  0.34052125651E+01  0.18726439261E+02  0.00000000000E+00 0.  1.
         11    1    3    3    0    0  0.92788626095E+01  0.34645522563E+01  0.18252701667E+02  0.20766837315E+02  0.51100000000E-03 0.  1.
        -11    1    3    3    0    0 -0.30385135194E+02  0.60110285558E+01 -0.91007802636E+01  0.32283325521E+02  0.51100000000E-03 0. -1.
        -12    1    3    3    0    0  0.33668095406E+01 -0.14414761482E+02 -0.12557133968E+02  0.19411397903E+02  0.00000000000E+00 0.  1.
</event>
<event>
 7    1  0.1905073E-013  0.7246154E+02  0.7816164E-02  0.1226708E+00
        -11   -1    0    0    0    0  0.00000000000E+00  0.00000000000E+00  0.45593999997E+02  0.45594000000E+02  0.51100000000E-03 0. -1.
         11   -1    0    0    0    0 -0.00000000000E+00 -0.00000000000E+00 -0.45593999997E+02  0.45594000000E+02  0.51100000000E-03 0.  1.
    9900012    2    1    2    0    0  0.11774090264E+02 -0.13117001224E+01  0.14502782823E+02  0.72461535614E+02  0.69999954823E+02 0.  0.
        -12    1    1    2    0    0 -0.11774090264E+02  0.13117001224E+01 -0.14502782823E+02  0.18726464386E+02  0.00000000000E+00 0.  1.
         11    1    3    3    0    0  0.35635604384E+02  0.16155177316E+02  0.92030151522E+01  0.40194297382E+02  0.51100000000E-03 0. -1.
        -11    1    3    3    0    0 -0.13931361051E+02 -0.78230336483E+01 -0.28120412459E+01  0.16223139414E+02  0.51100000000E-03 0.  1.
        -12    1    3    3    0    0 -0.99301530678E+01 -0.96438437902E+01  0.81118089168E+01  0.16044098819E+02  0.00000000000E+00 0.  1.
</event>
<event>
 7    1  0.1905073E-013  0.7246157E+02  0.7816164E-02  0.1226708E+00
        -11   -1    0    0    0    0  0.00000000000E+00  0.00000000000E+00  0.45593999997E+02  0.45594000000E+02  0.51100000000E-03 0.  1.
         11   -1    0    0    0    0 -0.00000000000E+00 -0.00000000000E+00 -0.45593999997E+02  0.45594000000E+02  0.51100000000E-03 0. -1.
    9900012    2    1    2    0    0 -0.14683991179E+02 -0.10092326919E+02  0.57623301401E+01  0.72461571931E+02  0.70000002132E+02 0.  0.
        -12    1    1    2    0    0  0.14683991179E+02  0.10092326919E+02 -0.57623301401E+01  0.18726428069E+02  0.00000000000E+00 0.  1.
         11    1    3    3    0    0 -0.14159333586E+02 -0.18766704147E+02 -0.21311464778E+02  0.31730969784E+02  0.51100000000E-03 0. -1.
        -11    1    3    3    0    0 -0.14416059623E+02  0.76261348667E+01  0.12321094557E+02  0.20439913880E+02  0.51100000000E-03 0.  1.
         12    1    3    3    0    0  0.13891402030E+02  0.10482423621E+01  0.14752700361E+02  0.20290688267E+02  0.00000000000E+00 0. -1.
</event>
<event>
 7    1  0.1905073E-013  0.7246157E+02  0.7816164E-02  0.1226708E+00
        -11   -1    0    0    0    0  0.00000000000E+00  0.00000000000E+00  0.45593999997E+02  0.45594000000E+02  0.51100000000E-03 0.  1.
         11   -1    0    0    0    0 -0.00000000000E+00 -0.00000000000E+00 -0.45593999997E+02  0.45594000000E+02  0.51100000000E-03 0. -1.
    9900012    2    1    2    0    0 -0.36489141022E+01  0.64515766745E+01 -0.17197141809E+02  0.72461572094E+02  0.70000002345E+02 0.  0.
        -12    1    1    2    0    0  0.36489141022E+01 -0.64515766745E+01  0.17197141809E+02  0.18726427906E+02  0.00000000000E+00 0.  1.
         11    1    3    3    0    0 -0.26608780503E+02 -0.72055245904E+01 -0.12629482700E+02  0.30322444130E+02  0.51100000000E-03 0. -1.
        -11    1    3    3    0    0  0.21525200391E+02  0.13553005570E+02  0.10123980520E+02  0.27377238606E+02  0.51100000000E-03 0.  1.
        -12    1    3    3    0    0  0.14346660096E+01  0.10409569475E+00 -0.14691639628E+02  0.14761889359E+02  0.00000000000E+00 0.  1.
</event>
<event>
 7    1  0.1905073E-013  0.7246156E+02  0.7816164E-02  0.1226708E+00
        -11   -1    0    0    0    0  0.00000000000E+00  0.00000000000E+00  0.45593999997E+02  0.45594000000E+02  0.51100000000E-03 0.  1.
         11   -1    0    0    0    0 -0.00000000000E+00 -0.00000000000E+00 -0.45593999997E+02  0.45594000000E+02  0.51100000000E-03 0. -1.
    9900012    2    1    2    0    0 -0.79600652106E+01  0.16203759560E+02 -0.49754386265E+01  0.72461562764E+02  0.69999990190E+02 0.  0.
        -12    1    1    2    0    0  0.79600652106E+01 -0.16203759560E+02  0.49754386265E+01  0.18726437236E+02  0.00000000000E+00 0.  1.
         11    1    3    3    0    0 -0.36170333383E+02  0.15795981671E+02 -0.38942376302E+01  0.39660700208E+02  0.51100000000E-03 0.  1.
        -11    1    3    3    0    0  0.29773987737E+02  0.10194744388E+01 -0.33490252742E+01  0.29979086785E+02  0.51100000000E-03 0. -1.
         12    1    3    3    0    0 -0.15637195653E+01 -0.61169655016E+00  0.22678242780E+01  0.28217757714E+01  0.00000000000E+00 0. -1.
</event>
<event>
 7    1  0.1905073E-013  0.7246138E+02  0.7816164E-02  0.1226709E+00
        -11   -1    0    0    0    0  0.00000000000E+00  0.00000000000E+00  0.45593999997E+02  0.45594000000E+02  0.51100000000E-03 0. -1.
         11   -1    0    0    0    0 -0.00000000000E+00 -0.00000000000E+00 -0.45593999997E+02  0.45594000000E+02  0.51100000000E-03 0.  1.
    9900012    2    1    2    0    0  0.30186399842E+01 -0.16942261203E+02  0.73847078612E+01  0.72461379584E+02  0.69999751563E+02 0.  0.
        -12    1    1    2    0    0 -0.30186399842E+01  0.16942261203E+02 -0.73847078612E+01  0.18726620416E+02  0.00000000000E+00 0.  1.
         11    1    3    3    0    0 -0.71872781778E+01 -0.27709011766E+02 -0.17113289765E+02  0.33351326623E+02  0.51100000000E-03 0. -1.
        -11    1    3    3    0    0 -0.39355801930E+01  0.14307948712E+02  0.17483736135E+02  0.22932230971E+02  0.51100000000E-03 0.  1.
         12    1    3    3    0    0  0.14141498355E+02 -0.35411981486E+01  0.70142614918E+01  0.16177821990E+02  0.00000000000E+00 0. -1.
</event>
<event>
 7    1  0.1905073E-013  0.7246156E+02  0.7816164E-02  0.1226708E+00
        -11   -1    0    0    0    0  0.00000000000E+00  0.00000000000E+00  0.45593999997E+02  0.45594000000E+02  0.51100000000E-03 0.  1.
         11   -1    0    0    0    0 -0.00000000000E+00 -0.00000000000E+00 -0.45593999997E+02  0.45594000000E+02  0.51100000000E-03 0. -1.
    9900012    2    1    2    0    0 -0.47227063899E+01 -0.41748890722E+01 -0.17633663484E+02  0.72461555001E+02  0.69999980078E+02 0.  0.
        -12    1    1    2    0    0  0.47227063899E+01  0.41748890722E+01  0.17633663484E+02  0.18726444999E+02  0.00000000000E+00 0.  1.
         11    1    3    3    0    0  0.38080280154E+01 -0.16897393601E+02 -0.30051535163E+02  0.34685987860E+02  0.51100000000E-03 0. -1.
        -11    1    3    3    0    0 -0.47178993011E+01 -0.55584889589E+01  0.17042986757E+02  0.18536956902E+02  0.51100000000E-03 0.  1.
        -12    1    3    3    0    0 -0.38128351042E+01  0.18280993488E+02 -0.46251150787E+01  0.19238610239E+02  0.00000000000E+00 0.  1.
</event>
<event>
 7    1  0.1905073E-013  0.7246161E+02  0.7816164E-02  0.1226708E+00
        -11   -1    0    0    0    0  0.00000000000E+00  0.00000000000E+00  0.45593999997E+02  0.45594000000E+02  0.51100000000E-03 0. -1.
         11   -1    0    0    0    0 -0.00000000000E+00 -0.00000000000E+00 -0.45593999997E+02  0.45594000000E+02  0.51100000000E-03 0.  1.
    9900012    2    1    2    0    0 -0.15843732882E+02 -0.98331581710E+01  0.17213279361E+01  0.72461605763E+02  0.70000046205E+02 0.  0.
        -12    1    1    2    0    0  0.15843732882E+02  0.98331581710E+01 -0.17213279361E+01  0.18726394237E+02  0.00000000000E+00 0.  1.
         11    1    3    3    0    0 -0.30987916973E+02  0.54888147431E+01  0.18136944913E+02  0.36322539238E+02  0.51100000000E-03 0.  1.
        -11    1    3    3    0    0  0.10457171528E+02  0.43254502403E+01 -0.95431939683E+01  0.14803192477E+02  0.51100000000E-03 0. -1.
        -12    1    3    3    0    0  0.46870125636E+01 -0.19647423154E+02 -0.68724230089E+01  0.21335874048E+02  0.00000000000E+00 0.  1.
</event>
<event>
 7    1  0.1905073E-013  0.7246158E+02  0.7816164E-02  0.1226708E+00
        -11   -1    0    0    0    0  0.00000000000E+00  0.00000000000E+00  0.45593999997E+02  0.45594000000E+02  0.51100000000E-03 0. -1.
         11   -1    0    0    0    0 -0.00000000000E+00 -0.00000000000E+00 -0.45593999997E+02  0.45594000000E+02  0.51100000000E-03 0.  1.
    9900012    2    1    2    0    0 -0.34936595209E+01  0.10597484498E+02  0.15038826164E+02  0.72461584782E+02  0.70000018872E+02 0.  0.
        -12    1    1    2    0    0  0.34936595209E+01 -0.10597484498E+02 -0.15038826164E+02  0.18726415218E+02  0.00000000000E+00 0.  1.
         11    1    3    3    0    0 -0.20909403216E+02 -0.12114069552E+02  0.18908488164E+02  0.30683623464E+02  0.51100000000E-03 0. -1.
        -11    1    3    3    0    0  0.16465237960E+01  0.15263667994E+02 -0.14695024899E+02  0.21251690715E+02  0.51100000000E-03 0.  1.
         12    1    3    3    0    0  0.15769219900E+02  0.74478860560E+01  0.10825362899E+02  0.20526270602E+02  0.00000000000E+00 0. -1.
</event>
<event>
 7    1  0.1905073E-013  0.7246134E+02  0.7816164E-02  0.1226709E+00
        -11   -1    0    0    0    0  0.00000000000E+00  0.00000000000E+00  0.45593999997E+02  0.45594000000E+02  0.51100000000E-03 0. -1.
         11   -1    0    0    0    0 -0.00000000000E+00 -0.00000000000E+00 -0.45593999997E+02  0.45594000000E+02  0.51100000000E-03 0.  1.
    9900012    2    1    2    0    0 -0.81596759537E+01  0.76832422698E+01  0.15002502796E+02  0.72461344838E+02  0.69999706300E+02 0.  0.
        -12    1    1    2    0    0  0.81596759537E+01 -0.76832422698E+01 -0.15002502796E+02  0.18726655162E+02  0.00000000000E+00 0.  1.
         11    1    3    3    0    0 -0.72021261513E+01  0.13508219644E+02  0.15174294649E+02  0.21554624501E+02  0.51100000000E-03 0. -1.
        -11    1    3    3    0    0 -0.22446056957E+02 -0.67565884652E+01 -0.12028000476E+02  0.26346721927E+02  0.51100000000E-03 0.  1.
        -12    1    3    3    0    0  0.21488507154E+02  0.93161109140E+00  0.11856208623E+02  0.24559998409E+02  0.00000000000E+00 0.  1.
</event>
<event>
 7    1  0.1905073E-013  0.7246154E+02  0.7816164E-02  0.1226708E+00
        -11   -1    0    0    0    0  0.00000000000E+00  0.00000000000E+00  0.45593999997E+02  0.45594000000E+02  0.51100000000E-03 0.  1.
         11   -1    0    0    0    0 -0.00000000000E+00 -0.00000000000E+00 -0.45593999997E+02  0.45594000000E+02  0.51100000000E-03 0. -1.
    9900012    2    1    2    0    0 -0.10515710000E+02 -0.13509079982E+02  0.75897931759E+01  0.72461538529E+02  0.69999958620E+02 0.  0.
        -12    1    1    2    0    0  0.10515710000E+02  0.13509079982E+02 -0.75897931759E+01  0.18726461471E+02  0.00000000000E+00 0.  1.
         11    1    3    3    0    0  0.21977903984E+02  0.33669710592E+01  0.38036931231E+01  0.22557323407E+02  0.51100000000E-03 0. -1.
        -11    1    3    3    0    0 -0.29068978884E+02 -0.24639884973E+02  0.99877283564E+01  0.39393961248E+02  0.51100000000E-03 0.  1.
        -12    1    3    3    0    0 -0.34246351004E+01  0.77638339319E+01 -0.62016283037E+01  0.10510253875E+02  0.00000000000E+00 0.  1.
</event>
<event>
 7    1  0.1905073E-013  0.7246161E+02  0.7816164E-02  0.1226708E+00
        -11   -1    0    0    0    0  0.00000000000E+00  0.00000000000E+00  0.45593999997E+02  0.45594000000E+02  0.51100000000E-03 0. -1.
         11   -1    0    0    0    0 -0.00000000000E+00 -0.00000000000E+00 -0.45593999997E+02  0.45594000000E+02  0.51100000000E-03 0.  1.
    9900012    2    1    2    0    0  0.15863991554E+01  0.11387492059E+02  0.14781270325E+02  0.72461612465E+02  0.70000054936E+02 0.  0.
        -12    1    1    2    0    0 -0.15863991554E+01 -0.11387492059E+02 -0.14781270325E+02  0.18726387535E+02  0.00000000000E+00 0.  1.
         11    1    3    3    0    0 -0.14836761240E+02  0.16731482984E+02  0.43820242693E+01  0.22787587496E+02  0.51100000000E-03 0. -1.
        -11    1    3    3    0    0  0.12658489633E+02 -0.19464581267E+02  0.21247951503E+02  0.31473524223E+02  0.51100000000E-03 0.  1.
        -12    1    3    3    0    0  0.37646707621E+01  0.14120590341E+02 -0.10848705447E+02  0.18200500746E+02  0.00000000000E+00 0.  1.
</event>
<event>
 7    1  0.1905073E-013  0.7246158E+02  0.7816164E-02  0.1226708E+00
        -11   -1    0    0    0    0  0.00000000000E+00  0.00000000000E+00  0.45593999997E+02  0.45594000000E+02  0.51100000000E-03 0.  1.
         11   -1    0    0    0    0 -0.00000000000E+00 -0.00000000000E+00 -0.45593999997E+02  0.45594000000E+02  0.51100000000E-03 0. -1.
    9900012    2    1    2    0    0  0.35201497897E+01  0.17860419809E+02 -0.43923581924E+01  0.72461578538E+02  0.70000010739E+02 0.  0.
        -12    1    1    2    0    0 -0.35201497897E+01 -0.17860419809E+02  0.43923581924E+01  0.18726421462E+02  0.00000000000E+00 0.  1.
         11    1    3    3    0    0  0.23846792013E+01 -0.16820294692E+02  0.15408400154E+02  0.22935296030E+02  0.51100000000E-03 0. -1.
        -11    1    3    3    0    0  0.52089206564E-01  0.34522842755E+01 -0.17890619458E+02  0.18220736671E+02  0.51100000000E-03 0.  1.
         12    1    3    3    0    0  0.10833813818E+01  0.31228430225E+02 -0.19101388885E+01  0.31305545836E+02  0.00000000000E+00 0. -1.
</event>
<event>
 7    1  0.1905073E-013  0.7246167E+02  0.7816164E-02  0.1226708E+00
        -11   -1    0    0    0    0  0.00000000000E+00  0.00000000000E+00  0.45593999997E+02  0.45594000000E+02  0.51100000000E-03 0. -1.
         11   -1    0    0    0    0 -0.00000000000E+00 -0.00000000000E+00 -0.45593999997E+02  0.45594000000E+02  0.51100000000E-03 0.  1.
    9900012    2    1    2    0    0  0.77220919583E+01  0.16928295538E+02  0.21160332837E+01  0.72461668515E+02  0.70000127951E+02 0.  0.
        -12    1    1    2    0    0 -0.77220919583E+01 -0.16928295538E+02 -0.21160332837E+01  0.18726331485E+02  0.00000000000E+00 0.  1.
         11    1    3    3    0    0 -0.17323742927E+02 -0.39250050065E+01  0.10505469432E+02  0.20636923742E+02  0.51100000000E-03 0. -1.
        -11    1    3    3    0    0  0.88645610258E+01  0.11138051593E+02 -0.23616101150E+02  0.27574569248E+02  0.51100000000E-03 0.  1.
         12    1    3    3    0    0  0.16181273859E+02  0.97152489517E+01  0.15226665002E+02  0.24250175525E+02  0.00000000000E+00 0. -1.
</event>
<event>
 7    1  0.1905073E-013  0.7246156E+02  0.7816164E-02  0.1226708E+00
        -11   -1    0    0    0    0  0.00000000000E+00  0.00000000000E+00  0.45593999997E+02  0.45594000000E+02  0.51100000000E-03 0. -1.
         11   -1    0    0    0    0 -0.00000000000E+00 -0.00000000000E+00 -0.45593999997E+02  0.45594000000E+02  0.51100000000E-03 0.  1.
    9900012    2    1    2    0    0 -0.14220062342E+02 -0.71544620593E+01  0.98632234937E+01  0.72461556717E+02  0.69999982313E+02 0.  0.
        -12    1    1    2    0    0  0.14220062342E+02  0.71544620593E+01 -0.98632234937E+01  0.18726443283E+02  0.00000000000E+00 0.  1.
         11    1    3    3    0    0  0.18309674837E+02 -0.79486453754E+01  0.54771589353E+01  0.20698416032E+02  0.51100000000E-03 0. -1.
        -11    1    3    3    0    0 -0.22122862428E+02  0.19264763443E+02 -0.25775335717E+01  0.29448188944E+02  0.51100000000E-03 0.  1.
        -12    1    3    3    0    0 -0.10406874751E+02 -0.18470580126E+02  0.69635981301E+01  0.22314951741E+02  0.00000000000E+00 0.  1.
</event>
<event>
 8    1  0.1905073E-013  0.7246160E+02  0.7816164E-02  0.1226708E+00
        -11   -1    0    0    0    0  0.00000000000E+00  0.00000000000E+00  0.45593999997E+02  0.45594000000E+02  0.51100000000E-03 0.  1.
         11   -1    0    0    0    0 -0.00000000000E+00 -0.00000000000E+00 -0.45593999997E+02  0.45594000000E+02  0.51100000000E-03 0. -1.
    9900012    2    1    2    0    0 -0.92450360895E+01 -0.14961619104E+02 -0.64309567401E+01  0.72461603040E+02  0.70000042657E+02 0.  0.
        -24    2    3    3    0    0 -0.21439375966E+02 -0.20037471109E+02 -0.85832473083E+01  0.59078832267E+02  0.50551846627E+02 0.  0.
        -12    1    1    2    0    0  0.92450360895E+01  0.14961619104E+02  0.64309567401E+01  0.18726396960E+02  0.00000000000E+00 0.  1.
         11    1    4    4    0    0 -0.21346184739E+02 -0.54923580044E+01 -0.27483070392E+02  0.35229884441E+02  0.51100000000E-03 0. -1.
        -11    1    3    3    0    0  0.12194339877E+02  0.50758520051E+01  0.21522905682E+01  0.13382770773E+02  0.51100000000E-03 0.  1.
        -12    1    4    4    0    0 -0.93191227643E-01 -0.14545113105E+02  0.18899823083E+02  0.23848947826E+02  0.00000000000E+00 0.  1.
</event>
<event>
 7    1  0.1905073E-013  0.7246147E+02  0.7816164E-02  0.1226708E+00
        -11   -1    0    0    0    0  0.00000000000E+00  0.00000000000E+00  0.45593999997E+02  0.45594000000E+02  0.51100000000E-03 0.  1.
         11   -1    0    0    0    0 -0.00000000000E+00 -0.00000000000E+00 -0.45593999997E+02  0.45594000000E+02  0.51100000000E-03 0. -1.
    9900012    2    1    2    0    0 -0.59859774312E+00  0.11238671343E+02 -0.14967193584E+02  0.72461469713E+02  0.69999868974E+02 0.  0.
        -12    1    1    2    0    0  0.59859774312E+00 -0.11238671343E+02  0.14967193584E+02  0.18726530287E+02  0.00000000000E+00 0.  1.
         11    1    3    3    0    0  0.17097893204E+02  0.23756876714E+02  0.42713777483E+01  0.29579922436E+02  0.51100000000E-03 0. -1.
        -11    1    3    3    0    0 -0.20897387107E+02 -0.94233637595E+01  0.21515898351E+00  0.22924808965E+02  0.51100000000E-03 0.  1.
         12    1    3    3    0    0  0.32008961604E+01 -0.30948416117E+01 -0.19453730316E+02  0.19956738311E+02  0.00000000000E+00 0. -1.
</event>
<event>
 7    1  0.1905073E-013  0.7246158E+02  0.7816164E-02  0.1226708E+00
        -11   -1    0    0    0    0  0.00000000000E+00  0.00000000000E+00  0.45593999997E+02  0.45594000000E+02  0.51100000000E-03 0. -1.
         11   -1    0    0    0    0 -0.00000000000E+00 -0.00000000000E+00 -0.45593999997E+02  0.45594000000E+02  0.51100000000E-03 0.  1.
    9900012    2    1    2    0    0 -0.25336003143E+01  0.18488259821E+02  0.15632930458E+01  0.72461581044E+02  0.70000014004E+02 0.  0.
        -12    1    1    2    0    0  0.25336003143E+01 -0.18488259821E+02 -0.15632930458E+01  0.18726418956E+02  0.00000000000E+00 0.  1.
         11    1    3    3    0    0 -0.19356131057E+02  0.39409731578E+02  0.44922862816E+01  0.44135783542E+02  0.51100000000E-03 0. -1.
        -11    1    3    3    0    0  0.17431649748E+01 -0.56363670810E+01  0.21193492289E+01  0.62688834266E+01  0.51100000000E-03 0.  1.
         12    1    3    3    0    0  0.15079365768E+02 -0.15285104676E+02 -0.50483424647E+01  0.22056914076E+02  0.00000000000E+00 0. -1.
</event>
<event>
 7    1  0.1905073E-013  0.7246159E+02  0.7816164E-02  0.1226708E+00
        -11   -1    0    0    0    0  0.00000000000E+00  0.00000000000E+00  0.45593999997E+02  0.45594000000E+02  0.51100000000E-03 0. -1.
         11   -1    0    0    0    0 -0.00000000000E+00 -0.00000000000E+00 -0.45593999997E+02  0.45594000000E+02  0.51100000000E-03 0.  1.
    9900012    2    1    2    0    0 -0.92383405437E+01  0.48858306819E+01  0.15538986807E+02  0.72461591150E+02  0.70000027168E+02 0.  0.
        -12    1    1    2    0    0  0.92383405437E+01 -0.48858306819E+01 -0.15538986807E+02  0.18726408850E+02  0.00000000000E+00 0.  1.
         11    1    3    3    0    0 -0.22425317183E+02 -0.14677041110E+01 -0.66118680750E+01  0.23425750913E+02  0.51100000000E-03 0.  1.
        -11    1    3    3    0    0  0.85960892591E+01 -0.10617913112E+02  0.27459758629E+02  0.30670363115E+02  0.51100000000E-03 0. -1.
         12    1    3    3    0    0  0.45908873802E+01  0.16971447904E+02 -0.53089037473E+01  0.18365477122E+02  0.00000000000E+00 0. -1.
</event>
<event>
 7    1  0.1905073E-013  0.7246158E+02  0.7816164E-02  0.1226708E+00
        -11   -1    0    0    0    0  0.00000000000E+00  0.00000000000E+00  0.45593999997E+02  0.45594000000E+02  0.51100000000E-03 0.  1.
         11   -1    0    0    0    0 -0.00000000000E+00 -0.00000000000E+00 -0.45593999997E+02  0.45594000000E+02  0.51100000000E-03 0. -1.
    9900012    2    1    2    0    0 -0.12308918246E+02  0.11217882558E+02 -0.85632012513E+01  0.72461580878E+02  0.70000013787E+02 0.  0.
        -12    1    1    2    0    0  0.12308918246E+02 -0.11217882558E+02  0.85632012513E+01  0.18726419122E+02  0.00000000000E+00 0.  1.
         11    1    3    3    0    0 -0.18657055487E+02  0.42679510631E+01 -0.33924786978E+02  0.38951152711E+02  0.51100000000E-03 0.  1.
        -11    1    3    3    0    0  0.11483623362E+02 -0.17882515230E+01  0.15458528892E+02  0.19340050796E+02  0.51100000000E-03 0. -1.
        -12    1    3    3    0    0 -0.51354861212E+01  0.87381830179E+01  0.99030568353E+01  0.14170377371E+02  0.00000000000E+00 0.  1.
</event>
<event>
 7    1  0.1905073E-013  0.7246161E+02  0.7816164E-02  0.1226708E+00
        -11   -1    0    0    0    0  0.00000000000E+00  0.00000000000E+00  0.45593999997E+02  0.45594000000E+02  0.51100000000E-03 0.  1.
         11   -1    0    0    0    0 -0.00000000000E+00 -0.00000000000E+00 -0.45593999997E+02  0.45594000000E+02  0.51100000000E-03 0. -1.
    9900012    2    1    2    0    0 -0.15823672513E+02 -0.93454291297E+01  0.35988858434E+01  0.72461611220E+02  0.70000053313E+02 0.  0.
        -12    1    1    2    0    0  0.15823672513E+02  0.93454291297E+01 -0.35988858434E+01  0.18726388780E+02  0.00000000000E+00 0.  1.
         11    1    3    3    0    0 -0.22989498675E+02 -0.19880039221E+02 -0.21263840003E+02  0.37092909035E+02  0.51100000000E-03 0. -1.
        -11    1    3    3    0    0  0.91640407720E+00  0.71361107232E+01 -0.20907042329E+01  0.74923238810E+01  0.51100000000E-03 0.  1.
         12    1    3    3    0    0  0.62494220843E+01  0.33984993685E+01  0.26953430079E+02  0.27876378304E+02  0.00000000000E+00 0. -1.
</event>
<event>
 7    1  0.1905073E-013  0.7246140E+02  0.7816164E-02  0.1226708E+00
        -11   -1    0    0    0    0  0.00000000000E+00  0.00000000000E+00  0.45593999997E+02  0.45594000000E+02  0.51100000000E-03 0.  1.
         11   -1    0    0    0    0 -0.00000000000E+00 -0.00000000000E+00 -0.45593999997E+02  0.45594000000E+02  0.51100000000E-03 0. -1.
    9900012    2    1    2    0    0 -0.34517929400E+01 -0.18380534928E+02  0.96255349002E+00  0.72461402659E+02  0.69999781624E+02 0.  0.
        -12    1    1    2    0    0  0.34517929400E+01  0.18380534928E+02 -0.96255349002E+00  0.18726597341E+02  0.00000000000E+00 0.  1.
         11    1    3    3    0    0  0.27239576406E+02 -0.50333723388E+01  0.11981732472E+02  0.30180975351E+02  0.51100000000E-03 0. -1.
        -11    1    3    3    0    0 -0.11738120332E+02  0.24998079436E+01  0.48206401694E+01  0.12933332153E+02  0.51100000000E-03 0.  1.
         12    1    3    3    0    0 -0.18953249014E+02 -0.15846970533E+02 -0.15839819152E+02  0.29347095154E+02  0.00000000000E+00 0. -1.
</event>
<event>
 7    1  0.1905073E-013  0.7246154E+02  0.7816164E-02  0.1226708E+00
        -11   -1    0    0    0    0  0.00000000000E+00  0.00000000000E+00  0.45593999997E+02  0.45594000000E+02  0.51100000000E-03 0.  1.
         11   -1    0    0    0    0 -0.00000000000E+00 -0.00000000000E+00 -0.45593999997E+02  0.45594000000E+02  0.51100000000E-03 0. -1.
    9900012    2    1    2    0    0  0.57342191670E+00  0.17722880198E+02  0.60208953402E+01  0.72461535414E+02  0.69999954561E+02 0.  0.
        -12    1    1    2    0    0 -0.57342191670E+00 -0.17722880198E+02 -0.60208953402E+01  0.18726464586E+02  0.00000000000E+00 0.  1.
         11    1    3    3    0    0  0.28138496103E+02 -0.17001124931E+01 -0.14404328841E+02  0.31656753388E+02  0.51100000000E-03 0. -1.
        -11    1    3    3    0    0 -0.10700042494E+02  0.28356561617E+01  0.31366693039E+01  0.11505240103E+02  0.51100000000E-03 0.  1.
         12    1    3    3    0    0 -0.16865031692E+02  0.16587336530E+02  0.17288554878E+02  0.29299541923E+02  0.00000000000E+00 0. -1.
</event>
<event>
 7    1  0.1905073E-013  0.7246158E+02  0.7816164E-02  0.1226708E+00
        -11   -1    0    0    0    0  0.00000000000E+00  0.00000000000E+00  0.45593999997E+02  0.45594000000E+02  0.51100000000E-03 0. -1.
         11   -1    0    0    0    0 -0.00000000000E+00 -0.00000000000E+00 -0.45593999997E+02  0.45594000000E+02  0.51100000000E-03 0.  1.
    9900012    2    1    2    0    0  0.26520974953E+01  0.18206064006E+02  0.34906183265E+01  0.72461580053E+02  0.70000012713E+02 0.  0.
        -12    1    1    2    0    0 -0.26520974953E+01 -0.18206064006E+02 -0.34906183265E+01  0.18726419947E+02  0.00000000000E+00 0.  1.
         11    1    3    3    0    0  0.75944168513E+01  0.15861169654E+02  0.13133509244E+02  0.21948597573E+02  0.51100000000E-03 0. -1.
        -11    1    3    3    0    0 -0.99218751629E+01 -0.17808642640E+02  0.93023265703E+01  0.22408137792E+02  0.51100000000E-03 0.  1.
        -12    1    3    3    0    0  0.49795558070E+01  0.20153536992E+02 -0.18945217488E+02  0.28104844689E+02  0.00000000000E+00 0.  1.
</event>
<event>
 7    1  0.1905073E-013  0.7246158E+02  0.7816164E-02  0.1226708E+00
        -11   -1    0    0    0    0  0.00000000000E+00  0.00000000000E+00  0.45593999997E+02  0.45594000000E+02  0.51100000000E-03 0.  1.
         11   -1    0    0    0    0 -0.00000000000E+00 -0.00000000000E+00 -0.45593999997E+02  0.45594000000E+02  0.51100000000E-03 0. -1.
    9900012    2    1    2    0    0 -0.16821865599E+01  0.15024074989E+02 -0.11051065367E+02  0.72461584789E+02  0.70000018882E+02 0.  0.
        -12    1    1    2    0    0  0.16821865599E+01 -0.15024074989E+02  0.11051065367E+02  0.18726415211E+02  0.00000000000E+00 0.  1.
         11    1    3    3    0    0 -0.19424051061E+02  0.33086547442E+02  0.48766230435E+01  0.38675506898E+02  0.51100000000E-03 0. -1.
        -11    1    3    3    0    0  0.11686160996E+01 -0.11120149732E+02 -0.27820514092E+01  0.11522291610E+02  0.51100000000E-03 0.  1.
         12    1    3    3    0    0  0.16573248402E+02 -0.69423227207E+01 -0.13145637002E+02  0.22263786280E+02  0.00000000000E+00 0. -1.
</event>
<event>
 7    1  0.1905073E-013  0.7246156E+02  0.7816164E-02  0.1226708E+00
        -11   -1    0    0    0    0  0.00000000000E+00  0.00000000000E+00  0.45593999997E+02  0.45594000000E+02  0.51100000000E-03 0.  1.
         11   -1    0    0    0    0 -0.00000000000E+00 -0.00000000000E+00 -0.45593999997E+02  0.45594000000E+02  0.51100000000E-03 0. -1.
    9900012    2    1    2    0    0  0.45577869791E+01 -0.16006147993E+02  0.85854101355E+01  0.72461562461E+02  0.69999989796E+02 0.  0.
        -12    1    1    2    0    0 -0.45577869791E+01  0.16006147993E+02 -0.85854101355E+01  0.18726437539E+02  0.00000000000E+00 0.  1.
         11    1    3    3    0    0  0.25091718129E+02 -0.48739060815E+01  0.48579518717E+01  0.26018243134E+02  0.51100000000E-03 0. -1.
        -11    1    3    3    0    0 -0.10892321621E+02  0.72972230247E+00  0.20822487408E+02  0.23510660285E+02  0.51100000000E-03 0.  1.
         12    1    3    3    0    0 -0.96416095288E+01 -0.11861964214E+02 -0.17095029144E+02  0.22932659042E+02  0.00000000000E+00 0. -1.
</event>
<event>
 7    1  0.1905073E-013  0.7246158E+02  0.7816164E-02  0.1226708E+00
        -11   -1    0    0    0    0  0.00000000000E+00  0.00000000000E+00  0.45593999997E+02  0.45594000000E+02  0.51100000000E-03 0. -1.
         11   -1    0    0    0    0 -0.00000000000E+00 -0.00000000000E+00 -0.45593999997E+02  0.45594000000E+02  0.51100000000E-03 0.  1.
    9900012    2    1    2    0    0 -0.61401387759E+01 -0.11733672185E+02  0.13240025293E+02  0.72461584516E+02  0.70000018526E+02 0.  0.
        -12    1    1    2    0    0  0.61401387759E+01  0.11733672185E+02 -0.13240025293E+02  0.18726415484E+02  0.00000000000E+00 0.  1.
         11    1    3    3    0    0 -0.25641037797E+02  0.11552487897E+02 -0.27767534522E+00  0.28124720439E+02  0.51100000000E-03 0. -1.
        -11    1    3    3    0    0  0.24367670699E+02 -0.13088671058E+02  0.17056370152E+02  0.32496406700E+02  0.51100000000E-03 0.  1.
        -12    1    3    3    0    0 -0.48667716784E+01 -0.10197489024E+02 -0.35386695137E+01  0.11840457377E+02  0.00000000000E+00 0.  1.
</event>
<event>
 7    1  0.1905073E-013  0.7246159E+02  0.7816164E-02  0.1226708E+00
        -11   -1    0    0    0    0  0.00000000000E+00  0.00000000000E+00  0.45593999997E+02  0.45594000000E+02  0.51100000000E-03 0.  1.
         11   -1    0    0    0    0 -0.00000000000E+00 -0.00000000000E+00 -0.45593999997E+02  0.45594000000E+02  0.51100000000E-03 0. -1.
    9900012    2    1    2    0    0 -0.15035633113E+02 -0.68606645447E+01 -0.88056559694E+01  0.72461586618E+02  0.70000021264E+02 0.  0.
        -12    1    1    2    0    0  0.15035633113E+02  0.68606645447E+01  0.88056559694E+01  0.18726413382E+02  0.00000000000E+00 0.  1.
         11    1    3    3    0    0 -0.23303096901E+02 -0.54360304869E+01 -0.41751057435E+01  0.24290250325E+02  0.51100000000E-03 0. -1.
        -11    1    3    3    0    0  0.18786402254E+02  0.53863828188E+01  0.15168896026E+02  0.24739390381E+02  0.51100000000E-03 0.  1.
        -12    1    3    3    0    0 -0.10518938466E+02 -0.68110168766E+01 -0.19799446252E+02  0.23431945912E+02  0.00000000000E+00 0.  1.
</event>
<event>
 7    1  0.1905073E-013  0.7246157E+02  0.7816164E-02  0.1226708E+00
        -11   -1    0    0    0    0  0.00000000000E+00  0.00000000000E+00  0.45593999997E+02  0.45594000000E+02  0.51100000000E-03 0.  1.
         11   -1    0    0    0    0 -0.00000000000E+00 -0.00000000000E+00 -0.45593999997E+02  0.45594000000E+02  0.51100000000E-03 0. -1.
    9900012    2    1    2    0    0  0.18003320550E+02  0.44401877585E+01  0.26161434833E+01  0.72461574156E+02  0.70000005031E+02 0.  0.
        -12    1    1    2    0    0 -0.18003320550E+02 -0.44401877585E+01 -0.26161434833E+01  0.18726425844E+02  0.00000000000E+00 0.  1.
         11    1    3    3    0    0  0.24828130955E+02  0.63726172994E+01 -0.77211605252E+01  0.26770555805E+02  0.51100000000E-03 0. -1.
        -11    1    3    3    0    0 -0.46803555107E+01  0.18906519864E+02  0.14563596239E+02  0.24319962104E+02  0.51100000000E-03 0.  1.
        -12    1    3    3    0    0 -0.21444548944E+01 -0.20838949405E+02 -0.42262922301E+01  0.21371056247E+02  0.00000000000E+00 0.  1.
</event>
<event>
 7    1  0.1905073E-013  0.7246153E+02  0.7816164E-02  0.1226708E+00
        -11   -1    0    0    0    0  0.00000000000E+00  0.00000000000E+00  0.45593999997E+02  0.45594000000E+02  0.51100000000E-03 0.  1.
         11   -1    0    0    0    0 -0.00000000000E+00 -0.00000000000E+00 -0.45593999997E+02  0.45594000000E+02  0.51100000000E-03 0. -1.
    9900012    2    1    2    0    0  0.11069764063E+02  0.13133758230E+02  0.74595952838E+01  0.72461525599E+02  0.69999941777E+02 0.  0.
        -12    1    1    2    0    0 -0.11069764063E+02 -0.13133758230E+02 -0.74595952838E+01  0.18726474401E+02  0.00000000000E+00 0.  1.
         11    1    3    3    0    0 -0.10106831264E+01 -0.92832141493E+01 -0.21112141899E+02  0.23085105179E+02  0.51100000000E-03 0. -1.
        -11    1    3    3    0    0  0.12562197668E+02  0.27452032722E+02  0.12760427433E+02  0.32775774886E+02  0.51100000000E-03 0.  1.
         12    1    3    3    0    0 -0.48175047794E+00 -0.50350603424E+01  0.15811309750E+02  0.16600645535E+02  0.00000000000E+00 0. -1.
</event>
<event>
 7    1  0.1905073E-013  0.7246159E+02  0.7816164E-02  0.1226708E+00
        -11   -1    0    0    0    0  0.00000000000E+00  0.00000000000E+00  0.45593999997E+02  0.45594000000E+02  0.51100000000E-03 0. -1.
         11   -1    0    0    0    0 -0.00000000000E+00 -0.00000000000E+00 -0.45593999997E+02  0.45594000000E+02  0.51100000000E-03 0.  1.
    9900012    2    1    2    0    0 -0.96010236385E+01  0.52154668533E+01  0.15208470893E+02  0.72461592541E+02  0.70000028981E+02 0.  0.
        -12    1    1    2    0    0  0.96010236385E+01 -0.52154668533E+01 -0.15208470893E+02  0.18726407459E+02  0.00000000000E+00 0.  1.
         11    1    3    3    0    0 -0.20094020333E+02 -0.22420662175E+02 -0.32746047469E+01  0.30284959667E+02  0.51100000000E-03 0. -1.
        -11    1    3    3    0    0  0.90364327544E+01  0.21260992738E+02  0.57160545217E+00  0.23108735625E+02  0.51100000000E-03 0.  1.
         12    1    3    3    0    0  0.14565639396E+01  0.63751362901E+01  0.17911470188E+02  0.19067897249E+02  0.00000000000E+00 0. -1.
</event>
<event>
 7    1  0.1905073E-013  0.7246159E+02  0.7816164E-02  0.1226708E+00
        -11   -1    0    0    0    0  0.00000000000E+00  0.00000000000E+00  0.45593999997E+02  0.45594000000E+02  0.51100000000E-03 0.  1.
         11   -1    0    0    0    0 -0.00000000000E+00 -0.00000000000E+00 -0.45593999997E+02  0.45594000000E+02  0.51100000000E-03 0. -1.
    9900012    2    1    2    0    0 -0.15680538673E+02 -0.77878809901E+00 -0.10207478065E+02  0.72461590508E+02  0.70000026332E+02 0.  0.
        -12    1    1    2    0    0  0.15680538673E+02  0.77878809901E+00  0.10207478065E+02  0.18726409492E+02  0.00000000000E+00 0.  1.
         11    1    3    3    0    0 -0.19365950377E+02  0.11412269554E+02 -0.18326390744E+01  0.22553015244E+02  0.51100000000E-03 0.  1.
        -11    1    3    3    0    0  0.14458305803E+02 -0.16246003180E+02 -0.22763252922E+02  0.31482390473E+02  0.51100000000E-03 0. -1.
        -12    1    3    3    0    0 -0.10772894100E+02  0.40549455268E+01  0.14388413931E+02  0.18426184791E+02  0.00000000000E+00 0.  1.
</event>
<event>
 7    1  0.1905073E-013  0.7246154E+02  0.7816164E-02  0.1226708E+00
        -11   -1    0    0    0    0  0.00000000000E+00  0.00000000000E+00  0.45593999997E+02  0.45594000000E+02  0.51100000000E-03 0.  1.
         11   -1    0    0    0    0 -0.00000000000E+00 -0.00000000000E+00 -0.45593999997E+02  0.45594000000E+02  0.51100000000E-03 0. -1.
    9900012    2    1    2    0    0  0.70007892119E+01  0.17107976173E+02 -0.29977559251E+01  0.72461536402E+02  0.69999955849E+02 0.  0.
        -12    1    1    2    0    0 -0.70007892119E+01 -0.17107976173E+02  0.29977559251E+01  0.18726463598E+02  0.00000000000E+00 0.  1.
         11    1    3    3    0    0 -0.15974846573E+02  0.29970647633E+02  0.10049434303E+02  0.35417884926E+02  0.51100000000E-03 0. -1.
        -11    1    3    3    0    0  0.10259849320E+02  0.21601331791E+00  0.49720102627E+01  0.11403159919E+02  0.51100000000E-03 0.  1.
         12    1    3    3    0    0  0.12715786465E+02 -0.13078684778E+02 -0.18019200491E+02  0.25640491557E+02  0.00000000000E+00 0. -1.
</event>
<event>
 7    1  0.1905073E-013  0.7246155E+02  0.7816164E-02  0.1226708E+00
        -11   -1    0    0    0    0  0.00000000000E+00  0.00000000000E+00  0.45593999997E+02  0.45594000000E+02  0.51100000000E-03 0.  1.
         11   -1    0    0    0    0 -0.00000000000E+00 -0.00000000000E+00 -0.45593999997E+02  0.45594000000E+02  0.51100000000E-03 0. -1.
    9900012    2    1    2    0    0  0.32776644156E+01 -0.11983781323E+02 -0.14011628276E+02  0.72461552773E+02  0.69999977175E+02 0.  0.
        -12    1    1    2    0    0 -0.32776644156E+01  0.11983781323E+02  0.14011628276E+02  0.18726447227E+02  0.00000000000E+00 0.  1.
         11    1    3    3    0    0 -0.19904168484E+02 -0.30319188951E+02 -0.48154333850E+01  0.36587122607E+02  0.51100000000E-03 0.  1.
        -11    1    3    3    0    0  0.18342689822E+02  0.20003966429E+02 -0.22331121314E+01  0.27232328818E+02  0.51100000000E-03 0. -1.
        -12    1    3    3    0    0  0.48391430774E+01 -0.16685588004E+01 -0.69630827592E+01  0.86421013478E+01  0.00000000000E+00 0.  1.
</event>
<event>
 7    1  0.1905073E-013  0.7246154E+02  0.7816164E-02  0.1226708E+00
        -11   -1    0    0    0    0  0.00000000000E+00  0.00000000000E+00  0.45593999997E+02  0.45594000000E+02  0.51100000000E-03 0.  1.
         11   -1    0    0    0    0 -0.00000000000E+00 -0.00000000000E+00 -0.45593999997E+02  0.45594000000E+02  0.51100000000E-03 0. -1.
    9900012    2    1    2    0    0  0.15208341547E+02  0.57426855574E+01 -0.92955923619E+01  0.72461544719E+02  0.69999966684E+02 0.  0.
        -12    1    1    2    0    0 -0.15208341547E+02 -0.57426855574E+01  0.92955923619E+01  0.18726455281E+02  0.00000000000E+00 0.  1.
         11    1    3    3    0    0 -0.70807858558E+01  0.26970968208E+01 -0.30107503774E+02  0.31046314490E+02  0.51100000000E-03 0.  1.
        -11    1    3    3    0    0  0.20843981039E+02 -0.61400121683E+01  0.38445684134E+01  0.22066988954E+02  0.51100000000E-03 0. -1.
        -12    1    3    3    0    0  0.14451463644E+01  0.91856009049E+01  0.16967342999E+02  0.19348241275E+02  0.00000000000E+00 0.  1.
</event>
<event>
 7    1  0.1905073E-013  0.7246157E+02  0.7816164E-02  0.1226708E+00
        -11   -1    0    0    0    0  0.00000000000E+00  0.00000000000E+00  0.45593999997E+02  0.45594000000E+02  0.51100000000E-03 0.  1.
         11   -1    0    0    0    0 -0.00000000000E+00 -0.00000000000E+00 -0.45593999997E+02  0.45594000000E+02  0.51100000000E-03 0. -1.
    9900012    2    1    2    0    0  0.13355570334E+02  0.19940833250E+01 -0.12974269391E+02  0.72461566985E+02  0.69999995689E+02 0.  0.
        -12    1    1    2    0    0 -0.13355570334E+02 -0.19940833250E+01  0.12974269391E+02  0.18726433015E+02  0.00000000000E+00 0.  1.
         11    1    3    3    0    0 -0.10589179929E+01  0.69777838692E+01 -0.98338303520E+01  0.12104337846E+02  0.51100000000E-03 0. -1.
        -11    1    3    3    0    0  0.25659385551E+02 -0.20134215697E+02  0.13404597462E+02  0.35262925885E+02  0.51100000000E-03 0.  1.
        -12    1    3    3    0    0 -0.11244897224E+02  0.15150515153E+02 -0.16545036501E+02  0.25094303254E+02  0.00000000000E+00 0.  1.
</event>
<event>
 7    1  0.1905073E-013  0.7246157E+02  0.7816164E-02  0.1226708E+00
        -11   -1    0    0    0    0  0.00000000000E+00  0.00000000000E+00  0.45593999997E+02  0.45594000000E+02  0.51100000000E-03 0.  1.
         11   -1    0    0    0    0 -0.00000000000E+00 -0.00000000000E+00 -0.45593999997E+02  0.45594000000E+02  0.51100000000E-03 0. -1.
    9900012    2    1    2    0    0 -0.80852842106E+00  0.11924341348E+01 -0.18670927035E+02  0.72461571251E+02  0.70000001246E+02 0.  0.
        -12    1    1    2    0    0  0.80852842106E+00 -0.11924341348E+01  0.18670927035E+02  0.18726428749E+02  0.00000000000E+00 0.  1.
         11    1    3    3    0    0 -0.12249800042E+02  0.93726612272E+01 -0.35471667544E+02  0.38680015230E+02  0.51100000000E-03 0. -1.
        -11    1    3    3    0    0  0.16390851589E+01 -0.14648775807E+02  0.16371583768E+02  0.22029570766E+02  0.51100000000E-03 0.  1.
        -12    1    3    3    0    0  0.98021864624E+01  0.64685487144E+01  0.42915674120E+00  0.11751985255E+02  0.00000000000E+00 0.  1.
</event>
<event>
 7    1  0.1905073E-013  0.7246153E+02  0.7816164E-02  0.1226708E+00
        -11   -1    0    0    0    0  0.00000000000E+00  0.00000000000E+00  0.45593999997E+02  0.45594000000E+02  0.51100000000E-03 0. -1.
         11   -1    0    0    0    0 -0.00000000000E+00 -0.00000000000E+00 -0.45593999997E+02  0.45594000000E+02  0.51100000000E-03 0.  1.
    9900012    2    1    2    0    0 -0.14340368818E+02  0.12796292898E+01  0.11974844073E+02  0.72461534249E+02  0.69999953044E+02 0.  0.
        -12    1    1    2    0    0  0.14340368818E+02 -0.12796292898E+01 -0.11974844073E+02  0.18726465751E+02  0.00000000000E+00 0.  1.
         11    1    3    3    0    0  0.20465793802E+02 -0.12772071533E+02  0.15871457483E+02  0.28876940456E+02  0.51100000000E-03 0. -1.
        -11    1    3    3    0    0 -0.30839106022E+02  0.25929995148E+01 -0.52256162180E+01  0.31386002801E+02  0.51100000000E-03 0.  1.
        -12    1    3    3    0    0 -0.39670565990E+01  0.11458701308E+02  0.13290028081E+01  0.12198590992E+02  0.00000000000E+00 0.  1.
</event>
<event>
 7    1  0.1905073E-013  0.7246160E+02  0.7816164E-02  0.1226708E+00
        -11   -1    0    0    0    0  0.00000000000E+00  0.00000000000E+00  0.45593999997E+02  0.45594000000E+02  0.51100000000E-03 0.  1.
         11   -1    0    0    0    0 -0.00000000000E+00 -0.00000000000E+00 -0.45593999997E+02  0.45594000000E+02  0.51100000000E-03 0. -1.
    9900012    2    1    2    0    0  0.95172339203E+01 -0.49229585494E+00  0.16120115729E+02  0.72461595438E+02  0.70000032755E+02 0.  0.
        -12    1    1    2    0    0 -0.95172339203E+01  0.49229585494E+00 -0.16120115729E+02  0.18726404562E+02  0.00000000000E+00 0.  1.
         11    1    3    3    0    0 -0.25640210866E+02  0.19775563492E+01  0.21155296799E+01  0.25803228644E+02  0.51100000000E-03 0.  1.
        -11    1    3    3    0    0  0.33238856650E+02  0.68632791718E+01  0.65636733522E+01  0.34568887753E+02  0.51100000000E-03 0. -1.
        -12    1    3    3    0    0  0.19185881368E+01 -0.93331313759E+01  0.74409126965E+01  0.12089479041E+02  0.00000000000E+00 0.  1.
</event>
<event>
 7    1  0.1905073E-013  0.7246156E+02  0.7816164E-02  0.1226708E+00
        -11   -1    0    0    0    0  0.00000000000E+00  0.00000000000E+00  0.45593999997E+02  0.45594000000E+02  0.51100000000E-03 0.  1.
         11   -1    0    0    0    0 -0.00000000000E+00 -0.00000000000E+00 -0.45593999997E+02  0.45594000000E+02  0.51100000000E-03 0. -1.
    9900012    2    1    2    0    0 -0.15921092717E+02  0.78394834553E+01 -0.59783622826E+01  0.72461561211E+02  0.69999988167E+02 0.  0.
        -12    1    1    2    0    0  0.15921092717E+02 -0.78394834553E+01  0.59783622826E+01  0.18726438789E+02  0.00000000000E+00 0.  1.
         11    1    3    3    0    0 -0.14120760170E+02 -0.10107902285E+02  0.22729446955E+02  0.28604078652E+02  0.51100000000E-03 0.  1.
        -11    1    3    3    0    0 -0.13148758729E+01  0.25490704246E+02 -0.20893908278E+02  0.32985759123E+02  0.51100000000E-03 0. -1.
        -12    1    3    3    0    0 -0.48545667412E+00 -0.75433185060E+01 -0.78139009598E+01  0.10871723436E+02  0.00000000000E+00 0.  1.
</event>
<event>
 7    1  0.1905073E-013  0.7246157E+02  0.7816164E-02  0.1226708E+00
        -11   -1    0    0    0    0  0.00000000000E+00  0.00000000000E+00  0.45593999997E+02  0.45594000000E+02  0.51100000000E-03 0. -1.
         11   -1    0    0    0    0 -0.00000000000E+00 -0.00000000000E+00 -0.45593999997E+02  0.45594000000E+02  0.51100000000E-03 0.  1.
    9900012    2    1    2    0    0  0.11220872621E+02 -0.90957508184E+01  0.11917989098E+02  0.72461571364E+02  0.70000001393E+02 0.  0.
        -12    1    1    2    0    0 -0.11220872621E+02  0.90957508184E+01 -0.11917989098E+02  0.18726428636E+02  0.00000000000E+00 0.  1.
         11    1    3    3    0    0  0.49530626740E+01  0.10528206511E+02  0.23311085816E+00  0.11637452605E+02  0.51100000000E-03 0. -1.
        -11    1    3    3    0    0  0.44075593143E+01 -0.16528794568E+02 -0.21482155535E+02  0.27461074918E+02  0.51100000000E-03 0.  1.
        -12    1    3    3    0    0  0.18602506325E+01 -0.30951627616E+01  0.33167033774E+02  0.33363043841E+02  0.00000000000E+00 0.  1.
</event>
<event>
 7    1  0.1905073E-013  0.7246129E+02  0.7816164E-02  0.1226709E+00
        -11   -1    0    0    0    0  0.00000000000E+00  0.00000000000E+00  0.45593999997E+02  0.45594000000E+02  0.51100000000E-03 0.  1.
         11   -1    0    0    0    0 -0.00000000000E+00 -0.00000000000E+00 -0.45593999997E+02  0.45594000000E+02  0.51100000000E-03 0. -1.
    9900012    2    1    2    0    0  0.10621836967E+02  0.12458510072E+02  0.90913042091E+01  0.72461288971E+02  0.69999633523E+02 0.  0.
        -12    1    1    2    0    0 -0.10621836967E+02 -0.12458510072E+02 -0.90913042091E+01  0.18726711029E+02  0.00000000000E+00 0.  1.
         11    1    3    3    0    0  0.19099365277E+02  0.34549920751E+02 -0.13286902482E+01  0.39499977163E+02  0.51100000000E-03 0. -1.
        -11    1    3    3    0    0 -0.32264051831E+01 -0.16787687908E+02  0.16176769134E+02  0.23535590402E+02  0.51100000000E-03 0.  1.
        -12    1    3    3    0    0 -0.52511231272E+01 -0.53037227711E+01 -0.57567746769E+01  0.94257214053E+01  0.00000000000E+00 0.  1.
</event>
<event>
 7    1  0.1905073E-013  0.7246092E+02  0.7816164E-02  0.1226710E+00
        -11   -1    0    0    0    0  0.00000000000E+00  0.00000000000E+00  0.45593999997E+02  0.45594000000E+02  0.51100000000E-03 0. -1.
         11   -1    0    0    0    0 -0.00000000000E+00 -0.00000000000E+00 -0.45593999997E+02  0.45594000000E+02  0.51100000000E-03 0.  1.
    9900012    2    1    2    0    0  0.95308949228E+01  0.98295314876E+01 -0.12776777201E+02  0.72460915792E+02  0.69999147383E+02 0.  0.
        -12    1    1    2    0    0 -0.95308949228E+01 -0.98295314876E+01  0.12776777201E+02  0.18727084208E+02  0.00000000000E+00 0.  1.
         11    1    3    3    0    0 -0.10908730265E+02  0.22443832171E+02  0.11476998100E+02  0.27467207433E+02  0.51100000000E-03 0. -1.
        -11    1    3    3    0    0  0.25150019954E+02 -0.80773680522E+01 -0.27115309663E+02  0.37855084159E+02  0.51100000000E-03 0.  1.
         12    1    3    3    0    0 -0.47103947654E+01 -0.45369326316E+01  0.28615343619E+01  0.71386241990E+01  0.00000000000E+00 0. -1.
</event>
<event>
 7    1  0.1905073E-013  0.7246152E+02  0.7816164E-02  0.1226708E+00
        -11   -1    0    0    0    0  0.00000000000E+00  0.00000000000E+00  0.45593999997E+02  0.45594000000E+02  0.51100000000E-03 0.  1.
         11   -1    0    0    0    0 -0.00000000000E+00 -0.00000000000E+00 -0.45593999997E+02  0.45594000000E+02  0.51100000000E-03 0. -1.
    9900012    2    1    2    0    0  0.10859640323E+02 -0.14406678191E+02  0.50196577509E+01  0.72461517992E+02  0.69999931866E+02 0.  0.
        -12    1    1    2    0    0 -0.10859640323E+02  0.14406678191E+02 -0.50196577509E+01  0.18726482008E+02  0.00000000000E+00 0.  1.
         11    1    3    3    0    0 -0.73409846870E+01  0.16423150048E+02 -0.98947461226E+01  0.20530852753E+02  0.51100000000E-03 0. -1.
        -11    1    3    3    0    0  0.11125231249E+02 -0.31572897126E+02 -0.20464837971E+01  0.33538137984E+02  0.51100000000E-03 0.  1.
        -12    1    3    3    0    0  0.70753937610E+01  0.74306888639E+00  0.16960887671E+02  0.18392527255E+02  0.00000000000E+00 0.  1.
</event>
<event>
 7    1  0.1905073E-013  0.7246161E+02  0.7816164E-02  0.1226708E+00
        -11   -1    0    0    0    0  0.00000000000E+00  0.00000000000E+00  0.45593999997E+02  0.45594000000E+02  0.51100000000E-03 0. -1.
         11   -1    0    0    0    0 -0.00000000000E+00 -0.00000000000E+00 -0.45593999997E+02  0.45594000000E+02  0.51100000000E-03 0.  1.
    9900012    2    1    2    0    0 -0.31754472363E+01  0.89013844239E+01  0.16166615349E+02  0.72461613225E+02  0.70000055925E+02 0.  0.
        -12    1    1    2    0    0  0.31754472363E+01 -0.89013844239E+01 -0.16166615349E+02  0.18726386775E+02  0.00000000000E+00 0.  1.
         11    1    3    3    0    0 -0.17818978445E+01  0.10172051205E+02  0.35023123927E+02  0.36513901401E+02  0.51100000000E-03 0. -1.
        -11    1    3    3    0    0  0.44006014157E+01  0.13756852364E+02 -0.78352050275E+01  0.16431881142E+02  0.51100000000E-03 0.  1.
         12    1    3    3    0    0 -0.57941508075E+01 -0.15027519145E+02 -0.11021303551E+02  0.19515830681E+02  0.00000000000E+00 0. -1.
</event>
<event>
 7    1  0.1905073E-013  0.7246155E+02  0.7816164E-02  0.1226708E+00
        -11   -1    0    0    0    0  0.00000000000E+00  0.00000000000E+00  0.45593999997E+02  0.45594000000E+02  0.51100000000E-03 0. -1.
         11   -1    0    0    0    0 -0.00000000000E+00 -0.00000000000E+00 -0.45593999997E+02  0.45594000000E+02  0.51100000000E-03 0.  1.
    9900012    2    1    2    0    0 -0.10184444766E+02  0.44149804033E+01  0.15081939002E+02  0.72461552093E+02  0.69999976289E+02 0.  0.
        -12    1    1    2    0    0  0.10184444766E+02 -0.44149804033E+01 -0.15081939002E+02  0.18726447907E+02  0.00000000000E+00 0.  1.
         11    1    3    3    0    0  0.16208727247E+02 -0.68757935489E+01 -0.11811373291E+02  0.21201601713E+02  0.51100000000E-03 0. -1.
        -11    1    3    3    0    0 -0.28221829034E+01  0.18465986370E+02  0.14690149741E+02  0.23764634831E+02  0.51100000000E-03 0.  1.
         12    1    3    3    0    0 -0.23570989110E+02 -0.71752124179E+01  0.12203162552E+02  0.27495315549E+02  0.00000000000E+00 0. -1.
</event>
<event>
 7    1  0.1905073E-013  0.7246157E+02  0.7816164E-02  0.1226708E+00
        -11   -1    0    0    0    0  0.00000000000E+00  0.00000000000E+00  0.45593999997E+02  0.45594000000E+02  0.51100000000E-03 0.  1.
         11   -1    0    0    0    0 -0.00000000000E+00 -0.00000000000E+00 -0.45593999997E+02  0.45594000000E+02  0.51100000000E-03 0. -1.
    9900012    2    1    2    0    0 -0.51109397445E+01 -0.17472494707E+02  0.43897100699E+01  0.72461565986E+02  0.69999994388E+02 0.  0.
        -12    1    1    2    0    0  0.51109397445E+01  0.17472494707E+02 -0.43897100699E+01  0.18726434014E+02  0.00000000000E+00 0.  1.
         11    1    3    3    0    0 -0.15258667617E+02 -0.14274593060E+02 -0.20800389434E+02  0.29482997564E+02  0.51100000000E-03 0. -1.
        -11    1    3    3    0    0 -0.38920491247E+01 -0.14210904750E+02  0.19102849434E+02  0.24125022631E+02  0.51100000000E-03 0.  1.
         12    1    3    3    0    0  0.14039776997E+02  0.11013003103E+02  0.60872500701E+01  0.18853545791E+02  0.00000000000E+00 0. -1.
</event>
<event>
 7    1  0.1905073E-013  0.7246155E+02  0.7816164E-02  0.1226708E+00
        -11   -1    0    0    0    0  0.00000000000E+00  0.00000000000E+00  0.45593999997E+02  0.45594000000E+02  0.51100000000E-03 0.  1.
         11   -1    0    0    0    0 -0.00000000000E+00 -0.00000000000E+00 -0.45593999997E+02  0.45594000000E+02  0.51100000000E-03 0. -1.
    9900012    2    1    2    0    0 -0.18950911942E+01 -0.20752534484E+01 -0.18514372836E+02  0.72461546812E+02  0.69999969410E+02 0.  0.
        -12    1    1    2    0    0  0.18950911942E+01  0.20752534484E+01  0.18514372836E+02  0.18726453188E+02  0.00000000000E+00 0.  1.
         11    1    3    3    0    0  0.32047121036E+00  0.10550515351E+02 -0.21673767482E+02  0.24107431906E+02  0.51100000000E-03 0. -1.
        -11    1    3    3    0    0 -0.16000214819E+02 -0.23246949285E+02 -0.57549159133E+01  0.28801850335E+02  0.51100000000E-03 0.  1.
        -12    1    3    3    0    0  0.13784652415E+02  0.10621180485E+02  0.89143105596E+01  0.19552264571E+02  0.00000000000E+00 0.  1.
</event>
<event>
 7    1  0.1905073E-013  0.7246157E+02  0.7816164E-02  0.1226708E+00
        -11   -1    0    0    0    0  0.00000000000E+00  0.00000000000E+00  0.45593999997E+02  0.45594000000E+02  0.51100000000E-03 0. -1.
         11   -1    0    0    0    0 -0.00000000000E+00 -0.00000000000E+00 -0.45593999997E+02  0.45594000000E+02  0.51100000000E-03 0.  1.
    9900012    2    1    2    0    0  0.11929007825E+02 -0.14435073589E+02  0.81660664664E-01  0.72461568261E+02  0.69999997351E+02 0.  0.
        -12    1    1    2    0    0 -0.11929007825E+02  0.14435073589E+02 -0.81660664664E-01  0.18726431739E+02  0.00000000000E+00 0.  1.
         11    1    3    3    0    0  0.12516643930E+01  0.11362935357E+02  0.17113213025E+02  0.20580209522E+02  0.51100000000E-03 0. -1.
        -11    1    3    3    0    0  0.19469582201E+02 -0.31391903621E+02 -0.73630383366E+01  0.37666040114E+02  0.51100000000E-03 0.  1.
         12    1    3    3    0    0 -0.87922387686E+01  0.55938946750E+01 -0.96685140235E+01  0.14215318625E+02  0.00000000000E+00 0. -1.
</event>
<event>
 7    1  0.1905073E-013  0.7246162E+02  0.7816164E-02  0.1226708E+00
        -11   -1    0    0    0    0  0.00000000000E+00  0.00000000000E+00  0.45593999997E+02  0.45594000000E+02  0.51100000000E-03 0.  1.
         11   -1    0    0    0    0 -0.00000000000E+00 -0.00000000000E+00 -0.45593999997E+02  0.45594000000E+02  0.51100000000E-03 0. -1.
    9900012    2    1    2    0    0  0.15567301975E+02  0.13987978451E+01 -0.10314050238E+02  0.72461623989E+02  0.70000069948E+02 0.  0.
        -12    1    1    2    0    0 -0.15567301975E+02 -0.13987978451E+01  0.10314050238E+02  0.18726376011E+02  0.00000000000E+00 0.  1.
         11    1    3    3    0    0  0.53805801124E+01 -0.18716929651E+02  0.89725810057E+01  0.21442511702E+02  0.51100000000E-03 0. -1.
        -11    1    3    3    0    0  0.10309406776E+02  0.30170599573E+02 -0.24006718796E+02  0.39910794208E+02  0.51100000000E-03 0.  1.
        -12    1    3    3    0    0 -0.12268491391E+00 -0.10054872077E+02  0.47200875518E+01  0.11108318080E+02  0.00000000000E+00 0.  1.
</event>
<event>
 7    1  0.1905073E-013  0.7246154E+02  0.7816164E-02  0.1226708E+00
        -11   -1    0    0    0    0  0.00000000000E+00  0.00000000000E+00  0.45593999997E+02  0.45594000000E+02  0.51100000000E-03 0.  1.
         11   -1    0    0    0    0 -0.00000000000E+00 -0.00000000000E+00 -0.45593999997E+02  0.45594000000E+02  0.51100000000E-03 0. -1.
    9900012    2    1    2    0    0 -0.13811427791E+02 -0.12640551394E+02  0.37564141490E+00  0.72461543216E+02  0.69999964726E+02 0.  0.
        -12    1    1    2    0    0  0.13811427791E+02  0.12640551394E+02 -0.37564141490E+00  0.18726456784E+02  0.00000000000E+00 0.  1.
         11    1    3    3    0    0  0.93501115148E+01 -0.52529164303E+00 -0.23684757107E+02  0.25468966138E+02  0.51100000000E-03 0.  1.
        -11    1    3    3    0    0 -0.13772277040E+02 -0.10930031654E+02  0.30737125744E+02  0.35410621374E+02  0.51100000000E-03 0. -1.
         12    1    3    3    0    0 -0.93892622667E+01 -0.11852280975E+01 -0.66767272217E+01  0.11581955705E+02  0.00000000000E+00 0. -1.
</event>
<event>
 7    1  0.1905073E-013  0.7246155E+02  0.7816164E-02  0.1226708E+00
        -11   -1    0    0    0    0  0.00000000000E+00  0.00000000000E+00  0.45593999997E+02  0.45594000000E+02  0.51100000000E-03 0. -1.
         11   -1    0    0    0    0 -0.00000000000E+00 -0.00000000000E+00 -0.45593999997E+02  0.45594000000E+02  0.51100000000E-03 0.  1.
    9900012    2    1    2    0    0 -0.68085170776E+00 -0.17102261095E+02  0.75979528425E+01  0.72461553967E+02  0.69999978731E+02 0.  0.
        -12    1    1    2    0    0  0.68085170776E+00  0.17102261095E+02 -0.75979528425E+01  0.18726446033E+02  0.00000000000E+00 0.  1.
         11    1    3    3    0    0  0.99833420533E+01  0.76323797846E+01  0.16446832664E+02  0.20698276370E+02  0.51100000000E-03 0. -1.
        -11    1    3    3    0    0 -0.23747669801E+02 -0.47561656170E+01  0.41518282091E+01  0.24572558070E+02  0.51100000000E-03 0.  1.
        -12    1    3    3    0    0  0.13083476040E+02 -0.19978475263E+02 -0.13000708031E+02  0.27190719528E+02  0.00000000000E+00 0.  1.
</event>
<event>
 7    1  0.1905073E-013  0.7246154E+02  0.7816164E-02  0.1226708E+00
        -11   -1    0    0    0    0  0.00000000000E+00  0.00000000000E+00  0.45593999997E+02  0.45594000000E+02  0.51100000000E-03 0.  1.
         11   -1    0    0    0    0 -0.00000000000E+00 -0.00000000000E+00 -0.45593999997E+02  0.45594000000E+02  0.51100000000E-03 0. -1.
    9900012    2    1    2    0    0 -0.13081363921E+02  0.13396123215E+02  0.31940282862E+00  0.72461542316E+02  0.69999963553E+02 0.  0.
        -12    1    1    2    0    0  0.13081363921E+02 -0.13396123215E+02 -0.31940282862E+00  0.18726457684E+02  0.00000000000E+00 0.  1.
         11    1    3    3    0    0 -0.77736395620E+01  0.85112271997E+00 -0.10743385953E+02  0.13288123416E+02  0.51100000000E-03 0. -1.
        -11    1    3    3    0    0 -0.27977230956E+01 -0.20344126930E+02  0.15719680652E+02  0.25861537370E+02  0.51100000000E-03 0.  1.
        -12    1    3    3    0    0 -0.25100012639E+01  0.32889127425E+02 -0.46568918704E+01  0.33311881529E+02  0.00000000000E+00 0.  1.
</event>
<event>
 7    1  0.1905073E-013  0.7246108E+02  0.7816164E-02  0.1226709E+00
        -11   -1    0    0    0    0  0.00000000000E+00  0.00000000000E+00  0.45593999997E+02  0.45594000000E+02  0.51100000000E-03 0.  1.
         11   -1    0    0    0    0 -0.00000000000E+00 -0.00000000000E+00 -0.45593999997E+02  0.45594000000E+02  0.51100000000E-03 0. -1.
    9900012    2    1    2    0    0 -0.22883523526E+01  0.16917145128E+02  0.76987896075E+01  0.72461075074E+02  0.69999354880E+02 0.  0.
        -12    1    1    2    0    0  0.22883523526E+01 -0.16917145128E+02 -0.76987896075E+01  0.18726924926E+02  0.00000000000E+00 0.  1.
         11    1    3    3    0    0 -0.22144754353E+02  0.29736096260E+02  0.58143963841E+01  0.37529092338E+02  0.51100000000E-03 0.  1.
        -11    1    3    3    0    0  0.25163809228E+02 -0.14229540250E+02  0.37084387778E+01  0.29145319161E+02  0.51100000000E-03 0. -1.
        -12    1    3    3    0    0 -0.53074072273E+01  0.14105891186E+01 -0.18240455543E+01  0.57866635743E+01  0.00000000000E+00 0.  1.
</event>
<event>
 7    1  0.1905073E-013  0.7246158E+02  0.7816164E-02  0.1226708E+00
        -11   -1    0    0    0    0  0.00000000000E+00  0.00000000000E+00  0.45593999997E+02  0.45594000000E+02  0.51100000000E-03 0.  1.
         11   -1    0    0    0    0 -0.00000000000E+00 -0.00000000000E+00 -0.45593999997E+02  0.45594000000E+02  0.51100000000E-03 0. -1.
    9900012    2    1    2    0    0  0.18024666396E+01 -0.13543430909E+01 -0.18590200487E+02  0.72461583222E+02  0.70000016841E+02 0.  0.
        -12    1    1    2    0    0 -0.18024666396E+01  0.13543430909E+01  0.18590200487E+02  0.18726416778E+02  0.00000000000E+00 0.  1.
         11    1    3    3    0    0  0.14976912961E+01 -0.27623056458E+02 -0.11842779897E+02  0.30091988357E+02  0.51100000000E-03 0. -1.
        -11    1    3    3    0    0 -0.13953643517E+02  0.20464684389E+02  0.16678870057E+01  0.24825175163E+02  0.51100000000E-03 0.  1.
        -12    1    3    3    0    0  0.14258418861E+02  0.58040289778E+01 -0.84153075951E+01  0.17544419703E+02  0.00000000000E+00 0.  1.
</event>
<event>
 7    1  0.1905073E-013  0.7246146E+02  0.7816164E-02  0.1226708E+00
        -11   -1    0    0    0    0  0.00000000000E+00  0.00000000000E+00  0.45593999997E+02  0.45594000000E+02  0.51100000000E-03 0.  1.
         11   -1    0    0    0    0 -0.00000000000E+00 -0.00000000000E+00 -0.45593999997E+02  0.45594000000E+02  0.51100000000E-03 0. -1.
    9900012    2    1    2    0    0  0.14403070165E+01  0.18457766703E+02  0.28141739854E+01  0.72461462381E+02  0.69999859423E+02 0.  0.
        -12    1    1    2    0    0 -0.14403070165E+01 -0.18457766703E+02 -0.28141739854E+01  0.18726537619E+02  0.00000000000E+00 0.  1.
         11    1    3    3    0    0 -0.17749219356E+02  0.27183298011E+02 -0.50423890897E+01  0.32854104257E+02  0.51100000000E-03 0. -1.
        -11    1    3    3    0    0  0.21174007269E+02 -0.10567728058E+02 -0.68638613599E+01  0.24639968612E+02  0.51100000000E-03 0.  1.
         12    1    3    3    0    0 -0.19844808969E+01  0.18421967502E+01  0.14720424435E+02  0.14967389513E+02  0.00000000000E+00 0. -1.
</event>
<event>
 7    1  0.1905073E-013  0.7246154E+02  0.7816164E-02  0.1226708E+00
        -11   -1    0    0    0    0  0.00000000000E+00  0.00000000000E+00  0.45593999997E+02  0.45594000000E+02  0.51100000000E-03 0. -1.
         11   -1    0    0    0    0 -0.00000000000E+00 -0.00000000000E+00 -0.45593999997E+02  0.45594000000E+02  0.51100000000E-03 0.  1.
    9900012    2    1    2    0    0  0.13449924249E+02 -0.56820952975E+01  0.11725763064E+02  0.72461543082E+02  0.69999964551E+02 0.  0.
        -12    1    1    2    0    0 -0.13449924249E+02  0.56820952975E+01 -0.11725763064E+02  0.18726456918E+02  0.00000000000E+00 0.  1.
         11    1    3    3    0    0  0.37381989889E+02  0.74816472135E+01 -0.25661592644E+00  0.38124192648E+02  0.51100000000E-03 0. -1.
        -11    1    3    3    0    0 -0.16013673030E+02 -0.14826809597E+01  0.12260445069E+02  0.20222625455E+02  0.51100000000E-03 0.  1.
         12    1    3    3    0    0 -0.79183926099E+01 -0.11681061551E+02 -0.27806607814E+00  0.14114724979E+02  0.00000000000E+00 0. -1.
</event>
<event>
 7    1  0.1905073E-013  0.7246154E+02  0.7816164E-02  0.1226708E+00
        -11   -1    0    0    0    0  0.00000000000E+00  0.00000000000E+00  0.45593999997E+02  0.45594000000E+02  0.51100000000E-03 0.  1.
         11   -1    0    0    0    0 -0.00000000000E+00 -0.00000000000E+00 -0.45593999997E+02  0.45594000000E+02  0.51100000000E-03 0. -1.
    9900012    2    1    2    0    0 -0.18720014093E+02 -0.62569562744E-01 -0.48720601289E+00  0.72461542452E+02  0.69999963730E+02 0.  0.
        -12    1    1    2    0    0  0.18720014093E+02  0.62569562744E-01  0.48720601289E+00  0.18726457548E+02  0.00000000000E+00 0.  1.
         11    1    3    3    0    0  0.20719722490E+02  0.23472137938E+01  0.18793275568E+02  0.28071400384E+02  0.51100000000E-03 0.  1.
        -11    1    3    3    0    0 -0.22637604196E+02 -0.11066072083E+01 -0.76783635792E+01  0.23929959690E+02  0.51100000000E-03 0. -1.
        -12    1    3    3    0    0 -0.16802132387E+02 -0.13031761483E+01 -0.11602118002E+02  0.20460182378E+02  0.00000000000E+00 0.  1.
</event>
<event>
 7    1  0.1905073E-013  0.7246157E+02  0.7816164E-02  0.1226708E+00
        -11   -1    0    0    0    0  0.00000000000E+00  0.00000000000E+00  0.45593999997E+02  0.45594000000E+02  0.51100000000E-03 0. -1.
         11   -1    0    0    0    0 -0.00000000000E+00 -0.00000000000E+00 -0.45593999997E+02  0.45594000000E+02  0.51100000000E-03 0.  1.
    9900012    2    1    2    0    0 -0.13917828252E+02  0.69365812779E+01  0.10433464871E+02  0.72461567016E+02  0.69999995730E+02 0.  0.
        -12    1    1    2    0    0  0.13917828252E+02 -0.69365812779E+01 -0.10433464871E+02  0.18726432984E+02  0.00000000000E+00 0.  1.
         11    1    3    3    0    0 -0.21114741973E+02 -0.19056318679E+02  0.61816899311E+01  0.29106509596E+02  0.51100000000E-03 0. -1.
        -11    1    3    3    0    0 -0.57400494535E+01  0.28692181393E+02  0.64361130931E+01  0.29960190134E+02  0.51100000000E-03 0.  1.
        -12    1    3    3    0    0  0.12936963175E+02 -0.26992814363E+01 -0.21843381531E+01  0.13394867286E+02  0.00000000000E+00 0.  1.
</event>
<event>
 7    1  0.1905073E-013  0.7246166E+02  0.7816164E-02  0.1226708E+00
        -11   -1    0    0    0    0  0.00000000000E+00  0.00000000000E+00  0.45593999997E+02  0.45594000000E+02  0.51100000000E-03 0.  1.
         11   -1    0    0    0    0 -0.00000000000E+00 -0.00000000000E+00 -0.45593999997E+02  0.45594000000E+02  0.51100000000E-03 0. -1.
    9900012    2    1    2    0    0  0.13083347749E+02  0.31274881101E+01 -0.13027694504E+02  0.72461655074E+02  0.70000110441E+02 0.  0.
        -12    1    1    2    0    0 -0.13083347749E+02 -0.31274881101E+01  0.13027694504E+02  0.18726344926E+02  0.00000000000E+00 0.  1.
         11    1    3    3    0    0  0.47995978815E+01  0.13946808244E+02 -0.28732109239E+02  0.32296806368E+02  0.51100000000E-03 0. -1.
        -11    1    3    3    0    0  0.13010694556E+01 -0.22926267670E+02  0.10516996347E+02  0.25256954358E+02  0.51100000000E-03 0.  1.
        -12    1    3    3    0    0  0.69826804115E+01  0.12106947536E+02  0.51874183877E+01  0.14907894349E+02  0.00000000000E+00 0.  1.
</event>
<event>
 7    1  0.1905073E-013  0.7246159E+02  0.7816164E-02  0.1226708E+00
        -11   -1    0    0    0    0  0.00000000000E+00  0.00000000000E+00  0.45593999997E+02  0.45594000000E+02  0.51100000000E-03 0. -1.
         11   -1    0    0    0    0 -0.00000000000E+00 -0.00000000000E+00 -0.45593999997E+02  0.45594000000E+02  0.51100000000E-03 0.  1.
    9900012    2    1    2    0    0  0.15581259267E+02  0.37928671551E+01  0.96704166637E+01  0.72461589771E+02  0.70000025372E+02 0.  0.
        -12    1    1    2    0    0 -0.15581259267E+02 -0.37928671551E+01 -0.96704166637E+01  0.18726410229E+02  0.00000000000E+00 0.  1.
         11    1    3    3    0    0 -0.13252353018E+02 -0.84133907208E+01  0.28961510234E+02  0.32942056391E+02  0.51100000000E-03 0. -1.
        -11    1    3    3    0    0  0.17044649238E+02  0.12552418929E+02 -0.65512497154E+01  0.22158568584E+02  0.51100000000E-03 0.  1.
        -12    1    3    3    0    0  0.11788963047E+02 -0.34616105280E+00 -0.12739843855E+02  0.17360964796E+02  0.00000000000E+00 0.  1.
</event>
<event>
 7    1  0.1905073E-013  0.7246158E+02  0.7816164E-02  0.1226708E+00
        -11   -1    0    0    0    0  0.00000000000E+00  0.00000000000E+00  0.45593999997E+02  0.45594000000E+02  0.51100000000E-03 0.  1.
         11   -1    0    0    0    0 -0.00000000000E+00 -0.00000000000E+00 -0.45593999997E+02  0.45594000000E+02  0.51100000000E-03 0. -1.
    9900012    2    1    2    0    0  0.65572260699E+01 -0.67437057560E+01 -0.16192719581E+02  0.72461576196E+02  0.70000007688E+02 0.  0.
        -12    1    1    2    0    0 -0.65572260699E+01  0.67437057560E+01  0.16192719581E+02  0.18726423804E+02  0.00000000000E+00 0.  1.
         11    1    3    3    0    0 -0.25837051987E+02 -0.46321204147E+01 -0.15441253454E+02  0.30453934120E+02  0.51100000000E-03 0. -1.
        -11    1    3    3    0    0  0.13249420697E+02  0.61233500169E+01  0.10820759663E+02  0.18169518546E+02  0.51100000000E-03 0.  1.
         12    1    3    3    0    0  0.19144857360E+02 -0.82349353583E+01 -0.11572225790E+02  0.23838123530E+02  0.00000000000E+00 0. -1.
</event>
<event>
 7    1  0.1905073E-013  0.7246151E+02  0.7816164E-02  0.1226708E+00
        -11   -1    0    0    0    0  0.00000000000E+00  0.00000000000E+00  0.45593999997E+02  0.45594000000E+02  0.51100000000E-03 0. -1.
         11   -1    0    0    0    0 -0.00000000000E+00 -0.00000000000E+00 -0.45593999997E+02  0.45594000000E+02  0.51100000000E-03 0.  1.
    9900012    2    1    2    0    0  0.22519892043E+01  0.89961571867E+01  0.16268958637E+02  0.72461513019E+02  0.69999925388E+02 0.  0.
        -12    1    1    2    0    0 -0.22519892043E+01 -0.89961571867E+01 -0.16268958637E+02  0.18726486981E+02  0.00000000000E+00 0.  1.
         11    1    3    3    0    0  0.16268529384E+02  0.18559258085E+02  0.31061300980E+02  0.39672604248E+02  0.51100000000E-03 0. -1.
        -11    1    3    3    0    0 -0.57893997549E+01 -0.14575630066E+02 -0.67520775803E+00  0.15697835747E+02  0.51100000000E-03 0.  1.
        -12    1    3    3    0    0 -0.82271404247E+01  0.50125291678E+01 -0.14117134585E+02  0.17091073024E+02  0.00000000000E+00 0.  1.
</event>
<event>
 7    1  0.1905073E-013  0.7246163E+02  0.7816164E-02  0.1226708E+00
        -11   -1    0    0    0    0  0.00000000000E+00  0.00000000000E+00  0.45593999997E+02  0.45594000000E+02  0.51100000000E-03 0.  1.
         11   -1    0    0    0    0 -0.00000000000E+00 -0.00000000000E+00 -0.45593999997E+02  0.45594000000E+02  0.51100000000E-03 0. -1.
    9900012    2    1    2    0    0 -0.10603056264E+02 -0.43161094011E+01 -0.14819694775E+02  0.72461629404E+02  0.70000077001E+02 0.  0.
        -12    1    1    2    0    0  0.10603056264E+02  0.43161094011E+01  0.14819694775E+02  0.18726370596E+02  0.00000000000E+00 0.  1.
         11    1    3    3    0    0 -0.15723723183E+02 -0.14441531442E+02 -0.32194304780E+02  0.38629866187E+02  0.51100000000E-03 0. -1.
        -11    1    3    3    0    0 -0.10271125273E+02  0.67217616949E+01  0.12028832681E+02  0.17186358270E+02  0.51100000000E-03 0.  1.
         12    1    3    3    0    0  0.15391792192E+02  0.34036603458E+01  0.53457773236E+01  0.16645404946E+02  0.00000000000E+00 0. -1.
</event>
<event>
 7    1  0.1905073E-013  0.7246161E+02  0.7816164E-02  0.1226708E+00
        -11   -1    0    0    0    0  0.00000000000E+00  0.00000000000E+00  0.45593999997E+02  0.45594000000E+02  0.51100000000E-03 0. -1.
         11   -1    0    0    0    0 -0.00000000000E+00 -0.00000000000E+00 -0.45593999997E+02  0.45594000000E+02  0.51100000000E-03 0.  1.
    9900012    2    1    2    0    0 -0.17424906993E+02  0.60949976053E+01 -0.31466465332E+01  0.72461607824E+02  0.70000048889E+02 0.  0.
        -12    1    1    2    0    0  0.17424906993E+02 -0.60949976053E+01  0.31466465332E+01  0.18726392176E+02  0.00000000000E+00 0.  1.
         11    1    3    3    0    0 -0.23753512367E+01  0.29685008935E+02 -0.21154628945E+02  0.36528897807E+02  0.51100000000E-03 0. -1.
        -11    1    3    3    0    0  0.11849116195E+00 -0.88526744780E+01  0.99049331796E+01  0.13285013629E+02  0.51100000000E-03 0.  1.
         12    1    3    3    0    0 -0.15168046919E+02 -0.14737336851E+02  0.81030492321E+01  0.22647696387E+02  0.00000000000E+00 0. -1.
</event>
<event>
 7    1  0.1905073E-013  0.7246155E+02  0.7816164E-02  0.1226708E+00
        -11   -1    0    0    0    0  0.00000000000E+00  0.00000000000E+00  0.45593999997E+02  0.45594000000E+02  0.51100000000E-03 0.  1.
         11   -1    0    0    0    0 -0.00000000000E+00 -0.00000000000E+00 -0.45593999997E+02  0.45594000000E+02  0.51100000000E-03 0. -1.
    9900012    2    1    2    0    0  0.14899227119E+02 -0.19313196622E+01 -0.11178691596E+02  0.72461545179E+02  0.69999967282E+02 0.  0.
        -12    1    1    2    0    0 -0.14899227119E+02  0.19313196622E+01  0.11178691596E+02  0.18726454821E+02  0.00000000000E+00 0.  1.
         11    1    3    3    0    0  0.25473225905E+01  0.77802162613E+01  0.22379612369E+02  0.23829974140E+02  0.51100000000E-03 0.  1.
        -11    1    3    3    0    0 -0.16452106716E+01  0.59311970661E+01 -0.25360481032E+02  0.26096739551E+02  0.51100000000E-03 0. -1.
        -12    1    3    3    0    0  0.13997115200E+02 -0.15642732990E+02 -0.81978229334E+01  0.22534831487E+02  0.00000000000E+00 0.  1.
</event>
<event>
 7    1  0.1905073E-013  0.7246157E+02  0.7816164E-02  0.1226708E+00
        -11   -1    0    0    0    0  0.00000000000E+00  0.00000000000E+00  0.45593999997E+02  0.45594000000E+02  0.51100000000E-03 0.  1.
         11   -1    0    0    0    0 -0.00000000000E+00 -0.00000000000E+00 -0.45593999997E+02  0.45594000000E+02  0.51100000000E-03 0. -1.
    9900012    2    1    2    0    0 -0.10087369366E+01  0.10672659970E+02 -0.15354347548E+02  0.72461569222E+02  0.69999998604E+02 0.  0.
        -12    1    1    2    0    0  0.10087369366E+01 -0.10672659970E+02  0.15354347548E+02  0.18726430778E+02  0.00000000000E+00 0.  1.
         11    1    3    3    0    0 -0.12958917418E+02  0.19380741054E+02 -0.15594609150E+02  0.28048859143E+02  0.51100000000E-03 0. -1.
        -11    1    3    3    0    0  0.23746912254E+02  0.29317535472E+01 -0.88492509879E+01  0.25511179192E+02  0.51100000000E-03 0.  1.
        -12    1    3    3    0    0 -0.11796731772E+02 -0.11639834631E+02  0.90895125895E+01  0.18901530887E+02  0.00000000000E+00 0.  1.
</event>
<event>
 7    1  0.1905073E-013  0.7246157E+02  0.7816164E-02  0.1226708E+00
        -11   -1    0    0    0    0  0.00000000000E+00  0.00000000000E+00  0.45593999997E+02  0.45594000000E+02  0.51100000000E-03 0.  1.
         11   -1    0    0    0    0 -0.00000000000E+00 -0.00000000000E+00 -0.45593999997E+02  0.45594000000E+02  0.51100000000E-03 0. -1.
    9900012    2    1    2    0    0 -0.39726125329E+01  0.18297877682E+02  0.29159507375E+00  0.72461574669E+02  0.70000005698E+02 0.  0.
        -12    1    1    2    0    0  0.39726125329E+01 -0.18297877682E+02 -0.29159507375E+00  0.18726425331E+02  0.00000000000E+00 0.  1.
         11    1    3    3    0    0  0.13153615812E+02  0.57115323263E+01 -0.18831598600E+02  0.23669987675E+02  0.51100000000E-03 0. -1.
        -11    1    3    3    0    0 -0.11143620171E+02  0.11686517108E+02  0.31285835004E+02  0.35207363218E+02  0.51100000000E-03 0.  1.
        -12    1    3    3    0    0 -0.59826081740E+01  0.89982824821E+00 -0.12162641331E+02  0.13584223775E+02  0.00000000000E+00 0.  1.
</event>
<event>
 7    1  0.1905073E-013  0.7246156E+02  0.7816164E-02  0.1226708E+00
        -11   -1    0    0    0    0  0.00000000000E+00  0.00000000000E+00  0.45593999997E+02  0.45594000000E+02  0.51100000000E-03 0.  1.
         11   -1    0    0    0    0 -0.00000000000E+00 -0.00000000000E+00 -0.45593999997E+02  0.45594000000E+02  0.51100000000E-03 0. -1.
    9900012    2    1    2    0    0 -0.98990539774E+01  0.12077439537E+02 -0.10335565759E+02  0.72461555196E+02  0.69999980332E+02 0.  0.
        -12    1    1    2    0    0  0.98990539774E+01 -0.12077439537E+02  0.10335565759E+02  0.18726444804E+02  0.00000000000E+00 0.  1.
         11    1    3    3    0    0 -0.13177302786E+02 -0.15603202557E+02 -0.90931219835E+01  0.22355896458E+02  0.51100000000E-03 0. -1.
        -11    1    3    3    0    0 -0.12409929074E+02  0.30666662953E+02  0.39393337104E+01  0.33316195861E+02  0.51100000000E-03 0.  1.
        -12    1    3    3    0    0  0.15688177882E+02 -0.29860208586E+01 -0.51817774859E+01  0.16789462878E+02  0.00000000000E+00 0.  1.
</event>
<event>
 7    1  0.1905073E-013  0.7246157E+02  0.7816164E-02  0.1226708E+00
        -11   -1    0    0    0    0  0.00000000000E+00  0.00000000000E+00  0.45593999997E+02  0.45594000000E+02  0.51100000000E-03 0.  1.
         11   -1    0    0    0    0 -0.00000000000E+00 -0.00000000000E+00 -0.45593999997E+02  0.45594000000E+02  0.51100000000E-03 0. -1.
    9900012    2    1    2    0    0 -0.10455628578E+02  0.15444047405E+02 -0.16853491122E+01  0.72461570259E+02  0.69999999954E+02 0.  0.
        -12    1    1    2    0    0  0.10455628578E+02 -0.15444047405E+02  0.16853491122E+01  0.18726429741E+02  0.00000000000E+00 0.  1.
         11    1    3    3    0    0  0.66092246089E+01 -0.15836321953E+02  0.14613652716E+01  0.17222268481E+02  0.51100000000E-03 0. -1.
        -11    1    3    3    0    0 -0.99013474010E+01  0.40411968444E+02 -0.84861918520E+01  0.42463859060E+02  0.51100000000E-03 0.  1.
         12    1    3    3    0    0 -0.71635057854E+01 -0.91315990857E+01  0.53394774682E+01  0.12775442718E+02  0.00000000000E+00 0. -1.
</event>
<event>
 7    1  0.1905073E-013  0.7246165E+02  0.7816164E-02  0.1226708E+00
        -11   -1    0    0    0    0  0.00000000000E+00  0.00000000000E+00  0.45593999997E+02  0.45594000000E+02  0.51100000000E-03 0. -1.
         11   -1    0    0    0    0 -0.00000000000E+00 -0.00000000000E+00 -0.45593999997E+02  0.45594000000E+02  0.51100000000E-03 0.  1.
    9900012    2    1    2    0    0 -0.19968360214E+01  0.48456162176E+01  0.17978012132E+02  0.72461647690E+02  0.70000100822E+02 0.  0.
        -12    1    1    2    0    0  0.19968360214E+01 -0.48456162176E+01 -0.17978012132E+02  0.18726352310E+02  0.00000000000E+00 0.  1.
         11    1    3    3    0    0  0.60864094264E+01  0.11030997483E+02  0.32576602603E+02  0.34927959038E+02  0.51100000000E-03 0. -1.
        -11    1    3    3    0    0  0.23516028486E+01  0.13959912530E+00 -0.22742053987E+02  0.22863738620E+02  0.51100000000E-03 0.  1.
        -12    1    3    3    0    0 -0.10434848296E+02 -0.63249803911E+01  0.81434635156E+01  0.14669950032E+02  0.00000000000E+00 0.  1.
</event>
<event>
 7    1  0.1905073E-013  0.7246157E+02  0.7816164E-02  0.1226708E+00
        -11   -1    0    0    0    0  0.00000000000E+00  0.00000000000E+00  0.45593999997E+02  0.45594000000E+02  0.51100000000E-03 0.  1.
         11   -1    0    0    0    0 -0.00000000000E+00 -0.00000000000E+00 -0.45593999997E+02  0.45594000000E+02  0.51100000000E-03 0. -1.
    9900012    2    1    2    0    0  0.15329932203E+02 -0.87156602302E+01  0.63015487482E+01  0.72461572919E+02  0.70000003419E+02 0.  0.
        -12    1    1    2    0    0 -0.15329932203E+02  0.87156602302E+01 -0.63015487482E+01  0.18726427081E+02  0.00000000000E+00 0.  1.
         11    1    3    3    0    0 -0.13032693974E+02 -0.39498324646E+01 -0.12166733618E+02  0.18261481208E+02  0.51100000000E-03 0. -1.
        -11    1    3    3    0    0  0.28751076881E+02 -0.13231140692E+02  0.27418645721E+02  0.41874450913E+02  0.51100000000E-03 0.  1.
        -12    1    3    3    0    0 -0.38845070473E+00  0.84653129267E+01 -0.89503633550E+01  0.12325640798E+02  0.00000000000E+00 0.  1.
</event>
<event>
 7    1  0.1905073E-013  0.7246145E+02  0.7816164E-02  0.1226708E+00
        -11   -1    0    0    0    0  0.00000000000E+00  0.00000000000E+00  0.45593999997E+02  0.45594000000E+02  0.51100000000E-03 0. -1.
         11   -1    0    0    0    0 -0.00000000000E+00 -0.00000000000E+00 -0.45593999997E+02  0.45594000000E+02  0.51100000000E-03 0.  1.
    9900012    2    1    2    0    0  0.11473223988E+02 -0.13723875756E+02  0.55411259495E+01  0.72461449030E+02  0.69999842030E+02 0.  0.
        -12    1    1    2    0    0 -0.11473223988E+02  0.13723875756E+02 -0.55411259495E+01  0.18726550970E+02  0.00000000000E+00 0.  1.
         11    1    3    3    0    0  0.60586382297E+01 -0.74217170861E+01  0.87182380313E+01  0.12953634870E+02  0.51100000000E-03 0. -1.
        -11    1    3    3    0    0  0.21623108006E+02 -0.19119773502E+02 -0.18054327956E+02  0.34045312406E+02  0.51100000000E-03 0.  1.
        -12    1    3    3    0    0 -0.16208522247E+02  0.12817614832E+02  0.14877215874E+02  0.25462501754E+02  0.00000000000E+00 0.  1.
</event>
<event>
 7    1  0.1905073E-013  0.7246157E+02  0.7816164E-02  0.1226708E+00
        -11   -1    0    0    0    0  0.00000000000E+00  0.00000000000E+00  0.45593999997E+02  0.45594000000E+02  0.51100000000E-03 0.  1.
         11   -1    0    0    0    0 -0.00000000000E+00 -0.00000000000E+00 -0.45593999997E+02  0.45594000000E+02  0.51100000000E-03 0. -1.
    9900012    2    1    2    0    0 -0.15257073669E+02  0.10858158622E+02  0.37403969002E-01  0.72461566686E+02  0.69999995299E+02 0.  0.
        -12    1    1    2    0    0  0.15257073669E+02 -0.10858158622E+02 -0.37403969002E-01  0.18726433314E+02  0.00000000000E+00 0.  1.
         11    1    3    3    0    0  0.69833870102E+00  0.13280539447E+01 -0.75763456874E+01  0.77234978124E+01  0.51100000000E-03 0. -1.
        -11    1    3    3    0    0 -0.28758990470E+02 -0.13322464323E+02  0.18126758361E+02  0.36512285021E+02  0.51100000000E-03 0.  1.
        -12    1    3    3    0    0  0.12803578100E+02  0.22852569000E+02 -0.10513008704E+02  0.28225783853E+02  0.00000000000E+00 0.  1.
</event>
<event>
 7    1  0.1905073E-013  0.7246146E+02  0.7816164E-02  0.1226708E+00
        -11   -1    0    0    0    0  0.00000000000E+00  0.00000000000E+00  0.45593999997E+02  0.45594000000E+02  0.51100000000E-03 0.  1.
         11   -1    0    0    0    0 -0.00000000000E+00 -0.00000000000E+00 -0.45593999997E+02  0.45594000000E+02  0.51100000000E-03 0. -1.
    9900012    2    1    2    0    0 -0.17011916809E+02  0.43495169385E+01 -0.65084183140E+01  0.72461464815E+02  0.69999862593E+02 0.  0.
        -12    1    1    2    0    0  0.17011916809E+02 -0.43495169385E+01  0.65084183140E+01  0.18726535185E+02  0.00000000000E+00 0.  1.
         11    1    3    3    0    0  0.13921685912E+02  0.10444783320E+02 -0.14830619236E+02  0.22866003245E+02  0.51100000000E-03 0.  1.
        -11    1    3    3    0    0 -0.27900037883E+02 -0.17191924411E+02 -0.36715107792E+01  0.32976573056E+02  0.51100000000E-03 0. -1.
         12    1    3    3    0    0 -0.30335648371E+01  0.11096658030E+02  0.11993711701E+02  0.16618888514E+02  0.00000000000E+00 0. -1.
</event>
<event>
 7    1  0.1905073E-013  0.7246155E+02  0.7816164E-02  0.1226708E+00
        -11   -1    0    0    0    0  0.00000000000E+00  0.00000000000E+00  0.45593999997E+02  0.45594000000E+02  0.51100000000E-03 0.  1.
         11   -1    0    0    0    0 -0.00000000000E+00 -0.00000000000E+00 -0.45593999997E+02  0.45594000000E+02  0.51100000000E-03 0. -1.
    9900012    2    1    2    0    0 -0.80317539486E+01  0.11589465868E+02 -0.12322945995E+02  0.72461553765E+02  0.69999978467E+02 0.  0.
        -12    1    1    2    0    0  0.80317539486E+01 -0.11589465868E+02  0.12322945995E+02  0.18726446235E+02  0.00000000000E+00 0.  1.
         11    1    3    3    0    0 -0.12350551932E+02 -0.14630369889E+02 -0.19082121960E+02  0.27031670959E+02  0.51100000000E-03 0.  1.
        -11    1    3    3    0    0 -0.93288147726E+00  0.33726206394E+02  0.10788236516E+02  0.35421932654E+02  0.51100000000E-03 0. -1.
         12    1    3    3    0    0  0.52516794609E+01 -0.75063706369E+01 -0.40290605521E+01  0.10007950151E+02  0.00000000000E+00 0. -1.
</event>
<event>
 7    1  0.1905073E-013  0.7246159E+02  0.7816164E-02  0.1226708E+00
        -11   -1    0    0    0    0  0.00000000000E+00  0.00000000000E+00  0.45593999997E+02  0.45594000000E+02  0.51100000000E-03 0. -1.
         11   -1    0    0    0    0 -0.00000000000E+00 -0.00000000000E+00 -0.45593999997E+02  0.45594000000E+02  0.51100000000E-03 0.  1.
    9900012    2    1    2    0    0  0.15210368091E+02  0.53421079302E+01 -0.95281208824E+01  0.72461588113E+02  0.70000023212E+02 0.  0.
        -12    1    1    2    0    0 -0.15210368091E+02 -0.53421079302E+01  0.95281208824E+01  0.18726411887E+02  0.00000000000E+00 0.  1.
         11    1    3    3    0    0  0.26194278421E+02 -0.96188731454E+01 -0.25082250147E+02  0.37520423975E+02  0.51100000000E-03 0. -1.
        -11    1    3    3    0    0 -0.31571787133E+01  0.14605025441E+02 -0.26015103873E+01  0.15167148780E+02  0.51100000000E-03 0.  1.
         12    1    3    3    0    0 -0.78267316166E+01  0.35595563475E+00  0.18155639652E+02  0.19774015358E+02  0.00000000000E+00 0. -1.
</event>
<event>
 7    1  0.1905073E-013  0.7246157E+02  0.7816164E-02  0.1226708E+00
        -11   -1    0    0    0    0  0.00000000000E+00  0.00000000000E+00  0.45593999997E+02  0.45594000000E+02  0.51100000000E-03 0.  1.
         11   -1    0    0    0    0 -0.00000000000E+00 -0.00000000000E+00 -0.45593999997E+02  0.45594000000E+02  0.51100000000E-03 0. -1.
    9900012    2    1    2    0    0  0.14006352189E+02 -0.12408413692E+02 -0.72967190412E+00  0.72461573404E+02  0.70000004051E+02 0.  0.
        -12    1    1    2    0    0 -0.14006352189E+02  0.12408413692E+02  0.72967190412E+00  0.18726426596E+02  0.00000000000E+00 0.  1.
         11    1    3    3    0    0  0.29662643932E+02  0.92726106800E+00 -0.46475315751E+00  0.29680772461E+02  0.51100000000E-03 0.  1.
        -11    1    3    3    0    0 -0.27284856728E+02 -0.13882956749E+02  0.28033587790E+01  0.30741807290E+02  0.51100000000E-03 0. -1.
         12    1    3    3    0    0  0.11628564985E+02  0.54728198911E+00 -0.30682775256E+01  0.12038993652E+02  0.00000000000E+00 0. -1.
</event>
<event>
 7    1  0.1905073E-013  0.7246164E+02  0.7816164E-02  0.1226708E+00
        -11   -1    0    0    0    0  0.00000000000E+00  0.00000000000E+00  0.45593999997E+02  0.45594000000E+02  0.51100000000E-03 0.  1.
         11   -1    0    0    0    0 -0.00000000000E+00 -0.00000000000E+00 -0.45593999997E+02  0.45594000000E+02  0.51100000000E-03 0. -1.
    9900012    2    1    2    0    0  0.16574204293E+02  0.83437551666E+01  0.25207528314E+01  0.72461636417E+02  0.70000086137E+02 0.  0.
        -12    1    1    2    0    0 -0.16574204293E+02 -0.83437551666E+01 -0.25207528314E+01  0.18726363583E+02  0.00000000000E+00 0.  1.
         11    1    3    3    0    0 -0.35511393112E+01  0.17530599373E+00 -0.18613637568E+02  0.18950166922E+02  0.51100000000E-03 0. -1.
        -11    1    3    3    0    0  0.57368390291E+01  0.51805535214E+01  0.33453876518E+02  0.34335277940E+02  0.51100000000E-03 0.  1.
        -12    1    3    3    0    0  0.14388504575E+02  0.29878956515E+01 -0.12319486119E+02  0.19176191555E+02  0.00000000000E+00 0.  1.
</event>
<event>
 7    1  0.1905073E-013  0.7246157E+02  0.7816164E-02  0.1226708E+00
        -11   -1    0    0    0    0  0.00000000000E+00  0.00000000000E+00  0.45593999997E+02  0.45594000000E+02  0.51100000000E-03 0.  1.
         11   -1    0    0    0    0 -0.00000000000E+00 -0.00000000000E+00 -0.45593999997E+02  0.45594000000E+02  0.51100000000E-03 0. -1.
    9900012    2    1    2    0    0  0.15188012547E+02 -0.40109790019E+01  0.10193893432E+02  0.72461571056E+02  0.70000000993E+02 0.  0.
        -12    1    1    2    0    0 -0.15188012547E+02  0.40109790019E+01 -0.10193893432E+02  0.18726428944E+02  0.00000000000E+00 0.  1.
         11    1    3    3    0    0 -0.16413360033E+02 -0.13477510849E+02 -0.12026029996E+02  0.24406291894E+02  0.51100000000E-03 0. -1.
        -11    1    3    3    0    0  0.24965331822E+02 -0.32010564271E+01  0.49825583207E+01  0.25658145742E+02  0.51100000000E-03 0.  1.
        -12    1    3    3    0    0  0.66360407585E+01  0.12667588275E+02  0.17237365107E+02  0.22397133421E+02  0.00000000000E+00 0.  1.
</event>
<event>
 7    1  0.1905073E-013  0.7246182E+02  0.7816164E-02  0.1226707E+00
        -11   -1    0    0    0    0  0.00000000000E+00  0.00000000000E+00  0.45593999997E+02  0.45594000000E+02  0.51100000000E-03 0.  1.
         11   -1    0    0    0    0 -0.00000000000E+00 -0.00000000000E+00 -0.45593999997E+02  0.45594000000E+02  0.51100000000E-03 0. -1.
    9900012    2    1    2    0    0 -0.51959192399E+01  0.66842152349E+01 -0.16703095083E+02  0.72461823257E+02  0.70000329530E+02 0.  0.
        -12    1    1    2    0    0  0.51959192399E+01 -0.66842152349E+01  0.16703095083E+02  0.18726176743E+02  0.00000000000E+00 0.  1.
         11    1    3    3    0    0 -0.11341854390E+02 -0.15856870361E-01  0.63871553252E+00  0.11359835837E+02  0.51100000000E-03 0. -1.
        -11    1    3    3    0    0  0.16055623711E+02 -0.12690336048E+02 -0.29696572537E+02  0.36065414215E+02  0.51100000000E-03 0.  1.
        -12    1    3    3    0    0 -0.99096885607E+01  0.19390408153E+02  0.12354761922E+02  0.25036573205E+02  0.00000000000E+00 0.  1.
</event>
<event>
 7    1  0.1905073E-013  0.7246160E+02  0.7816164E-02  0.1226708E+00
        -11   -1    0    0    0    0  0.00000000000E+00  0.00000000000E+00  0.45593999997E+02  0.45594000000E+02  0.51100000000E-03 0. -1.
         11   -1    0    0    0    0 -0.00000000000E+00 -0.00000000000E+00 -0.45593999997E+02  0.45594000000E+02  0.51100000000E-03 0.  1.
    9900012    2    1    2    0    0 -0.13455501520E+01  0.89501249291E+01  0.16393985226E+02  0.72461601706E+02  0.70000040920E+02 0.  0.
        -12    1    1    2    0    0  0.13455501520E+01 -0.89501249291E+01 -0.16393985226E+02  0.18726398294E+02  0.00000000000E+00 0.  1.
         11    1    3    3    0    0 -0.11830437618E+02 -0.79886351459E+01 -0.83742851572E+01  0.16550111718E+02  0.51100000000E-03 0.  1.
        -11    1    3    3    0    0  0.20101250085E+02  0.80004886270E+01  0.33689693830E+02  0.40038275985E+02  0.51100000000E-03 0. -1.
         12    1    3    3    0    0 -0.96163626186E+01  0.89382714480E+01 -0.89214234460E+01  0.15873214003E+02  0.00000000000E+00 0. -1.
</event>
<event>
 7    1  0.1905073E-013  0.7246156E+02  0.7816164E-02  0.1226708E+00
        -11   -1    0    0    0    0  0.00000000000E+00  0.00000000000E+00  0.45593999997E+02  0.45594000000E+02  0.51100000000E-03 0. -1.
         11   -1    0    0    0    0 -0.00000000000E+00 -0.00000000000E+00 -0.45593999997E+02  0.45594000000E+02  0.51100000000E-03 0.  1.
    9900012    2    1    2    0    0 -0.10078707737E+02  0.13898621951E+02  0.74784627825E+01  0.72461562876E+02  0.69999990336E+02 0.  0.
        -12    1    1    2    0    0  0.10078707737E+02 -0.13898621951E+02 -0.74784627825E+01  0.18726437124E+02  0.00000000000E+00 0.  1.
         11    1    3    3    0    0 -0.49622350726E+00  0.16553415471E+02 -0.15554299461E+02  0.22719991935E+02  0.51100000000E-03 0.  1.
        -11    1    3    3    0    0  0.96684673385E+01 -0.20487889706E+01  0.28131959234E+02  0.29817510418E+02  0.51100000000E-03 0. -1.
         12    1    3    3    0    0 -0.19250951568E+02 -0.60600455031E+00 -0.50991969902E+01  0.19924060523E+02  0.00000000000E+00 0. -1.
</event>
<event>
 7    1  0.1905073E-013  0.7246154E+02  0.7816164E-02  0.1226708E+00
        -11   -1    0    0    0    0  0.00000000000E+00  0.00000000000E+00  0.45593999997E+02  0.45594000000E+02  0.51100000000E-03 0.  1.
         11   -1    0    0    0    0 -0.00000000000E+00 -0.00000000000E+00 -0.45593999997E+02  0.45594000000E+02  0.51100000000E-03 0. -1.
    9900012    2    1    2    0    0  0.11528870041E+02  0.44537087323E+01 -0.14068757783E+02  0.72461539805E+02  0.69999960281E+02 0.  0.
        -12    1    1    2    0    0 -0.11528870041E+02 -0.44537087323E+01  0.14068757783E+02  0.18726460195E+02  0.00000000000E+00 0.  1.
         11    1    3    3    0    0 -0.22854123279E+02 -0.93459520671E+01 -0.44554320401E+01  0.25090010877E+02  0.51100000000E-03 0. -1.
        -11    1    3    3    0    0  0.90920959888E+01  0.17177139482E+02  0.16001203799E+01  0.19500787567E+02  0.51100000000E-03 0.  1.
         12    1    3    3    0    0  0.25290897331E+02 -0.33774786821E+01 -0.11213446123E+02  0.27870741361E+02  0.00000000000E+00 0. -1.
</event>
<event>
 7    1  0.1905073E-013  0.7246158E+02  0.7816164E-02  0.1226708E+00
        -11   -1    0    0    0    0  0.00000000000E+00  0.00000000000E+00  0.45593999997E+02  0.45594000000E+02  0.51100000000E-03 0. -1.
         11   -1    0    0    0    0 -0.00000000000E+00 -0.00000000000E+00 -0.45593999997E+02  0.45594000000E+02  0.51100000000E-03 0.  1.
    9900012    2    1    2    0    0 -0.10600803682E+02  0.53322739172E+01  0.14486843034E+02  0.72461580029E+02  0.70000012681E+02 0.  0.
        -12    1    1    2    0    0  0.10600803682E+02 -0.53322739172E+01 -0.14486843034E+02  0.18726419971E+02  0.00000000000E+00 0.  1.
         11    1    3    3    0    0 -0.20961398013E+02 -0.75422813220E+01  0.16217443888E+02  0.27554885242E+02  0.51100000000E-03 0. -1.
        -11    1    3    3    0    0 -0.36084363959E+01  0.24959509578E+02  0.40720441644E+01  0.25545635156E+02  0.51100000000E-03 0.  1.
         12    1    3    3    0    0  0.13969030726E+02 -0.12084954339E+02 -0.58026450178E+01  0.19361059630E+02  0.00000000000E+00 0. -1.
</event>
<event>
 7    1  0.1905073E-013  0.7246165E+02  0.7816164E-02  0.1226708E+00
        -11   -1    0    0    0    0  0.00000000000E+00  0.00000000000E+00  0.45593999997E+02  0.45594000000E+02  0.51100000000E-03 0. -1.
         11   -1    0    0    0    0 -0.00000000000E+00 -0.00000000000E+00 -0.45593999997E+02  0.45594000000E+02  0.51100000000E-03 0.  1.
    9900012    2    1    2    0    0  0.36817714554E+01 -0.13806825201E+02  0.12103394975E+02  0.72461654037E+02  0.70000109090E+02 0.  0.
        -12    1    1    2    0    0 -0.36817714554E+01  0.13806825201E+02 -0.12103394975E+02  0.18726345963E+02  0.00000000000E+00 0.  1.
         11    1    3    3    0    0 -0.19340786989E+01  0.23326420493E+02  0.21800717492E+02  0.31986463337E+02  0.51100000000E-03 0. -1.
        -11    1    3    3    0    0 -0.12838576853E+01 -0.13618009573E+02 -0.81443655449E+01  0.15919458712E+02  0.51100000000E-03 0.  1.
         12    1    3    3    0    0  0.68997078395E+01 -0.23515236121E+02 -0.15529569713E+01  0.24555731988E+02  0.00000000000E+00 0. -1.
</event>
<event>
 7    1  0.1905073E-013  0.7246157E+02  0.7816164E-02  0.1226708E+00
        -11   -1    0    0    0    0  0.00000000000E+00  0.00000000000E+00  0.45593999997E+02  0.45594000000E+02  0.51100000000E-03 0.  1.
         11   -1    0    0    0    0 -0.00000000000E+00 -0.00000000000E+00 -0.45593999997E+02  0.45594000000E+02  0.51100000000E-03 0. -1.
    9900012    2    1    2    0    0  0.10712713920E+02  0.14514444904E+02 -0.50247239845E+01  0.72461569440E+02  0.69999998886E+02 0.  0.
        -12    1    1    2    0    0 -0.10712713920E+02 -0.14514444904E+02  0.50247239845E+01  0.18726430560E+02  0.00000000000E+00 0.  1.
         11    1    3    3    0    0 -0.23288785026E+02 -0.64792654162E+00 -0.17101505812E+02  0.28900671586E+02  0.51100000000E-03 0. -1.
        -11    1    3    3    0    0  0.29018940391E+02  0.56507325957E+01  0.34061607166E+01  0.29759563359E+02  0.51100000000E-03 0.  1.
        -12    1    3    3    0    0  0.49825585557E+01  0.95116388502E+01  0.86706211111E+01  0.13801334495E+02  0.00000000000E+00 0.  1.
</event>
<event>
 7    1  0.1905073E-013  0.7246157E+02  0.7816164E-02  0.1226708E+00
        -11   -1    0    0    0    0  0.00000000000E+00  0.00000000000E+00  0.45593999997E+02  0.45594000000E+02  0.51100000000E-03 0. -1.
         11   -1    0    0    0    0 -0.00000000000E+00 -0.00000000000E+00 -0.45593999997E+02  0.45594000000E+02  0.51100000000E-03 0.  1.
    9900012    2    1    2    0    0 -0.31315633871E+01 -0.17888319075E+02  0.45695082837E+01  0.72461573365E+02  0.70000004000E+02 0.  0.
        -12    1    1    2    0    0  0.31315633871E+01  0.17888319075E+02 -0.45695082837E+01  0.18726426635E+02  0.00000000000E+00 0.  1.
         11    1    3    3    0    0  0.89903218742E+01 -0.19877727269E+02  0.25328502498E+02  0.33428774548E+02  0.51100000000E-03 0. -1.
        -11    1    3    3    0    0 -0.19948274791E+02 -0.10042962816E+01 -0.22897473962E+02  0.30384808577E+02  0.51100000000E-03 0.  1.
        -12    1    3    3    0    0  0.78263895292E+01  0.29937044754E+01  0.21384797486E+01  0.86479902396E+01  0.00000000000E+00 0.  1.
</event>
<event>
 7    1  0.1905073E-013  0.7246143E+02  0.7816164E-02  0.1226708E+00
        -11   -1    0    0    0    0  0.00000000000E+00  0.00000000000E+00  0.45593999997E+02  0.45594000000E+02  0.51100000000E-03 0. -1.
         11   -1    0    0    0    0 -0.00000000000E+00 -0.00000000000E+00 -0.45593999997E+02  0.45594000000E+02  0.51100000000E-03 0.  1.
    9900012    2    1    2    0    0  0.37467274541E+01 -0.17004806959E+02  0.68907995246E+01  0.72461426784E+02  0.69999813051E+02 0.  0.
        -12    1    1    2    0    0 -0.37467274541E+01  0.17004806959E+02 -0.68907995246E+01  0.18726573216E+02  0.00000000000E+00 0.  1.
         11    1    3    3    0    0  0.19599392763E+02  0.39678221603E+01  0.82216584134E+01  0.21621181205E+02  0.51100000000E-03 0. -1.
        -11    1    3    3    0    0 -0.23379701066E+02 -0.70422224535E+00 -0.12482711355E+02  0.26512722115E+02  0.51100000000E-03 0.  1.
        -12    1    3    3    0    0  0.75270357567E+01 -0.20268406874E+02  0.11151852466E+02  0.24327523464E+02  0.00000000000E+00 0.  1.
</event>
<event>
 7    1  0.1905073E-013  0.7246158E+02  0.7816164E-02  0.1226708E+00
        -11   -1    0    0    0    0  0.00000000000E+00  0.00000000000E+00  0.45593999997E+02  0.45594000000E+02  0.51100000000E-03 0. -1.
         11   -1    0    0    0    0 -0.00000000000E+00 -0.00000000000E+00 -0.45593999997E+02  0.45594000000E+02  0.51100000000E-03 0.  1.
    9900012    2    1    2    0    0  0.39244416186E+01  0.17259782076E+02  0.61137037521E+01  0.72461583020E+02  0.70000016578E+02 0.  0.
        -12    1    1    2    0    0 -0.39244416186E+01 -0.17259782076E+02 -0.61137037521E+01  0.18726416980E+02  0.00000000000E+00 0.  1.
         11    1    3    3    0    0  0.19601061873E+02  0.23666974451E+02  0.24620693259E+02  0.39376463059E+02  0.51100000000E-03 0. -1.
        -11    1    3    3    0    0 -0.20630478981E+02 -0.21890970673E+01 -0.12446905400E+02  0.24193682301E+02  0.51100000000E-03 0.  1.
         12    1    3    3    0    0  0.49538587266E+01 -0.42180953072E+01 -0.60600841063E+01  0.88914376610E+01  0.00000000000E+00 0. -1.
</event>
<event>
 7    1  0.1905073E-013  0.7246153E+02  0.7816164E-02  0.1226708E+00
        -11   -1    0    0    0    0  0.00000000000E+00  0.00000000000E+00  0.45593999997E+02  0.45594000000E+02  0.51100000000E-03 0.  1.
         11   -1    0    0    0    0 -0.00000000000E+00 -0.00000000000E+00 -0.45593999997E+02  0.45594000000E+02  0.51100000000E-03 0. -1.
    9900012    2    1    2    0    0  0.52169581599E+01  0.15671183165E+02 -0.88248514582E+01  0.72461531099E+02  0.69999948941E+02 0.  0.
        -12    1    1    2    0    0 -0.52169581599E+01 -0.15671183165E+02  0.88248514582E+01  0.18726468901E+02  0.00000000000E+00 0.  1.
         11    1    3    3    0    0  0.47985615932E+01  0.88438153926E+01 -0.21309686794E+02  0.23565695737E+02  0.51100000000E-03 0. -1.
        -11    1    3    3    0    0  0.55888677636E+01 -0.16686072621E+02  0.16923987831E+02  0.24414787051E+02  0.51100000000E-03 0.  1.
        -12    1    3    3    0    0 -0.51704711969E+01  0.23513440393E+02 -0.44391524948E+01  0.24481048311E+02  0.00000000000E+00 0.  1.
</event>
<event>
 7    1  0.1905073E-013  0.7246160E+02  0.7816164E-02  0.1226708E+00
        -11   -1    0    0    0    0  0.00000000000E+00  0.00000000000E+00  0.45593999997E+02  0.45594000000E+02  0.51100000000E-03 0.  1.
         11   -1    0    0    0    0 -0.00000000000E+00 -0.00000000000E+00 -0.45593999997E+02  0.45594000000E+02  0.51100000000E-03 0. -1.
    9900012    2    1    2    0    0 -0.35484077371E+01 -0.17841655514E+02 -0.44454812425E+01  0.72461596917E+02  0.70000034681E+02 0.  0.
        -12    1    1    2    0    0  0.35484077371E+01  0.17841655514E+02  0.44454812425E+01  0.18726403083E+02  0.00000000000E+00 0.  1.
         11    1    3    3    0    0  0.18886675168E+02 -0.23577480732E+02  0.14493004798E+02  0.33505988791E+02  0.51100000000E-03 0.  1.
        -11    1    3    3    0    0 -0.20578633937E+02  0.13461194607E+02 -0.88956293218E+01  0.26149878704E+02  0.51100000000E-03 0. -1.
        -12    1    3    3    0    0 -0.18564489679E+01 -0.77253693885E+01 -0.10042856718E+02  0.12805729422E+02  0.00000000000E+00 0.  1.
</event>
<event>
 7    1  0.1905073E-013  0.7246157E+02  0.7816164E-02  0.1226708E+00
        -11   -1    0    0    0    0  0.00000000000E+00  0.00000000000E+00  0.45593999997E+02  0.45594000000E+02  0.51100000000E-03 0.  1.
         11   -1    0    0    0    0 -0.00000000000E+00 -0.00000000000E+00 -0.45593999997E+02  0.45594000000E+02  0.51100000000E-03 0. -1.
    9900012    2    1    2    0    0 -0.14133347368E+02  0.69388068681E+01 -0.10138082735E+02  0.72461567609E+02  0.69999996501E+02 0.  0.
        -12    1    1    2    0    0  0.14133347368E+02 -0.69388068681E+01  0.10138082735E+02  0.18726432391E+02  0.00000000000E+00 0.  1.
         11    1    3    3    0    0 -0.11388004409E+02 -0.80232681400E+00 -0.10694306320E+02  0.15642843752E+02  0.51100000000E-03 0. -1.
        -11    1    3    3    0    0  0.10199064169E+01 -0.22799952122E+02 -0.90953325512E+01  0.24568335319E+02  0.51100000000E-03 0.  1.
        -12    1    3    3    0    0 -0.37652493757E+01  0.30541085804E+02  0.96515561356E+01  0.32250388537E+02  0.00000000000E+00 0.  1.
</event>
<event>
 7    1  0.1905073E-013  0.7246158E+02  0.7816164E-02  0.1226708E+00
        -11   -1    0    0    0    0  0.00000000000E+00  0.00000000000E+00  0.45593999997E+02  0.45594000000E+02  0.51100000000E-03 0.  1.
         11   -1    0    0    0    0 -0.00000000000E+00 -0.00000000000E+00 -0.45593999997E+02  0.45594000000E+02  0.51100000000E-03 0. -1.
    9900012    2    1    2    0    0 -0.40253596578E+00 -0.23809801105E+01 -0.18570079553E+02  0.72461575993E+02  0.70000007423E+02 0.  0.
        -12    1    1    2    0    0  0.40253596578E+00  0.23809801105E+01  0.18570079553E+02  0.18726424007E+02  0.00000000000E+00 0.  1.
         11    1    3    3    0    0  0.97617977026E+01 -0.16400139772E+02  0.12628014601E+02  0.22885017630E+02  0.51100000000E-03 0. -1.
        -11    1    3    3    0    0 -0.19965457970E+02  0.18967345564E+02 -0.22843974619E+02  0.35780258333E+02  0.51100000000E-03 0.  1.
        -12    1    3    3    0    0  0.98011243018E+01 -0.49481859027E+01 -0.83541195345E+01  0.13796300030E+02  0.00000000000E+00 0.  1.
</event>
<event>
 7    1  0.1905073E-013  0.7246156E+02  0.7816164E-02  0.1226708E+00
        -11   -1    0    0    0    0  0.00000000000E+00  0.00000000000E+00  0.45593999997E+02  0.45594000000E+02  0.51100000000E-03 0. -1.
         11   -1    0    0    0    0 -0.00000000000E+00 -0.00000000000E+00 -0.45593999997E+02  0.45594000000E+02  0.51100000000E-03 0.  1.
    9900012    2    1    2    0    0  0.13089619052E+02 -0.59240059506E+01  0.12010304653E+02  0.72461564373E+02  0.69999992286E+02 0.  0.
        -12    1    1    2    0    0 -0.13089619052E+02  0.59240059506E+01 -0.12010304653E+02  0.18726435627E+02  0.00000000000E+00 0.  1.
         11    1    3    3    0    0  0.22087338004E+02  0.16818591225E+02 -0.41944141221E+00  0.27764931879E+02  0.51100000000E-03 0. -1.
        -11    1    3    3    0    0 -0.62248058776E+01 -0.32242472006E+02  0.77018819874E+01  0.33728981539E+02  0.51100000000E-03 0.  1.
        -12    1    3    3    0    0 -0.27729130743E+01  0.94998748311E+01  0.47278640779E+01  0.10967650955E+02  0.00000000000E+00 0.  1.
</event>
<event>
 7    1  0.1905073E-013  0.7246155E+02  0.7816164E-02  0.1226708E+00
        -11   -1    0    0    0    0  0.00000000000E+00  0.00000000000E+00  0.45593999997E+02  0.45594000000E+02  0.51100000000E-03 0. -1.
         11   -1    0    0    0    0 -0.00000000000E+00 -0.00000000000E+00 -0.45593999997E+02  0.45594000000E+02  0.51100000000E-03 0.  1.
    9900012    2    1    2    0    0 -0.13039187882E+02 -0.15509857438E+01  0.13351171268E+02  0.72461554752E+02  0.69999979754E+02 0.  0.
        -12    1    1    2    0    0  0.13039187882E+02  0.15509857438E+01 -0.13351171268E+02  0.18726445248E+02  0.00000000000E+00 0.  1.
         11    1    3    3    0    0 -0.16424935157E+02 -0.19526493283E+02 -0.81768140252E+01  0.26794079994E+02  0.51100000000E-03 0. -1.
        -11    1    3    3    0    0 -0.13460037583E+02  0.18352923662E+02  0.82292831897E+01  0.24201725574E+02  0.51100000000E-03 0.  1.
         12    1    3    3    0    0  0.16845784858E+02 -0.37741612277E+00  0.13298702103E+02  0.21465749184E+02  0.00000000000E+00 0. -1.
</event>
<event>
 7    1  0.1905073E-013  0.7246157E+02  0.7816164E-02  0.1226708E+00
        -11   -1    0    0    0    0  0.00000000000E+00  0.00000000000E+00  0.45593999997E+02  0.45594000000E+02  0.51100000000E-03 0.  1.
         11   -1    0    0    0    0 -0.00000000000E+00 -0.00000000000E+00 -0.45593999997E+02  0.45594000000E+02  0.51100000000E-03 0. -1.
    9900012    2    1    2    0    0 -0.14373002770E+02  0.29285645875E+01 -0.11641280660E+02  0.72461571762E+02  0.70000001911E+02 0.  0.
        -12    1    1    2    0    0  0.14373002770E+02 -0.29285645875E+01  0.11641280660E+02  0.18726428238E+02  0.00000000000E+00 0.  1.
         11    1    3    3    0    0 -0.19180603071E+02 -0.67182492904E+01 -0.34627072409E+02  0.40150523677E+02  0.51100000000E-03 0. -1.
        -11    1    3    3    0    0 -0.10259383704E+01  0.13158433140E+01  0.22033128010E+02  0.22096215136E+02  0.51100000000E-03 0.  1.
        -12    1    3    3    0    0  0.58335386717E+01  0.83309705639E+01  0.95266373885E+00  0.10214832949E+02  0.00000000000E+00 0.  1.
</event>
<event>
 7    1  0.1905073E-013  0.7246160E+02  0.7816164E-02  0.1226708E+00
        -11   -1    0    0    0    0  0.00000000000E+00  0.00000000000E+00  0.45593999997E+02  0.45594000000E+02  0.51100000000E-03 0. -1.
         11   -1    0    0    0    0 -0.00000000000E+00 -0.00000000000E+00 -0.45593999997E+02  0.45594000000E+02  0.51100000000E-03 0.  1.
    9900012    2    1    2    0    0  0.12665530304E+02 -0.12505917573E+02  0.58193084008E+01  0.72461601989E+02  0.70000041288E+02 0.  0.
        -12    1    1    2    0    0 -0.12665530304E+02  0.12505917573E+02 -0.58193084008E+01  0.18726398011E+02  0.00000000000E+00 0.  1.
         11    1    3    3    0    0 -0.75743261885E+01  0.10330511029E+02 -0.10967508493E+01  0.12856622341E+02  0.51100000000E-03 0. -1.
        -11    1    3    3    0    0  0.28319978389E+02  0.35977836043E+01 -0.58774071281E+01  0.29146340039E+02  0.51100000000E-03 0.  1.
        -12    1    3    3    0    0 -0.80801218971E+01 -0.26434212206E+02  0.12793466378E+02  0.30458639609E+02  0.00000000000E+00 0.  1.
</event>
<event>
 7    1  0.1905073E-013  0.7246158E+02  0.7816164E-02  0.1226708E+00
        -11   -1    0    0    0    0  0.00000000000E+00  0.00000000000E+00  0.45593999997E+02  0.45594000000E+02  0.51100000000E-03 0. -1.
         11   -1    0    0    0    0 -0.00000000000E+00 -0.00000000000E+00 -0.45593999997E+02  0.45594000000E+02  0.51100000000E-03 0.  1.
    9900012    2    1    2    0    0 -0.72719623633E+00 -0.14851410027E+02  0.11383559449E+02  0.72461584970E+02  0.70000019118E+02 0.  0.
        -12    1    1    2    0    0  0.72719623633E+00  0.14851410027E+02 -0.11383559449E+02  0.18726415030E+02  0.00000000000E+00 0.  1.
         11    1    3    3    0    0 -0.32797433186E+02 -0.16067116440E+02 -0.35295191591E+01  0.36691706965E+02  0.51100000000E-03 0. -1.
        -11    1    3    3    0    0  0.52801711068E+01 -0.14873827755E+01  0.36140002178E+01  0.65691332970E+01  0.51100000000E-03 0.  1.
         12    1    3    3    0    0  0.26790065843E+02  0.27030891890E+01  0.11299078390E+02  0.29200744708E+02  0.00000000000E+00 0. -1.
</event>
<event>
 7    1  0.1905073E-013  0.7246141E+02  0.7816164E-02  0.1226708E+00
        -11   -1    0    0    0    0  0.00000000000E+00  0.00000000000E+00  0.45593999997E+02  0.45594000000E+02  0.51100000000E-03 0. -1.
         11   -1    0    0    0    0 -0.00000000000E+00 -0.00000000000E+00 -0.45593999997E+02  0.45594000000E+02  0.51100000000E-03 0.  1.
    9900012    2    1    2    0    0 -0.11571385051E+02  0.40078675354E+01  0.14167752999E+02  0.72461409835E+02  0.69999790971E+02 0.  0.
        -12    1    1    2    0    0  0.11571385051E+02 -0.40078675354E+01 -0.14167752999E+02  0.18726590165E+02  0.00000000000E+00 0.  1.
         11    1    3    3    0    0 -0.19853989029E+01  0.12594059222E+02 -0.21084485278E+02  0.24639554708E+02  0.51100000000E-03 0.  1.
        -11    1    3    3    0    0 -0.18060644062E+01  0.23337722639E+01  0.34249584245E+02  0.34376480082E+02  0.51100000000E-03 0. -1.
        -12    1    3    3    0    0 -0.77799217419E+01 -0.10919963950E+02  0.10026540322E+01  0.13445375045E+02  0.00000000000E+00 0.  1.
</event>
<event>
 7    1  0.1905073E-013  0.7246166E+02  0.7816164E-02  0.1226708E+00
        -11   -1    0    0    0    0  0.00000000000E+00  0.00000000000E+00  0.45593999997E+02  0.45594000000E+02  0.51100000000E-03 0.  1.
         11   -1    0    0    0    0 -0.00000000000E+00 -0.00000000000E+00 -0.45593999997E+02  0.45594000000E+02  0.51100000000E-03 0. -1.
    9900012    2    1    2    0    0  0.11947279513E+02  0.98410346887E+01  0.10540042070E+02  0.72461656568E+02  0.70000112387E+02 0.  0.
        -12    1    1    2    0    0 -0.11947279513E+02 -0.98410346887E+01 -0.10540042070E+02  0.18726343432E+02  0.00000000000E+00 0.  1.
         11    1    3    3    0    0  0.25878309990E+02 -0.99365432268E+01 -0.14890902331E+02  0.31466820489E+02  0.51100000000E-03 0. -1.
        -11    1    3    3    0    0 -0.23528607173E+01  0.95430013398E+01  0.23435782932E+02  0.25413397058E+02  0.51100000000E-03 0.  1.
         12    1    3    3    0    0 -0.11578169760E+02  0.10234576576E+02  0.19951614691E+01  0.15581439021E+02  0.00000000000E+00 0. -1.
</event>
<event>
 7    1  0.1905073E-013  0.7246112E+02  0.7816164E-02  0.1226709E+00
        -11   -1    0    0    0    0  0.00000000000E+00  0.00000000000E+00  0.45593999997E+02  0.45594000000E+02  0.51100000000E-03 0.  1.
         11   -1    0    0    0    0 -0.00000000000E+00 -0.00000000000E+00 -0.45593999997E+02  0.45594000000E+02  0.51100000000E-03 0. -1.
    9900012    2    1    2    0    0 -0.66530098788E+01  0.39130273807E+01 -0.17062292292E+02  0.72461117131E+02  0.69999409668E+02 0.  0.
        -12    1    1    2    0    0  0.66530098788E+01 -0.39130273807E+01  0.17062292292E+02  0.18726882869E+02  0.00000000000E+00 0.  1.
         11    1    3    3    0    0 -0.45387030485E+01 -0.79816732961E+01  0.19622305430E+02  0.21664297926E+02  0.51100000000E-03 0. -1.
        -11    1    3    3    0    0 -0.12899692389E+02 -0.50659478642E+01 -0.87758405254E+01  0.16403696799E+02  0.51100000000E-03 0.  1.
         12    1    3    3    0    0  0.10785385559E+02  0.16960648541E+02 -0.27908757196E+02  0.34393122406E+02  0.00000000000E+00 0. -1.
</event>
<event>
 7    1  0.1905073E-013  0.7246166E+02  0.7816164E-02  0.1226708E+00
        -11   -1    0    0    0    0  0.00000000000E+00  0.00000000000E+00  0.45593999997E+02  0.45594000000E+02  0.51100000000E-03 0.  1.
         11   -1    0    0    0    0 -0.00000000000E+00 -0.00000000000E+00 -0.45593999997E+02  0.45594000000E+02  0.51100000000E-03 0. -1.
    9900012    2    1    2    0    0  0.12897203785E+02 -0.84394166936E+01 -0.10635508877E+02  0.72461663768E+02  0.70000121767E+02 0.  0.
        -12    1    1    2    0    0 -0.12897203785E+02  0.84394166936E+01  0.10635508877E+02  0.18726336232E+02  0.00000000000E+00 0.  1.
         11    1    3    3    0    0  0.29842704779E+02 -0.20626805400E+02  0.25105194254E+01  0.36364197194E+02  0.51100000000E-03 0. -1.
        -11    1    3    3    0    0 -0.21344657715E+02  0.12342200921E+01 -0.56480481014E+01  0.22113754991E+02  0.51100000000E-03 0.  1.
         12    1    3    3    0    0  0.43991567206E+01  0.10953168614E+02 -0.74979802005E+01  0.13983711583E+02  0.00000000000E+00 0. -1.
</event>
<event>
 7    1  0.1905073E-013  0.7246152E+02  0.7816164E-02  0.1226708E+00
        -11   -1    0    0    0    0  0.00000000000E+00  0.00000000000E+00  0.45593999997E+02  0.45594000000E+02  0.51100000000E-03 0.  1.
         11   -1    0    0    0    0 -0.00000000000E+00 -0.00000000000E+00 -0.45593999997E+02  0.45594000000E+02  0.51100000000E-03 0. -1.
    9900012    2    1    2    0    0  0.10607382108E+02 -0.10759510289E+02  0.11063343951E+02  0.72461516181E+02  0.69999929507E+02 0.  0.
        -12    1    1    2    0    0 -0.10607382108E+02  0.10759510289E+02 -0.11063343951E+02  0.18726483819E+02  0.00000000000E+00 0.  1.
         11    1    3    3    0    0 -0.16175065373E+02  0.82424423537E+01 -0.16774836020E+02  0.24717720760E+02  0.51100000000E-03 0. -1.
        -11    1    3    3    0    0  0.14285234015E+02 -0.11519173280E+02  0.27638873304E+02  0.33176295479E+02  0.51100000000E-03 0.  1.
         12    1    3    3    0    0  0.12497213466E+02 -0.74827793624E+01  0.19930666692E+00  0.14567499942E+02  0.00000000000E+00 0. -1.
</event>
<event>
 7    1  0.1905073E-013  0.7246157E+02  0.7816164E-02  0.1226708E+00
        -11   -1    0    0    0    0  0.00000000000E+00  0.00000000000E+00  0.45593999997E+02  0.45594000000E+02  0.51100000000E-03 0. -1.
         11   -1    0    0    0    0 -0.00000000000E+00 -0.00000000000E+00 -0.45593999997E+02  0.45594000000E+02  0.51100000000E-03 0.  1.
    9900012    2    1    2    0    0 -0.16946145754E+02 -0.75566797779E+00  0.79332393528E+01  0.72461570104E+02  0.69999999752E+02 0.  0.
        -12    1    1    2    0    0  0.16946145754E+02  0.75566797779E+00 -0.79332393528E+01  0.18726429896E+02  0.00000000000E+00 0.  1.
         11    1    3    3    0    0 -0.47838763137E+01 -0.11050544284E+02  0.31378969464E+01  0.12443729307E+02  0.51100000000E-03 0. -1.
        -11    1    3    3    0    0  0.77356510085E+01  0.22474343710E+01 -0.23305035618E+02  0.24657979301E+02  0.51100000000E-03 0.  1.
        -12    1    3    3    0    0 -0.19897920449E+02  0.80474419356E+01  0.28100378024E+02  0.35359861496E+02  0.00000000000E+00 0.  1.
</event>
<event>
 7    1  0.1905073E-013  0.7246154E+02  0.7816164E-02  0.1226708E+00
        -11   -1    0    0    0    0  0.00000000000E+00  0.00000000000E+00  0.45593999997E+02  0.45594000000E+02  0.51100000000E-03 0.  1.
         11   -1    0    0    0    0 -0.00000000000E+00 -0.00000000000E+00 -0.45593999997E+02  0.45594000000E+02  0.51100000000E-03 0. -1.
    9900012    2    1    2    0    0  0.17259814761E+02 -0.43464760903E+01 -0.58212721825E+01  0.72461540916E+02  0.69999961730E+02 0.  0.
        -12    1    1    2    0    0 -0.17259814761E+02  0.43464760903E+01  0.58212721825E+01  0.18726459084E+02  0.00000000000E+00 0.  1.
         11    1    3    3    0    0  0.27990818859E+02 -0.23013416563E+02 -0.12960188428E+02  0.38484669241E+02  0.51100000000E-03 0. -1.
        -11    1    3    3    0    0 -0.14806959551E+02  0.46778910847E+01  0.10847043579E+02  0.18941675502E+02  0.51100000000E-03 0.  1.
         12    1    3    3    0    0  0.40759554537E+01  0.13989049388E+02 -0.37081273340E+01  0.15035196173E+02  0.00000000000E+00 0. -1.
</event>
<event>
 7    1  0.1905073E-013  0.7246156E+02  0.7816164E-02  0.1226708E+00
        -11   -1    0    0    0    0  0.00000000000E+00  0.00000000000E+00  0.45593999997E+02  0.45594000000E+02  0.51100000000E-03 0. -1.
         11   -1    0    0    0    0 -0.00000000000E+00 -0.00000000000E+00 -0.45593999997E+02  0.45594000000E+02  0.51100000000E-03 0.  1.
    9900012    2    1    2    0    0 -0.80699700081E+01 -0.20333881618E+01  0.16775591259E+02  0.72461560257E+02  0.69999986924E+02 0.  0.
        -12    1    1    2    0    0  0.80699700081E+01  0.20333881618E+01 -0.16775591259E+02  0.18726439743E+02  0.00000000000E+00 0.  1.
         11    1    3    3    0    0  0.14659147341E+02  0.20016419920E+02 -0.97406465753E+01  0.26653852688E+02  0.51100000000E-03 0. -1.
        -11    1    3    3    0    0 -0.11431359980E+02 -0.19693001113E+02  0.82854059289E+01  0.24230935506E+02  0.51100000000E-03 0.  1.
         12    1    3    3    0    0 -0.11297757369E+02 -0.23568069683E+01  0.18230831906E+02  0.21576772062E+02  0.00000000000E+00 0. -1.
</event>
<event>
 7    1  0.1905073E-013  0.7246165E+02  0.7816164E-02  0.1226708E+00
        -11   -1    0    0    0    0  0.00000000000E+00  0.00000000000E+00  0.45593999997E+02  0.45594000000E+02  0.51100000000E-03 0.  1.
         11   -1    0    0    0    0 -0.00000000000E+00 -0.00000000000E+00 -0.45593999997E+02  0.45594000000E+02  0.51100000000E-03 0. -1.
    9900012    2    1    2    0    0 -0.16942985467E+02 -0.70206917378E+01 -0.37843356293E+01  0.72461653181E+02  0.70000107976E+02 0.  0.
        -12    1    1    2    0    0  0.16942985467E+02  0.70206917378E+01  0.37843356293E+01  0.18726346819E+02  0.00000000000E+00 0.  1.
         11    1    3    3    0    0 -0.29736136292E+02  0.92472518465E+01  0.52282517900E+01  0.31576638284E+02  0.51100000000E-03 0. -1.
        -11    1    3    3    0    0  0.24237193388E+02 -0.11192860603E+02 -0.26107077607E+01  0.26824195553E+02  0.51100000000E-03 0.  1.
        -12    1    3    3    0    0 -0.11444042564E+02 -0.50750829815E+01 -0.64018796586E+01  0.14060819344E+02  0.00000000000E+00 0.  1.
</event>
<event>
 7    1  0.1905073E-013  0.7246142E+02  0.7816164E-02  0.1226708E+00
        -11   -1    0    0    0    0  0.00000000000E+00  0.00000000000E+00  0.45593999997E+02  0.45594000000E+02  0.51100000000E-03 0.  1.
         11   -1    0    0    0    0 -0.00000000000E+00 -0.00000000000E+00 -0.45593999997E+02  0.45594000000E+02  0.51100000000E-03 0. -1.
    9900012    2    1    2    0    0 -0.15022105617E+02 -0.10917178686E+02 -0.24158419539E+01  0.72461421563E+02  0.69999806249E+02 0.  0.
        -12    1    1    2    0    0  0.15022105617E+02  0.10917178686E+02  0.24158419539E+01  0.18726578437E+02  0.00000000000E+00 0.  1.
         11    1    3    3    0    0  0.47098357296E+01 -0.32133934667E+02  0.30971978498E+01  0.32624606428E+02  0.51100000000E-03 0. -1.
        -11    1    3    3    0    0 -0.12964405121E+02  0.74177931033E+01  0.10019412181E+02  0.17985774250E+02  0.51100000000E-03 0.  1.
         12    1    3    3    0    0 -0.67675362255E+01  0.13798962878E+02 -0.15532451985E+02  0.21851040885E+02  0.00000000000E+00 0. -1.
</event>
<event>
 7    1  0.1905073E-013  0.7246151E+02  0.7816164E-02  0.1226708E+00
        -11   -1    0    0    0    0  0.00000000000E+00  0.00000000000E+00  0.45593999997E+02  0.45594000000E+02  0.51100000000E-03 0. -1.
         11   -1    0    0    0    0 -0.00000000000E+00 -0.00000000000E+00 -0.45593999997E+02  0.45594000000E+02  0.51100000000E-03 0.  1.
    9900012    2    1    2    0    0  0.22658338803E+01  0.47592375420E+01  0.17969341390E+02  0.72461506064E+02  0.69999916328E+02 0.  0.
        -12    1    1    2    0    0 -0.22658338803E+01 -0.47592375420E+01 -0.17969341390E+02  0.18726493936E+02  0.00000000000E+00 0.  1.
         11    1    3    3    0    0 -0.17442100338E+02  0.14139952859E+02  0.18005008852E+01  0.22525694990E+02  0.51100000000E-03 0. -1.
        -11    1    3    3    0    0  0.75668065309E+01 -0.11419058533E+02  0.29049912658E+02  0.32117734735E+02  0.51100000000E-03 0.  1.
        -12    1    3    3    0    0  0.12141127688E+02  0.20383432159E+01 -0.12881072153E+02  0.17818076338E+02  0.00000000000E+00 0.  1.
</event>
<event>
 7    1  0.1905073E-013  0.7246162E+02  0.7816164E-02  0.1226708E+00
        -11   -1    0    0    0    0  0.00000000000E+00  0.00000000000E+00  0.45593999997E+02  0.45594000000E+02  0.51100000000E-03 0.  1.
         11   -1    0    0    0    0 -0.00000000000E+00 -0.00000000000E+00 -0.45593999997E+02  0.45594000000E+02  0.51100000000E-03 0. -1.
    9900012    2    1    2    0    0  0.17058044287E+02  0.60822404788E+01 -0.47651612949E+01  0.72461620577E+02  0.70000065502E+02 0.  0.
        -12    1    1    2    0    0 -0.17058044287E+02 -0.60822404788E+01  0.47651612949E+01  0.18726379423E+02  0.00000000000E+00 0.  1.
         11    1    3    3    0    0 -0.99757149868E+01 -0.11872988689E+02  0.19971072541E+02  0.25284906340E+02  0.51100000000E-03 0. -1.
        -11    1    3    3    0    0  0.69166055051E+01  0.44528151602E+01  0.43629907955E+01  0.93114275762E+01  0.51100000000E-03 0.  1.
         12    1    3    3    0    0  0.20117153768E+02  0.13502414008E+02 -0.29099224631E+02  0.37865286661E+02  0.00000000000E+00 0. -1.
</event>
<event>
 7    1  0.1905073E-013  0.7246152E+02  0.7816164E-02  0.1226708E+00
        -11   -1    0    0    0    0  0.00000000000E+00  0.00000000000E+00  0.45593999997E+02  0.45594000000E+02  0.51100000000E-03 0. -1.
         11   -1    0    0    0    0 -0.00000000000E+00 -0.00000000000E+00 -0.45593999997E+02  0.45594000000E+02  0.51100000000E-03 0.  1.
    9900012    2    1    2    0    0  0.85600927462E+01  0.88005728285E+01  0.14140566108E+02  0.72461524630E+02  0.69999940514E+02 0.  0.
        -12    1    1    2    0    0 -0.85600927462E+01 -0.88005728285E+01 -0.14140566108E+02  0.18726475370E+02  0.00000000000E+00 0.  1.
         11    1    3    3    0    0  0.46512556229E+01  0.18167527951E+02 -0.15854090711E+02  0.24556983594E+02  0.51100000000E-03 0.  1.
        -11    1    3    3    0    0 -0.55565803815E+01 -0.20736165691E+02  0.23251788132E+02  0.31646639706E+02  0.51100000000E-03 0. -1.
        -12    1    3    3    0    0  0.94654175048E+01  0.11369210569E+02  0.67428686869E+01  0.16257901329E+02  0.00000000000E+00 0.  1.
</event>
<event>
 7    1  0.1905073E-013  0.7246159E+02  0.7816164E-02  0.1226708E+00
        -11   -1    0    0    0    0  0.00000000000E+00  0.00000000000E+00  0.45593999997E+02  0.45594000000E+02  0.51100000000E-03 0.  1.
         11   -1    0    0    0    0 -0.00000000000E+00 -0.00000000000E+00 -0.45593999997E+02  0.45594000000E+02  0.51100000000E-03 0. -1.
    9900012    2    1    2    0    0 -0.17226224514E+02  0.73435835381E+01 -0.86654606710E-01  0.72461587124E+02  0.70000021924E+02 0.  0.
        -12    1    1    2    0    0  0.17226224514E+02 -0.73435835381E+01  0.86654606710E-01  0.18726412876E+02  0.00000000000E+00 0.  1.
         11    1    3    3    0    0  0.11924675360E+01 -0.52517713529E+01 -0.37397643409E+01  0.65565935328E+01  0.51100000000E-03 0. -1.
        -11    1    3    3    0    0 -0.84166946442E+00  0.36252364860E+02  0.50971733565E+00  0.36265716282E+02  0.51100000000E-03 0.  1.
        -12    1    3    3    0    0 -0.17577022585E+02 -0.23657009969E+02  0.31433923985E+01  0.29639277309E+02  0.00000000000E+00 0.  1.
</event>
<event>
 7    1  0.1905073E-013  0.7246162E+02  0.7816164E-02  0.1226708E+00
        -11   -1    0    0    0    0  0.00000000000E+00  0.00000000000E+00  0.45593999997E+02  0.45594000000E+02  0.51100000000E-03 0.  1.
         11   -1    0    0    0    0 -0.00000000000E+00 -0.00000000000E+00 -0.45593999997E+02  0.45594000000E+02  0.51100000000E-03 0. -1.
    9900012    2    1    2    0    0  0.11435943550E+02  0.11663815015E+02 -0.91570659081E+01  0.72461621770E+02  0.70000067056E+02 0.  0.
        -12    1    1    2    0    0 -0.11435943550E+02 -0.11663815015E+02  0.91570659081E+01  0.18726378230E+02  0.00000000000E+00 0.  1.
         11    1    3    3    0    0  0.31765970193E+02  0.24931389104E+02 -0.11574111619E+02  0.42007274191E+02  0.51100000000E-03 0. -1.
        -11    1    3    3    0    0 -0.13544605968E+02 -0.12289714572E+01  0.77364629215E+01  0.15646711490E+02  0.51100000000E-03 0.  1.
         12    1    3    3    0    0 -0.67854206753E+01 -0.12038602632E+02 -0.53194172102E+01  0.14807636088E+02  0.00000000000E+00 0. -1.
</event>
<event>
 7    1  0.1905073E-013  0.7246157E+02  0.7816164E-02  0.1226708E+00
        -11   -1    0    0    0    0  0.00000000000E+00  0.00000000000E+00  0.45593999997E+02  0.45594000000E+02  0.51100000000E-03 0.  1.
         11   -1    0    0    0    0 -0.00000000000E+00 -0.00000000000E+00 -0.45593999997E+02  0.45594000000E+02  0.51100000000E-03 0. -1.
    9900012    2    1    2    0    0 -0.11675284877E+02 -0.12999806971E+02  0.67358821028E+01  0.72461565050E+02  0.69999993168E+02 0.  0.
        -12    1    1    2    0    0  0.11675284877E+02  0.12999806971E+02 -0.67358821028E+01  0.18726434950E+02  0.00000000000E+00 0.  1.
         11    1    3    3    0    0 -0.21074857802E+02 -0.25641095222E+02 -0.10150147872E+02  0.34707937099E+02  0.51100000000E-03 0. -1.
        -11    1    3    3    0    0  0.40837882496E+01 -0.56963253193E+00  0.22180835512E+02  0.22560834912E+02  0.51100000000E-03 0.  1.
         12    1    3    3    0    0  0.53157846758E+01  0.13210920782E+02 -0.52948055369E+01  0.15192793039E+02  0.00000000000E+00 0. -1.
</event>
<event>
 7    1  0.1905073E-013  0.7246154E+02  0.7816164E-02  0.1226708E+00
        -11   -1    0    0    0    0  0.00000000000E+00  0.00000000000E+00  0.45593999997E+02  0.45594000000E+02  0.51100000000E-03 0. -1.
         11   -1    0    0    0    0 -0.00000000000E+00 -0.00000000000E+00 -0.45593999997E+02  0.45594000000E+02  0.51100000000E-03 0.  1.
    9900012    2    1    2    0    0 -0.19442748892E+01  0.10364828623E+02  0.15474832272E+02  0.72461539815E+02  0.69999960295E+02 0.  0.
        -12    1    1    2    0    0  0.19442748892E+01 -0.10364828623E+02 -0.15474832272E+02  0.18726460185E+02  0.00000000000E+00 0.  1.
         11    1    3    3    0    0  0.19304201761E+02  0.21434374336E+02 -0.53733093065E+01  0.29342069831E+02  0.51100000000E-03 0. -1.
        -11    1    3    3    0    0 -0.14845604634E+02 -0.20963538453E+02  0.11835766081E+02  0.28283339272E+02  0.51100000000E-03 0.  1.
         12    1    3    3    0    0 -0.64028720159E+01  0.98939927394E+01  0.90123754974E+01  0.14836130711E+02  0.00000000000E+00 0. -1.
</event>
<event>
 7    1  0.1905073E-013  0.7246153E+02  0.7816164E-02  0.1226708E+00
        -11   -1    0    0    0    0  0.00000000000E+00  0.00000000000E+00  0.45593999997E+02  0.45594000000E+02  0.51100000000E-03 0.  1.
         11   -1    0    0    0    0 -0.00000000000E+00 -0.00000000000E+00 -0.45593999997E+02  0.45594000000E+02  0.51100000000E-03 0. -1.
    9900012    2    1    2    0    0  0.30855927589E+01  0.15758267048E+02 -0.96351803063E+01  0.72461533100E+02  0.69999951547E+02 0.  0.
        -12    1    1    2    0    0 -0.30855927589E+01 -0.15758267048E+02  0.96351803063E+01  0.18726466900E+02  0.00000000000E+00 0.  1.
         11    1    3    3    0    0 -0.13999934863E+02 -0.92140677910E+01 -0.52078463571E+01  0.17550466814E+02  0.51100000000E-03 0.  1.
        -11    1    3    3    0    0  0.91937363394E+01  0.35454413345E+02  0.72602427076E+01  0.37339675119E+02  0.51100000000E-03 0. -1.
        -12    1    3    3    0    0  0.78917912827E+01 -0.10482078506E+02 -0.11687576657E+02  0.17571391167E+02  0.00000000000E+00 0.  1.
</event>
<event>
 7    1  0.1905073E-013  0.7246162E+02  0.7816164E-02  0.1226708E+00
        -11   -1    0    0    0    0  0.00000000000E+00  0.00000000000E+00  0.45593999997E+02  0.45594000000E+02  0.51100000000E-03 0.  1.
         11   -1    0    0    0    0 -0.00000000000E+00 -0.00000000000E+00 -0.45593999997E+02  0.45594000000E+02  0.51100000000E-03 0. -1.
    9900012    2    1    2    0    0  0.84224473203E+01  0.15423285753E+02 -0.64700791682E+01  0.72461620565E+02  0.70000065487E+02 0.  0.
        -12    1    1    2    0    0 -0.84224473203E+01 -0.15423285753E+02  0.64700791682E+01  0.18726379435E+02  0.00000000000E+00 0.  1.
         11    1    3    3    0    0  0.76448482615E+01 -0.15770474336E+02  0.75895630421E+01  0.19098508663E+02  0.51100000000E-03 0.  1.
        -11    1    3    3    0    0  0.36732031206E+01  0.31704183455E+02 -0.25937560451E+02  0.41126690995E+02  0.51100000000E-03 0. -1.
        -12    1    3    3    0    0 -0.28956040618E+01 -0.51042336643E+00  0.11877918241E+02  0.12236420908E+02  0.00000000000E+00 0.  1.
</event>
<event>
 7    1  0.1905073E-013  0.7246156E+02  0.7816164E-02  0.1226708E+00
        -11   -1    0    0    0    0  0.00000000000E+00  0.00000000000E+00  0.45593999997E+02  0.45594000000E+02  0.51100000000E-03 0.  1.
         11   -1    0    0    0    0 -0.00000000000E+00 -0.00000000000E+00 -0.45593999997E+02  0.45594000000E+02  0.51100000000E-03 0. -1.
    9900012    2    1    2    0    0  0.40764200492E+01  0.10237066572E+02 -0.15141496063E+02  0.72461557854E+02  0.69999983794E+02 0.  0.
        -12    1    1    2    0    0 -0.40764200492E+01 -0.10237066572E+02  0.15141496063E+02  0.18726442146E+02  0.00000000000E+00 0.  1.
         11    1    3    3    0    0 -0.19180724135E+02 -0.65868878338E+01 -0.15026384912E+02  0.25240434098E+02  0.51100000000E-03 0. -1.
        -11    1    3    3    0    0  0.11017486135E+02  0.27472724202E+02  0.53951953772E+01  0.30087268225E+02  0.51100000000E-03 0.  1.
         12    1    3    3    0    0  0.12239658049E+02 -0.10648769796E+02 -0.55103065289E+01  0.17133855531E+02  0.00000000000E+00 0. -1.
</event>
<event>
 7    1  0.1905073E-013  0.7246158E+02  0.7816164E-02  0.1226708E+00
        -11   -1    0    0    0    0  0.00000000000E+00  0.00000000000E+00  0.45593999997E+02  0.45594000000E+02  0.51100000000E-03 0.  1.
         11   -1    0    0    0    0 -0.00000000000E+00 -0.00000000000E+00 -0.45593999997E+02  0.45594000000E+02  0.51100000000E-03 0. -1.
    9900012    2    1    2    0    0  0.60831504987E+01  0.30083541646E+01 -0.17453481407E+02  0.72461576743E+02  0.70000008401E+02 0.  0.
        -12    1    1    2    0    0 -0.60831504987E+01 -0.30083541646E+01  0.17453481407E+02  0.18726423257E+02  0.00000000000E+00 0.  1.
         11    1    3    3    0    0 -0.10099584944E+02 -0.24751612657E+02 -0.19249719343E+02  0.32942307754E+02  0.51100000000E-03 0. -1.
        -11    1    3    3    0    0 -0.40686246001E+01  0.13630184497E+02  0.38622869432E+01  0.14739501222E+02  0.51100000000E-03 0.  1.
         12    1    3    3    0    0  0.20251360042E+02  0.14129782324E+02 -0.20660490077E+01  0.24779767767E+02  0.00000000000E+00 0. -1.
</event>
<event>
 7    1  0.1905073E-013  0.7246158E+02  0.7816164E-02  0.1226708E+00
        -11   -1    0    0    0    0  0.00000000000E+00  0.00000000000E+00  0.45593999997E+02  0.45594000000E+02  0.51100000000E-03 0. -1.
         11   -1    0    0    0    0 -0.00000000000E+00 -0.00000000000E+00 -0.45593999997E+02  0.45594000000E+02  0.51100000000E-03 0.  1.
    9900012    2    1    2    0    0  0.66292797490E+01  0.11888321835E+02  0.12860758669E+02  0.72461583910E+02  0.70000017737E+02 0.  0.
        -12    1    1    2    0    0 -0.66292797490E+01 -0.11888321835E+02 -0.12860758669E+02  0.18726416090E+02  0.00000000000E+00 0.  1.
         11    1    3    3    0    0  0.15737395835E+02 -0.61540797746E+01  0.32858322099E+00  0.16901073716E+02  0.51100000000E-03 0. -1.
        -11    1    3    3    0    0 -0.22923642842E+02  0.11614067655E+02 -0.10651181896E+02  0.27817757722E+02  0.51100000000E-03 0.  1.
        -12    1    3    3    0    0  0.13815526756E+02  0.64283339542E+01  0.23183357344E+02  0.27742752472E+02  0.00000000000E+00 0.  1.
</event>
<event>
 7    1  0.1905073E-013  0.7246155E+02  0.7816164E-02  0.1226708E+00
        -11   -1    0    0    0    0  0.00000000000E+00  0.00000000000E+00  0.45593999997E+02  0.45594000000E+02  0.51100000000E-03 0.  1.
         11   -1    0    0    0    0 -0.00000000000E+00 -0.00000000000E+00 -0.45593999997E+02  0.45594000000E+02  0.51100000000E-03 0. -1.
    9900012    2    1    2    0    0  0.12266043542E+02  0.65016225949E+01 -0.12567928394E+02  0.72461554938E+02  0.69999979996E+02 0.  0.
        -12    1    1    2    0    0 -0.12266043542E+02 -0.65016225949E+01  0.12567928394E+02  0.18726445062E+02  0.00000000000E+00 0.  1.
         11    1    3    3    0    0  0.86719058291E+01  0.13200380140E+02 -0.58709207128E+01  0.16849916820E+02  0.51100000000E-03 0. -1.
        -11    1    3    3    0    0  0.77220170349E+01 -0.20281839939E+02  0.17283847096E+02  0.27743719092E+02  0.51100000000E-03 0.  1.
        -12    1    3    3    0    0 -0.41278793224E+01  0.13583082393E+02 -0.23980854777E+02  0.27867919026E+02  0.00000000000E+00 0.  1.
</event>
<event>
 7    1  0.1905073E-013  0.7246158E+02  0.7816164E-02  0.1226708E+00
        -11   -1    0    0    0    0  0.00000000000E+00  0.00000000000E+00  0.45593999997E+02  0.45594000000E+02  0.51100000000E-03 0. -1.
         11   -1    0    0    0    0 -0.00000000000E+00 -0.00000000000E+00 -0.45593999997E+02  0.45594000000E+02  0.51100000000E-03 0.  1.
    9900012    2    1    2    0    0  0.17890185234E+02 -0.16801623215E+01 -0.52723057048E+01  0.72461578010E+02  0.70000010051E+02 0.  0.
        -12    1    1    2    0    0 -0.17890185234E+02  0.16801623215E+01  0.52723057048E+01  0.18726421990E+02  0.00000000000E+00 0.  1.
         11    1    3    3    0    0  0.95058794130E+01 -0.11799074929E+02  0.27438827134E+02  0.31344363885E+02  0.51100000000E-03 0. -1.
        -11    1    3    3    0    0  0.13125721187E+02 -0.60154736545E+00 -0.15980316105E+02  0.20688569767E+02  0.51100000000E-03 0.  1.
         12    1    3    3    0    0 -0.47414153669E+01  0.10720459973E+02 -0.16730816734E+02  0.20428644357E+02  0.00000000000E+00 0. -1.
</event>
<event>
 7    1  0.1905073E-013  0.7246156E+02  0.7816164E-02  0.1226708E+00
        -11   -1    0    0    0    0  0.00000000000E+00  0.00000000000E+00  0.45593999997E+02  0.45594000000E+02  0.51100000000E-03 0.  1.
         11   -1    0    0    0    0 -0.00000000000E+00 -0.00000000000E+00 -0.45593999997E+02  0.45594000000E+02  0.51100000000E-03 0. -1.
    9900012    2    1    2    0    0 -0.76178223142E+01 -0.15278509955E+02 -0.76951525164E+01  0.72461562658E+02  0.69999990053E+02 0.  0.
        -12    1    1    2    0    0  0.76178223142E+01  0.15278509955E+02  0.76951525164E+01  0.18726437342E+02  0.00000000000E+00 0.  1.
         11    1    3    3    0    0 -0.78029004764E+01 -0.13650879793E+02  0.13811920610E+02  0.20928471663E+02  0.51100000000E-03 0. -1.
        -11    1    3    3    0    0 -0.17997935052E+02  0.14035971701E+02 -0.10936483580E+02  0.25308908334E+02  0.51100000000E-03 0.  1.
        -12    1    3    3    0    0  0.18183013214E+02 -0.15663601863E+02 -0.10570589546E+02  0.26224182661E+02  0.00000000000E+00 0.  1.
</event>
<event>
 7    1  0.1905073E-013  0.7246156E+02  0.7816164E-02  0.1226708E+00
        -11   -1    0    0    0    0  0.00000000000E+00  0.00000000000E+00  0.45593999997E+02  0.45594000000E+02  0.51100000000E-03 0. -1.
         11   -1    0    0    0    0 -0.00000000000E+00 -0.00000000000E+00 -0.45593999997E+02  0.45594000000E+02  0.51100000000E-03 0.  1.
    9900012    2    1    2    0    0  0.15108512900E+02  0.11044153957E+02 -0.66247927995E+00  0.72461564742E+02  0.69999992767E+02 0.  0.
        -12    1    1    2    0    0 -0.15108512900E+02 -0.11044153957E+02  0.66247927995E+00  0.18726435258E+02  0.00000000000E+00 0.  1.
         11    1    3    3    0    0 -0.88251234187E+01  0.55025876557E+01  0.26627622728E+02  0.28586562694E+02  0.51100000000E-03 0. -1.
        -11    1    3    3    0    0  0.24043926725E+02 -0.42697015164E+01 -0.17747498188E+02  0.30187985286E+02  0.51100000000E-03 0.  1.
        -12    1    3    3    0    0 -0.11029040636E+00  0.98112678180E+01 -0.95426038199E+01  0.13687016762E+02  0.00000000000E+00 0.  1.
</event>
<event>
 7    1  0.1905073E-013  0.7246159E+02  0.7816164E-02  0.1226708E+00
        -11   -1    0    0    0    0  0.00000000000E+00  0.00000000000E+00  0.45593999997E+02  0.45594000000E+02  0.51100000000E-03 0.  1.
         11   -1    0    0    0    0 -0.00000000000E+00 -0.00000000000E+00 -0.45593999997E+02  0.45594000000E+02  0.51100000000E-03 0. -1.
    9900012    2    1    2    0    0 -0.17811020747E+02  0.47853497489E+01  0.32475353942E+01  0.72461587679E+02  0.70000022647E+02 0.  0.
        -12    1    1    2    0    0  0.17811020747E+02 -0.47853497489E+01 -0.32475353942E+01  0.18726412321E+02  0.00000000000E+00 0.  1.
         11    1    3    3    0    0 -0.28416786971E+02  0.32362421400E+00  0.25796757278E+02  0.38380870244E+02  0.51100000000E-03 0. -1.
        -11    1    3    3    0    0  0.15212868978E+02  0.21621812332E+01 -0.55801382752E+01  0.16347610029E+02  0.51100000000E-03 0.  1.
         12    1    3    3    0    0 -0.46071027534E+01  0.22995443018E+01 -0.16969083608E+02  0.17733107406E+02  0.00000000000E+00 0. -1.
</event>
<event>
 7    1  0.1905073E-013  0.7246161E+02  0.7816164E-02  0.1226708E+00
        -11   -1    0    0    0    0  0.00000000000E+00  0.00000000000E+00  0.45593999997E+02  0.45594000000E+02  0.51100000000E-03 0. -1.
         11   -1    0    0    0    0 -0.00000000000E+00 -0.00000000000E+00 -0.45593999997E+02  0.45594000000E+02  0.51100000000E-03 0.  1.
    9900012    2    1    2    0    0  0.19951237422E+01 -0.18411808862E+02  0.27753250153E+01  0.72461610779E+02  0.70000052739E+02 0.  0.
        -12    1    1    2    0    0 -0.19951237422E+01  0.18411808862E+02 -0.27753250153E+01  0.18726389221E+02  0.00000000000E+00 0.  1.
         11    1    3    3    0    0  0.44171585528E+01 -0.55936618246E+01  0.14975826380E+02  0.16585406787E+02  0.51100000000E-03 0. -1.
        -11    1    3    3    0    0 -0.20689415243E+02 -0.15555098082E+02 -0.22873703229E+02  0.34543006226E+02  0.51100000000E-03 0.  1.
        -12    1    3    3    0    0  0.18267380432E+02  0.27369510440E+01  0.10673201865E+02  0.21333197766E+02  0.00000000000E+00 0.  1.
</event>
<event>
 7    1  0.1905073E-013  0.7246156E+02  0.7816164E-02  0.1226708E+00
        -11   -1    0    0    0    0  0.00000000000E+00  0.00000000000E+00  0.45593999997E+02  0.45594000000E+02  0.51100000000E-03 0.  1.
         11   -1    0    0    0    0 -0.00000000000E+00 -0.00000000000E+00 -0.45593999997E+02  0.45594000000E+02  0.51100000000E-03 0. -1.
    9900012    2    1    2    0    0 -0.67776770751E+01 -0.17336360857E+02 -0.20477371003E+01  0.72461560361E+02  0.69999987060E+02 0.  0.
        -12    1    1    2    0    0  0.67776770751E+01  0.17336360857E+02  0.20477371003E+01  0.18726439639E+02  0.00000000000E+00 0.  1.
         11    1    3    3    0    0 -0.63307305702E+01  0.91491183878E+01 -0.60547631517E+01  0.12666675725E+02  0.51100000000E-03 0. -1.
        -11    1    3    3    0    0  0.22247324270E+02 -0.10056118259E+02  0.16136152425E+02  0.29265070766E+02  0.51100000000E-03 0.  1.
        -12    1    3    3    0    0 -0.22694270775E+02 -0.16429360986E+02 -0.12129126373E+02  0.30529813871E+02  0.00000000000E+00 0.  1.
</event>
<event>
 7    1  0.1905073E-013  0.7246155E+02  0.7816164E-02  0.1226708E+00
        -11   -1    0    0    0    0  0.00000000000E+00  0.00000000000E+00  0.45593999997E+02  0.45594000000E+02  0.51100000000E-03 0.  1.
         11   -1    0    0    0    0 -0.00000000000E+00 -0.00000000000E+00 -0.45593999997E+02  0.45594000000E+02  0.51100000000E-03 0. -1.
    9900012    2    1    2    0    0 -0.86251247451E+01  0.14221444610E+02 -0.86045092890E+01  0.72461552292E+02  0.69999976549E+02 0.  0.
        -12    1    1    2    0    0  0.86251247451E+01 -0.14221444610E+02  0.86045092890E+01  0.18726447708E+02  0.00000000000E+00 0.  1.
         11    1    3    3    0    0 -0.37101248562E+02  0.17350456906E+02 -0.11927690531E+02  0.42659240516E+02  0.51100000000E-03 0. -1.
        -11    1    3    3    0    0  0.64525351278E+01  0.14140159834E+01 -0.15680962548E+01  0.67892250591E+01  0.51100000000E-03 0.  1.
         12    1    3    3    0    0  0.22023588689E+02 -0.45430282802E+01  0.48912774964E+01  0.23013086717E+02  0.00000000000E+00 0. -1.
</event>
<event>
 8    1  0.1905073E-013  0.7246156E+02  0.7816164E-02  0.1226708E+00
        -11   -1    0    0    0    0  0.00000000000E+00  0.00000000000E+00  0.45593999997E+02  0.45594000000E+02  0.51100000000E-03 0. -1.
         11   -1    0    0    0    0 -0.00000000000E+00 -0.00000000000E+00 -0.45593999997E+02  0.45594000000E+02  0.51100000000E-03 0.  1.
    9900012    2    1    2    0    0 -0.31632918894E+01  0.50464990581E+01  0.17754045581E+02  0.72461556056E+02  0.69999981452E+02 0.  0.
        -24    2    3    3    0    0 -0.35827489336E+01  0.13730250786E+02  0.28600593195E+02  0.58560797670E+02  0.49091926181E+02 0.  0.
        -12    1    1    2    0    0  0.31632918894E+01 -0.50464990581E+01 -0.17754045581E+02  0.18726443944E+02  0.00000000000E+00 0.  1.
         11    1    4    4    0    0 -0.17279632343E+02  0.38983332040E+01  0.36020112041E+02  0.40140144088E+02  0.51100000000E-03 0. -1.
        -11    1    3    3    0    0  0.41945704419E+00 -0.86837517279E+01 -0.10846547614E+02  0.13900758385E+02  0.51100000000E-03 0.  1.
        -12    1    4    4    0    0  0.13696883410E+02  0.98319175820E+01 -0.74195188466E+01  0.18420653582E+02  0.00000000000E+00 0.  1.
</event>
<event>
 7    1  0.1905073E-013  0.7246156E+02  0.7816164E-02  0.1226708E+00
        -11   -1    0    0    0    0  0.00000000000E+00  0.00000000000E+00  0.45593999997E+02  0.45594000000E+02  0.51100000000E-03 0.  1.
         11   -1    0    0    0    0 -0.00000000000E+00 -0.00000000000E+00 -0.45593999997E+02  0.45594000000E+02  0.51100000000E-03 0. -1.
    9900012    2    1    2    0    0  0.26977534317E+01  0.12359122986E+02 -0.13807736946E+02  0.72461564297E+02  0.69999992187E+02 0.  0.
        -12    1    1    2    0    0 -0.26977534317E+01 -0.12359122986E+02  0.13807736946E+02  0.18726435703E+02  0.00000000000E+00 0.  1.
         11    1    3    3    0    0 -0.11301082638E+02 -0.16910929651E+02 -0.14251696008E+02  0.24835556160E+02  0.51100000000E-03 0. -1.
        -11    1    3    3    0    0  0.89568510515E+01  0.17590786774E+02  0.17478358140E+02  0.26365772578E+02  0.51100000000E-03 0.  1.
         12    1    3    3    0    0  0.50419850179E+01  0.11679265862E+02 -0.17034399079E+02  0.21260235558E+02  0.00000000000E+00 0. -1.
</event>
<event>
 7    1  0.1905073E-013  0.7246156E+02  0.7816164E-02  0.1226708E+00
        -11   -1    0    0    0    0  0.00000000000E+00  0.00000000000E+00  0.45593999997E+02  0.45594000000E+02  0.51100000000E-03 0.  1.
         11   -1    0    0    0    0 -0.00000000000E+00 -0.00000000000E+00 -0.45593999997E+02  0.45594000000E+02  0.51100000000E-03 0. -1.
    9900012    2    1    2    0    0  0.85019743674E+01 -0.22888508559E+01 -0.16527462986E+02  0.72461563096E+02  0.69999990622E+02 0.  0.
        -12    1    1    2    0    0 -0.85019743674E+01  0.22888508559E+01  0.16527462986E+02  0.18726436904E+02  0.00000000000E+00 0.  1.
         11    1    3    3    0    0 -0.11524079651E+02 -0.42219081450E+01 -0.54649247533E+01  0.13434817565E+02  0.51100000000E-03 0. -1.
        -11    1    3    3    0    0  0.17724821152E+02  0.20262568367E+02 -0.24327181149E+02  0.36284331393E+02  0.51100000000E-03 0.  1.
        -12    1    3    3    0    0  0.23012328670E+01 -0.18329511078E+02  0.13264642917E+02  0.22742414137E+02  0.00000000000E+00 0.  1.
</event>
<event>
 7    1  0.1905073E-013  0.7246153E+02  0.7816164E-02  0.1226708E+00
        -11   -1    0    0    0    0  0.00000000000E+00  0.00000000000E+00  0.45593999997E+02  0.45594000000E+02  0.51100000000E-03 0. -1.
         11   -1    0    0    0    0 -0.00000000000E+00 -0.00000000000E+00 -0.45593999997E+02  0.45594000000E+02  0.51100000000E-03 0.  1.
    9900012    2    1    2    0    0 -0.14370424167E+02 -0.34766371254E+01  0.11492798856E+02  0.72461534183E+02  0.69999952959E+02 0.  0.
        -12    1    1    2    0    0  0.14370424167E+02  0.34766371254E+01 -0.11492798856E+02  0.18726465817E+02  0.00000000000E+00 0.  1.
         11    1    3    3    0    0  0.62720553872E+01  0.98035978307E+00  0.32308332803E+02  0.32926101392E+02  0.51100000000E-03 0. -1.
        -11    1    3    3    0    0 -0.23122844154E+02 -0.11640802888E+02 -0.17474530510E+02  0.31233530548E+02  0.51100000000E-03 0.  1.
         12    1    3    3    0    0  0.24803646004E+01  0.71838059794E+01 -0.33410034367E+01  0.83019022438E+01  0.00000000000E+00 0. -1.
</event>
<event>
 7    1  0.1905073E-013  0.7246157E+02  0.7816164E-02  0.1226708E+00
        -11   -1    0    0    0    0  0.00000000000E+00  0.00000000000E+00  0.45593999997E+02  0.45594000000E+02  0.51100000000E-03 0.  1.
         11   -1    0    0    0    0 -0.00000000000E+00 -0.00000000000E+00 -0.45593999997E+02  0.45594000000E+02  0.51100000000E-03 0. -1.
    9900012    2    1    2    0    0  0.10609791331E+01  0.12124569118E+02 -0.14231946770E+02  0.72461570498E+02  0.70000000266E+02 0.  0.
        -12    1    1    2    0    0 -0.10609791331E+01 -0.12124569118E+02  0.14231946770E+02  0.18726429502E+02  0.00000000000E+00 0.  1.
         11    1    3    3    0    0 -0.91891523426E+01  0.29742679164E+02 -0.10733844215E+02  0.32928451171E+02  0.51100000000E-03 0. -1.
        -11    1    3    3    0    0 -0.62936064695E+01 -0.73693181886E+01  0.11445016085E+02  0.14996823877E+02  0.51100000000E-03 0.  1.
         12    1    3    3    0    0  0.16543737945E+02 -0.10248791858E+02 -0.14943118640E+02  0.24536295450E+02  0.00000000000E+00 0. -1.
</event>
<event>
 7    1  0.1905073E-013  0.7246143E+02  0.7816164E-02  0.1226708E+00
        -11   -1    0    0    0    0  0.00000000000E+00  0.00000000000E+00  0.45593999997E+02  0.45594000000E+02  0.51100000000E-03 0. -1.
         11   -1    0    0    0    0 -0.00000000000E+00 -0.00000000000E+00 -0.45593999997E+02  0.45594000000E+02  0.51100000000E-03 0.  1.
    9900012    2    1    2    0    0 -0.14969721528E+02  0.18187379552E+01  0.11103332544E+02  0.72461431602E+02  0.69999819328E+02 0.  0.
        -12    1    1    2    0    0  0.14969721528E+02 -0.18187379552E+01 -0.11103332544E+02  0.18726568398E+02  0.00000000000E+00 0.  1.
         11    1    3    3    0    0 -0.24470380404E+02  0.92388358127E+01 -0.38520077149E+01  0.26438486492E+02  0.51100000000E-03 0. -1.
        -11    1    3    3    0    0  0.10462044712E+02  0.15048443105E+02  0.14761179555E+02  0.23533007491E+02  0.51100000000E-03 0.  1.
        -12    1    3    3    0    0 -0.96138583555E+00 -0.22468540963E+02  0.19416070333E+00  0.22489937619E+02  0.00000000000E+00 0.  1.
</event>
<event>
 7    1  0.1905073E-013  0.7246158E+02  0.7816164E-02  0.1226708E+00
        -11   -1    0    0    0    0  0.00000000000E+00  0.00000000000E+00  0.45593999997E+02  0.45594000000E+02  0.51100000000E-03 0.  1.
         11   -1    0    0    0    0 -0.00000000000E+00 -0.00000000000E+00 -0.45593999997E+02  0.45594000000E+02  0.51100000000E-03 0. -1.
    9900012    2    1    2    0    0  0.11152187636E+01  0.97467741996E+01 -0.15951033905E+02  0.72461580085E+02  0.70000012754E+02 0.  0.
        -12    1    1    2    0    0 -0.11152187636E+01 -0.97467741996E+01  0.15951033905E+02  0.18726419915E+02  0.00000000000E+00 0.  1.
         11    1    3    3    0    0 -0.31583708776E+01 -0.24759647281E+02 -0.47983491361E+01  0.25417308960E+02  0.51100000000E-03 0. -1.
        -11    1    3    3    0    0 -0.60028335816E+01  0.29596756499E+02 -0.16554515841E+02  0.34439134735E+02  0.51100000000E-03 0.  1.
        -12    1    3    3    0    0  0.10276423223E+02  0.49096649816E+01  0.54018310713E+01  0.12605136390E+02  0.00000000000E+00 0.  1.
</event>
<event>
 7    1  0.1905073E-013  0.7246157E+02  0.7816164E-02  0.1226708E+00
        -11   -1    0    0    0    0  0.00000000000E+00  0.00000000000E+00  0.45593999997E+02  0.45594000000E+02  0.51100000000E-03 0. -1.
         11   -1    0    0    0    0 -0.00000000000E+00 -0.00000000000E+00 -0.45593999997E+02  0.45594000000E+02  0.51100000000E-03 0.  1.
    9900012    2    1    2    0    0 -0.11694052512E+02  0.14567171384E+02  0.13137062865E+01  0.72461570269E+02  0.69999999967E+02 0.  0.
        -12    1    1    2    0    0  0.11694052512E+02 -0.14567171384E+02 -0.13137062865E+01  0.18726429731E+02  0.00000000000E+00 0.  1.
         11    1    3    3    0    0 -0.25783034672E+02 -0.12389844667E+02  0.20732712327E+01  0.28680508741E+02  0.51100000000E-03 0. -1.
        -11    1    3    3    0    0 -0.66738926499E+01  0.20745824482E+02 -0.29796241363E+01  0.21995641313E+02  0.51100000000E-03 0.  1.
         12    1    3    3    0    0  0.20762874811E+02  0.62111915697E+01  0.22200591901E+01  0.21785420214E+02  0.00000000000E+00 0. -1.
</event>
<event>
 7    1  0.1905073E-013  0.7246156E+02  0.7816164E-02  0.1226708E+00
        -11   -1    0    0    0    0  0.00000000000E+00  0.00000000000E+00  0.45593999997E+02  0.45594000000E+02  0.51100000000E-03 0. -1.
         11   -1    0    0    0    0 -0.00000000000E+00 -0.00000000000E+00 -0.45593999997E+02  0.45594000000E+02  0.51100000000E-03 0.  1.
    9900012    2    1    2    0    0  0.59996613809E+01 -0.17698407585E+02  0.12040795771E+01  0.72461564799E+02  0.69999992841E+02 0.  0.
        -12    1    1    2    0    0 -0.59996613809E+01  0.17698407585E+02 -0.12040795771E+01  0.18726435201E+02  0.00000000000E+00 0.  1.
         11    1    3    3    0    0  0.22778309128E+02 -0.31555231788E+02  0.63554398473E+01  0.39433179378E+02  0.51100000000E-03 0. -1.
        -11    1    3    3    0    0 -0.26468991140E+00  0.27254241469E+01 -0.11737212057E+02  0.12052391657E+02  0.51100000000E-03 0.  1.
         12    1    3    3    0    0 -0.16513957836E+02  0.11131400056E+02  0.65858517866E+01  0.20975993764E+02  0.00000000000E+00 0. -1.
</event>
<event>
 7    1  0.1905073E-013  0.7246158E+02  0.7816164E-02  0.1226708E+00
        -11   -1    0    0    0    0  0.00000000000E+00  0.00000000000E+00  0.45593999997E+02  0.45594000000E+02  0.51100000000E-03 0.  1.
         11   -1    0    0    0    0 -0.00000000000E+00 -0.00000000000E+00 -0.45593999997E+02  0.45594000000E+02  0.51100000000E-03 0. -1.
    9900012    2    1    2    0    0  0.98576740882E+01  0.13485761119E+02 -0.84640017190E+01  0.72461579721E+02  0.70000012280E+02 0.  0.
        -12    1    1    2    0    0 -0.98576740882E+01 -0.13485761119E+02  0.84640017190E+01  0.18726420279E+02  0.00000000000E+00 0.  1.
         11    1    3    3    0    0  0.15961275550E+02 -0.15831623728E+02 -0.77775325769E+01  0.23788498067E+02  0.51100000000E-03 0. -1.
        -11    1    3    3    0    0 -0.70670422069E+01  0.31807133924E+02 -0.13731237947E+02  0.35357937579E+02  0.51100000000E-03 0.  1.
        -12    1    3    3    0    0  0.96344074476E+00 -0.24897490783E+01  0.13044768805E+02  0.13315144074E+02  0.00000000000E+00 0.  1.
</event>
<event>
 7    1  0.1905073E-013  0.7246155E+02  0.7816164E-02  0.1226708E+00
        -11   -1    0    0    0    0  0.00000000000E+00  0.00000000000E+00  0.45593999997E+02  0.45594000000E+02  0.51100000000E-03 0.  1.
         11   -1    0    0    0    0 -0.00000000000E+00 -0.00000000000E+00 -0.45593999997E+02  0.45594000000E+02  0.51100000000E-03 0. -1.
    9900012    2    1    2    0    0 -0.24378789792E+01  0.15446041116E+02 -0.10303229512E+02  0.72461548696E+02  0.69999971864E+02 0.  0.
        -12    1    1    2    0    0  0.24378789792E+01 -0.15446041116E+02  0.10303229512E+02  0.18726451304E+02  0.00000000000E+00 0.  1.
         11    1    3    3    0    0  0.12221058342E+02 -0.45344100850E+01 -0.14194350114E+02  0.19271603909E+02  0.51100000000E-03 0. -1.
        -11    1    3    3    0    0  0.11045982953E+02  0.20145515124E+02  0.12406388500E+02  0.26110802264E+02  0.51100000000E-03 0.  1.
         12    1    3    3    0    0 -0.25704920274E+02 -0.16506392302E+00 -0.85152678979E+01  0.27079142522E+02  0.00000000000E+00 0. -1.
</event>
<event>
 7    1  0.1905073E-013  0.7246155E+02  0.7816164E-02  0.1226708E+00
        -11   -1    0    0    0    0  0.00000000000E+00  0.00000000000E+00  0.45593999997E+02  0.45594000000E+02  0.51100000000E-03 0.  1.
         11   -1    0    0    0    0 -0.00000000000E+00 -0.00000000000E+00 -0.45593999997E+02  0.45594000000E+02  0.51100000000E-03 0. -1.
    9900012    2    1    2    0    0 -0.19375417867E+00 -0.13310552539E+02  0.13170863810E+02  0.72461548038E+02  0.69999971007E+02 0.  0.
        -12    1    1    2    0    0  0.19375417867E+00  0.13310552539E+02 -0.13170863810E+02  0.18726451962E+02  0.00000000000E+00 0.  1.
         11    1    3    3    0    0 -0.18423487365E+01 -0.65827603310E+01 -0.14917005658E+02  0.16408657487E+02  0.51100000000E-03 0. -1.
        -11    1    3    3    0    0  0.14643543229E+02 -0.17056673644E+02  0.31895833711E+02  0.39021887224E+02  0.51100000000E-03 0.  1.
        -12    1    3    3    0    0 -0.12994948671E+02  0.10328881436E+02 -0.38079642431E+01  0.17031003328E+02  0.00000000000E+00 0.  1.
</event>
<event>
 7    1  0.1905073E-013  0.7246150E+02  0.7816164E-02  0.1226708E+00
        -11   -1    0    0    0    0  0.00000000000E+00  0.00000000000E+00  0.45593999997E+02  0.45594000000E+02  0.51100000000E-03 0.  1.
         11   -1    0    0    0    0 -0.00000000000E+00 -0.00000000000E+00 -0.45593999997E+02  0.45594000000E+02  0.51100000000E-03 0. -1.
    9900012    2    1    2    0    0  0.13209315237E+02 -0.83214772912E+01 -0.10341607736E+02  0.72461498887E+02  0.69999906979E+02 0.  0.
        -12    1    1    2    0    0 -0.13209315237E+02  0.83214772912E+01  0.10341607736E+02  0.18726501113E+02  0.00000000000E+00 0.  1.
         11    1    3    3    0    0  0.34690563082E+02 -0.93760814079E+01 -0.32561807914E+01  0.36082527394E+02  0.51100000000E-03 0. -1.
        -11    1    3    3    0    0 -0.22728125236E+02 -0.86383791940E+01 -0.98327227137E+01  0.26227308441E+02  0.51100000000E-03 0.  1.
        -12    1    3    3    0    0  0.12468773905E+01  0.96929833107E+01  0.27472957687E+01  0.10151663052E+02  0.00000000000E+00 0.  1.
</event>
<event>
 7    1  0.1905073E-013  0.7246157E+02  0.7816164E-02  0.1226708E+00
        -11   -1    0    0    0    0  0.00000000000E+00  0.00000000000E+00  0.45593999997E+02  0.45594000000E+02  0.51100000000E-03 0. -1.
         11   -1    0    0    0    0 -0.00000000000E+00 -0.00000000000E+00 -0.45593999997E+02  0.45594000000E+02  0.51100000000E-03 0.  1.
    9900012    2    1    2    0    0  0.14651120615E+02 -0.11317910231E+02  0.28158209997E+01  0.72461567473E+02  0.69999996325E+02 0.  0.
        -12    1    1    2    0    0 -0.14651120615E+02  0.11317910231E+02 -0.28158209997E+01  0.18726432527E+02  0.00000000000E+00 0.  1.
         11    1    3    3    0    0  0.20536547692E+02  0.22738185989E+01  0.30891767614E+02  0.37164786408E+02  0.51100000000E-03 0. -1.
        -11    1    3    3    0    0  0.22695675073E+01 -0.35375105031E+01 -0.19067388718E+02  0.19525117925E+02  0.51100000000E-03 0.  1.
         12    1    3    3    0    0 -0.81549945844E+01 -0.10054218327E+02 -0.90085578967E+01  0.15771663140E+02  0.00000000000E+00 0. -1.
</event>
<event>
 7    1  0.1905073E-013  0.7246158E+02  0.7816164E-02  0.1226708E+00
        -11   -1    0    0    0    0  0.00000000000E+00  0.00000000000E+00  0.45593999997E+02  0.45594000000E+02  0.51100000000E-03 0. -1.
         11   -1    0    0    0    0 -0.00000000000E+00 -0.00000000000E+00 -0.45593999997E+02  0.45594000000E+02  0.51100000000E-03 0.  1.
    9900012    2    1    2    0    0 -0.45274867617E+01  0.87836099279E+01  0.15906875677E+02  0.72461584605E+02  0.70000018642E+02 0.  0.
        -12    1    1    2    0    0  0.45274867617E+01 -0.87836099279E+01 -0.15906875677E+02  0.18726415395E+02  0.00000000000E+00 0.  1.
         11    1    3    3    0    0  0.21520842438E+02 -0.37694428472E+01  0.44041645823E+01  0.22287934506E+02  0.51100000000E-03 0. -1.
        -11    1    3    3    0    0 -0.20274664584E+02  0.24375048207E+02  0.16929530804E+02  0.35941814264E+02  0.51100000000E-03 0.  1.
         12    1    3    3    0    0 -0.57736646155E+01 -0.11821995432E+02 -0.54268197090E+01  0.14231835835E+02  0.00000000000E+00 0. -1.
</event>
<event>
 7    1  0.1905073E-013  0.7246139E+02  0.7816164E-02  0.1226708E+00
        -11   -1    0    0    0    0  0.00000000000E+00  0.00000000000E+00  0.45593999997E+02  0.45594000000E+02  0.51100000000E-03 0. -1.
         11   -1    0    0    0    0 -0.00000000000E+00 -0.00000000000E+00 -0.45593999997E+02  0.45594000000E+02  0.51100000000E-03 0.  1.
    9900012    2    1    2    0    0 -0.45709516134E+01 -0.18155317809E+02  0.42041375811E+00  0.72461390293E+02  0.69999765515E+02 0.  0.
        -12    1    1    2    0    0  0.45709516134E+01  0.18155317809E+02 -0.42041375811E+00  0.18726609707E+02  0.00000000000E+00 0.  1.
         11    1    3    3    0    0 -0.17546968881E+02 -0.28636236053E+02  0.12862476228E+01  0.33609292843E+02  0.51100000000E-03 0.  1.
        -11    1    3    3    0    0  0.73518549756E+01  0.77333926289E+01  0.16916326596E+02  0.20000430968E+02  0.51100000000E-03 0. -1.
        -12    1    3    3    0    0  0.56241622918E+01  0.27475256151E+01 -0.17782160461E+02  0.18851666482E+02  0.00000000000E+00 0.  1.
</event>
<event>
 7    1  0.1905073E-013  0.7246158E+02  0.7816164E-02  0.1226708E+00
        -11   -1    0    0    0    0  0.00000000000E+00  0.00000000000E+00  0.45593999997E+02  0.45594000000E+02  0.51100000000E-03 0. -1.
         11   -1    0    0    0    0 -0.00000000000E+00 -0.00000000000E+00 -0.45593999997E+02  0.45594000000E+02  0.51100000000E-03 0.  1.
    9900012    2    1    2    0    0  0.37669235668E+01 -0.96971107713E+01  0.15570968240E+02  0.72461582232E+02  0.70000015552E+02 0.  0.
        -12    1    1    2    0    0 -0.37669235668E+01  0.96971107713E+01 -0.15570968240E+02  0.18726417768E+02  0.00000000000E+00 0.  1.
         11    1    3    3    0    0  0.23957875274E+02 -0.12661861642E+01  0.21714631224E+02  0.32359051663E+02  0.51100000000E-03 0. -1.
        -11    1    3    3    0    0 -0.17909500202E+02 -0.19896725209E+02 -0.86761140072E+01  0.28140803579E+02  0.51100000000E-03 0.  1.
        -12    1    3    3    0    0 -0.22814515053E+01  0.11465800602E+02  0.25324510230E+01  0.11961726991E+02  0.00000000000E+00 0.  1.
</event>
<event>
 7    1  0.1905073E-013  0.7246157E+02  0.7816164E-02  0.1226708E+00
        -11   -1    0    0    0    0  0.00000000000E+00  0.00000000000E+00  0.45593999997E+02  0.45594000000E+02  0.51100000000E-03 0.  1.
         11   -1    0    0    0    0 -0.00000000000E+00 -0.00000000000E+00 -0.45593999997E+02  0.45594000000E+02  0.51100000000E-03 0. -1.
    9900012    2    1    2    0    0  0.17589955840E+02 -0.41815882208E+01 -0.48772010639E+01  0.72461566364E+02  0.69999994881E+02 0.  0.
        -12    1    1    2    0    0 -0.17589955840E+02  0.41815882208E+01  0.48772010639E+01  0.18726433636E+02  0.00000000000E+00 0.  1.
         11    1    3    3    0    0  0.44278359438E+01  0.17490513652E+01  0.19153553143E+02  0.19736349968E+02  0.51100000000E-03 0.  1.
        -11    1    3    3    0    0  0.23802511550E+02  0.11446413427E+02 -0.15593847128E+02  0.30671615624E+02  0.51100000000E-03 0. -1.
         12    1    3    3    0    0 -0.10640391654E+02 -0.17377053013E+02 -0.84369070781E+01  0.22053600772E+02  0.00000000000E+00 0. -1.
</event>
<event>
 7    1  0.1905073E-013  0.7246159E+02  0.7816164E-02  0.1226708E+00
        -11   -1    0    0    0    0  0.00000000000E+00  0.00000000000E+00  0.45593999997E+02  0.45594000000E+02  0.51100000000E-03 0. -1.
         11   -1    0    0    0    0 -0.00000000000E+00 -0.00000000000E+00 -0.45593999997E+02  0.45594000000E+02  0.51100000000E-03 0.  1.
    9900012    2    1    2    0    0 -0.45509793277E+01 -0.13384385386E+02  0.12281099493E+02  0.72461585775E+02  0.70000020166E+02 0.  0.
        -12    1    1    2    0    0  0.45509793277E+01  0.13384385386E+02 -0.12281099493E+02  0.18726414225E+02  0.00000000000E+00 0.  1.
         11    1    3    3    0    0 -0.15152423006E+02  0.77290063361E+00  0.35274373284E+02  0.38398889427E+02  0.51100000000E-03 0. -1.
        -11    1    3    3    0    0 -0.44789853610E+01 -0.61975325730E+01 -0.43508557832E+01  0.87977648392E+01  0.51100000000E-03 0.  1.
         12    1    3    3    0    0  0.15080429039E+02 -0.79597534461E+01 -0.18642418009E+02  0.25264931509E+02  0.00000000000E+00 0. -1.
</event>
<event>
 7    1  0.1905073E-013  0.7246156E+02  0.7816164E-02  0.1226708E+00
        -11   -1    0    0    0    0  0.00000000000E+00  0.00000000000E+00  0.45593999997E+02  0.45594000000E+02  0.51100000000E-03 0.  1.
         11   -1    0    0    0    0 -0.00000000000E+00 -0.00000000000E+00 -0.45593999997E+02  0.45594000000E+02  0.51100000000E-03 0. -1.
    9900012    2    1    2    0    0 -0.10425799112E+02  0.15541342012E+02  0.67000693306E+00  0.72461561259E+02  0.69999988229E+02 0.  0.
        -12    1    1    2    0    0  0.10425799112E+02 -0.15541342012E+02 -0.67000693306E+00  0.18726438741E+02  0.00000000000E+00 0.  1.
         11    1    3    3    0    0 -0.56423531227E+00  0.65187685966E+01 -0.20726349860E+02  0.21734633290E+02  0.51100000000E-03 0. -1.
        -11    1    3    3    0    0  0.65386248287E+01  0.49895113139E+00  0.29735396168E+02  0.30449899054E+02  0.51100000000E-03 0.  1.
         12    1    3    3    0    0 -0.16400188628E+02  0.85236222836E+01 -0.83390393752E+01  0.20277028914E+02  0.00000000000E+00 0. -1.
</event>
<event>
 7    1  0.1905073E-013  0.7246157E+02  0.7816164E-02  0.1226708E+00
        -11   -1    0    0    0    0  0.00000000000E+00  0.00000000000E+00  0.45593999997E+02  0.45594000000E+02  0.51100000000E-03 0.  1.
         11   -1    0    0    0    0 -0.00000000000E+00 -0.00000000000E+00 -0.45593999997E+02  0.45594000000E+02  0.51100000000E-03 0. -1.
    9900012    2    1    2    0    0  0.34803329824E+01 -0.10635050478E+02 -0.15015397215E+02  0.72461570285E+02  0.69999999988E+02 0.  0.
        -12    1    1    2    0    0 -0.34803329824E+01  0.10635050478E+02  0.15015397215E+02  0.18726429715E+02  0.00000000000E+00 0.  1.
         11    1    3    3    0    0  0.44863187870E+01  0.24151792859E+02  0.33078967342E+00  0.24567164603E+02  0.51100000000E-03 0. -1.
        -11    1    3    3    0    0  0.17023864188E+01 -0.33630077826E+02 -0.14658019031E+01  0.33705026770E+02  0.51100000000E-03 0.  1.
         12    1    3    3    0    0 -0.27083722235E+01 -0.11567655119E+01 -0.13880384985E+02  0.14189378911E+02  0.00000000000E+00 0. -1.
</event>
<event>
 7    1  0.1905073E-013  0.7246157E+02  0.7816164E-02  0.1226708E+00
        -11   -1    0    0    0    0  0.00000000000E+00  0.00000000000E+00  0.45593999997E+02  0.45594000000E+02  0.51100000000E-03 0.  1.
         11   -1    0    0    0    0 -0.00000000000E+00 -0.00000000000E+00 -0.45593999997E+02  0.45594000000E+02  0.51100000000E-03 0. -1.
    9900012    2    1    2    0    0  0.63104539824E+01 -0.16576828278E+02 -0.60055072539E+01  0.72461569945E+02  0.69999999545E+02 0.  0.
        -12    1    1    2    0    0 -0.63104539824E+01  0.16576828278E+02  0.60055072539E+01  0.18726430055E+02  0.00000000000E+00 0.  1.
         11    1    3    3    0    0 -0.12983048323E+02  0.47196903040E+01 -0.25304133660E+02  0.28829398205E+02  0.51100000000E-03 0. -1.
        -11    1    3    3    0    0  0.31391688326E+01 -0.48668845211E+00  0.16881088029E+02  0.17177379891E+02  0.51100000000E-03 0.  1.
         12    1    3    3    0    0  0.16154333472E+02 -0.20809830130E+02  0.24175383768E+01  0.26454791849E+02  0.00000000000E+00 0. -1.
</event>
<event>
 7    1  0.1905073E-013  0.7246156E+02  0.7816164E-02  0.1226708E+00
        -11   -1    0    0    0    0  0.00000000000E+00  0.00000000000E+00  0.45593999997E+02  0.45594000000E+02  0.51100000000E-03 0.  1.
         11   -1    0    0    0    0 -0.00000000000E+00 -0.00000000000E+00 -0.45593999997E+02  0.45594000000E+02  0.51100000000E-03 0. -1.
    9900012    2    1    2    0    0  0.67208018795E+01 -0.24299185095E+01 -0.17309121630E+02  0.72461564849E+02  0.69999992907E+02 0.  0.
        -12    1    1    2    0    0 -0.67208018795E+01  0.24299185095E+01  0.17309121630E+02  0.18726435151E+02  0.00000000000E+00 0.  1.
         11    1    3    3    0    0  0.18795408195E+02  0.94435909182E+01 -0.20459489443E+02  0.29343474354E+02  0.51100000000E-03 0. -1.
        -11    1    3    3    0    0 -0.18689938799E+02 -0.96041299115E+01 -0.13556361731E+02  0.25006560485E+02  0.51100000000E-03 0.  1.
         12    1    3    3    0    0  0.66153324836E+01 -0.22693795162E+01  0.16706729544E+02  0.18111530010E+02  0.00000000000E+00 0. -1.
</event>
<event>
 7    1  0.1905073E-013  0.7246147E+02  0.7816164E-02  0.1226708E+00
        -11   -1    0    0    0    0  0.00000000000E+00  0.00000000000E+00  0.45593999997E+02  0.45594000000E+02  0.51100000000E-03 0.  1.
         11   -1    0    0    0    0 -0.00000000000E+00 -0.00000000000E+00 -0.45593999997E+02  0.45594000000E+02  0.51100000000E-03 0. -1.
    9900012    2    1    2    0    0  0.14674334079E+02 -0.11056299761E+02  0.36201040963E+01  0.72461468054E+02  0.69999866812E+02 0.  0.
        -12    1    1    2    0    0 -0.14674334079E+02  0.11056299761E+02 -0.36201040963E+01  0.18726531946E+02  0.00000000000E+00 0.  1.
         11    1    3    3    0    0 -0.14596135545E+02  0.15460160602E+02 -0.14752206396E+02  0.25878395091E+02  0.51100000000E-03 0. -1.
        -11    1    3    3    0    0  0.14162842120E+02 -0.14151249139E+02  0.18203742309E+02  0.27059567318E+02  0.51100000000E-03 0.  1.
         12    1    3    3    0    0  0.15107627504E+02 -0.12365211224E+02  0.16856818289E+00  0.19523505645E+02  0.00000000000E+00 0. -1.
</event>
<event>
 7    1  0.1905073E-013  0.7246162E+02  0.7816164E-02  0.1226708E+00
        -11   -1    0    0    0    0  0.00000000000E+00  0.00000000000E+00  0.45593999997E+02  0.45594000000E+02  0.51100000000E-03 0.  1.
         11   -1    0    0    0    0 -0.00000000000E+00 -0.00000000000E+00 -0.45593999997E+02  0.45594000000E+02  0.51100000000E-03 0. -1.
    9900012    2    1    2    0    0  0.17380885463E+02 -0.31113560451E+01 -0.62371075459E+01  0.72461622175E+02  0.70000067584E+02 0.  0.
        -12    1    1    2    0    0 -0.17380885463E+02  0.31113560451E+01  0.62371075459E+01  0.18726377825E+02  0.00000000000E+00 0.  1.
         11    1    3    3    0    0 -0.14580952037E+02 -0.14709302866E+02 -0.28333747124E+01  0.20904443681E+02  0.51100000000E-03 0. -1.
        -11    1    3    3    0    0  0.24113321412E+02  0.43453075031E+01  0.16099784989E+02  0.29317862197E+02  0.51100000000E-03 0.  1.
        -12    1    3    3    0    0  0.78485160881E+01  0.72526393181E+01 -0.19503517823E+02  0.22239316296E+02  0.00000000000E+00 0.  1.
</event>
<event>
 7    1  0.1905073E-013  0.7246152E+02  0.7816164E-02  0.1226708E+00
        -11   -1    0    0    0    0  0.00000000000E+00  0.00000000000E+00  0.45593999997E+02  0.45594000000E+02  0.51100000000E-03 0.  1.
         11   -1    0    0    0    0 -0.00000000000E+00 -0.00000000000E+00 -0.45593999997E+02  0.45594000000E+02  0.51100000000E-03 0. -1.
    9900012    2    1    2    0    0  0.15302510953E+01  0.17446144696E+02 -0.66310948706E+01  0.72461520023E+02  0.69999934512E+02 0.  0.
        -12    1    1    2    0    0 -0.15302510953E+01 -0.17446144696E+02  0.66310948706E+01  0.18726479977E+02  0.00000000000E+00 0.  1.
         11    1    3    3    0    0  0.28482833581E+02  0.93804533723E+01 -0.13245884694E+02  0.32782894562E+02  0.51100000000E-03 0. -1.
        -11    1    3    3    0    0 -0.59357849531E+01  0.14865713389E+02  0.72674151887E+01  0.17579485241E+02  0.51100000000E-03 0.  1.
         12    1    3    3    0    0 -0.21016797532E+02 -0.68000220654E+01 -0.65262536557E+00  0.22099140220E+02  0.00000000000E+00 0. -1.
</event>
<event>
 7    1  0.1905073E-013  0.7246156E+02  0.7816164E-02  0.1226708E+00
        -11   -1    0    0    0    0  0.00000000000E+00  0.00000000000E+00  0.45593999997E+02  0.45594000000E+02  0.51100000000E-03 0.  1.
         11   -1    0    0    0    0 -0.00000000000E+00 -0.00000000000E+00 -0.45593999997E+02  0.45594000000E+02  0.51100000000E-03 0. -1.
    9900012    2    1    2    0    0  0.17462493784E+02  0.35217596623E+00 -0.67540235776E+01  0.72461560094E+02  0.69999986712E+02 0.  0.
        -12    1    1    2    0    0 -0.17462493784E+02 -0.35217596623E+00  0.67540235776E+01  0.18726439906E+02  0.00000000000E+00 0.  1.
         11    1    3    3    0    0 -0.11030362429E+02 -0.14072522510E+02 -0.78892199169E+01  0.19543402372E+02  0.51100000000E-03 0.  1.
        -11    1    3    3    0    0  0.38435400333E+02  0.43080171122E+01 -0.14077826576E+00  0.38676334223E+02  0.51100000000E-03 0. -1.
        -12    1    3    3    0    0 -0.99425441195E+01  0.10116681364E+02  0.12759746050E+01  0.14241823499E+02  0.00000000000E+00 0.  1.
</event>
<event>
 7    1  0.1905073E-013  0.7246157E+02  0.7816164E-02  0.1226708E+00
        -11   -1    0    0    0    0  0.00000000000E+00  0.00000000000E+00  0.45593999997E+02  0.45594000000E+02  0.51100000000E-03 0. -1.
         11   -1    0    0    0    0 -0.00000000000E+00 -0.00000000000E+00 -0.45593999997E+02  0.45594000000E+02  0.51100000000E-03 0.  1.
    9900012    2    1    2    0    0  0.67992304762E+01  0.15390233084E+02  0.82213353565E+01  0.72461570428E+02  0.70000000174E+02 0.  0.
        -12    1    1    2    0    0 -0.67992304762E+01 -0.15390233084E+02 -0.82213353565E+01  0.18726429572E+02  0.00000000000E+00 0.  1.
         11    1    3    3    0    0 -0.34790995423E+01  0.45452378225E+01  0.41085241640E+01  0.70457995682E+01  0.51100000000E-03 0. -1.
        -11    1    3    3    0    0 -0.98068950318E+01 -0.16903912207E+02 -0.16379343258E+02  0.25499025940E+02  0.51100000000E-03 0.  1.
        -12    1    3    3    0    0  0.20085225050E+02  0.27748907469E+02  0.20492154450E+02  0.39916744920E+02  0.00000000000E+00 0.  1.
</event>
<event>
 7    1  0.1905073E-013  0.7246139E+02  0.7816164E-02  0.1226709E+00
        -11   -1    0    0    0    0  0.00000000000E+00  0.00000000000E+00  0.45593999997E+02  0.45594000000E+02  0.51100000000E-03 0. -1.
         11   -1    0    0    0    0 -0.00000000000E+00 -0.00000000000E+00 -0.45593999997E+02  0.45594000000E+02  0.51100000000E-03 0.  1.
    9900012    2    1    2    0    0  0.66591069532E+01  0.11839493567E+02  0.12890646409E+02  0.72461385833E+02  0.69999759704E+02 0.  0.
        -12    1    1    2    0    0 -0.66591069532E+01 -0.11839493567E+02 -0.12890646409E+02  0.18726614167E+02  0.00000000000E+00 0.  1.
         11    1    3    3    0    0 -0.19807940476E+02 -0.83108798988E+01  0.20496227664E+02  0.29690412245E+02  0.51100000000E-03 0. -1.
        -11    1    3    3    0    0  0.17841843185E+02  0.14522255357E+02 -0.17177637750E+02  0.28710599225E+02  0.51100000000E-03 0.  1.
         12    1    3    3    0    0  0.86252042434E+01  0.56281181081E+01  0.95720564951E+01  0.14060374363E+02  0.00000000000E+00 0. -1.
</event>
<event>
 7    1  0.1905073E-013  0.7246160E+02  0.7816164E-02  0.1226708E+00
        -11   -1    0    0    0    0  0.00000000000E+00  0.00000000000E+00  0.45593999997E+02  0.45594000000E+02  0.51100000000E-03 0. -1.
         11   -1    0    0    0    0 -0.00000000000E+00 -0.00000000000E+00 -0.45593999997E+02  0.45594000000E+02  0.51100000000E-03 0.  1.
    9900012    2    1    2    0    0  0.54812437661E+01 -0.13399696413E+02 -0.11877805823E+02  0.72461597025E+02  0.70000034822E+02 0.  0.
        -12    1    1    2    0    0 -0.54812437661E+01  0.13399696413E+02  0.11877805823E+02  0.18726402975E+02  0.00000000000E+00 0.  1.
         11    1    3    3    0    0  0.30213117327E+02 -0.34965385653E+01  0.96675419805E+01  0.31914254006E+02  0.51100000000E-03 0. -1.
        -11    1    3    3    0    0 -0.10903994869E+02  0.54812835578E+01 -0.25594181475E+01  0.12469650960E+02  0.51100000000E-03 0.  1.
         12    1    3    3    0    0 -0.13827878691E+02 -0.15384441406E+02 -0.18985929656E+02  0.28077692060E+02  0.00000000000E+00 0. -1.
</event>
<event>
 7    1  0.1905073E-013  0.7246159E+02  0.7816164E-02  0.1226708E+00
        -11   -1    0    0    0    0  0.00000000000E+00  0.00000000000E+00  0.45593999997E+02  0.45594000000E+02  0.51100000000E-03 0.  1.
         11   -1    0    0    0    0 -0.00000000000E+00 -0.00000000000E+00 -0.45593999997E+02  0.45594000000E+02  0.51100000000E-03 0. -1.
    9900012    2    1    2    0    0  0.10084614588E+02 -0.14318995795E+02 -0.66291389835E+01  0.72461586151E+02  0.70000020657E+02 0.  0.
        -12    1    1    2    0    0 -0.10084614588E+02  0.14318995795E+02  0.66291389835E+01  0.18726413849E+02  0.00000000000E+00 0.  1.
         11    1    3    3    0    0 -0.78824169136E+01 -0.39153468112E+01 -0.27912203738E+02  0.29266936205E+02  0.51100000000E-03 0. -1.
        -11    1    3    3    0    0  0.48067569970E+00 -0.21904754418E+01  0.23627586789E+02  0.23733775290E+02  0.51100000000E-03 0.  1.
         12    1    3    3    0    0  0.17486355802E+02 -0.82131735421E+01 -0.23445220345E+01  0.19460874657E+02  0.00000000000E+00 0. -1.
</event>
<event>
 7    1  0.1905073E-013  0.7246163E+02  0.7816164E-02  0.1226708E+00
        -11   -1    0    0    0    0  0.00000000000E+00  0.00000000000E+00  0.45593999997E+02  0.45594000000E+02  0.51100000000E-03 0. -1.
         11   -1    0    0    0    0 -0.00000000000E+00 -0.00000000000E+00 -0.45593999997E+02  0.45594000000E+02  0.51100000000E-03 0.  1.
    9900012    2    1    2    0    0  0.34015953336E+01 -0.43524381158E+01  0.17893076895E+02  0.72461634386E+02  0.70000083491E+02 0.  0.
        -12    1    1    2    0    0 -0.34015953336E+01  0.43524381158E+01 -0.17893076895E+02  0.18726365614E+02  0.00000000000E+00 0.  1.
         11    1    3    3    0    0  0.13193234443E+02 -0.94983993319E+01 -0.43034018004E+01  0.16816667097E+02  0.51100000000E-03 0. -1.
        -11    1    3    3    0    0 -0.28278005346E+02 -0.20745764827E+00  0.22897060410E+02  0.36386316118E+02  0.51100000000E-03 0.  1.
        -12    1    3    3    0    0  0.18486366236E+02  0.53534188644E+01 -0.70058171459E+00  0.19258651170E+02  0.00000000000E+00 0.  1.
</event>
<event>
 7    1  0.1905073E-013  0.7246157E+02  0.7816164E-02  0.1226708E+00
        -11   -1    0    0    0    0  0.00000000000E+00  0.00000000000E+00  0.45593999997E+02  0.45594000000E+02  0.51100000000E-03 0. -1.
         11   -1    0    0    0    0 -0.00000000000E+00 -0.00000000000E+00 -0.45593999997E+02  0.45594000000E+02  0.51100000000E-03 0.  1.
    9900012    2    1    2    0    0 -0.55347595714E+01 -0.17736602549E+02 -0.23363778493E+01  0.72461566945E+02  0.69999995637E+02 0.  0.
        -12    1    1    2    0    0  0.55347595714E+01  0.17736602549E+02  0.23363778493E+01  0.18726433055E+02  0.00000000000E+00 0.  1.
         11    1    3    3    0    0 -0.93156792343E+01 -0.21650276214E+02  0.10711275165E+02  0.25889143587E+02  0.51100000000E-03 0. -1.
        -11    1    3    3    0    0  0.10342005181E+00  0.22857580863E+02 -0.14743983517E+02  0.27200454938E+02  0.51100000000E-03 0.  1.
        -12    1    3    3    0    0  0.36774996111E+01 -0.18943907198E+02  0.16963305024E+01  0.19371968421E+02  0.00000000000E+00 0.  1.
</event>
<event>
 7    1  0.1905073E-013  0.7246160E+02  0.7816164E-02  0.1226708E+00
        -11   -1    0    0    0    0  0.00000000000E+00  0.00000000000E+00  0.45593999997E+02  0.45594000000E+02  0.51100000000E-03 0. -1.
         11   -1    0    0    0    0 -0.00000000000E+00 -0.00000000000E+00 -0.45593999997E+02  0.45594000000E+02  0.51100000000E-03 0.  1.
    9900012    2    1    2    0    0 -0.48724412977E+01 -0.11563489759E+02  0.13900469457E+02  0.72461600701E+02  0.70000039610E+02 0.  0.
        -12    1    1    2    0    0  0.48724412977E+01  0.11563489759E+02 -0.13900469457E+02  0.18726399299E+02  0.00000000000E+00 0.  1.
         11    1    3    3    0    0 -0.85868862570E+01  0.24157698470E+02 -0.60381981658E+01  0.26339871836E+02  0.51100000000E-03 0. -1.
        -11    1    3    3    0    0  0.19692678676E+01 -0.39880526296E+01 -0.42737538704E+01  0.61682697831E+01  0.51100000000E-03 0.  1.
         12    1    3    3    0    0  0.17451770917E+01 -0.31733135599E+02  0.24212421493E+02  0.39953459082E+02  0.00000000000E+00 0. -1.
</event>
<event>
 7    1  0.1905073E-013  0.7246160E+02  0.7816164E-02  0.1226708E+00
        -11   -1    0    0    0    0  0.00000000000E+00  0.00000000000E+00  0.45593999997E+02  0.45594000000E+02  0.51100000000E-03 0.  1.
         11   -1    0    0    0    0 -0.00000000000E+00 -0.00000000000E+00 -0.45593999997E+02  0.45594000000E+02  0.51100000000E-03 0. -1.
    9900012    2    1    2    0    0 -0.18564868956E+02 -0.54706645735E+00  0.23925546144E+01  0.72461602625E+02  0.70000042117E+02 0.  0.
        -12    1    1    2    0    0  0.18564868956E+02  0.54706645735E+00 -0.23925546144E+01  0.18726397375E+02  0.00000000000E+00 0.  1.
         11    1    3    3    0    0  0.46988486770E+01  0.12526557113E+02  0.11603750376E+02  0.17709907822E+02  0.51100000000E-03 0. -1.
        -11    1    3    3    0    0 -0.58166461235E+01 -0.23422749131E+02 -0.20385915420E+02  0.31591835919E+02  0.51100000000E-03 0.  1.
        -12    1    3    3    0    0 -0.17447071509E+02  0.10349125560E+02  0.11174719658E+02  0.23159858884E+02  0.00000000000E+00 0.  1.
</event>
<event>
 7    1  0.1905073E-013  0.7246156E+02  0.7816164E-02  0.1226708E+00
        -11   -1    0    0    0    0  0.00000000000E+00  0.00000000000E+00  0.45593999997E+02  0.45594000000E+02  0.51100000000E-03 0.  1.
         11   -1    0    0    0    0 -0.00000000000E+00 -0.00000000000E+00 -0.45593999997E+02  0.45594000000E+02  0.51100000000E-03 0. -1.
    9900012    2    1    2    0    0  0.86076652941E+01 -0.82488494103E+01 -0.14441052615E+02  0.72461563632E+02  0.69999991322E+02 0.  0.
        -12    1    1    2    0    0 -0.86076652941E+01  0.82488494103E+01  0.14441052615E+02  0.18726436368E+02  0.00000000000E+00 0.  1.
         11    1    3    3    0    0  0.35674485170E+01  0.18790676953E+02 -0.29649206122E+02  0.35283022166E+02  0.51100000000E-03 0. -1.
        -11    1    3    3    0    0 -0.44925671014E+01 -0.21835411090E+02  0.63952422864E+01  0.23191969748E+02  0.51100000000E-03 0.  1.
        -12    1    3    3    0    0  0.95327838785E+01 -0.52041152732E+01  0.88129112208E+01  0.13986571718E+02  0.00000000000E+00 0.  1.
</event>
<event>
 7    1  0.1905073E-013  0.7246146E+02  0.7816164E-02  0.1226708E+00
        -11   -1    0    0    0    0  0.00000000000E+00  0.00000000000E+00  0.45593999997E+02  0.45594000000E+02  0.51100000000E-03 0.  1.
         11   -1    0    0    0    0 -0.00000000000E+00 -0.00000000000E+00 -0.45593999997E+02  0.45594000000E+02  0.51100000000E-03 0. -1.
    9900012    2    1    2    0    0 -0.26824870286E+01 -0.12559537934E+02 -0.13628856376E+02  0.72461455848E+02  0.69999850912E+02 0.  0.
        -12    1    1    2    0    0  0.26824870286E+01  0.12559537934E+02  0.13628856376E+02  0.18726544152E+02  0.00000000000E+00 0.  1.
         11    1    3    3    0    0 -0.90579454882E+01  0.13304581129E+02  0.12290438001E+02  0.20251249888E+02  0.51100000000E-03 0. -1.
        -11    1    3    3    0    0  0.12834674666E+02 -0.11363302026E+02  0.46528601270E+01  0.17762393260E+02  0.51100000000E-03 0.  1.
         12    1    3    3    0    0 -0.64592162067E+01 -0.14500817038E+02 -0.30572154504E+02  0.34447812700E+02  0.00000000000E+00 0. -1.
</event>
<event>
 7    1  0.1905073E-013  0.7246157E+02  0.7816164E-02  0.1226708E+00
        -11   -1    0    0    0    0  0.00000000000E+00  0.00000000000E+00  0.45593999997E+02  0.45594000000E+02  0.51100000000E-03 0. -1.
         11   -1    0    0    0    0 -0.00000000000E+00 -0.00000000000E+00 -0.45593999997E+02  0.45594000000E+02  0.51100000000E-03 0.  1.
    9900012    2    1    2    0    0 -0.12113406706E+02 -0.11601870442E+02  0.83271434526E+01  0.72461565800E+02  0.69999994145E+02 0.  0.
        -12    1    1    2    0    0  0.12113406706E+02  0.11601870442E+02 -0.83271434526E+01  0.18726434200E+02  0.00000000000E+00 0.  1.
         11    1    3    3    0    0  0.51413302892E+01  0.35206776649E+01  0.15702588183E+02  0.16893777679E+02  0.51100000000E-03 0. -1.
        -11    1    3    3    0    0 -0.16747406498E+02  0.12410516062E+02 -0.16471112248E+02  0.26566785133E+02  0.51100000000E-03 0.  1.
        -12    1    3    3    0    0 -0.50733049662E+00 -0.27533064169E+02  0.90956675178E+01  0.29001002989E+02  0.00000000000E+00 0.  1.
</event>
<event>
 7    1  0.1905073E-013  0.7246165E+02  0.7816164E-02  0.1226708E+00
        -11   -1    0    0    0    0  0.00000000000E+00  0.00000000000E+00  0.45593999997E+02  0.45594000000E+02  0.51100000000E-03 0.  1.
         11   -1    0    0    0    0 -0.00000000000E+00 -0.00000000000E+00 -0.45593999997E+02  0.45594000000E+02  0.51100000000E-03 0. -1.
    9900012    2    1    2    0    0 -0.14865564350E+02 -0.94218539700E+01 -0.63968614973E+01  0.72461650310E+02  0.70000104235E+02 0.  0.
        -12    1    1    2    0    0  0.14865564350E+02  0.94218539700E+01  0.63968614973E+01  0.18726349690E+02  0.00000000000E+00 0.  1.
         11    1    3    3    0    0  0.96009572105E+01 -0.14608339085E+02  0.14954388729E+02  0.23004688494E+02  0.51100000000E-03 0. -1.
        -11    1    3    3    0    0 -0.18327188190E+02  0.33557627701E+01  0.73650259046E+01  0.20034734277E+02  0.51100000000E-03 0.  1.
         12    1    3    3    0    0 -0.61393333708E+01  0.18307223449E+01 -0.28716276131E+02  0.29422227539E+02  0.00000000000E+00 0. -1.
</event>
<event>
 7    1  0.1905073E-013  0.7246154E+02  0.7816164E-02  0.1226708E+00
        -11   -1    0    0    0    0  0.00000000000E+00  0.00000000000E+00  0.45593999997E+02  0.45594000000E+02  0.51100000000E-03 0.  1.
         11   -1    0    0    0    0 -0.00000000000E+00 -0.00000000000E+00 -0.45593999997E+02  0.45594000000E+02  0.51100000000E-03 0. -1.
    9900012    2    1    2    0    0  0.55824027986E+01  0.14295161256E+02 -0.10731509405E+02  0.72461544103E+02  0.69999965881E+02 0.  0.
        -12    1    1    2    0    0 -0.55824027986E+01 -0.14295161256E+02  0.10731509405E+02  0.18726455897E+02  0.00000000000E+00 0.  1.
         11    1    3    3    0    0 -0.96256093139E+00  0.22783761193E+02 -0.14838610574E+02  0.27206812780E+02  0.51100000000E-03 0. -1.
        -11    1    3    3    0    0  0.16843029095E+02  0.69521792472E+01  0.15116274590E+02  0.23675349694E+02  0.51100000000E-03 0.  1.
        -12    1    3    3    0    0 -0.10298065365E+02 -0.15440779184E+02 -0.11009173421E+02  0.21579381629E+02  0.00000000000E+00 0.  1.
</event>
<event>
 7    1  0.1905073E-013  0.7246161E+02  0.7816164E-02  0.1226708E+00
        -11   -1    0    0    0    0  0.00000000000E+00  0.00000000000E+00  0.45593999997E+02  0.45594000000E+02  0.51100000000E-03 0.  1.
         11   -1    0    0    0    0 -0.00000000000E+00 -0.00000000000E+00 -0.45593999997E+02  0.45594000000E+02  0.51100000000E-03 0. -1.
    9900012    2    1    2    0    0  0.17795104524E+02  0.36185326104E+01  0.45736561148E+01  0.72461605432E+02  0.70000045773E+02 0.  0.
        -12    1    1    2    0    0 -0.17795104524E+02 -0.36185326104E+01 -0.45736561148E+01  0.18726394568E+02  0.00000000000E+00 0.  1.
         11    1    3    3    0    0  0.19578520471E+02 -0.20079809779E+01  0.20954026869E+02  0.28747551091E+02  0.51100000000E-03 0.  1.
        -11    1    3    3    0    0  0.10288915354E+02  0.14547848016E+02 -0.21435756552E+02  0.27874599912E+02  0.51100000000E-03 0. -1.
        -12    1    3    3    0    0 -0.12072331302E+02 -0.89213344274E+01  0.50553857978E+01  0.15839454428E+02  0.00000000000E+00 0.  1.
</event>
<event>
 7    1  0.1905073E-013  0.7246149E+02  0.7816164E-02  0.1226708E+00
        -11   -1    0    0    0    0  0.00000000000E+00  0.00000000000E+00  0.45593999997E+02  0.45594000000E+02  0.51100000000E-03 0.  1.
         11   -1    0    0    0    0 -0.00000000000E+00 -0.00000000000E+00 -0.45593999997E+02  0.45594000000E+02  0.51100000000E-03 0. -1.
    9900012    2    1    2    0    0 -0.12617017453E+02 -0.11777866061E+02  0.72646401217E+01  0.72461487926E+02  0.69999892700E+02 0.  0.
        -12    1    1    2    0    0  0.12617017453E+02  0.11777866061E+02 -0.72646401217E+01  0.18726512074E+02  0.00000000000E+00 0.  1.
         11    1    3    3    0    0 -0.90241431410E+01 -0.19137373867E+02 -0.11208798680E+02  0.23943922111E+02  0.51100000000E-03 0. -1.
        -11    1    3    3    0    0 -0.14302240966E+02  0.20437170033E+02  0.19382864192E+02  0.31589989556E+02  0.51100000000E-03 0.  1.
        -12    1    3    3    0    0  0.10709366654E+02 -0.13077662227E+02 -0.90942539071E+00  0.16927576259E+02  0.00000000000E+00 0.  1.
</event>
<event>
 7    1  0.1905073E-013  0.7246156E+02  0.7816164E-02  0.1226708E+00
        -11   -1    0    0    0    0  0.00000000000E+00  0.00000000000E+00  0.45593999997E+02  0.45594000000E+02  0.51100000000E-03 0. -1.
         11   -1    0    0    0    0 -0.00000000000E+00 -0.00000000000E+00 -0.45593999997E+02  0.45594000000E+02  0.51100000000E-03 0.  1.
    9900012    2    1    2    0    0  0.77442014139E+01  0.10097703693E+02  0.13738385817E+02  0.72461560930E+02  0.69999987801E+02 0.  0.
        -12    1    1    2    0    0 -0.77442014139E+01 -0.10097703693E+02 -0.13738385817E+02  0.18726439070E+02  0.00000000000E+00 0.  1.
         11    1    3    3    0    0  0.14237928102E+02 -0.12211276367E+02  0.32717350919E+02  0.37712848190E+02  0.51100000000E-03 0. -1.
        -11    1    3    3    0    0 -0.25311912734E+00  0.72970834562E+01 -0.16835519778E+02  0.18350646384E+02  0.51100000000E-03 0.  1.
         12    1    3    3    0    0 -0.62406075611E+01  0.15011896603E+02 -0.21434453238E+01  0.16398066356E+02  0.00000000000E+00 0. -1.
</event>
<event>
 7    1  0.1905073E-013  0.7246157E+02  0.7816164E-02  0.1226708E+00
        -11   -1    0    0    0    0  0.00000000000E+00  0.00000000000E+00  0.45593999997E+02  0.45594000000E+02  0.51100000000E-03 0.  1.
         11   -1    0    0    0    0 -0.00000000000E+00 -0.00000000000E+00 -0.45593999997E+02  0.45594000000E+02  0.51100000000E-03 0. -1.
    9900012    2    1    2    0    0  0.86814321706E+01 -0.15712465931E+02 -0.53320158430E+01  0.72461568330E+02  0.69999997441E+02 0.  0.
        -12    1    1    2    0    0 -0.86814321706E+01  0.15712465931E+02  0.53320158430E+01  0.18726431670E+02  0.00000000000E+00 0.  1.
         11    1    3    3    0    0  0.64351067618E+00  0.94118638261E+01  0.10218596330E+01  0.94890191296E+01  0.51100000000E-03 0. -1.
        -11    1    3    3    0    0 -0.15014186913E+02 -0.30447689995E+02 -0.15866348812E+02  0.37473039103E+02  0.51100000000E-03 0.  1.
        -12    1    3    3    0    0  0.23052108407E+02  0.53233602384E+01  0.95124733363E+01  0.25499510097E+02  0.00000000000E+00 0.  1.
</event>
<event>
 7    1  0.1905073E-013  0.7246156E+02  0.7816164E-02  0.1226708E+00
        -11   -1    0    0    0    0  0.00000000000E+00  0.00000000000E+00  0.45593999997E+02  0.45594000000E+02  0.51100000000E-03 0.  1.
         11   -1    0    0    0    0 -0.00000000000E+00 -0.00000000000E+00 -0.45593999997E+02  0.45594000000E+02  0.51100000000E-03 0. -1.
    9900012    2    1    2    0    0 -0.55948051674E+01 -0.31769982932E+01 -0.17586482137E+02  0.72461561018E+02  0.69999987915E+02 0.  0.
        -12    1    1    2    0    0  0.55948051674E+01  0.31769982932E+01  0.17586482137E+02  0.18726438982E+02  0.00000000000E+00 0.  1.
         11    1    3    3    0    0 -0.32416582083E+02  0.68457987111E+01  0.35320486101E+01  0.33319290533E+02  0.51100000000E-03 0. -1.
        -11    1    3    3    0    0  0.26126199436E+02 -0.12104273616E+02 -0.14639834974E+02  0.32301958224E+02  0.51100000000E-03 0.  1.
         12    1    3    3    0    0  0.69557747936E+00  0.20814766115E+01 -0.64786957726E+01  0.68403122610E+01  0.00000000000E+00 0. -1.
</event>
<event>
 7    1  0.1905073E-013  0.7246136E+02  0.7816164E-02  0.1226709E+00
        -11   -1    0    0    0    0  0.00000000000E+00  0.00000000000E+00  0.45593999997E+02  0.45594000000E+02  0.51100000000E-03 0. -1.
         11   -1    0    0    0    0 -0.00000000000E+00 -0.00000000000E+00 -0.45593999997E+02  0.45594000000E+02  0.51100000000E-03 0.  1.
    9900012    2    1    2    0    0 -0.96405227685E+01  0.15920273753E+02 -0.20717781589E+01  0.72461359608E+02  0.69999725541E+02 0.  0.
        -12    1    1    2    0    0  0.96405227685E+01 -0.15920273753E+02  0.20717781589E+01  0.18726640392E+02  0.00000000000E+00 0.  1.
         11    1    3    3    0    0  0.93483081333E+01 -0.12216363737E+01  0.13421142931E+01  0.95228426125E+01  0.51100000000E-03 0. -1.
        -11    1    3    3    0    0 -0.18611636442E+02  0.24958344512E+02 -0.25031193890E+02  0.39948374681E+02  0.51100000000E-03 0.  1.
        -12    1    3    3    0    0 -0.37719446028E+00 -0.78164343853E+01  0.21617301438E+02  0.22990142314E+02  0.00000000000E+00 0.  1.
</event>
<event>
 7    1  0.1905073E-013  0.7246157E+02  0.7816164E-02  0.1226708E+00
        -11   -1    0    0    0    0  0.00000000000E+00  0.00000000000E+00  0.45593999997E+02  0.45594000000E+02  0.51100000000E-03 0.  1.
         11   -1    0    0    0    0 -0.00000000000E+00 -0.00000000000E+00 -0.45593999997E+02  0.45594000000E+02  0.51100000000E-03 0. -1.
    9900012    2    1    2    0    0 -0.13837815354E+01 -0.91294001765E+01 -0.16291671419E+02  0.72461565301E+02  0.69999993495E+02 0.  0.
        -12    1    1    2    0    0  0.13837815354E+01  0.91294001765E+01  0.16291671419E+02  0.18726434699E+02  0.00000000000E+00 0.  1.
         11    1    3    3    0    0 -0.34451756551E+01  0.11670798580E+02 -0.33433196725E+02  0.35578861959E+02  0.51100000000E-03 0. -1.
        -11    1    3    3    0    0 -0.11193894361E+02 -0.12998811601E+02  0.10626826353E+02  0.20179242122E+02  0.51100000000E-03 0.  1.
         12    1    3    3    0    0  0.13255288481E+02 -0.78013871557E+01  0.65146989533E+01  0.16703461220E+02  0.00000000000E+00 0. -1.
</event>
<event>
 7    1  0.1905073E-013  0.7246151E+02  0.7816164E-02  0.1226708E+00
        -11   -1    0    0    0    0  0.00000000000E+00  0.00000000000E+00  0.45593999997E+02  0.45594000000E+02  0.51100000000E-03 0.  1.
         11   -1    0    0    0    0 -0.00000000000E+00 -0.00000000000E+00 -0.45593999997E+02  0.45594000000E+02  0.51100000000E-03 0. -1.
    9900012    2    1    2    0    0 -0.38037331715E+01  0.17473067433E+02 -0.55592330312E+01  0.72461506910E+02  0.69999917430E+02 0.  0.
        -12    1    1    2    0    0  0.38037331715E+01 -0.17473067433E+02  0.55592330312E+01  0.18726493090E+02  0.00000000000E+00 0.  1.
         11    1    3    3    0    0 -0.14799360498E+02  0.18102471658E+02 -0.11119293087E+02  0.25891296420E+02  0.51100000000E-03 0. -1.
        -11    1    3    3    0    0  0.18132891621E+02  0.15915362234E+02  0.12607758250E+02  0.27222345269E+02  0.51100000000E-03 0.  1.
        -12    1    3    3    0    0 -0.71372642944E+01 -0.16544766459E+02 -0.70476981947E+01  0.19347865221E+02  0.00000000000E+00 0.  1.
</event>
<event>
 7    1  0.1905073E-013  0.7246156E+02  0.7816164E-02  0.1226708E+00
        -11   -1    0    0    0    0  0.00000000000E+00  0.00000000000E+00  0.45593999997E+02  0.45594000000E+02  0.51100000000E-03 0.  1.
         11   -1    0    0    0    0 -0.00000000000E+00 -0.00000000000E+00 -0.45593999997E+02  0.45594000000E+02  0.51100000000E-03 0. -1.
    9900012    2    1    2    0    0  0.13304987482E+01  0.11028733657E+02 -0.15075685645E+02  0.72461561720E+02  0.69999988830E+02 0.  0.
        -12    1    1    2    0    0 -0.13304987482E+01 -0.11028733657E+02  0.15075685645E+02  0.18726438280E+02  0.00000000000E+00 0.  1.
         11    1    3    3    0    0 -0.19536321260E+02  0.29679313901E+01 -0.33493449892E+02  0.38888142807E+02  0.51100000000E-03 0. -1.
        -11    1    3    3    0    0  0.18025241962E+02  0.49355642909E+01  0.47713013741E+01  0.19288194828E+02  0.51100000000E-03 0.  1.
        -12    1    3    3    0    0  0.28415780454E+01  0.31252379761E+01  0.13646462873E+02  0.14285224084E+02  0.00000000000E+00 0.  1.
</event>
<event>
 7    1  0.1905073E-013  0.7246157E+02  0.7816164E-02  0.1226708E+00
        -11   -1    0    0    0    0  0.00000000000E+00  0.00000000000E+00  0.45593999997E+02  0.45594000000E+02  0.51100000000E-03 0. -1.
         11   -1    0    0    0    0 -0.00000000000E+00 -0.00000000000E+00 -0.45593999997E+02  0.45594000000E+02  0.51100000000E-03 0.  1.
    9900012    2    1    2    0    0 -0.15899171300E+02  0.64491889464E+01 -0.75035606409E+01  0.72461571926E+02  0.70000002126E+02 0.  0.
        -12    1    1    2    0    0  0.15899171300E+02 -0.64491889464E+01  0.75035606409E+01  0.18726428074E+02  0.00000000000E+00 0.  1.
         11    1    3    3    0    0  0.18517390133E+02  0.30820224884E+01  0.14588947515E+02  0.23774566028E+02  0.51100000000E-03 0. -1.
        -11    1    3    3    0    0 -0.21242518567E+02 -0.10780751116E+02 -0.96794954229E+01  0.25713067137E+02  0.51100000000E-03 0.  1.
         12    1    3    3    0    0 -0.13174042866E+02  0.14147917574E+02 -0.12413012733E+02  0.22973938761E+02  0.00000000000E+00 0. -1.
</event>
<event>
 7    1  0.1905073E-013  0.7246162E+02  0.7816164E-02  0.1226708E+00
        -11   -1    0    0    0    0  0.00000000000E+00  0.00000000000E+00  0.45593999997E+02  0.45594000000E+02  0.51100000000E-03 0. -1.
         11   -1    0    0    0    0 -0.00000000000E+00 -0.00000000000E+00 -0.45593999997E+02  0.45594000000E+02  0.51100000000E-03 0.  1.
    9900012    2    1    2    0    0  0.12280908984E+02  0.73181402666E+01  0.12095517332E+02  0.72461616420E+02  0.70000060087E+02 0.  0.
        -12    1    1    2    0    0 -0.12280908984E+02 -0.73181402666E+01 -0.12095517332E+02  0.18726383580E+02  0.00000000000E+00 0.  1.
         11    1    3    3    0    0  0.23759781690E+02 -0.14601573005E+02 -0.12554473693E+01  0.27916111988E+02  0.51100000000E-03 0.  1.
        -11    1    3    3    0    0 -0.18805684870E+02  0.28664977330E+01  0.14768765887E+02  0.24082920063E+02  0.51100000000E-03 0. -1.
        -12    1    3    3    0    0  0.73268121640E+01  0.19053215539E+02 -0.14178011854E+01  0.20462584369E+02  0.00000000000E+00 0.  1.
</event>
<event>
 7    1  0.1905073E-013  0.7246173E+02  0.7816164E-02  0.1226708E+00
        -11   -1    0    0    0    0  0.00000000000E+00  0.00000000000E+00  0.45593999997E+02  0.45594000000E+02  0.51100000000E-03 0.  1.
         11   -1    0    0    0    0 -0.00000000000E+00 -0.00000000000E+00 -0.45593999997E+02  0.45594000000E+02  0.51100000000E-03 0. -1.
    9900012    2    1    2    0    0  0.12475321256E+02 -0.69181288070E+01 -0.12131729743E+02  0.72461734671E+02  0.70000214131E+02 0.  0.
        -12    1    1    2    0    0 -0.12475321256E+02  0.69181288070E+01  0.12131729743E+02  0.18726265329E+02  0.00000000000E+00 0.  1.
         11    1    3    3    0    0  0.11584873518E+02 -0.26543776028E+02 -0.24693441984E+01  0.29066802392E+02  0.51100000000E-03 0. -1.
        -11    1    3    3    0    0  0.32444036648E+01  0.14875509643E+02  0.13061922625E+02  0.20060427842E+02  0.51100000000E-03 0.  1.
        -12    1    3    3    0    0 -0.23539559275E+01  0.47501375783E+01 -0.22724308170E+02  0.23334504437E+02  0.00000000000E+00 0.  1.
</event>
<event>
 7    1  0.1905073E-013  0.7246153E+02  0.7816164E-02  0.1226708E+00
        -11   -1    0    0    0    0  0.00000000000E+00  0.00000000000E+00  0.45593999997E+02  0.45594000000E+02  0.51100000000E-03 0.  1.
         11   -1    0    0    0    0 -0.00000000000E+00 -0.00000000000E+00 -0.45593999997E+02  0.45594000000E+02  0.51100000000E-03 0. -1.
    9900012    2    1    2    0    0  0.63843829721E+01 -0.38602907457E+01 -0.17176106474E+02  0.72461526115E+02  0.69999942448E+02 0.  0.
        -12    1    1    2    0    0 -0.63843829721E+01  0.38602907457E+01  0.17176106474E+02  0.18726473885E+02  0.00000000000E+00 0.  1.
         11    1    3    3    0    0 -0.67549774330E+01  0.15107664463E+02 -0.69229568847E+01  0.17938745161E+02  0.51100000000E-03 0. -1.
        -11    1    3    3    0    0  0.80163634770E+01 -0.35374825275E+02 -0.84281578165E+01  0.37238074481E+02  0.51100000000E-03 0.  1.
         12    1    3    3    0    0  0.51229969281E+01  0.16406870066E+02 -0.18249917724E+01  0.17284706473E+02  0.00000000000E+00 0. -1.
</event>
<event>
 7    1  0.1905073E-013  0.7246155E+02  0.7816164E-02  0.1226708E+00
        -11   -1    0    0    0    0  0.00000000000E+00  0.00000000000E+00  0.45593999997E+02  0.45594000000E+02  0.51100000000E-03 0.  1.
         11   -1    0    0    0    0 -0.00000000000E+00 -0.00000000000E+00 -0.45593999997E+02  0.45594000000E+02  0.51100000000E-03 0. -1.
    9900012    2    1    2    0    0 -0.17084680898E+02  0.70459733253E+01  0.30245412963E+01  0.72461550482E+02  0.69999974191E+02 0.  0.
        -12    1    1    2    0    0  0.17084680898E+02 -0.70459733253E+01 -0.30245412963E+01  0.18726449518E+02  0.00000000000E+00 0.  1.
         11    1    3    3    0    0  0.11899874896E+02  0.57462387896E+01 -0.34388062567E+01  0.13654730737E+02  0.51100000000E-03 0. -1.
        -11    1    3    3    0    0 -0.25544246997E+02  0.74300837296E+01  0.26514116981E+02  0.37559460838E+02  0.51100000000E-03 0.  1.
        -12    1    3    3    0    0 -0.34403087975E+01 -0.61303491939E+01 -0.20050769428E+02  0.21247358907E+02  0.00000000000E+00 0.  1.
</event>
<event>
 7    1  0.1905073E-013  0.7246161E+02  0.7816164E-02  0.1226708E+00
        -11   -1    0    0    0    0  0.00000000000E+00  0.00000000000E+00  0.45593999997E+02  0.45594000000E+02  0.51100000000E-03 0. -1.
         11   -1    0    0    0    0 -0.00000000000E+00 -0.00000000000E+00 -0.45593999997E+02  0.45594000000E+02  0.51100000000E-03 0.  1.
    9900012    2    1    2    0    0 -0.79771854620E+01 -0.73651746721E+01  0.15257661352E+02  0.72461614450E+02  0.70000057521E+02 0.  0.
        -12    1    1    2    0    0  0.79771854620E+01  0.73651746721E+01 -0.15257661352E+02  0.18726385550E+02  0.00000000000E+00 0.  1.
         11    1    3    3    0    0  0.25508097073E+02  0.75705945979E+01  0.62061582417E+01  0.27322029925E+02  0.51100000000E-03 0. -1.
        -11    1    3    3    0    0 -0.11048905571E+02 -0.14111052807E+01 -0.81479294835E+01  0.13800662577E+02  0.51100000000E-03 0.  1.
         12    1    3    3    0    0 -0.22436376964E+02 -0.13524663989E+02  0.17199432594E+02  0.31338921948E+02  0.00000000000E+00 0. -1.
</event>
<event>
 7    1  0.1905073E-013  0.7246156E+02  0.7816164E-02  0.1226708E+00
        -11   -1    0    0    0    0  0.00000000000E+00  0.00000000000E+00  0.45593999997E+02  0.45594000000E+02  0.51100000000E-03 0.  1.
         11   -1    0    0    0    0 -0.00000000000E+00 -0.00000000000E+00 -0.45593999997E+02  0.45594000000E+02  0.51100000000E-03 0. -1.
    9900012    2    1    2    0    0 -0.49228490802E+01 -0.98076556122E+01 -0.15174154423E+02  0.72461561094E+02  0.69999988014E+02 0.  0.
        -12    1    1    2    0    0  0.49228490802E+01  0.98076556122E+01  0.15174154423E+02  0.18726438906E+02  0.00000000000E+00 0.  1.
         11    1    3    3    0    0 -0.15429104083E+02 -0.32325258617E+02 -0.99177618399E+01  0.37166404152E+02  0.51100000000E-03 0. -1.
        -11    1    3    3    0    0  0.57981693103E+01  0.24395226721E+02  0.33595449459E+01  0.25298861567E+02  0.51100000000E-03 0.  1.
         12    1    3    3    0    0  0.47080856922E+01 -0.18776237164E+01 -0.86159375287E+01  0.99962953740E+01  0.00000000000E+00 0. -1.
</event>
<event>
 7    1  0.1905073E-013  0.7246154E+02  0.7816164E-02  0.1226708E+00
        -11   -1    0    0    0    0  0.00000000000E+00  0.00000000000E+00  0.45593999997E+02  0.45594000000E+02  0.51100000000E-03 0. -1.
         11   -1    0    0    0    0 -0.00000000000E+00 -0.00000000000E+00 -0.45593999997E+02  0.45594000000E+02  0.51100000000E-03 0.  1.
    9900012    2    1    2    0    0  0.26832326744E+01  0.65758777931E+01  0.17327393781E+02  0.72461535262E+02  0.69999954364E+02 0.  0.
        -12    1    1    2    0    0 -0.26832326744E+01 -0.65758777931E+01 -0.17327393781E+02  0.18726464738E+02  0.00000000000E+00 0.  1.
         11    1    3    3    0    0  0.31824567093E+02 -0.12057434345E+02  0.72224600865E+01  0.34790066450E+02  0.51100000000E-03 0.  1.
        -11    1    3    3    0    0 -0.22729965219E+02  0.86433086160E+01  0.54505385076E+01  0.24921205288E+02  0.51100000000E-03 0. -1.
        -12    1    3    3    0    0 -0.64113691995E+01  0.99900035220E+01  0.46543951870E+01  0.12750263524E+02  0.00000000000E+00 0.  1.
</event>
<event>
 7    1  0.1905073E-013  0.7246161E+02  0.7816164E-02  0.1226708E+00
        -11   -1    0    0    0    0  0.00000000000E+00  0.00000000000E+00  0.45593999997E+02  0.45594000000E+02  0.51100000000E-03 0. -1.
         11   -1    0    0    0    0 -0.00000000000E+00 -0.00000000000E+00 -0.45593999997E+02  0.45594000000E+02  0.51100000000E-03 0.  1.
    9900012    2    1    2    0    0 -0.24617239317E+01  0.13351536375E+02  0.12897826697E+02  0.72461613755E+02  0.70000056616E+02 0.  0.
        -12    1    1    2    0    0  0.24617239317E+01 -0.13351536375E+02 -0.12897826697E+02  0.18726386245E+02  0.00000000000E+00 0.  1.
         11    1    3    3    0    0 -0.97042673869E+01 -0.68419891487E+01  0.20129496854E+02  0.23370542674E+02  0.51100000000E-03 0. -1.
        -11    1    3    3    0    0  0.23464368661E+02  0.15140448410E+01 -0.62587363909E+01  0.24331886690E+02  0.51100000000E-03 0.  1.
        -12    1    3    3    0    0 -0.16221825206E+02  0.18679480682E+02 -0.97293376590E+00  0.24759184391E+02  0.00000000000E+00 0.  1.
</event>
<event>
 7    1  0.2035716E-013  0.7246157E+02  0.7816164E-02  0.1226708E+00
        -11   -1    0    0    0    0  0.00000000000E+00  0.00000000000E+00  0.45593999997E+02  0.45594000000E+02  0.51100000000E-03 0.  1.
         11   -1    0    0    0    0 -0.00000000000E+00 -0.00000000000E+00 -0.45593999997E+02  0.45594000000E+02  0.51100000000E-03 0. -1.
    9900012    2    1    2    0    0 -0.10151204296E+02  0.14616940141E+02  0.58289930951E+01  0.72461573532E+02  0.70000004218E+02 0.  0.
        -12    1    1    2    0    0  0.10151204296E+02 -0.14616940141E+02 -0.58289930951E+01  0.18726426468E+02  0.00000000000E+00 0.  1.
         11    1    3    3    0    0  0.11418451282E+02 -0.82361631862E+01  0.20669524676E+02  0.25008891705E+02  0.51100000000E-03 0. -1.
        -11    1    3    3    0    0 -0.13837876139E+02 -0.12786692063E+01 -0.17073635470E+02  0.22014332590E+02  0.51100000000E-03 0.  1.
         12    1    3    3    0    0 -0.77317794391E+01  0.24131772534E+02  0.22331038890E+01  0.25438349237E+02  0.00000000000E+00 0. -1.
</event>
<event>
 7    1  0.1905073E-013  0.7246161E+02  0.7816164E-02  0.1226708E+00
        -11   -1    0    0    0    0  0.00000000000E+00  0.00000000000E+00  0.45593999997E+02  0.45594000000E+02  0.51100000000E-03 0.  1.
         11   -1    0    0    0    0 -0.00000000000E+00 -0.00000000000E+00 -0.45593999997E+02  0.45594000000E+02  0.51100000000E-03 0. -1.
    9900012    2    1    2    0    0  0.59216704538E+01  0.12390615111E+02 -0.12731229263E+02  0.72461608935E+02  0.70000050336E+02 0.  0.
        -12    1    1    2    0    0 -0.59216704538E+01 -0.12390615111E+02  0.12731229263E+02  0.18726391065E+02  0.00000000000E+00 0.  1.
         11    1    3    3    0    0  0.24544561198E+02 -0.64170460407E+00  0.54800975606E+01  0.25157081284E+02  0.51100000000E-03 0. -1.
        -11    1    3    3    0    0 -0.20796623669E+00  0.18274604149E+02 -0.21129652269E+02  0.27936832534E+02  0.51100000000E-03 0.  1.
        -12    1    3    3    0    0 -0.18414924508E+02 -0.52422844342E+01  0.29183254453E+01  0.19367695116E+02  0.00000000000E+00 0.  1.
</event>
<event>
 7    1  0.1905073E-013  0.7246159E+02  0.7816164E-02  0.1226708E+00
        -11   -1    0    0    0    0  0.00000000000E+00  0.00000000000E+00  0.45593999997E+02  0.45594000000E+02  0.51100000000E-03 0. -1.
         11   -1    0    0    0    0 -0.00000000000E+00 -0.00000000000E+00 -0.45593999997E+02  0.45594000000E+02  0.51100000000E-03 0.  1.
    9900012    2    1    2    0    0  0.49456329503E+01  0.15424248771E+02  0.93974291148E+01  0.72461590590E+02  0.70000026438E+02 0.  0.
        -12    1    1    2    0    0 -0.49456329503E+01 -0.15424248771E+02 -0.93974291148E+01  0.18726409410E+02  0.00000000000E+00 0.  1.
         11    1    3    3    0    0 -0.20780413315E+02 -0.10465466901E+01  0.48742381442E+01  0.21370049960E+02  0.51100000000E-03 0. -1.
        -11    1    3    3    0    0  0.10354209386E+02  0.22947242415E+02 -0.11755223204E+02  0.27784363576E+02  0.51100000000E-03 0.  1.
         12    1    3    3    0    0  0.15371836879E+02 -0.64764469540E+01  0.16278414175E+02  0.23307177054E+02  0.00000000000E+00 0. -1.
</event>
<event>
 7    1  0.1905073E-013  0.7246155E+02  0.7816164E-02  0.1226708E+00
        -11   -1    0    0    0    0  0.00000000000E+00  0.00000000000E+00  0.45593999997E+02  0.45594000000E+02  0.51100000000E-03 0.  1.
         11   -1    0    0    0    0 -0.00000000000E+00 -0.00000000000E+00 -0.45593999997E+02  0.45594000000E+02  0.51100000000E-03 0. -1.
    9900012    2    1    2    0    0 -0.13585105939E+02 -0.15383266362E+01 -0.12796808887E+02  0.72461551594E+02  0.69999975640E+02 0.  0.
        -12    1    1    2    0    0  0.13585105939E+02  0.15383266362E+01  0.12796808887E+02  0.18726448406E+02  0.00000000000E+00 0.  1.
         11    1    3    3    0    0  0.19853511186E+02 -0.11692330820E+02  0.10730538875E+02  0.25416863914E+02  0.51100000000E-03 0. -1.
        -11    1    3    3    0    0 -0.84624225500E+01  0.76077699006E+01  0.16391915853E+01  0.11496856422E+02  0.51100000000E-03 0.  1.
         12    1    3    3    0    0 -0.24976194574E+02  0.25462342836E+01 -0.25166539347E+02  0.35547831258E+02  0.00000000000E+00 0. -1.
</event>
<event>
 8    1  0.1905073E-013  0.7246148E+02  0.7816164E-02  0.1226708E+00
        -11   -1    0    0    0    0  0.00000000000E+00  0.00000000000E+00  0.45593999997E+02  0.45594000000E+02  0.51100000000E-03 0.  1.
         11   -1    0    0    0    0 -0.00000000000E+00 -0.00000000000E+00 -0.45593999997E+02  0.45594000000E+02  0.51100000000E-03 0. -1.
    9900012    2    1    2    0    0  0.14496077043E+02 -0.10296804568E+02 -0.58755555957E+01  0.72461479034E+02  0.69999881116E+02 0.  0.
        -24    2    3    3    0    0  0.19382669353E+02 -0.15864681991E+02 -0.16293119167E+02  0.59678456135E+02  0.51659233333E+02 0.  0.
        -12    1    1    2    0    0 -0.14496077043E+02  0.10296804568E+02  0.58755555957E+01  0.18726520966E+02  0.00000000000E+00 0.  1.
         11    1    4    4    0    0  0.29580146880E+02 -0.88486469560E+01 -0.28699112193E+02  0.42153560743E+02  0.51100000000E-03 0. -1.
        -11    1    3    3    0    0 -0.48865923099E+01  0.55678774226E+01  0.10417563571E+02  0.12783022898E+02  0.51100000000E-03 0.  1.
        -12    1    4    4    0    0 -0.10197477527E+02 -0.70160350349E+01  0.12405993026E+02  0.17524895392E+02  0.00000000000E+00 0.  1.
</event>
<event>
 7    1  0.1905073E-013  0.7246158E+02  0.7816164E-02  0.1226708E+00
        -11   -1    0    0    0    0  0.00000000000E+00  0.00000000000E+00  0.45593999997E+02  0.45594000000E+02  0.51100000000E-03 0. -1.
         11   -1    0    0    0    0 -0.00000000000E+00 -0.00000000000E+00 -0.45593999997E+02  0.45594000000E+02  0.51100000000E-03 0.  1.
    9900012    2    1    2    0    0  0.18249052328E+02 -0.81663972451E-01  0.42004859766E+01  0.72461583836E+02  0.70000017641E+02 0.  0.
        -12    1    1    2    0    0 -0.18249052328E+02  0.81663972451E-01 -0.42004859766E+01  0.18726416164E+02  0.00000000000E+00 0.  1.
         11    1    3    3    0    0  0.26574558306E+02  0.60180984095E+01  0.16988040480E+02  0.32109471768E+02  0.51100000000E-03 0. -1.
        -11    1    3    3    0    0 -0.11760088448E+02  0.85479384998E+01 -0.19127744332E+02  0.24025768175E+02  0.51100000000E-03 0.  1.
        -12    1    3    3    0    0  0.34345824707E+01 -0.14647700882E+02  0.63401898284E+01  0.16326343893E+02  0.00000000000E+00 0.  1.
</event>
<event>
 7    1  0.1905073E-013  0.7246158E+02  0.7816164E-02  0.1226708E+00
        -11   -1    0    0    0    0  0.00000000000E+00  0.00000000000E+00  0.45593999997E+02  0.45594000000E+02  0.51100000000E-03 0.  1.
         11   -1    0    0    0    0 -0.00000000000E+00 -0.00000000000E+00 -0.45593999997E+02  0.45594000000E+02  0.51100000000E-03 0. -1.
    9900012    2    1    2    0    0  0.88733240152E+01  0.32023023683E+01 -0.16176780718E+02  0.72461578720E+02  0.70000010976E+02 0.  0.
        -12    1    1    2    0    0 -0.88733240152E+01 -0.32023023683E+01  0.16176780718E+02  0.18726421280E+02  0.00000000000E+00 0.  1.
         11    1    3    3    0    0  0.14442308432E+02 -0.11291160643E+02 -0.28217504010E+02  0.33649637655E+02  0.51100000000E-03 0. -1.
        -11    1    3    3    0    0 -0.10055910410E+02  0.15004513011E+02 -0.69035115888E+01  0.19336887480E+02  0.51100000000E-03 0.  1.
        -12    1    3    3    0    0  0.44869259934E+01 -0.51105000004E+00  0.18944234880E+02  0.19475053586E+02  0.00000000000E+00 0.  1.
</event>
<event>
 7    1  0.1905073E-013  0.7246162E+02  0.7816164E-02  0.1226708E+00
        -11   -1    0    0    0    0  0.00000000000E+00  0.00000000000E+00  0.45593999997E+02  0.45594000000E+02  0.51100000000E-03 0.  1.
         11   -1    0    0    0    0 -0.00000000000E+00 -0.00000000000E+00 -0.45593999997E+02  0.45594000000E+02  0.51100000000E-03 0. -1.
    9900012    2    1    2    0    0 -0.72566090508E+00 -0.10996001853E+02 -0.15140626293E+02  0.72461622747E+02  0.70000068329E+02 0.  0.
        -12    1    1    2    0    0  0.72566090508E+00  0.10996001853E+02  0.15140626293E+02  0.18726377253E+02  0.00000000000E+00 0.  1.
         11    1    3    3    0    0 -0.71874531151E+01 -0.19989487734E+02  0.17222124277E+02  0.27346675611E+02  0.51100000000E-03 0. -1.
        -11    1    3    3    0    0  0.17991252119E+02  0.35530270838E+01 -0.15746306022E+02  0.24171373728E+02  0.51100000000E-03 0.  1.
         12    1    3    3    0    0 -0.11529459909E+02  0.54404587974E+01 -0.16616444547E+02  0.20943573408E+02  0.00000000000E+00 0. -1.
</event>
<event>
 7    1  0.1905073E-013  0.7246151E+02  0.7816164E-02  0.1226708E+00
        -11   -1    0    0    0    0  0.00000000000E+00  0.00000000000E+00  0.45593999997E+02  0.45594000000E+02  0.51100000000E-03 0.  1.
         11   -1    0    0    0    0 -0.00000000000E+00 -0.00000000000E+00 -0.45593999997E+02  0.45594000000E+02  0.51100000000E-03 0. -1.
    9900012    2    1    2    0    0  0.17360281320E+02 -0.12740161165E+01 -0.69049905246E+01  0.72461511309E+02  0.69999923160E+02 0.  0.
        -12    1    1    2    0    0 -0.17360281320E+02  0.12740161165E+01  0.69049905246E+01  0.18726488691E+02  0.00000000000E+00 0.  1.
         11    1    3    3    0    0  0.40076903493E+02  0.10860131070E+02  0.28933374795E+01  0.41622974936E+02  0.51100000000E-03 0. -1.
        -11    1    3    3    0    0 -0.68335598488E+01  0.21642511608E+01 -0.55112385725E+01  0.90418623169E+01  0.51100000000E-03 0.  1.
         12    1    3    3    0    0 -0.15883062325E+02 -0.14298398347E+02 -0.42870894316E+01  0.21796674056E+02  0.00000000000E+00 0. -1.
</event>
<event>
 7    1  0.1905073E-013  0.7246160E+02  0.7816164E-02  0.1226708E+00
        -11   -1    0    0    0    0  0.00000000000E+00  0.00000000000E+00  0.45593999997E+02  0.45594000000E+02  0.51100000000E-03 0. -1.
         11   -1    0    0    0    0 -0.00000000000E+00 -0.00000000000E+00 -0.45593999997E+02  0.45594000000E+02  0.51100000000E-03 0.  1.
    9900012    2    1    2    0    0 -0.66791255553E+01  0.11537830710E+02  0.13150887339E+02  0.72461599025E+02  0.70000037427E+02 0.  0.
        -12    1    1    2    0    0  0.66791255553E+01 -0.11537830710E+02 -0.13150887339E+02  0.18726400975E+02  0.00000000000E+00 0.  1.
         11    1    3    3    0    0 -0.68471869871E+01 -0.10306473356E+02  0.16113066794E+02  0.20315961322E+02  0.51100000000E-03 0. -1.
        -11    1    3    3    0    0 -0.15406264393E+02  0.63369514416E+01 -0.18752562299E+02  0.25083232032E+02  0.51100000000E-03 0.  1.
        -12    1    3    3    0    0  0.15574325825E+02  0.15507352625E+02  0.15790382844E+02  0.27062405671E+02  0.00000000000E+00 0.  1.
</event>
<event>
 7    1  0.1905073E-013  0.7246159E+02  0.7816164E-02  0.1226708E+00
        -11   -1    0    0    0    0  0.00000000000E+00  0.00000000000E+00  0.45593999997E+02  0.45594000000E+02  0.51100000000E-03 0. -1.
         11   -1    0    0    0    0 -0.00000000000E+00 -0.00000000000E+00 -0.45593999997E+02  0.45594000000E+02  0.51100000000E-03 0.  1.
    9900012    2    1    2    0    0 -0.17645251044E+02 -0.35528118171E+01  0.51673102709E+01  0.72461589462E+02  0.70000024969E+02 0.  0.
        -12    1    1    2    0    0  0.17645251044E+02  0.35528118171E+01 -0.51673102709E+01  0.18726410538E+02  0.00000000000E+00 0.  1.
         11    1    3    3    0    0 -0.13703288431E+02 -0.32261140683E+02 -0.39594348214E+01  0.35273764136E+02  0.51100000000E-03 0. -1.
        -11    1    3    3    0    0  0.67839079355E+01  0.13639739740E+02 -0.23595950358E+01  0.15415303956E+02  0.51100000000E-03 0.  1.
         12    1    3    3    0    0 -0.10725870549E+02  0.15068589126E+02  0.11486340128E+02  0.21772521370E+02  0.00000000000E+00 0. -1.
</event>
<event>
 7    1  0.1905073E-013  0.7246158E+02  0.7816164E-02  0.1226708E+00
        -11   -1    0    0    0    0  0.00000000000E+00  0.00000000000E+00  0.45593999997E+02  0.45594000000E+02  0.51100000000E-03 0.  1.
         11   -1    0    0    0    0 -0.00000000000E+00 -0.00000000000E+00 -0.45593999997E+02  0.45594000000E+02  0.51100000000E-03 0. -1.
    9900012    2    1    2    0    0  0.36631908529E+00  0.42786805163E+01 -0.18227384512E+02  0.72461579018E+02  0.70000011364E+02 0.  0.
        -12    1    1    2    0    0 -0.36631908529E+00 -0.42786805163E+01  0.18227384512E+02  0.18726420982E+02  0.00000000000E+00 0.  1.
         11    1    3    3    0    0 -0.13116529659E+01  0.97889087471E+01  0.18751757506E+02  0.21193668342E+02  0.51100000000E-03 0. -1.
        -11    1    3    3    0    0  0.11284915045E+02  0.10416755354E+02 -0.94107972840E+01  0.18011696351E+02  0.51100000000E-03 0.  1.
         12    1    3    3    0    0 -0.96069429934E+01 -0.15926983585E+02 -0.27568344735E+02  0.33256214325E+02  0.00000000000E+00 0. -1.
</event>
<event>
 7    1  0.1905073E-013  0.7246170E+02  0.7816164E-02  0.1226708E+00
        -11   -1    0    0    0    0  0.00000000000E+00  0.00000000000E+00  0.45593999997E+02  0.45594000000E+02  0.51100000000E-03 0.  1.
         11   -1    0    0    0    0 -0.00000000000E+00 -0.00000000000E+00 -0.45593999997E+02  0.45594000000E+02  0.51100000000E-03 0. -1.
    9900012    2    1    2    0    0  0.85659772393E+01  0.14368048339E+02 -0.84176868370E+01  0.72461702159E+02  0.70000171778E+02 0.  0.
        -12    1    1    2    0    0 -0.85659772393E+01 -0.14368048339E+02  0.84176868370E+01  0.18726297841E+02  0.00000000000E+00 0.  1.
         11    1    3    3    0    0  0.11570428560E+00  0.10407863290E+02 -0.35324337997E+02  0.36825885745E+02  0.51100000000E-03 0. -1.
        -11    1    3    3    0    0  0.14463508665E+02  0.37154011129E+00  0.24063123251E+02  0.28077838696E+02  0.51100000000E-03 0.  1.
        -12    1    3    3    0    0 -0.60132357112E+01  0.35886449384E+01  0.28435279088E+01  0.75579777177E+01  0.00000000000E+00 0.  1.
</event>
<event>
 7    1  0.1905073E-013  0.7246156E+02  0.7816164E-02  0.1226708E+00
        -11   -1    0    0    0    0  0.00000000000E+00  0.00000000000E+00  0.45593999997E+02  0.45594000000E+02  0.51100000000E-03 0.  1.
         11   -1    0    0    0    0 -0.00000000000E+00 -0.00000000000E+00 -0.45593999997E+02  0.45594000000E+02  0.51100000000E-03 0. -1.
    9900012    2    1    2    0    0  0.10588753990E+02  0.13929705036E+01 -0.15382379982E+02  0.72461556350E+02  0.69999981835E+02 0.  0.
        -12    1    1    2    0    0 -0.10588753990E+02 -0.13929705036E+01  0.15382379982E+02  0.18726443650E+02  0.00000000000E+00 0.  1.
         11    1    3    3    0    0 -0.10062483365E+02  0.14653467511E+02 -0.23237849610E+02  0.29257056180E+02  0.51100000000E-03 0. -1.
        -11    1    3    3    0    0  0.29419248369E+02 -0.13815354968E+02  0.18336964603E+01  0.32553320114E+02  0.51100000000E-03 0.  1.
        -12    1    3    3    0    0 -0.87680110140E+01  0.55485796115E+00  0.60217731677E+01  0.10651180056E+02  0.00000000000E+00 0.  1.
</event>
<event>
 7    1  0.1905073E-013  0.7246162E+02  0.7816164E-02  0.1226708E+00
        -11   -1    0    0    0    0  0.00000000000E+00  0.00000000000E+00  0.45593999997E+02  0.45594000000E+02  0.51100000000E-03 0.  1.
         11   -1    0    0    0    0 -0.00000000000E+00 -0.00000000000E+00 -0.45593999997E+02  0.45594000000E+02  0.51100000000E-03 0. -1.
    9900012    2    1    2    0    0 -0.18271402524E+02  0.38975250230E+01 -0.12815964650E+01  0.72461619116E+02  0.70000063600E+02 0.  0.
        -12    1    1    2    0    0  0.18271402524E+02 -0.38975250230E+01  0.12815964650E+01  0.18726380884E+02  0.00000000000E+00 0.  1.
         11    1    3    3    0    0 -0.97936200560E+01  0.17087225184E+02 -0.71582852134E+01  0.20955412326E+02  0.51100000000E-03 0. -1.
        -11    1    3    3    0    0  0.10727535186E+02 -0.25728975359E+02  0.19457482216E+00  0.27876478325E+02  0.51100000000E-03 0.  1.
        -12    1    3    3    0    0 -0.19205317654E+02  0.12539275198E+02  0.56821139262E+01  0.23629728465E+02  0.00000000000E+00 0.  1.
</event>
<event>
 7    1  0.1905073E-013  0.7246156E+02  0.7816164E-02  0.1226708E+00
        -11   -1    0    0    0    0  0.00000000000E+00  0.00000000000E+00  0.45593999997E+02  0.45594000000E+02  0.51100000000E-03 0.  1.
         11   -1    0    0    0    0 -0.00000000000E+00 -0.00000000000E+00 -0.45593999997E+02  0.45594000000E+02  0.51100000000E-03 0. -1.
    9900012    2    1    2    0    0  0.16107002386E+02 -0.79635775306E+01  0.52749906166E+01  0.72461558294E+02  0.69999984368E+02 0.  0.
        -12    1    1    2    0    0 -0.16107002386E+02  0.79635775306E+01 -0.52749906166E+01  0.18726441706E+02  0.00000000000E+00 0.  1.
         11    1    3    3    0    0 -0.19245563299E+02  0.34801210765E+00  0.19565229318E+02  0.27446511939E+02  0.51100000000E-03 0. -1.
        -11    1    3    3    0    0  0.32976340979E+02 -0.12986851154E+02 -0.16775912954E+02  0.39211332839E+02  0.51100000000E-03 0.  1.
        -12    1    3    3    0    0  0.23762247057E+01  0.46752615153E+01  0.24856742530E+01  0.58037135164E+01  0.00000000000E+00 0.  1.
</event>
<event>
 7    1  0.1905073E-013  0.7246155E+02  0.7816164E-02  0.1226708E+00
        -11   -1    0    0    0    0  0.00000000000E+00  0.00000000000E+00  0.45593999997E+02  0.45594000000E+02  0.51100000000E-03 0. -1.
         11   -1    0    0    0    0 -0.00000000000E+00 -0.00000000000E+00 -0.45593999997E+02  0.45594000000E+02  0.51100000000E-03 0.  1.
    9900012    2    1    2    0    0  0.15430474952E+02  0.73395929410E+01  0.76622902412E+01  0.72461551497E+02  0.69999975513E+02 0.  0.
        -12    1    1    2    0    0 -0.15430474952E+02 -0.73395929410E+01 -0.76622902412E+01  0.18726448503E+02  0.00000000000E+00 0.  1.
         11    1    3    3    0    0  0.25513581378E+01  0.38097036787E+01 -0.22183304284E+01  0.50935508850E+01  0.51100000000E-03 0. -1.
        -11    1    3    3    0    0  0.19933811797E+02 -0.25787399723E+02  0.16445439693E+02  0.36507524213E+02  0.51100000000E-03 0.  1.
        -12    1    3    3    0    0 -0.70546949828E+01  0.29317288985E+02 -0.65648190230E+01  0.30860476399E+02  0.00000000000E+00 0.  1.
</event>
<event>
 7    1  0.1905073E-013  0.7246155E+02  0.7816164E-02  0.1226708E+00
        -11   -1    0    0    0    0  0.00000000000E+00  0.00000000000E+00  0.45593999997E+02  0.45594000000E+02  0.51100000000E-03 0.  1.
         11   -1    0    0    0    0 -0.00000000000E+00 -0.00000000000E+00 -0.45593999997E+02  0.45594000000E+02  0.51100000000E-03 0. -1.
    9900012    2    1    2    0    0 -0.15110258108E+02  0.97938017799E+01 -0.51421149565E+01  0.72461553470E+02  0.69999978084E+02 0.  0.
        -12    1    1    2    0    0  0.15110258108E+02 -0.97938017799E+01  0.51421149565E+01  0.18726446530E+02  0.00000000000E+00 0.  1.
         11    1    3    3    0    0 -0.10819275170E+02  0.15894394117E+02 -0.11845445772E+02  0.22583247449E+02  0.51100000000E-03 0. -1.
        -11    1    3    3    0    0 -0.54777385786E+01 -0.26241742765E+02 -0.38935740204E+01  0.27088643417E+02  0.51100000000E-03 0.  1.
        -12    1    3    3    0    0  0.11867556404E+01  0.20141150428E+02  0.10596904836E+02  0.22789662604E+02  0.00000000000E+00 0.  1.
</event>
<event>
 7    1  0.1905073E-013  0.7246155E+02  0.7816164E-02  0.1226708E+00
        -11   -1    0    0    0    0  0.00000000000E+00  0.00000000000E+00  0.45593999997E+02  0.45594000000E+02  0.51100000000E-03 0.  1.
         11   -1    0    0    0    0 -0.00000000000E+00 -0.00000000000E+00 -0.45593999997E+02  0.45594000000E+02  0.51100000000E-03 0. -1.
    9900012    2    1    2    0    0  0.78234289519E+01  0.11043897900E+02 -0.12942411750E+02  0.72461554974E+02  0.69999980042E+02 0.  0.
        -12    1    1    2    0    0 -0.78234289519E+01 -0.11043897900E+02  0.12942411750E+02  0.18726445026E+02  0.00000000000E+00 0.  1.
         11    1    3    3    0    0  0.12191348630E+02  0.24185919381E+02 -0.11331251368E+02  0.29359579963E+02  0.51100000000E-03 0. -1.
        -11    1    3    3    0    0 -0.86856735937E+01 -0.11362265536E+02 -0.19742721917E+02  0.24378619174E+02  0.51100000000E-03 0.  1.
         12    1    3    3    0    0  0.43177539152E+01 -0.17797559449E+01  0.18131561535E+02  0.18723355837E+02  0.00000000000E+00 0. -1.
</event>
<event>
 7    1  0.1905073E-013  0.7246151E+02  0.7816164E-02  0.1226708E+00
        -11   -1    0    0    0    0  0.00000000000E+00  0.00000000000E+00  0.45593999997E+02  0.45594000000E+02  0.51100000000E-03 0. -1.
         11   -1    0    0    0    0 -0.00000000000E+00 -0.00000000000E+00 -0.45593999997E+02  0.45594000000E+02  0.51100000000E-03 0.  1.
    9900012    2    1    2    0    0  0.68281962743E+01 -0.22005882811E+01  0.17297819889E+02  0.72461510044E+02  0.69999921513E+02 0.  0.
        -12    1    1    2    0    0 -0.68281962743E+01  0.22005882811E+01 -0.17297819889E+02  0.18726489956E+02  0.00000000000E+00 0.  1.
         11    1    3    3    0    0 -0.51875589325E+01 -0.45795469315E+01  0.40999531725E+01  0.80431731334E+01  0.51100000000E-03 0. -1.
        -11    1    3    3    0    0  0.33537809214E+02 -0.13395027687E+02  0.10439557875E+02  0.37592496359E+02  0.51100000000E-03 0.  1.
        -12    1    3    3    0    0 -0.21522054007E+02  0.15773986337E+02  0.27583088414E+01  0.26825840552E+02  0.00000000000E+00 0.  1.
</event>
<event>
 7    1  0.1905073E-013  0.7246146E+02  0.7816164E-02  0.1226708E+00
        -11   -1    0    0    0    0  0.00000000000E+00  0.00000000000E+00  0.45593999997E+02  0.45594000000E+02  0.51100000000E-03 0. -1.
         11   -1    0    0    0    0 -0.00000000000E+00 -0.00000000000E+00 -0.45593999997E+02  0.45594000000E+02  0.51100000000E-03 0.  1.
    9900012    2    1    2    0    0  0.39996579013E+00 -0.29312667140E+01  0.18491372804E+02  0.72461463604E+02  0.69999861017E+02 0.  0.
        -12    1    1    2    0    0 -0.39996579013E+00  0.29312667140E+01 -0.18491372804E+02  0.18726536396E+02  0.00000000000E+00 0.  1.
         11    1    3    3    0    0 -0.21282262336E+02 -0.25160915286E+02  0.30258346330E+01  0.33093232294E+02  0.51100000000E-03 0.  1.
        -11    1    3    3    0    0  0.13654035204E+02  0.22127533148E+02  0.17172220392E+02  0.31159999262E+02  0.51100000000E-03 0. -1.
        -12    1    3    3    0    0  0.80281929225E+01  0.10211542384E+00 -0.17066822207E+01  0.82082320486E+01  0.00000000000E+00 0.  1.
</event>
<event>
 7    1  0.1905073E-013  0.7246159E+02  0.7816164E-02  0.1226708E+00
        -11   -1    0    0    0    0  0.00000000000E+00  0.00000000000E+00  0.45593999997E+02  0.45594000000E+02  0.51100000000E-03 0.  1.
         11   -1    0    0    0    0 -0.00000000000E+00 -0.00000000000E+00 -0.45593999997E+02  0.45594000000E+02  0.51100000000E-03 0. -1.
    9900012    2    1    2    0    0  0.63590718375E+01 -0.17320876301E+02 -0.31981000912E+01  0.72461590983E+02  0.70000026951E+02 0.  0.
        -12    1    1    2    0    0 -0.63590718375E+01  0.17320876301E+02  0.31981000912E+01  0.18726409017E+02  0.00000000000E+00 0.  1.
         11    1    3    3    0    0  0.92954353538E+00  0.22952576012E+02 -0.97773673690E+00  0.22992189242E+02  0.51100000000E-03 0. -1.
        -11    1    3    3    0    0 -0.16684699928E+01 -0.25986421022E+02  0.11463542159E+02  0.28451549496E+02  0.51100000000E-03 0.  1.
         12    1    3    3    0    0  0.70979982949E+01 -0.14287031291E+02 -0.13683905513E+02  0.21017852245E+02  0.00000000000E+00 0. -1.
</event>
<event>
 7    1  0.1905073E-013  0.7246159E+02  0.7816164E-02  0.1226708E+00
        -11   -1    0    0    0    0  0.00000000000E+00  0.00000000000E+00  0.45593999997E+02  0.45594000000E+02  0.51100000000E-03 0.  1.
         11   -1    0    0    0    0 -0.00000000000E+00 -0.00000000000E+00 -0.45593999997E+02  0.45594000000E+02  0.51100000000E-03 0. -1.
    9900012    2    1    2    0    0 -0.13447902917E+02 -0.12047026742E+02  0.49700761017E+01  0.72461585430E+02  0.70000019717E+02 0.  0.
        -12    1    1    2    0    0  0.13447902917E+02  0.12047026742E+02 -0.49700761017E+01  0.18726414570E+02  0.00000000000E+00 0.  1.
         11    1    3    3    0    0 -0.65655556909E+01 -0.23480622103E+02 -0.25096906047E+02  0.34990010421E+02  0.51100000000E-03 0. -1.
        -11    1    3    3    0    0 -0.30670715836E+01  0.18701797675E+01  0.26243487808E+02  0.26488207811E+02  0.51100000000E-03 0.  1.
        -12    1    3    3    0    0 -0.38152756421E+01  0.95634155928E+01  0.38234943415E+01  0.10983367198E+02  0.00000000000E+00 0.  1.
</event>
<event>
 7    1  0.1905073E-013  0.7246154E+02  0.7816164E-02  0.1226708E+00
        -11   -1    0    0    0    0  0.00000000000E+00  0.00000000000E+00  0.45593999997E+02  0.45594000000E+02  0.51100000000E-03 0. -1.
         11   -1    0    0    0    0 -0.00000000000E+00 -0.00000000000E+00 -0.45593999997E+02  0.45594000000E+02  0.51100000000E-03 0.  1.
    9900012    2    1    2    0    0 -0.50599193243E+01 -0.17074611179E+02 -0.57909499877E+01  0.72461541919E+02  0.69999963036E+02 0.  0.
        -12    1    1    2    0    0  0.50599193243E+01  0.17074611179E+02  0.57909499877E+01  0.18726458081E+02  0.00000000000E+00 0.  1.
         11    1    3    3    0    0  0.11223555581E+02 -0.27986106811E+02  0.22723205382E+02  0.37756250309E+02  0.51100000000E-03 0. -1.
        -11    1    3    3    0    0 -0.34508385851E+01  0.14448245204E+01 -0.68486312619E+01  0.78038167110E+01  0.51100000000E-03 0.  1.
         12    1    3    3    0    0 -0.12832636320E+02  0.94666711111E+01 -0.21665524108E+02  0.26901474899E+02  0.00000000000E+00 0. -1.
</event>
<event>
 7    1  0.1905073E-013  0.7246157E+02  0.7816164E-02  0.1226708E+00
        -11   -1    0    0    0    0  0.00000000000E+00  0.00000000000E+00  0.45593999997E+02  0.45594000000E+02  0.51100000000E-03 0.  1.
         11   -1    0    0    0    0 -0.00000000000E+00 -0.00000000000E+00 -0.45593999997E+02  0.45594000000E+02  0.51100000000E-03 0. -1.
    9900012    2    1    2    0    0  0.11668665016E+02 -0.12410241793E+02 -0.77786524246E+01  0.72461567394E+02  0.69999996222E+02 0.  0.
        -12    1    1    2    0    0 -0.11668665016E+02  0.12410241793E+02  0.77786524246E+01  0.18726432606E+02  0.00000000000E+00 0.  1.
         11    1    3    3    0    0  0.64831651923E+01  0.25070408954E+02 -0.16081074807E+02  0.30482089877E+02  0.51100000000E-03 0. -1.
        -11    1    3    3    0    0  0.11012163624E+02 -0.21839876596E+02  0.48497429789E+01  0.24935275508E+02  0.51100000000E-03 0.  1.
         12    1    3    3    0    0 -0.58266638006E+01 -0.15640774151E+02  0.34526794038E+01  0.17044202010E+02  0.00000000000E+00 0. -1.
</event>
<event>
 7    1  0.1905073E-013  0.7246150E+02  0.7816164E-02  0.1226708E+00
        -11   -1    0    0    0    0  0.00000000000E+00  0.00000000000E+00  0.45593999997E+02  0.45594000000E+02  0.51100000000E-03 0.  1.
         11   -1    0    0    0    0 -0.00000000000E+00 -0.00000000000E+00 -0.45593999997E+02  0.45594000000E+02  0.51100000000E-03 0. -1.
    9900012    2    1    2    0    0 -0.18337444866E+02  0.21736020497E+01 -0.31137659126E+01  0.72461495568E+02  0.69999902654E+02 0.  0.
        -12    1    1    2    0    0  0.18337444866E+02 -0.21736020497E+01  0.31137659126E+01  0.18726504432E+02  0.00000000000E+00 0.  1.
         11    1    3    3    0    0 -0.32049434443E+02  0.15538248597E+02 -0.82327541227E+01  0.36556554245E+02  0.51100000000E-03 0.  1.
        -11    1    3    3    0    0  0.15422456824E+02 -0.22561386627E+00 -0.78998015965E+01  0.17329453010E+02  0.51100000000E-03 0. -1.
        -12    1    3    3    0    0 -0.17104672470E+01 -0.13139032681E+02  0.13018789807E+02  0.18575488312E+02  0.00000000000E+00 0.  1.
</event>
<event>
 7    1  0.1905073E-013  0.7246153E+02  0.7816164E-02  0.1226708E+00
        -11   -1    0    0    0    0  0.00000000000E+00  0.00000000000E+00  0.45593999997E+02  0.45594000000E+02  0.51100000000E-03 0.  1.
         11   -1    0    0    0    0 -0.00000000000E+00 -0.00000000000E+00 -0.45593999997E+02  0.45594000000E+02  0.51100000000E-03 0. -1.
    9900012    2    1    2    0    0 -0.11450309983E+02 -0.14718521077E+02 -0.17135403036E+01  0.72461529917E+02  0.69999947401E+02 0.  0.
        -12    1    1    2    0    0  0.11450309983E+02  0.14718521077E+02  0.17135403036E+01  0.18726470083E+02  0.00000000000E+00 0.  1.
         11    1    3    3    0    0 -0.14225120678E+02 -0.26339953101E+02  0.15397260666E+02  0.33663375113E+02  0.51100000000E-03 0. -1.
        -11    1    3    3    0    0  0.60477841500E+01 -0.66719146842E+01 -0.18070110276E+02  0.20189577121E+02  0.51100000000E-03 0.  1.
         12    1    3    3    0    0 -0.32729734545E+01  0.18293346709E+02  0.95930930707E+00  0.18608577683E+02  0.00000000000E+00 0. -1.
</event>
<event>
 7    1  0.1905073E-013  0.7246156E+02  0.7816164E-02  0.1226708E+00
        -11   -1    0    0    0    0  0.00000000000E+00  0.00000000000E+00  0.45593999997E+02  0.45594000000E+02  0.51100000000E-03 0. -1.
         11   -1    0    0    0    0 -0.00000000000E+00 -0.00000000000E+00 -0.45593999997E+02  0.45594000000E+02  0.51100000000E-03 0.  1.
    9900012    2    1    2    0    0 -0.99835177407E+01 -0.14134350309E+02  0.71574421983E+01  0.72461562433E+02  0.69999989759E+02 0.  0.
        -12    1    1    2    0    0  0.99835177407E+01  0.14134350309E+02 -0.71574421983E+01  0.18726437567E+02  0.00000000000E+00 0.  1.
         11    1    3    3    0    0 -0.18442810876E+02 -0.15219068823E+02  0.18450566341E+02  0.30202329834E+02  0.51100000000E-03 0. -1.
        -11    1    3    3    0    0 -0.59873147376E+01  0.12836663898E+02 -0.17605082416E+02  0.22595725369E+02  0.51100000000E-03 0.  1.
        -12    1    3    3    0    0  0.14446607872E+02 -0.11751945384E+02  0.63119582733E+01  0.19663507230E+02  0.00000000000E+00 0.  1.
</event>
<event>
 7    1  0.1905073E-013  0.7246148E+02  0.7816164E-02  0.1226708E+00
        -11   -1    0    0    0    0  0.00000000000E+00  0.00000000000E+00  0.45593999997E+02  0.45594000000E+02  0.51100000000E-03 0.  1.
         11   -1    0    0    0    0 -0.00000000000E+00 -0.00000000000E+00 -0.45593999997E+02  0.45594000000E+02  0.51100000000E-03 0. -1.
    9900012    2    1    2    0    0 -0.10144639726E+01 -0.18541829564E+02 -0.24195295793E+01  0.72461475920E+02  0.69999877060E+02 0.  0.
        -12    1    1    2    0    0  0.10144639726E+01  0.18541829564E+02  0.24195295793E+01  0.18726524080E+02  0.00000000000E+00 0.  1.
         11    1    3    3    0    0 -0.13245455953E+02 -0.13899794951E+02 -0.13689901879E+02  0.23580920610E+02  0.51100000000E-03 0. -1.
        -11    1    3    3    0    0  0.19515071732E+02  0.15565754353E+02  0.11297367396E+02  0.27400022694E+02  0.51100000000E-03 0.  1.
        -12    1    3    3    0    0 -0.72840797517E+01 -0.20207788966E+02 -0.26995095633E-01  0.21480532616E+02  0.00000000000E+00 0.  1.
</event>
<event>
 7    1  0.1905073E-013  0.7246156E+02  0.7816164E-02  0.1226708E+00
        -11   -1    0    0    0    0  0.00000000000E+00  0.00000000000E+00  0.45593999997E+02  0.45594000000E+02  0.51100000000E-03 0. -1.
         11   -1    0    0    0    0 -0.00000000000E+00 -0.00000000000E+00 -0.45593999997E+02  0.45594000000E+02  0.51100000000E-03 0.  1.
    9900012    2    1    2    0    0  0.60353181303E+01 -0.57494962148E+01  0.16768951209E+02  0.72461561569E+02  0.69999988633E+02 0.  0.
        -12    1    1    2    0    0 -0.60353181303E+01  0.57494962148E+01 -0.16768951209E+02  0.18726438431E+02  0.00000000000E+00 0.  1.
         11    1    3    3    0    0 -0.57704457155E+01 -0.26740749764E+02 -0.25110634199E+01  0.27471279210E+02  0.51100000000E-03 0. -1.
        -11    1    3    3    0    0  0.37622332431E+01  0.74141171659E+01  0.26399502820E+02  0.27677739823E+02  0.51100000000E-03 0.  1.
        -12    1    3    3    0    0  0.80435306028E+01  0.13577136383E+02 -0.71194881909E+01  0.17312542535E+02  0.00000000000E+00 0.  1.
</event>
<event>
 7    1  0.1905073E-013  0.7246157E+02  0.7816164E-02  0.1226708E+00
        -11   -1    0    0    0    0  0.00000000000E+00  0.00000000000E+00  0.45593999997E+02  0.45594000000E+02  0.51100000000E-03 0. -1.
         11   -1    0    0    0    0 -0.00000000000E+00 -0.00000000000E+00 -0.45593999997E+02  0.45594000000E+02  0.51100000000E-03 0.  1.
    9900012    2    1    2    0    0  0.14342857873E+02 -0.11745179237E+02  0.26480894629E+01  0.72461569879E+02  0.69999999459E+02 0.  0.
        -12    1    1    2    0    0 -0.14342857873E+02  0.11745179237E+02 -0.26480894629E+01  0.18726430121E+02  0.00000000000E+00 0.  1.
         11    1    3    3    0    0  0.20505761856E+02  0.53400646524E+01 -0.33448230699E+01  0.21452048886E+02  0.51100000000E-03 0. -1.
        -11    1    3    3    0    0 -0.21795477985E+02  0.26442571535E+01 -0.65145262049E+01  0.22901397521E+02  0.51100000000E-03 0.  1.
        -12    1    3    3    0    0  0.15632574002E+02 -0.19729501043E+02  0.12507438738E+02  0.28108123472E+02  0.00000000000E+00 0.  1.
</event>
<event>
 7    1  0.1905073E-013  0.7246152E+02  0.7816164E-02  0.1226708E+00
        -11   -1    0    0    0    0  0.00000000000E+00  0.00000000000E+00  0.45593999997E+02  0.45594000000E+02  0.51100000000E-03 0.  1.
         11   -1    0    0    0    0 -0.00000000000E+00 -0.00000000000E+00 -0.45593999997E+02  0.45594000000E+02  0.51100000000E-03 0. -1.
    9900012    2    1    2    0    0 -0.14731885022E+02  0.83755914162E+01 -0.79688196090E+01  0.72461519983E+02  0.69999934460E+02 0.  0.
        -12    1    1    2    0    0  0.14731885022E+02 -0.83755914162E+01  0.79688196090E+01  0.18726480017E+02  0.00000000000E+00 0.  1.
         11    1    3    3    0    0 -0.35643467364E+02 -0.89286583169E+01  0.61673605551E+01  0.37258744498E+02  0.51100000000E-03 0.  1.
        -11    1    3    3    0    0  0.13749011620E+02  0.19458937207E+02 -0.69227330550E+01  0.24811485061E+02  0.51100000000E-03 0. -1.
        -12    1    3    3    0    0  0.71625707228E+01 -0.21546874739E+01 -0.72134471092E+01  0.10391290424E+02  0.00000000000E+00 0.  1.
</event>
<event>
 7    1  0.2045586E-013  0.7246155E+02  0.7816164E-02  0.1226708E+00
        -11   -1    0    0    0    0  0.00000000000E+00  0.00000000000E+00  0.45593999997E+02  0.45594000000E+02  0.51100000000E-03 0. -1.
         11   -1    0    0    0    0 -0.00000000000E+00 -0.00000000000E+00 -0.45593999997E+02  0.45594000000E+02  0.51100000000E-03 0.  1.
    9900012    2    1    2    0    0  0.17451459032E+02  0.33461861875E+01  0.59101319103E+01  0.72461546958E+02  0.69999969600E+02 0.  0.
        -12    1    1    2    0    0 -0.17451459032E+02 -0.33461861875E+01 -0.59101319103E+01  0.18726453042E+02  0.00000000000E+00 0.  1.
         11    1    3    3    0    0  0.13392595921E+02  0.12165917902E+02  0.32793914851E+02  0.37454132422E+02  0.51100000000E-03 0. -1.
        -11    1    3    3    0    0  0.51531941864E+00  0.49847439468E+01 -0.16845369448E+02  0.17574973639E+02  0.51100000000E-03 0.  1.
         12    1    3    3    0    0  0.35435436918E+01 -0.13804475661E+02 -0.10038413493E+02  0.17432440897E+02  0.00000000000E+00 0. -1.
</event>
<event>
 7    1  0.1905073E-013  0.7246156E+02  0.7816164E-02  0.1226708E+00
        -11   -1    0    0    0    0  0.00000000000E+00  0.00000000000E+00  0.45593999997E+02  0.45594000000E+02  0.51100000000E-03 0.  1.
         11   -1    0    0    0    0 -0.00000000000E+00 -0.00000000000E+00 -0.45593999997E+02  0.45594000000E+02  0.51100000000E-03 0. -1.
    9900012    2    1    2    0    0 -0.15273907677E+02 -0.92193596946E+01 -0.56912682457E+01  0.72461564591E+02  0.69999992570E+02 0.  0.
        -12    1    1    2    0    0  0.15273907677E+02  0.92193596946E+01  0.56912682457E+01  0.18726435409E+02  0.00000000000E+00 0.  1.
         11    1    3    3    0    0  0.14043205544E+02  0.15606589513E+02  0.24863391124E+00  0.20996168157E+02  0.51100000000E-03 0.  1.
        -11    1    3    3    0    0 -0.30477895026E+02 -0.47061626594E+01 -0.18017548323E+01  0.30891687765E+02  0.51100000000E-03 0. -1.
        -12    1    3    3    0    0  0.11607818053E+01 -0.20119786548E+02 -0.41381473247E+01  0.20573708669E+02  0.00000000000E+00 0.  1.
</event>
<event>
 7    1  0.1905073E-013  0.7246166E+02  0.7816164E-02  0.1226708E+00
        -11   -1    0    0    0    0  0.00000000000E+00  0.00000000000E+00  0.45593999997E+02  0.45594000000E+02  0.51100000000E-03 0.  1.
         11   -1    0    0    0    0 -0.00000000000E+00 -0.00000000000E+00 -0.45593999997E+02  0.45594000000E+02  0.51100000000E-03 0. -1.
    9900012    2    1    2    0    0 -0.90216367222E+01  0.77936554329E+00 -0.16391416365E+02  0.72461658386E+02  0.70000114755E+02 0.  0.
        -12    1    1    2    0    0  0.90216367222E+01 -0.77936554329E+00  0.16391416365E+02  0.18726341614E+02  0.00000000000E+00 0.  1.
         11    1    3    3    0    0 -0.48382799016E+01  0.13640392736E+02  0.11684886497E+02  0.18601232193E+02  0.51100000000E-03 0.  1.
        -11    1    3    3    0    0  0.79518659965E+01  0.96621791679E+01 -0.25173181683E+02  0.28111900601E+02  0.51100000000E-03 0. -1.
         12    1    3    3    0    0 -0.12135222817E+02 -0.22523206360E+02 -0.29031211793E+01  0.25748525592E+02  0.00000000000E+00 0. -1.
</event>
<event>
 7    1  0.1905073E-013  0.7246155E+02  0.7816164E-02  0.1226708E+00
        -11   -1    0    0    0    0  0.00000000000E+00  0.00000000000E+00  0.45593999997E+02  0.45594000000E+02  0.51100000000E-03 0. -1.
         11   -1    0    0    0    0 -0.00000000000E+00 -0.00000000000E+00 -0.45593999997E+02  0.45594000000E+02  0.51100000000E-03 0.  1.
    9900012    2    1    2    0    0  0.71931453691E+01 -0.14922525680E+02  0.87325226192E+01  0.72461546405E+02  0.69999968879E+02 0.  0.
        -12    1    1    2    0    0 -0.71931453691E+01  0.14922525680E+02 -0.87325226192E+01  0.18726453595E+02  0.00000000000E+00 0.  1.
         11    1    3    3    0    0  0.59426640917E+01 -0.24347129604E+02  0.14510714638E+02  0.28959606628E+02  0.51100000000E-03 0. -1.
        -11    1    3    3    0    0 -0.17080969183E+02  0.12027019663E+02 -0.11849020599E+02  0.24016827426E+02  0.51100000000E-03 0.  1.
        -12    1    3    3    0    0  0.18331450460E+02 -0.26024157382E+01  0.60708285805E+01  0.19485112351E+02  0.00000000000E+00 0.  1.
</event>
<event>
 7    1  0.1905073E-013  0.7246150E+02  0.7816164E-02  0.1226708E+00
        -11   -1    0    0    0    0  0.00000000000E+00  0.00000000000E+00  0.45593999997E+02  0.45594000000E+02  0.51100000000E-03 0.  1.
         11   -1    0    0    0    0 -0.00000000000E+00 -0.00000000000E+00 -0.45593999997E+02  0.45594000000E+02  0.51100000000E-03 0. -1.
    9900012    2    1    2    0    0  0.24738316673E+01 -0.17002105538E+02 -0.74491874546E+01  0.72461499270E+02  0.69999907478E+02 0.  0.
        -12    1    1    2    0    0 -0.24738316673E+01  0.17002105538E+02  0.74491874546E+01  0.18726500730E+02  0.00000000000E+00 0.  1.
         11    1    3    3    0    0  0.37418803785E+01 -0.10046606392E+02 -0.25048352178E+02  0.27246209202E+02  0.51100000000E-03 0. -1.
        -11    1    3    3    0    0 -0.92698940858E+01  0.11041930516E+02  0.20751852452E+02  0.25268449623E+02  0.51100000000E-03 0.  1.
         12    1    3    3    0    0  0.80018453746E+01 -0.17997429662E+02 -0.31526877287E+01  0.19946840445E+02  0.00000000000E+00 0. -1.
</event>
<event>
 7    1  0.1905073E-013  0.7246157E+02  0.7816164E-02  0.1226708E+00
        -11   -1    0    0    0    0  0.00000000000E+00  0.00000000000E+00  0.45593999997E+02  0.45594000000E+02  0.51100000000E-03 0.  1.
         11   -1    0    0    0    0 -0.00000000000E+00 -0.00000000000E+00 -0.45593999997E+02  0.45594000000E+02  0.51100000000E-03 0. -1.
    9900012    2    1    2    0    0  0.13854753813E+02  0.12304919568E+02  0.27044393067E+01  0.72461568392E+02  0.69999997521E+02 0.  0.
        -12    1    1    2    0    0 -0.13854753813E+02 -0.12304919568E+02 -0.27044393067E+01  0.18726431608E+02  0.00000000000E+00 0.  1.
         11    1    3    3    0    0 -0.74593780987E+01  0.19627638117E+02  0.75631491992E+01  0.22317879060E+02  0.51100000000E-03 0.  1.
        -11    1    3    3    0    0  0.30153311602E+02 -0.15574040286E+02  0.53021122757E+01  0.34349458893E+02  0.51100000000E-03 0. -1.
         12    1    3    3    0    0 -0.88391796901E+01  0.82513217372E+01 -0.10160822168E+02  0.15794230438E+02  0.00000000000E+00 0. -1.
</event>
<event>
 7    1  0.1905073E-013  0.7246142E+02  0.7816164E-02  0.1226708E+00
        -11   -1    0    0    0    0  0.00000000000E+00  0.00000000000E+00  0.45593999997E+02  0.45594000000E+02  0.51100000000E-03 0. -1.
         11   -1    0    0    0    0 -0.00000000000E+00 -0.00000000000E+00 -0.45593999997E+02  0.45594000000E+02  0.51100000000E-03 0.  1.
    9900012    2    1    2    0    0  0.16306455052E+02  0.47446499508E+01  0.78913083464E+01  0.72461416571E+02  0.69999799747E+02 0.  0.
        -12    1    1    2    0    0 -0.16306455052E+02 -0.47446499508E+01 -0.78913083464E+01  0.18726583429E+02  0.00000000000E+00 0.  1.
         11    1    3    3    0    0  0.19866701361E+02 -0.22437748831E+02  0.14419195062E+02  0.33257353804E+02  0.51100000000E-03 0. -1.
        -11    1    3    3    0    0 -0.14457613112E+02  0.13888707113E+02  0.17522619515E+01  0.20124343079E+02  0.51100000000E-03 0.  1.
        -12    1    3    3    0    0  0.10897366802E+02  0.13293691668E+02 -0.82801486672E+01  0.19079719687E+02  0.00000000000E+00 0.  1.
</event>
<event>
 7    1  0.1905073E-013  0.7246160E+02  0.7816164E-02  0.1226708E+00
        -11   -1    0    0    0    0  0.00000000000E+00  0.00000000000E+00  0.45593999997E+02  0.45594000000E+02  0.51100000000E-03 0. -1.
         11   -1    0    0    0    0 -0.00000000000E+00 -0.00000000000E+00 -0.45593999997E+02  0.45594000000E+02  0.51100000000E-03 0.  1.
    9900012    2    1    2    0    0  0.18335614674E+02  0.32042763590E+01 -0.20532393216E+01  0.72461603011E+02  0.70000042620E+02 0.  0.
        -12    1    1    2    0    0 -0.18335614674E+02 -0.32042763590E+01  0.20532393216E+01  0.18726396989E+02  0.00000000000E+00 0.  1.
         11    1    3    3    0    0  0.27342404053E+02  0.56522315317E+01  0.16593752892E+02  0.32479338293E+02  0.51100000000E-03 0. -1.
        -11    1    3    3    0    0 -0.11929542881E+02 -0.10664075492E+02 -0.24655158261E+02  0.29392402566E+02  0.51100000000E-03 0.  1.
        -12    1    3    3    0    0  0.29227535029E+01  0.82161203193E+01  0.60081660474E+01  0.10589862152E+02  0.00000000000E+00 0.  1.
</event>
<event>
 7    1  0.1905073E-013  0.7246158E+02  0.7816164E-02  0.1226708E+00
        -11   -1    0    0    0    0  0.00000000000E+00  0.00000000000E+00  0.45593999997E+02  0.45594000000E+02  0.51100000000E-03 0. -1.
         11   -1    0    0    0    0 -0.00000000000E+00 -0.00000000000E+00 -0.45593999997E+02  0.45594000000E+02  0.51100000000E-03 0.  1.
    9900012    2    1    2    0    0  0.74041683932E+00  0.18455447846E+02  0.30866161775E+01  0.72461575575E+02  0.70000006880E+02 0.  0.
        -12    1    1    2    0    0 -0.74041683932E+00 -0.18455447846E+02 -0.30866161775E+01  0.18726424425E+02  0.00000000000E+00 0.  1.
         11    1    3    3    0    0  0.14744714375E+02  0.14276696904E+02 -0.18772392493E+02  0.27814266064E+02  0.51100000000E-03 0. -1.
        -11    1    3    3    0    0 -0.19644716580E+02  0.39124070893E+01 -0.19991426511E+01  0.20130037018E+02  0.51100000000E-03 0.  1.
         12    1    3    3    0    0  0.56404190442E+01  0.26634385263E+00  0.23858151322E+02  0.24517272494E+02  0.00000000000E+00 0. -1.
</event>
<event>
 7    1  0.1905073E-013  0.7246158E+02  0.7816164E-02  0.1226708E+00
        -11   -1    0    0    0    0  0.00000000000E+00  0.00000000000E+00  0.45593999997E+02  0.45594000000E+02  0.51100000000E-03 0.  1.
         11   -1    0    0    0    0 -0.00000000000E+00 -0.00000000000E+00 -0.45593999997E+02  0.45594000000E+02  0.51100000000E-03 0. -1.
    9900012    2    1    2    0    0  0.14520193421E+02  0.16714690494E+01  0.11706785295E+02  0.72461584227E+02  0.70000018150E+02 0.  0.
        -12    1    1    2    0    0 -0.14520193421E+02 -0.16714690494E+01 -0.11706785295E+02  0.18726415773E+02  0.00000000000E+00 0.  1.
         11    1    3    3    0    0  0.25626274047E+02 -0.21600926681E+02  0.16193769366E+02  0.37222897812E+02  0.51100000000E-03 0.  1.
        -11    1    3    3    0    0 -0.30158086666E+01  0.20288891894E+02 -0.12032497379E+02  0.23780564115E+02  0.51100000000E-03 0. -1.
        -12    1    3    3    0    0 -0.80902719599E+01  0.29835038368E+01  0.75455133090E+01  0.11458122299E+02  0.00000000000E+00 0.  1.
</event>
<event>
 7    1  0.1905073E-013  0.7246157E+02  0.7816164E-02  0.1226708E+00
        -11   -1    0    0    0    0  0.00000000000E+00  0.00000000000E+00  0.45593999997E+02  0.45594000000E+02  0.51100000000E-03 0.  1.
         11   -1    0    0    0    0 -0.00000000000E+00 -0.00000000000E+00 -0.45593999997E+02  0.45594000000E+02  0.51100000000E-03 0. -1.
    9900012    2    1    2    0    0 -0.13322509722E+02  0.99945471617E+01 -0.85614775294E+01  0.72461571196E+02  0.70000001174E+02 0.  0.
        -12    1    1    2    0    0  0.13322509722E+02 -0.99945471617E+01  0.85614775294E+01  0.18726428804E+02  0.00000000000E+00 0.  1.
         11    1    3    3    0    0 -0.20252232054E+02 -0.18527899271E+02 -0.35066835926E+00  0.27451027725E+02  0.51100000000E-03 0.  1.
        -11    1    3    3    0    0  0.11013453763E+01  0.22620710607E+02 -0.20256812226E+02  0.30384995504E+02  0.51100000000E-03 0. -1.
        -12    1    3    3    0    0  0.58283769558E+01  0.59017358266E+01  0.12046003056E+02  0.14625547967E+02  0.00000000000E+00 0.  1.
</event>
<event>
 7    1  0.1905073E-013  0.7246157E+02  0.7816164E-02  0.1226708E+00
        -11   -1    0    0    0    0  0.00000000000E+00  0.00000000000E+00  0.45593999997E+02  0.45594000000E+02  0.51100000000E-03 0.  1.
         11   -1    0    0    0    0 -0.00000000000E+00 -0.00000000000E+00 -0.45593999997E+02  0.45594000000E+02  0.51100000000E-03 0. -1.
    9900012    2    1    2    0    0 -0.66162557600E+01 -0.17503118469E+02  0.73846975687E+00  0.72461565903E+02  0.69999994279E+02 0.  0.
        -12    1    1    2    0    0  0.66162557600E+01  0.17503118469E+02 -0.73846975687E+00  0.18726434097E+02  0.00000000000E+00 0.  1.
         11    1    3    3    0    0 -0.17038938671E+02 -0.37090991970E+01  0.51205847948E+01  0.18174246526E+02  0.51100000000E-03 0. -1.
        -11    1    3    3    0    0  0.25158953234E+02 -0.98534668690E+01  0.13974813963E+02  0.30419716677E+02  0.51100000000E-03 0.  1.
        -12    1    3    3    0    0 -0.14736270323E+02 -0.39405524031E+01 -0.18356929001E+02  0.23867602700E+02  0.00000000000E+00 0.  1.
</event>
<event>
 7    1  0.1905073E-013  0.7246160E+02  0.7816164E-02  0.1226708E+00
        -11   -1    0    0    0    0  0.00000000000E+00  0.00000000000E+00  0.45593999997E+02  0.45594000000E+02  0.51100000000E-03 0.  1.
         11   -1    0    0    0    0 -0.00000000000E+00 -0.00000000000E+00 -0.45593999997E+02  0.45594000000E+02  0.51100000000E-03 0. -1.
    9900012    2    1    2    0    0  0.39035864514E+01  0.17789043604E+02  0.43577307419E+01  0.72461604812E+02  0.70000044966E+02 0.  0.
        -12    1    1    2    0    0 -0.39035864514E+01 -0.17789043604E+02 -0.43577307419E+01  0.18726395188E+02  0.00000000000E+00 0.  1.
         11    1    3    3    0    0  0.61614007142E+01  0.25812651365E+02 -0.91176215893E+00  0.26553476980E+02  0.51100000000E-03 0. -1.
        -11    1    3    3    0    0  0.81591592967E+00 -0.19157440767E+02  0.19655369768E+02  0.27459184557E+02  0.51100000000E-03 0.  1.
         12    1    3    3    0    0 -0.30737301925E+01  0.11133833006E+02 -0.14385876868E+02  0.18448943275E+02  0.00000000000E+00 0. -1.
</event>
<event>
 7    1  0.1905073E-013  0.7246150E+02  0.7816164E-02  0.1226708E+00
        -11   -1    0    0    0    0  0.00000000000E+00  0.00000000000E+00  0.45593999997E+02  0.45594000000E+02  0.51100000000E-03 0. -1.
         11   -1    0    0    0    0 -0.00000000000E+00 -0.00000000000E+00 -0.45593999997E+02  0.45594000000E+02  0.51100000000E-03 0.  1.
    9900012    2    1    2    0    0 -0.12312054595E+02 -0.11521058057E+02 -0.81461907251E+01  0.72461497646E+02  0.69999905362E+02 0.  0.
        -12    1    1    2    0    0  0.12312054595E+02  0.11521058057E+02  0.81461907251E+01  0.18726502354E+02  0.00000000000E+00 0.  1.
         11    1    3    3    0    0 -0.27494045664E+02  0.35201699293E+01 -0.15623467634E+02  0.31818341951E+02  0.51100000000E-03 0. -1.
        -11    1    3    3    0    0  0.20940831935E+02 -0.19814570140E+02 -0.16088343757E+01  0.28874278870E+02  0.51100000000E-03 0.  1.
         12    1    3    3    0    0 -0.57588408660E+01  0.47733421541E+01  0.90861112850E+01  0.11768876825E+02  0.00000000000E+00 0. -1.
</event>
<event>
 7    1  0.1905073E-013  0.7246188E+02  0.7816164E-02  0.1226707E+00
        -11   -1    0    0    0    0  0.00000000000E+00  0.00000000000E+00  0.45593999997E+02  0.45594000000E+02  0.51100000000E-03 0.  1.
         11   -1    0    0    0    0 -0.00000000000E+00 -0.00000000000E+00 -0.45593999997E+02  0.45594000000E+02  0.51100000000E-03 0. -1.
    9900012    2    1    2    0    0  0.12448529465E+02  0.13661125523E+02  0.30125388385E+01  0.72461878494E+02  0.70000401487E+02 0.  0.
        -12    1    1    2    0    0 -0.12448529465E+02 -0.13661125523E+02 -0.30125388385E+01  0.18726121506E+02  0.00000000000E+00 0.  1.
         11    1    3    3    0    0  0.85559947374E+01 -0.66255937568E+01 -0.11205252057E+02  0.15577586864E+02  0.51100000000E-03 0. -1.
        -11    1    3    3    0    0 -0.21115949995E+02  0.20992405495E+02  0.48400343128E+01  0.30166046560E+02  0.51100000000E-03 0.  1.
        -12    1    3    3    0    0  0.25008484722E+02 -0.70568621520E+00  0.93777565827E+01  0.26718245070E+02  0.00000000000E+00 0.  1.
</event>
<event>
 7    1  0.1905073E-013  0.7246173E+02  0.7816164E-02  0.1226708E+00
        -11   -1    0    0    0    0  0.00000000000E+00  0.00000000000E+00  0.45593999997E+02  0.45594000000E+02  0.51100000000E-03 0.  1.
         11   -1    0    0    0    0 -0.00000000000E+00 -0.00000000000E+00 -0.45593999997E+02  0.45594000000E+02  0.51100000000E-03 0. -1.
    9900012    2    1    2    0    0 -0.11945009617E+02 -0.95112800102E+01  0.10840912484E+02  0.72461732736E+02  0.70000211610E+02 0.  0.
        -12    1    1    2    0    0  0.11945009617E+02  0.95112800102E+01 -0.10840912484E+02  0.18726267264E+02  0.00000000000E+00 0.  1.
         11    1    3    3    0    0 -0.32432601135E+02 -0.61284452142E+01  0.88981594630E+01  0.34184919179E+02  0.51100000000E-03 0. -1.
        -11    1    3    3    0    0  0.29277714813E+02 -0.22442774437E+01  0.14262352076E+01  0.29398222958E+02  0.51100000000E-03 0.  1.
        -12    1    3    3    0    0 -0.87901232948E+01 -0.11385573523E+01  0.51651781295E+00  0.88785905995E+01  0.00000000000E+00 0.  1.
</event>
<event>
 7    1  0.1905073E-013  0.7246167E+02  0.7816164E-02  0.1226708E+00
        -11   -1    0    0    0    0  0.00000000000E+00  0.00000000000E+00  0.45593999997E+02  0.45594000000E+02  0.51100000000E-03 0.  1.
         11   -1    0    0    0    0 -0.00000000000E+00 -0.00000000000E+00 -0.45593999997E+02  0.45594000000E+02  0.51100000000E-03 0. -1.
    9900012    2    1    2    0    0  0.60994550814E+01  0.13302258702E+02 -0.11684264009E+02  0.72461669225E+02  0.70000128875E+02 0.  0.
        -12    1    1    2    0    0 -0.60994550814E+01 -0.13302258702E+02  0.11684264009E+02  0.18726330775E+02  0.00000000000E+00 0.  1.
         11    1    3    3    0    0 -0.54767286999E+01  0.22667657083E+01  0.22625553924E+02  0.23389067417E+02  0.51100000000E-03 0.  1.
        -11    1    3    3    0    0  0.12747895447E+02  0.14810450399E+02 -0.38584424720E+02  0.43250619772E+02  0.51100000000E-03 0. -1.
         12    1    3    3    0    0 -0.11717116657E+01 -0.37749574053E+01  0.42746067875E+01  0.58219820360E+01  0.00000000000E+00 0. -1.
</event>
<event>
 7    1  0.1905073E-013  0.7246158E+02  0.7816164E-02  0.1226708E+00
        -11   -1    0    0    0    0  0.00000000000E+00  0.00000000000E+00  0.45593999997E+02  0.45594000000E+02  0.51100000000E-03 0.  1.
         11   -1    0    0    0    0 -0.00000000000E+00 -0.00000000000E+00 -0.45593999997E+02  0.45594000000E+02  0.51100000000E-03 0. -1.
    9900012    2    1    2    0    0  0.87581064125E+00  0.84313204130E+01 -0.16698043491E+02  0.72461578436E+02  0.70000010606E+02 0.  0.
        -12    1    1    2    0    0 -0.87581064125E+00 -0.84313204130E+01  0.16698043491E+02  0.18726421564E+02  0.00000000000E+00 0.  1.
         11    1    3    3    0    0 -0.73283576617E+00  0.25854598610E+02 -0.17265549906E+02  0.31098175692E+02  0.51100000000E-03 0. -1.
        -11    1    3    3    0    0 -0.12164123165E+02 -0.22873749593E+02  0.38512522162E+01  0.26191724966E+02  0.51100000000E-03 0.  1.
         12    1    3    3    0    0  0.13772769572E+02  0.54504713960E+01 -0.32837458009E+01  0.15171677778E+02  0.00000000000E+00 0. -1.
</event>
<event>
 7    1  0.1905073E-013  0.7246161E+02  0.7816164E-02  0.1226708E+00
        -11   -1    0    0    0    0  0.00000000000E+00  0.00000000000E+00  0.45593999997E+02  0.45594000000E+02  0.51100000000E-03 0. -1.
         11   -1    0    0    0    0 -0.00000000000E+00 -0.00000000000E+00 -0.45593999997E+02  0.45594000000E+02  0.51100000000E-03 0.  1.
    9900012    2    1    2    0    0 -0.11074003217E+02  0.20289751317E+01  0.14964203105E+02  0.72461610548E+02  0.70000052438E+02 0.  0.
        -12    1    1    2    0    0  0.11074003217E+02 -0.20289751317E+01 -0.14964203105E+02  0.18726389452E+02  0.00000000000E+00 0.  1.
         11    1    3    3    0    0 -0.29862316540E+01  0.17711819320E+01  0.15093474738E+02  0.15487661052E+02  0.51100000000E-03 0. -1.
        -11    1    3    3    0    0  0.89490849193E-01 -0.62120075429E+01 -0.27233528960E+02  0.27933172863E+02  0.51100000000E-03 0.  1.
        -12    1    3    3    0    0 -0.81772624119E+01  0.64698007426E+01  0.27104257327E+02  0.29040776633E+02  0.00000000000E+00 0.  1.
</event>
<event>
 7    1  0.1905073E-013  0.7246159E+02  0.7816164E-02  0.1226708E+00
        -11   -1    0    0    0    0  0.00000000000E+00  0.00000000000E+00  0.45593999997E+02  0.45594000000E+02  0.51100000000E-03 0. -1.
         11   -1    0    0    0    0 -0.00000000000E+00 -0.00000000000E+00 -0.45593999997E+02  0.45594000000E+02  0.51100000000E-03 0.  1.
    9900012    2    1    2    0    0  0.14150086545E+02  0.49680459358E+01  0.11214804143E+02  0.72461594536E+02  0.70000031579E+02 0.  0.
        -12    1    1    2    0    0 -0.14150086545E+02 -0.49680459358E+01 -0.11214804143E+02  0.18726405464E+02  0.00000000000E+00 0.  1.
         11    1    3    3    0    0 -0.22912827728E+02 -0.62923860683E+01  0.17996796440E+02  0.29807322578E+02  0.51100000000E-03 0. -1.
        -11    1    3    3    0    0  0.20856103885E+00  0.14261113730E+01 -0.41802536951E+01  0.44217431599E+01  0.51100000000E-03 0.  1.
         12    1    3    3    0    0  0.36854353233E+02  0.98343206312E+01 -0.26017386019E+01  0.38232528798E+02  0.00000000000E+00 0. -1.
</event>
<event>
 7    1  0.1905073E-013  0.7246157E+02  0.7816164E-02  0.1226708E+00
        -11   -1    0    0    0    0  0.00000000000E+00  0.00000000000E+00  0.45593999997E+02  0.45594000000E+02  0.51100000000E-03 0. -1.
         11   -1    0    0    0    0 -0.00000000000E+00 -0.00000000000E+00 -0.45593999997E+02  0.45594000000E+02  0.51100000000E-03 0.  1.
    9900012    2    1    2    0    0  0.18080261795E+02 -0.47448724070E+01  0.11267963974E+01  0.72461565453E+02  0.69999993693E+02 0.  0.
        -12    1    1    2    0    0 -0.18080261795E+02  0.47448724070E+01 -0.11267963974E+01  0.18726434547E+02  0.00000000000E+00 0.  1.
         11    1    3    3    0    0 -0.56581744212E+01 -0.50274959510E+01  0.28068913186E+02  0.29071541773E+02  0.51100000000E-03 0. -1.
        -11    1    3    3    0    0  0.11453129092E+02  0.12136903318E+02 -0.15957630305E+02  0.23089490106E+02  0.51100000000E-03 0.  1.
         12    1    3    3    0    0  0.12285307124E+02 -0.11854279774E+02 -0.10984486483E+02  0.20300533574E+02  0.00000000000E+00 0. -1.
</event>
<event>
 7    1  0.1905073E-013  0.7246166E+02  0.7816164E-02  0.1226708E+00
        -11   -1    0    0    0    0  0.00000000000E+00  0.00000000000E+00  0.45593999997E+02  0.45594000000E+02  0.51100000000E-03 0.  1.
         11   -1    0    0    0    0 -0.00000000000E+00 -0.00000000000E+00 -0.45593999997E+02  0.45594000000E+02  0.51100000000E-03 0. -1.
    9900012    2    1    2    0    0  0.17507304551E+02  0.34124018071E+01 -0.57031126238E+01  0.72461663136E+02  0.70000120944E+02 0.  0.
        -12    1    1    2    0    0 -0.17507304551E+02 -0.34124018071E+01  0.57031126238E+01  0.18726336864E+02  0.00000000000E+00 0.  1.
         11    1    3    3    0    0 -0.22406072618E+02 -0.34723571792E+01 -0.21252965207E+01  0.22772927790E+02  0.51100000000E-03 0.  1.
        -11    1    3    3    0    0  0.22648521084E+02  0.73764377864E+00  0.11994904571E+02  0.25639371318E+02  0.51100000000E-03 0. -1.
        -12    1    3    3    0    0  0.17264856085E+02  0.61471152076E+01 -0.15572720674E+02  0.24049364029E+02  0.00000000000E+00 0.  1.
</event>
<event>
 7    1  0.1905073E-013  0.7246199E+02  0.7816164E-02  0.1226707E+00
        -11   -1    0    0    0    0  0.00000000000E+00  0.00000000000E+00  0.45593999997E+02  0.45594000000E+02  0.51100000000E-03 0. -1.
         11   -1    0    0    0    0 -0.00000000000E+00 -0.00000000000E+00 -0.45593999997E+02  0.45594000000E+02  0.51100000000E-03 0.  1.
    9900012    2    1    2    0    0 -0.14583898365E+01  0.18624934717E+02 -0.12838462561E+01  0.72461992542E+02  0.70000550053E+02 0.  0.
        -12    1    1    2    0    0  0.14583898365E+01 -0.18624934717E+02  0.12838462561E+01  0.18726007458E+02  0.00000000000E+00 0.  1.
         11    1    3    3    0    0  0.17284329519E+02  0.22047232100E+02 -0.13028260404E+02  0.30896020126E+02  0.51100000000E-03 0.  1.
        -11    1    3    3    0    0 -0.20820617857E+01 -0.11848669601E+02  0.18195205477E+02  0.21812644388E+02  0.51100000000E-03 0. -1.
        -12    1    3    3    0    0 -0.16660657570E+02  0.84263722173E+01 -0.64507913285E+01  0.19753328028E+02  0.00000000000E+00 0.  1.
</event>
<event>
 7    1  0.1905073E-013  0.7246161E+02  0.7816164E-02  0.1226708E+00
        -11   -1    0    0    0    0  0.00000000000E+00  0.00000000000E+00  0.45593999997E+02  0.45594000000E+02  0.51100000000E-03 0.  1.
         11   -1    0    0    0    0 -0.00000000000E+00 -0.00000000000E+00 -0.45593999997E+02  0.45594000000E+02  0.51100000000E-03 0. -1.
    9900012    2    1    2    0    0 -0.54360611361E+01  0.15628739101E+02 -0.87675149427E+01  0.72461613140E+02  0.70000055815E+02 0.  0.
        -12    1    1    2    0    0  0.54360611361E+01 -0.15628739101E+02  0.87675149427E+01  0.18726386860E+02  0.00000000000E+00 0.  1.
         11    1    3    3    0    0  0.13244457521E+02 -0.25957870558E+01 -0.40192522166E+01  0.14082192802E+02  0.51100000000E-03 0. -1.
        -11    1    3    3    0    0 -0.29169130650E+02  0.90521173523E+01 -0.20930397365E+02  0.37025133971E+02  0.51100000000E-03 0.  1.
        -12    1    3    3    0    0  0.10488611993E+02  0.91724088042E+01  0.16182134638E+02  0.21354286368E+02  0.00000000000E+00 0.  1.
</event>
<event>
 7    1  0.1905073E-013  0.7246157E+02  0.7816164E-02  0.1226708E+00
        -11   -1    0    0    0    0  0.00000000000E+00  0.00000000000E+00  0.45593999997E+02  0.45594000000E+02  0.51100000000E-03 0.  1.
         11   -1    0    0    0    0 -0.00000000000E+00 -0.00000000000E+00 -0.45593999997E+02  0.45594000000E+02  0.51100000000E-03 0. -1.
    9900012    2    1    2    0    0  0.11634559054E+02  0.23375232173E+01 -0.14486271144E+02  0.72461573997E+02  0.70000004824E+02 0.  0.
        -12    1    1    2    0    0 -0.11634559054E+02 -0.23375232173E+01  0.14486271144E+02  0.18726426003E+02  0.00000000000E+00 0.  1.
         11    1    3    3    0    0  0.50203706056E+01  0.24755977543E+02 -0.22233303275E+02  0.33650888843E+02  0.51100000000E-03 0.  1.
        -11    1    3    3    0    0  0.18549347842E-02 -0.28592225584E+02  0.82246043624E+01  0.29751629946E+02  0.51100000000E-03 0. -1.
         12    1    3    3    0    0  0.66123335134E+01  0.61737712580E+01 -0.47757223184E+00  0.90590552087E+01  0.00000000000E+00 0. -1.
</event>
<event>
 7    1  0.1905073E-013  0.7246160E+02  0.7816164E-02  0.1226708E+00
        -11   -1    0    0    0    0  0.00000000000E+00  0.00000000000E+00  0.45593999997E+02  0.45594000000E+02  0.51100000000E-03 0. -1.
         11   -1    0    0    0    0 -0.00000000000E+00 -0.00000000000E+00 -0.45593999997E+02  0.45594000000E+02  0.51100000000E-03 0.  1.
    9900012    2    1    2    0    0 -0.11115377138E+02  0.14770632357E+02  0.29924595174E+01  0.72461601438E+02  0.70000040571E+02 0.  0.
        -12    1    1    2    0    0  0.11115377138E+02 -0.14770632357E+02 -0.29924595174E+01  0.18726398562E+02  0.00000000000E+00 0.  1.
         11    1    3    3    0    0  0.31143266926E+01 -0.95354851399E+01  0.27365193989E+02  0.29145811876E+02  0.51100000000E-03 0. -1.
        -11    1    3    3    0    0 -0.88171372317E+01  0.22426873931E+02 -0.27680205850E+02  0.36700141409E+02  0.51100000000E-03 0.  1.
        -12    1    3    3    0    0 -0.54125665986E+01  0.18792435661E+01  0.33074713784E+01  0.66156481530E+01  0.00000000000E+00 0.  1.
</event>
<event>
 8    1  0.1905073E-013  0.7246154E+02  0.7816164E-02  0.1226708E+00
        -11   -1    0    0    0    0  0.00000000000E+00  0.00000000000E+00  0.45593999997E+02  0.45594000000E+02  0.51100000000E-03 0.  1.
         11   -1    0    0    0    0 -0.00000000000E+00 -0.00000000000E+00 -0.45593999997E+02  0.45594000000E+02  0.51100000000E-03 0. -1.
    9900012    2    1    2    0    0 -0.31110662217E+01  0.22334494665E+01 -0.18330665836E+02  0.72461539054E+02  0.69999959304E+02 0.  0.
         24    2    3    3    0    0  0.71198546441E+01  0.66721554696E+01 -0.15234435738E+02  0.60887408684E+02  0.58137582640E+02 0.  0.
        -12    1    1    2    0    0  0.31110662217E+01 -0.22334494665E+01  0.18330665836E+02  0.18726460946E+02  0.00000000000E+00 0.  1.
         11    1    3    3    0    0 -0.10230920866E+02 -0.44387060031E+01 -0.30962300983E+01  0.11574130370E+02  0.51100000000E-03 0.  1.
        -11    1    4    4    0    0  0.28942336896E+02  0.17729188249E+02 -0.47502273555E+01  0.34271674035E+02  0.51100000000E-03 0. -1.
         12    1    4    4    0    0 -0.21822482252E+02 -0.11057032779E+02 -0.10484208382E+02  0.26615734649E+02  0.00000000000E+00 0. -1.
</event>
<event>
 7    1  0.1905073E-013  0.7246184E+02  0.7816164E-02  0.1226707E+00
        -11   -1    0    0    0    0  0.00000000000E+00  0.00000000000E+00  0.45593999997E+02  0.45594000000E+02  0.51100000000E-03 0.  1.
         11   -1    0    0    0    0 -0.00000000000E+00 -0.00000000000E+00 -0.45593999997E+02  0.45594000000E+02  0.51100000000E-03 0. -1.
    9900012    2    1    2    0    0  0.30436606838E+01 -0.41987106235E+01 -0.17993777161E+02  0.72461840282E+02  0.70000351709E+02 0.  0.
        -12    1    1    2    0    0 -0.30436606838E+01  0.41987106235E+01  0.17993777161E+02  0.18726159718E+02  0.00000000000E+00 0.  1.
         11    1    3    3    0    0 -0.13677196811E+02  0.35992148542E+01 -0.15235888462E+02  0.20788274523E+02  0.51100000000E-03 0. -1.
        -11    1    3    3    0    0  0.33176359842E+02 -0.47284737781E+01 -0.73658426327E+01  0.34311586302E+02  0.51100000000E-03 0.  1.
        -12    1    3    3    0    0 -0.16455502347E+02 -0.30694516995E+01  0.46079539338E+01  0.17361979457E+02  0.00000000000E+00 0.  1.
</event>
<event>
 7    1  0.1905073E-013  0.7246156E+02  0.7816164E-02  0.1226708E+00
        -11   -1    0    0    0    0  0.00000000000E+00  0.00000000000E+00  0.45593999997E+02  0.45594000000E+02  0.51100000000E-03 0. -1.
         11   -1    0    0    0    0 -0.00000000000E+00 -0.00000000000E+00 -0.45593999997E+02  0.45594000000E+02  0.51100000000E-03 0.  1.
    9900012    2    1    2    0    0  0.16593742651E+02  0.82500611606E+01 -0.26951428644E+01  0.72461558817E+02  0.69999985048E+02 0.  0.
        -12    1    1    2    0    0 -0.16593742651E+02 -0.82500611606E+01  0.26951428644E+01  0.18726441183E+02  0.00000000000E+00 0.  1.
         11    1    3    3    0    0  0.48111134298E+01  0.28831775382E+02  0.17981280680E+02  0.34318282872E+02  0.51100000000E-03 0. -1.
        -11    1    3    3    0    0  0.10522342434E+02 -0.18242882115E+02 -0.42261227938E+01  0.21479817324E+02  0.51100000000E-03 0.  1.
        -12    1    3    3    0    0  0.12602867877E+01 -0.23388321067E+01 -0.16450300751E+02  0.16663458620E+02  0.00000000000E+00 0.  1.
</event>
<event>
 7    1  0.1905073E-013  0.7246149E+02  0.7816164E-02  0.1226708E+00
        -11   -1    0    0    0    0  0.00000000000E+00  0.00000000000E+00  0.45593999997E+02  0.45594000000E+02  0.51100000000E-03 0.  1.
         11   -1    0    0    0    0 -0.00000000000E+00 -0.00000000000E+00 -0.45593999997E+02  0.45594000000E+02  0.51100000000E-03 0. -1.
    9900012    2    1    2    0    0 -0.17183688194E+02 -0.69136135344E+01  0.27577476120E+01  0.72461485002E+02  0.69999888891E+02 0.  0.
        -12    1    1    2    0    0  0.17183688194E+02  0.69136135344E+01 -0.27577476120E+01  0.18726514998E+02  0.00000000000E+00 0.  1.
         11    1    3    3    0    0 -0.26653860993E+02  0.17263169133E+02  0.68540367992E+01  0.32487276510E+02  0.51100000000E-03 0.  1.
        -11    1    3    3    0    0  0.20164326936E+02 -0.14547442193E+02 -0.56558709045E+01  0.25499353543E+02  0.51100000000E-03 0. -1.
         12    1    3    3    0    0 -0.10694154137E+02 -0.96293404744E+01  0.15595817173E+01  0.14474854949E+02  0.00000000000E+00 0. -1.
</event>
<event>
 7    1  0.1905073E-013  0.7246155E+02  0.7816164E-02  0.1226708E+00
        -11   -1    0    0    0    0  0.00000000000E+00  0.00000000000E+00  0.45593999997E+02  0.45594000000E+02  0.51100000000E-03 0.  1.
         11   -1    0    0    0    0 -0.00000000000E+00 -0.00000000000E+00 -0.45593999997E+02  0.45594000000E+02  0.51100000000E-03 0. -1.
    9900012    2    1    2    0    0  0.16165530929E+02  0.40664719546E+01 -0.85334212405E+01  0.72461551793E+02  0.69999975899E+02 0.  0.
        -12    1    1    2    0    0 -0.16165530929E+02 -0.40664719546E+01  0.85334212405E+01  0.18726448207E+02  0.00000000000E+00 0.  1.
         11    1    3    3    0    0  0.34326690484E+02 -0.17744153268E+02  0.15295754150E+01  0.38671905255E+02  0.51100000000E-03 0. -1.
        -11    1    3    3    0    0 -0.83360186356E+01  0.69700209909E+01  0.34965074675E+01  0.11414725754E+02  0.51100000000E-03 0.  1.
         12    1    3    3    0    0 -0.98251409199E+01  0.14840604232E+02 -0.13559504123E+02  0.22374920785E+02  0.00000000000E+00 0. -1.
</event>
<event>
 7    1  0.1905073E-013  0.7246156E+02  0.7816164E-02  0.1226708E+00
        -11   -1    0    0    0    0  0.00000000000E+00  0.00000000000E+00  0.45593999997E+02  0.45594000000E+02  0.51100000000E-03 0.  1.
         11   -1    0    0    0    0 -0.00000000000E+00 -0.00000000000E+00 -0.45593999997E+02  0.45594000000E+02  0.51100000000E-03 0. -1.
    9900012    2    1    2    0    0 -0.11409299287E+02 -0.14420581526E+02  0.35432198403E+01  0.72461556435E+02  0.69999981945E+02 0.  0.
        -12    1    1    2    0    0  0.11409299287E+02  0.14420581526E+02 -0.35432198403E+01  0.18726443565E+02  0.00000000000E+00 0.  1.
         11    1    3    3    0    0  0.56286801459E+01 -0.25785223138E+02 -0.16589195840E+02  0.31173084405E+02  0.51100000000E-03 0. -1.
        -11    1    3    3    0    0 -0.21408632493E+02 -0.24208868507E+01  0.13003054544E+02  0.25164849813E+02  0.51100000000E-03 0.  1.
        -12    1    3    3    0    0  0.43706530608E+01  0.13785528463E+02  0.71293611360E+01  0.16123622217E+02  0.00000000000E+00 0.  1.
</event>
<event>
 7    1  0.1905073E-013  0.7246161E+02  0.7816164E-02  0.1226708E+00
        -11   -1    0    0    0    0  0.00000000000E+00  0.00000000000E+00  0.45593999997E+02  0.45594000000E+02  0.51100000000E-03 0. -1.
         11   -1    0    0    0    0 -0.00000000000E+00 -0.00000000000E+00 -0.45593999997E+02  0.45594000000E+02  0.51100000000E-03 0.  1.
    9900012    2    1    2    0    0 -0.76726974544E+01  0.15642136721E+02  0.68651898875E+01  0.72461613279E+02  0.70000055996E+02 0.  0.
        -12    1    1    2    0    0  0.76726974544E+01 -0.15642136721E+02 -0.68651898875E+01  0.18726386721E+02  0.00000000000E+00 0.  1.
         11    1    3    3    0    0  0.42941581641E+01 -0.26544903760E+01 -0.85720674015E+01  0.99481884427E+01  0.51100000000E-03 0. -1.
        -11    1    3    3    0    0 -0.17334697775E+02 -0.87250614838E+01  0.26482546901E+02  0.32832053476E+02  0.51100000000E-03 0.  1.
        -12    1    3    3    0    0  0.53678421568E+01  0.27021688581E+02 -0.11045289612E+02  0.29681371360E+02  0.00000000000E+00 0.  1.
</event>
<event>
 7    1  0.1905073E-013  0.7246146E+02  0.7816164E-02  0.1226708E+00
        -11   -1    0    0    0    0  0.00000000000E+00  0.00000000000E+00  0.45593999997E+02  0.45594000000E+02  0.51100000000E-03 0.  1.
         11   -1    0    0    0    0 -0.00000000000E+00 -0.00000000000E+00 -0.45593999997E+02  0.45594000000E+02  0.51100000000E-03 0. -1.
    9900012    2    1    2    0    0 -0.12587695099E+02 -0.82165868809E+01 -0.11167844578E+02  0.72461464806E+02  0.69999862582E+02 0.  0.
        -12    1    1    2    0    0  0.12587695099E+02  0.82165868809E+01  0.11167844578E+02  0.18726535194E+02  0.00000000000E+00 0.  1.
         11    1    3    3    0    0 -0.32014116650E+01  0.88671088748E+01 -0.29704274393E+01  0.98842347140E+01  0.51100000000E-03 0. -1.
        -11    1    3    3    0    0  0.10136091577E+02 -0.33600410614E+02  0.17477127998E+01  0.35139471342E+02  0.51100000000E-03 0.  1.
        -12    1    3    3    0    0 -0.19522375011E+02  0.16516714858E+02 -0.99451299381E+01  0.27437758750E+02  0.00000000000E+00 0.  1.
</event>
<event>
 7    1  0.1905073E-013  0.7246158E+02  0.7816164E-02  0.1226708E+00
        -11   -1    0    0    0    0  0.00000000000E+00  0.00000000000E+00  0.45593999997E+02  0.45594000000E+02  0.51100000000E-03 0. -1.
         11   -1    0    0    0    0 -0.00000000000E+00 -0.00000000000E+00 -0.45593999997E+02  0.45594000000E+02  0.51100000000E-03 0.  1.
    9900012    2    1    2    0    0  0.17847978162E+02  0.56570402022E+01 -0.35561911545E+00  0.72461577670E+02  0.70000009608E+02 0.  0.
        -12    1    1    2    0    0 -0.17847978162E+02 -0.56570402022E+01  0.35561911545E+00  0.18726422330E+02  0.00000000000E+00 0.  1.
         11    1    3    3    0    0  0.18161500182E+02  0.50484026630E+01  0.25385487249E+01  0.19020270455E+02  0.51100000000E-03 0. -1.
        -11    1    3    3    0    0 -0.99637805697E+01 -0.53297889879E+01 -0.25645458446E+02  0.28024509149E+02  0.51100000000E-03 0.  1.
        -12    1    3    3    0    0  0.96502585502E+01  0.59384265271E+01  0.22751290605E+02  0.25416798066E+02  0.00000000000E+00 0.  1.
</event>
<event>
 7    1  0.1905073E-013  0.7246158E+02  0.7816164E-02  0.1226708E+00
        -11   -1    0    0    0    0  0.00000000000E+00  0.00000000000E+00  0.45593999997E+02  0.45594000000E+02  0.51100000000E-03 0. -1.
         11   -1    0    0    0    0 -0.00000000000E+00 -0.00000000000E+00 -0.45593999997E+02  0.45594000000E+02  0.51100000000E-03 0.  1.
    9900012    2    1    2    0    0  0.13894778572E+01  0.74166139050E+01  0.17138900316E+02  0.72461582442E+02  0.70000015825E+02 0.  0.
        -12    1    1    2    0    0 -0.13894778572E+01 -0.74166139050E+01 -0.17138900316E+02  0.18726417558E+02  0.00000000000E+00 0.  1.
         11    1    3    3    0    0  0.10376329293E+02  0.30567304509E+02 -0.32890304690E+01  0.32447589067E+02  0.51100000000E-03 0. -1.
        -11    1    3    3    0    0 -0.12806585507E+02 -0.22715023960E+01  0.97404874350E+01  0.16249475413E+02  0.51100000000E-03 0.  1.
         12    1    3    3    0    0  0.38197340713E+01 -0.20879188208E+02  0.10687443349E+02  0.23764517962E+02  0.00000000000E+00 0. -1.
</event>
<event>
 7    1  0.1905073E-013  0.7246160E+02  0.7816164E-02  0.1226708E+00
        -11   -1    0    0    0    0  0.00000000000E+00  0.00000000000E+00  0.45593999997E+02  0.45594000000E+02  0.51100000000E-03 0.  1.
         11   -1    0    0    0    0 -0.00000000000E+00 -0.00000000000E+00 -0.45593999997E+02  0.45594000000E+02  0.51100000000E-03 0. -1.
    9900012    2    1    2    0    0  0.15549161794E+02 -0.10007852576E+02 -0.29571200644E+01  0.72461598724E+02  0.70000037035E+02 0.  0.
        -12    1    1    2    0    0 -0.15549161794E+02  0.10007852576E+02  0.29571200644E+01  0.18726401276E+02  0.00000000000E+00 0.  1.
         11    1    3    3    0    0  0.28529323359E+02 -0.13324913298E+02 -0.25176060064E+02  0.40315128752E+02  0.51100000000E-03 0. -1.
        -11    1    3    3    0    0 -0.15321518806E+02  0.35264314315E+01  0.78248368715E+01  0.17561683560E+02  0.51100000000E-03 0.  1.
        -12    1    3    3    0    0  0.23413572401E+01 -0.20937070937E+00  0.14394103128E+02  0.14584786412E+02  0.00000000000E+00 0.  1.
</event>
<event>
 7    1  0.3483878E-013  0.7246157E+02  0.7816164E-02  0.1226708E+00
        -11   -1    0    0    0    0  0.00000000000E+00  0.00000000000E+00  0.45593999997E+02  0.45594000000E+02  0.51100000000E-03 0. -1.
         11   -1    0    0    0    0 -0.00000000000E+00 -0.00000000000E+00 -0.45593999997E+02  0.45594000000E+02  0.51100000000E-03 0.  1.
    9900012    2    1    2    0    0  0.10975348243E+02  0.12985370059E+02  0.78486310267E+01  0.72461571787E+02  0.70000001944E+02 0.  0.
        -12    1    1    2    0    0 -0.10975348243E+02 -0.12985370059E+02 -0.78486310267E+01  0.18726428213E+02  0.00000000000E+00 0.  1.
         11    1    3    3    0    0  0.26350628108E+02 -0.13997325141E+02  0.10009036454E+02  0.31471598685E+02  0.51100000000E-03 0. -1.
        -11    1    3    3    0    0 -0.37050829486E+01  0.77210309045E+01 -0.13335525559E+02  0.15848602465E+02  0.51100000000E-03 0.  1.
         12    1    3    3    0    0 -0.11670196917E+02  0.19261664296E+02  0.11175120132E+02  0.25141370637E+02  0.00000000000E+00 0. -1.
</event>
<event>
 7    1  0.1905073E-013  0.7246158E+02  0.7816164E-02  0.1226708E+00
        -11   -1    0    0    0    0  0.00000000000E+00  0.00000000000E+00  0.45593999997E+02  0.45594000000E+02  0.51100000000E-03 0.  1.
         11   -1    0    0    0    0 -0.00000000000E+00 -0.00000000000E+00 -0.45593999997E+02  0.45594000000E+02  0.51100000000E-03 0. -1.
    9900012    2    1    2    0    0 -0.11667177750E+02  0.11401027369E+02 -0.91963321273E+01  0.72461575186E+02  0.70000006372E+02 0.  0.
        -12    1    1    2    0    0  0.11667177750E+02 -0.11401027369E+02  0.91963321273E+01  0.18726424814E+02  0.00000000000E+00 0.  1.
         11    1    3    3    0    0  0.22994803532E+02  0.13870258207E+02  0.13618980721E+02  0.30110159221E+02  0.51100000000E-03 0. -1.
        -11    1    3    3    0    0 -0.65796773882E+01 -0.83675507688E+00 -0.90208561880E+00  0.66937338098E+01  0.51100000000E-03 0.  1.
         12    1    3    3    0    0 -0.28082303893E+02 -0.16324757609E+01 -0.21913227230E+02  0.35657682155E+02  0.00000000000E+00 0. -1.
</event>
<event>
 7    1  0.1905073E-013  0.7246159E+02  0.7816164E-02  0.1226708E+00
        -11   -1    0    0    0    0  0.00000000000E+00  0.00000000000E+00  0.45593999997E+02  0.45594000000E+02  0.51100000000E-03 0.  1.
         11   -1    0    0    0    0 -0.00000000000E+00 -0.00000000000E+00 -0.45593999997E+02  0.45594000000E+02  0.51100000000E-03 0. -1.
    9900012    2    1    2    0    0 -0.15448123101E+02 -0.83193376518E+01  0.65438836239E+01  0.72461593532E+02  0.70000030272E+02 0.  0.
        -12    1    1    2    0    0  0.15448123101E+02  0.83193376518E+01 -0.65438836239E+01  0.18726406468E+02  0.00000000000E+00 0.  1.
         11    1    3    3    0    0 -0.13134032706E+02 -0.14596041675E+02 -0.27180109418E+02  0.33530666500E+02  0.51100000000E-03 0. -1.
        -11    1    3    3    0    0 -0.69411610331E+01 -0.20808106759E+01  0.24876184841E+02  0.25910115053E+02  0.51100000000E-03 0.  1.
         12    1    3    3    0    0  0.46270706383E+01  0.83575146988E+01  0.88478082006E+01  0.13020811979E+02  0.00000000000E+00 0. -1.
</event>
<event>
 7    1  0.1905073E-013  0.7246161E+02  0.7816164E-02  0.1226708E+00
        -11   -1    0    0    0    0  0.00000000000E+00  0.00000000000E+00  0.45593999997E+02  0.45594000000E+02  0.51100000000E-03 0.  1.
         11   -1    0    0    0    0 -0.00000000000E+00 -0.00000000000E+00 -0.45593999997E+02  0.45594000000E+02  0.51100000000E-03 0. -1.
    9900012    2    1    2    0    0  0.11456209291E+02  0.14803469017E+02 -0.53877076989E+00  0.72461609526E+02  0.70000051106E+02 0.  0.
        -12    1    1    2    0    0 -0.11456209291E+02 -0.14803469017E+02  0.53877076989E+00  0.18726390474E+02  0.00000000000E+00 0.  1.
         11    1    3    3    0    0  0.13251914938E+02  0.23094984911E+02 -0.28553924997E+02  0.39042517984E+02  0.51100000000E-03 0. -1.
        -11    1    3    3    0    0 -0.81106880653E+00  0.49074435303E+01  0.71459971071E+01  0.87066704043E+01  0.51100000000E-03 0.  1.
         12    1    3    3    0    0 -0.98463684095E+00 -0.13198959424E+02  0.20869157120E+02  0.24712421138E+02  0.00000000000E+00 0. -1.
</event>
<event>
 7    1  0.1905073E-013  0.7246163E+02  0.7816164E-02  0.1226708E+00
        -11   -1    0    0    0    0  0.00000000000E+00  0.00000000000E+00  0.45593999997E+02  0.45594000000E+02  0.51100000000E-03 0. -1.
         11   -1    0    0    0    0 -0.00000000000E+00 -0.00000000000E+00 -0.45593999997E+02  0.45594000000E+02  0.51100000000E-03 0.  1.
    9900012    2    1    2    0    0  0.12969677220E+02 -0.41298530112E+01  0.12861136608E+02  0.72461626942E+02  0.70000073793E+02 0.  0.
        -12    1    1    2    0    0 -0.12969677220E+02  0.41298530112E+01 -0.12861136608E+02  0.18726373058E+02  0.00000000000E+00 0.  1.
         11    1    3    3    0    0  0.11533362910E+01  0.16666155272E+02 -0.13238143656E+02  0.21315237832E+02  0.51100000000E-03 0. -1.
        -11    1    3    3    0    0  0.91249460694E+01 -0.26791933598E+02  0.46120837509E+01  0.28676535067E+02  0.51100000000E-03 0.  1.
         12    1    3    3    0    0  0.26913948593E+01  0.59959253151E+01  0.21487196513E+02  0.22469854042E+02  0.00000000000E+00 0. -1.
</event>
<event>
 7    1  0.1905073E-013  0.7246148E+02  0.7816164E-02  0.1226708E+00
        -11   -1    0    0    0    0  0.00000000000E+00  0.00000000000E+00  0.45593999997E+02  0.45594000000E+02  0.51100000000E-03 0.  1.
         11   -1    0    0    0    0 -0.00000000000E+00 -0.00000000000E+00 -0.45593999997E+02  0.45594000000E+02  0.51100000000E-03 0. -1.
    9900012    2    1    2    0    0  0.97158238399E+01  0.27376583283E+01 -0.15773098621E+02  0.72461477468E+02  0.69999879077E+02 0.  0.
        -12    1    1    2    0    0 -0.97158238399E+01 -0.27376583283E+01  0.15773098621E+02  0.18726522532E+02  0.00000000000E+00 0.  1.
         11    1    3    3    0    0  0.24314110255E+02 -0.21348019462E+02 -0.38896699988E+01  0.32589007739E+02  0.51100000000E-03 0.  1.
        -11    1    3    3    0    0 -0.20402571940E+02  0.11645371878E+02 -0.34050545085E+01  0.23737607807E+02  0.51100000000E-03 0. -1.
        -12    1    3    3    0    0  0.58042855242E+01  0.12440305913E+02 -0.84783741140E+01  0.16134861923E+02  0.00000000000E+00 0.  1.
</event>
<event>
 7    1  0.1905073E-013  0.7246153E+02  0.7816164E-02  0.1226708E+00
        -11   -1    0    0    0    0  0.00000000000E+00  0.00000000000E+00  0.45593999997E+02  0.45594000000E+02  0.51100000000E-03 0.  1.
         11   -1    0    0    0    0 -0.00000000000E+00 -0.00000000000E+00 -0.45593999997E+02  0.45594000000E+02  0.51100000000E-03 0. -1.
    9900012    2    1    2    0    0  0.86076692387E+00 -0.17182218218E+02 -0.73966964010E+01  0.72461530491E+02  0.69999948149E+02 0.  0.
        -12    1    1    2    0    0 -0.86076692387E+00  0.17182218218E+02  0.73966964010E+01  0.18726469509E+02  0.00000000000E+00 0.  1.
         11    1    3    3    0    0 -0.45641323005E+01 -0.40306241395E+02  0.16629626722E+01  0.40597904430E+02  0.51100000000E-03 0. -1.
        -11    1    3    3    0    0 -0.35371534155E+01  0.40429049138E+01 -0.93470220310E+01  0.10780693648E+02  0.51100000000E-03 0.  1.
         12    1    3    3    0    0  0.89620526398E+01  0.19081118262E+02  0.28736295782E+00  0.21082932413E+02  0.00000000000E+00 0. -1.
</event>
<event>
 7    1  0.1905073E-013  0.7246152E+02  0.7816164E-02  0.1226708E+00
        -11   -1    0    0    0    0  0.00000000000E+00  0.00000000000E+00  0.45593999997E+02  0.45594000000E+02  0.51100000000E-03 0.  1.
         11   -1    0    0    0    0 -0.00000000000E+00 -0.00000000000E+00 -0.45593999997E+02  0.45594000000E+02  0.51100000000E-03 0. -1.
    9900012    2    1    2    0    0 -0.10048869964E+02 -0.56794132196E+01 -0.14746034876E+02  0.72461519641E+02  0.69999934014E+02 0.  0.
        -12    1    1    2    0    0  0.10048869964E+02  0.56794132196E+01  0.14746034876E+02  0.18726480359E+02  0.00000000000E+00 0.  1.
         11    1    3    3    0    0 -0.11441017599E+02 -0.83722904142E+01 -0.21519376045E+02  0.25769665813E+02  0.51100000000E-03 0. -1.
        -11    1    3    3    0    0 -0.15949645080E+02  0.15744480227E+02  0.10364813905E+02  0.24692290362E+02  0.51100000000E-03 0.  1.
         12    1    3    3    0    0  0.17341792715E+02 -0.13051603033E+02 -0.35914727367E+01  0.21999563466E+02  0.00000000000E+00 0. -1.
</event>
<event>
 7    1  0.1905073E-013  0.7246160E+02  0.7816164E-02  0.1226708E+00
        -11   -1    0    0    0    0  0.00000000000E+00  0.00000000000E+00  0.45593999997E+02  0.45594000000E+02  0.51100000000E-03 0.  1.
         11   -1    0    0    0    0 -0.00000000000E+00 -0.00000000000E+00 -0.45593999997E+02  0.45594000000E+02  0.51100000000E-03 0. -1.
    9900012    2    1    2    0    0 -0.13558911100E+02 -0.11810118717E+02 -0.52301913039E+01  0.72461604847E+02  0.70000045011E+02 0.  0.
        -12    1    1    2    0    0  0.13558911100E+02  0.11810118717E+02  0.52301913039E+01  0.18726395153E+02  0.00000000000E+00 0.  1.
         11    1    3    3    0    0 -0.11150038957E+02 -0.18012340791E+02  0.10192117722E+02  0.23508446428E+02  0.51100000000E-03 0. -1.
        -11    1    3    3    0    0 -0.60681128417E+00  0.22639822831E+02  0.44704584730E+01  0.23084947411E+02  0.51100000000E-03 0.  1.
         12    1    3    3    0    0 -0.18020608588E+01 -0.16437600757E+02 -0.19892767499E+02  0.25868211008E+02  0.00000000000E+00 0. -1.
</event>
<event>
 7    1  0.1905073E-013  0.7246144E+02  0.7816164E-02  0.1226708E+00
        -11   -1    0    0    0    0  0.00000000000E+00  0.00000000000E+00  0.45593999997E+02  0.45594000000E+02  0.51100000000E-03 0.  1.
         11   -1    0    0    0    0 -0.00000000000E+00 -0.00000000000E+00 -0.45593999997E+02  0.45594000000E+02  0.51100000000E-03 0. -1.
    9900012    2    1    2    0    0 -0.89939753961E+01 -0.14881166532E+02  0.69529243648E+01  0.72461444844E+02  0.69999836577E+02 0.  0.
        -12    1    1    2    0    0  0.89939753961E+01  0.14881166532E+02 -0.69529243648E+01  0.18726555156E+02  0.00000000000E+00 0.  1.
         11    1    3    3    0    0  0.18395349233E+01 -0.74954974661E+01 -0.91781632834E+00  0.77723071267E+01  0.51100000000E-03 0. -1.
        -11    1    3    3    0    0  0.12711640468E+02  0.20704012856E+02 -0.67703128797E+01  0.25220608408E+02  0.51100000000E-03 0.  1.
        -12    1    3    3    0    0 -0.23545150787E+02 -0.28089681922E+02  0.14641053573E+02  0.39468529309E+02  0.00000000000E+00 0.  1.
</event>
<event>
 7    1  0.1905073E-013  0.7246158E+02  0.7816164E-02  0.1226708E+00
        -11   -1    0    0    0    0  0.00000000000E+00  0.00000000000E+00  0.45593999997E+02  0.45594000000E+02  0.51100000000E-03 0.  1.
         11   -1    0    0    0    0 -0.00000000000E+00 -0.00000000000E+00 -0.45593999997E+02  0.45594000000E+02  0.51100000000E-03 0. -1.
    9900012    2    1    2    0    0  0.64294426521E+01  0.13907342161E+02  0.10766927333E+02  0.72461584887E+02  0.70000019009E+02 0.  0.
        -12    1    1    2    0    0 -0.64294426521E+01 -0.13907342161E+02 -0.10766927333E+02  0.18726415113E+02  0.00000000000E+00 0.  1.
         11    1    3    3    0    0 -0.12741676262E+02 -0.10952002038E+02 -0.38771409180E+01  0.17243227208E+02  0.51100000000E-03 0.  1.
        -11    1    3    3    0    0  0.27873263860E+02  0.27866250525E+02  0.18517568686E+01  0.39457264987E+02  0.51100000000E-03 0. -1.
         12    1    3    3    0    0 -0.87021449459E+01 -0.30069063260E+01  0.12792311382E+02  0.15761092691E+02  0.00000000000E+00 0. -1.
</event>
<event>
 7    1  0.1905073E-013  0.7246156E+02  0.7816164E-02  0.1226708E+00
        -11   -1    0    0    0    0  0.00000000000E+00  0.00000000000E+00  0.45593999997E+02  0.45594000000E+02  0.51100000000E-03 0. -1.
         11   -1    0    0    0    0 -0.00000000000E+00 -0.00000000000E+00 -0.45593999997E+02  0.45594000000E+02  0.51100000000E-03 0.  1.
    9900012    2    1    2    0    0 -0.11724759122E+02 -0.12193285270E+02  0.80332564759E+01  0.72461564361E+02  0.69999992271E+02 0.  0.
        -12    1    1    2    0    0  0.11724759122E+02  0.12193285270E+02 -0.80332564759E+01  0.18726435639E+02  0.00000000000E+00 0.  1.
         11    1    3    3    0    0 -0.12310646604E+02 -0.31812448118E+02 -0.67354264974E+01  0.34769956074E+02  0.51100000000E-03 0.  1.
        -11    1    3    3    0    0  0.49261541401E+00  0.24794856726E+02  0.18808446998E+02  0.31125315560E+02  0.51100000000E-03 0. -1.
         12    1    3    3    0    0  0.93272068009E-01 -0.51756938777E+01 -0.40397640247E+01  0.65662927265E+01  0.00000000000E+00 0. -1.
</event>
<event>
 7    1  0.1905073E-013  0.7246158E+02  0.7816164E-02  0.1226708E+00
        -11   -1    0    0    0    0  0.00000000000E+00  0.00000000000E+00  0.45593999997E+02  0.45594000000E+02  0.51100000000E-03 0. -1.
         11   -1    0    0    0    0 -0.00000000000E+00 -0.00000000000E+00 -0.45593999997E+02  0.45594000000E+02  0.51100000000E-03 0.  1.
    9900012    2    1    2    0    0 -0.82921893318E+01  0.13279524048E+02 -0.10274850391E+02  0.72461582472E+02  0.70000015864E+02 0.  0.
        -12    1    1    2    0    0  0.82921893318E+01 -0.13279524048E+02  0.10274850391E+02  0.18726417528E+02  0.00000000000E+00 0.  1.
         11    1    3    3    0    0 -0.19355480431E+02 -0.16858737780E+02 -0.26284124305E+01  0.25802329632E+02  0.51100000000E-03 0. -1.
        -11    1    3    3    0    0  0.17017382278E+02  0.17082800219E+02  0.80231794324E+01  0.25412295674E+02  0.51100000000E-03 0.  1.
        -12    1    3    3    0    0 -0.59540911786E+01  0.13055461609E+02 -0.15669617393E+02  0.21246957167E+02  0.00000000000E+00 0.  1.
</event>
<event>
 7    1  0.1905073E-013  0.7246155E+02  0.7816164E-02  0.1226708E+00
        -11   -1    0    0    0    0  0.00000000000E+00  0.00000000000E+00  0.45593999997E+02  0.45594000000E+02  0.51100000000E-03 0.  1.
         11   -1    0    0    0    0 -0.00000000000E+00 -0.00000000000E+00 -0.45593999997E+02  0.45594000000E+02  0.51100000000E-03 0. -1.
    9900012    2    1    2    0    0 -0.94355592356E+00  0.15963811467E+02 -0.97440405630E+01  0.72461550768E+02  0.69999974564E+02 0.  0.
        -12    1    1    2    0    0  0.94355592356E+00 -0.15963811467E+02  0.97440405630E+01  0.18726449232E+02  0.00000000000E+00 0.  1.
         11    1    3    3    0    0 -0.42139006605E+01  0.24982099862E+02 -0.78448357839E+01  0.26521759388E+02  0.51100000000E-03 0. -1.
        -11    1    3    3    0    0 -0.18650043959E+02 -0.25757929306E+00  0.80598857730E+01  0.20318765851E+02  0.51100000000E-03 0.  1.
         12    1    3    3    0    0  0.21920388696E+02 -0.87607091021E+01 -0.99590905522E+01  0.25621025529E+02  0.00000000000E+00 0. -1.
</event>
<event>
 7    1  0.1905073E-013  0.7246158E+02  0.7816164E-02  0.1226708E+00
        -11   -1    0    0    0    0  0.00000000000E+00  0.00000000000E+00  0.45593999997E+02  0.45594000000E+02  0.51100000000E-03 0.  1.
         11   -1    0    0    0    0 -0.00000000000E+00 -0.00000000000E+00 -0.45593999997E+02  0.45594000000E+02  0.51100000000E-03 0. -1.
    9900012    2    1    2    0    0  0.73724825282E+01  0.11978657322E+02 -0.12362724282E+02  0.72461583323E+02  0.70000016973E+02 0.  0.
        -12    1    1    2    0    0 -0.73724825282E+01 -0.11978657322E+02  0.12362724282E+02  0.18726416677E+02  0.00000000000E+00 0.  1.
         11    1    3    3    0    0  0.36647584917E+01 -0.73936265895E+01  0.46410392900E+00  0.82650808626E+01  0.51100000000E-03 0. -1.
        -11    1    3    3    0    0 -0.10364046476E+02  0.24257617897E+02 -0.30996326547E+02  0.40701569320E+02  0.51100000000E-03 0.  1.
        -12    1    3    3    0    0  0.14071770513E+02 -0.48853339855E+01  0.18169498336E+02  0.23494933141E+02  0.00000000000E+00 0.  1.
</event>
<event>
 7    1  0.1905073E-013  0.7246154E+02  0.7816164E-02  0.1226708E+00
        -11   -1    0    0    0    0  0.00000000000E+00  0.00000000000E+00  0.45593999997E+02  0.45594000000E+02  0.51100000000E-03 0. -1.
         11   -1    0    0    0    0 -0.00000000000E+00 -0.00000000000E+00 -0.45593999997E+02  0.45594000000E+02  0.51100000000E-03 0.  1.
    9900012    2    1    2    0    0  0.18502416563E+01  0.14583588424E+01  0.18577680211E+02  0.72461537261E+02  0.69999956968E+02 0.  0.
        -12    1    1    2    0    0 -0.18502416563E+01 -0.14583588424E+01 -0.18577680211E+02  0.18726462739E+02  0.00000000000E+00 0.  1.
         11    1    3    3    0    0 -0.17369958689E+01 -0.47075259287E-02  0.43758785041E+02  0.43793246573E+02  0.51100000000E-03 0. -1.
        -11    1    3    3    0    0  0.57429960707E+01  0.42347723004E+01 -0.64747518378E+01  0.96352328423E+01  0.51100000000E-03 0.  1.
         12    1    3    3    0    0 -0.21557585455E+01 -0.27717059321E+01 -0.18706352993E+02  0.19033057846E+02  0.00000000000E+00 0. -1.
</event>
<event>
 7    1  0.1905073E-013  0.7246159E+02  0.7816164E-02  0.1226708E+00
        -11   -1    0    0    0    0  0.00000000000E+00  0.00000000000E+00  0.45593999997E+02  0.45594000000E+02  0.51100000000E-03 0. -1.
         11   -1    0    0    0    0 -0.00000000000E+00 -0.00000000000E+00 -0.45593999997E+02  0.45594000000E+02  0.51100000000E-03 0.  1.
    9900012    2    1    2    0    0 -0.18499827567E+02 -0.27765629785E+01  0.85184219873E+00  0.72461586646E+02  0.70000021301E+02 0.  0.
        -12    1    1    2    0    0  0.18499827567E+02  0.27765629785E+01 -0.85184219873E+00  0.18726413354E+02  0.00000000000E+00 0.  1.
         11    1    3    3    0    0 -0.70575551785E+01 -0.22539808586E+00  0.10954292357E+02  0.13032897248E+02  0.51100000000E-03 0. -1.
        -11    1    3    3    0    0 -0.92558562541E+01 -0.68958010577E+01 -0.33551076006E+02  0.35480947685E+02  0.51100000000E-03 0.  1.
        -12    1    3    3    0    0 -0.21864161346E+01  0.43446361651E+01  0.23448625848E+02  0.23947741712E+02  0.00000000000E+00 0.  1.
</event>
<event>
 7    1  0.1905073E-013  0.7246159E+02  0.7816164E-02  0.1226708E+00
        -11   -1    0    0    0    0  0.00000000000E+00  0.00000000000E+00  0.45593999997E+02  0.45594000000E+02  0.51100000000E-03 0.  1.
         11   -1    0    0    0    0 -0.00000000000E+00 -0.00000000000E+00 -0.45593999997E+02  0.45594000000E+02  0.51100000000E-03 0. -1.
    9900012    2    1    2    0    0  0.70593147016E+01  0.10858766578E+02 -0.13525227781E+02  0.72461587579E+02  0.70000022516E+02 0.  0.
        -12    1    1    2    0    0 -0.70593147016E+01 -0.10858766578E+02  0.13525227781E+02  0.18726412421E+02  0.00000000000E+00 0.  1.
         11    1    3    3    0    0 -0.15194041519E+02 -0.10318368189E+01  0.65566115940E+01  0.16580492778E+02  0.51100000000E-03 0. -1.
        -11    1    3    3    0    0  0.30687424471E+02  0.14285688627E+02  0.12963278867E+00  0.33849899928E+02  0.51100000000E-03 0.  1.
        -12    1    3    3    0    0 -0.84340682509E+01 -0.23950852292E+01 -0.20211472163E+02  0.22031194873E+02  0.00000000000E+00 0.  1.
</event>
<event>
 7    1  0.1905073E-013  0.7246151E+02  0.7816164E-02  0.1226708E+00
        -11   -1    0    0    0    0  0.00000000000E+00  0.00000000000E+00  0.45593999997E+02  0.45594000000E+02  0.51100000000E-03 0. -1.
         11   -1    0    0    0    0 -0.00000000000E+00 -0.00000000000E+00 -0.45593999997E+02  0.45594000000E+02  0.51100000000E-03 0.  1.
    9900012    2    1    2    0    0  0.11561987778E+02  0.11343697355E+02  0.93979926324E+01  0.72461513501E+02  0.69999926017E+02 0.  0.
        -12    1    1    2    0    0 -0.11561987778E+02 -0.11343697355E+02 -0.93979926324E+01  0.18726486499E+02  0.00000000000E+00 0.  1.
         11    1    3    3    0    0 -0.13893480196E+02 -0.10239253066E+02  0.12415580624E+02  0.21260708779E+02  0.51100000000E-03 0. -1.
        -11    1    3    3    0    0  0.17593558555E+02  0.77217785530E+01  0.16972412598E+02  0.25636340541E+02  0.51100000000E-03 0.  1.
        -12    1    3    3    0    0  0.78619094188E+01  0.13861171868E+02 -0.19990000590E+02  0.25564464181E+02  0.00000000000E+00 0.  1.
</event>
<event>
 7    1  0.1905073E-013  0.7246162E+02  0.7816164E-02  0.1226708E+00
        -11   -1    0    0    0    0  0.00000000000E+00  0.00000000000E+00  0.45593999997E+02  0.45594000000E+02  0.51100000000E-03 0. -1.
         11   -1    0    0    0    0 -0.00000000000E+00 -0.00000000000E+00 -0.45593999997E+02  0.45594000000E+02  0.51100000000E-03 0.  1.
    9900012    2    1    2    0    0 -0.15605804920E+02  0.51006816888E+01  0.90066153954E+01  0.72461622300E+02  0.70000067747E+02 0.  0.
        -12    1    1    2    0    0  0.15605804920E+02 -0.51006816888E+01 -0.90066153954E+01  0.18726377700E+02  0.00000000000E+00 0.  1.
         11    1    3    3    0    0  0.39109642463E+01  0.60537922807E+01  0.36156393593E+02  0.36867720844E+02  0.51100000000E-03 0. -1.
        -11    1    3    3    0    0 -0.19380558589E+02  0.24372473991E+01 -0.21926113692E+02  0.29364956803E+02  0.51100000000E-03 0.  1.
         12    1    3    3    0    0 -0.13621057650E+00 -0.33903579909E+01 -0.52236645055E+01  0.62289446533E+01  0.00000000000E+00 0. -1.
</event>
<event>
 7    1  0.1905073E-013  0.7246159E+02  0.7816164E-02  0.1226708E+00
        -11   -1    0    0    0    0  0.00000000000E+00  0.00000000000E+00  0.45593999997E+02  0.45594000000E+02  0.51100000000E-03 0. -1.
         11   -1    0    0    0    0 -0.00000000000E+00 -0.00000000000E+00 -0.45593999997E+02  0.45594000000E+02  0.51100000000E-03 0.  1.
    9900012    2    1    2    0    0 -0.26750678764E+01  0.59670695213E+01  0.17547551996E+02  0.72461588495E+02  0.70000023709E+02 0.  0.
        -12    1    1    2    0    0  0.26750678764E+01 -0.59670695213E+01 -0.17547551996E+02  0.18726411505E+02  0.00000000000E+00 0.  1.
         11    1    3    3    0    0  0.62244714576E+01  0.10847332715E+02  0.77262924330E+01  0.14700485263E+02  0.51100000000E-03 0. -1.
        -11    1    3    3    0    0 -0.19318157489E+02  0.14184400560E+02 -0.12143027028E+02  0.26867108770E+02  0.51100000000E-03 0.  1.
        -12    1    3    3    0    0  0.10418618155E+02 -0.19064663753E+02  0.21964286591E+02  0.30893994461E+02  0.00000000000E+00 0.  1.
</event>
<event>
 7    1  0.1905073E-013  0.7246156E+02  0.7816164E-02  0.1226708E+00
        -11   -1    0    0    0    0  0.00000000000E+00  0.00000000000E+00  0.45593999997E+02  0.45594000000E+02  0.51100000000E-03 0. -1.
         11   -1    0    0    0    0 -0.00000000000E+00 -0.00000000000E+00 -0.45593999997E+02  0.45594000000E+02  0.51100000000E-03 0.  1.
    9900012    2    1    2    0    0 -0.13702181130E+02 -0.10426380901E+02  0.73634412143E+01  0.72461562727E+02  0.69999990142E+02 0.  0.
        -12    1    1    2    0    0  0.13702181130E+02  0.10426380901E+02 -0.73634412143E+01  0.18726437273E+02  0.00000000000E+00 0.  1.
         11    1    3    3    0    0 -0.14555569133E+02 -0.18913242356E+02  0.18229047901E+02  0.30031209047E+02  0.51100000000E-03 0. -1.
        -11    1    3    3    0    0  0.13872057816E+01  0.13986689666E+02 -0.24206056081E+02  0.27990801685E+02  0.51100000000E-03 0.  1.
        -12    1    3    3    0    0 -0.53381777907E+00 -0.54998282112E+01  0.13340449394E+02  0.14439551995E+02  0.00000000000E+00 0.  1.
</event>
<event>
 7    1  0.1905073E-013  0.7246157E+02  0.7816164E-02  0.1226708E+00
        -11   -1    0    0    0    0  0.00000000000E+00  0.00000000000E+00  0.45593999997E+02  0.45594000000E+02  0.51100000000E-03 0.  1.
         11   -1    0    0    0    0 -0.00000000000E+00 -0.00000000000E+00 -0.45593999997E+02  0.45594000000E+02  0.51100000000E-03 0. -1.
    9900012    2    1    2    0    0  0.37246974110E+01 -0.15458645159E+02 -0.98912174871E+01  0.72461567763E+02  0.69999996703E+02 0.  0.
        -12    1    1    2    0    0 -0.37246974110E+01  0.15458645159E+02  0.98912174871E+01  0.18726432237E+02  0.00000000000E+00 0.  1.
         11    1    3    3    0    0  0.19005390630E+02  0.80797548859E+01 -0.20913072191E+02  0.29391221491E+02  0.51100000000E-03 0. -1.
        -11    1    3    3    0    0 -0.20102679257E+02 -0.28168830627E+02  0.71248809605E+01  0.35332204306E+02  0.51100000000E-03 0.  1.
        -12    1    3    3    0    0  0.48219860380E+01  0.46304305822E+01  0.38969737433E+01  0.77381419658E+01  0.00000000000E+00 0.  1.
</event>
<event>
 7    1  0.1905073E-013  0.7246153E+02  0.7816164E-02  0.1226708E+00
        -11   -1    0    0    0    0  0.00000000000E+00  0.00000000000E+00  0.45593999997E+02  0.45594000000E+02  0.51100000000E-03 0.  1.
         11   -1    0    0    0    0 -0.00000000000E+00 -0.00000000000E+00 -0.45593999997E+02  0.45594000000E+02  0.51100000000E-03 0. -1.
    9900012    2    1    2    0    0 -0.45562346604E+01  0.34998205858E+01 -0.17823369035E+02  0.72461534712E+02  0.69999953648E+02 0.  0.
        -12    1    1    2    0    0  0.45562346604E+01 -0.34998205858E+01  0.17823369035E+02  0.18726465288E+02  0.00000000000E+00 0.  1.
         11    1    3    3    0    0 -0.21427290596E+02  0.91702853821E+01  0.75748426490E+01  0.24507165436E+02  0.51100000000E-03 0. -1.
        -11    1    3    3    0    0  0.83088761547E+01 -0.20802982461E+02 -0.92845613546E+01  0.24248805786E+02  0.51100000000E-03 0.  1.
        -12    1    3    3    0    0  0.85621797810E+01  0.15132517665E+02 -0.16113650329E+02  0.23705563491E+02  0.00000000000E+00 0.  1.
</event>
<event>
 7    1  0.1905073E-013  0.7246153E+02  0.7816164E-02  0.1226708E+00
        -11   -1    0    0    0    0  0.00000000000E+00  0.00000000000E+00  0.45593999997E+02  0.45594000000E+02  0.51100000000E-03 0.  1.
         11   -1    0    0    0    0 -0.00000000000E+00 -0.00000000000E+00 -0.45593999997E+02  0.45594000000E+02  0.51100000000E-03 0. -1.
    9900012    2    1    2    0    0  0.16151694720E+02 -0.57744186863E+01  0.75139656231E+01  0.72461525882E+02  0.69999942145E+02 0.  0.
        -12    1    1    2    0    0 -0.16151694720E+02  0.57744186863E+01 -0.75139656231E+01  0.18726474118E+02  0.00000000000E+00 0.  1.
         11    1    3    3    0    0  0.63087093647E+01  0.27186440224E+02 -0.25122376172E+01  0.28021664548E+02  0.51100000000E-03 0. -1.
        -11    1    3    3    0    0  0.17766085721E+02 -0.15740853859E+02  0.18874167235E+01  0.23811144958E+02  0.51100000000E-03 0.  1.
         12    1    3    3    0    0 -0.79231003655E+01 -0.17220005051E+02  0.81387865167E+01  0.20628716376E+02  0.00000000000E+00 0. -1.
</event>
<event>
 7    1  0.1905073E-013  0.7246150E+02  0.7816164E-02  0.1226708E+00
        -11   -1    0    0    0    0  0.00000000000E+00  0.00000000000E+00  0.45593999997E+02  0.45594000000E+02  0.51100000000E-03 0.  1.
         11   -1    0    0    0    0 -0.00000000000E+00 -0.00000000000E+00 -0.45593999997E+02  0.45594000000E+02  0.51100000000E-03 0. -1.
    9900012    2    1    2    0    0  0.30158212923E+01  0.18464924487E+02  0.79565418489E+00  0.72461503266E+02  0.69999912683E+02 0.  0.
        -12    1    1    2    0    0 -0.30158212923E+01 -0.18464924487E+02 -0.79565418489E+00  0.18726496734E+02  0.00000000000E+00 0.  1.
         11    1    3    3    0    0  0.23028347577E+02  0.20970242619E+02 -0.39921861530E+01  0.31400532132E+02  0.51100000000E-03 0. -1.
        -11    1    3    3    0    0 -0.19474184603E+02 -0.16466289770E+01  0.18737300348E+02  0.27074742428E+02  0.51100000000E-03 0.  1.
         12    1    3    3    0    0 -0.53834168176E+00 -0.85868915551E+00 -0.13949460010E+02  0.13986228706E+02  0.00000000000E+00 0. -1.
</event>
<event>
 7    1  0.1905073E-013  0.7246155E+02  0.7816164E-02  0.1226708E+00
        -11   -1    0    0    0    0  0.00000000000E+00  0.00000000000E+00  0.45593999997E+02  0.45594000000E+02  0.51100000000E-03 0.  1.
         11   -1    0    0    0    0 -0.00000000000E+00 -0.00000000000E+00 -0.45593999997E+02  0.45594000000E+02  0.51100000000E-03 0. -1.
    9900012    2    1    2    0    0  0.67596096954E+01  0.13788814423E+02 -0.10717105712E+02  0.72461545950E+02  0.69999968287E+02 0.  0.
        -12    1    1    2    0    0 -0.67596096954E+01 -0.13788814423E+02  0.10717105712E+02  0.18726454050E+02  0.00000000000E+00 0.  1.
         11    1    3    3    0    0  0.80851387910E+00 -0.26776015653E+01 -0.21500979264E+02  0.21682143677E+02  0.51100000000E-03 0. -1.
        -11    1    3    3    0    0 -0.16750478427E+02  0.17370305608E+02  0.13898503129E+02  0.27847341595E+02  0.51100000000E-03 0.  1.
         12    1    3    3    0    0  0.22701574243E+02 -0.90388961995E+00 -0.31146295769E+01  0.22932060678E+02  0.00000000000E+00 0. -1.
</event>
<event>
 7    1  0.1905073E-013  0.7246159E+02  0.7816164E-02  0.1226708E+00
        -11   -1    0    0    0    0  0.00000000000E+00  0.00000000000E+00  0.45593999997E+02  0.45594000000E+02  0.51100000000E-03 0. -1.
         11   -1    0    0    0    0 -0.00000000000E+00 -0.00000000000E+00 -0.45593999997E+02  0.45594000000E+02  0.51100000000E-03 0.  1.
    9900012    2    1    2    0    0  0.55004237175E+01 -0.14832304404E+02 -0.10021303942E+02  0.72461589567E+02  0.70000025106E+02 0.  0.
        -12    1    1    2    0    0 -0.55004237175E+01  0.14832304404E+02  0.10021303942E+02  0.18726410433E+02  0.00000000000E+00 0.  1.
         11    1    3    3    0    0  0.13096759584E+02 -0.27129005435E+02  0.16581904308E+02  0.34387026598E+02  0.51100000000E-03 0. -1.
        -11    1    3    3    0    0  0.48030264606E+01  0.94939116288E+01 -0.22205974559E+02  0.24623337052E+02  0.51100000000E-03 0.  1.
         12    1    3    3    0    0 -0.12399362327E+02  0.28027894020E+01 -0.43972336910E+01  0.13451225917E+02  0.00000000000E+00 0. -1.
</event>
<event>
 7    1  0.1905073E-013  0.7246159E+02  0.7816164E-02  0.1226708E+00
        -11   -1    0    0    0    0  0.00000000000E+00  0.00000000000E+00  0.45593999997E+02  0.45594000000E+02  0.51100000000E-03 0. -1.
         11   -1    0    0    0    0 -0.00000000000E+00 -0.00000000000E+00 -0.45593999997E+02  0.45594000000E+02  0.51100000000E-03 0.  1.
    9900012    2    1    2    0    0  0.37685561097E+00  0.13058524955E+02 -0.13416831398E+02  0.72461589268E+02  0.70000024716E+02 0.  0.
        -12    1    1    2    0    0 -0.37685561097E+00 -0.13058524955E+02  0.13416831398E+02  0.18726410732E+02  0.00000000000E+00 0.  1.
         11    1    3    3    0    0 -0.17342696967E+02  0.11714108072E+02  0.12944831424E+02  0.24608090679E+02  0.51100000000E-03 0. -1.
        -11    1    3    3    0    0  0.96906747208E+01  0.15072240753E+02 -0.26452125951E+02  0.31949907441E+02  0.51100000000E-03 0.  1.
        -12    1    3    3    0    0  0.80288778571E+01 -0.13727823869E+02  0.90463129841E-01  0.15903591148E+02  0.00000000000E+00 0.  1.
</event>
<event>
 7    1  0.1905073E-013  0.7246160E+02  0.7816164E-02  0.1226708E+00
        -11   -1    0    0    0    0  0.00000000000E+00  0.00000000000E+00  0.45593999997E+02  0.45594000000E+02  0.51100000000E-03 0. -1.
         11   -1    0    0    0    0 -0.00000000000E+00 -0.00000000000E+00 -0.45593999997E+02  0.45594000000E+02  0.51100000000E-03 0.  1.
    9900012    2    1    2    0    0  0.54553994910E+01  0.47919357976E+01  0.17261340095E+02  0.72461604347E+02  0.70000044360E+02 0.  0.
        -12    1    1    2    0    0 -0.54553994910E+01 -0.47919357976E+01 -0.17261340095E+02  0.18726395653E+02  0.00000000000E+00 0.  1.
         11    1    3    3    0    0 -0.11748908173E+02  0.10884442826E+02 -0.16583157525E+02  0.23054480100E+02  0.51100000000E-03 0. -1.
        -11    1    3    3    0    0  0.10905384011E+02  0.11750265743E+02  0.21483188582E+02  0.26805289354E+02  0.51100000000E-03 0.  1.
         12    1    3    3    0    0  0.62989236533E+01 -0.17842772772E+02  0.12361309038E+02  0.22601834893E+02  0.00000000000E+00 0. -1.
</event>
<event>
 7    1  0.1905073E-013  0.7246143E+02  0.7816164E-02  0.1226708E+00
        -11   -1    0    0    0    0  0.00000000000E+00  0.00000000000E+00  0.45593999997E+02  0.45594000000E+02  0.51100000000E-03 0. -1.
         11   -1    0    0    0    0 -0.00000000000E+00 -0.00000000000E+00 -0.45593999997E+02  0.45594000000E+02  0.51100000000E-03 0.  1.
    9900012    2    1    2    0    0  0.27710355241E+01  0.17882272888E+02 -0.48197676235E+01  0.72461428464E+02  0.69999815240E+02 0.  0.
        -12    1    1    2    0    0 -0.27710355241E+01 -0.17882272888E+02  0.48197676235E+01  0.18726571536E+02  0.00000000000E+00 0.  1.
         11    1    3    3    0    0  0.25370191721E+01  0.29996913617E+02  0.17166955966E+02  0.34654807318E+02  0.51100000000E-03 0.  1.
        -11    1    3    3    0    0  0.10327004905E+02 -0.16500667767E+02 -0.11520189969E+02  0.22619324575E+02  0.51100000000E-03 0. -1.
        -12    1    3    3    0    0 -0.10092988553E+02  0.43860270381E+01 -0.10466533621E+02  0.15187296572E+02  0.00000000000E+00 0.  1.
</event>
<event>
 7    1  0.1905073E-013  0.7246160E+02  0.7816164E-02  0.1226708E+00
        -11   -1    0    0    0    0  0.00000000000E+00  0.00000000000E+00  0.45593999997E+02  0.45594000000E+02  0.51100000000E-03 0.  1.
         11   -1    0    0    0    0 -0.00000000000E+00 -0.00000000000E+00 -0.45593999997E+02  0.45594000000E+02  0.51100000000E-03 0. -1.
    9900012    2    1    2    0    0  0.94971582854E+01 -0.28202053818E+01 -0.15891148169E+02  0.72461597141E+02  0.70000034973E+02 0.  0.
        -12    1    1    2    0    0 -0.94971582854E+01  0.28202053818E+01  0.15891148169E+02  0.18726402859E+02  0.00000000000E+00 0.  1.
         11    1    3    3    0    0  0.11123895260E+02  0.41565504438E+01 -0.81338631587E+01  0.14393668313E+02  0.51100000000E-03 0. -1.
        -11    1    3    3    0    0 -0.12518638468E+01 -0.25613581220E+02 -0.22645308478E+02  0.34211587252E+02  0.51100000000E-03 0.  1.
        -12    1    3    3    0    0 -0.37487312822E+00  0.18636825394E+02  0.14888023467E+02  0.23856341576E+02  0.00000000000E+00 0.  1.
</event>
<event>
 7    1  0.1905073E-013  0.7246164E+02  0.7816164E-02  0.1226708E+00
        -11   -1    0    0    0    0  0.00000000000E+00  0.00000000000E+00  0.45593999997E+02  0.45594000000E+02  0.51100000000E-03 0.  1.
         11   -1    0    0    0    0 -0.00000000000E+00 -0.00000000000E+00 -0.45593999997E+02  0.45594000000E+02  0.51100000000E-03 0. -1.
    9900012    2    1    2    0    0 -0.72771925008E+01 -0.14705118072E+02  0.90265448725E+01  0.72461640489E+02  0.70000091441E+02 0.  0.
        -12    1    1    2    0    0  0.72771925008E+01  0.14705118072E+02 -0.90265448725E+01  0.18726359511E+02  0.00000000000E+00 0.  1.
         11    1    3    3    0    0 -0.20937060841E+02 -0.30289081751E+02  0.17651444705E+02  0.40833350223E+02  0.51100000000E-03 0.  1.
        -11    1    3    3    0    0  0.16942206774E+02  0.17740860229E+02 -0.11163388326E+02  0.26951766755E+02  0.51100000000E-03 0. -1.
         12    1    3    3    0    0 -0.32823384333E+01 -0.21568965508E+01  0.25384884934E+01  0.46765235113E+01  0.00000000000E+00 0. -1.
</event>
<event>
 7    1  0.1905073E-013  0.7246155E+02  0.7816164E-02  0.1226708E+00
        -11   -1    0    0    0    0  0.00000000000E+00  0.00000000000E+00  0.45593999997E+02  0.45594000000E+02  0.51100000000E-03 0. -1.
         11   -1    0    0    0    0 -0.00000000000E+00 -0.00000000000E+00 -0.45593999997E+02  0.45594000000E+02  0.51100000000E-03 0.  1.
    9900012    2    1    2    0    0 -0.10624795011E+02 -0.89089867110E+01  0.12586640438E+02  0.72461552639E+02  0.69999977001E+02 0.  0.
        -12    1    1    2    0    0  0.10624795011E+02  0.89089867110E+01 -0.12586640438E+02  0.18726447361E+02  0.00000000000E+00 0.  1.
         11    1    3    3    0    0 -0.36018789732E+02 -0.99658427715E+01  0.19745890761E+02  0.42267853483E+02  0.51100000000E-03 0. -1.
        -11    1    3    3    0    0  0.16661767233E+02  0.43181126344E+01  0.17480654082E+01  0.17300760589E+02  0.51100000000E-03 0.  1.
         12    1    3    3    0    0  0.87322274880E+01 -0.32612565738E+01 -0.89073157310E+01  0.12892938566E+02  0.00000000000E+00 0. -1.
</event>
<event>
 7    1  0.1905073E-013  0.7246161E+02  0.7816164E-02  0.1226708E+00
        -11   -1    0    0    0    0  0.00000000000E+00  0.00000000000E+00  0.45593999997E+02  0.45594000000E+02  0.51100000000E-03 0.  1.
         11   -1    0    0    0    0 -0.00000000000E+00 -0.00000000000E+00 -0.45593999997E+02  0.45594000000E+02  0.51100000000E-03 0. -1.
    9900012    2    1    2    0    0  0.13868292788E+02  0.68891773823E+01 -0.10530304682E+02  0.72461611493E+02  0.70000053668E+02 0.  0.
        -12    1    1    2    0    0 -0.13868292788E+02 -0.68891773823E+01  0.10530304682E+02  0.18726388507E+02  0.00000000000E+00 0.  1.
         11    1    3    3    0    0  0.15810333469E+02  0.11432462761E+02 -0.29436865761E+02  0.35315675206E+02  0.51100000000E-03 0. -1.
        -11    1    3    3    0    0  0.48946076488E+01  0.46881539971E+01  0.23736002161E+02  0.24684686970E+02  0.51100000000E-03 0.  1.
         12    1    3    3    0    0 -0.68366483307E+01 -0.92314393762E+01 -0.48294410822E+01  0.12461249316E+02  0.00000000000E+00 0. -1.
</event>
<event>
 7    1  0.1905073E-013  0.7246159E+02  0.7816164E-02  0.1226708E+00
        -11   -1    0    0    0    0  0.00000000000E+00  0.00000000000E+00  0.45593999997E+02  0.45594000000E+02  0.51100000000E-03 0. -1.
         11   -1    0    0    0    0 -0.00000000000E+00 -0.00000000000E+00 -0.45593999997E+02  0.45594000000E+02  0.51100000000E-03 0.  1.
    9900012    2    1    2    0    0 -0.18282227042E+02  0.31198182129E+01  0.25894985473E+01  0.72461585660E+02  0.70000020017E+02 0.  0.
        -12    1    1    2    0    0  0.18282227042E+02 -0.31198182129E+01 -0.25894985473E+01  0.18726414340E+02  0.00000000000E+00 0.  1.
         11    1    3    3    0    0 -0.13422155779E+02 -0.45250106503E+01  0.11155459254E+02  0.18029815822E+02  0.51100000000E-03 0. -1.
        -11    1    3    3    0    0  0.21732344369E+02  0.52918880836E+01  0.71137762687E+01  0.23471358809E+02  0.51100000000E-03 0.  1.
        -12    1    3    3    0    0 -0.26592415632E+02  0.23529407796E+01 -0.15679736976E+02  0.30960411029E+02  0.00000000000E+00 0.  1.
</event>
<event>
 7    1  0.1905073E-013  0.7246158E+02  0.7816164E-02  0.1226708E+00
        -11   -1    0    0    0    0  0.00000000000E+00  0.00000000000E+00  0.45593999997E+02  0.45594000000E+02  0.51100000000E-03 0.  1.
         11   -1    0    0    0    0 -0.00000000000E+00 -0.00000000000E+00 -0.45593999997E+02  0.45594000000E+02  0.51100000000E-03 0. -1.
    9900012    2    1    2    0    0 -0.39214233132E+01 -0.67989306230E+01 -0.17002233219E+02  0.72461576080E+02  0.70000007537E+02 0.  0.
        -12    1    1    2    0    0  0.39214233132E+01  0.67989306230E+01  0.17002233219E+02  0.18726423920E+02  0.00000000000E+00 0.  1.
         11    1    3    3    0    0  0.97501709673E+01 -0.91140665326E+01 -0.23489387591E+02  0.27016353794E+02  0.51100000000E-03 0. -1.
        -11    1    3    3    0    0 -0.13683180416E+02  0.21524314118E+02  0.12551530809E+01  0.25536267034E+02  0.51100000000E-03 0.  1.
        -12    1    3    3    0    0  0.11586135390E-01 -0.19209178208E+02  0.52320012918E+01  0.19908955251E+02  0.00000000000E+00 0.  1.
</event>
<event>
 7    1  0.1905073E-013  0.7246162E+02  0.7816164E-02  0.1226708E+00
        -11   -1    0    0    0    0  0.00000000000E+00  0.00000000000E+00  0.45593999997E+02  0.45594000000E+02  0.51100000000E-03 0. -1.
         11   -1    0    0    0    0 -0.00000000000E+00 -0.00000000000E+00 -0.45593999997E+02  0.45594000000E+02  0.51100000000E-03 0.  1.
    9900012    2    1    2    0    0  0.95002803521E+01  0.50612432978E+01  0.15323373307E+02  0.72461620745E+02  0.70000065722E+02 0.  0.
        -12    1    1    2    0    0 -0.95002803521E+01 -0.50612432978E+01 -0.15323373307E+02  0.18726379255E+02  0.00000000000E+00 0.  1.
         11    1    3    3    0    0  0.81570399431E+01  0.13676867902E+02  0.24375785977E+02  0.29116540978E+02  0.51100000000E-03 0. -1.
        -11    1    3    3    0    0 -0.85579034936E+01  0.11887489566E+02 -0.13757659165E+02  0.20095355343E+02  0.51100000000E-03 0.  1.
        -12    1    3    3    0    0  0.99011439025E+01 -0.20503114170E+02  0.47052464943E+01  0.23249724425E+02  0.00000000000E+00 0.  1.
</event>
<event>
 8    1  0.1905073E-013  0.7246233E+02  0.7816164E-02  0.1226706E+00
        -11   -1    0    0    0    0  0.00000000000E+00  0.00000000000E+00  0.45593999997E+02  0.45594000000E+02  0.51100000000E-03 0.  1.
         11   -1    0    0    0    0 -0.00000000000E+00 -0.00000000000E+00 -0.45593999997E+02  0.45594000000E+02  0.51100000000E-03 0. -1.
    9900012    2    1    2    0    0 -0.57725028966E+01  0.17253428505E+02 -0.44326160023E+01  0.72462331267E+02  0.70000991301E+02 0.  0.
         24    2    3    3    0    0 -0.15247245361E+01 -0.45991393188E+01  0.28604552835E+00  0.49706142913E+02  0.49468595633E+02 0.  0.
        -12    1    1    2    0    0  0.57725028966E+01 -0.17253428505E+02  0.44326160023E+01  0.18725668733E+02  0.00000000000E+00 0.  1.
         11    1    3    3    0    0 -0.42477783605E+01  0.21852567824E+02 -0.47186615307E+01  0.22756188354E+02  0.51100000000E-03 0. -1.
        -11    1    4    4    0    0 -0.92088429926E+01 -0.23855807624E+02 -0.88358207788E+01  0.27055019418E+02  0.51100000000E-03 0.  1.
         12    1    4    4    0    0  0.76841184565E+01  0.19256668305E+02  0.91218663071E+01  0.22651123495E+02  0.00000000000E+00 0. -1.
</event>
<event>
 7    1  0.1905073E-013  0.7246154E+02  0.7816164E-02  0.1226708E+00
        -11   -1    0    0    0    0  0.00000000000E+00  0.00000000000E+00  0.45593999997E+02  0.45594000000E+02  0.51100000000E-03 0. -1.
         11   -1    0    0    0    0 -0.00000000000E+00 -0.00000000000E+00 -0.45593999997E+02  0.45594000000E+02  0.51100000000E-03 0.  1.
    9900012    2    1    2    0    0 -0.10707687504E+02  0.60555858642E+01  0.14119337320E+02  0.72461538023E+02  0.69999957960E+02 0.  0.
        -12    1    1    2    0    0  0.10707687504E+02 -0.60555858642E+01 -0.14119337320E+02  0.18726461977E+02  0.00000000000E+00 0.  1.
         11    1    3    3    0    0 -0.14055244452E+02 -0.62346241171E+01 -0.11365713389E+02  0.19120666191E+02  0.51100000000E-03 0.  1.
        -11    1    3    3    0    0  0.23172022507E+02  0.51377776230E+01  0.56464036946E+01  0.24397156820E+02  0.51100000000E-03 0. -1.
         12    1    3    3    0    0 -0.19824465559E+02  0.71524323583E+01  0.19838647014E+02  0.28943715012E+02  0.00000000000E+00 0. -1.
</event>
<event>
 7    1  0.1905073E-013  0.7246155E+02  0.7816164E-02  0.1226708E+00
        -11   -1    0    0    0    0  0.00000000000E+00  0.00000000000E+00  0.45593999997E+02  0.45594000000E+02  0.51100000000E-03 0.  1.
         11   -1    0    0    0    0 -0.00000000000E+00 -0.00000000000E+00 -0.45593999997E+02  0.45594000000E+02  0.51100000000E-03 0. -1.
    9900012    2    1    2    0    0  0.43009498546E+01  0.13775942904E+02  0.11933364214E+02  0.72461549349E+02  0.69999972714E+02 0.  0.
        -12    1    1    2    0    0 -0.43009498546E+01 -0.13775942904E+02 -0.11933364214E+02  0.18726450651E+02  0.00000000000E+00 0.  1.
         11    1    3    3    0    0  0.92313413947E+01 -0.44478431676E+01  0.77674048734E+01  0.12858209499E+02  0.51100000000E-03 0. -1.
        -11    1    3    3    0    0 -0.27724511174E+02  0.15565527239E+01 -0.79384516797E+01  0.28880623116E+02  0.51100000000E-03 0.  1.
        -12    1    3    3    0    0  0.22794119634E+02  0.16667233347E+02  0.12104411020E+02  0.30722716734E+02  0.00000000000E+00 0.  1.
</event>
<event>
 7    1  0.1905073E-013  0.7246168E+02  0.7816164E-02  0.1226708E+00
        -11   -1    0    0    0    0  0.00000000000E+00  0.00000000000E+00  0.45593999997E+02  0.45594000000E+02  0.51100000000E-03 0.  1.
         11   -1    0    0    0    0 -0.00000000000E+00 -0.00000000000E+00 -0.45593999997E+02  0.45594000000E+02  0.51100000000E-03 0. -1.
    9900012    2    1    2    0    0  0.77684571767E+01  0.10611426399E+02 -0.13331302067E+02  0.72461683973E+02  0.70000148088E+02 0.  0.
        -12    1    1    2    0    0 -0.77684571767E+01 -0.10611426399E+02  0.13331302067E+02  0.18726316027E+02  0.00000000000E+00 0.  1.
         11    1    3    3    0    0  0.76740075828E+01  0.32405201243E+01 -0.10910702202E+02  0.13727155053E+02  0.51100000000E-03 0. -1.
        -11    1    3    3    0    0 -0.24088286100E+02  0.16634263827E+02  0.87183148148E+01  0.30544283815E+02  0.51100000000E-03 0.  1.
        -12    1    3    3    0    0  0.24182735694E+02 -0.92633575522E+01 -0.11138914680E+02  0.28190245104E+02  0.00000000000E+00 0.  1.
</event>
<event>
 7    1  0.1905073E-013  0.7246158E+02  0.7816164E-02  0.1226708E+00
        -11   -1    0    0    0    0  0.00000000000E+00  0.00000000000E+00  0.45593999997E+02  0.45594000000E+02  0.51100000000E-03 0.  1.
         11   -1    0    0    0    0 -0.00000000000E+00 -0.00000000000E+00 -0.45593999997E+02  0.45594000000E+02  0.51100000000E-03 0. -1.
    9900012    2    1    2    0    0  0.34952368042E+01 -0.41757043014E+01 -0.17917191713E+02  0.72461576273E+02  0.70000007788E+02 0.  0.
        -12    1    1    2    0    0 -0.34952368042E+01  0.41757043014E+01  0.17917191713E+02  0.18726423727E+02  0.00000000000E+00 0.  1.
         11    1    3    3    0    0 -0.67597580960E+01  0.16875712763E+02 -0.13354856420E+02  0.22557397923E+02  0.51100000000E-03 0. -1.
        -11    1    3    3    0    0  0.26111020900E+02 -0.21513662398E+02 -0.30486855865E+01  0.33969362170E+02  0.51100000000E-03 0.  1.
        -12    1    3    3    0    0 -0.15856025999E+02  0.46224533292E+00 -0.15136497069E+01  0.15934816180E+02  0.00000000000E+00 0.  1.
</event>
<event>
 7    1  0.1905073E-013  0.7246157E+02  0.7816164E-02  0.1226708E+00
        -11   -1    0    0    0    0  0.00000000000E+00  0.00000000000E+00  0.45593999997E+02  0.45594000000E+02  0.51100000000E-03 0.  1.
         11   -1    0    0    0    0 -0.00000000000E+00 -0.00000000000E+00 -0.45593999997E+02  0.45594000000E+02  0.51100000000E-03 0. -1.
    9900012    2    1    2    0    0 -0.15463291274E+02 -0.64698736437E+01 -0.83490431603E+01  0.72461570450E+02  0.70000000203E+02 0.  0.
        -12    1    1    2    0    0  0.15463291274E+02  0.64698736437E+01  0.83490431603E+01  0.18726429550E+02  0.00000000000E+00 0.  1.
         11    1    3    3    0    0 -0.10224350622E+01 -0.53842270861E+01 -0.61975071937E+01  0.82731112919E+01  0.51100000000E-03 0. -1.
        -11    1    3    3    0    0  0.94677126954E+01  0.10355382809E+02  0.23456983661E+02  0.27333159707E+02  0.51100000000E-03 0.  1.
        -12    1    3    3    0    0 -0.23908568907E+02 -0.11441029367E+02 -0.25608519628E+02  0.36855299452E+02  0.00000000000E+00 0.  1.
</event>
<event>
 7    1  0.1905073E-013  0.7246165E+02  0.7816164E-02  0.1226708E+00
        -11   -1    0    0    0    0  0.00000000000E+00  0.00000000000E+00  0.45593999997E+02  0.45594000000E+02  0.51100000000E-03 0.  1.
         11   -1    0    0    0    0 -0.00000000000E+00 -0.00000000000E+00 -0.45593999997E+02  0.45594000000E+02  0.51100000000E-03 0. -1.
    9900012    2    1    2    0    0  0.85468178597E+01  0.16134115187E+02 -0.41615598690E+01  0.72461645605E+02  0.70000098105E+02 0.  0.
        -12    1    1    2    0    0 -0.85468178597E+01 -0.16134115187E+02  0.41615598690E+01  0.18726354395E+02  0.00000000000E+00 0.  1.
         11    1    3    3    0    0  0.32954079926E+02  0.96168671012E+01 -0.68549942426E+01  0.35006377461E+02  0.51100000000E-03 0.  1.
        -11    1    3    3    0    0 -0.12423453235E+02 -0.92733713932E+01 -0.48524805540E+01  0.16244512153E+02  0.51100000000E-03 0. -1.
        -12    1    3    3    0    0 -0.11983808831E+02  0.15790619479E+02  0.75459149276E+01  0.21210755991E+02  0.00000000000E+00 0.  1.
</event>
<event>
 7    1  0.1905073E-013  0.7246157E+02  0.7816164E-02  0.1226708E+00
        -11   -1    0    0    0    0  0.00000000000E+00  0.00000000000E+00  0.45593999997E+02  0.45594000000E+02  0.51100000000E-03 0. -1.
         11   -1    0    0    0    0 -0.00000000000E+00 -0.00000000000E+00 -0.45593999997E+02  0.45594000000E+02  0.51100000000E-03 0.  1.
    9900012    2    1    2    0    0 -0.53790736984E+01 -0.12439144299E+02  0.12923324353E+02  0.72461573297E+02  0.70000003912E+02 0.  0.
        -12    1    1    2    0    0  0.53790736984E+01  0.12439144299E+02 -0.12923324353E+02  0.18726426703E+02  0.00000000000E+00 0.  1.
         11    1    3    3    0    0  0.16118798530E+02 -0.23722756451E+00  0.13187635621E+02  0.20827522092E+02  0.51100000000E-03 0. -1.
        -11    1    3    3    0    0  0.17650057342E+01 -0.73327130218E+01 -0.19596259990E+02  0.20997555366E+02  0.51100000000E-03 0.  1.
        -12    1    3    3    0    0 -0.23262877963E+02 -0.48692037126E+01  0.19331948722E+02  0.30636495839E+02  0.00000000000E+00 0.  1.
</event>
<event>
 7    1  0.1905073E-013  0.7246155E+02  0.7816164E-02  0.1226708E+00
        -11   -1    0    0    0    0  0.00000000000E+00  0.00000000000E+00  0.45593999997E+02  0.45594000000E+02  0.51100000000E-03 0.  1.
         11   -1    0    0    0    0 -0.00000000000E+00 -0.00000000000E+00 -0.45593999997E+02  0.45594000000E+02  0.51100000000E-03 0. -1.
    9900012    2    1    2    0    0 -0.18552873026E+02  0.18291348714E+01 -0.17677736951E+01  0.72461551972E+02  0.69999976132E+02 0.  0.
        -12    1    1    2    0    0  0.18552873026E+02 -0.18291348714E+01  0.17677736951E+01  0.18726448028E+02  0.00000000000E+00 0.  1.
         11    1    3    3    0    0 -0.19322262307E+02 -0.80576163223E+01  0.22224149030E+02  0.30531750717E+02  0.51100000000E-03 0.  1.
        -11    1    3    3    0    0  0.14889926048E+02  0.37840639383E+01 -0.26006972439E+01  0.15581805545E+02  0.51100000000E-03 0. -1.
         12    1    3    3    0    0 -0.14120536767E+02  0.61026872554E+01 -0.21391225481E+02  0.26347995710E+02  0.00000000000E+00 0. -1.
</event>
<event>
 7    1  0.1905073E-013  0.7246162E+02  0.7816164E-02  0.1226708E+00
        -11   -1    0    0    0    0  0.00000000000E+00  0.00000000000E+00  0.45593999997E+02  0.45594000000E+02  0.51100000000E-03 0. -1.
         11   -1    0    0    0    0 -0.00000000000E+00 -0.00000000000E+00 -0.45593999997E+02  0.45594000000E+02  0.51100000000E-03 0.  1.
    9900012    2    1    2    0    0 -0.15461778710E+01 -0.18510097987E+02  0.23796666656E+01  0.72461622696E+02  0.70000068263E+02 0.  0.
        -12    1    1    2    0    0  0.15461778710E+01  0.18510097987E+02 -0.23796666656E+01  0.18726377304E+02  0.00000000000E+00 0.  1.
         11    1    3    3    0    0  0.21940547156E+02  0.37530408226E+01  0.50023619850E+01  0.22814393496E+02  0.51100000000E-03 0. -1.
        -11    1    3    3    0    0 -0.27448275856E+02 -0.43680979415E+01 -0.10482513633E+02  0.29704733956E+02  0.51100000000E-03 0.  1.
         12    1    3    3    0    0  0.39615508288E+01 -0.17895040868E+02  0.78598183136E+01  0.19942495244E+02  0.00000000000E+00 0. -1.
</event>
<event>
 7    1  0.1905073E-013  0.7246186E+02  0.7816164E-02  0.1226707E+00
        -11   -1    0    0    0    0  0.00000000000E+00  0.00000000000E+00  0.45593999997E+02  0.45594000000E+02  0.51100000000E-03 0. -1.
         11   -1    0    0    0    0 -0.00000000000E+00 -0.00000000000E+00 -0.45593999997E+02  0.45594000000E+02  0.51100000000E-03 0.  1.
    9900012    2    1    2    0    0 -0.57315883920E+00 -0.17606536472E+02 -0.63521457722E+01  0.72461858019E+02  0.70000374813E+02 0.  0.
        -12    1    1    2    0    0  0.57315883920E+00  0.17606536472E+02  0.63521457722E+01  0.18726141981E+02  0.00000000000E+00 0.  1.
         11    1    3    3    0    0  0.15290569754E+02 -0.26543513310E+02 -0.55321135498E+01  0.31128185023E+02  0.51100000000E-03 0. -1.
        -11    1    3    3    0    0 -0.24378326466E+02  0.14383789186E+02  0.62645505665E+01  0.28990356788E+02  0.51100000000E-03 0.  1.
        -12    1    3    3    0    0  0.85145978733E+01 -0.54468123480E+01 -0.70845827889E+01  0.12343316207E+02  0.00000000000E+00 0.  1.
</event>
<event>
 7    1  0.1905073E-013  0.7246159E+02  0.7816164E-02  0.1226708E+00
        -11   -1    0    0    0    0  0.00000000000E+00  0.00000000000E+00  0.45593999997E+02  0.45594000000E+02  0.51100000000E-03 0.  1.
         11   -1    0    0    0    0 -0.00000000000E+00 -0.00000000000E+00 -0.45593999997E+02  0.45594000000E+02  0.51100000000E-03 0. -1.
    9900012    2    1    2    0    0 -0.26347468555E+01 -0.88914429795E+01 -0.16268947510E+02  0.72461593449E+02  0.70000030163E+02 0.  0.
        -12    1    1    2    0    0  0.26347468555E+01  0.88914429795E+01  0.16268947510E+02  0.18726406551E+02  0.00000000000E+00 0.  1.
         11    1    3    3    0    0 -0.15938395776E+02  0.12821841534E+02 -0.31213591716E+02  0.37319169181E+02  0.51100000000E-03 0. -1.
        -11    1    3    3    0    0  0.14001027350E+02 -0.24815756537E+02  0.12420316327E+02  0.31082387252E+02  0.51100000000E-03 0.  1.
        -12    1    3    3    0    0 -0.69737842921E+00  0.31024720235E+01  0.25243278793E+01  0.40600370161E+01  0.00000000000E+00 0.  1.
</event>
<event>
 7    1  0.1905073E-013  0.7246160E+02  0.7816164E-02  0.1226708E+00
        -11   -1    0    0    0    0  0.00000000000E+00  0.00000000000E+00  0.45593999997E+02  0.45594000000E+02  0.51100000000E-03 0.  1.
         11   -1    0    0    0    0 -0.00000000000E+00 -0.00000000000E+00 -0.45593999997E+02  0.45594000000E+02  0.51100000000E-03 0. -1.
    9900012    2    1    2    0    0  0.25388676398E+01  0.16296612492E+01 -0.18481781416E+02  0.72461604485E+02  0.70000044540E+02 0.  0.
        -12    1    1    2    0    0 -0.25388676398E+01 -0.16296612492E+01  0.18481781416E+02  0.18726395515E+02  0.00000000000E+00 0.  1.
         11    1    3    3    0    0 -0.24815912198E+02  0.51806513096E+01  0.10517709815E+02  0.27446144833E+02  0.51100000000E-03 0.  1.
        -11    1    3    3    0    0  0.16923588644E+02  0.53232211094E+01 -0.25171420955E+02  0.30795210159E+02  0.51100000000E-03 0. -1.
        -12    1    3    3    0    0  0.10431191194E+02 -0.88742111698E+01 -0.38280702754E+01  0.14220249493E+02  0.00000000000E+00 0.  1.
</event>
<event>
 7    1  0.1905073E-013  0.7246153E+02  0.7816164E-02  0.1226708E+00
        -11   -1    0    0    0    0  0.00000000000E+00  0.00000000000E+00  0.45593999997E+02  0.45594000000E+02  0.51100000000E-03 0.  1.
         11   -1    0    0    0    0 -0.00000000000E+00 -0.00000000000E+00 -0.45593999997E+02  0.45594000000E+02  0.51100000000E-03 0. -1.
    9900012    2    1    2    0    0  0.23208964512E+00 -0.18398169081E+02 -0.34833914011E+01  0.72461534589E+02  0.69999953487E+02 0.  0.
        -12    1    1    2    0    0 -0.23208964512E+00  0.18398169081E+02  0.34833914011E+01  0.18726465411E+02  0.00000000000E+00 0.  1.
         11    1    3    3    0    0 -0.30792860038E+02 -0.52335878645E-02  0.67507114259E+01  0.31524155210E+02  0.51100000000E-03 0. -1.
        -11    1    3    3    0    0  0.11362329849E+02 -0.16101391992E+02 -0.34175611853E+01  0.20000927188E+02  0.51100000000E-03 0.  1.
         12    1    3    3    0    0  0.19662619834E+02 -0.22915435019E+01 -0.68165416417E+01  0.20936452190E+02  0.00000000000E+00 0. -1.
</event>
<event>
 7    1  0.1905073E-013  0.7246155E+02  0.7816164E-02  0.1226708E+00
        -11   -1    0    0    0    0  0.00000000000E+00  0.00000000000E+00  0.45593999997E+02  0.45594000000E+02  0.51100000000E-03 0.  1.
         11   -1    0    0    0    0 -0.00000000000E+00 -0.00000000000E+00 -0.45593999997E+02  0.45594000000E+02  0.51100000000E-03 0. -1.
    9900012    2    1    2    0    0 -0.92949367971E+01 -0.22488651426E+01 -0.16100515718E+02  0.72461552102E+02  0.69999976301E+02 0.  0.
        -12    1    1    2    0    0  0.92949367971E+01  0.22488651426E+01  0.16100515718E+02  0.18726447898E+02  0.00000000000E+00 0.  1.
         11    1    3    3    0    0 -0.32425034828E+01  0.65089915785E+01 -0.99373253194E+01  0.12313863527E+02  0.51100000000E-03 0. -1.
        -11    1    3    3    0    0 -0.85433481720E+01  0.15306160656E+02  0.18579245765E+02  0.25543212904E+02  0.51100000000E-03 0.  1.
        -12    1    3    3    0    0  0.24909148577E+01 -0.24064017377E+02 -0.24742436163E+02  0.34604475671E+02  0.00000000000E+00 0.  1.
</event>
<event>
 7    1  0.1905073E-013  0.7246158E+02  0.7816164E-02  0.1226708E+00
        -11   -1    0    0    0    0  0.00000000000E+00  0.00000000000E+00  0.45593999997E+02  0.45594000000E+02  0.51100000000E-03 0.  1.
         11   -1    0    0    0    0 -0.00000000000E+00 -0.00000000000E+00 -0.45593999997E+02  0.45594000000E+02  0.51100000000E-03 0. -1.
    9900012    2    1    2    0    0  0.91563647359E+01 -0.13037168762E+02 -0.98423628052E+01  0.72461577755E+02  0.70000009719E+02 0.  0.
        -12    1    1    2    0    0 -0.91563647359E+01  0.13037168762E+02  0.98423628052E+01  0.18726422245E+02  0.00000000000E+00 0.  1.
         11    1    3    3    0    0  0.17110453187E+02 -0.14942445110E+02  0.70504648534E+01  0.23785569765E+02  0.51100000000E-03 0. -1.
        -11    1    3    3    0    0 -0.75695673975E+01  0.23140748092E+02 -0.77312930294E+01  0.25545360930E+02  0.51100000000E-03 0.  1.
         12    1    3    3    0    0 -0.38452105385E+00 -0.21235471745E+02 -0.91615346292E+01  0.23130647060E+02  0.00000000000E+00 0. -1.
</event>
<event>
 7    1  0.1905073E-013  0.7246162E+02  0.7816164E-02  0.1226708E+00
        -11   -1    0    0    0    0  0.00000000000E+00  0.00000000000E+00  0.45593999997E+02  0.45594000000E+02  0.51100000000E-03 0. -1.
         11   -1    0    0    0    0 -0.00000000000E+00 -0.00000000000E+00 -0.45593999997E+02  0.45594000000E+02  0.51100000000E-03 0.  1.
    9900012    2    1    2    0    0  0.14961982762E+02 -0.97257141982E+01  0.56768592486E+01  0.72461623528E+02  0.70000069346E+02 0.  0.
        -12    1    1    2    0    0 -0.14961982762E+02  0.97257141982E+01 -0.56768592486E+01  0.18726376472E+02  0.00000000000E+00 0.  1.
         11    1    3    3    0    0  0.16940189504E+02  0.12936132261E+02 -0.82913240303E-02  0.21314633642E+02  0.51100000000E-03 0. -1.
        -11    1    3    3    0    0  0.11483358236E+02 -0.32258555025E+02  0.27027506909E+01  0.34348023965E+02  0.51100000000E-03 0.  1.
        -12    1    3    3    0    0 -0.13461564978E+02  0.95967085661E+01  0.29823998817E+01  0.16798965921E+02  0.00000000000E+00 0.  1.
</event>
<event>
 7    1  0.1905073E-013  0.7246156E+02  0.7816164E-02  0.1226708E+00
        -11   -1    0    0    0    0  0.00000000000E+00  0.00000000000E+00  0.45593999997E+02  0.45594000000E+02  0.51100000000E-03 0.  1.
         11   -1    0    0    0    0 -0.00000000000E+00 -0.00000000000E+00 -0.45593999997E+02  0.45594000000E+02  0.51100000000E-03 0. -1.
    9900012    2    1    2    0    0  0.11580211434E+02 -0.12696737032E+02  0.74411751118E+01  0.72461561066E+02  0.69999987978E+02 0.  0.
        -12    1    1    2    0    0 -0.11580211434E+02  0.12696737032E+02 -0.74411751118E+01  0.18726438934E+02  0.00000000000E+00 0.  1.
         11    1    3    3    0    0  0.22882714964E+00  0.18446305661E+02 -0.79803774390E-01  0.18447897531E+02  0.51100000000E-03 0. -1.
        -11    1    3    3    0    0 -0.63339529819E+01 -0.31418714248E+02 -0.48687006584E+01  0.32418494903E+02  0.51100000000E-03 0.  1.
        -12    1    3    3    0    0  0.17685337267E+02  0.27567155569E+00  0.12389679545E+02  0.21595168632E+02  0.00000000000E+00 0.  1.
</event>
<event>
 7    1  0.1905073E-013  0.7246157E+02  0.7816164E-02  0.1226708E+00
        -11   -1    0    0    0    0  0.00000000000E+00  0.00000000000E+00  0.45593999997E+02  0.45594000000E+02  0.51100000000E-03 0.  1.
         11   -1    0    0    0    0 -0.00000000000E+00 -0.00000000000E+00 -0.45593999997E+02  0.45594000000E+02  0.51100000000E-03 0. -1.
    9900012    2    1    2    0    0  0.16358347947E+02 -0.90125722894E+01 -0.13627248967E+01  0.72461574127E+02  0.70000004993E+02 0.  0.
        -12    1    1    2    0    0 -0.16358347947E+02  0.90125722894E+01  0.13627248967E+01  0.18726425873E+02  0.00000000000E+00 0.  1.
         11    1    3    3    0    0  0.20310081999E+02  0.12072740814E+02 -0.26611860897E+02  0.35587099379E+02  0.51100000000E-03 0. -1.
        -11    1    3    3    0    0 -0.26596378258E+01 -0.94168460114E+01  0.22898529214E+02  0.24901672686E+02  0.51100000000E-03 0.  1.
         12    1    3    3    0    0 -0.12920962263E+01 -0.11668467092E+02  0.23506067869E+01  0.11972802062E+02  0.00000000000E+00 0. -1.
</event>
<event>
 7    1  0.1905073E-013  0.7246151E+02  0.7816164E-02  0.1226708E+00
        -11   -1    0    0    0    0  0.00000000000E+00  0.00000000000E+00  0.45593999997E+02  0.45594000000E+02  0.51100000000E-03 0.  1.
         11   -1    0    0    0    0 -0.00000000000E+00 -0.00000000000E+00 -0.45593999997E+02  0.45594000000E+02  0.51100000000E-03 0. -1.
    9900012    2    1    2    0    0  0.16502684052E+02 -0.81520817706E+01  0.34476793252E+01  0.72461507781E+02  0.69999918565E+02 0.  0.
        -12    1    1    2    0    0 -0.16502684052E+02  0.81520817706E+01 -0.34476793252E+01  0.18726492219E+02  0.00000000000E+00 0.  1.
         11    1    3    3    0    0  0.15736996729E+02 -0.22860094217E+02 -0.24271866689E+02  0.36869506187E+02  0.51100000000E-03 0. -1.
        -11    1    3    3    0    0  0.80598739993E+01  0.83286491794E+01  0.20345300404E+02  0.23414935721E+02  0.51100000000E-03 0.  1.
        -12    1    3    3    0    0 -0.72941866769E+01  0.63793632665E+01  0.73742456101E+01  0.12177065873E+02  0.00000000000E+00 0.  1.
</event>
<event>
 7    1  0.1905073E-013  0.7246153E+02  0.7816164E-02  0.1226708E+00
        -11   -1    0    0    0    0  0.00000000000E+00  0.00000000000E+00  0.45593999997E+02  0.45594000000E+02  0.51100000000E-03 0.  1.
         11   -1    0    0    0    0 -0.00000000000E+00 -0.00000000000E+00 -0.45593999997E+02  0.45594000000E+02  0.51100000000E-03 0. -1.
    9900012    2    1    2    0    0  0.17963657660E+02  0.11851165558E+00 -0.52890254371E+01  0.72461525916E+02  0.69999942189E+02 0.  0.
        -12    1    1    2    0    0 -0.17963657660E+02 -0.11851165558E+00  0.52890254371E+01  0.18726474084E+02  0.00000000000E+00 0.  1.
         11    1    3    3    0    0  0.79987947817E+01 -0.18729209233E+02 -0.86963789589E+01  0.22144773734E+02  0.51100000000E-03 0. -1.
        -11    1    3    3    0    0 -0.38811153310E+01  0.25932874732E+02  0.15637739293E+02  0.30530573832E+02  0.51100000000E-03 0.  1.
        -12    1    3    3    0    0  0.13845978210E+02 -0.70851538429E+01 -0.12230385771E+02  0.19786178349E+02  0.00000000000E+00 0.  1.
</event>
<event>
 7    1  0.1905073E-013  0.7246155E+02  0.7816164E-02  0.1226708E+00
        -11   -1    0    0    0    0  0.00000000000E+00  0.00000000000E+00  0.45593999997E+02  0.45594000000E+02  0.51100000000E-03 0. -1.
         11   -1    0    0    0    0 -0.00000000000E+00 -0.00000000000E+00 -0.45593999997E+02  0.45594000000E+02  0.51100000000E-03 0.  1.
    9900012    2    1    2    0    0 -0.13463151384E+02 -0.22007422812E+01 -0.12828881244E+02  0.72461550637E+02  0.69999974393E+02 0.  0.
        -12    1    1    2    0    0  0.13463151384E+02  0.22007422812E+01  0.12828881244E+02  0.18726449363E+02  0.00000000000E+00 0.  1.
         11    1    3    3    0    0  0.14834243380E+02 -0.37554687053E+01 -0.19181667605E+02  0.24537617941E+02  0.51100000000E-03 0.  1.
        -11    1    3    3    0    0 -0.29488886436E+02 -0.12542772915E+02 -0.83205030913E+00  0.32056323614E+02  0.51100000000E-03 0. -1.
         12    1    3    3    0    0  0.11914916730E+01  0.14097499339E+02  0.71848366695E+01  0.15867609082E+02  0.00000000000E+00 0. -1.
</event>
<event>
 7    1  0.1905073E-013  0.7246159E+02  0.7816164E-02  0.1226708E+00
        -11   -1    0    0    0    0  0.00000000000E+00  0.00000000000E+00  0.45593999997E+02  0.45594000000E+02  0.51100000000E-03 0.  1.
         11   -1    0    0    0    0 -0.00000000000E+00 -0.00000000000E+00 -0.45593999997E+02  0.45594000000E+02  0.51100000000E-03 0. -1.
    9900012    2    1    2    0    0 -0.96006773637E+01 -0.88503760750E+01 -0.13422968862E+02  0.72461594696E+02  0.70000031788E+02 0.  0.
        -12    1    1    2    0    0  0.96006773637E+01  0.88503760750E+01  0.13422968862E+02  0.18726405304E+02  0.00000000000E+00 0.  1.
         11    1    3    3    0    0 -0.85463037109E+01 -0.79928158731E+01 -0.10436129106E+01  0.11747916448E+02  0.51100000000E-03 0. -1.
        -11    1    3    3    0    0  0.86454695213E+01  0.25066818276E+02 -0.18542734312E+02  0.32356182064E+02  0.51100000000E-03 0.  1.
        -12    1    3    3    0    0 -0.96998431742E+01 -0.25924378478E+02  0.61633783599E+01  0.28357496185E+02  0.00000000000E+00 0.  1.
</event>
<event>
 7    1  0.1905073E-013  0.7246156E+02  0.7816164E-02  0.1226708E+00
        -11   -1    0    0    0    0  0.00000000000E+00  0.00000000000E+00  0.45593999997E+02  0.45594000000E+02  0.51100000000E-03 0.  1.
         11   -1    0    0    0    0 -0.00000000000E+00 -0.00000000000E+00 -0.45593999997E+02  0.45594000000E+02  0.51100000000E-03 0. -1.
    9900012    2    1    2    0    0  0.17629547297E+02  0.28126668156E+01 -0.56539868034E+01  0.72461558820E+02  0.69999985052E+02 0.  0.
        -12    1    1    2    0    0 -0.17629547297E+02 -0.28126668156E+01  0.56539868034E+01  0.18726441180E+02  0.00000000000E+00 0.  1.
         11    1    3    3    0    0 -0.17727041067E+02 -0.57282753118E+01 -0.15463708235E+02  0.24211307187E+02  0.51100000000E-03 0. -1.
        -11    1    3    3    0    0  0.97733129300E+01  0.98794813772E+01  0.16695842674E+02  0.21722637058E+02  0.51100000000E-03 0.  1.
         12    1    3    3    0    0  0.25583275434E+02 -0.13385392498E+01 -0.68861212423E+01  0.26527614575E+02  0.00000000000E+00 0. -1.
</event>
<event>
 7    1  0.1905073E-013  0.7246162E+02  0.7816164E-02  0.1226708E+00
        -11   -1    0    0    0    0  0.00000000000E+00  0.00000000000E+00  0.45593999997E+02  0.45594000000E+02  0.51100000000E-03 0.  1.
         11   -1    0    0    0    0 -0.00000000000E+00 -0.00000000000E+00 -0.45593999997E+02  0.45594000000E+02  0.51100000000E-03 0. -1.
    9900012    2    1    2    0    0 -0.14132536956E+02  0.11870076624E+02  0.31701721349E+01  0.72461619911E+02  0.70000064635E+02 0.  0.
        -12    1    1    2    0    0  0.14132536956E+02 -0.11870076624E+02 -0.31701721349E+01  0.18726380089E+02  0.00000000000E+00 0.  1.
         11    1    3    3    0    0 -0.35166685322E+02  0.12833631795E+02 -0.51105102090E+01  0.37782471814E+02  0.51100000000E-03 0. -1.
        -11    1    3    3    0    0  0.18082663468E+02 -0.21658253474E+01  0.17296534778E+02  0.25116600748E+02  0.51100000000E-03 0.  1.
         12    1    3    3    0    0  0.29514848973E+01  0.12022701767E+01 -0.90158524342E+01  0.95625473485E+01  0.00000000000E+00 0. -1.
</event>
<event>
 7    1  0.1905073E-013  0.7246157E+02  0.7816164E-02  0.1226708E+00
        -11   -1    0    0    0    0  0.00000000000E+00  0.00000000000E+00  0.45593999997E+02  0.45594000000E+02  0.51100000000E-03 0. -1.
         11   -1    0    0    0    0 -0.00000000000E+00 -0.00000000000E+00 -0.45593999997E+02  0.45594000000E+02  0.51100000000E-03 0.  1.
    9900012    2    1    2    0    0 -0.88593939594E+01  0.16497980326E+02  0.84297848389E-01  0.72461566215E+02  0.69999994686E+02 0.  0.
        -12    1    1    2    0    0  0.88593939594E+01 -0.16497980326E+02 -0.84297848389E-01  0.18726433785E+02  0.00000000000E+00 0.  1.
         11    1    3    3    0    0 -0.14173455432E+02 -0.71119576507E+01  0.17000456667E+02  0.23248275370E+02  0.51100000000E-03 0. -1.
        -11    1    3    3    0    0  0.20869273046E+02  0.67838530230E+01 -0.23705013742E+01  0.22071848503E+02  0.51100000000E-03 0.  1.
         12    1    3    3    0    0 -0.15555211573E+02  0.16826084954E+02 -0.14545657445E+02  0.27141442343E+02  0.00000000000E+00 0. -1.
</event>
<event>
 7    1  0.1905073E-013  0.7246159E+02  0.7816164E-02  0.1226708E+00
        -11   -1    0    0    0    0  0.00000000000E+00  0.00000000000E+00  0.45593999997E+02  0.45594000000E+02  0.51100000000E-03 0.  1.
         11   -1    0    0    0    0 -0.00000000000E+00 -0.00000000000E+00 -0.45593999997E+02  0.45594000000E+02  0.51100000000E-03 0. -1.
    9900012    2    1    2    0    0 -0.17042964895E+02 -0.64262679334E+01 -0.43495788319E+01  0.72461590627E+02  0.70000026488E+02 0.  0.
        -12    1    1    2    0    0  0.17042964895E+02  0.64262679334E+01  0.43495788319E+01  0.18726409373E+02  0.00000000000E+00 0.  1.
         11    1    3    3    0    0 -0.14497199224E+02  0.97165470920E+01 -0.59818517598E+01  0.18448919303E+02  0.51100000000E-03 0. -1.
        -11    1    3    3    0    0  0.23320255459E+02 -0.14665473483E+01  0.55492484041E+01  0.24016228553E+02  0.51100000000E-03 0.  1.
        -12    1    3    3    0    0 -0.25866021130E+02 -0.14676267677E+02 -0.39169754761E+01  0.29996442771E+02  0.00000000000E+00 0.  1.
</event>
<event>
 7    1  0.1905073E-013  0.7246137E+02  0.7816164E-02  0.1226709E+00
        -11   -1    0    0    0    0  0.00000000000E+00  0.00000000000E+00  0.45593999997E+02  0.45594000000E+02  0.51100000000E-03 0. -1.
         11   -1    0    0    0    0 -0.00000000000E+00 -0.00000000000E+00 -0.45593999997E+02  0.45594000000E+02  0.51100000000E-03 0.  1.
    9900012    2    1    2    0    0  0.15546092702E+01 -0.42413966510E+01  0.18173614906E+02  0.72461373655E+02  0.69999743840E+02 0.  0.
        -12    1    1    2    0    0 -0.15546092702E+01  0.42413966510E+01 -0.18173614906E+02  0.18726626345E+02  0.00000000000E+00 0.  1.
         11    1    3    3    0    0 -0.78552532958E+01  0.15742423214E+02 -0.15626051302E+02  0.23530881253E+02  0.51100000000E-03 0. -1.
        -11    1    3    3    0    0  0.10462656039E+02 -0.99759870689E+01  0.35855031150E+02  0.38659678587E+02  0.51100000000E-03 0.  1.
        -12    1    3    3    0    0 -0.10527934725E+01 -0.10007832796E+02 -0.20553649427E+01  0.10270813815E+02  0.00000000000E+00 0.  1.
</event>
<event>
 7    1  0.1905073E-013  0.7246154E+02  0.7816164E-02  0.1226708E+00
        -11   -1    0    0    0    0  0.00000000000E+00  0.00000000000E+00  0.45593999997E+02  0.45594000000E+02  0.51100000000E-03 0. -1.
         11   -1    0    0    0    0 -0.00000000000E+00 -0.00000000000E+00 -0.45593999997E+02  0.45594000000E+02  0.51100000000E-03 0.  1.
    9900012    2    1    2    0    0 -0.58284593212E+01 -0.17653469439E+02  0.22504586035E+01  0.72461535165E+02  0.69999954237E+02 0.  0.
        -12    1    1    2    0    0  0.58284593212E+01  0.17653469439E+02 -0.22504586035E+01  0.18726464835E+02  0.00000000000E+00 0.  1.
         11    1    3    3    0    0 -0.36614550976E+01 -0.52328777400E+00  0.32385073902E+02  0.32595599326E+02  0.51100000000E-03 0. -1.
        -11    1    3    3    0    0 -0.88969013217E+01 -0.15670316038E+02 -0.26590188662E+02  0.32120893375E+02  0.51100000000E-03 0.  1.
         12    1    3    3    0    0  0.67298970980E+01 -0.14598656269E+01 -0.35444266365E+01  0.77450424647E+01  0.00000000000E+00 0. -1.
</event>
<event>
 7    1  0.1905073E-013  0.7246161E+02  0.7816164E-02  0.1226708E+00
        -11   -1    0    0    0    0  0.00000000000E+00  0.00000000000E+00  0.45593999997E+02  0.45594000000E+02  0.51100000000E-03 0.  1.
         11   -1    0    0    0    0 -0.00000000000E+00 -0.00000000000E+00 -0.45593999997E+02  0.45594000000E+02  0.51100000000E-03 0. -1.
    9900012    2    1    2    0    0 -0.74448743084E+01 -0.17145744305E+02  0.11292083596E+01  0.72461606520E+02  0.70000047190E+02 0.  0.
        -12    1    1    2    0    0  0.74448743084E+01  0.17145744305E+02 -0.11292083596E+01  0.18726393480E+02  0.00000000000E+00 0.  1.
         11    1    3    3    0    0  0.17808503021E+00  0.75952061211E+01 -0.11397076539E+02  0.13697161173E+02  0.51100000000E-03 0. -1.
        -11    1    3    3    0    0 -0.86006940950E+01 -0.60605903854E+01  0.30840445996E+02  0.32585822136E+02  0.51100000000E-03 0.  1.
        -12    1    3    3    0    0  0.97773475644E+00 -0.18680360041E+02 -0.18314161098E+02  0.26178623211E+02  0.00000000000E+00 0.  1.
</event>
<event>
 7    1  0.1905073E-013  0.7246136E+02  0.7816164E-02  0.1226709E+00
        -11   -1    0    0    0    0  0.00000000000E+00  0.00000000000E+00  0.45593999997E+02  0.45594000000E+02  0.51100000000E-03 0.  1.
         11   -1    0    0    0    0 -0.00000000000E+00 -0.00000000000E+00 -0.45593999997E+02  0.45594000000E+02  0.51100000000E-03 0. -1.
    9900012    2    1    2    0    0 -0.63779771285E+01 -0.11881121961E+02 -0.12994133865E+02  0.72461356782E+02  0.69999721861E+02 0.  0.
        -12    1    1    2    0    0  0.63779771285E+01  0.11881121961E+02  0.12994133865E+02  0.18726643218E+02  0.00000000000E+00 0.  1.
         11    1    3    3    0    0  0.53683491322E+01  0.19254241603E+02 -0.40300867399E+01  0.20390845777E+02  0.51100000000E-03 0. -1.
        -11    1    3    3    0    0 -0.32425282373E+01 -0.39211416016E+02 -0.48540274163E+01  0.39643545726E+02  0.51100000000E-03 0.  1.
        -12    1    3    3    0    0 -0.85037980234E+01  0.80760524528E+01 -0.41100197090E+01  0.12426965279E+02  0.00000000000E+00 0.  1.
</event>
<event>
 7    1  0.1905073E-013  0.7246157E+02  0.7816164E-02  0.1226708E+00
        -11   -1    0    0    0    0  0.00000000000E+00  0.00000000000E+00  0.45593999997E+02  0.45594000000E+02  0.51100000000E-03 0.  1.
         11   -1    0    0    0    0 -0.00000000000E+00 -0.00000000000E+00 -0.45593999997E+02  0.45594000000E+02  0.51100000000E-03 0. -1.
    9900012    2    1    2    0    0  0.16430626937E+02 -0.41798624583E+01 -0.79525132629E+01  0.72461568976E+02  0.69999998282E+02 0.  0.
        -12    1    1    2    0    0 -0.16430626937E+02  0.41798624583E+01  0.79525132629E+01  0.18726431024E+02  0.00000000000E+00 0.  1.
         11    1    3    3    0    0  0.18242245420E+02 -0.10836553800E+02 -0.18147380557E+02  0.27920204827E+02  0.51100000000E-03 0. -1.
        -11    1    3    3    0    0 -0.17657552117E+02  0.54009179321E+01 -0.82224197298E+01  0.20213046474E+02  0.51100000000E-03 0.  1.
        -12    1    3    3    0    0  0.15845933634E+02  0.12557734092E+01  0.18417287024E+02  0.24328317675E+02  0.00000000000E+00 0.  1.
</event>
<event>
 7    1  0.1954982E-013  0.7246156E+02  0.7816164E-02  0.1226708E+00
        -11   -1    0    0    0    0  0.00000000000E+00  0.00000000000E+00  0.45593999997E+02  0.45594000000E+02  0.51100000000E-03 0. -1.
         11   -1    0    0    0    0 -0.00000000000E+00 -0.00000000000E+00 -0.45593999997E+02  0.45594000000E+02  0.51100000000E-03 0.  1.
    9900012    2    1    2    0    0 -0.51031352273E+01  0.86504273750E+01  0.15805301507E+02  0.72461563109E+02  0.69999990639E+02 0.  0.
        -12    1    1    2    0    0  0.51031352273E+01 -0.86504273750E+01 -0.15805301507E+02  0.18726436891E+02  0.00000000000E+00 0.  1.
         11    1    3    3    0    0 -0.31103547046E+02  0.10112415652E+02 -0.44999081333E+00  0.32709235410E+02  0.51100000000E-03 0. -1.
        -11    1    3    3    0    0  0.14566066775E+02 -0.20078450755E+01 -0.50662392922E+01  0.15552122813E+02  0.51100000000E-03 0.  1.
         12    1    3    3    0    0  0.11434345043E+02  0.54585679817E+00  0.21321531612E+02  0.24200204886E+02  0.00000000000E+00 0. -1.
</event>
<event>
 7    1  0.1905073E-013  0.7246155E+02  0.7816164E-02  0.1226708E+00
        -11   -1    0    0    0    0  0.00000000000E+00  0.00000000000E+00  0.45593999997E+02  0.45594000000E+02  0.51100000000E-03 0.  1.
         11   -1    0    0    0    0 -0.00000000000E+00 -0.00000000000E+00 -0.45593999997E+02  0.45594000000E+02  0.51100000000E-03 0. -1.
    9900012    2    1    2    0    0  0.28462067167E+01  0.59327994515E+01 -0.17532282178E+02  0.72461550246E+02  0.69999973884E+02 0.  0.
        -12    1    1    2    0    0 -0.28462067167E+01 -0.59327994515E+01  0.17532282178E+02  0.18726449754E+02  0.00000000000E+00 0.  1.
         11    1    3    3    0    0 -0.23534851038E+01 -0.12141289037E+02 -0.32406838830E+02  0.34686495857E+02  0.51100000000E-03 0. -1.
        -11    1    3    3    0    0 -0.53822991348E+01  0.77322892200E+01  0.20006722552E+02  0.22113941035E+02  0.51100000000E-03 0.  1.
        -12    1    3    3    0    0  0.10581990955E+02  0.10341799268E+02 -0.51321658997E+01  0.15661113355E+02  0.00000000000E+00 0.  1.
</event>
<event>
 7    1  0.1905073E-013  0.7246159E+02  0.7816164E-02  0.1226708E+00
        -11   -1    0    0    0    0  0.00000000000E+00  0.00000000000E+00  0.45593999997E+02  0.45594000000E+02  0.51100000000E-03 0.  1.
         11   -1    0    0    0    0 -0.00000000000E+00 -0.00000000000E+00 -0.45593999997E+02  0.45594000000E+02  0.51100000000E-03 0. -1.
    9900012    2    1    2    0    0 -0.66952972851E+01 -0.15118270155E+02 -0.87914291130E+01  0.72461592868E+02  0.70000029407E+02 0.  0.
        -12    1    1    2    0    0  0.66952972851E+01  0.15118270155E+02  0.87914291130E+01  0.18726407132E+02  0.00000000000E+00 0.  1.
         11    1    3    3    0    0 -0.30264182036E+01 -0.39444738057E+02 -0.91599533597E+01  0.40607281531E+02  0.51100000000E-03 0. -1.
        -11    1    3    3    0    0 -0.37336176594E+01  0.13635285231E+02  0.10118163506E+02  0.17384997474E+02  0.51100000000E-03 0.  1.
        -12    1    3    3    0    0  0.64738577899E-01  0.10691182671E+02 -0.97496392591E+01  0.14469313863E+02  0.00000000000E+00 0.  1.
</event>
<event>
 7    1  0.1905073E-013  0.7246160E+02  0.7816164E-02  0.1226708E+00
        -11   -1    0    0    0    0  0.00000000000E+00  0.00000000000E+00  0.45593999997E+02  0.45594000000E+02  0.51100000000E-03 0.  1.
         11   -1    0    0    0    0 -0.00000000000E+00 -0.00000000000E+00 -0.45593999997E+02  0.45594000000E+02  0.51100000000E-03 0. -1.
    9900012    2    1    2    0    0  0.15934918853E+02 -0.31551513902E+01 -0.93167234811E+01  0.72461602707E+02  0.70000042224E+02 0.  0.
        -12    1    1    2    0    0 -0.15934918853E+02  0.31551513902E+01  0.93167234811E+01  0.18726397293E+02  0.00000000000E+00 0.  1.
         11    1    3    3    0    0  0.20038982526E+02 -0.14555363353E+02  0.16198751564E+02  0.29594238891E+02  0.51100000000E-03 0. -1.
        -11    1    3    3    0    0 -0.82584939974E+01  0.20454840388E+02 -0.95253961659E+01  0.24027825345E+02  0.51100000000E-03 0.  1.
         12    1    3    3    0    0  0.41544303248E+01 -0.90546284256E+01 -0.15990078880E+02  0.18839538472E+02  0.00000000000E+00 0. -1.
</event>
<event>
 7    1  0.1905073E-013  0.7246160E+02  0.7816164E-02  0.1226708E+00
        -11   -1    0    0    0    0  0.00000000000E+00  0.00000000000E+00  0.45593999997E+02  0.45594000000E+02  0.51100000000E-03 0. -1.
         11   -1    0    0    0    0 -0.00000000000E+00 -0.00000000000E+00 -0.45593999997E+02  0.45594000000E+02  0.51100000000E-03 0.  1.
    9900012    2    1    2    0    0  0.47343359976E+01 -0.16510926848E+02  0.74601266689E+01  0.72461597979E+02  0.70000036065E+02 0.  0.
        -12    1    1    2    0    0 -0.47343359976E+01  0.16510926848E+02 -0.74601266689E+01  0.18726402021E+02  0.00000000000E+00 0.  1.
         11    1    3    3    0    0 -0.57310659098E+01 -0.23066632853E+02 -0.14270448041E+02  0.27722921115E+02  0.51100000000E-03 0. -1.
        -11    1    3    3    0    0 -0.30265066387E+00  0.21048524830E+02  0.11564443269E+02  0.24018083673E+02  0.51100000000E-03 0.  1.
        -12    1    3    3    0    0  0.10768052571E+02 -0.14492818826E+02  0.10166131441E+02  0.20720593191E+02  0.00000000000E+00 0.  1.
</event>
<event>
 7    1  0.1905073E-013  0.7246160E+02  0.7816164E-02  0.1226708E+00
        -11   -1    0    0    0    0  0.00000000000E+00  0.00000000000E+00  0.45593999997E+02  0.45594000000E+02  0.51100000000E-03 0. -1.
         11   -1    0    0    0    0 -0.00000000000E+00 -0.00000000000E+00 -0.45593999997E+02  0.45594000000E+02  0.51100000000E-03 0.  1.
    9900012    2    1    2    0    0  0.13502808666E+02  0.31979048359E+01  0.12574799581E+02  0.72461600941E+02  0.70000039923E+02 0.  0.
        -12    1    1    2    0    0 -0.13502808666E+02 -0.31979048359E+01 -0.12574799581E+02  0.18726399059E+02  0.00000000000E+00 0.  1.
         11    1    3    3    0    0 -0.47632539101E+01 -0.21401541323E+02 -0.18425671862E+02  0.28639482234E+02  0.51100000000E-03 0.  1.
        -11    1    3    3    0    0  0.17974892049E+02  0.23070764390E+02  0.30310450350E+02  0.42119832792E+02  0.51100000000E-03 0. -1.
        -12    1    3    3    0    0  0.29117052659E+00  0.15286817689E+01  0.69002109339E+00  0.17022859147E+01  0.00000000000E+00 0.  1.
</event>
<event>
 7    1  0.1905073E-013  0.7246153E+02  0.7816164E-02  0.1226708E+00
        -11   -1    0    0    0    0  0.00000000000E+00  0.00000000000E+00  0.45593999997E+02  0.45594000000E+02  0.51100000000E-03 0.  1.
         11   -1    0    0    0    0 -0.00000000000E+00 -0.00000000000E+00 -0.45593999997E+02  0.45594000000E+02  0.51100000000E-03 0. -1.
    9900012    2    1    2    0    0 -0.12273294246E+02  0.47716972717E+01 -0.13314567262E+02  0.72461533492E+02  0.69999952058E+02 0.  0.
        -12    1    1    2    0    0  0.12273294246E+02 -0.47716972717E+01  0.13314567262E+02  0.18726466508E+02  0.00000000000E+00 0.  1.
         11    1    3    3    0    0 -0.19998375957E+02  0.59091585684E+00 -0.33139734188E+02  0.38710802171E+02  0.51100000000E-03 0. -1.
        -11    1    3    3    0    0 -0.27389261462E+00  0.13374648998E+02  0.16255334130E+02  0.21052129131E+02  0.51100000000E-03 0.  1.
         12    1    3    3    0    0  0.79989743254E+01 -0.91938675833E+01  0.35698327958E+01  0.12698602190E+02  0.00000000000E+00 0. -1.
</event>
<event>
 7    1  0.1905073E-013  0.7246161E+02  0.7816164E-02  0.1226708E+00
        -11   -1    0    0    0    0  0.00000000000E+00  0.00000000000E+00  0.45593999997E+02  0.45594000000E+02  0.51100000000E-03 0.  1.
         11   -1    0    0    0    0 -0.00000000000E+00 -0.00000000000E+00 -0.45593999997E+02  0.45594000000E+02  0.51100000000E-03 0. -1.
    9900012    2    1    2    0    0  0.33017536555E+01 -0.16419328010E+02 -0.83774649861E+01  0.72461606084E+02  0.70000046623E+02 0.  0.
        -12    1    1    2    0    0 -0.33017536555E+01  0.16419328010E+02  0.83774649861E+01  0.18726393916E+02  0.00000000000E+00 0.  1.
         11    1    3    3    0    0  0.18411424593E+02 -0.68499356298E+01  0.15804780473E+02  0.25212958171E+02  0.51100000000E-03 0. -1.
        -11    1    3    3    0    0 -0.23722546547E+02 -0.35648445429E+01 -0.37548844944E+01  0.24280990283E+02  0.51100000000E-03 0.  1.
         12    1    3    3    0    0  0.86128756095E+01 -0.60045478372E+01 -0.20427360965E+02  0.22967657630E+02  0.00000000000E+00 0. -1.
</event>
<event>
 7    1  0.1905073E-013  0.7246149E+02  0.7816164E-02  0.1226708E+00
        -11   -1    0    0    0    0  0.00000000000E+00  0.00000000000E+00  0.45593999997E+02  0.45594000000E+02  0.51100000000E-03 0. -1.
         11   -1    0    0    0    0 -0.00000000000E+00 -0.00000000000E+00 -0.45593999997E+02  0.45594000000E+02  0.51100000000E-03 0.  1.
    9900012    2    1    2    0    0  0.15317270858E+02  0.10229534456E+02 -0.33793280063E+01  0.72461494199E+02  0.69999900872E+02 0.  0.
        -12    1    1    2    0    0 -0.15317270858E+02 -0.10229534456E+02  0.33793280063E+01  0.18726505801E+02  0.00000000000E+00 0.  1.
         11    1    3    3    0    0  0.31962518791E+01  0.83724510109E+01  0.70496792361E+01  0.11402277825E+02  0.51100000000E-03 0. -1.
        -11    1    3    3    0    0  0.13689798759E+02 -0.14947058804E+02 -0.29373105653E+02  0.35687595785E+02  0.51100000000E-03 0.  1.
        -12    1    3    3    0    0 -0.15687797797E+01  0.16804142249E+02  0.18944098411E+02  0.25371620589E+02  0.00000000000E+00 0.  1.
</event>
<event>
 7    1  0.1905073E-013  0.7246156E+02  0.7816164E-02  0.1226708E+00
        -11   -1    0    0    0    0  0.00000000000E+00  0.00000000000E+00  0.45593999997E+02  0.45594000000E+02  0.51100000000E-03 0.  1.
         11   -1    0    0    0    0 -0.00000000000E+00 -0.00000000000E+00 -0.45593999997E+02  0.45594000000E+02  0.51100000000E-03 0. -1.
    9900012    2    1    2    0    0  0.61006132786E+01 -0.15230578683E+02  0.90272668025E+01  0.72461559994E+02  0.69999986582E+02 0.  0.
        -12    1    1    2    0    0 -0.61006132786E+01  0.15230578683E+02 -0.90272668025E+01  0.18726440006E+02  0.00000000000E+00 0.  1.
         11    1    3    3    0    0 -0.11369697445E+02 -0.20733353263E+02  0.27462787284E+02  0.36240124768E+02  0.51100000000E-03 0. -1.
        -11    1    3    3    0    0  0.17611114239E+02 -0.66979585810E+01 -0.12820541551E+02  0.22789916187E+02  0.51100000000E-03 0.  1.
         12    1    3    3    0    0 -0.14080351560E+00  0.12200733162E+02 -0.56149789303E+01  0.13431519039E+02  0.00000000000E+00 0. -1.
</event>
<event>
 8    1  0.1905073E-013  0.7246157E+02  0.7816164E-02  0.1226708E+00
        -11   -1    0    0    0    0  0.00000000000E+00  0.00000000000E+00  0.45593999997E+02  0.45594000000E+02  0.51100000000E-03 0.  1.
         11   -1    0    0    0    0 -0.00000000000E+00 -0.00000000000E+00 -0.45593999997E+02  0.45594000000E+02  0.51100000000E-03 0. -1.
    9900012    2    1    2    0    0  0.67162128677E+01 -0.67757621856E+01 -0.16113987009E+02  0.72461573598E+02  0.70000004303E+02 0.  0.
         24    2    3    3    0    0  0.19347221288E+02 -0.11542373271E+02 -0.19214863529E+02  0.58609556040E+02  0.50579914259E+02 0.  0.
        -12    1    1    2    0    0 -0.67162128677E+01  0.67757621856E+01  0.16113987009E+02  0.18726426402E+02  0.00000000000E+00 0.  1.
         11    1    3    3    0    0 -0.12631008421E+02  0.47666110858E+01  0.31008765207E+01  0.13852017558E+02  0.51100000000E-03 0. -1.
        -11    1    4    4    0    0  0.26549755873E+02  0.10568293160E+02 -0.20906504555E+00  0.28576599967E+02  0.51100000000E-03 0.  1.
         12    1    4    4    0    0 -0.72025345841E+01 -0.22110666431E+02 -0.19005798484E+02  0.30032956073E+02  0.00000000000E+00 0. -1.
</event>
<event>
 7    1  0.1905073E-013  0.7246164E+02  0.7816164E-02  0.1226708E+00
        -11   -1    0    0    0    0  0.00000000000E+00  0.00000000000E+00  0.45593999997E+02  0.45594000000E+02  0.51100000000E-03 0.  1.
         11   -1    0    0    0    0 -0.00000000000E+00 -0.00000000000E+00 -0.45593999997E+02  0.45594000000E+02  0.51100000000E-03 0. -1.
    9900012    2    1    2    0    0 -0.16971916835E+02  0.41941535297E+01 -0.67111725875E+01  0.72461635634E+02  0.70000085117E+02 0.  0.
        -12    1    1    2    0    0  0.16971916835E+02 -0.41941535297E+01  0.67111725875E+01  0.18726364366E+02  0.00000000000E+00 0.  1.
         11    1    3    3    0    0  0.16032623073E+02 -0.11321200777E+01 -0.22307819262E+02  0.27494826767E+02  0.51100000000E-03 0. -1.
        -11    1    3    3    0    0 -0.28012518996E+02  0.94504522793E+01  0.16728517751E+01  0.29610989549E+02  0.51100000000E-03 0.  1.
        -12    1    3    3    0    0 -0.49920209116E+01 -0.41241786719E+01  0.13923794900E+02  0.15355819317E+02  0.00000000000E+00 0.  1.
</event>
<event>
 7    1  0.1905073E-013  0.7246152E+02  0.7816164E-02  0.1226708E+00
        -11   -1    0    0    0    0  0.00000000000E+00  0.00000000000E+00  0.45593999997E+02  0.45594000000E+02  0.51100000000E-03 0. -1.
         11   -1    0    0    0    0 -0.00000000000E+00 -0.00000000000E+00 -0.45593999997E+02  0.45594000000E+02  0.51100000000E-03 0.  1.
    9900012    2    1    2    0    0  0.18204441003E+02  0.37202164451E+01  0.23322590152E+01  0.72461518357E+02  0.69999932341E+02 0.  0.
        -12    1    1    2    0    0 -0.18204441003E+02 -0.37202164451E+01 -0.23322590152E+01  0.18726481643E+02  0.00000000000E+00 0.  1.
         11    1    3    3    0    0  0.83162357679E+01 -0.74868580966E+00  0.20691469449E+02  0.22312714224E+02  0.51100000000E-03 0. -1.
        -11    1    3    3    0    0  0.17199449670E+02 -0.16194016217E+02 -0.14977260543E+02  0.27971155926E+02  0.51100000000E-03 0.  1.
        -12    1    3    3    0    0 -0.73112444353E+01  0.20662918471E+02 -0.33819498912E+01  0.22177648207E+02  0.00000000000E+00 0.  1.
</event>
<event>
 7    1  0.1905073E-013  0.7246160E+02  0.7816164E-02  0.1226708E+00
        -11   -1    0    0    0    0  0.00000000000E+00  0.00000000000E+00  0.45593999997E+02  0.45594000000E+02  0.51100000000E-03 0.  1.
         11   -1    0    0    0    0 -0.00000000000E+00 -0.00000000000E+00 -0.45593999997E+02  0.45594000000E+02  0.51100000000E-03 0. -1.
    9900012    2    1    2    0    0  0.13861961304E+02 -0.38842820728E+00 -0.12584637853E+02  0.72461602654E+02  0.70000042154E+02 0.  0.
        -12    1    1    2    0    0 -0.13861961304E+02  0.38842820728E+00  0.12584637853E+02  0.18726397346E+02  0.00000000000E+00 0.  1.
         11    1    3    3    0    0 -0.21990063042E+01  0.31445156710E+02 -0.85972275867E+00  0.31533674583E+02  0.51100000000E-03 0.  1.
        -11    1    3    3    0    0  0.83794682366E+01 -0.26798594851E+02 -0.14130867964E+02  0.31433447211E+02  0.51100000000E-03 0. -1.
        -12    1    3    3    0    0  0.76814993720E+01 -0.50349900666E+01  0.24059528697E+01  0.94944808591E+01  0.00000000000E+00 0.  1.
</event>
<event>
 7    1  0.1905073E-013  0.7246124E+02  0.7816164E-02  0.1226709E+00
        -11   -1    0    0    0    0  0.00000000000E+00  0.00000000000E+00  0.45593999997E+02  0.45594000000E+02  0.51100000000E-03 0. -1.
         11   -1    0    0    0    0 -0.00000000000E+00 -0.00000000000E+00 -0.45593999997E+02  0.45594000000E+02  0.51100000000E-03 0.  1.
    9900012    2    1    2    0    0 -0.10603438997E+02 -0.34542846706E+01  0.15044148824E+02  0.72461243341E+02  0.69999574081E+02 0.  0.
        -12    1    1    2    0    0  0.10603438997E+02  0.34542846706E+01 -0.15044148824E+02  0.18726756659E+02  0.00000000000E+00 0.  1.
         11    1    3    3    0    0  0.15035600499E+02 -0.26337751338E+02  0.76527948390E+01  0.31277974631E+02  0.51100000000E-03 0.  1.
        -11    1    3    3    0    0 -0.15229802870E+02  0.26817783138E+00  0.55783363479E+01  0.16221487339E+02  0.51100000000E-03 0. -1.
         12    1    3    3    0    0 -0.10409236625E+02  0.22615288836E+02  0.18130176369E+01  0.24961781371E+02  0.00000000000E+00 0. -1.
</event>
<event>
 7    1  0.1905073E-013  0.7246232E+02  0.7816164E-02  0.1226706E+00
        -11   -1    0    0    0    0  0.00000000000E+00  0.00000000000E+00  0.45593999997E+02  0.45594000000E+02  0.51100000000E-03 0.  1.
         11   -1    0    0    0    0 -0.00000000000E+00 -0.00000000000E+00 -0.45593999997E+02  0.45594000000E+02  0.51100000000E-03 0. -1.
    9900012    2    1    2    0    0 -0.11122446393E+02  0.92596735508E+01 -0.11882786931E+02  0.72462322622E+02  0.70000980040E+02 0.  0.
        -12    1    1    2    0    0  0.11122446393E+02 -0.92596735508E+01  0.11882786931E+02  0.18725677378E+02  0.00000000000E+00 0.  1.
         11    1    3    3    0    0  0.18018837263E+02  0.19016780059E+02  0.13348638471E+01  0.26231627511E+02  0.51100000000E-03 0. -1.
        -11    1    3    3    0    0 -0.15293751089E+02 -0.20395102708E+02 -0.22081863145E+01  0.25587792478E+02  0.51100000000E-03 0.  1.
        -12    1    3    3    0    0 -0.13847532567E+02  0.10637996200E+02 -0.11009464463E+02  0.20642902633E+02  0.00000000000E+00 0.  1.
</event>
<event>
 8    1  0.1905073E-013  0.7246157E+02  0.7816164E-02  0.1226708E+00
        -11   -1    0    0    0    0  0.00000000000E+00  0.00000000000E+00  0.45593999997E+02  0.45594000000E+02  0.51100000000E-03 0. -1.
         11   -1    0    0    0    0 -0.00000000000E+00 -0.00000000000E+00 -0.45593999997E+02  0.45594000000E+02  0.51100000000E-03 0.  1.
    9900012    2    1    2    0    0  0.11846636806E+02  0.48018018576E+01  0.13684991827E+02  0.72461571990E+02  0.70000002210E+02 0.  0.
        -24    2    3    3    0    0 -0.96686839612E+00  0.17140682943E+02  0.13035479213E+02  0.54661129049E+02  0.50231239925E+02 0.  0.
        -12    1    1    2    0    0 -0.11846636806E+02 -0.48018018576E+01 -0.13684991827E+02  0.18726428010E+02  0.00000000000E+00 0.  1.
         11    1    4    4    0    0 -0.19426720128E+01  0.31323405040E+02  0.21568518697E+02  0.38080581362E+02  0.51100000000E-03 0. -1.
        -11    1    3    3    0    0  0.12813505202E+02 -0.12338881085E+02  0.64951261454E+00  0.17800442941E+02  0.51100000000E-03 0.  1.
        -12    1    4    4    0    0  0.97580361668E+00 -0.14182722097E+02 -0.85330394841E+01  0.16580547687E+02  0.00000000000E+00 0.  1.
</event>
<event>
 7    1  0.1905073E-013  0.7246156E+02  0.7816164E-02  0.1226708E+00
        -11   -1    0    0    0    0  0.00000000000E+00  0.00000000000E+00  0.45593999997E+02  0.45594000000E+02  0.51100000000E-03 0.  1.
         11   -1    0    0    0    0 -0.00000000000E+00 -0.00000000000E+00 -0.45593999997E+02  0.45594000000E+02  0.51100000000E-03 0. -1.
    9900012    2    1    2    0    0 -0.14435836542E+02  0.88688430189E+01  0.79768183167E+01  0.72461564578E+02  0.69999992554E+02 0.  0.
        -12    1    1    2    0    0  0.14435836542E+02 -0.88688430189E+01 -0.79768183167E+01  0.18726435422E+02  0.00000000000E+00 0.  1.
         11    1    3    3    0    0  0.11956057353E+02  0.54397069670E+01  0.20792103105E+02  0.24593683561E+02  0.51100000000E-03 0. -1.
        -11    1    3    3    0    0  0.28405817059E-01 -0.48466558833E+01 -0.18907992596E+02  0.19519299793E+02  0.51100000000E-03 0.  1.
        -12    1    3    3    0    0 -0.26420299712E+02  0.82757919351E+01  0.60927078078E+01  0.28348581224E+02  0.00000000000E+00 0.  1.
</event>
<event>
 7    1  0.1905073E-013  0.7246163E+02  0.7816164E-02  0.1226708E+00
        -11   -1    0    0    0    0  0.00000000000E+00  0.00000000000E+00  0.45593999997E+02  0.45594000000E+02  0.51100000000E-03 0.  1.
         11   -1    0    0    0    0 -0.00000000000E+00 -0.00000000000E+00 -0.45593999997E+02  0.45594000000E+02  0.51100000000E-03 0. -1.
    9900012    2    1    2    0    0 -0.10295078349E+02 -0.13746519784E+02 -0.74646920995E+01  0.72461626285E+02  0.70000072938E+02 0.  0.
        -12    1    1    2    0    0  0.10295078349E+02  0.13746519784E+02  0.74646920995E+01  0.18726373715E+02  0.00000000000E+00 0.  1.
         11    1    3    3    0    0 -0.12827301169E+00  0.58479710944E+01 -0.60799698033E+01  0.84368983019E+01  0.51100000000E-03 0. -1.
        -11    1    3    3    0    0  0.19281586596E+02 -0.93819102133E+01  0.17415996868E+02  0.27624568197E+02  0.51100000000E-03 0.  1.
        -12    1    3    3    0    0 -0.29448391934E+02 -0.10212580665E+02 -0.18800719164E+02  0.36400159785E+02  0.00000000000E+00 0.  1.
</event>
<event>
 7    1  0.1905073E-013  0.7246161E+02  0.7816164E-02  0.1226708E+00
        -11   -1    0    0    0    0  0.00000000000E+00  0.00000000000E+00  0.45593999997E+02  0.45594000000E+02  0.51100000000E-03 0. -1.
         11   -1    0    0    0    0 -0.00000000000E+00 -0.00000000000E+00 -0.45593999997E+02  0.45594000000E+02  0.51100000000E-03 0.  1.
    9900012    2    1    2    0    0 -0.71223548038E+01  0.55561272768E+01  0.16403634478E+02  0.72461609201E+02  0.70000050683E+02 0.  0.
        -12    1    1    2    0    0  0.71223548038E+01 -0.55561272768E+01 -0.16403634478E+02  0.18726390799E+02  0.00000000000E+00 0.  1.
         11    1    3    3    0    0  0.26690682030E+01 -0.27861816491E+02  0.74973220262E+01  0.28976103621E+02  0.51100000000E-03 0.  1.
        -11    1    3    3    0    0 -0.73162572504E+01  0.15999325440E+01  0.88207971766E+01  0.11571251764E+02  0.51100000000E-03 0. -1.
         12    1    3    3    0    0 -0.24751657564E+01  0.31818011224E+02  0.85515275045E-01  0.31914253816E+02  0.00000000000E+00 0. -1.
</event>
<event>
 7    1  0.1905073E-013  0.7246139E+02  0.7816164E-02  0.1226708E+00
        -11   -1    0    0    0    0  0.00000000000E+00  0.00000000000E+00  0.45593999997E+02  0.45594000000E+02  0.51100000000E-03 0. -1.
         11   -1    0    0    0    0 -0.00000000000E+00 -0.00000000000E+00 -0.45593999997E+02  0.45594000000E+02  0.51100000000E-03 0.  1.
    9900012    2    1    2    0    0 -0.92023374624E+01  0.82170412631E+01  0.14088402925E+02  0.72461391154E+02  0.69999766636E+02 0.  0.
        -12    1    1    2    0    0  0.92023374624E+01 -0.82170412631E+01 -0.14088402925E+02  0.18726608846E+02  0.00000000000E+00 0.  1.
         11    1    3    3    0    0  0.23458554227E+02  0.88120167613E+01  0.86500749806E+01  0.26509983086E+02  0.51100000000E-03 0. -1.
        -11    1    3    3    0    0 -0.15378892643E+02  0.49840716334E+01 -0.12492473731E+02  0.20430692821E+02  0.51100000000E-03 0.  1.
        -12    1    3    3    0    0 -0.17281999046E+02 -0.55790471317E+01  0.17930801676E+02  0.25520715246E+02  0.00000000000E+00 0.  1.
</event>
<event>
 7    1  0.1905073E-013  0.7246159E+02  0.7816164E-02  0.1226708E+00
        -11   -1    0    0    0    0  0.00000000000E+00  0.00000000000E+00  0.45593999997E+02  0.45594000000E+02  0.51100000000E-03 0.  1.
         11   -1    0    0    0    0 -0.00000000000E+00 -0.00000000000E+00 -0.45593999997E+02  0.45594000000E+02  0.51100000000E-03 0. -1.
    9900012    2    1    2    0    0 -0.96653888528E+01 -0.93835781427E+00 -0.16011819066E+02  0.72461585318E+02  0.70000019571E+02 0.  0.
        -12    1    1    2    0    0  0.96653888528E+01  0.93835781427E+00  0.16011819066E+02  0.18726414682E+02  0.00000000000E+00 0.  1.
         11    1    3    3    0    0 -0.22851490371E+02  0.27220912632E+01 -0.23693160128E+02  0.33029777931E+02  0.51100000000E-03 0. -1.
        -11    1    3    3    0    0 -0.75681672884E+01 -0.12385564093E+02  0.86508374807E+01  0.16897228867E+02  0.51100000000E-03 0.  1.
         12    1    3    3    0    0  0.20754268807E+02  0.87251150159E+01 -0.96949641797E+00  0.22534578519E+02  0.00000000000E+00 0. -1.
</event>
<event>
 7    1  0.1905073E-013  0.7246094E+02  0.7816164E-02  0.1226710E+00
        -11   -1    0    0    0    0  0.00000000000E+00  0.00000000000E+00  0.45593999997E+02  0.45594000000E+02  0.51100000000E-03 0.  1.
         11   -1    0    0    0    0 -0.00000000000E+00 -0.00000000000E+00 -0.45593999997E+02  0.45594000000E+02  0.51100000000E-03 0. -1.
    9900012    2    1    2    0    0 -0.75039739834E+01 -0.14782724245E+02 -0.87100000148E+01  0.72460943053E+02  0.69999182897E+02 0.  0.
        -12    1    1    2    0    0  0.75039739834E+01  0.14782724245E+02  0.87100000148E+01  0.18727056947E+02  0.00000000000E+00 0.  1.
         11    1    3    3    0    0  0.67263757660E+01  0.65516159134E+01 -0.52145057444E+01  0.10740524775E+02  0.51100000000E-03 0. -1.
        -11    1    3    3    0    0 -0.25819207003E+02 -0.11738596812E+02 -0.23399802621E+02  0.36769238071E+02  0.51100000000E-03 0.  1.
        -12    1    3    3    0    0  0.11588857253E+02 -0.95957433455E+01  0.19904308351E+02  0.24951180207E+02  0.00000000000E+00 0.  1.
</event>
<event>
 7    1  0.1905073E-013  0.7246163E+02  0.7816164E-02  0.1226708E+00
        -11   -1    0    0    0    0  0.00000000000E+00  0.00000000000E+00  0.45593999997E+02  0.45594000000E+02  0.51100000000E-03 0.  1.
         11   -1    0    0    0    0 -0.00000000000E+00 -0.00000000000E+00 -0.45593999997E+02  0.45594000000E+02  0.51100000000E-03 0. -1.
    9900012    2    1    2    0    0 -0.45062158765E+00 -0.13544218129E+02 -0.12923935785E+02  0.72461627668E+02  0.70000074740E+02 0.  0.
        -12    1    1    2    0    0  0.45062158765E+00  0.13544218129E+02  0.12923935785E+02  0.18726372332E+02  0.00000000000E+00 0.  1.
         11    1    3    3    0    0 -0.32168874738E+01 -0.15800778447E+02  0.23494698156E+02  0.28495855949E+02  0.51100000000E-03 0.  1.
        -11    1    3    3    0    0 -0.53098738547E+01 -0.83607966886E+01 -0.23012636676E+02  0.25053525274E+02  0.51100000000E-03 0. -1.
        -12    1    3    3    0    0  0.80761397408E+01  0.10617357007E+02 -0.13405997265E+02  0.18912246445E+02  0.00000000000E+00 0.  1.
</event>
<event>
 7    1  0.1905073E-013  0.7246155E+02  0.7816164E-02  0.1226708E+00
        -11   -1    0    0    0    0  0.00000000000E+00  0.00000000000E+00  0.45593999997E+02  0.45594000000E+02  0.51100000000E-03 0. -1.
         11   -1    0    0    0    0 -0.00000000000E+00 -0.00000000000E+00 -0.45593999997E+02  0.45594000000E+02  0.51100000000E-03 0.  1.
    9900012    2    1    2    0    0  0.60820585078E+01  0.15678241553E+02 -0.82390139778E+01  0.72461546913E+02  0.69999969541E+02 0.  0.
        -12    1    1    2    0    0 -0.60820585078E+01 -0.15678241553E+02  0.82390139778E+01  0.18726453087E+02  0.00000000000E+00 0.  1.
         11    1    3    3    0    0  0.40345027828E+01  0.12264186830E+02  0.10472709273E+02  0.16624233248E+02  0.51100000000E-03 0. -1.
        -11    1    3    3    0    0 -0.24895746206E+02  0.57695482395E+01 -0.95493696780E+01  0.27281428253E+02  0.51100000000E-03 0.  1.
        -12    1    3    3    0    0  0.26943301931E+02 -0.23554935162E+01 -0.91623535728E+01  0.28555885411E+02  0.00000000000E+00 0.  1.
</event>
<event>
 7    1  0.1905073E-013  0.7246155E+02  0.7816164E-02  0.1226708E+00
        -11   -1    0    0    0    0  0.00000000000E+00  0.00000000000E+00  0.45593999997E+02  0.45594000000E+02  0.51100000000E-03 0.  1.
         11   -1    0    0    0    0 -0.00000000000E+00 -0.00000000000E+00 -0.45593999997E+02  0.45594000000E+02  0.51100000000E-03 0. -1.
    9900012    2    1    2    0    0  0.86053201429E+01 -0.16269190767E+02 -0.34556960224E+01  0.72461549776E+02  0.69999973272E+02 0.  0.
        -12    1    1    2    0    0 -0.86053201429E+01  0.16269190767E+02  0.34556960224E+01  0.18726450224E+02  0.00000000000E+00 0.  1.
         11    1    3    3    0    0 -0.13463215712E+02  0.87350953045E+01  0.18450908338E+02  0.24453958494E+02  0.51100000000E-03 0. -1.
        -11    1    3    3    0    0  0.15233747477E+02 -0.12187719414E+02 -0.26379084886E+02  0.32809506037E+02  0.51100000000E-03 0.  1.
        -12    1    3    3    0    0  0.68347883781E+01 -0.12816566658E+02  0.44724805260E+01  0.15198085245E+02  0.00000000000E+00 0.  1.
</event>
<event>
 7    1  0.1905073E-013  0.7246167E+02  0.7816164E-02  0.1226708E+00
        -11   -1    0    0    0    0  0.00000000000E+00  0.00000000000E+00  0.45593999997E+02  0.45594000000E+02  0.51100000000E-03 0. -1.
         11   -1    0    0    0    0 -0.00000000000E+00 -0.00000000000E+00 -0.45593999997E+02  0.45594000000E+02  0.51100000000E-03 0.  1.
    9900012    2    1    2    0    0 -0.18533448900E+02  0.16079674168E+01 -0.21450267839E+01  0.72461670214E+02  0.70000130164E+02 0.  0.
        -12    1    1    2    0    0  0.18533448900E+02 -0.16079674168E+01  0.21450267839E+01  0.18726329786E+02  0.00000000000E+00 0.  1.
         11    1    3    3    0    0 -0.18811562395E+02 -0.19274310031E+02  0.16764670314E+02  0.31724250628E+02  0.51100000000E-03 0. -1.
        -11    1    3    3    0    0  0.48096620557E+01  0.78090887361E+01 -0.24234494759E+02  0.25911878598E+02  0.51100000000E-03 0.  1.
        -12    1    3    3    0    0 -0.45315485615E+01  0.13073188712E+02  0.53247976618E+01  0.14825540988E+02  0.00000000000E+00 0.  1.
</event>
<event>
 7    1  0.1905073E-013  0.7246199E+02  0.7816164E-02  0.1226707E+00
        -11   -1    0    0    0    0  0.00000000000E+00  0.00000000000E+00  0.45593999997E+02  0.45594000000E+02  0.51100000000E-03 0.  1.
         11   -1    0    0    0    0 -0.00000000000E+00 -0.00000000000E+00 -0.45593999997E+02  0.45594000000E+02  0.51100000000E-03 0. -1.
    9900012    2    1    2    0    0 -0.52708888778E+01 -0.51415676590E+01 -0.17217587066E+02  0.72461994235E+02  0.70000552259E+02 0.  0.
        -12    1    1    2    0    0  0.52708888778E+01  0.51415676590E+01  0.17217587066E+02  0.18726005765E+02  0.00000000000E+00 0.  1.
         11    1    3    3    0    0 -0.20422528632E+02  0.17216146286E+02 -0.25796060455E+02  0.37133705766E+02  0.51100000000E-03 0. -1.
        -11    1    3    3    0    0  0.16563996028E+02 -0.56870865302E+01  0.36799360541E+01  0.17895553840E+02  0.51100000000E-03 0.  1.
         12    1    3    3    0    0 -0.14123562731E+01 -0.16670627414E+02  0.48985373349E+01  0.17432734629E+02  0.00000000000E+00 0. -1.
</event>
<event>
 7    1  0.1905073E-013  0.7246157E+02  0.7816164E-02  0.1226708E+00
        -11   -1    0    0    0    0  0.00000000000E+00  0.00000000000E+00  0.45593999997E+02  0.45594000000E+02  0.51100000000E-03 0.  1.
         11   -1    0    0    0    0 -0.00000000000E+00 -0.00000000000E+00 -0.45593999997E+02  0.45594000000E+02  0.51100000000E-03 0. -1.
    9900012    2    1    2    0    0  0.25955004790E+01 -0.18522068467E+02  0.93572397169E+00  0.72461568883E+02  0.69999998162E+02 0.  0.
        -12    1    1    2    0    0 -0.25955004790E+01  0.18522068467E+02 -0.93572397169E+00  0.18726431117E+02  0.00000000000E+00 0.  1.
         11    1    3    3    0    0  0.34763835970E+00 -0.13251104000E+02 -0.12425370748E+02  0.18168721698E+02  0.51100000000E-03 0. -1.
        -11    1    3    3    0    0 -0.53515685008E+01 -0.22327664936E+02  0.23659095591E+02  0.32968419910E+02  0.51100000000E-03 0.  1.
        -12    1    3    3    0    0  0.75994306201E+01  0.17056700469E+02 -0.10298000871E+02  0.21324427275E+02  0.00000000000E+00 0.  1.
</event>
<event>
 7    1  0.1905073E-013  0.7246155E+02  0.7816164E-02  0.1226708E+00
        -11   -1    0    0    0    0  0.00000000000E+00  0.00000000000E+00  0.45593999997E+02  0.45594000000E+02  0.51100000000E-03 0. -1.
         11   -1    0    0    0    0 -0.00000000000E+00 -0.00000000000E+00 -0.45593999997E+02  0.45594000000E+02  0.51100000000E-03 0.  1.
    9900012    2    1    2    0    0  0.16590557506E+02  0.52715031477E+01  0.69025121917E+01  0.72461547630E+02  0.69999970476E+02 0.  0.
        -12    1    1    2    0    0 -0.16590557506E+02 -0.52715031477E+01 -0.69025121917E+01  0.18726452370E+02  0.00000000000E+00 0.  1.
         11    1    3    3    0    0  0.15209213137E+02 -0.17920005759E+02  0.50086988042E+01  0.24031933643E+02  0.51100000000E-03 0. -1.
        -11    1    3    3    0    0  0.79798267524E+01  0.19556413767E+02 -0.17623693483E+02  0.27508644581E+02  0.51100000000E-03 0.  1.
        -12    1    3    3    0    0 -0.65984823832E+01  0.36350951397E+01  0.19517506870E+02  0.20920969406E+02  0.00000000000E+00 0.  1.
</event>
<event>
 7    1  0.1905073E-013  0.7246152E+02  0.7816164E-02  0.1226708E+00
        -11   -1    0    0    0    0  0.00000000000E+00  0.00000000000E+00  0.45593999997E+02  0.45594000000E+02  0.51100000000E-03 0. -1.
         11   -1    0    0    0    0 -0.00000000000E+00 -0.00000000000E+00 -0.45593999997E+02  0.45594000000E+02  0.51100000000E-03 0.  1.
    9900012    2    1    2    0    0  0.39958634615E+01 -0.16128145524E+01  0.18223967953E+02  0.72461518656E+02  0.69999932731E+02 0.  0.
        -12    1    1    2    0    0 -0.39958634615E+01  0.16128145524E+01 -0.18223967953E+02  0.18726481344E+02  0.00000000000E+00 0.  1.
         11    1    3    3    0    0 -0.21210975821E+02  0.26448842981E+01  0.18975337217E+02  0.28582587898E+02  0.51100000000E-03 0. -1.
        -11    1    3    3    0    0  0.24007718973E+02  0.56360843026E+01  0.12219149705E+02  0.27521693921E+02  0.51100000000E-03 0.  1.
        -12    1    3    3    0    0  0.11991203095E+01 -0.98937831531E+01 -0.12970518968E+02  0.16357236836E+02  0.00000000000E+00 0.  1.
</event>
<event>
 7    1  0.1905073E-013  0.7246161E+02  0.7816164E-02  0.1226708E+00
        -11   -1    0    0    0    0  0.00000000000E+00  0.00000000000E+00  0.45593999997E+02  0.45594000000E+02  0.51100000000E-03 0.  1.
         11   -1    0    0    0    0 -0.00000000000E+00 -0.00000000000E+00 -0.45593999997E+02  0.45594000000E+02  0.51100000000E-03 0. -1.
    9900012    2    1    2    0    0 -0.89214908792E+01 -0.79793123790E+01 -0.14401922950E+02  0.72461606588E+02  0.70000047280E+02 0.  0.
        -12    1    1    2    0    0  0.89214908792E+01  0.79793123790E+01  0.14401922950E+02  0.18726393412E+02  0.00000000000E+00 0.  1.
         11    1    3    3    0    0  0.80605310848E+01  0.18509529611E+02 -0.62812352397E+00  0.20198252083E+02  0.51100000000E-03 0. -1.
        -11    1    3    3    0    0 -0.17961863958E+02 -0.32772658593E+02 -0.31037115043E+00  0.37373413526E+02  0.51100000000E-03 0.  1.
         12    1    3    3    0    0  0.97984199414E+00  0.62838166029E+01 -0.13463428276E+02  0.14889940979E+02  0.00000000000E+00 0. -1.
</event>
<event>
 7    1  0.1905073E-013  0.7246159E+02  0.7816164E-02  0.1226708E+00
        -11   -1    0    0    0    0  0.00000000000E+00  0.00000000000E+00  0.45593999997E+02  0.45594000000E+02  0.51100000000E-03 0.  1.
         11   -1    0    0    0    0 -0.00000000000E+00 -0.00000000000E+00 -0.45593999997E+02  0.45594000000E+02  0.51100000000E-03 0. -1.
    9900012    2    1    2    0    0  0.99642876335E+01 -0.87931459777E+01 -0.13193640537E+02  0.72461585639E+02  0.70000019989E+02 0.  0.
        -12    1    1    2    0    0 -0.99642876335E+01  0.87931459777E+01  0.13193640537E+02  0.18726414361E+02  0.00000000000E+00 0.  1.
         11    1    3    3    0    0  0.29947266621E+02 -0.21184968761E+02 -0.63295514976E+00  0.36688449299E+02  0.51100000000E-03 0. -1.
        -11    1    3    3    0    0 -0.51743518410E+01  0.16303132971E+02 -0.11092430914E+02  0.20386468196E+02  0.51100000000E-03 0.  1.
        -12    1    3    3    0    0 -0.14808627147E+02 -0.39113101884E+01 -0.14682544728E+01  0.15386668144E+02  0.00000000000E+00 0.  1.
</event>
<event>
 7    1  0.1905073E-013  0.7246181E+02  0.7816164E-02  0.1226707E+00
        -11   -1    0    0    0    0  0.00000000000E+00  0.00000000000E+00  0.45593999997E+02  0.45594000000E+02  0.51100000000E-03 0. -1.
         11   -1    0    0    0    0 -0.00000000000E+00 -0.00000000000E+00 -0.45593999997E+02  0.45594000000E+02  0.51100000000E-03 0.  1.
    9900012    2    1    2    0    0 -0.11610305407E+02  0.13687411742E+02 -0.53409431987E+01  0.72461812291E+02  0.70000315245E+02 0.  0.
        -12    1    1    2    0    0  0.11610305407E+02 -0.13687411742E+02  0.53409431987E+01  0.18726187709E+02  0.00000000000E+00 0.  1.
         11    1    3    3    0    0 -0.52109029430E+01 -0.17662657328E+02  0.34963649283E+01  0.18744266892E+02  0.51100000000E-03 0.  1.
        -11    1    3    3    0    0  0.13538435937E+02  0.11749350206E+02 -0.16882272409E+02  0.24624126378E+02  0.51100000000E-03 0. -1.
         12    1    3    3    0    0 -0.19937838401E+02  0.19600718864E+02  0.80449642822E+01  0.29093419022E+02  0.00000000000E+00 0. -1.
</event>
<event>
 7    1  0.1905073E-013  0.7246164E+02  0.7816164E-02  0.1226708E+00
        -11   -1    0    0    0    0  0.00000000000E+00  0.00000000000E+00  0.45593999997E+02  0.45594000000E+02  0.51100000000E-03 0.  1.
         11   -1    0    0    0    0 -0.00000000000E+00 -0.00000000000E+00 -0.45593999997E+02  0.45594000000E+02  0.51100000000E-03 0. -1.
    9900012    2    1    2    0    0 -0.64256805367E+01 -0.16367927057E+02  0.64403598061E+01  0.72461637808E+02  0.70000087949E+02 0.  0.
        -12    1    1    2    0    0  0.64256805367E+01  0.16367927057E+02 -0.64403598061E+01  0.18726362192E+02  0.00000000000E+00 0.  1.
         11    1    3    3    0    0  0.16717940502E+02  0.68180279089E+01  0.18961587806E+01  0.18154075509E+02  0.51100000000E-03 0. -1.
        -11    1    3    3    0    0  0.59883587239E+01 -0.24208913177E+02  0.12151885527E+01  0.24968151732E+02  0.51100000000E-03 0.  1.
         12    1    3    3    0    0 -0.29131979763E+02  0.10229582113E+01  0.33290124728E+01  0.29339410567E+02  0.00000000000E+00 0. -1.
</event>
<event>
 7    1  0.1905073E-013  0.7246154E+02  0.7816164E-02  0.1226708E+00
        -11   -1    0    0    0    0  0.00000000000E+00  0.00000000000E+00  0.45593999997E+02  0.45594000000E+02  0.51100000000E-03 0.  1.
         11   -1    0    0    0    0 -0.00000000000E+00 -0.00000000000E+00 -0.45593999997E+02  0.45594000000E+02  0.51100000000E-03 0. -1.
    9900012    2    1    2    0    0  0.14591281329E+02 -0.92516837880E+01 -0.72236502511E+01  0.72461541000E+02  0.69999961839E+02 0.  0.
        -12    1    1    2    0    0 -0.14591281329E+02  0.92516837880E+01  0.72236502511E+01  0.18726459000E+02  0.00000000000E+00 0.  1.
         11    1    3    3    0    0  0.16072166423E+02 -0.20992245066E+02  0.70628979332E+00  0.26447830383E+02  0.51100000000E-03 0. -1.
        -11    1    3    3    0    0  0.10990660888E+02  0.21817424357E+02 -0.14807955744E+02  0.28566942187E+02  0.51100000000E-03 0.  1.
         12    1    3    3    0    0 -0.12471545982E+02 -0.10076863079E+02  0.68780157000E+01  0.17446768430E+02  0.00000000000E+00 0. -1.
</event>
<event>
 7    1  0.1905073E-013  0.7246160E+02  0.7816164E-02  0.1226708E+00
        -11   -1    0    0    0    0  0.00000000000E+00  0.00000000000E+00  0.45593999997E+02  0.45594000000E+02  0.51100000000E-03 0. -1.
         11   -1    0    0    0    0 -0.00000000000E+00 -0.00000000000E+00 -0.45593999997E+02  0.45594000000E+02  0.51100000000E-03 0.  1.
    9900012    2    1    2    0    0  0.25577170860E+01 -0.35006047689E+01  0.18217628337E+02  0.72461597979E+02  0.70000036064E+02 0.  0.
        -12    1    1    2    0    0 -0.25577170860E+01  0.35006047689E+01 -0.18217628337E+02  0.18726402021E+02  0.00000000000E+00 0.  1.
         11    1    3    3    0    0 -0.80831530542E+01  0.13612986996E+02 -0.95360526838E+01  0.18482074540E+02  0.51100000000E-03 0. -1.
        -11    1    3    3    0    0  0.49352705380E+01 -0.26001664519E+02  0.24728981049E+01  0.26581171500E+02  0.51100000000E-03 0.  1.
         12    1    3    3    0    0  0.57055996023E+01  0.88880727537E+01  0.25280782916E+02  0.27398351938E+02  0.00000000000E+00 0. -1.
</event>
<event>
 7    1  0.1905073E-013  0.7246161E+02  0.7816164E-02  0.1226708E+00
        -11   -1    0    0    0    0  0.00000000000E+00  0.00000000000E+00  0.45593999997E+02  0.45594000000E+02  0.51100000000E-03 0. -1.
         11   -1    0    0    0    0 -0.00000000000E+00 -0.00000000000E+00 -0.45593999997E+02  0.45594000000E+02  0.51100000000E-03 0.  1.
    9900012    2    1    2    0    0  0.76569867143E+01  0.16763979176E+02 -0.33192290016E+01  0.72461608876E+02  0.70000050260E+02 0.  0.
        -12    1    1    2    0    0 -0.76569867143E+01 -0.16763979176E+02  0.33192290016E+01  0.18726391124E+02  0.00000000000E+00 0.  1.
         11    1    3    3    0    0  0.86575693830E+00  0.23545340776E+01  0.44923111974E+01  0.51453110649E+01  0.51100000000E-03 0. -1.
        -11    1    3    3    0    0  0.20069830628E+02 -0.24260723909E+01 -0.30183611178E+02  0.36328147663E+02  0.51100000000E-03 0.  1.
        -12    1    3    3    0    0 -0.13278600852E+02  0.16835517489E+02  0.22372070979E+02  0.30988150148E+02  0.00000000000E+00 0.  1.
</event>
<event>
 7    1  0.1905073E-013  0.7246152E+02  0.7816164E-02  0.1226708E+00
        -11   -1    0    0    0    0  0.00000000000E+00  0.00000000000E+00  0.45593999997E+02  0.45594000000E+02  0.51100000000E-03 0. -1.
         11   -1    0    0    0    0 -0.00000000000E+00 -0.00000000000E+00 -0.45593999997E+02  0.45594000000E+02  0.51100000000E-03 0.  1.
    9900012    2    1    2    0    0  0.80033126643E+01 -0.49825355657E+01 -0.16180303148E+02  0.72461524512E+02  0.69999940360E+02 0.  0.
        -12    1    1    2    0    0 -0.80033126643E+01  0.49825355657E+01  0.16180303148E+02  0.18726475488E+02  0.00000000000E+00 0.  1.
         11    1    3    3    0    0  0.50345957651E+01 -0.46125929062E+01  0.81348582938E+01  0.10620691482E+02  0.51100000000E-03 0. -1.
        -11    1    3    3    0    0 -0.22416535238E+02 -0.15083768799E+02 -0.15753037266E+02  0.31275858367E+02  0.51100000000E-03 0.  1.
        -12    1    3    3    0    0  0.25385252137E+02  0.14713826139E+02 -0.85621241759E+01  0.30564974663E+02  0.00000000000E+00 0.  1.
</event>
<event>
 7    1  0.1905073E-013  0.7246158E+02  0.7816164E-02  0.1226708E+00
        -11   -1    0    0    0    0  0.00000000000E+00  0.00000000000E+00  0.45593999997E+02  0.45594000000E+02  0.51100000000E-03 0. -1.
         11   -1    0    0    0    0 -0.00000000000E+00 -0.00000000000E+00 -0.45593999997E+02  0.45594000000E+02  0.51100000000E-03 0.  1.
    9900012    2    1    2    0    0  0.15296166025E+02 -0.80224591525E+01 -0.72350701087E+01  0.72461580551E+02  0.70000013361E+02 0.  0.
        -12    1    1    2    0    0 -0.15296166025E+02  0.80224591525E+01  0.72350701087E+01  0.18726419449E+02  0.00000000000E+00 0.  1.
         11    1    3    3    0    0 -0.10493594975E+02 -0.57628212312E+01  0.19792900732E+02  0.23131894944E+02  0.51100000000E-03 0. -1.
        -11    1    3    3    0    0  0.12290464596E+02 -0.47430248550E+01 -0.32098873046E+02  0.34697110194E+02  0.51100000000E-03 0.  1.
        -12    1    3    3    0    0  0.13499296403E+02  0.24833869337E+01  0.50709022047E+01  0.14632575413E+02  0.00000000000E+00 0.  1.
</event>
<event>
 7    1  0.1905073E-013  0.7246161E+02  0.7816164E-02  0.1226708E+00
        -11   -1    0    0    0    0  0.00000000000E+00  0.00000000000E+00  0.45593999997E+02  0.45594000000E+02  0.51100000000E-03 0.  1.
         11   -1    0    0    0    0 -0.00000000000E+00 -0.00000000000E+00 -0.45593999997E+02  0.45594000000E+02  0.51100000000E-03 0. -1.
    9900012    2    1    2    0    0 -0.57281174119E+01  0.44437999776E+01 -0.17266121384E+02  0.72461611268E+02  0.70000053375E+02 0.  0.
        -12    1    1    2    0    0  0.57281174119E+01 -0.44437999776E+01  0.17266121384E+02  0.18726388732E+02  0.00000000000E+00 0.  1.
         11    1    3    3    0    0  0.35934004503E+01  0.21042379600E+02  0.97851982796E+00  0.21369411956E+02  0.51100000000E-03 0. -1.
        -11    1    3    3    0    0 -0.75310305911E+01 -0.31484460044E+02 -0.15327514308E+02  0.35817877396E+02  0.51100000000E-03 0.  1.
         12    1    3    3    0    0 -0.17904872711E+01  0.14885880422E+02 -0.29171269037E+01  0.15274321916E+02  0.00000000000E+00 0. -1.
</event>
<event>
 7    1  0.1905073E-013  0.7246150E+02  0.7816164E-02  0.1226708E+00
        -11   -1    0    0    0    0  0.00000000000E+00  0.00000000000E+00  0.45593999997E+02  0.45594000000E+02  0.51100000000E-03 0. -1.
         11   -1    0    0    0    0 -0.00000000000E+00 -0.00000000000E+00 -0.45593999997E+02  0.45594000000E+02  0.51100000000E-03 0.  1.
    9900012    2    1    2    0    0  0.98470857395E+01 -0.12741618340E+02  0.95586634279E+01  0.72461495200E+02  0.69999902176E+02 0.  0.
        -12    1    1    2    0    0 -0.98470857395E+01  0.12741618340E+02 -0.95586634279E+01  0.18726504800E+02  0.00000000000E+00 0.  1.
         11    1    3    3    0    0  0.20799277106E+01 -0.11362039405E+02 -0.25559351559E+02  0.28048217254E+02  0.51100000000E-03 0.  1.
        -11    1    3    3    0    0  0.15432747701E+02 -0.73053841988E+01  0.26021940952E+02  0.31123620468E+02  0.51100000000E-03 0. -1.
         12    1    3    3    0    0 -0.76655896718E+01  0.59258052640E+01  0.90960740347E+01  0.13289657478E+02  0.00000000000E+00 0. -1.
</event>
<event>
 7    1  0.1905073E-013  0.7246156E+02  0.7816164E-02  0.1226708E+00
        -11   -1    0    0    0    0  0.00000000000E+00  0.00000000000E+00  0.45593999997E+02  0.45594000000E+02  0.51100000000E-03 0.  1.
         11   -1    0    0    0    0 -0.00000000000E+00 -0.00000000000E+00 -0.45593999997E+02  0.45594000000E+02  0.51100000000E-03 0. -1.
    9900012    2    1    2    0    0 -0.65270979775E+01 -0.59610829256E+01 -0.16508845062E+02  0.72461561926E+02  0.69999989098E+02 0.  0.
        -12    1    1    2    0    0  0.65270979775E+01  0.59610829256E+01  0.16508845062E+02  0.18726438074E+02  0.00000000000E+00 0.  1.
         11    1    3    3    0    0 -0.37643328550E+01  0.49012169329E+01 -0.23116239180E+02  0.23928072287E+02  0.51100000000E-03 0. -1.
        -11    1    3    3    0    0  0.87755780630E+01  0.94608631011E+01  0.18307379420E+02  0.22398188374E+02  0.51100000000E-03 0.  1.
        -12    1    3    3    0    0 -0.11538343186E+02 -0.20323162960E+02 -0.11699985302E+02  0.26135301265E+02  0.00000000000E+00 0.  1.
</event>
<event>
 7    1  0.1905073E-013  0.7246158E+02  0.7816164E-02  0.1226708E+00
        -11   -1    0    0    0    0  0.00000000000E+00  0.00000000000E+00  0.45593999997E+02  0.45594000000E+02  0.51100000000E-03 0.  1.
         11   -1    0    0    0    0 -0.00000000000E+00 -0.00000000000E+00 -0.45593999997E+02  0.45594000000E+02  0.51100000000E-03 0. -1.
    9900012    2    1    2    0    0  0.69579075555E+01  0.93380362163E+01 -0.14665179502E+02  0.72461577818E+02  0.70000009801E+02 0.  0.
        -12    1    1    2    0    0 -0.69579075555E+01 -0.93380362163E+01  0.14665179502E+02  0.18726422182E+02  0.00000000000E+00 0.  1.
         11    1    3    3    0    0 -0.95110008570E+01  0.28885021220E+02  0.23410854505E+01  0.30500561790E+02  0.51100000000E-03 0. -1.
        -11    1    3    3    0    0  0.62284385006E+01 -0.22302376145E+02 -0.15381913945E+01  0.23206797730E+02  0.51100000000E-03 0.  1.
         12    1    3    3    0    0  0.10240469912E+02  0.27553911415E+01 -0.15468073558E+02  0.18754218298E+02  0.00000000000E+00 0. -1.
</event>
<event>
 7    1  0.1905073E-013  0.7246146E+02  0.7816164E-02  0.1226708E+00
        -11   -1    0    0    0    0  0.00000000000E+00  0.00000000000E+00  0.45593999997E+02  0.45594000000E+02  0.51100000000E-03 0.  1.
         11   -1    0    0    0    0 -0.00000000000E+00 -0.00000000000E+00 -0.45593999997E+02  0.45594000000E+02  0.51100000000E-03 0. -1.
    9900012    2    1    2    0    0 -0.44637622860E+01  0.11374047538E+02 -0.14191164724E+02  0.72461460347E+02  0.69999856773E+02 0.  0.
        -12    1    1    2    0    0  0.44637622860E+01 -0.11374047538E+02  0.14191164724E+02  0.18726539653E+02  0.00000000000E+00 0.  1.
         11    1    3    3    0    0  0.78264261693E+01  0.38295777822E+02 -0.12298302129E+02  0.40976429579E+02  0.51100000000E-03 0. -1.
        -11    1    3    3    0    0 -0.14186967473E+01 -0.72998222835E+01  0.37865298353E+01  0.83449334500E+01  0.51100000000E-03 0.  1.
         12    1    3    3    0    0 -0.10871491708E+02 -0.19621908000E+02 -0.56793924301E+01  0.23140097318E+02  0.00000000000E+00 0. -1.
</event>
<event>
 7    1  0.1905073E-013  0.7246160E+02  0.7816164E-02  0.1226708E+00
        -11   -1    0    0    0    0  0.00000000000E+00  0.00000000000E+00  0.45593999997E+02  0.45594000000E+02  0.51100000000E-03 0.  1.
         11   -1    0    0    0    0 -0.00000000000E+00 -0.00000000000E+00 -0.45593999997E+02  0.45594000000E+02  0.51100000000E-03 0. -1.
    9900012    2    1    2    0    0  0.20556556222E+01 -0.10302897707E+01 -0.18584698053E+02  0.72461595679E+02  0.70000033069E+02 0.  0.
        -12    1    1    2    0    0 -0.20556556222E+01  0.10302897707E+01  0.18584698053E+02  0.18726404321E+02  0.00000000000E+00 0.  1.
         11    1    3    3    0    0 -0.96798296386E+01  0.34449892809E+01 -0.11342610193E+02  0.15304308519E+02  0.51100000000E-03 0. -1.
        -11    1    3    3    0    0  0.21455700395E+02 -0.24078620824E+02  0.41015290812E+01  0.32510761316E+02  0.51100000000E-03 0.  1.
        -12    1    3    3    0    0 -0.97202151347E+01  0.19603341773E+02 -0.11343616941E+02  0.24646525845E+02  0.00000000000E+00 0.  1.
</event>
<event>
 7    1  0.1905073E-013  0.7246170E+02  0.7816164E-02  0.1226708E+00
        -11   -1    0    0    0    0  0.00000000000E+00  0.00000000000E+00  0.45593999997E+02  0.45594000000E+02  0.51100000000E-03 0. -1.
         11   -1    0    0    0    0 -0.00000000000E+00 -0.00000000000E+00 -0.45593999997E+02  0.45594000000E+02  0.51100000000E-03 0.  1.
    9900012    2    1    2    0    0  0.27527905686E+01  0.18184744721E+02  0.35229889009E+01  0.72461701720E+02  0.70000171206E+02 0.  0.
        -12    1    1    2    0    0 -0.27527905686E+01 -0.18184744721E+02 -0.35229889009E+01  0.18726298280E+02  0.00000000000E+00 0.  1.
         11    1    3    3    0    0  0.43850788460E+01  0.52130373586E+01  0.26053090671E+02  0.26928947413E+02  0.51100000000E-03 0. -1.
        -11    1    3    3    0    0  0.13798089154E+02 -0.29537673628E+01 -0.18048297974E+02  0.22909671887E+02  0.51100000000E-03 0.  1.
        -12    1    3    3    0    0 -0.15430377432E+02  0.15925474725E+02 -0.44818037967E+01  0.22623082420E+02  0.00000000000E+00 0.  1.
</event>
<event>
 7    1  0.1905073E-013  0.7246157E+02  0.7816164E-02  0.1226708E+00
        -11   -1    0    0    0    0  0.00000000000E+00  0.00000000000E+00  0.45593999997E+02  0.45594000000E+02  0.51100000000E-03 0. -1.
         11   -1    0    0    0    0 -0.00000000000E+00 -0.00000000000E+00 -0.45593999997E+02  0.45594000000E+02  0.51100000000E-03 0.  1.
    9900012    2    1    2    0    0 -0.22937700209E+01  0.20513534164E+01  0.18471860514E+02  0.72461573149E+02  0.70000003719E+02 0.  0.
        -12    1    1    2    0    0  0.22937700209E+01 -0.20513534164E+01 -0.18471860514E+02  0.18726426851E+02  0.00000000000E+00 0.  1.
         11    1    3    3    0    0 -0.11806517857E+01 -0.31797932233E+01  0.13660246025E+02  0.14075061112E+02  0.51100000000E-03 0. -1.
        -11    1    3    3    0    0  0.19974621448E+02  0.38719704650E+01 -0.18089850886E+02  0.27225362489E+02  0.51100000000E-03 0.  1.
        -12    1    3    3    0    0 -0.21087739684E+02  0.13591761747E+01  0.22901465375E+02  0.31161149548E+02  0.00000000000E+00 0.  1.
</event>
<event>
 7    1  0.1905073E-013  0.7246157E+02  0.7816164E-02  0.1226708E+00
        -11   -1    0    0    0    0  0.00000000000E+00  0.00000000000E+00  0.45593999997E+02  0.45594000000E+02  0.51100000000E-03 0. -1.
         11   -1    0    0    0    0 -0.00000000000E+00 -0.00000000000E+00 -0.45593999997E+02  0.45594000000E+02  0.51100000000E-03 0.  1.
    9900012    2    1    2    0    0  0.14002503600E+02 -0.79879245699E+01  0.95290131610E+01  0.72461571141E+02  0.70000001103E+02 0.  0.
        -12    1    1    2    0    0 -0.14002503600E+02  0.79879245699E+01 -0.95290131610E+01  0.18726428859E+02  0.00000000000E+00 0.  1.
         11    1    3    3    0    0 -0.80277962011E+01 -0.70630183974E+01 -0.11804907714E+02  0.15927573171E+02  0.51100000000E-03 0. -1.
        -11    1    3    3    0    0  0.19175961690E+02  0.19495110563E+02  0.68587989809E+00  0.27354108907E+02  0.51100000000E-03 0.  1.
         12    1    3    3    0    0  0.28543381110E+01 -0.20420016735E+02  0.20648040977E+02  0.29179889063E+02  0.00000000000E+00 0. -1.
</event>
<event>
 7    1  0.1905073E-013  0.7246165E+02  0.7816164E-02  0.1226708E+00
        -11   -1    0    0    0    0  0.00000000000E+00  0.00000000000E+00  0.45593999997E+02  0.45594000000E+02  0.51100000000E-03 0. -1.
         11   -1    0    0    0    0 -0.00000000000E+00 -0.00000000000E+00 -0.45593999997E+02  0.45594000000E+02  0.51100000000E-03 0.  1.
    9900012    2    1    2    0    0 -0.30179984417E+01  0.15279915640E+02  0.10396729822E+02  0.72461651516E+02  0.70000105806E+02 0.  0.
        -12    1    1    2    0    0  0.30179984417E+01 -0.15279915640E+02 -0.10396729822E+02  0.18726348484E+02  0.00000000000E+00 0.  1.
         11    1    3    3    0    0 -0.17964209148E+02  0.23550189314E+02 -0.11071949136E+02  0.31621389675E+02  0.51100000000E-03 0. -1.
        -11    1    3    3    0    0 -0.88770818176E+01 -0.61995841815E+01  0.68670523552E+01  0.12821615886E+02  0.51100000000E-03 0.  1.
         12    1    3    3    0    0  0.23823292524E+02 -0.20706894921E+01  0.14601626603E+02  0.28018645955E+02  0.00000000000E+00 0. -1.
</event>
<event>
 7    1  0.1905073E-013  0.7246157E+02  0.7816164E-02  0.1226708E+00
        -11   -1    0    0    0    0  0.00000000000E+00  0.00000000000E+00  0.45593999997E+02  0.45594000000E+02  0.51100000000E-03 0. -1.
         11   -1    0    0    0    0 -0.00000000000E+00 -0.00000000000E+00 -0.45593999997E+02  0.45594000000E+02  0.51100000000E-03 0.  1.
    9900012    2    1    2    0    0 -0.17465679269E+02  0.63697814716E+01 -0.22483565755E+01  0.72461570132E+02  0.69999999789E+02 0.  0.
        -12    1    1    2    0    0  0.17465679269E+02 -0.63697814716E+01  0.22483565755E+01  0.18726429868E+02  0.00000000000E+00 0.  1.
         11    1    3    3    0    0 -0.12408101890E+02  0.88652234107E+01  0.24820006290E+02  0.29130497612E+02  0.51100000000E-03 0.  1.
        -11    1    3    3    0    0 -0.16716452614E+02 -0.94896027077E+01 -0.20918221445E+02  0.28408877772E+02  0.51100000000E-03 0. -1.
        -12    1    3    3    0    0  0.11658875235E+02  0.69941607686E+01 -0.61501414205E+01  0.14922194748E+02  0.00000000000E+00 0.  1.
</event>
<event>
 7    1  0.1905073E-013  0.7246157E+02  0.7816164E-02  0.1226708E+00
        -11   -1    0    0    0    0  0.00000000000E+00  0.00000000000E+00  0.45593999997E+02  0.45594000000E+02  0.51100000000E-03 0.  1.
         11   -1    0    0    0    0 -0.00000000000E+00 -0.00000000000E+00 -0.45593999997E+02  0.45594000000E+02  0.51100000000E-03 0. -1.
    9900012    2    1    2    0    0 -0.33090883574E+01  0.18321490173E+02 -0.20130135444E+01  0.72461567039E+02  0.69999995759E+02 0.  0.
        -12    1    1    2    0    0  0.33090883574E+01 -0.18321490173E+02  0.20130135444E+01  0.18726432961E+02  0.00000000000E+00 0.  1.
         11    1    3    3    0    0 -0.15359061014E+02  0.75305162902E+01 -0.24862300969E+02  0.30178526149E+02  0.51100000000E-03 0. -1.
        -11    1    3    3    0    0  0.14501317744E+02 -0.68018702577E+01  0.17519465413E+02  0.23737845815E+02  0.51100000000E-03 0.  1.
        -12    1    3    3    0    0 -0.24513450874E+01  0.17592844141E+02  0.53298220115E+01  0.18545195075E+02  0.00000000000E+00 0.  1.
</event>
<event>
 7    1  0.1905073E-013  0.7246183E+02  0.7816164E-02  0.1226707E+00
        -11   -1    0    0    0    0  0.00000000000E+00  0.00000000000E+00  0.45593999997E+02  0.45594000000E+02  0.51100000000E-03 0.  1.
         11   -1    0    0    0    0 -0.00000000000E+00 -0.00000000000E+00 -0.45593999997E+02  0.45594000000E+02  0.51100000000E-03 0. -1.
    9900012    2    1    2    0    0  0.64167153430E+00 -0.70775449676E+01 -0.17325306291E+02  0.72461825185E+02  0.70000332041E+02 0.  0.
        -12    1    1    2    0    0 -0.64167153430E+00  0.70775449676E+01  0.17325306291E+02  0.18726174815E+02  0.00000000000E+00 0.  1.
         11    1    3    3    0    0 -0.12954234909E+02 -0.47751678190E+01 -0.24123705998E+02  0.27795100668E+02  0.51100000000E-03 0. -1.
        -11    1    3    3    0    0  0.62913031482E+01  0.11686374553E+02  0.20060095079E+02  0.24053258830E+02  0.51100000000E-03 0.  1.
         12    1    3    3    0    0  0.73046032954E+01 -0.13988751702E+02 -0.13261695372E+02  0.20613465687E+02  0.00000000000E+00 0. -1.
</event>
<event>
 7    1  0.1905073E-013  0.7246161E+02  0.7816164E-02  0.1226708E+00
        -11   -1    0    0    0    0  0.00000000000E+00  0.00000000000E+00  0.45593999997E+02  0.45594000000E+02  0.51100000000E-03 0.  1.
         11   -1    0    0    0    0 -0.00000000000E+00 -0.00000000000E+00 -0.45593999997E+02  0.45594000000E+02  0.51100000000E-03 0. -1.
    9900012    2    1    2    0    0 -0.14792180279E+02 -0.10380188203E+02 -0.49112843027E+01  0.72461611720E+02  0.70000053964E+02 0.  0.
        -12    1    1    2    0    0  0.14792180279E+02  0.10380188203E+02  0.49112843027E+01  0.18726388280E+02  0.00000000000E+00 0.  1.
         11    1    3    3    0    0 -0.20728357560E+01 -0.51833534691E+01 -0.18710000776E+02  0.19525059041E+02  0.51100000000E-03 0. -1.
        -11    1    3    3    0    0  0.44668194786E+01 -0.17466833426E+02  0.23565023082E+02  0.29670744165E+02  0.51100000000E-03 0.  1.
        -12    1    3    3    0    0 -0.17186164001E+02  0.12269998693E+02 -0.97663066094E+01  0.23265808514E+02  0.00000000000E+00 0.  1.
</event>
<event>
 7    1  0.1905073E-013  0.7246153E+02  0.7816164E-02  0.1226708E+00
        -11   -1    0    0    0    0  0.00000000000E+00  0.00000000000E+00  0.45593999997E+02  0.45594000000E+02  0.51100000000E-03 0.  1.
         11   -1    0    0    0    0 -0.00000000000E+00 -0.00000000000E+00 -0.45593999997E+02  0.45594000000E+02  0.51100000000E-03 0. -1.
    9900012    2    1    2    0    0  0.91164132799E+01  0.80317130353E+01 -0.14250030294E+02  0.72461527594E+02  0.69999944375E+02 0.  0.
        -12    1    1    2    0    0 -0.91164132799E+01 -0.80317130353E+01  0.14250030294E+02  0.18726472406E+02  0.00000000000E+00 0.  1.
         11    1    3    3    0    0 -0.97484693689E+01 -0.19393507353E+02  0.61367845046E+01  0.22556615589E+02  0.51100000000E-03 0. -1.
        -11    1    3    3    0    0  0.12270213581E+01  0.27638637307E+02 -0.98997826613E+01  0.29383763384E+02  0.51100000000E-03 0.  1.
         12    1    3    3    0    0  0.17637861291E+02 -0.21341691848E+00 -0.10487032138E+02  0.20521148621E+02  0.00000000000E+00 0. -1.
</event>
<event>
 7    1  0.1905073E-013  0.7246156E+02  0.7816164E-02  0.1226708E+00
        -11   -1    0    0    0    0  0.00000000000E+00  0.00000000000E+00  0.45593999997E+02  0.45594000000E+02  0.51100000000E-03 0. -1.
         11   -1    0    0    0    0 -0.00000000000E+00 -0.00000000000E+00 -0.45593999997E+02  0.45594000000E+02  0.51100000000E-03 0.  1.
    9900012    2    1    2    0    0 -0.13983126849E+02  0.88337241567E+01  0.87816359364E+01  0.72461557501E+02  0.69999983334E+02 0.  0.
        -12    1    1    2    0    0  0.13983126849E+02 -0.88337241567E+01 -0.87816359364E+01  0.18726442499E+02  0.00000000000E+00 0.  1.
         11    1    3    3    0    0 -0.31536647144E+02  0.65096626646E+01  0.10791091597E+02  0.33961499955E+02  0.51100000000E-03 0. -1.
        -11    1    3    3    0    0  0.66564949149E+01 -0.15882706049E+02 -0.51627797351E+00  0.17228923913E+02  0.51100000000E-03 0.  1.
         12    1    3    3    0    0  0.10897025380E+02  0.18206767541E+02 -0.14931776875E+01  0.21271133633E+02  0.00000000000E+00 0. -1.
</event>
<event>
 7    1  0.1905073E-013  0.7246160E+02  0.7816164E-02  0.1226708E+00
        -11   -1    0    0    0    0  0.00000000000E+00  0.00000000000E+00  0.45593999997E+02  0.45594000000E+02  0.51100000000E-03 0.  1.
         11   -1    0    0    0    0 -0.00000000000E+00 -0.00000000000E+00 -0.45593999997E+02  0.45594000000E+02  0.51100000000E-03 0. -1.
    9900012    2    1    2    0    0 -0.17462937721E+02  0.58852824738E+01 -0.33297455976E+01  0.72461602872E+02  0.70000042439E+02 0.  0.
        -12    1    1    2    0    0  0.17462937721E+02 -0.58852824738E+01  0.33297455976E+01  0.18726397128E+02  0.00000000000E+00 0.  1.
         11    1    3    3    0    0 -0.17563495112E+02 -0.18140283812E+01 -0.30361899021E+02  0.35122812700E+02  0.51100000000E-03 0. -1.
        -11    1    3    3    0    0 -0.35845186988E+01 -0.77138981515E+01  0.40465379576E+01  0.94195259274E+01  0.51100000000E-03 0.  1.
         12    1    3    3    0    0  0.36850760898E+01  0.15413209007E+02  0.22985615466E+02  0.27919264246E+02  0.00000000000E+00 0. -1.
</event>
<event>
 7    1  0.1905073E-013  0.7246153E+02  0.7816164E-02  0.1226708E+00
        -11   -1    0    0    0    0  0.00000000000E+00  0.00000000000E+00  0.45593999997E+02  0.45594000000E+02  0.51100000000E-03 0. -1.
         11   -1    0    0    0    0 -0.00000000000E+00 -0.00000000000E+00 -0.45593999997E+02  0.45594000000E+02  0.51100000000E-03 0.  1.
    9900012    2    1    2    0    0  0.43870648303E+01  0.64745060908E+01  0.17015147951E+02  0.72461526046E+02  0.69999942358E+02 0.  0.
        -12    1    1    2    0    0 -0.43870648303E+01 -0.64745060908E+01 -0.17015147951E+02  0.18726473954E+02  0.00000000000E+00 0.  1.
         11    1    3    3    0    0 -0.23710477400E+02 -0.17049913801E+02  0.11820190719E+02  0.31505605979E+02  0.51100000000E-03 0. -1.
        -11    1    3    3    0    0  0.20980484046E+02  0.10729886345E+02  0.99252570264E+01  0.25569941320E+02  0.51100000000E-03 0.  1.
         12    1    3    3    0    0  0.71170581848E+01  0.12794533547E+02 -0.47302997938E+01  0.15385978748E+02  0.00000000000E+00 0. -1.
</event>
<event>
 7    1  0.1905073E-013  0.7246159E+02  0.7816164E-02  0.1226708E+00
        -11   -1    0    0    0    0  0.00000000000E+00  0.00000000000E+00  0.45593999997E+02  0.45594000000E+02  0.51100000000E-03 0.  1.
         11   -1    0    0    0    0 -0.00000000000E+00 -0.00000000000E+00 -0.45593999997E+02  0.45594000000E+02  0.51100000000E-03 0. -1.
    9900012    2    1    2    0    0 -0.58229296468E+01 -0.13512394524E+02 -0.11583920262E+02  0.72461587528E+02  0.70000022450E+02 0.  0.
        -12    1    1    2    0    0  0.58229296468E+01  0.13512394524E+02  0.11583920262E+02  0.18726412472E+02  0.00000000000E+00 0.  1.
         11    1    3    3    0    0 -0.14277428764E+02 -0.15740758738E+02 -0.10096744193E+02  0.23527870735E+02  0.51100000000E-03 0. -1.
        -11    1    3    3    0    0  0.28195668093E+02 -0.11802832296E+01  0.30753767883E+01  0.28387439307E+02  0.51100000000E-03 0.  1.
         12    1    3    3    0    0 -0.19741168977E+02  0.34086474444E+01 -0.45625528572E+01  0.20546277486E+02  0.00000000000E+00 0. -1.
</event>
<event>
 7    1  0.1905073E-013  0.7246156E+02  0.7816164E-02  0.1226708E+00
        -11   -1    0    0    0    0  0.00000000000E+00  0.00000000000E+00  0.45593999997E+02  0.45594000000E+02  0.51100000000E-03 0.  1.
         11   -1    0    0    0    0 -0.00000000000E+00 -0.00000000000E+00 -0.45593999997E+02  0.45594000000E+02  0.51100000000E-03 0. -1.
    9900012    2    1    2    0    0  0.18438479055E+02 -0.31438211536E+01  0.90459163843E+00  0.72461563945E+02  0.69999991728E+02 0.  0.
        -12    1    1    2    0    0 -0.18438479055E+02  0.31438211536E+01 -0.90459163843E+00  0.18726436055E+02  0.00000000000E+00 0.  1.
         11    1    3    3    0    0 -0.37727159622E+00 -0.16862739942E+01 -0.22976353623E+02  0.23041238680E+02  0.51100000000E-03 0. -1.
        -11    1    3    3    0    0 -0.23651226834E+01  0.87382012203E+01  0.24277016918E+02  0.25909911551E+02  0.51100000000E-03 0.  1.
        -12    1    3    3    0    0  0.21180873334E+02 -0.10195748380E+02 -0.39607165649E+00  0.23510413714E+02  0.00000000000E+00 0.  1.
</event>
<event>
 7    1  0.1905073E-013  0.7246155E+02  0.7816164E-02  0.1226708E+00
        -11   -1    0    0    0    0  0.00000000000E+00  0.00000000000E+00  0.45593999997E+02  0.45594000000E+02  0.51100000000E-03 0. -1.
         11   -1    0    0    0    0 -0.00000000000E+00 -0.00000000000E+00 -0.45593999997E+02  0.45594000000E+02  0.51100000000E-03 0.  1.
    9900012    2    1    2    0    0 -0.91764785967E+01  0.13663349585E+02  0.89322449895E+01  0.72461551274E+02  0.69999975223E+02 0.  0.
        -12    1    1    2    0    0  0.91764785967E+01 -0.13663349585E+02 -0.89322449895E+01  0.18726448726E+02  0.00000000000E+00 0.  1.
         11    1    3    3    0    0 -0.17070740422E+02  0.23752550058E+01  0.28998075387E+02  0.33733372072E+02  0.51100000000E-03 0. -1.
        -11    1    3    3    0    0  0.10910539436E+02 -0.80459907530E+01 -0.82602732485E+01  0.15874821334E+02  0.51100000000E-03 0.  1.
         12    1    3    3    0    0 -0.30162776101E+01  0.19334085332E+02 -0.11805557149E+02  0.22853357869E+02  0.00000000000E+00 0. -1.
</event>
<event>
 7    1  0.1905073E-013  0.7246153E+02  0.7816164E-02  0.1226708E+00
        -11   -1    0    0    0    0  0.00000000000E+00  0.00000000000E+00  0.45593999997E+02  0.45594000000E+02  0.51100000000E-03 0. -1.
         11   -1    0    0    0    0 -0.00000000000E+00 -0.00000000000E+00 -0.45593999997E+02  0.45594000000E+02  0.51100000000E-03 0.  1.
    9900012    2    1    2    0    0  0.15397029883E+02 -0.29956204813E+01  0.10229293969E+02  0.72461528725E+02  0.69999945849E+02 0.  0.
        -12    1    1    2    0    0 -0.15397029883E+02  0.29956204813E+01 -0.10229293969E+02  0.18726471275E+02  0.00000000000E+00 0.  1.
         11    1    3    3    0    0  0.20345280769E+02  0.26070817385E+01  0.15700512191E+02  0.25830861543E+02  0.51100000000E-03 0. -1.
        -11    1    3    3    0    0 -0.11954834875E+02 -0.70952552907E+00 -0.23668890391E+02  0.26526173413E+02  0.51100000000E-03 0.  1.
        -12    1    3    3    0    0  0.70065839893E+01 -0.48931766907E+01  0.18197672169E+02  0.20104493769E+02  0.00000000000E+00 0.  1.
</event>
<event>
 7    1  0.1905073E-013  0.7246158E+02  0.7816164E-02  0.1226708E+00
        -11   -1    0    0    0    0  0.00000000000E+00  0.00000000000E+00  0.45593999997E+02  0.45594000000E+02  0.51100000000E-03 0.  1.
         11   -1    0    0    0    0 -0.00000000000E+00 -0.00000000000E+00 -0.45593999997E+02  0.45594000000E+02  0.51100000000E-03 0. -1.
    9900012    2    1    2    0    0 -0.15732184993E+02 -0.87819522728E+01 -0.51043430914E+01  0.72461584199E+02  0.70000018113E+02 0.  0.
        -12    1    1    2    0    0  0.15732184993E+02  0.87819522728E+01  0.51043430914E+01  0.18726415801E+02  0.00000000000E+00 0.  1.
         11    1    3    3    0    0 -0.15322951931E+02  0.71238278346E+01 -0.13379405340E+02  0.21553428183E+02  0.51100000000E-03 0. -1.
        -11    1    3    3    0    0  0.20102556423E+02 -0.14457843313E+02 -0.64843913183E+01  0.25596666561E+02  0.51100000000E-03 0.  1.
        -12    1    3    3    0    0 -0.20511789485E+02 -0.14479367941E+01  0.14759453567E+02  0.25311489455E+02  0.00000000000E+00 0.  1.
</event>
<event>
 7    1  0.1905073E-013  0.7246157E+02  0.7816164E-02  0.1226708E+00
        -11   -1    0    0    0    0  0.00000000000E+00  0.00000000000E+00  0.45593999997E+02  0.45594000000E+02  0.51100000000E-03 0.  1.
         11   -1    0    0    0    0 -0.00000000000E+00 -0.00000000000E+00 -0.45593999997E+02  0.45594000000E+02  0.51100000000E-03 0. -1.
    9900012    2    1    2    0    0 -0.60094005874E+01  0.15531384490E+02 -0.85640130322E+01  0.72461571648E+02  0.70000001764E+02 0.  0.
        -12    1    1    2    0    0  0.60094005874E+01 -0.15531384490E+02  0.85640130322E+01  0.18726428352E+02  0.00000000000E+00 0.  1.
         11    1    3    3    0    0 -0.98894530545E+01  0.34218947343E+01 -0.87636952736E+01  0.13649652025E+02  0.51100000000E-03 0. -1.
        -11    1    3    3    0    0 -0.17658392575E+02  0.12457486993E+02  0.20079641536E+02  0.29499149395E+02  0.51100000000E-03 0.  1.
        -12    1    3    3    0    0  0.21538445043E+02 -0.34799723688E+00 -0.19879959295E+02  0.29312770229E+02  0.00000000000E+00 0.  1.
</event>
<event>
 7    1  0.1905073E-013  0.7246157E+02  0.7816164E-02  0.1226708E+00
        -11   -1    0    0    0    0  0.00000000000E+00  0.00000000000E+00  0.45593999997E+02  0.45594000000E+02  0.51100000000E-03 0. -1.
         11   -1    0    0    0    0 -0.00000000000E+00 -0.00000000000E+00 -0.45593999997E+02  0.45594000000E+02  0.51100000000E-03 0.  1.
    9900012    2    1    2    0    0 -0.14949188011E+02 -0.68099338982E+01  0.89903244556E+01  0.72461565324E+02  0.69999993525E+02 0.  0.
        -12    1    1    2    0    0  0.14949188011E+02  0.68099338982E+01 -0.89903244556E+01  0.18726434676E+02  0.00000000000E+00 0.  1.
         11    1    3    3    0    0 -0.65261038860E+01 -0.33589495817E+01 -0.10014023996E+02  0.12415846773E+02  0.51100000000E-03 0. -1.
        -11    1    3    3    0    0  0.81185463567E+01  0.23676280381E+02  0.61713008241E+01  0.25779100096E+02  0.51100000000E-03 0.  1.
        -12    1    3    3    0    0 -0.16541630481E+02 -0.27127264697E+02  0.12833047628E+02  0.34266618455E+02  0.00000000000E+00 0.  1.
</event>
<event>
 7    1  0.1905073E-013  0.7246155E+02  0.7816164E-02  0.1226708E+00
        -11   -1    0    0    0    0  0.00000000000E+00  0.00000000000E+00  0.45593999997E+02  0.45594000000E+02  0.51100000000E-03 0. -1.
         11   -1    0    0    0    0 -0.00000000000E+00 -0.00000000000E+00 -0.45593999997E+02  0.45594000000E+02  0.51100000000E-03 0.  1.
    9900012    2    1    2    0    0  0.15776604482E+02 -0.10044795782E+02  0.93857724682E+00  0.72461545490E+02  0.69999967687E+02 0.  0.
        -12    1    1    2    0    0 -0.15776604482E+02  0.10044795782E+02 -0.93857724682E+00  0.18726454510E+02  0.00000000000E+00 0.  1.
         11    1    3    3    0    0  0.24435358708E+02 -0.32094108147E+02  0.87946169789E+01  0.41285152550E+02  0.51100000000E-03 0.  1.
        -11    1    3    3    0    0 -0.37899031210E+01  0.15240213430E+02  0.44231982027E+01  0.16315396215E+02  0.51100000000E-03 0. -1.
        -12    1    3    3    0    0 -0.48688511057E+01  0.68090989349E+01 -0.12279237935E+02  0.14860996725E+02  0.00000000000E+00 0.  1.
</event>
<event>
 7    1  0.1925429E-013  0.7246158E+02  0.7816164E-02  0.1226708E+00
        -11   -1    0    0    0    0  0.00000000000E+00  0.00000000000E+00  0.45593999997E+02  0.45594000000E+02  0.51100000000E-03 0. -1.
         11   -1    0    0    0    0 -0.00000000000E+00 -0.00000000000E+00 -0.45593999997E+02  0.45594000000E+02  0.51100000000E-03 0.  1.
    9900012    2    1    2    0    0  0.51955139201E+01  0.10358053372E+02  0.14710415395E+02  0.72461576005E+02  0.70000007439E+02 0.  0.
        -12    1    1    2    0    0 -0.51955139201E+01 -0.10358053372E+02 -0.14710415395E+02  0.18726423995E+02  0.00000000000E+00 0.  1.
         11    1    3    3    0    0  0.20959611405E+02  0.24592297605E+01 -0.17575047365E+01  0.21176447871E+02  0.51100000000E-03 0. -1.
        -11    1    3    3    0    0 -0.23428512796E+02 -0.11486968070E+02  0.25441640864E+01  0.26216758351E+02  0.51100000000E-03 0.  1.
         12    1    3    3    0    0  0.76644153109E+01  0.19385791682E+02  0.13923756045E+02  0.25068369783E+02  0.00000000000E+00 0. -1.
</event>
<event>
 7    1  0.1905073E-013  0.7246154E+02  0.7816164E-02  0.1226708E+00
        -11   -1    0    0    0    0  0.00000000000E+00  0.00000000000E+00  0.45593999997E+02  0.45594000000E+02  0.51100000000E-03 0.  1.
         11   -1    0    0    0    0 -0.00000000000E+00 -0.00000000000E+00 -0.45593999997E+02  0.45594000000E+02  0.51100000000E-03 0. -1.
    9900012    2    1    2    0    0 -0.12866544582E+00  0.18558671416E+02 -0.24978766540E+01  0.72461542051E+02  0.69999963208E+02 0.  0.
        -12    1    1    2    0    0  0.12866544582E+00 -0.18558671416E+02  0.24978766540E+01  0.18726457949E+02  0.00000000000E+00 0.  1.
         11    1    3    3    0    0  0.95102937796E+01 -0.96508846496E+00 -0.40718368948E+01  0.10390232889E+02  0.51100000000E-03 0. -1.
        -11    1    3    3    0    0 -0.37291102112E+01  0.39974423085E+02  0.51793476568E+01  0.40480691773E+02  0.51100000000E-03 0.  1.
        -12    1    3    3    0    0 -0.59098490142E+01 -0.20450663204E+02 -0.36053874160E+01  0.21590617390E+02  0.00000000000E+00 0.  1.
</event>
<event>
 7    1  0.1905073E-013  0.7246157E+02  0.7816164E-02  0.1226708E+00
        -11   -1    0    0    0    0  0.00000000000E+00  0.00000000000E+00  0.45593999997E+02  0.45594000000E+02  0.51100000000E-03 0. -1.
         11   -1    0    0    0    0 -0.00000000000E+00 -0.00000000000E+00 -0.45593999997E+02  0.45594000000E+02  0.51100000000E-03 0.  1.
    9900012    2    1    2    0    0  0.35287496117E+01 -0.50526822023E+01  0.17683253570E+02  0.72461571401E+02  0.70000001442E+02 0.  0.
        -12    1    1    2    0    0 -0.35287496117E+01  0.50526822023E+01 -0.17683253570E+02  0.18726428599E+02  0.00000000000E+00 0.  1.
         11    1    3    3    0    0 -0.91258359378E+01  0.22643344498E+02  0.13593873992E+02  0.27942715366E+02  0.51100000000E-03 0. -1.
        -11    1    3    3    0    0  0.20250722121E+02 -0.99840074504E+01 -0.51321647790E+01  0.23154076677E+02  0.51100000000E-03 0.  1.
        -12    1    3    3    0    0 -0.75961365711E+01 -0.17712019250E+02  0.92215443562E+01  0.21364779359E+02  0.00000000000E+00 0.  1.
</event>
<event>
 7    1  0.1905073E-013  0.7246166E+02  0.7816164E-02  0.1226708E+00
        -11   -1    0    0    0    0  0.00000000000E+00  0.00000000000E+00  0.45593999997E+02  0.45594000000E+02  0.51100000000E-03 0.  1.
         11   -1    0    0    0    0 -0.00000000000E+00 -0.00000000000E+00 -0.45593999997E+02  0.45594000000E+02  0.51100000000E-03 0. -1.
    9900012    2    1    2    0    0 -0.49845059784E+01 -0.94635054560E+01 -0.15371159042E+02  0.72461661179E+02  0.70000118393E+02 0.  0.
        -12    1    1    2    0    0  0.49845059784E+01  0.94635054560E+01  0.15371159042E+02  0.18726338821E+02  0.00000000000E+00 0.  1.
         11    1    3    3    0    0 -0.21578463380E+02  0.21243619733E+02 -0.11996622927E+02  0.32570545331E+02  0.51100000000E-03 0. -1.
        -11    1    3    3    0    0  0.19946529154E+02 -0.18920235144E+02 -0.24764747891E+01  0.27603844856E+02  0.51100000000E-03 0.  1.
         12    1    3    3    0    0 -0.33525717519E+01 -0.11786890045E+02 -0.89806132583E+00  0.12287270992E+02  0.00000000000E+00 0. -1.
</event>
<event>
 7    1  0.1905073E-013  0.7246157E+02  0.7816164E-02  0.1226708E+00
        -11   -1    0    0    0    0  0.00000000000E+00  0.00000000000E+00  0.45593999997E+02  0.45594000000E+02  0.51100000000E-03 0.  1.
         11   -1    0    0    0    0 -0.00000000000E+00 -0.00000000000E+00 -0.45593999997E+02  0.45594000000E+02  0.51100000000E-03 0. -1.
    9900012    2    1    2    0    0 -0.29809777029E+01 -0.18399622201E+02  0.18018680545E+01  0.72461573387E+02  0.70000004029E+02 0.  0.
        -12    1    1    2    0    0  0.29809777029E+01  0.18399622201E+02 -0.18018680545E+01  0.18726426613E+02  0.00000000000E+00 0.  1.
         11    1    3    3    0    0  0.15275016187E+02  0.19315011788E+02 -0.65277005280E+01  0.25475609401E+02  0.51100000000E-03 0. -1.
        -11    1    3    3    0    0 -0.14365266252E+02 -0.32620329265E+02 -0.10107151921E+01  0.35657654175E+02  0.51100000000E-03 0.  1.
         12    1    3    3    0    0 -0.38907276379E+01 -0.50943047246E+01  0.93402837746E+01  0.11328309811E+02  0.00000000000E+00 0. -1.
</event>
<event>
 7    1  0.1905073E-013  0.7246141E+02  0.7816164E-02  0.1226708E+00
        -11   -1    0    0    0    0  0.00000000000E+00  0.00000000000E+00  0.45593999997E+02  0.45594000000E+02  0.51100000000E-03 0. -1.
         11   -1    0    0    0    0 -0.00000000000E+00 -0.00000000000E+00 -0.45593999997E+02  0.45594000000E+02  0.51100000000E-03 0.  1.
    9900012    2    1    2    0    0  0.13359265394E+02  0.12062321791E+02  0.51687180623E+01  0.72461408605E+02  0.69999789370E+02 0.  0.
        -12    1    1    2    0    0 -0.13359265394E+02 -0.12062321791E+02 -0.51687180623E+01  0.18726591395E+02  0.00000000000E+00 0.  1.
         11    1    3    3    0    0  0.24145512067E+02  0.28934601877E+01  0.21272349353E+01  0.24411124381E+02  0.51100000000E-03 0. -1.
        -11    1    3    3    0    0 -0.19875181032E+02  0.71454136772E+01  0.19754003842E+02  0.28918859344E+02  0.51100000000E-03 0.  1.
        -12    1    3    3    0    0  0.90889343599E+01  0.20234479257E+01 -0.16712520715E+02  0.19131424880E+02  0.00000000000E+00 0.  1.
</event>
<event>
 7    1  0.1905073E-013  0.7246156E+02  0.7816164E-02  0.1226708E+00
        -11   -1    0    0    0    0  0.00000000000E+00  0.00000000000E+00  0.45593999997E+02  0.45594000000E+02  0.51100000000E-03 0.  1.
         11   -1    0    0    0    0 -0.00000000000E+00 -0.00000000000E+00 -0.45593999997E+02  0.45594000000E+02  0.51100000000E-03 0. -1.
    9900012    2    1    2    0    0  0.10864119799E+02 -0.49329913718E+00 -0.15244898748E+02  0.72461564651E+02  0.69999992649E+02 0.  0.
        -12    1    1    2    0    0 -0.10864119799E+02  0.49329913718E+00  0.15244898748E+02  0.18726435349E+02  0.00000000000E+00 0.  1.
         11    1    3    3    0    0 -0.11617639322E+02  0.46255631068E+01  0.31965153036E+01  0.12906707086E+02  0.51100000000E-03 0. -1.
        -11    1    3    3    0    0  0.34686534936E+02  0.37390134743E+01 -0.25192252882E+02  0.43032377731E+02  0.51100000000E-03 0.  1.
        -12    1    3    3    0    0 -0.12204775816E+02 -0.88578757183E+01  0.67508388304E+01  0.16522479834E+02  0.00000000000E+00 0.  1.
</event>
<event>
 7    1  0.1905073E-013  0.7246157E+02  0.7816164E-02  0.1226708E+00
        -11   -1    0    0    0    0  0.00000000000E+00  0.00000000000E+00  0.45593999997E+02  0.45594000000E+02  0.51100000000E-03 0. -1.
         11   -1    0    0    0    0 -0.00000000000E+00 -0.00000000000E+00 -0.45593999997E+02  0.45594000000E+02  0.51100000000E-03 0.  1.
    9900012    2    1    2    0    0  0.16374592931E+02  0.89517025206E+01 -0.15552902257E+01  0.72461569498E+02  0.69999998962E+02 0.  0.
        -12    1    1    2    0    0 -0.16374592931E+02 -0.89517025206E+01  0.15552902257E+01  0.18726430502E+02  0.00000000000E+00 0.  1.
         11    1    3    3    0    0 -0.55453404961E+01  0.31339512206E+02 -0.30029405451E+01  0.31967694298E+02  0.51100000000E-03 0. -1.
        -11    1    3    3    0    0  0.11489902255E+02 -0.10088769421E+02 -0.12047138364E+02  0.19466244252E+02  0.51100000000E-03 0.  1.
         12    1    3    3    0    0  0.10430031172E+02 -0.12299040264E+02  0.13494788683E+02  0.21027630948E+02  0.00000000000E+00 0. -1.
</event>
<event>
 7    1  0.1905073E-013  0.7246160E+02  0.7816164E-02  0.1226708E+00
        -11   -1    0    0    0    0  0.00000000000E+00  0.00000000000E+00  0.45593999997E+02  0.45594000000E+02  0.51100000000E-03 0. -1.
         11   -1    0    0    0    0 -0.00000000000E+00 -0.00000000000E+00 -0.45593999997E+02  0.45594000000E+02  0.51100000000E-03 0.  1.
    9900012    2    1    2    0    0 -0.13493062280E+02  0.47794430209E+01  0.12073620388E+02  0.72461598462E+02  0.70000036694E+02 0.  0.
        -12    1    1    2    0    0  0.13493062280E+02 -0.47794430209E+01 -0.12073620388E+02  0.18726401538E+02  0.00000000000E+00 0.  1.
         11    1    3    3    0    0 -0.97132116959E+01 -0.20195949032E+02  0.16102131901E+02  0.27595316464E+02  0.51100000000E-03 0. -1.
        -11    1    3    3    0    0 -0.78634236072E+01  0.10022263748E+02 -0.19287879024E+02  0.23114962231E+02  0.51100000000E-03 0.  1.
        -12    1    3    3    0    0  0.40835730232E+01  0.14953128305E+02  0.15259367511E+02  0.21751319766E+02  0.00000000000E+00 0.  1.
</event>
<event>
 7    1  0.1905073E-013  0.7246158E+02  0.7816164E-02  0.1226708E+00
        -11   -1    0    0    0    0  0.00000000000E+00  0.00000000000E+00  0.45593999997E+02  0.45594000000E+02  0.51100000000E-03 0.  1.
         11   -1    0    0    0    0 -0.00000000000E+00 -0.00000000000E+00 -0.45593999997E+02  0.45594000000E+02  0.51100000000E-03 0. -1.
    9900012    2    1    2    0    0  0.20075188016E+01 -0.18014015523E+02  0.47057207435E+01  0.72461582972E+02  0.70000016515E+02 0.  0.
        -12    1    1    2    0    0 -0.20075188016E+01  0.18014015523E+02 -0.47057207435E+01  0.18726417028E+02  0.00000000000E+00 0.  1.
         11    1    3    3    0    0 -0.42362865246E+01 -0.21174063242E+02  0.10530689792E+02  0.24024622899E+02  0.51100000000E-03 0. -1.
        -11    1    3    3    0    0 -0.17651136845E+02  0.81605796357E+01 -0.12513683011E+02  0.23124661180E+02  0.51100000000E-03 0.  1.
        -12    1    3    3    0    0  0.23894942171E+02 -0.50005319166E+01  0.66887139630E+01  0.25312298894E+02  0.00000000000E+00 0.  1.
</event>
<event>
 7    1  0.1905073E-013  0.7246157E+02  0.7816164E-02  0.1226708E+00
        -11   -1    0    0    0    0  0.00000000000E+00  0.00000000000E+00  0.45593999997E+02  0.45594000000E+02  0.51100000000E-03 0.  1.
         11   -1    0    0    0    0 -0.00000000000E+00 -0.00000000000E+00 -0.45593999997E+02  0.45594000000E+02  0.51100000000E-03 0. -1.
    9900012    2    1    2    0    0 -0.81297966550E+01  0.44462689204E+01 -0.16273172897E+02  0.72461573296E+02  0.70000003910E+02 0.  0.
        -12    1    1    2    0    0  0.81297966550E+01 -0.44462689204E+01  0.16273172897E+02  0.18726426704E+02  0.00000000000E+00 0.  1.
         11    1    3    3    0    0 -0.12955320762E+02  0.25711865088E+02 -0.43203513531E+01  0.29113669958E+02  0.51100000000E-03 0. -1.
        -11    1    3    3    0    0  0.81394432730E+01 -0.11410069286E+02  0.11217207384E+02  0.17951767592E+02  0.51100000000E-03 0.  1.
        -12    1    3    3    0    0 -0.33139191655E+01 -0.98555268813E+01 -0.23170028928E+02  0.25396135747E+02  0.00000000000E+00 0.  1.
</event>
<event>
 7    1  0.1905073E-013  0.7246160E+02  0.7816164E-02  0.1226708E+00
        -11   -1    0    0    0    0  0.00000000000E+00  0.00000000000E+00  0.45593999997E+02  0.45594000000E+02  0.51100000000E-03 0.  1.
         11   -1    0    0    0    0 -0.00000000000E+00 -0.00000000000E+00 -0.45593999997E+02  0.45594000000E+02  0.51100000000E-03 0. -1.
    9900012    2    1    2    0    0  0.15264040981E+02 -0.19153321012E+01 -0.10677946905E+02  0.72461601675E+02  0.70000040879E+02 0.  0.
        -12    1    1    2    0    0 -0.15264040981E+02  0.19153321012E+01  0.10677946905E+02  0.18726398325E+02  0.00000000000E+00 0.  1.
         11    1    3    3    0    0  0.16858741421E+02 -0.67305241414E+01 -0.38182903403E+02  0.42278259544E+02  0.51100000000E-03 0. -1.
        -11    1    3    3    0    0  0.43976858430E+01 -0.45814685612E+00  0.88776774633E+01  0.99177969691E+01  0.51100000000E-03 0.  1.
         12    1    3    3    0    0 -0.59923862825E+01  0.52733388964E+01  0.18627279035E+02  0.20265545162E+02  0.00000000000E+00 0. -1.
</event>
<event>
 7    1  0.1905073E-013  0.7246157E+02  0.7816164E-02  0.1226708E+00
        -11   -1    0    0    0    0  0.00000000000E+00  0.00000000000E+00  0.45593999997E+02  0.45594000000E+02  0.51100000000E-03 0.  1.
         11   -1    0    0    0    0 -0.00000000000E+00 -0.00000000000E+00 -0.45593999997E+02  0.45594000000E+02  0.51100000000E-03 0. -1.
    9900012    2    1    2    0    0 -0.18012974305E+02 -0.29503716355E+01  0.41841780315E+01  0.72461567293E+02  0.69999996091E+02 0.  0.
        -12    1    1    2    0    0  0.18012974305E+02  0.29503716355E+01 -0.41841780315E+01  0.18726432707E+02  0.00000000000E+00 0.  1.
         11    1    3    3    0    0 -0.22711694769E+02  0.22217540497E+02  0.43027753468E+01  0.32061722676E+02  0.51100000000E-03 0. -1.
        -11    1    3    3    0    0 -0.36734099524E+01 -0.18554175604E+02 -0.13534984841E+02  0.23258271388E+02  0.51100000000E-03 0.  1.
        -12    1    3    3    0    0  0.83721304158E+01 -0.66137365279E+01  0.13416387526E+02  0.17141573230E+02  0.00000000000E+00 0.  1.
</event>
<event>
 7    1  0.1905073E-013  0.7246160E+02  0.7816164E-02  0.1226708E+00
        -11   -1    0    0    0    0  0.00000000000E+00  0.00000000000E+00  0.45593999997E+02  0.45594000000E+02  0.51100000000E-03 0.  1.
         11   -1    0    0    0    0 -0.00000000000E+00 -0.00000000000E+00 -0.45593999997E+02  0.45594000000E+02  0.51100000000E-03 0. -1.
    9900012    2    1    2    0    0  0.12977084852E+02 -0.85996391312E+01  0.10407674659E+02  0.72461595747E+02  0.70000033157E+02 0.  0.
        -12    1    1    2    0    0 -0.12977084852E+02  0.85996391312E+01 -0.10407674659E+02  0.18726404253E+02  0.00000000000E+00 0.  1.
         11    1    3    3    0    0  0.18116723725E+02 -0.17734649545E+02 -0.78781587421E+01  0.26548048110E+02  0.51100000000E-03 0. -1.
        -11    1    3    3    0    0 -0.41193909835E+00  0.14632762738E+02  0.29284733594E+02  0.32739625244E+02  0.51100000000E-03 0.  1.
         12    1    3    3    0    0 -0.47276997745E+01 -0.54977523242E+01 -0.10998900193E+02  0.13173922393E+02  0.00000000000E+00 0. -1.
</event>
<event>
 7    1  0.1905073E-013  0.7246150E+02  0.7816164E-02  0.1226708E+00
        -11   -1    0    0    0    0  0.00000000000E+00  0.00000000000E+00  0.45593999997E+02  0.45594000000E+02  0.51100000000E-03 0.  1.
         11   -1    0    0    0    0 -0.00000000000E+00 -0.00000000000E+00 -0.45593999997E+02  0.45594000000E+02  0.51100000000E-03 0. -1.
    9900012    2    1    2    0    0  0.13991552888E+02  0.67302351770E+01 -0.10470054386E+02  0.72461503889E+02  0.69999913494E+02 0.  0.
        -12    1    1    2    0    0 -0.13991552888E+02 -0.67302351770E+01  0.10470054386E+02  0.18726496111E+02  0.00000000000E+00 0.  1.
         11    1    3    3    0    0 -0.15283973073E+02  0.31032166058E+01 -0.10819256322E+02  0.18981203698E+02  0.51100000000E-03 0. -1.
        -11    1    3    3    0    0  0.37085351599E+02 -0.92276248659E+01 -0.19431744751E+01  0.38265497399E+02  0.51100000000E-03 0.  1.
        -12    1    3    3    0    0 -0.78098256383E+01  0.12854643437E+02  0.22923764108E+01  0.15214802792E+02  0.00000000000E+00 0.  1.
</event>
<event>
 7    1  0.1905073E-013  0.7246173E+02  0.7816164E-02  0.1226708E+00
        -11   -1    0    0    0    0  0.00000000000E+00  0.00000000000E+00  0.45593999997E+02  0.45594000000E+02  0.51100000000E-03 0. -1.
         11   -1    0    0    0    0 -0.00000000000E+00 -0.00000000000E+00 -0.45593999997E+02  0.45594000000E+02  0.51100000000E-03 0.  1.
    9900012    2    1    2    0    0 -0.98316749312E+01 -0.50042269242E+01  0.15131718649E+02  0.72461734266E+02  0.70000213603E+02 0.  0.
        -12    1    1    2    0    0  0.98316749312E+01  0.50042269242E+01 -0.15131718649E+02  0.18726265734E+02  0.00000000000E+00 0.  1.
         11    1    3    3    0    0  0.11962282891E+01  0.23396680064E+01  0.68991399344E+01  0.73826242350E+01  0.51100000000E-03 0. -1.
        -11    1    3    3    0    0 -0.35165976946E+02 -0.34598980310E+01 -0.73429756493E+01  0.36090665284E+02  0.51100000000E-03 0.  1.
        -12    1    3    3    0    0  0.24138073726E+02 -0.38839968996E+01  0.15575554364E+02  0.28988444747E+02  0.00000000000E+00 0.  1.
</event>
<event>
 7    1  0.1905073E-013  0.7246157E+02  0.7816164E-02  0.1226708E+00
        -11   -1    0    0    0    0  0.00000000000E+00  0.00000000000E+00  0.45593999997E+02  0.45594000000E+02  0.51100000000E-03 0. -1.
         11   -1    0    0    0    0 -0.00000000000E+00 -0.00000000000E+00 -0.45593999997E+02  0.45594000000E+02  0.51100000000E-03 0.  1.
    9900012    2    1    2    0    0 -0.18235172804E+02 -0.40876237542E+01  0.12036726623E+01  0.72461574205E+02  0.70000005095E+02 0.  0.
        -12    1    1    2    0    0  0.18235172804E+02  0.40876237542E+01 -0.12036726623E+01  0.18726425795E+02  0.00000000000E+00 0.  1.
         11    1    3    3    0    0  0.13760283849E+02 -0.27532933135E+01  0.27309485415E+02  0.30703974166E+02  0.51100000000E-03 0.  1.
        -11    1    3    3    0    0 -0.22848076462E+02 -0.21609824467E+01 -0.21645092706E+02  0.31547020171E+02  0.51100000000E-03 0. -1.
        -12    1    3    3    0    0 -0.91473801918E+01  0.82665200594E+00 -0.44607200470E+01  0.10210579868E+02  0.00000000000E+00 0.  1.
</event>
<event>
 7    1  0.1905073E-013  0.7246158E+02  0.7816164E-02  0.1226708E+00
        -11   -1    0    0    0    0  0.00000000000E+00  0.00000000000E+00  0.45593999997E+02  0.45594000000E+02  0.51100000000E-03 0. -1.
         11   -1    0    0    0    0 -0.00000000000E+00 -0.00000000000E+00 -0.45593999997E+02  0.45594000000E+02  0.51100000000E-03 0.  1.
    9900012    2    1    2    0    0 -0.39931621400E+01  0.18288994762E+02  0.49620326526E+00  0.72461577732E+02  0.70000009689E+02 0.  0.
        -12    1    1    2    0    0  0.39931621400E+01 -0.18288994762E+02 -0.49620326526E+00  0.18726422268E+02  0.00000000000E+00 0.  1.
         11    1    3    3    0    0 -0.75464751467E+00 -0.17733822239E+02  0.16175074585E+02  0.24014391147E+02  0.51100000000E-03 0. -1.
        -11    1    3    3    0    0  0.11740579857E+02  0.22918448035E+02 -0.66670000422E+01  0.26599724915E+02  0.51100000000E-03 0.  1.
         12    1    3    3    0    0 -0.14979094483E+02  0.13104368965E+02 -0.90118712779E+01  0.21847461670E+02  0.00000000000E+00 0. -1.
</event>
<event>
 7    1  0.1905073E-013  0.7246160E+02  0.7816164E-02  0.1226708E+00
        -11   -1    0    0    0    0  0.00000000000E+00  0.00000000000E+00  0.45593999997E+02  0.45594000000E+02  0.51100000000E-03 0. -1.
         11   -1    0    0    0    0 -0.00000000000E+00 -0.00000000000E+00 -0.45593999997E+02  0.45594000000E+02  0.51100000000E-03 0.  1.
    9900012    2    1    2    0    0  0.34087424707E+01  0.16536218560E+02  0.81001298922E+01  0.72461597415E+02  0.70000035330E+02 0.  0.
        -12    1    1    2    0    0 -0.34087424707E+01 -0.16536218560E+02 -0.81001298922E+01  0.18726402585E+02  0.00000000000E+00 0.  1.
         11    1    3    3    0    0  0.42009362681E+01  0.20292361952E+02 -0.15772562396E+02  0.26042302969E+02  0.51100000000E-03 0. -1.
        -11    1    3    3    0    0  0.18745299702E+02 -0.28916378428E+01  0.17617285050E+02  0.25886609726E+02  0.51100000000E-03 0.  1.
        -12    1    3    3    0    0 -0.19537493500E+02 -0.86450554945E+00  0.62554072382E+01  0.20532684720E+02  0.00000000000E+00 0.  1.
</event>
<event>
 7    1  0.1905073E-013  0.7246162E+02  0.7816164E-02  0.1226708E+00
        -11   -1    0    0    0    0  0.00000000000E+00  0.00000000000E+00  0.45593999997E+02  0.45594000000E+02  0.51100000000E-03 0.  1.
         11   -1    0    0    0    0 -0.00000000000E+00 -0.00000000000E+00 -0.45593999997E+02  0.45594000000E+02  0.51100000000E-03 0. -1.
    9900012    2    1    2    0    0 -0.15379118661E+02  0.24548450013E+01 -0.10398738697E+02  0.72461619644E+02  0.70000064287E+02 0.  0.
        -12    1    1    2    0    0  0.15379118661E+02 -0.24548450013E+01  0.10398738697E+02  0.18726380356E+02  0.00000000000E+00 0.  1.
         11    1    3    3    0    0 -0.24736070400E+02 -0.23548377128E+02 -0.18577028629E+02  0.38878081706E+02  0.51100000000E-03 0. -1.
        -11    1    3    3    0    0  0.13737269525E+01  0.20462143728E+02 -0.55842531913E+00  0.20515805877E+02  0.51100000000E-03 0.  1.
         12    1    3    3    0    0  0.79832247870E+01  0.55410784014E+01  0.87367152516E+01  0.13067732062E+02  0.00000000000E+00 0. -1.
</event>
<event>
 7    1  0.1905073E-013  0.7246155E+02  0.7816164E-02  0.1226708E+00
        -11   -1    0    0    0    0  0.00000000000E+00  0.00000000000E+00  0.45593999997E+02  0.45594000000E+02  0.51100000000E-03 0. -1.
         11   -1    0    0    0    0 -0.00000000000E+00 -0.00000000000E+00 -0.45593999997E+02  0.45594000000E+02  0.51100000000E-03 0.  1.
    9900012    2    1    2    0    0 -0.81657984058E+00  0.16273261612E+02 -0.92300625666E+01  0.72461550761E+02  0.69999974554E+02 0.  0.
        -12    1    1    2    0    0  0.81657984058E+00 -0.16273261612E+02  0.92300625666E+01  0.18726449239E+02  0.00000000000E+00 0.  1.
         11    1    3    3    0    0  0.34541604951E+01 -0.55660453512E+01  0.93605669738E+01  0.11425073300E+02  0.51100000000E-03 0. -1.
        -11    1    3    3    0    0  0.11541474194E+02  0.35424320026E+02 -0.12900797349E+02  0.39427384499E+02  0.51100000000E-03 0.  1.
        -12    1    3    3    0    0 -0.15812214530E+02 -0.13585013063E+02 -0.56898321916E+01  0.21609092962E+02  0.00000000000E+00 0.  1.
</event>
<event>
 7    1  0.1905073E-013  0.7246155E+02  0.7816164E-02  0.1226708E+00
        -11   -1    0    0    0    0  0.00000000000E+00  0.00000000000E+00  0.45593999997E+02  0.45594000000E+02  0.51100000000E-03 0.  1.
         11   -1    0    0    0    0 -0.00000000000E+00 -0.00000000000E+00 -0.45593999997E+02  0.45594000000E+02  0.51100000000E-03 0. -1.
    9900012    2    1    2    0    0 -0.11237410944E+02  0.62472637376E+01 -0.13615142120E+02  0.72461553357E+02  0.69999977936E+02 0.  0.
        -12    1    1    2    0    0  0.11237410944E+02 -0.62472637376E+01  0.13615142120E+02  0.18726446643E+02  0.00000000000E+00 0.  1.
         11    1    3    3    0    0 -0.16780194473E+02 -0.10065548020E+02 -0.16929066434E+01  0.19640675056E+02  0.51100000000E-03 0. -1.
        -11    1    3    3    0    0 -0.41222624131E+01  0.32389452746E+02 -0.64612549221E+01  0.33283892681E+02  0.51100000000E-03 0.  1.
         12    1    3    3    0    0  0.96650459419E+01 -0.16076640988E+02 -0.54609805542E+01  0.19536985620E+02  0.00000000000E+00 0. -1.
</event>
<event>
 7    1  0.1905073E-013  0.7246158E+02  0.7816164E-02  0.1226708E+00
        -11   -1    0    0    0    0  0.00000000000E+00  0.00000000000E+00  0.45593999997E+02  0.45594000000E+02  0.51100000000E-03 0.  1.
         11   -1    0    0    0    0 -0.00000000000E+00 -0.00000000000E+00 -0.45593999997E+02  0.45594000000E+02  0.51100000000E-03 0. -1.
    9900012    2    1    2    0    0  0.18479649554E+02 -0.28928486651E+00  0.30162148830E+01  0.72461583215E+02  0.70000016831E+02 0.  0.
        -12    1    1    2    0    0 -0.18479649554E+02  0.28928486651E+00 -0.30162148830E+01  0.18726416785E+02  0.00000000000E+00 0.  1.
         11    1    3    3    0    0  0.26393402006E+02  0.85890750635E+01 -0.80502885781E+01  0.28899671735E+02  0.51100000000E-03 0. -1.
        -11    1    3    3    0    0 -0.98685495231E+01  0.13528857122E+02  0.12690380672E+02  0.21011044871E+02  0.51100000000E-03 0.  1.
        -12    1    3    3    0    0  0.19547970713E+01 -0.22407217052E+02 -0.16238772111E+01  0.22550866609E+02  0.00000000000E+00 0.  1.
</event>
<event>
 7    1  0.1905073E-013  0.7246156E+02  0.7816164E-02  0.1226708E+00
        -11   -1    0    0    0    0  0.00000000000E+00  0.00000000000E+00  0.45593999997E+02  0.45594000000E+02  0.51100000000E-03 0. -1.
         11   -1    0    0    0    0 -0.00000000000E+00 -0.00000000000E+00 -0.45593999997E+02  0.45594000000E+02  0.51100000000E-03 0.  1.
    9900012    2    1    2    0    0  0.14112918030E+02 -0.12196770167E+02  0.16564847409E+01  0.72461558813E+02  0.69999985043E+02 0.  0.
        -12    1    1    2    0    0 -0.14112918030E+02  0.12196770167E+02 -0.16564847409E+01  0.18726441187E+02  0.00000000000E+00 0.  1.
         11    1    3    3    0    0  0.15900264527E+02  0.16542747845E+02  0.25480788047E+02  0.34289232684E+02  0.51100000000E-03 0. -1.
        -11    1    3    3    0    0  0.28259448131E+01 -0.61367584618E+01 -0.54286919478E+01  0.86669755411E+01  0.51100000000E-03 0.  1.
         12    1    3    3    0    0 -0.46132913102E+01 -0.22602759551E+02 -0.18395611359E+02  0.29505350587E+02  0.00000000000E+00 0. -1.
</event>
<event>
 7    1  0.1905073E-013  0.7246154E+02  0.7816164E-02  0.1226708E+00
        -11   -1    0    0    0    0  0.00000000000E+00  0.00000000000E+00  0.45593999997E+02  0.45594000000E+02  0.51100000000E-03 0. -1.
         11   -1    0    0    0    0 -0.00000000000E+00 -0.00000000000E+00 -0.45593999997E+02  0.45594000000E+02  0.51100000000E-03 0.  1.
    9900012    2    1    2    0    0 -0.14682145700E+02 -0.16168577220E+01  0.11510890536E+02  0.72461541921E+02  0.69999963038E+02 0.  0.
        -12    1    1    2    0    0  0.14682145700E+02  0.16168577220E+01 -0.11510890536E+02  0.18726458079E+02  0.00000000000E+00 0.  1.
         11    1    3    3    0    0 -0.28748658938E+01  0.25888677679E+02  0.24604858208E+01  0.26163762661E+02  0.51100000000E-03 0.  1.
        -11    1    3    3    0    0 -0.56292218210E+01 -0.34847874772E+02  0.42083612794E+01  0.35549582548E+02  0.51100000000E-03 0. -1.
         12    1    3    3    0    0 -0.61780579854E+01  0.73423393711E+01  0.48420434361E+01  0.10748196711E+02  0.00000000000E+00 0. -1.
</event>
<event>
 7    1  0.1905073E-013  0.7246154E+02  0.7816164E-02  0.1226708E+00
        -11   -1    0    0    0    0  0.00000000000E+00  0.00000000000E+00  0.45593999997E+02  0.45594000000E+02  0.51100000000E-03 0. -1.
         11   -1    0    0    0    0 -0.00000000000E+00 -0.00000000000E+00 -0.45593999997E+02  0.45594000000E+02  0.51100000000E-03 0.  1.
    9900012    2    1    2    0    0 -0.21899182380E+01  0.88741740109E+01  0.16344222030E+02  0.72461540110E+02  0.69999960679E+02 0.  0.
        -12    1    1    2    0    0  0.21899182380E+01 -0.88741740109E+01 -0.16344222030E+02  0.18726459890E+02  0.00000000000E+00 0.  1.
         11    1    3    3    0    0 -0.40535325564E+01 -0.15661418096E+02 -0.63006098735E+01  0.17361129802E+02  0.51100000000E-03 0. -1.
        -11    1    3    3    0    0 -0.13623936841E+02  0.23642044105E+02 -0.43658395695E+00  0.27290080805E+02  0.51100000000E-03 0.  1.
        -12    1    3    3    0    0  0.15487551159E+02  0.89354800171E+00  0.23081415860E+02  0.27810329503E+02  0.00000000000E+00 0.  1.
</event>
<event>
 7    1  0.1905073E-013  0.7246148E+02  0.7816164E-02  0.1226708E+00
        -11   -1    0    0    0    0  0.00000000000E+00  0.00000000000E+00  0.45593999997E+02  0.45594000000E+02  0.51100000000E-03 0.  1.
         11   -1    0    0    0    0 -0.00000000000E+00 -0.00000000000E+00 -0.45593999997E+02  0.45594000000E+02  0.51100000000E-03 0. -1.
    9900012    2    1    2    0    0 -0.49857676788E+01 -0.12947750041E+02 -0.12576984282E+02  0.72461477523E+02  0.69999879148E+02 0.  0.
        -12    1    1    2    0    0  0.49857676788E+01  0.12947750041E+02  0.12576984282E+02  0.18726522477E+02  0.00000000000E+00 0.  1.
         11    1    3    3    0    0  0.56104243976E+01  0.64314290819E+01 -0.11953312893E+02  0.14687471918E+02  0.51100000000E-03 0. -1.
        -11    1    3    3    0    0 -0.18285708741E+02 -0.29341132710E+01  0.22006425362E+02  0.28762109142E+02  0.51100000000E-03 0.  1.
        -12    1    3    3    0    0  0.76895166646E+01 -0.16445065851E+02 -0.22630096751E+02  0.29011896462E+02  0.00000000000E+00 0.  1.
</event>
<event>
 7    1  0.1905073E-013  0.7246159E+02  0.7816164E-02  0.1226708E+00
        -11   -1    0    0    0    0  0.00000000000E+00  0.00000000000E+00  0.45593999997E+02  0.45594000000E+02  0.51100000000E-03 0. -1.
         11   -1    0    0    0    0 -0.00000000000E+00 -0.00000000000E+00 -0.45593999997E+02  0.45594000000E+02  0.51100000000E-03 0.  1.
    9900012    2    1    2    0    0  0.18334237056E+02 -0.20909945114E+01 -0.31877947562E+01  0.72461587052E+02  0.70000021831E+02 0.  0.
        -12    1    1    2    0    0 -0.18334237056E+02  0.20909945114E+01  0.31877947562E+01  0.18726412948E+02  0.00000000000E+00 0.  1.
         11    1    3    3    0    0 -0.22639060724E+02 -0.13363035972E+02  0.52843712206E+01  0.26814592675E+02  0.51100000000E-03 0. -1.
        -11    1    3    3    0    0  0.14998465624E+02 -0.17473809015E+01 -0.67528125472E+01  0.16541093937E+02  0.51100000000E-03 0.  1.
         12    1    3    3    0    0  0.25974832157E+02  0.13019422362E+02 -0.17193534295E+01  0.29105900440E+02  0.00000000000E+00 0. -1.
</event>
<event>
 7    1  0.1905073E-013  0.7246159E+02  0.7816164E-02  0.1226708E+00
        -11   -1    0    0    0    0  0.00000000000E+00  0.00000000000E+00  0.45593999997E+02  0.45594000000E+02  0.51100000000E-03 0.  1.
         11   -1    0    0    0    0 -0.00000000000E+00 -0.00000000000E+00 -0.45593999997E+02  0.45594000000E+02  0.51100000000E-03 0. -1.
    9900012    2    1    2    0    0 -0.17875136405E+01  0.15932373864E+02 -0.96769085487E+01  0.72461593483E+02  0.70000030208E+02 0.  0.
        -12    1    1    2    0    0  0.17875136405E+01 -0.15932373864E+02  0.96769085487E+01  0.18726406517E+02  0.00000000000E+00 0.  1.
         11    1    3    3    0    0 -0.18708096727E+02 -0.72305239558E+01  0.13143848910E+02  0.23979869146E+02  0.51100000000E-03 0. -1.
        -11    1    3    3    0    0  0.23128198695E+02  0.59191685072E+01 -0.16795257849E+02  0.29189566923E+02  0.51100000000E-03 0.  1.
        -12    1    3    3    0    0 -0.62076156088E+01  0.17243729313E+02 -0.60254996101E+01  0.19292157415E+02  0.00000000000E+00 0.  1.
</event>
<event>
 7    1  0.1905073E-013  0.7246156E+02  0.7816164E-02  0.1226708E+00
        -11   -1    0    0    0    0  0.00000000000E+00  0.00000000000E+00  0.45593999997E+02  0.45594000000E+02  0.51100000000E-03 0. -1.
         11   -1    0    0    0    0 -0.00000000000E+00 -0.00000000000E+00 -0.45593999997E+02  0.45594000000E+02  0.51100000000E-03 0.  1.
    9900012    2    1    2    0    0 -0.13356076647E+02  0.13029683690E+02  0.15880701436E+01  0.72461563947E+02  0.69999991732E+02 0.  0.
        -12    1    1    2    0    0  0.13356076647E+02 -0.13029683690E+02 -0.15880701436E+01  0.18726436053E+02  0.00000000000E+00 0.  1.
         11    1    3    3    0    0 -0.18666238445E+02  0.15047991976E+02  0.31069329287E+02  0.39245047367E+02  0.51100000000E-03 0. -1.
        -11    1    3    3    0    0  0.79046820890E+01 -0.52627569284E+01 -0.12295382600E+02  0.15535670020E+02  0.51100000000E-03 0.  1.
         12    1    3    3    0    0 -0.25945202908E+01  0.32444486432E+01 -0.17185876544E+02  0.17680846561E+02  0.00000000000E+00 0. -1.
</event>
<event>
 7    1  0.1905073E-013  0.7246158E+02  0.7816164E-02  0.1226708E+00
        -11   -1    0    0    0    0  0.00000000000E+00  0.00000000000E+00  0.45593999997E+02  0.45594000000E+02  0.51100000000E-03 0.  1.
         11   -1    0    0    0    0 -0.00000000000E+00 -0.00000000000E+00 -0.45593999997E+02  0.45594000000E+02  0.51100000000E-03 0. -1.
    9900012    2    1    2    0    0  0.94762096856E+01  0.11817763831E+02  0.11010020768E+02  0.72461584185E+02  0.70000018095E+02 0.  0.
        -12    1    1    2    0    0 -0.94762096856E+01 -0.11817763831E+02 -0.11010020768E+02  0.18726415815E+02  0.00000000000E+00 0.  1.
         11    1    3    3    0    0 -0.54251065960E+01  0.16643209994E+01 -0.13853519708E+02  0.14970696528E+02  0.51100000000E-03 0. -1.
        -11    1    3    3    0    0  0.32348555285E+02  0.86153805553E+01  0.11278519841E+02  0.35325045240E+02  0.51100000000E-03 0.  1.
        -12    1    3    3    0    0 -0.17447239003E+02  0.15380622764E+01  0.13585020635E+02  0.22165842417E+02  0.00000000000E+00 0.  1.
</event>
<event>
 7    1  0.1905073E-013  0.7246158E+02  0.7816164E-02  0.1226708E+00
        -11   -1    0    0    0    0  0.00000000000E+00  0.00000000000E+00  0.45593999997E+02  0.45594000000E+02  0.51100000000E-03 0.  1.
         11   -1    0    0    0    0 -0.00000000000E+00 -0.00000000000E+00 -0.45593999997E+02  0.45594000000E+02  0.51100000000E-03 0. -1.
    9900012    2    1    2    0    0 -0.12446802691E+02  0.72464437224E+01 -0.11968496740E+02  0.72461581280E+02  0.70000014311E+02 0.  0.
        -12    1    1    2    0    0  0.12446802691E+02 -0.72464437224E+01  0.11968496740E+02  0.18726418720E+02  0.00000000000E+00 0.  1.
         11    1    3    3    0    0 -0.34378634917E+02 -0.97674706045E+01  0.41050356148E+00  0.35741607885E+02  0.51100000000E-03 0. -1.
        -11    1    3    3    0    0  0.11549172201E+02  0.10302275059E+02  0.42024729426E+01  0.16036864688E+02  0.51100000000E-03 0.  1.
         12    1    3    3    0    0  0.10382660025E+02  0.67116392683E+01 -0.16581473244E+02  0.20683108707E+02  0.00000000000E+00 0. -1.
</event>
<event>
 7    1  0.1905073E-013  0.7246158E+02  0.7816164E-02  0.1226708E+00
        -11   -1    0    0    0    0  0.00000000000E+00  0.00000000000E+00  0.45593999997E+02  0.45594000000E+02  0.51100000000E-03 0. -1.
         11   -1    0    0    0    0 -0.00000000000E+00 -0.00000000000E+00 -0.45593999997E+02  0.45594000000E+02  0.51100000000E-03 0.  1.
    9900012    2    1    2    0    0  0.52977059485E+01  0.15900709950E+02 -0.83534780703E+01  0.72461578529E+02  0.70000010727E+02 0.  0.
        -12    1    1    2    0    0 -0.52977059485E+01 -0.15900709950E+02  0.83534780703E+01  0.18726421471E+02  0.00000000000E+00 0.  1.
         11    1    3    3    0    0  0.13176325993E+02 -0.32656651436E+01  0.16659816775E+02  0.21490221747E+02  0.51100000000E-03 0. -1.
        -11    1    3    3    0    0  0.89868220201E+01  0.13742406170E+02 -0.28522258111E+02  0.32911030148E+02  0.51100000000E-03 0.  1.
         12    1    3    3    0    0 -0.16865442065E+02  0.54239689239E+01  0.35089632660E+01  0.18060326634E+02  0.00000000000E+00 0. -1.
</event>
<event>
 7    1  0.1905073E-013  0.7246130E+02  0.7816164E-02  0.1226709E+00
        -11   -1    0    0    0    0  0.00000000000E+00  0.00000000000E+00  0.45593999997E+02  0.45594000000E+02  0.51100000000E-03 0. -1.
         11   -1    0    0    0    0 -0.00000000000E+00 -0.00000000000E+00 -0.45593999997E+02  0.45594000000E+02  0.51100000000E-03 0.  1.
    9900012    2    1    2    0    0  0.93794363727E+01  0.11638446289E+02  0.11281047052E+02  0.72461300310E+02  0.69999648294E+02 0.  0.
        -12    1    1    2    0    0 -0.93794363727E+01 -0.11638446289E+02 -0.11281047052E+02  0.18726699690E+02  0.00000000000E+00 0.  1.
         11    1    3    3    0    0  0.17392751343E+02  0.89903308824E+00  0.32105483456E+02  0.36525034264E+02  0.51100000000E-03 0. -1.
        -11    1    3    3    0    0 -0.17013248180E+02  0.10934370796E+02 -0.13318982320E+02  0.24215828886E+02  0.51100000000E-03 0.  1.
         12    1    3    3    0    0  0.89999332093E+01 -0.19495759558E+00 -0.75054540837E+01  0.11720437161E+02  0.00000000000E+00 0. -1.
</event>
<event>
 7    1  0.1905073E-013  0.7246157E+02  0.7816164E-02  0.1226708E+00
        -11   -1    0    0    0    0  0.00000000000E+00  0.00000000000E+00  0.45593999997E+02  0.45594000000E+02  0.51100000000E-03 0.  1.
         11   -1    0    0    0    0 -0.00000000000E+00 -0.00000000000E+00 -0.45593999997E+02  0.45594000000E+02  0.51100000000E-03 0. -1.
    9900012    2    1    2    0    0 -0.86402720011E+01  0.15308288631E+02 -0.64561044707E+01  0.72461567185E+02  0.69999995949E+02 0.  0.
        -12    1    1    2    0    0  0.86402720011E+01 -0.15308288631E+02  0.64561044707E+01  0.18726432815E+02  0.00000000000E+00 0.  1.
         11    1    3    3    0    0  0.14132068969E+01 -0.71648662032E+01  0.23955770610E+02  0.25044189091E+02  0.51100000000E-03 0.  1.
        -11    1    3    3    0    0  0.21794613726E+01  0.14099151333E+02 -0.29254290409E+02  0.32547651647E+02  0.51100000000E-03 0. -1.
         12    1    3    3    0    0 -0.12232940271E+02  0.83740035013E+01 -0.11575846725E+01  0.14869726446E+02  0.00000000000E+00 0. -1.
</event>
<event>
 7    1  0.1905073E-013  0.7246176E+02  0.7816164E-02  0.1226708E+00
        -11   -1    0    0    0    0  0.00000000000E+00  0.00000000000E+00  0.45593999997E+02  0.45594000000E+02  0.51100000000E-03 0.  1.
         11   -1    0    0    0    0 -0.00000000000E+00 -0.00000000000E+00 -0.45593999997E+02  0.45594000000E+02  0.51100000000E-03 0. -1.
    9900012    2    1    2    0    0  0.15857173685E+02  0.68355351898E+00 -0.99375557700E+01  0.72461755919E+02  0.70000241811E+02 0.  0.
        -12    1    1    2    0    0 -0.15857173685E+02 -0.68355351898E+00  0.99375557700E+01  0.18726244081E+02  0.00000000000E+00 0.  1.
         11    1    3    3    0    0 -0.12736761792E+01  0.21387515713E+02 -0.94476091506E+01  0.23415921898E+02  0.51100000000E-03 0. -1.
        -11    1    3    3    0    0  0.20819194751E+02 -0.28611506653E+02 -0.93621354878E+01  0.36602004921E+02  0.51100000000E-03 0.  1.
        -12    1    3    3    0    0 -0.36883448874E+01  0.79075444588E+01  0.88721888685E+01  0.12443829101E+02  0.00000000000E+00 0.  1.
</event>
<event>
 7    1  0.1905073E-013  0.7246156E+02  0.7816164E-02  0.1226708E+00
        -11   -1    0    0    0    0  0.00000000000E+00  0.00000000000E+00  0.45593999997E+02  0.45594000000E+02  0.51100000000E-03 0.  1.
         11   -1    0    0    0    0 -0.00000000000E+00 -0.00000000000E+00 -0.45593999997E+02  0.45594000000E+02  0.51100000000E-03 0. -1.
    9900012    2    1    2    0    0  0.16308595098E+02  0.36992514017E+01  0.84276142248E+01  0.72461563699E+02  0.69999991408E+02 0.  0.
        -12    1    1    2    0    0 -0.16308595098E+02 -0.36992514017E+01 -0.84276142248E+01  0.18726436301E+02  0.00000000000E+00 0.  1.
         11    1    3    3    0    0  0.54585969323E+01  0.22460758862E+02  0.22540820929E+02  0.32285764317E+02  0.51100000000E-03 0. -1.
        -11    1    3    3    0    0 -0.21275891072E+01 -0.22152088484E+02 -0.24271781144E+01  0.22385996817E+02  0.51100000000E-03 0.  1.
         12    1    3    3    0    0  0.12977587273E+02  0.33905810243E+01 -0.11686028589E+02  0.17789802565E+02  0.00000000000E+00 0. -1.
</event>
<event>
 7    1  0.1905073E-013  0.7246162E+02  0.7816164E-02  0.1226708E+00
        -11   -1    0    0    0    0  0.00000000000E+00  0.00000000000E+00  0.45593999997E+02  0.45594000000E+02  0.51100000000E-03 0.  1.
         11   -1    0    0    0    0 -0.00000000000E+00 -0.00000000000E+00 -0.45593999997E+02  0.45594000000E+02  0.51100000000E-03 0. -1.
    9900012    2    1    2    0    0  0.10785116558E+02 -0.12920541494E+02 -0.82108612675E+01  0.72461618224E+02  0.70000062437E+02 0.  0.
        -12    1    1    2    0    0 -0.10785116558E+02  0.12920541494E+02  0.82108612675E+01  0.18726381776E+02  0.00000000000E+00 0.  1.
         11    1    3    3    0    0  0.70833840091E+01 -0.68877624987E+00 -0.13429344561E+02  0.15198553791E+02  0.51100000000E-03 0. -1.
        -11    1    3    3    0    0 -0.25672012782E+02 -0.10053551878E+02  0.25172343509E+01  0.27685061219E+02  0.51100000000E-03 0.  1.
        -12    1    3    3    0    0  0.29373745332E+02 -0.21782133652E+01  0.27012489426E+01  0.29578003214E+02  0.00000000000E+00 0.  1.
</event>
<event>
 7    1  0.1905073E-013  0.7246156E+02  0.7816164E-02  0.1226708E+00
        -11   -1    0    0    0    0  0.00000000000E+00  0.00000000000E+00  0.45593999997E+02  0.45594000000E+02  0.51100000000E-03 0.  1.
         11   -1    0    0    0    0 -0.00000000000E+00 -0.00000000000E+00 -0.45593999997E+02  0.45594000000E+02  0.51100000000E-03 0. -1.
    9900012    2    1    2    0    0 -0.10460625359E+02 -0.10361526042E+02  0.11571236767E+02  0.72461563469E+02  0.69999991109E+02 0.  0.
        -12    1    1    2    0    0  0.10460625359E+02  0.10361526042E+02 -0.11571236767E+02  0.18726436531E+02  0.00000000000E+00 0.  1.
         11    1    3    3    0    0  0.14637808750E+02 -0.77185007077E+01 -0.19610760379E+02  0.25659747097E+02  0.51100000000E-03 0. -1.
        -11    1    3    3    0    0 -0.37262226144E+01  0.19742188770E+01  0.23114023269E+02  0.23495538876E+02  0.51100000000E-03 0.  1.
        -12    1    3    3    0    0 -0.21372211494E+02 -0.46172442113E+01  0.80679738774E+01  0.23306277496E+02  0.00000000000E+00 0.  1.
</event>
<event>
 7    1  0.1905073E-013  0.7246169E+02  0.7816164E-02  0.1226708E+00
        -11   -1    0    0    0    0  0.00000000000E+00  0.00000000000E+00  0.45593999997E+02  0.45594000000E+02  0.51100000000E-03 0.  1.
         11   -1    0    0    0    0 -0.00000000000E+00 -0.00000000000E+00 -0.45593999997E+02  0.45594000000E+02  0.51100000000E-03 0. -1.
    9900012    2    1    2    0    0  0.56792241845E+01 -0.16457507919E+02  0.68972215293E+01  0.72461686453E+02  0.70000151318E+02 0.  0.
        -12    1    1    2    0    0 -0.56792241845E+01  0.16457507919E+02 -0.68972215293E+01  0.18726313547E+02  0.00000000000E+00 0.  1.
         11    1    3    3    0    0 -0.12946938892E+01 -0.37321529244E+02  0.16012473867E+02  0.40632155948E+02  0.51100000000E-03 0. -1.
        -11    1    3    3    0    0  0.10869353149E+02  0.19740155072E+02 -0.76581305936E+00  0.22547794350E+02  0.51100000000E-03 0.  1.
         12    1    3    3    0    0 -0.38954350757E+01  0.11238662528E+01 -0.83494392785E+01  0.92817361548E+01  0.00000000000E+00 0. -1.
</event>
<event>
 7    1  0.1905073E-013  0.7246157E+02  0.7816164E-02  0.1226708E+00
        -11   -1    0    0    0    0  0.00000000000E+00  0.00000000000E+00  0.45593999997E+02  0.45594000000E+02  0.51100000000E-03 0. -1.
         11   -1    0    0    0    0 -0.00000000000E+00 -0.00000000000E+00 -0.45593999997E+02  0.45594000000E+02  0.51100000000E-03 0.  1.
    9900012    2    1    2    0    0  0.55211054425E+01 -0.15053389130E+02  0.96743081476E+01  0.72461565002E+02  0.69999993106E+02 0.  0.
        -12    1    1    2    0    0 -0.55211054425E+01  0.15053389130E+02 -0.96743081476E+01  0.18726434998E+02  0.00000000000E+00 0.  1.
         11    1    3    3    0    0  0.14472144815E+02  0.15589563780E+02  0.18595514806E+02  0.28253683752E+02  0.51100000000E-03 0. -1.
        -11    1    3    3    0    0 -0.60581192761E+01 -0.23799545645E+02  0.79172426839E+01  0.25803137679E+02  0.51100000000E-03 0.  1.
         12    1    3    3    0    0 -0.28929200965E+01 -0.68434072650E+01 -0.16838449342E+02  0.18404743571E+02  0.00000000000E+00 0. -1.
</event>
<event>
 7    1  0.1905073E-013  0.7246160E+02  0.7816164E-02  0.1226708E+00
        -11   -1    0    0    0    0  0.00000000000E+00  0.00000000000E+00  0.45593999997E+02  0.45594000000E+02  0.51100000000E-03 0.  1.
         11   -1    0    0    0    0 -0.00000000000E+00 -0.00000000000E+00 -0.45593999997E+02  0.45594000000E+02  0.51100000000E-03 0. -1.
    9900012    2    1    2    0    0 -0.16646860645E+02  0.49972269133E+01 -0.69704887948E+01  0.72461602584E+02  0.70000042063E+02 0.  0.
        -12    1    1    2    0    0  0.16646860645E+02 -0.49972269133E+01  0.69704887948E+01  0.18726397416E+02  0.00000000000E+00 0.  1.
         11    1    3    3    0    0 -0.14508209005E+02  0.29735111259E+02  0.13265088184E+02  0.35645862802E+02  0.51100000000E-03 0. -1.
        -11    1    3    3    0    0  0.64991960062E+01 -0.19725782704E+02 -0.13592243213E+02  0.24821263623E+02  0.51100000000E-03 0.  1.
        -12    1    3    3    0    0 -0.86378476461E+01 -0.50121016416E+01 -0.66433337658E+01  0.11994476160E+02  0.00000000000E+00 0.  1.
</event>
<event>
 7    1  0.1905073E-013  0.7246157E+02  0.7816164E-02  0.1226708E+00
        -11   -1    0    0    0    0  0.00000000000E+00  0.00000000000E+00  0.45593999997E+02  0.45594000000E+02  0.51100000000E-03 0.  1.
         11   -1    0    0    0    0 -0.00000000000E+00 -0.00000000000E+00 -0.45593999997E+02  0.45594000000E+02  0.51100000000E-03 0. -1.
    9900012    2    1    2    0    0  0.84668822884E+01  0.13227099086E+02 -0.10199742625E+02  0.72461574940E+02  0.70000006052E+02 0.  0.
        -12    1    1    2    0    0 -0.84668822884E+01 -0.13227099086E+02  0.10199742625E+02  0.18726425060E+02  0.00000000000E+00 0.  1.
         11    1    3    3    0    0  0.30856670872E+00 -0.20719040009E+02 -0.22564186610E+01  0.20843830208E+02  0.51100000000E-03 0. -1.
        -11    1    3    3    0    0  0.12915092280E+02  0.12433148719E+02  0.12264837161E+02  0.21721165404E+02  0.51100000000E-03 0.  1.
         12    1    3    3    0    0 -0.47567767005E+01  0.21512990375E+02 -0.20208161125E+02  0.29896579328E+02  0.00000000000E+00 0. -1.
</event>
<event>
 7    1  0.1905073E-013  0.7246159E+02  0.7816164E-02  0.1226708E+00
        -11   -1    0    0    0    0  0.00000000000E+00  0.00000000000E+00  0.45593999997E+02  0.45594000000E+02  0.51100000000E-03 0.  1.
         11   -1    0    0    0    0 -0.00000000000E+00 -0.00000000000E+00 -0.45593999997E+02  0.45594000000E+02  0.51100000000E-03 0. -1.
    9900012    2    1    2    0    0  0.12121680270E+01  0.18353922329E+02  0.35132158803E+01  0.72461588117E+02  0.70000023217E+02 0.  0.
        -12    1    1    2    0    0 -0.12121680270E+01 -0.18353922329E+02 -0.35132158803E+01  0.18726411883E+02  0.00000000000E+00 0.  1.
         11    1    3    3    0    0  0.57345803536E+00 -0.21716639438E+02 -0.13576961689E+02  0.25617868209E+02  0.51100000000E-03 0. -1.
        -11    1    3    3    0    0  0.44069969064E+01  0.35272381840E+02  0.19184595633E+02  0.40393207997E+02  0.51100000000E-03 0.  1.
         12    1    3    3    0    0 -0.37682869148E+01  0.47981799274E+01 -0.20944180641E+01  0.64505119111E+01  0.00000000000E+00 0. -1.
</event>
<event>
 7    1  0.1905073E-013  0.7246157E+02  0.7816164E-02  0.1226708E+00
        -11   -1    0    0    0    0  0.00000000000E+00  0.00000000000E+00  0.45593999997E+02  0.45594000000E+02  0.51100000000E-03 0.  1.
         11   -1    0    0    0    0 -0.00000000000E+00 -0.00000000000E+00 -0.45593999997E+02  0.45594000000E+02  0.51100000000E-03 0. -1.
    9900012    2    1    2    0    0 -0.11030331276E+02 -0.17440152023E+01 -0.15032284195E+02  0.72461565070E+02  0.69999993194E+02 0.  0.
        -12    1    1    2    0    0  0.11030331276E+02  0.17440152023E+01  0.15032284195E+02  0.18726434930E+02  0.00000000000E+00 0.  1.
         11    1    3    3    0    0  0.16583811562E+02 -0.19045359423E+01  0.72575512019E+01  0.18202255706E+02  0.51100000000E-03 0.  1.
        -11    1    3    3    0    0 -0.37980107155E+02  0.16296986881E+01 -0.21701401167E+02  0.43773225495E+02  0.51100000000E-03 0. -1.
         12    1    3    3    0    0  0.10365964318E+02 -0.14691779480E+01 -0.58843422948E+00  0.10486083869E+02  0.00000000000E+00 0. -1.
</event>
<event>
 7    1  0.1905073E-013  0.7246159E+02  0.7816164E-02  0.1226708E+00
        -11   -1    0    0    0    0  0.00000000000E+00  0.00000000000E+00  0.45593999997E+02  0.45594000000E+02  0.51100000000E-03 0.  1.
         11   -1    0    0    0    0 -0.00000000000E+00 -0.00000000000E+00 -0.45593999997E+02  0.45594000000E+02  0.51100000000E-03 0. -1.
    9900012    2    1    2    0    0  0.13891357498E+02 -0.27299218738E+01 -0.12257899432E+02  0.72461591240E+02  0.70000027286E+02 0.  0.
        -12    1    1    2    0    0 -0.13891357498E+02  0.27299218738E+01  0.12257899432E+02  0.18726408760E+02  0.00000000000E+00 0.  1.
         11    1    3    3    0    0  0.59359621994E+01 -0.53175559713E+01 -0.21638144348E+02  0.23059083673E+02  0.51100000000E-03 0. -1.
        -11    1    3    3    0    0  0.23500854816E+02 -0.15223534124E+00  0.19596699311E+02  0.30599738182E+02  0.51100000000E-03 0.  1.
         12    1    3    3    0    0 -0.15545459517E+02  0.27398694387E+01 -0.10216454394E+02  0.18802769385E+02  0.00000000000E+00 0. -1.
</event>
<event>
 7    1  0.1905073E-013  0.7246156E+02  0.7816164E-02  0.1226708E+00
        -11   -1    0    0    0    0  0.00000000000E+00  0.00000000000E+00  0.45593999997E+02  0.45594000000E+02  0.51100000000E-03 0. -1.
         11   -1    0    0    0    0 -0.00000000000E+00 -0.00000000000E+00 -0.45593999997E+02  0.45594000000E+02  0.51100000000E-03 0.  1.
    9900012    2    1    2    0    0  0.11876504340E+02 -0.23061699680E+01  0.14293691083E+02  0.72461564673E+02  0.69999992677E+02 0.  0.
        -12    1    1    2    0    0 -0.11876504340E+02  0.23061699680E+01 -0.14293691083E+02  0.18726435327E+02  0.00000000000E+00 0.  1.
         11    1    3    3    0    0  0.36248298955E+02  0.55927579856E+01  0.66184008730E+01  0.37269576726E+02  0.51100000000E-03 0. -1.
        -11    1    3    3    0    0 -0.40840082464E+01 -0.12577581031E+02  0.52613618484E+01  0.14232237937E+02  0.51100000000E-03 0.  1.
         12    1    3    3    0    0 -0.20287786368E+02  0.46786530769E+01  0.24139283621E+01  0.20959750009E+02  0.00000000000E+00 0. -1.
</event>
<event>
 7    1  0.1905073E-013  0.7246157E+02  0.7816164E-02  0.1226708E+00
        -11   -1    0    0    0    0  0.00000000000E+00  0.00000000000E+00  0.45593999997E+02  0.45594000000E+02  0.51100000000E-03 0. -1.
         11   -1    0    0    0    0 -0.00000000000E+00 -0.00000000000E+00 -0.45593999997E+02  0.45594000000E+02  0.51100000000E-03 0.  1.
    9900012    2    1    2    0    0 -0.78262585291E+01 -0.33534797085E+01  0.16678822158E+02  0.72461567950E+02  0.69999996947E+02 0.  0.
        -12    1    1    2    0    0  0.78262585291E+01  0.33534797085E+01 -0.16678822158E+02  0.18726432050E+02  0.00000000000E+00 0.  1.
         11    1    3    3    0    0 -0.12007614431E+02 -0.90553490168E+01  0.95258843234E+01  0.17802376879E+02  0.51100000000E-03 0. -1.
        -11    1    3    3    0    0  0.66945081411E+01  0.25293842089E+02  0.18345995996E+02  0.31955757794E+02  0.51100000000E-03 0.  1.
        -12    1    3    3    0    0 -0.25131522394E+01 -0.19591972780E+02 -0.11193058161E+02  0.22703433278E+02  0.00000000000E+00 0.  1.
</event>
<event>
 7    1  0.1905073E-013  0.7246164E+02  0.7816164E-02  0.1226708E+00
        -11   -1    0    0    0    0  0.00000000000E+00  0.00000000000E+00  0.45593999997E+02  0.45594000000E+02  0.51100000000E-03 0.  1.
         11   -1    0    0    0    0 -0.00000000000E+00 -0.00000000000E+00 -0.45593999997E+02  0.45594000000E+02  0.51100000000E-03 0. -1.
    9900012    2    1    2    0    0 -0.22259072936E+01  0.10409198883E+02 -0.15406833463E+02  0.72461638847E+02  0.70000089303E+02 0.  0.
        -12    1    1    2    0    0  0.22259072936E+01 -0.10409198883E+02  0.15406833463E+02  0.18726361153E+02  0.00000000000E+00 0.  1.
         11    1    3    3    0    0  0.17307217192E+02 -0.30005234905E+01 -0.13135016462E+02  0.21933343700E+02  0.51100000000E-03 0. -1.
        -11    1    3    3    0    0 -0.25513090163E+02  0.19535025966E+02 -0.14781667955E+02  0.35369940867E+02  0.51100000000E-03 0.  1.
        -12    1    3    3    0    0  0.59799656774E+01 -0.61253035928E+01  0.12509850954E+02  0.15158354280E+02  0.00000000000E+00 0.  1.
</event>
<event>
 7    1  0.1905073E-013  0.7246161E+02  0.7816164E-02  0.1226708E+00
        -11   -1    0    0    0    0  0.00000000000E+00  0.00000000000E+00  0.45593999997E+02  0.45594000000E+02  0.51100000000E-03 0. -1.
         11   -1    0    0    0    0 -0.00000000000E+00 -0.00000000000E+00 -0.45593999997E+02  0.45594000000E+02  0.51100000000E-03 0.  1.
    9900012    2    1    2    0    0  0.11037077457E+02 -0.93036077674E+01  0.11929097848E+02  0.72461612955E+02  0.70000055574E+02 0.  0.
        -12    1    1    2    0    0 -0.11037077457E+02  0.93036077674E+01 -0.11929097848E+02  0.18726387045E+02  0.00000000000E+00 0.  1.
         11    1    3    3    0    0 -0.16596932531E+02  0.63419583986E+01  0.94621429609E+01  0.20129847377E+02  0.51100000000E-03 0.  1.
        -11    1    3    3    0    0  0.26793373192E+02 -0.26681451470E+02 -0.61444065602E+01  0.38308464232E+02  0.51100000000E-03 0. -1.
         12    1    3    3    0    0  0.84063679562E+00  0.11035885304E+02  0.86113614470E+01  0.14023301346E+02  0.00000000000E+00 0. -1.
</event>
<event>
 7    1  0.1905073E-013  0.7246155E+02  0.7816164E-02  0.1226708E+00
        -11   -1    0    0    0    0  0.00000000000E+00  0.00000000000E+00  0.45593999997E+02  0.45594000000E+02  0.51100000000E-03 0. -1.
         11   -1    0    0    0    0 -0.00000000000E+00 -0.00000000000E+00 -0.45593999997E+02  0.45594000000E+02  0.51100000000E-03 0.  1.
    9900012    2    1    2    0    0  0.87859558892E+01  0.16004667480E+02 -0.41638464105E+01  0.72461547614E+02  0.69999970455E+02 0.  0.
        -12    1    1    2    0    0 -0.87859558892E+01 -0.16004667480E+02  0.41638464105E+01  0.18726452386E+02  0.00000000000E+00 0.  1.
         11    1    3    3    0    0  0.12692052759E+02 -0.18198413041E+02  0.34504012727E+01  0.22453857344E+02  0.51100000000E-03 0. -1.
        -11    1    3    3    0    0 -0.18295217132E+02  0.99109633499E+01 -0.16626397753E+00  0.20807926576E+02  0.51100000000E-03 0.  1.
        -12    1    3    3    0    0  0.14389120262E+02  0.24292117170E+02 -0.74479837057E+01  0.29199763694E+02  0.00000000000E+00 0.  1.
</event>
<event>
 7    1  0.1905073E-013  0.7246154E+02  0.7816164E-02  0.1226708E+00
        -11   -1    0    0    0    0  0.00000000000E+00  0.00000000000E+00  0.45593999997E+02  0.45594000000E+02  0.51100000000E-03 0.  1.
         11   -1    0    0    0    0 -0.00000000000E+00 -0.00000000000E+00 -0.45593999997E+02  0.45594000000E+02  0.51100000000E-03 0. -1.
    9900012    2    1    2    0    0  0.34277359068E+01  0.16978802378E+02  0.71169629517E+01  0.72461541037E+02  0.69999961887E+02 0.  0.
        -12    1    1    2    0    0 -0.34277359068E+01 -0.16978802378E+02 -0.71169629517E+01  0.18726458963E+02  0.00000000000E+00 0.  1.
         11    1    3    3    0    0  0.10210037034E+02  0.14557477815E+02 -0.26071893679E+02  0.31558020484E+02  0.51100000000E-03 0. -1.
        -11    1    3    3    0    0 -0.89137026540E+01  0.11501234318E+02  0.21221510170E+02  0.25731012028E+02  0.51100000000E-03 0.  1.
        -12    1    3    3    0    0  0.21314015267E+01 -0.90799097550E+01  0.11967346461E+02  0.15172508525E+02  0.00000000000E+00 0.  1.
</event>
<event>
 7    1  0.1905073E-013  0.7246157E+02  0.7816164E-02  0.1226708E+00
        -11   -1    0    0    0    0  0.00000000000E+00  0.00000000000E+00  0.45593999997E+02  0.45594000000E+02  0.51100000000E-03 0. -1.
         11   -1    0    0    0    0 -0.00000000000E+00 -0.00000000000E+00 -0.45593999997E+02  0.45594000000E+02  0.51100000000E-03 0.  1.
    9900012    2    1    2    0    0 -0.75866663523E+01 -0.16521441255E+02 -0.44903899565E+01  0.72461571364E+02  0.70000001393E+02 0.  0.
        -12    1    1    2    0    0  0.75866663523E+01  0.16521441255E+02  0.44903899565E+01  0.18726428636E+02  0.00000000000E+00 0.  1.
         11    1    3    3    0    0 -0.39632340110E+01  0.16684835216E+02  0.11031662136E+02  0.20390893060E+02  0.51100000000E-03 0. -1.
        -11    1    3    3    0    0 -0.14081379233E+02 -0.21735024331E+02 -0.23184711750E+02  0.34759565345E+02  0.51100000000E-03 0.  1.
         12    1    3    3    0    0  0.10457946892E+02 -0.11471252141E+02  0.76626596571E+01  0.17311112959E+02  0.00000000000E+00 0. -1.
</event>
<event>
 7    1  0.1905073E-013  0.7246153E+02  0.7816164E-02  0.1226708E+00
        -11   -1    0    0    0    0  0.00000000000E+00  0.00000000000E+00  0.45593999997E+02  0.45594000000E+02  0.51100000000E-03 0.  1.
         11   -1    0    0    0    0 -0.00000000000E+00 -0.00000000000E+00 -0.45593999997E+02  0.45594000000E+02  0.51100000000E-03 0. -1.
    9900012    2    1    2    0    0  0.11302059490E+02 -0.13206269588E+02 -0.69669610542E+01  0.72461530726E+02  0.69999948455E+02 0.  0.
        -12    1    1    2    0    0 -0.11302059490E+02  0.13206269588E+02  0.69669610542E+01  0.18726469274E+02  0.00000000000E+00 0.  1.
         11    1    3    3    0    0  0.34513718373E+01 -0.83207951632E+01  0.24456267106E+02  0.26062551693E+02  0.51100000000E-03 0.  1.
        -11    1    3    3    0    0 -0.10252143743E+01 -0.56407005742E+01 -0.35951753479E+02  0.36406004257E+02  0.51100000000E-03 0. -1.
         12    1    3    3    0    0  0.88759020267E+01  0.75522614985E+00  0.45285253184E+01  0.99929747766E+01  0.00000000000E+00 0. -1.
</event>
<event>
 7    1  0.1905073E-013  0.7246174E+02  0.7816164E-02  0.1226708E+00
        -11   -1    0    0    0    0  0.00000000000E+00  0.00000000000E+00  0.45593999997E+02  0.45594000000E+02  0.51100000000E-03 0. -1.
         11   -1    0    0    0    0 -0.00000000000E+00 -0.00000000000E+00 -0.45593999997E+02  0.45594000000E+02  0.51100000000E-03 0.  1.
    9900012    2    1    2    0    0  0.16364535587E+02  0.35677360307E+01 -0.83753139072E+01  0.72461744410E+02  0.70000226818E+02 0.  0.
        -12    1    1    2    0    0 -0.16364535587E+02 -0.35677360307E+01  0.83753139072E+01  0.18726255590E+02  0.00000000000E+00 0.  1.
         11    1    3    3    0    0  0.10520795320E+02  0.50729972629E+00  0.55073307552E+01  0.11885923586E+02  0.51100000000E-03 0. -1.
        -11    1    3    3    0    0 -0.23169951390E+02 -0.41578938537E+01  0.64636400237E+01  0.24411336943E+02  0.51100000000E-03 0.  1.
        -12    1    3    3    0    0  0.29013691658E+02  0.72183301581E+01 -0.20346284686E+02  0.36164483882E+02  0.00000000000E+00 0.  1.
</event>
<event>
 7    1  0.1905073E-013  0.7246157E+02  0.7816164E-02  0.1226708E+00
        -11   -1    0    0    0    0  0.00000000000E+00  0.00000000000E+00  0.45593999997E+02  0.45594000000E+02  0.51100000000E-03 0.  1.
         11   -1    0    0    0    0 -0.00000000000E+00 -0.00000000000E+00 -0.45593999997E+02  0.45594000000E+02  0.51100000000E-03 0. -1.
    9900012    2    1    2    0    0 -0.10525493326E+02 -0.15379619257E+02 -0.18331777441E+01  0.72461568442E+02  0.69999997587E+02 0.  0.
        -12    1    1    2    0    0  0.10525493326E+02  0.15379619257E+02  0.18331777441E+01  0.18726431558E+02  0.00000000000E+00 0.  1.
         11    1    3    3    0    0  0.92351289338E+01 -0.70985215926E+01  0.13117926142E+01  0.11721664359E+02  0.51100000000E-03 0. -1.
        -11    1    3    3    0    0 -0.20594326986E+02  0.10752715969E+00  0.24402476516E+02  0.31931469219E+02  0.51100000000E-03 0.  1.
        -12    1    3    3    0    0  0.83370472633E+00 -0.83886248245E+01 -0.27547446874E+02  0.28808434864E+02  0.00000000000E+00 0.  1.
</event>
<event>
 7    1  0.2031505E-013  0.7246156E+02  0.7816164E-02  0.1226708E+00
        -11   -1    0    0    0    0  0.00000000000E+00  0.00000000000E+00  0.45593999997E+02  0.45594000000E+02  0.51100000000E-03 0. -1.
         11   -1    0    0    0    0 -0.00000000000E+00 -0.00000000000E+00 -0.45593999997E+02  0.45594000000E+02  0.51100000000E-03 0.  1.
    9900012    2    1    2    0    0 -0.10393377318E+02  0.91969945830E+01  0.12572695722E+02  0.72461556687E+02  0.69999982274E+02 0.  0.
        -12    1    1    2    0    0  0.10393377318E+02 -0.91969945830E+01 -0.12572695722E+02  0.18726443313E+02  0.00000000000E+00 0.  1.
         11    1    3    3    0    0 -0.12433440026E+00  0.27678973155E+02  0.21325253559E+02  0.34941486139E+02  0.51100000000E-03 0. -1.
        -11    1    3    3    0    0 -0.17979074535E+02 -0.13023373663E+02 -0.14449426465E+02  0.26488512759E+02  0.51100000000E-03 0.  1.
         12    1    3    3    0    0  0.77100316178E+01 -0.54586049090E+01  0.56968686288E+01  0.11031557790E+02  0.00000000000E+00 0. -1.
</event>
<event>
 7    1  0.1905073E-013  0.7246160E+02  0.7816164E-02  0.1226708E+00
        -11   -1    0    0    0    0  0.00000000000E+00  0.00000000000E+00  0.45593999997E+02  0.45594000000E+02  0.51100000000E-03 0. -1.
         11   -1    0    0    0    0 -0.00000000000E+00 -0.00000000000E+00 -0.45593999997E+02  0.45594000000E+02  0.51100000000E-03 0.  1.
    9900012    2    1    2    0    0 -0.12224791592E+02 -0.80443650643E+01  0.11684209954E+02  0.72461598824E+02  0.70000037166E+02 0.  0.
        -12    1    1    2    0    0  0.12224791592E+02  0.80443650643E+01 -0.11684209954E+02  0.18726401176E+02  0.00000000000E+00 0.  1.
         11    1    3    3    0    0 -0.26250257770E+02 -0.21633381163E+01  0.88346812142E+01  0.27781426479E+02  0.51100000000E-03 0. -1.
        -11    1    3    3    0    0  0.24974596693E+02 -0.86697353948E+01  0.13028416601E+02  0.29472604758E+02  0.51100000000E-03 0.  1.
        -12    1    3    3    0    0 -0.10949130515E+02  0.27887084468E+01 -0.10178887862E+02  0.15207567588E+02  0.00000000000E+00 0.  1.
</event>
<event>
 7    1  0.1905073E-013  0.7246136E+02  0.7816164E-02  0.1226709E+00
        -11   -1    0    0    0    0  0.00000000000E+00  0.00000000000E+00  0.45593999997E+02  0.45594000000E+02  0.51100000000E-03 0. -1.
         11   -1    0    0    0    0 -0.00000000000E+00 -0.00000000000E+00 -0.45593999997E+02  0.45594000000E+02  0.51100000000E-03 0.  1.
    9900012    2    1    2    0    0  0.54910274699E+01  0.12651432447E+02  0.12667942434E+02  0.72461364126E+02  0.69999731427E+02 0.  0.
        -12    1    1    2    0    0 -0.54910274699E+01 -0.12651432447E+02 -0.12667942434E+02  0.18726635874E+02  0.00000000000E+00 0.  1.
         11    1    3    3    0    0  0.18830035026E+02 -0.98451253509E+01 -0.12744988736E+02  0.24777640130E+02  0.51100000000E-03 0.  1.
        -11    1    3    3    0    0 -0.37842440295E+01  0.26925296428E+02  0.99048149133E+01  0.28937820397E+02  0.51100000000E-03 0. -1.
         12    1    3    3    0    0 -0.95547635267E+01 -0.44287386298E+01  0.15508116257E+02  0.18745903599E+02  0.00000000000E+00 0. -1.
</event>
<event>
 7    1  0.1905073E-013  0.7246151E+02  0.7816164E-02  0.1226708E+00
        -11   -1    0    0    0    0  0.00000000000E+00  0.00000000000E+00  0.45593999997E+02  0.45594000000E+02  0.51100000000E-03 0. -1.
         11   -1    0    0    0    0 -0.00000000000E+00 -0.00000000000E+00 -0.45593999997E+02  0.45594000000E+02  0.51100000000E-03 0.  1.
    9900012    2    1    2    0    0  0.28210130842E+01 -0.16709382622E+02  0.79699352740E+01  0.72461509386E+02  0.69999920656E+02 0.  0.
        -12    1    1    2    0    0 -0.28210130842E+01  0.16709382622E+02 -0.79699352740E+01  0.18726490614E+02  0.00000000000E+00 0.  1.
         11    1    3    3    0    0 -0.21324646002E+01 -0.14962477835E+02 -0.15868802816E+02  0.21914425644E+02  0.51100000000E-03 0.  1.
        -11    1    3    3    0    0 -0.85818215339E+01  0.86748143991E+01  0.30000453895E+02  0.32387147140E+02  0.51100000000E-03 0. -1.
         12    1    3    3    0    0  0.13535299218E+02 -0.10421719186E+02 -0.61617158051E+01  0.18159936602E+02  0.00000000000E+00 0. -1.
</event>
<event>
 8    1  0.1905073E-013  0.7246156E+02  0.7816164E-02  0.1226708E+00
        -11   -1    0    0    0    0  0.00000000000E+00  0.00000000000E+00  0.45593999997E+02  0.45594000000E+02  0.51100000000E-03 0.  1.
         11   -1    0    0    0    0 -0.00000000000E+00 -0.00000000000E+00 -0.45593999997E+02  0.45594000000E+02  0.51100000000E-03 0. -1.
    9900012    2    1    2    0    0 -0.27811990730E+01 -0.82247485262E+01 -0.16592106200E+02  0.72461560275E+02  0.69999986948E+02 0.  0.
        -24    2    3    3    0    0 -0.36584905635E+01  0.15622712967E+01 -0.22241880128E+02  0.61126863849E+02  0.56797596847E+02 0.  0.
        -12    1    1    2    0    0  0.27811990730E+01  0.82247485262E+01  0.16592106200E+02  0.18726439725E+02  0.00000000000E+00 0.  1.
         11    1    4    4    0    0  0.16202126221E+02 -0.44431805798E+01 -0.33532046694E+02  0.37505318337E+02  0.51100000000E-03 0. -1.
        -11    1    3    3    0    0  0.87729149054E+00 -0.97870198230E+01  0.56497739272E+01  0.11334696426E+02  0.51100000000E-03 0.  1.
        -12    1    4    4    0    0 -0.19860616785E+02  0.60054518765E+01  0.11290166567E+02  0.23621545513E+02  0.00000000000E+00 0.  1.
</event>
<event>
 7    1  0.1905073E-013  0.7246162E+02  0.7816164E-02  0.1226708E+00
        -11   -1    0    0    0    0  0.00000000000E+00  0.00000000000E+00  0.45593999997E+02  0.45594000000E+02  0.51100000000E-03 0.  1.
         11   -1    0    0    0    0 -0.00000000000E+00 -0.00000000000E+00 -0.45593999997E+02  0.45594000000E+02  0.51100000000E-03 0. -1.
    9900012    2    1    2    0    0  0.15551700867E+02 -0.23037444581E+01 -0.10174217761E+02  0.72461618998E+02  0.70000063445E+02 0.  0.
        -12    1    1    2    0    0 -0.15551700867E+02  0.23037444581E+01  0.10174217761E+02  0.18726381002E+02  0.00000000000E+00 0.  1.
         11    1    3    3    0    0  0.25053529522E+02 -0.36596962641E+01  0.10983300967E+02  0.27599014813E+02  0.51100000000E-03 0. -1.
        -11    1    3    3    0    0 -0.17716940340E+02 -0.13580160669E+02 -0.14165363041E+02  0.26438007662E+02  0.51100000000E-03 0.  1.
         12    1    3    3    0    0  0.82151116853E+01  0.14936112475E+02 -0.69921556873E+01  0.18424596523E+02  0.00000000000E+00 0. -1.
</event>
<event>
 7    1  0.1905073E-013  0.7246142E+02  0.7816164E-02  0.1226708E+00
        -11   -1    0    0    0    0  0.00000000000E+00  0.00000000000E+00  0.45593999997E+02  0.45594000000E+02  0.51100000000E-03 0.  1.
         11   -1    0    0    0    0 -0.00000000000E+00 -0.00000000000E+00 -0.45593999997E+02  0.45594000000E+02  0.51100000000E-03 0. -1.
    9900012    2    1    2    0    0  0.13789234703E+02 -0.12551731785E+02  0.17308784386E+01  0.72461417166E+02  0.69999800521E+02 0.  0.
        -12    1    1    2    0    0 -0.13789234703E+02  0.12551731785E+02 -0.17308784386E+01  0.18726582834E+02  0.00000000000E+00 0.  1.
         11    1    3    3    0    0  0.24808864634E-01 -0.38218977026E+01 -0.49642291866E+01  0.62650689706E+01  0.51100000000E-03 0. -1.
        -11    1    3    3    0    0  0.14101330527E+02  0.26178145811E+02 -0.32137262318E+01  0.29907705986E+02  0.51100000000E-03 0.  1.
        -12    1    3    3    0    0 -0.33690468911E+00 -0.34907979893E+02  0.99088338570E+01  0.36288642209E+02  0.00000000000E+00 0.  1.
</event>
<event>
 7    1  0.1905073E-013  0.7246154E+02  0.7816164E-02  0.1226708E+00
        -11   -1    0    0    0    0  0.00000000000E+00  0.00000000000E+00  0.45593999997E+02  0.45594000000E+02  0.51100000000E-03 0.  1.
         11   -1    0    0    0    0 -0.00000000000E+00 -0.00000000000E+00 -0.45593999997E+02  0.45594000000E+02  0.51100000000E-03 0. -1.
    9900012    2    1    2    0    0  0.29896080488E+01 -0.18480029741E+02  0.48065169693E+00  0.72461540602E+02  0.69999961320E+02 0.  0.
        -12    1    1    2    0    0 -0.29896080488E+01  0.18480029741E+02 -0.48065169693E+00  0.18726459398E+02  0.00000000000E+00 0.  1.
         11    1    3    3    0    0  0.14845454950E+02  0.20596803009E+02 -0.89909433056E+01  0.26934232654E+02  0.51100000000E-03 0. -1.
        -11    1    3    3    0    0 -0.12055873376E+02 -0.22604295753E+02  0.12927034960E+02  0.28695060593E+02  0.51100000000E-03 0.  1.
         12    1    3    3    0    0  0.20002647426E+00 -0.16472536997E+02 -0.34554399570E+01  0.16832247355E+02  0.00000000000E+00 0. -1.
</event>
<event>
 7    1  0.1905073E-013  0.7246155E+02  0.7816164E-02  0.1226708E+00
        -11   -1    0    0    0    0  0.00000000000E+00  0.00000000000E+00  0.45593999997E+02  0.45594000000E+02  0.51100000000E-03 0.  1.
         11   -1    0    0    0    0 -0.00000000000E+00 -0.00000000000E+00 -0.45593999997E+02  0.45594000000E+02  0.51100000000E-03 0. -1.
    9900012    2    1    2    0    0 -0.27463260509E+01 -0.86831244554E+01 -0.16362789922E+02  0.72461552096E+02  0.69999976293E+02 0.  0.
        -12    1    1    2    0    0  0.27463260509E+01  0.86831244554E+01  0.16362789922E+02  0.18726447904E+02  0.00000000000E+00 0.  1.
         11    1    3    3    0    0  0.13077575440E+01 -0.12368916536E+02  0.10351129372E+02  0.16181662634E+02  0.51100000000E-03 0. -1.
        -11    1    3    3    0    0 -0.21929398567E+02 -0.10949021226E+02 -0.21483242640E+02  0.32593086719E+02  0.51100000000E-03 0.  1.
        -12    1    3    3    0    0  0.17875314972E+02  0.14634813307E+02 -0.52306766544E+01  0.23686802742E+02  0.00000000000E+00 0.  1.
</event>
<event>
 7    1  0.1905073E-013  0.7246165E+02  0.7816164E-02  0.1226708E+00
        -11   -1    0    0    0    0  0.00000000000E+00  0.00000000000E+00  0.45593999997E+02  0.45594000000E+02  0.51100000000E-03 0.  1.
         11   -1    0    0    0    0 -0.00000000000E+00 -0.00000000000E+00 -0.45593999997E+02  0.45594000000E+02  0.51100000000E-03 0. -1.
    9900012    2    1    2    0    0 -0.17316283810E+02 -0.18671237029E+01 -0.68801282001E+01  0.72461654922E+02  0.70000110243E+02 0.  0.
        -12    1    1    2    0    0  0.17316283810E+02  0.18671237029E+01  0.68801282001E+01  0.18726345078E+02  0.00000000000E+00 0.  1.
         11    1    3    3    0    0  0.47595413633E+01 -0.16880419891E+02 -0.20872830976E+02  0.27263104792E+02  0.51100000000E-03 0. -1.
        -11    1    3    3    0    0 -0.16905640378E+02 -0.55220368078E+00  0.21336540460E+02  0.27227808662E+02  0.51100000000E-03 0.  1.
         12    1    3    3    0    0 -0.51701847960E+01  0.15565499869E+02 -0.73438376840E+01  0.17970741468E+02  0.00000000000E+00 0. -1.
</event>
<event>
 7    1  0.1905073E-013  0.7246141E+02  0.7816164E-02  0.1226708E+00
        -11   -1    0    0    0    0  0.00000000000E+00  0.00000000000E+00  0.45593999997E+02  0.45594000000E+02  0.51100000000E-03 0.  1.
         11   -1    0    0    0    0 -0.00000000000E+00 -0.00000000000E+00 -0.45593999997E+02  0.45594000000E+02  0.51100000000E-03 0. -1.
    9900012    2    1    2    0    0  0.40650194042E+01  0.81470139375E+01 -0.16364202534E+02  0.72461405451E+02  0.69999785260E+02 0.  0.
        -12    1    1    2    0    0 -0.40650194042E+01 -0.81470139375E+01  0.16364202534E+02  0.18726594549E+02  0.00000000000E+00 0.  1.
         11    1    3    3    0    0 -0.12630553925E+02 -0.80643126835E+00 -0.13664242361E+02  0.18625056870E+02  0.51100000000E-03 0. -1.
        -11    1    3    3    0    0  0.14527183592E+02 -0.14639807675E+02  0.13931723505E+02  0.24888872050E+02  0.51100000000E-03 0.  1.
        -12    1    3    3    0    0  0.21683897373E+01  0.23593252880E+02 -0.16631683677E+02  0.28947476530E+02  0.00000000000E+00 0.  1.
</event>
<event>
 7    1  0.1905073E-013  0.7246155E+02  0.7816164E-02  0.1226708E+00
        -11   -1    0    0    0    0  0.00000000000E+00  0.00000000000E+00  0.45593999997E+02  0.45594000000E+02  0.51100000000E-03 0.  1.
         11   -1    0    0    0    0 -0.00000000000E+00 -0.00000000000E+00 -0.45593999997E+02  0.45594000000E+02  0.51100000000E-03 0. -1.
    9900012    2    1    2    0    0  0.16663650817E+01 -0.17368538435E+02 -0.67997787729E+01  0.72461551023E+02  0.69999974895E+02 0.  0.
        -12    1    1    2    0    0 -0.16663650817E+01  0.17368538435E+02  0.67997787729E+01  0.18726448977E+02  0.00000000000E+00 0.  1.
         11    1    3    3    0    0  0.18750626391E+02 -0.64202292146E+01 -0.11972477399E+02  0.23154816962E+02  0.51100000000E-03 0. -1.
        -11    1    3    3    0    0 -0.28598947367E+02  0.53335529195E+01  0.31810338656E+01  0.29265432749E+02  0.51100000000E-03 0.  1.
        -12    1    3    3    0    0  0.11514686058E+02 -0.16281862139E+02  0.19916647607E+01  0.20041301312E+02  0.00000000000E+00 0.  1.
</event>
<event>
 7    1  0.1905073E-013  0.7246158E+02  0.7816164E-02  0.1226708E+00
        -11   -1    0    0    0    0  0.00000000000E+00  0.00000000000E+00  0.45593999997E+02  0.45594000000E+02  0.51100000000E-03 0.  1.
         11   -1    0    0    0    0 -0.00000000000E+00 -0.00000000000E+00 -0.45593999997E+02  0.45594000000E+02  0.51100000000E-03 0. -1.
    9900012    2    1    2    0    0  0.11292567979E+02 -0.97441592519E+01 -0.11322902768E+02  0.72461578607E+02  0.70000010829E+02 0.  0.
        -12    1    1    2    0    0 -0.11292567979E+02  0.97441592519E+01  0.11322902768E+02  0.18726421393E+02  0.00000000000E+00 0.  1.
         11    1    3    3    0    0 -0.23432515628E+02  0.50564614108E+00  0.55582202117E+01  0.24088011102E+02  0.51100000000E-03 0.  1.
        -11    1    3    3    0    0  0.26778605384E+02 -0.17952095971E+02 -0.18529377385E+02  0.37184799080E+02  0.51100000000E-03 0. -1.
        -12    1    3    3    0    0  0.79464782230E+01  0.77022905783E+01  0.16482544050E+01  0.11188768426E+02  0.00000000000E+00 0.  1.
</event>
<event>
 8    1  0.1905073E-013  0.7246169E+02  0.7816164E-02  0.1226708E+00
        -11   -1    0    0    0    0  0.00000000000E+00  0.00000000000E+00  0.45593999997E+02  0.45594000000E+02  0.51100000000E-03 0.  1.
         11   -1    0    0    0    0 -0.00000000000E+00 -0.00000000000E+00 -0.45593999997E+02  0.45594000000E+02  0.51100000000E-03 0. -1.
    9900012    2    1    2    0    0  0.16777314932E+01 -0.12253651016E+02  0.14060861762E+02  0.72461692845E+02  0.70000159645E+02 0.  0.
         24    2    3    3    0    0  0.15822937146E+02 -0.14961628596E+02  0.69252954466E+01  0.56388849524E+02  0.51551207196E+02 0.  0.
        -12    1    1    2    0    0 -0.16777314932E+01  0.12253651016E+02 -0.14060861762E+02  0.18726307155E+02  0.00000000000E+00 0.  1.
         11    1    3    3    0    0 -0.14145205653E+02  0.27079775799E+01  0.71355663149E+01  0.16072843321E+02  0.51100000000E-03 0. -1.
        -11    1    4    4    0    0  0.25484921325E+02 -0.26520671748E+01  0.22654374647E+02  0.34201394213E+02  0.51100000000E-03 0.  1.
         12    1    4    4    0    0 -0.96619841789E+01 -0.12309561421E+02 -0.15729079200E+02  0.22187455310E+02  0.00000000000E+00 0. -1.
</event>
<event>
 7    1  0.1905073E-013  0.7246158E+02  0.7816164E-02  0.1226708E+00
        -11   -1    0    0    0    0  0.00000000000E+00  0.00000000000E+00  0.45593999997E+02  0.45594000000E+02  0.51100000000E-03 0. -1.
         11   -1    0    0    0    0 -0.00000000000E+00 -0.00000000000E+00 -0.45593999997E+02  0.45594000000E+02  0.51100000000E-03 0.  1.
    9900012    2    1    2    0    0 -0.68723214180E+01 -0.47223715181E+00  0.17413418144E+02  0.72461576395E+02  0.70000007947E+02 0.  0.
        -12    1    1    2    0    0  0.68723214180E+01  0.47223715181E+00 -0.17413418144E+02  0.18726423605E+02  0.00000000000E+00 0.  1.
         11    1    3    3    0    0 -0.16013971511E+02 -0.46867687708E+01  0.46582048406E+01  0.17323739713E+02  0.51100000000E-03 0.  1.
        -11    1    3    3    0    0  0.97993234251E+01 -0.19667939696E+02  0.20470366439E+02  0.30031491702E+02  0.51100000000E-03 0. -1.
        -12    1    3    3    0    0 -0.65767333237E+00  0.23882471315E+02 -0.77151531355E+01  0.25106344979E+02  0.00000000000E+00 0.  1.
</event>
<event>
 7    1  0.1905073E-013  0.7246156E+02  0.7816164E-02  0.1226708E+00
        -11   -1    0    0    0    0  0.00000000000E+00  0.00000000000E+00  0.45593999997E+02  0.45594000000E+02  0.51100000000E-03 0.  1.
         11   -1    0    0    0    0 -0.00000000000E+00 -0.00000000000E+00 -0.45593999997E+02  0.45594000000E+02  0.51100000000E-03 0. -1.
    9900012    2    1    2    0    0 -0.72124674841E+01  0.17200946502E+02  0.16695126615E+01  0.72461560929E+02  0.69999987799E+02 0.  0.
        -12    1    1    2    0    0  0.72124674841E+01 -0.17200946502E+02 -0.16695126615E+01  0.18726439071E+02  0.00000000000E+00 0.  1.
         11    1    3    3    0    0 -0.93810168210E+01  0.13629977312E+01 -0.12076366624E+02  0.15352520005E+02  0.51100000000E-03 0. -1.
        -11    1    3    3    0    0  0.23383224702E+02  0.50553060671E+01  0.21412968777E+02  0.32106799109E+02  0.51100000000E-03 0.  1.
        -12    1    3    3    0    0 -0.21214675365E+02  0.10782642703E+02 -0.76670894919E+01  0.25002241815E+02  0.00000000000E+00 0.  1.
</event>
<event>
 7    1  0.1905073E-013  0.7246159E+02  0.7816164E-02  0.1226708E+00
        -11   -1    0    0    0    0  0.00000000000E+00  0.00000000000E+00  0.45593999997E+02  0.45594000000E+02  0.51100000000E-03 0.  1.
         11   -1    0    0    0    0 -0.00000000000E+00 -0.00000000000E+00 -0.45593999997E+02  0.45594000000E+02  0.51100000000E-03 0. -1.
    9900012    2    1    2    0    0 -0.16864774214E+02 -0.73410361440E+01 -0.35166791189E+01  0.72461589426E+02  0.70000024923E+02 0.  0.
        -12    1    1    2    0    0  0.16864774214E+02  0.73410361440E+01  0.35166791189E+01  0.18726410574E+02  0.00000000000E+00 0.  1.
         11    1    3    3    0    0 -0.19769106369E+02  0.19883808433E+02  0.67787701199E+01  0.28846752487E+02  0.51100000000E-03 0. -1.
        -11    1    3    3    0    0  0.13131023067E+02 -0.28921492620E+02 -0.97847400729E+01  0.33235788552E+02  0.51100000000E-03 0.  1.
        -12    1    3    3    0    0 -0.10226690911E+02  0.16966480433E+01 -0.51070916594E+00  0.10379048387E+02  0.00000000000E+00 0.  1.
</event>
<event>
 7    1  0.1905073E-013  0.7246160E+02  0.7816164E-02  0.1226708E+00
        -11   -1    0    0    0    0  0.00000000000E+00  0.00000000000E+00  0.45593999997E+02  0.45594000000E+02  0.51100000000E-03 0.  1.
         11   -1    0    0    0    0 -0.00000000000E+00 -0.00000000000E+00 -0.45593999997E+02  0.45594000000E+02  0.51100000000E-03 0. -1.
    9900012    2    1    2    0    0 -0.11039869859E+02 -0.13941846570E+02 -0.58672281307E+01  0.72461596763E+02  0.70000034480E+02 0.  0.
        -12    1    1    2    0    0  0.11039869859E+02  0.13941846570E+02  0.58672281307E+01  0.18726403237E+02  0.00000000000E+00 0.  1.
         11    1    3    3    0    0 -0.29727683547E+02  0.11119758424E+01 -0.24355840891E+02  0.38447088903E+02  0.51100000000E-03 0. -1.
        -11    1    3    3    0    0  0.47602243511E+01 -0.10941234348E+02  0.14838374026E+02  0.19040685096E+02  0.51100000000E-03 0.  1.
         12    1    3    3    0    0  0.13927589337E+02 -0.41125880641E+01  0.36502387349E+01  0.14973822763E+02  0.00000000000E+00 0. -1.
</event>
<event>
 7    1  0.1905073E-013  0.7246156E+02  0.7816164E-02  0.1226708E+00
        -11   -1    0    0    0    0  0.00000000000E+00  0.00000000000E+00  0.45593999997E+02  0.45594000000E+02  0.51100000000E-03 0.  1.
         11   -1    0    0    0    0 -0.00000000000E+00 -0.00000000000E+00 -0.45593999997E+02  0.45594000000E+02  0.51100000000E-03 0. -1.
    9900012    2    1    2    0    0  0.10128604488E+02  0.26972327749E+01 -0.15518237240E+02  0.72461564660E+02  0.69999992660E+02 0.  0.
        -12    1    1    2    0    0 -0.10128604488E+02 -0.26972327749E+01  0.15518237240E+02  0.18726435340E+02  0.00000000000E+00 0.  1.
         11    1    3    3    0    0  0.17049107929E+02  0.37831211912E+01 -0.39320592115E+02  0.43024330926E+02  0.51100000000E-03 0. -1.
        -11    1    3    3    0    0 -0.87577571173E+01 -0.65857230156E+01  0.11773528853E+02  0.16083719696E+02  0.51100000000E-03 0.  1.
         12    1    3    3    0    0  0.18372536758E+01  0.54998345994E+01  0.12028826022E+02  0.13353514038E+02  0.00000000000E+00 0. -1.
</event>
<event>
 7    1  0.1905073E-013  0.7246178E+02  0.7816164E-02  0.1226707E+00
        -11   -1    0    0    0    0  0.00000000000E+00  0.00000000000E+00  0.45593999997E+02  0.45594000000E+02  0.51100000000E-03 0.  1.
         11   -1    0    0    0    0 -0.00000000000E+00 -0.00000000000E+00 -0.45593999997E+02  0.45594000000E+02  0.51100000000E-03 0. -1.
    9900012    2    1    2    0    0  0.13837341714E+02  0.32959265424E+01 -0.12179329376E+02  0.72461782509E+02  0.70000276448E+02 0.  0.
        -12    1    1    2    0    0 -0.13837341714E+02 -0.32959265424E+01  0.12179329376E+02  0.18726217491E+02  0.00000000000E+00 0.  1.
         11    1    3    3    0    0  0.68870270018E+01 -0.17878055775E+02  0.79610708400E+01  0.20746919492E+02  0.51100000000E-03 0. -1.
        -11    1    3    3    0    0  0.74764111937E+01  0.30601398290E+02 -0.25789691508E+02  0.40711797921E+02  0.51100000000E-03 0.  1.
        -12    1    3    3    0    0 -0.52609648155E+00 -0.94274159719E+01  0.56492912914E+01  0.11003065096E+02  0.00000000000E+00 0.  1.
</event>
<event>
 7    1  0.1905073E-013  0.7246159E+02  0.7816164E-02  0.1226708E+00
        -11   -1    0    0    0    0  0.00000000000E+00  0.00000000000E+00  0.45593999997E+02  0.45594000000E+02  0.51100000000E-03 0.  1.
         11   -1    0    0    0    0 -0.00000000000E+00 -0.00000000000E+00 -0.45593999997E+02  0.45594000000E+02  0.51100000000E-03 0. -1.
    9900012    2    1    2    0    0  0.19589096752E+01  0.59817826915E+01 -0.17636879226E+02  0.72461586566E+02  0.70000021197E+02 0.  0.
        -12    1    1    2    0    0 -0.19589096752E+01 -0.59817826915E+01  0.17636879226E+02  0.18726413434E+02  0.00000000000E+00 0.  1.
         11    1    3    3    0    0  0.23202009614E+02  0.18888002052E+02  0.10646881784E+02  0.31756038223E+02  0.51100000000E-03 0. -1.
        -11    1    3    3    0    0 -0.14040071337E+02 -0.96591582161E+01 -0.77830290301E+01  0.18734953476E+02  0.51100000000E-03 0.  1.
         12    1    3    3    0    0 -0.72030286014E+01 -0.32470611449E+01 -0.20500731980E+02  0.21970594867E+02  0.00000000000E+00 0. -1.
</event>
<event>
 7    1  0.1905073E-013  0.7246159E+02  0.7816164E-02  0.1226708E+00
        -11   -1    0    0    0    0  0.00000000000E+00  0.00000000000E+00  0.45593999997E+02  0.45594000000E+02  0.51100000000E-03 0. -1.
         11   -1    0    0    0    0 -0.00000000000E+00 -0.00000000000E+00 -0.45593999997E+02  0.45594000000E+02  0.51100000000E-03 0.  1.
    9900012    2    1    2    0    0 -0.18906738093E+01  0.18228254164E+02  0.38515396061E+01  0.72461594721E+02  0.70000031821E+02 0.  0.
        -12    1    1    2    0    0  0.18906738093E+01 -0.18228254164E+02 -0.38515396061E+01  0.18726405279E+02  0.00000000000E+00 0.  1.
         11    1    3    3    0    0  0.32581939365E+01 -0.15281049298E+02  0.20468639451E+02  0.25750563035E+02  0.51100000000E-03 0.  1.
        -11    1    3    3    0    0 -0.70052140003E+01  0.30515871101E+02 -0.23386782396E+02  0.39079828599E+02  0.51100000000E-03 0. -1.
         12    1    3    3    0    0  0.18563462545E+01  0.29934323612E+01  0.67696825506E+01  0.76312030869E+01  0.00000000000E+00 0. -1.
</event>
<event>
 7    1  0.1905073E-013  0.7246154E+02  0.7816164E-02  0.1226708E+00
        -11   -1    0    0    0    0  0.00000000000E+00  0.00000000000E+00  0.45593999997E+02  0.45594000000E+02  0.51100000000E-03 0. -1.
         11   -1    0    0    0    0 -0.00000000000E+00 -0.00000000000E+00 -0.45593999997E+02  0.45594000000E+02  0.51100000000E-03 0.  1.
    9900012    2    1    2    0    0  0.33297255254E+01  0.21597052885E+01  0.18301060061E+02  0.72461542824E+02  0.69999964214E+02 0.  0.
        -12    1    1    2    0    0 -0.33297255254E+01 -0.21597052885E+01 -0.18301060061E+02  0.18726457176E+02  0.00000000000E+00 0.  1.
         11    1    3    3    0    0  0.15360244762E+02  0.14485048395E+02  0.12332197523E+02  0.24450702284E+02  0.51100000000E-03 0. -1.
        -11    1    3    3    0    0 -0.16449874418E+02 -0.25419896379E+02 -0.45827788894E+01  0.30623052802E+02  0.51100000000E-03 0.  1.
        -12    1    3    3    0    0  0.44193551819E+01  0.13094553272E+02  0.10551641428E+02  0.17387787739E+02  0.00000000000E+00 0.  1.
</event>
<event>
 7    1  0.1905073E-013  0.7246155E+02  0.7816164E-02  0.1226708E+00
        -11   -1    0    0    0    0  0.00000000000E+00  0.00000000000E+00  0.45593999997E+02  0.45594000000E+02  0.51100000000E-03 0. -1.
         11   -1    0    0    0    0 -0.00000000000E+00 -0.00000000000E+00 -0.45593999997E+02  0.45594000000E+02  0.51100000000E-03 0.  1.
    9900012    2    1    2    0    0  0.10969209352E+02  0.13251015440E+02  0.74004784421E+01  0.72461546914E+02  0.69999969543E+02 0.  0.
        -12    1    1    2    0    0 -0.10969209352E+02 -0.13251015440E+02 -0.74004784421E+01  0.18726453086E+02  0.00000000000E+00 0.  1.
         11    1    3    3    0    0 -0.21432121483E+02  0.90619636421E+01 -0.14034454373E+02  0.27173901563E+02  0.51100000000E-03 0. -1.
        -11    1    3    3    0    0  0.67231961802E+01 -0.62053875216E+01 -0.15648493286E+01  0.92820770764E+01  0.51100000000E-03 0.  1.
         12    1    3    3    0    0  0.25678134656E+02  0.10394439319E+02  0.22999782144E+02  0.36005568275E+02  0.00000000000E+00 0. -1.
</event>
<event>
 7    1  0.1905073E-013  0.7246149E+02  0.7816164E-02  0.1226708E+00
        -11   -1    0    0    0    0  0.00000000000E+00  0.00000000000E+00  0.45593999997E+02  0.45594000000E+02  0.51100000000E-03 0.  1.
         11   -1    0    0    0    0 -0.00000000000E+00 -0.00000000000E+00 -0.45593999997E+02  0.45594000000E+02  0.51100000000E-03 0. -1.
    9900012    2    1    2    0    0 -0.91545015516E+01  0.14424746901E+02  0.76683662521E+01  0.72461493043E+02  0.69999899366E+02 0.  0.
        -12    1    1    2    0    0  0.91545015516E+01 -0.14424746901E+02 -0.76683662521E+01  0.18726506957E+02  0.00000000000E+00 0.  1.
         11    1    3    3    0    0 -0.61311130726E+01  0.92222054972E-02 -0.29061949278E+02  0.29701641852E+02  0.51100000000E-03 0. -1.
        -11    1    3    3    0    0 -0.71798988294E+01  0.31141954058E+00  0.12344156040E+02  0.14283771138E+02  0.51100000000E-03 0.  1.
         12    1    3    3    0    0  0.41565103504E+01  0.14104105155E+02  0.24386159490E+02  0.28476080053E+02  0.00000000000E+00 0. -1.
</event>
<event>
 7    1  0.1905073E-013  0.7246157E+02  0.7816164E-02  0.1226708E+00
        -11   -1    0    0    0    0  0.00000000000E+00  0.00000000000E+00  0.45593999997E+02  0.45594000000E+02  0.51100000000E-03 0.  1.
         11   -1    0    0    0    0 -0.00000000000E+00 -0.00000000000E+00 -0.45593999997E+02  0.45594000000E+02  0.51100000000E-03 0. -1.
    9900012    2    1    2    0    0  0.22938441877E+01  0.11703062310E+02 -0.14437994703E+02  0.72461572694E+02  0.70000003126E+02 0.  0.
        -12    1    1    2    0    0 -0.22938441877E+01 -0.11703062310E+02  0.14437994703E+02  0.18726427306E+02  0.00000000000E+00 0.  1.
         11    1    3    3    0    0 -0.13822482323E+02 -0.10031657632E+02 -0.11284728199E+02  0.20470472960E+02  0.51100000000E-03 0. -1.
        -11    1    3    3    0    0 -0.10119621258E+01  0.27692415887E+02 -0.13805225108E+02  0.30959299178E+02  0.51100000000E-03 0.  1.
        -12    1    3    3    0    0  0.17128288636E+02 -0.59576959453E+01  0.10651958604E+02  0.21031800557E+02  0.00000000000E+00 0.  1.
</event>
<event>
 7    1  0.1905073E-013  0.7246157E+02  0.7816164E-02  0.1226708E+00
        -11   -1    0    0    0    0  0.00000000000E+00  0.00000000000E+00  0.45593999997E+02  0.45594000000E+02  0.51100000000E-03 0.  1.
         11   -1    0    0    0    0 -0.00000000000E+00 -0.00000000000E+00 -0.45593999997E+02  0.45594000000E+02  0.51100000000E-03 0. -1.
    9900012    2    1    2    0    0  0.11553427986E+02 -0.13252773123E+02 -0.64468299561E+01  0.72461566539E+02  0.69999995109E+02 0.  0.
        -12    1    1    2    0    0 -0.11553427986E+02  0.13252773123E+02  0.64468299561E+01  0.18726433461E+02  0.00000000000E+00 0.  1.
         11    1    3    3    0    0 -0.79972755937E+01 -0.83231729721E+01 -0.15106403230E+02  0.19011445080E+02  0.51100000000E-03 0. -1.
        -11    1    3    3    0    0 -0.19765844267E+00 -0.44300881452E+01  0.26477937466E+02  0.26846711578E+02  0.51100000000E-03 0.  1.
        -12    1    3    3    0    0  0.19748362022E+02 -0.49951200562E+00 -0.17818364193E+02  0.26603409881E+02  0.00000000000E+00 0.  1.
</event>
<event>
 7    1  0.1905073E-013  0.7246149E+02  0.7816164E-02  0.1226708E+00
        -11   -1    0    0    0    0  0.00000000000E+00  0.00000000000E+00  0.45593999997E+02  0.45594000000E+02  0.51100000000E-03 0.  1.
         11   -1    0    0    0    0 -0.00000000000E+00 -0.00000000000E+00 -0.45593999997E+02  0.45594000000E+02  0.51100000000E-03 0. -1.
    9900012    2    1    2    0    0 -0.48448252967E+01 -0.16618852373E+02  0.71430793055E+01  0.72461490226E+02  0.69999895696E+02 0.  0.
        -12    1    1    2    0    0  0.48448252967E+01  0.16618852373E+02 -0.71430793055E+01  0.18726509774E+02  0.00000000000E+00 0.  1.
         11    1    3    3    0    0 -0.45544632112E+01 -0.15683739578E+02 -0.29994802575E+02  0.34152759831E+02  0.51100000000E-03 0. -1.
        -11    1    3    3    0    0 -0.40820179725E+01 -0.26896928360E+01  0.14889164772E+02  0.15671137359E+02  0.51100000000E-03 0.  1.
         12    1    3    3    0    0  0.37916558870E+01  0.17545800412E+01  0.22248717108E+02  0.22637593036E+02  0.00000000000E+00 0. -1.
</event>
<event>
 7    1  0.1905073E-013  0.7246165E+02  0.7816164E-02  0.1226708E+00
        -11   -1    0    0    0    0  0.00000000000E+00  0.00000000000E+00  0.45593999997E+02  0.45594000000E+02  0.51100000000E-03 0. -1.
         11   -1    0    0    0    0 -0.00000000000E+00 -0.00000000000E+00 -0.45593999997E+02  0.45594000000E+02  0.51100000000E-03 0.  1.
    9900012    2    1    2    0    0 -0.38213660153E+01  0.44141981026E+01  0.17792930670E+02  0.72461645178E+02  0.70000097549E+02 0.  0.
        -12    1    1    2    0    0  0.38213660153E+01 -0.44141981026E+01 -0.17792930670E+02  0.18726354822E+02  0.00000000000E+00 0.  1.
         11    1    3    3    0    0 -0.79344373112E+01  0.62018298616E+01 -0.12211093341E+02  0.15828101274E+02  0.51100000000E-03 0. -1.
        -11    1    3    3    0    0  0.73772512362E+01 -0.24163093495E+02  0.13550919612E+02  0.28668909042E+02  0.51100000000E-03 0.  1.
        -12    1    3    3    0    0 -0.32641799403E+01  0.22375461737E+02  0.16453104399E+02  0.27964634862E+02  0.00000000000E+00 0.  1.
</event>
<event>
 7    1  0.1905073E-013  0.7246156E+02  0.7816164E-02  0.1226708E+00
        -11   -1    0    0    0    0  0.00000000000E+00  0.00000000000E+00  0.45593999997E+02  0.45594000000E+02  0.51100000000E-03 0.  1.
         11   -1    0    0    0    0 -0.00000000000E+00 -0.00000000000E+00 -0.45593999997E+02  0.45594000000E+02  0.51100000000E-03 0. -1.
    9900012    2    1    2    0    0  0.14017951013E+02 -0.71154227757E+01 -0.10175816956E+02  0.72461563003E+02  0.69999990502E+02 0.  0.
        -12    1    1    2    0    0 -0.14017951013E+02  0.71154227757E+01  0.10175816956E+02  0.18726436997E+02  0.00000000000E+00 0.  1.
         11    1    3    3    0    0 -0.78966478790E+00  0.30995147856E+01 -0.31372958633E+01  0.44803111475E+01  0.51100000000E-03 0. -1.
        -11    1    3    3    0    0  0.30547838341E+01 -0.15987970055E+02  0.26991113370E+02  0.31519313000E+02  0.51100000000E-03 0.  1.
        -12    1    3    3    0    0  0.11752831966E+02  0.57730324935E+01 -0.34029634463E+02  0.36461938856E+02  0.00000000000E+00 0.  1.
</event>
<event>
 7    1  0.1905073E-013  0.7246144E+02  0.7816164E-02  0.1226708E+00
        -11   -1    0    0    0    0  0.00000000000E+00  0.00000000000E+00  0.45593999997E+02  0.45594000000E+02  0.51100000000E-03 0. -1.
         11   -1    0    0    0    0 -0.00000000000E+00 -0.00000000000E+00 -0.45593999997E+02  0.45594000000E+02  0.51100000000E-03 0.  1.
    9900012    2    1    2    0    0 -0.52883120439E+01  0.15030720000E+02  0.98384515024E+01  0.72461443564E+02  0.69999834910E+02 0.  0.
        -12    1    1    2    0    0  0.52883120439E+01 -0.15030720000E+02 -0.98384515024E+01  0.18726556436E+02  0.00000000000E+00 0.  1.
         11    1    3    3    0    0  0.20444259727E+02 -0.82901627198E+01  0.14093966689E+02  0.26178893234E+02  0.51100000000E-03 0. -1.
        -11    1    3    3    0    0 -0.12535140239E+02  0.29002400812E+02 -0.44859756801E+01  0.31912269925E+02  0.51100000000E-03 0.  1.
         12    1    3    3    0    0 -0.13197431532E+02 -0.56815180931E+01  0.23046049382E+00  0.14370280405E+02  0.00000000000E+00 0. -1.
</event>
<event>
 7    1  0.1905073E-013  0.7246157E+02  0.7816164E-02  0.1226708E+00
        -11   -1    0    0    0    0  0.00000000000E+00  0.00000000000E+00  0.45593999997E+02  0.45594000000E+02  0.51100000000E-03 0.  1.
         11   -1    0    0    0    0 -0.00000000000E+00 -0.00000000000E+00 -0.45593999997E+02  0.45594000000E+02  0.51100000000E-03 0. -1.
    9900012    2    1    2    0    0  0.80784406997E+01  0.14000811500E+02 -0.94549041535E+01  0.72461571100E+02  0.70000001049E+02 0.  0.
        -12    1    1    2    0    0 -0.80784406997E+01 -0.14000811500E+02  0.94549041535E+01  0.18726428900E+02  0.00000000000E+00 0.  1.
         11    1    3    3    0    0  0.23068929094E+02 -0.76407386985E+01  0.81484447390E+01  0.25631104723E+02  0.51100000000E-03 0. -1.
        -11    1    3    3    0    0 -0.25743868120E+02  0.12352221493E+02 -0.79105720281E+01  0.29629398774E+02  0.51100000000E-03 0.  1.
         12    1    3    3    0    0  0.10753379726E+02  0.92893287056E+01 -0.96927768643E+01  0.17201067603E+02  0.00000000000E+00 0. -1.
</event>
<event>
 7    1  0.1905073E-013  0.7246155E+02  0.7816164E-02  0.1226708E+00
        -11   -1    0    0    0    0  0.00000000000E+00  0.00000000000E+00  0.45593999997E+02  0.45594000000E+02  0.51100000000E-03 0. -1.
         11   -1    0    0    0    0 -0.00000000000E+00 -0.00000000000E+00 -0.45593999997E+02  0.45594000000E+02  0.51100000000E-03 0.  1.
    9900012    2    1    2    0    0  0.13223832449E+02 -0.10260809314E+01  0.13219575773E+02  0.72461554253E+02  0.69999979103E+02 0.  0.
        -12    1    1    2    0    0 -0.13223832449E+02  0.10260809314E+01 -0.13219575773E+02  0.18726445747E+02  0.00000000000E+00 0.  1.
         11    1    3    3    0    0 -0.33097021772E+01 -0.31310934182E+02 -0.45914671341E+01  0.31818395600E+02  0.51100000000E-03 0. -1.
        -11    1    3    3    0    0  0.16796364529E+02  0.23541908300E+02  0.10688362686E+02  0.30831483989E+02  0.51100000000E-03 0.  1.
         12    1    3    3    0    0 -0.26282990336E+00  0.67429449504E+01  0.71226802216E+01  0.98116746635E+01  0.00000000000E+00 0. -1.
</event>
<event>
 7    1  0.1905073E-013  0.7246153E+02  0.7816164E-02  0.1226708E+00
        -11   -1    0    0    0    0  0.00000000000E+00  0.00000000000E+00  0.45593999997E+02  0.45594000000E+02  0.51100000000E-03 0.  1.
         11   -1    0    0    0    0 -0.00000000000E+00 -0.00000000000E+00 -0.45593999997E+02  0.45594000000E+02  0.51100000000E-03 0. -1.
    9900012    2    1    2    0    0  0.14075490551E+02  0.12247780332E+02 -0.15978072278E+01  0.72461533562E+02  0.69999952150E+02 0.  0.
        -12    1    1    2    0    0 -0.14075490551E+02 -0.12247780332E+02  0.15978072278E+01  0.18726466438E+02  0.00000000000E+00 0.  1.
         11    1    3    3    0    0  0.23260655137E+02  0.13311228679E+02 -0.30529256822E+02  0.40623668086E+02  0.51100000000E-03 0. -1.
        -11    1    3    3    0    0 -0.78724039232E+01 -0.30239957548E+01  0.11572454972E+02  0.14319253060E+02  0.51100000000E-03 0.  1.
         12    1    3    3    0    0 -0.13127606621E+01  0.19605474074E+01  0.17358994623E+02  0.17518612417E+02  0.00000000000E+00 0. -1.
</event>
<event>
 7    1  0.1905073E-013  0.7246161E+02  0.7816164E-02  0.1226708E+00
        -11   -1    0    0    0    0  0.00000000000E+00  0.00000000000E+00  0.45593999997E+02  0.45594000000E+02  0.51100000000E-03 0.  1.
         11   -1    0    0    0    0 -0.00000000000E+00 -0.00000000000E+00 -0.45593999997E+02  0.45594000000E+02  0.51100000000E-03 0. -1.
    9900012    2    1    2    0    0  0.96995567356E+01 -0.97760819172E+01 -0.12689544076E+02  0.72461609334E+02  0.70000050856E+02 0.  0.
        -12    1    1    2    0    0 -0.96995567356E+01  0.97760819172E+01  0.12689544076E+02  0.18726390666E+02  0.00000000000E+00 0.  1.
         11    1    3    3    0    0 -0.16556679822E+01 -0.17125442620E+02 -0.19623592465E+02  0.26098034464E+02  0.51100000000E-03 0. -1.
        -11    1    3    3    0    0  0.65678898825E+01  0.17872388535E+02  0.20873727083E+02  0.28253706519E+02  0.51100000000E-03 0.  1.
        -12    1    3    3    0    0  0.47873348354E+01 -0.10523027832E+02 -0.13939678695E+02  0.18109868351E+02  0.00000000000E+00 0.  1.
</event>
<event>
 7    1  0.1905073E-013  0.7246156E+02  0.7816164E-02  0.1226708E+00
        -11   -1    0    0    0    0  0.00000000000E+00  0.00000000000E+00  0.45593999997E+02  0.45594000000E+02  0.51100000000E-03 0.  1.
         11   -1    0    0    0    0 -0.00000000000E+00 -0.00000000000E+00 -0.45593999997E+02  0.45594000000E+02  0.51100000000E-03 0. -1.
    9900012    2    1    2    0    0  0.55699698704E+01  0.11076725124E+02 -0.14034289190E+02  0.72461556747E+02  0.69999982352E+02 0.  0.
        -12    1    1    2    0    0 -0.55699698704E+01 -0.11076725124E+02  0.14034289190E+02  0.18726443253E+02  0.00000000000E+00 0.  1.
         11    1    3    3    0    0 -0.56750079416E+01  0.28565394994E+01 -0.17507298845E+02  0.18624474387E+02  0.51100000000E-03 0. -1.
        -11    1    3    3    0    0  0.20293342813E+02 -0.14447660567E+02  0.12428105717E+02  0.27839045788E+02  0.51100000000E-03 0.  1.
        -12    1    3    3    0    0 -0.90483650009E+01  0.22667846192E+02 -0.89550960621E+01  0.25998036573E+02  0.00000000000E+00 0.  1.
</event>
<event>
 7    1  0.1905073E-013  0.7246157E+02  0.7816164E-02  0.1226708E+00
        -11   -1    0    0    0    0  0.00000000000E+00  0.00000000000E+00  0.45593999997E+02  0.45594000000E+02  0.51100000000E-03 0. -1.
         11   -1    0    0    0    0 -0.00000000000E+00 -0.00000000000E+00 -0.45593999997E+02  0.45594000000E+02  0.51100000000E-03 0.  1.
    9900012    2    1    2    0    0  0.78083678991E+01  0.10419905200E+02  0.13458606388E+02  0.72461571629E+02  0.70000001739E+02 0.  0.
        -12    1    1    2    0    0 -0.78083678991E+01 -0.10419905200E+02 -0.13458606388E+02  0.18726428371E+02  0.00000000000E+00 0.  1.
         11    1    3    3    0    0  0.58807041694E+01 -0.19644102932E+02 -0.85000573632E+01  0.22197397077E+02  0.51100000000E-03 0. -1.
        -11    1    3    3    0    0  0.13380632461E+02  0.29209754493E+02  0.99183087432E+01  0.33624751764E+02  0.51100000000E-03 0.  1.
        -12    1    3    3    0    0 -0.11452968731E+02  0.85425363913E+00  0.12040355008E+02  0.16639422789E+02  0.00000000000E+00 0.  1.
</event>
<event>
 7    1  0.1905073E-013  0.7246201E+02  0.7816164E-02  0.1226707E+00
        -11   -1    0    0    0    0  0.00000000000E+00  0.00000000000E+00  0.45593999997E+02  0.45594000000E+02  0.51100000000E-03 0. -1.
         11   -1    0    0    0    0 -0.00000000000E+00 -0.00000000000E+00 -0.45593999997E+02  0.45594000000E+02  0.51100000000E-03 0.  1.
    9900012    2    1    2    0    0 -0.18098789434E+02 -0.44233212641E+01  0.18790648107E+01  0.72462006447E+02  0.70000568167E+02 0.  0.
        -12    1    1    2    0    0  0.18098789434E+02  0.44233212641E+01 -0.18790648107E+01  0.18725993553E+02  0.00000000000E+00 0.  1.
         11    1    3    3    0    0 -0.18247328624E+02  0.10690731281E+02 -0.14890851836E+02  0.25864922306E+02  0.51100000000E-03 0.  1.
        -11    1    3    3    0    0  0.13628210575E+02  0.40824347271E+01  0.18195896413E+02  0.23097295152E+02  0.51100000000E-03 0. -1.
         12    1    3    3    0    0 -0.13479671385E+02 -0.19196487272E+02 -0.14259797672E+01  0.23499788989E+02  0.00000000000E+00 0. -1.
</event>
<event>
 7    1  0.1905073E-013  0.7246155E+02  0.7816164E-02  0.1226708E+00
        -11   -1    0    0    0    0  0.00000000000E+00  0.00000000000E+00  0.45593999997E+02  0.45594000000E+02  0.51100000000E-03 0. -1.
         11   -1    0    0    0    0 -0.00000000000E+00 -0.00000000000E+00 -0.45593999997E+02  0.45594000000E+02  0.51100000000E-03 0.  1.
    9900012    2    1    2    0    0  0.42687378451E+01 -0.16962641800E+02 -0.66877903422E+01  0.72461551344E+02  0.69999975313E+02 0.  0.
        -12    1    1    2    0    0 -0.42687378451E+01  0.16962641800E+02  0.66877903422E+01  0.18726448656E+02  0.00000000000E+00 0.  1.
         11    1    3    3    0    0  0.90437186382E+01 -0.34203881306E+02  0.95740633762E+00  0.35392244494E+02  0.51100000000E-03 0. -1.
        -11    1    3    3    0    0 -0.11927587249E+02 -0.15891388513E+01 -0.11404140833E+02  0.16578514055E+02  0.51100000000E-03 0.  1.
         12    1    3    3    0    0  0.71526064561E+01  0.18830378357E+02  0.37589441532E+01  0.20490792794E+02  0.00000000000E+00 0. -1.
</event>
<event>
 7    1  0.1905073E-013  0.7246153E+02  0.7816164E-02  0.1226708E+00
        -11   -1    0    0    0    0  0.00000000000E+00  0.00000000000E+00  0.45593999997E+02  0.45594000000E+02  0.51100000000E-03 0. -1.
         11   -1    0    0    0    0 -0.00000000000E+00 -0.00000000000E+00 -0.45593999997E+02  0.45594000000E+02  0.51100000000E-03 0.  1.
    9900012    2    1    2    0    0 -0.14339900531E+02  0.10021871037E+02  0.66790644021E+01  0.72461533499E+02  0.69999952067E+02 0.  0.
        -12    1    1    2    0    0  0.14339900531E+02 -0.10021871037E+02 -0.66790644021E+01  0.18726466501E+02  0.00000000000E+00 0.  1.
         11    1    3    3    0    0  0.18375337567E+02 -0.14015996163E+02  0.12425926652E+02  0.26239375613E+02  0.51100000000E-03 0. -1.
        -11    1    3    3    0    0 -0.10431467562E+02  0.26846883876E+01 -0.10444507550E+02  0.15003693060E+02  0.51100000000E-03 0.  1.
         12    1    3    3    0    0 -0.22283770537E+02  0.21353178812E+02  0.46976452995E+01  0.31218464825E+02  0.00000000000E+00 0. -1.
</event>
<event>
 7    1  0.1905073E-013  0.7246157E+02  0.7816164E-02  0.1226708E+00
        -11   -1    0    0    0    0  0.00000000000E+00  0.00000000000E+00  0.45593999997E+02  0.45594000000E+02  0.51100000000E-03 0.  1.
         11   -1    0    0    0    0 -0.00000000000E+00 -0.00000000000E+00 -0.45593999997E+02  0.45594000000E+02  0.51100000000E-03 0. -1.
    9900012    2    1    2    0    0 -0.97916722383E+01 -0.14488691357E+02 -0.66992647053E+01  0.72461570280E+02  0.69999999981E+02 0.  0.
        -12    1    1    2    0    0  0.97916722383E+01  0.14488691357E+02  0.66992647053E+01  0.18726429720E+02  0.00000000000E+00 0.  1.
         11    1    3    3    0    0 -0.66438919966E+00  0.42146295931E+01 -0.20899398463E+02  0.21330479881E+02  0.51100000000E-03 0. -1.
        -11    1    3    3    0    0 -0.21033226528E+02  0.40771807696E+01  0.13683792182E+02  0.25421766067E+02  0.51100000000E-03 0.  1.
        -12    1    3    3    0    0  0.11905943489E+02 -0.22780501720E+02  0.51634157510E+00  0.25709324332E+02  0.00000000000E+00 0.  1.
</event>
<event>
 7    1  0.1905073E-013  0.7246157E+02  0.7816164E-02  0.1226708E+00
        -11   -1    0    0    0    0  0.00000000000E+00  0.00000000000E+00  0.45593999997E+02  0.45594000000E+02  0.51100000000E-03 0.  1.
         11   -1    0    0    0    0 -0.00000000000E+00 -0.00000000000E+00 -0.45593999997E+02  0.45594000000E+02  0.51100000000E-03 0. -1.
    9900012    2    1    2    0    0 -0.18273011921E+02 -0.17228360145E+01  0.37159017941E+01  0.72461573359E+02  0.70000003992E+02 0.  0.
        -12    1    1    2    0    0  0.18273011921E+02  0.17228360145E+01 -0.37159017941E+01  0.18726426641E+02  0.00000000000E+00 0.  1.
         11    1    3    3    0    0 -0.15042471238E+02  0.18933294779E+02  0.70717100460E+01  0.25194338161E+02  0.51100000000E-03 0. -1.
        -11    1    3    3    0    0 -0.26524124180E+01 -0.16083601381E+02  0.18658208702E+02  0.24775921320E+02  0.51100000000E-03 0.  1.
         12    1    3    3    0    0 -0.57812826524E+00 -0.45725294120E+01 -0.22014016954E+02  0.22491313878E+02  0.00000000000E+00 0. -1.
</event>
<event>
 7    1  0.1905073E-013  0.7246130E+02  0.7816164E-02  0.1226709E+00
        -11   -1    0    0    0    0  0.00000000000E+00  0.00000000000E+00  0.45593999997E+02  0.45594000000E+02  0.51100000000E-03 0. -1.
         11   -1    0    0    0    0 -0.00000000000E+00 -0.00000000000E+00 -0.45593999997E+02  0.45594000000E+02  0.51100000000E-03 0.  1.
    9900012    2    1    2    0    0  0.12707241021E+02 -0.80990909056E+01  0.11118461487E+02  0.72461296241E+02  0.69999642993E+02 0.  0.
        -12    1    1    2    0    0 -0.12707241021E+02  0.80990909056E+01 -0.11118461487E+02  0.18726703759E+02  0.00000000000E+00 0.  1.
         11    1    3    3    0    0  0.99203650030E+01 -0.18126744811E+02  0.14098003345E+02  0.25014919904E+02  0.51100000000E-03 0. -1.
        -11    1    3    3    0    0 -0.81356411391E+01  0.26084374218E+02 -0.54759952898E+01  0.27867001270E+02  0.51100000000E-03 0.  1.
        -12    1    3    3    0    0  0.10922517157E+02 -0.16056720313E+02  0.24964534315E+01  0.19579375066E+02  0.00000000000E+00 0.  1.
</event>
<event>
 7    1  0.1905073E-013  0.7246168E+02  0.7816164E-02  0.1226708E+00
        -11   -1    0    0    0    0  0.00000000000E+00  0.00000000000E+00  0.45593999997E+02  0.45594000000E+02  0.51100000000E-03 0. -1.
         11   -1    0    0    0    0 -0.00000000000E+00 -0.00000000000E+00 -0.45593999997E+02  0.45594000000E+02  0.51100000000E-03 0.  1.
    9900012    2    1    2    0    0 -0.11781373403E+02  0.11772420789E+02  0.85606378817E+01  0.72461677044E+02  0.70000139061E+02 0.  0.
        -12    1    1    2    0    0  0.11781373403E+02 -0.11772420789E+02 -0.85606378817E+01  0.18726322956E+02  0.00000000000E+00 0.  1.
         11    1    3    3    0    0  0.20113524943E+02  0.16401309650E+02 -0.72792778395E+01  0.26954493688E+02  0.51100000000E-03 0. -1.
        -11    1    3    3    0    0 -0.37167586112E+01 -0.38379600364E+01  0.16465914429E+02  0.17310995640E+02  0.51100000000E-03 0.  1.
         12    1    3    3    0    0 -0.28178139735E+02 -0.79092882366E+00 -0.62599870729E+00  0.28196187716E+02  0.00000000000E+00 0. -1.
</event>
<event>
 7    1  0.1905073E-013  0.7246156E+02  0.7816164E-02  0.1226708E+00
        -11   -1    0    0    0    0  0.00000000000E+00  0.00000000000E+00  0.45593999997E+02  0.45594000000E+02  0.51100000000E-03 0. -1.
         11   -1    0    0    0    0 -0.00000000000E+00 -0.00000000000E+00 -0.45593999997E+02  0.45594000000E+02  0.51100000000E-03 0.  1.
    9900012    2    1    2    0    0 -0.14480971201E+02  0.85761308357E+01  0.82116357960E+01  0.72461561217E+02  0.69999988176E+02 0.  0.
        -12    1    1    2    0    0  0.14480971201E+02 -0.85761308357E+01 -0.82116357960E+01  0.18726438783E+02  0.00000000000E+00 0.  1.
         11    1    3    3    0    0 -0.22823509947E+02 -0.67043660846E+01  0.91276410531E+01  0.25478912110E+02  0.51100000000E-03 0. -1.
        -11    1    3    3    0    0  0.16960923900E+02  0.14875921324E+02 -0.17324038816E+02  0.28444477424E+02  0.51100000000E-03 0.  1.
        -12    1    3    3    0    0 -0.86183851546E+01  0.40457559632E+00  0.16408033559E+02  0.18538171683E+02  0.00000000000E+00 0.  1.
</event>
<event>
 7    1  0.1905073E-013  0.7246156E+02  0.7816164E-02  0.1226708E+00
        -11   -1    0    0    0    0  0.00000000000E+00  0.00000000000E+00  0.45593999997E+02  0.45594000000E+02  0.51100000000E-03 0. -1.
         11   -1    0    0    0    0 -0.00000000000E+00 -0.00000000000E+00 -0.45593999997E+02  0.45594000000E+02  0.51100000000E-03 0.  1.
    9900012    2    1    2    0    0 -0.11344166409E+02 -0.12740592404E+02  0.77244288338E+01  0.72461558610E+02  0.69999984779E+02 0.  0.
        -12    1    1    2    0    0  0.11344166409E+02  0.12740592404E+02 -0.77244288338E+01  0.18726441390E+02  0.00000000000E+00 0.  1.
         11    1    3    3    0    0  0.67676714302E+01 -0.13422765552E+02  0.28149642799E+02  0.31911978968E+02  0.51100000000E-03 0. -1.
        -11    1    3    3    0    0  0.26366086156E+01  0.11353775705E+02 -0.77463236828E+01  0.13995194126E+02  0.51100000000E-03 0.  1.
         12    1    3    3    0    0 -0.20748446455E+02 -0.10671602556E+02 -0.12678890282E+02  0.26554385517E+02  0.00000000000E+00 0. -1.
</event>
<event>
 7    1  0.1905073E-013  0.7246159E+02  0.7816164E-02  0.1226708E+00
        -11   -1    0    0    0    0  0.00000000000E+00  0.00000000000E+00  0.45593999997E+02  0.45594000000E+02  0.51100000000E-03 0. -1.
         11   -1    0    0    0    0 -0.00000000000E+00 -0.00000000000E+00 -0.45593999997E+02  0.45594000000E+02  0.51100000000E-03 0.  1.
    9900012    2    1    2    0    0 -0.15958065113E+01  0.18275164109E+02 -0.37616943992E+01  0.72461586399E+02  0.70000020979E+02 0.  0.
        -12    1    1    2    0    0  0.15958065113E+01 -0.18275164109E+02  0.37616943992E+01  0.18726413601E+02  0.00000000000E+00 0.  1.
         11    1    3    3    0    0 -0.11235060818E+01  0.20437859259E+02 -0.62593157823E+01  0.21404377854E+02  0.51100000000E-03 0. -1.
        -11    1    3    3    0    0  0.52075829199E+01 -0.21323719895E+02 -0.13226925965E+02  0.25627553937E+02  0.51100000000E-03 0.  1.
        -12    1    3    3    0    0 -0.56798833494E+01  0.19161024745E+02  0.15724547349E+02  0.25429654608E+02  0.00000000000E+00 0.  1.
</event>
<event>
 7    1  0.1905073E-013  0.7246155E+02  0.7816164E-02  0.1226708E+00
        -11   -1    0    0    0    0  0.00000000000E+00  0.00000000000E+00  0.45593999997E+02  0.45594000000E+02  0.51100000000E-03 0.  1.
         11   -1    0    0    0    0 -0.00000000000E+00 -0.00000000000E+00 -0.45593999997E+02  0.45594000000E+02  0.51100000000E-03 0. -1.
    9900012    2    1    2    0    0 -0.11629623881E+02  0.14351229725E+02  0.30779540579E+01  0.72461554864E+02  0.69999979899E+02 0.  0.
        -12    1    1    2    0    0  0.11629623881E+02 -0.14351229725E+02 -0.30779540579E+01  0.18726445136E+02  0.00000000000E+00 0.  1.
         11    1    3    3    0    0 -0.19944405206E+02 -0.80844223910E+01 -0.10558159487E+02  0.23971064149E+02  0.51100000000E-03 0. -1.
        -11    1    3    3    0    0  0.84895766640E+01 -0.10400173616E+02  0.63703827049E+01  0.14859956233E+02  0.51100000000E-03 0.  1.
         12    1    3    3    0    0 -0.17479533900E+00  0.32835825733E+02  0.72657308397E+01  0.33630534483E+02  0.00000000000E+00 0. -1.
</event>
<event>
 7    1  0.1905073E-013  0.7246141E+02  0.7816164E-02  0.1226708E+00
        -11   -1    0    0    0    0  0.00000000000E+00  0.00000000000E+00  0.45593999997E+02  0.45594000000E+02  0.51100000000E-03 0. -1.
         11   -1    0    0    0    0 -0.00000000000E+00 -0.00000000000E+00 -0.45593999997E+02  0.45594000000E+02  0.51100000000E-03 0.  1.
    9900012    2    1    2    0    0  0.12506946032E+02  0.13627274271E+02  0.29255839706E+01  0.72461405417E+02  0.69999785216E+02 0.  0.
        -12    1    1    2    0    0 -0.12506946032E+02 -0.13627274271E+02 -0.29255839706E+01  0.18726594583E+02  0.00000000000E+00 0.  1.
         11    1    3    3    0    0  0.17058466498E+01 -0.15037808819E+02  0.92116965055E+01  0.17717250341E+02  0.51100000000E-03 0. -1.
        -11    1    3    3    0    0  0.81659585307E+01  0.36568842077E+02 -0.17021996818E+02  0.41154725920E+02  0.51100000000E-03 0.  1.
        -12    1    3    3    0    0  0.26351408520E+01 -0.79037589873E+01  0.10735884284E+02  0.13589429156E+02  0.00000000000E+00 0.  1.
</event>
<event>
 7    1  0.1905073E-013  0.7246151E+02  0.7816164E-02  0.1226708E+00
        -11   -1    0    0    0    0  0.00000000000E+00  0.00000000000E+00  0.45593999997E+02  0.45594000000E+02  0.51100000000E-03 0. -1.
         11   -1    0    0    0    0 -0.00000000000E+00 -0.00000000000E+00 -0.45593999997E+02  0.45594000000E+02  0.51100000000E-03 0.  1.
    9900012    2    1    2    0    0 -0.66253756080E+00  0.39130190080E+01  0.18301111981E+02  0.72461511447E+02  0.69999923341E+02 0.  0.
        -12    1    1    2    0    0  0.66253756080E+00 -0.39130190080E+01 -0.18301111981E+02  0.18726488553E+02  0.00000000000E+00 0.  1.
         11    1    3    3    0    0 -0.17621703125E+02 -0.14885515132E+02 -0.12829142626E+02  0.26394883644E+02  0.51100000000E-03 0. -1.
        -11    1    3    3    0    0 -0.17102946496E+01  0.14153536628E+02  0.95694614897E+01  0.17170390221E+02  0.51100000000E-03 0.  1.
         12    1    3    3    0    0  0.18669460214E+02  0.46449975119E+01  0.21560793118E+02  0.28896237582E+02  0.00000000000E+00 0. -1.
</event>
<event>
 7    1  0.1905073E-013  0.7246154E+02  0.7816164E-02  0.1226708E+00
        -11   -1    0    0    0    0  0.00000000000E+00  0.00000000000E+00  0.45593999997E+02  0.45594000000E+02  0.51100000000E-03 0.  1.
         11   -1    0    0    0    0 -0.00000000000E+00 -0.00000000000E+00 -0.45593999997E+02  0.45594000000E+02  0.51100000000E-03 0. -1.
    9900012    2    1    2    0    0  0.11178123574E+02 -0.24662583302E+00 -0.15022288320E+02  0.72461536979E+02  0.69999956600E+02 0.  0.
        -12    1    1    2    0    0 -0.11178123574E+02  0.24662583302E+00  0.15022288320E+02  0.18726463021E+02  0.00000000000E+00 0.  1.
         11    1    3    3    0    0 -0.11656774219E+02 -0.15668232008E+02 -0.22176716229E+02  0.29549629819E+02  0.51100000000E-03 0. -1.
        -11    1    3    3    0    0  0.29658334859E+01  0.17740974880E+02  0.12858445221E+02  0.22110585060E+02  0.51100000000E-03 0.  1.
        -12    1    3    3    0    0  0.19869064307E+02 -0.23193687050E+01 -0.57040173108E+01  0.20801322100E+02  0.00000000000E+00 0.  1.
</event>
<event>
 7    1  0.1905073E-013  0.7246157E+02  0.7816164E-02  0.1226708E+00
        -11   -1    0    0    0    0  0.00000000000E+00  0.00000000000E+00  0.45593999997E+02  0.45594000000E+02  0.51100000000E-03 0.  1.
         11   -1    0    0    0    0 -0.00000000000E+00 -0.00000000000E+00 -0.45593999997E+02  0.45594000000E+02  0.51100000000E-03 0. -1.
    9900012    2    1    2    0    0 -0.23179268077E+00  0.17651242752E+02 -0.62497311237E+01  0.72461568475E+02  0.69999997630E+02 0.  0.
        -12    1    1    2    0    0  0.23179268077E+00 -0.17651242752E+02  0.62497311237E+01  0.18726431525E+02  0.00000000000E+00 0.  1.
         11    1    3    3    0    0 -0.10870163512E+02  0.23042254313E+02 -0.16659406865E+01  0.25531966184E+02  0.51100000000E-03 0. -1.
        -11    1    3    3    0    0  0.15023651603E+02 -0.74419121778E+01  0.17550757478E+02  0.24271820135E+02  0.51100000000E-03 0.  1.
        -12    1    3    3    0    0 -0.43852807721E+01  0.20509006164E+01 -0.22134547916E+02  0.22657782156E+02  0.00000000000E+00 0.  1.
</event>
<event>
 7    1  0.1905073E-013  0.7246160E+02  0.7816164E-02  0.1226708E+00
        -11   -1    0    0    0    0  0.00000000000E+00  0.00000000000E+00  0.45593999997E+02  0.45594000000E+02  0.51100000000E-03 0.  1.
         11   -1    0    0    0    0 -0.00000000000E+00 -0.00000000000E+00 -0.45593999997E+02  0.45594000000E+02  0.51100000000E-03 0. -1.
    9900012    2    1    2    0    0 -0.25847469446E+01  0.18434036726E+02 -0.20453242103E+01  0.72461602110E+02  0.70000041446E+02 0.  0.
        -12    1    1    2    0    0  0.25847469446E+01 -0.18434036726E+02  0.20453242103E+01  0.18726397890E+02  0.00000000000E+00 0.  1.
         11    1    3    3    0    0 -0.73806176668E+01  0.89623280356E+01 -0.21634521731E+02  0.24552991096E+02  0.51100000000E-03 0. -1.
        -11    1    3    3    0    0 -0.93289571483E+01  0.22588181038E+02  0.11350944716E+02  0.26946229983E+02  0.51100000000E-03 0.  1.
        -12    1    3    3    0    0  0.14124827870E+02 -0.13116472347E+02  0.82382528051E+01  0.20962381031E+02  0.00000000000E+00 0.  1.
</event>
<event>
 7    1  0.1905073E-013  0.7246156E+02  0.7816164E-02  0.1226708E+00
        -11   -1    0    0    0    0  0.00000000000E+00  0.00000000000E+00  0.45593999997E+02  0.45594000000E+02  0.51100000000E-03 0.  1.
         11   -1    0    0    0    0 -0.00000000000E+00 -0.00000000000E+00 -0.45593999997E+02  0.45594000000E+02  0.51100000000E-03 0. -1.
    9900012    2    1    2    0    0 -0.80275271794E+01  0.13881567263E+02 -0.96716402723E+01  0.72461555387E+02  0.69999980580E+02 0.  0.
        -12    1    1    2    0    0  0.80275271794E+01 -0.13881567263E+02  0.96716402723E+01  0.18726444613E+02  0.00000000000E+00 0.  1.
         11    1    3    3    0    0  0.16162758665E+01  0.22260412529E+02 -0.12758502044E+02  0.25708319437E+02  0.51100000000E-03 0. -1.
        -11    1    3    3    0    0 -0.92902243428E+01 -0.26723299552E+02  0.13706346280E+01  0.28325282820E+02  0.51100000000E-03 0.  1.
        -12    1    3    3    0    0 -0.35357870310E+00  0.18344454286E+02  0.17162271431E+01  0.18427953130E+02  0.00000000000E+00 0.  1.
</event>
<event>
 7    1  0.1905073E-013  0.7246154E+02  0.7816164E-02  0.1226708E+00
        -11   -1    0    0    0    0  0.00000000000E+00  0.00000000000E+00  0.45593999997E+02  0.45594000000E+02  0.51100000000E-03 0. -1.
         11   -1    0    0    0    0 -0.00000000000E+00 -0.00000000000E+00 -0.45593999997E+02  0.45594000000E+02  0.51100000000E-03 0.  1.
    9900012    2    1    2    0    0  0.25478214522E+01  0.18542480879E+02  0.60451787430E+00  0.72461536555E+02  0.69999956048E+02 0.  0.
        -12    1    1    2    0    0 -0.25478214522E+01 -0.18542480879E+02 -0.60451787430E+00  0.18726463445E+02  0.00000000000E+00 0.  1.
         11    1    3    3    0    0  0.33667315703E+00  0.14008856524E+02 -0.33125229288E+01  0.14399104776E+02  0.51100000000E-03 0. -1.
        -11    1    3    3    0    0  0.60410767529E+01 -0.24493422043E+02  0.11638622054E+02  0.27782725843E+02  0.51100000000E-03 0.  1.
        -12    1    3    3    0    0 -0.38299284578E+01  0.29027046397E+02 -0.77215812505E+01  0.30279705936E+02  0.00000000000E+00 0.  1.
</event>
<event>
 7    1  0.1905073E-013  0.7246155E+02  0.7816164E-02  0.1226708E+00
        -11   -1    0    0    0    0  0.00000000000E+00  0.00000000000E+00  0.45593999997E+02  0.45594000000E+02  0.51100000000E-03 0. -1.
         11   -1    0    0    0    0 -0.00000000000E+00 -0.00000000000E+00 -0.45593999997E+02  0.45594000000E+02  0.51100000000E-03 0.  1.
    9900012    2    1    2    0    0 -0.12976031812E+02 -0.72212064196E+01 -0.11408628455E+02  0.72461547400E+02  0.69999970176E+02 0.  0.
        -12    1    1    2    0    0  0.12976031812E+02  0.72212064196E+01  0.11408628455E+02  0.18726452600E+02  0.00000000000E+00 0.  1.
         11    1    3    3    0    0 -0.19470497273E+02  0.16438012309E+02 -0.14933538122E+02  0.29535048229E+02  0.51100000000E-03 0. -1.
        -11    1    3    3    0    0  0.15539289750E+02  0.30616807302E+00  0.70557749158E+01  0.17068896413E+02  0.51100000000E-03 0.  1.
         12    1    3    3    0    0 -0.90448242893E+01 -0.23965386802E+02 -0.35308652486E+01  0.25857602758E+02  0.00000000000E+00 0. -1.
</event>
<event>
 7    1  0.1905073E-013  0.7246155E+02  0.7816164E-02  0.1226708E+00
        -11   -1    0    0    0    0  0.00000000000E+00  0.00000000000E+00  0.45593999997E+02  0.45594000000E+02  0.51100000000E-03 0.  1.
         11   -1    0    0    0    0 -0.00000000000E+00 -0.00000000000E+00 -0.45593999997E+02  0.45594000000E+02  0.51100000000E-03 0. -1.
    9900012    2    1    2    0    0 -0.18424525397E+01 -0.17708607278E+02 -0.58043695201E+01  0.72461545220E+02  0.69999967336E+02 0.  0.
        -12    1    1    2    0    0  0.18424525397E+01  0.17708607278E+02  0.58043695201E+01  0.18726454780E+02  0.00000000000E+00 0.  1.
         11    1    3    3    0    0 -0.11576910865E+02 -0.21757353130E+02 -0.27520051534E+02  0.36942665268E+02  0.51100000000E-03 0. -1.
        -11    1    3    3    0    0  0.13808635273E+02 -0.64431689107E+01  0.18180007795E+02  0.23721414743E+02  0.51100000000E-03 0.  1.
         12    1    3    3    0    0 -0.40741769478E+01  0.10491914763E+02  0.35356742188E+01  0.11797465209E+02  0.00000000000E+00 0. -1.
</event>
<event>
 7    1  0.1905073E-013  0.7246152E+02  0.7816164E-02  0.1226708E+00
        -11   -1    0    0    0    0  0.00000000000E+00  0.00000000000E+00  0.45593999997E+02  0.45594000000E+02  0.51100000000E-03 0.  1.
         11   -1    0    0    0    0 -0.00000000000E+00 -0.00000000000E+00 -0.45593999997E+02  0.45594000000E+02  0.51100000000E-03 0. -1.
    9900012    2    1    2    0    0 -0.83855979827E+01 -0.71443543738E+01 -0.15143354283E+02  0.72461515229E+02  0.69999928267E+02 0.  0.
        -12    1    1    2    0    0  0.83855979827E+01  0.71443543738E+01  0.15143354283E+02  0.18726484771E+02  0.00000000000E+00 0.  1.
         11    1    3    3    0    0 -0.22286300664E+02 -0.17533826433E+02 -0.18635500035E+02  0.33932228463E+02  0.51100000000E-03 0. -1.
        -11    1    3    3    0    0 -0.42940320588E+01  0.10600408172E+02  0.13555591001E+02  0.17735879239E+02  0.51100000000E-03 0.  1.
         12    1    3    3    0    0  0.18194734740E+02 -0.21093611313E+00 -0.10063445249E+02  0.20793407527E+02  0.00000000000E+00 0. -1.
</event>
<event>
 7    1  0.1905073E-013  0.7246159E+02  0.7816164E-02  0.1226708E+00
        -11   -1    0    0    0    0  0.00000000000E+00  0.00000000000E+00  0.45593999997E+02  0.45594000000E+02  0.51100000000E-03 0.  1.
         11   -1    0    0    0    0 -0.00000000000E+00 -0.00000000000E+00 -0.45593999997E+02  0.45594000000E+02  0.51100000000E-03 0. -1.
    9900012    2    1    2    0    0  0.14017357102E+01  0.48640728835E+01 -0.18029259097E+02  0.72461594802E+02  0.70000031926E+02 0.  0.
        -12    1    1    2    0    0 -0.14017357102E+01 -0.48640728835E+01  0.18029259097E+02  0.18726405198E+02  0.00000000000E+00 0.  1.
         11    1    3    3    0    0  0.13025472972E+02 -0.77845563807E+01 -0.78534447293E+00  0.15194704024E+02  0.51100000000E-03 0. -1.
        -11    1    3    3    0    0 -0.16545471529E+02 -0.40378713223E+01 -0.30811141020E+02  0.35204878130E+02  0.51100000000E-03 0.  1.
        -12    1    3    3    0    0  0.49217342672E+01  0.16686500586E+02  0.13567226396E+02  0.22062012648E+02  0.00000000000E+00 0.  1.
</event>
<event>
 7    1  0.1905073E-013  0.7246157E+02  0.7816164E-02  0.1226708E+00
        -11   -1    0    0    0    0  0.00000000000E+00  0.00000000000E+00  0.45593999997E+02  0.45594000000E+02  0.51100000000E-03 0. -1.
         11   -1    0    0    0    0 -0.00000000000E+00 -0.00000000000E+00 -0.45593999997E+02  0.45594000000E+02  0.51100000000E-03 0.  1.
    9900012    2    1    2    0    0 -0.11417976887E+02 -0.13895608635E+02 -0.52173785950E+01  0.72461570150E+02  0.69999999812E+02 0.  0.
        -12    1    1    2    0    0  0.11417976887E+02  0.13895608635E+02  0.52173785950E+01  0.18726429850E+02  0.00000000000E+00 0.  1.
         11    1    3    3    0    0  0.19676426405E+02 -0.25606456886E+02 -0.15214303975E+00  0.32293583544E+02  0.51100000000E-03 0. -1.
        -11    1    3    3    0    0 -0.47883347870E+01  0.69735769246E+01  0.68676913424E+01  0.10896059370E+02  0.51100000000E-03 0.  1.
         12    1    3    3    0    0 -0.26306068505E+02  0.47372713268E+01 -0.11932926898E+02  0.29271927237E+02  0.00000000000E+00 0. -1.
</event>
<event>
 7    1  0.1905073E-013  0.7246159E+02  0.7816164E-02  0.1226708E+00
        -11   -1    0    0    0    0  0.00000000000E+00  0.00000000000E+00  0.45593999997E+02  0.45594000000E+02  0.51100000000E-03 0.  1.
         11   -1    0    0    0    0 -0.00000000000E+00 -0.00000000000E+00 -0.45593999997E+02  0.45594000000E+02  0.51100000000E-03 0. -1.
    9900012    2    1    2    0    0 -0.10436758169E+02 -0.38399051313E+01 -0.15066776313E+02  0.72461587077E+02  0.70000021862E+02 0.  0.
        -12    1    1    2    0    0  0.10436758169E+02  0.38399051313E+01  0.15066776313E+02  0.18726412923E+02  0.00000000000E+00 0.  1.
         11    1    3    3    0    0 -0.68135670086E+01 -0.14702978605E+01  0.28787758215E+01  0.75414734416E+01  0.51100000000E-03 0. -1.
        -11    1    3    3    0    0  0.17665926948E+02 -0.57699888135E+01 -0.33517871925E+02  0.38325259092E+02  0.51100000000E-03 0.  1.
        -12    1    3    3    0    0 -0.21289118109E+02  0.34003815427E+01  0.15572319790E+02  0.26594854543E+02  0.00000000000E+00 0.  1.
</event>
<event>
 7    1  0.1905073E-013  0.7246168E+02  0.7816164E-02  0.1226708E+00
        -11   -1    0    0    0    0  0.00000000000E+00  0.00000000000E+00  0.45593999997E+02  0.45594000000E+02  0.51100000000E-03 0. -1.
         11   -1    0    0    0    0 -0.00000000000E+00 -0.00000000000E+00 -0.45593999997E+02  0.45594000000E+02  0.51100000000E-03 0.  1.
    9900012    2    1    2    0    0  0.97554493195E+01  0.12146149148E+02  0.10391220427E+02  0.72461676482E+02  0.70000138329E+02 0.  0.
        -12    1    1    2    0    0 -0.97554493195E+01 -0.12146149148E+02 -0.10391220427E+02  0.18726323518E+02  0.00000000000E+00 0.  1.
         11    1    3    3    0    0 -0.71508266856E+01 -0.41252983331E+01  0.19490773110E+02  0.21167017865E+02  0.51100000000E-03 0. -1.
        -11    1    3    3    0    0  0.26214217510E+02  0.26262865863E+01  0.79870646203E+01  0.27529543810E+02  0.51100000000E-03 0.  1.
         12    1    3    3    0    0 -0.93079415048E+01  0.13645160894E+02 -0.17086617303E+02  0.23765114806E+02  0.00000000000E+00 0. -1.
</event>
<event>
 7    1  0.1905073E-013  0.7246176E+02  0.7816164E-02  0.1226708E+00
        -11   -1    0    0    0    0  0.00000000000E+00  0.00000000000E+00  0.45593999997E+02  0.45594000000E+02  0.51100000000E-03 0.  1.
         11   -1    0    0    0    0 -0.00000000000E+00 -0.00000000000E+00 -0.45593999997E+02  0.45594000000E+02  0.51100000000E-03 0. -1.
    9900012    2    1    2    0    0 -0.99988752094E+01 -0.59224424015E-01 -0.15833226224E+02  0.72461759971E+02  0.70000247088E+02 0.  0.
        -12    1    1    2    0    0  0.99988752094E+01  0.59224424015E-01  0.15833226224E+02  0.18726240029E+02  0.00000000000E+00 0.  1.
         11    1    3    3    0    0  0.38601847470E+01 -0.30177216564E+02 -0.15047092299E+02  0.33940836948E+02  0.51100000000E-03 0. -1.
        -11    1    3    3    0    0  0.31474063978E+01  0.11710209022E+02  0.44535433087E+01  0.12917786600E+02  0.51100000000E-03 0.  1.
         12    1    3    3    0    0 -0.17006466354E+02  0.18407783118E+02 -0.52396772336E+01  0.25603136423E+02  0.00000000000E+00 0. -1.
</event>
<event>
 7    1  0.1905073E-013  0.7246157E+02  0.7816164E-02  0.1226708E+00
        -11   -1    0    0    0    0  0.00000000000E+00  0.00000000000E+00  0.45593999997E+02  0.45594000000E+02  0.51100000000E-03 0. -1.
         11   -1    0    0    0    0 -0.00000000000E+00 -0.00000000000E+00 -0.45593999997E+02  0.45594000000E+02  0.51100000000E-03 0.  1.
    9900012    2    1    2    0    0 -0.99347817152E+01  0.39772471903E+01  0.15367523484E+02  0.72461570523E+02  0.70000000298E+02 0.  0.
        -12    1    1    2    0    0  0.99347817152E+01 -0.39772471903E+01 -0.15367523484E+02  0.18726429477E+02  0.00000000000E+00 0.  1.
         11    1    3    3    0    0  0.13044828050E+02 -0.89568701419E+01  0.21571339254E+02  0.26752864128E+02  0.51100000000E-03 0. -1.
        -11    1    3    3    0    0  0.81551022829E+00  0.20087478488E+02 -0.55373299067E+01  0.20852670613E+02  0.51100000000E-03 0.  1.
        -12    1    3    3    0    0 -0.23795119994E+02 -0.71533611564E+01 -0.66648586377E+00  0.24856035781E+02  0.00000000000E+00 0.  1.
</event>
<event>
 7    1  0.1905073E-013  0.7246160E+02  0.7816164E-02  0.1226708E+00
        -11   -1    0    0    0    0  0.00000000000E+00  0.00000000000E+00  0.45593999997E+02  0.45594000000E+02  0.51100000000E-03 0.  1.
         11   -1    0    0    0    0 -0.00000000000E+00 -0.00000000000E+00 -0.45593999997E+02  0.45594000000E+02  0.51100000000E-03 0. -1.
    9900012    2    1    2    0    0 -0.15150614753E+02  0.10940620006E+02 -0.11998271211E+01  0.72461604761E+02  0.70000044900E+02 0.  0.
        -12    1    1    2    0    0  0.15150614753E+02 -0.10940620006E+02  0.11998271211E+01  0.18726395239E+02  0.00000000000E+00 0.  1.
         11    1    3    3    0    0 -0.19632460208E+02  0.21843574712E+02  0.14419317930E+02  0.32718373735E+02  0.51100000000E-03 0.  1.
        -11    1    3    3    0    0 -0.57634524332E+01  0.36713694846E+01 -0.20220122554E+02  0.21343610149E+02  0.51100000000E-03 0. -1.
         12    1    3    3    0    0  0.10245297888E+02 -0.14574324191E+02  0.46009775027E+01  0.18399620877E+02  0.00000000000E+00 0. -1.
</event>
<event>
 7    1  0.1905073E-013  0.7246151E+02  0.7816164E-02  0.1226708E+00
        -11   -1    0    0    0    0  0.00000000000E+00  0.00000000000E+00  0.45593999997E+02  0.45594000000E+02  0.51100000000E-03 0.  1.
         11   -1    0    0    0    0 -0.00000000000E+00 -0.00000000000E+00 -0.45593999997E+02  0.45594000000E+02  0.51100000000E-03 0. -1.
    9900012    2    1    2    0    0  0.12248954914E+02 -0.14060713958E+02 -0.17149080781E+01  0.72461508518E+02  0.69999919525E+02 0.  0.
        -12    1    1    2    0    0 -0.12248954914E+02  0.14060713958E+02  0.17149080781E+01  0.18726491482E+02  0.00000000000E+00 0.  1.
         11    1    3    3    0    0  0.26104061340E+02 -0.95885187105E+00 -0.38178056742E+01  0.26399186650E+02  0.51100000000E-03 0. -1.
        -11    1    3    3    0    0 -0.24619168413E+02  0.21383954051E+01 -0.64461235759E+01  0.25538768523E+02  0.51100000000E-03 0.  1.
        -12    1    3    3    0    0  0.10764061988E+02 -0.15240257492E+02  0.85490211720E+01  0.20523553345E+02  0.00000000000E+00 0.  1.
</event>
<event>
 7    1  0.1905073E-013  0.7246159E+02  0.7816164E-02  0.1226708E+00
        -11   -1    0    0    0    0  0.00000000000E+00  0.00000000000E+00  0.45593999997E+02  0.45594000000E+02  0.51100000000E-03 0. -1.
         11   -1    0    0    0    0 -0.00000000000E+00 -0.00000000000E+00 -0.45593999997E+02  0.45594000000E+02  0.51100000000E-03 0.  1.
    9900012    2    1    2    0    0  0.13983757954E+02  0.11399968909E+02  0.50173538259E+01  0.72461585045E+02  0.70000019216E+02 0.  0.
        -12    1    1    2    0    0 -0.13983757954E+02 -0.11399968909E+02 -0.50173538259E+01  0.18726414955E+02  0.00000000000E+00 0.  1.
         11    1    3    3    0    0 -0.24857307158E+01 -0.11407209217E+02 -0.20348121932E+02  0.23459525693E+02  0.51100000000E-03 0. -1.
        -11    1    3    3    0    0  0.14146247593E+02  0.13231781024E+02 -0.24206317482E+01  0.19520650818E+02  0.51100000000E-03 0.  1.
         12    1    3    3    0    0  0.23232410768E+01  0.95753971024E+01  0.27786107506E+02  0.29481408534E+02  0.00000000000E+00 0. -1.
</event>
<event>
 7    1  0.1905073E-013  0.7246191E+02  0.7816164E-02  0.1226707E+00
        -11   -1    0    0    0    0  0.00000000000E+00  0.00000000000E+00  0.45593999997E+02  0.45594000000E+02  0.51100000000E-03 0.  1.
         11   -1    0    0    0    0 -0.00000000000E+00 -0.00000000000E+00 -0.45593999997E+02  0.45594000000E+02  0.51100000000E-03 0. -1.
    9900012    2    1    2    0    0 -0.16417237412E+02  0.85946470751E+01  0.26967992499E+01  0.72461912080E+02  0.70000445238E+02 0.  0.
        -12    1    1    2    0    0  0.16417237412E+02 -0.85946470751E+01 -0.26967992499E+01  0.18726087920E+02  0.00000000000E+00 0.  1.
         11    1    3    3    0    0 -0.36334577495E+02  0.16282181051E+02  0.10526411271E+02  0.41183932255E+02  0.51100000000E-03 0. -1.
        -11    1    3    3    0    0  0.84981159399E+01 -0.66557188690E+01 -0.14451195236E+02  0.18037561149E+02  0.51100000000E-03 0.  1.
         12    1    3    3    0    0  0.11419224143E+02 -0.10318151068E+01  0.66215832150E+01  0.13240418676E+02  0.00000000000E+00 0. -1.
</event>
<event>
 7    1  0.1905073E-013  0.7246152E+02  0.7816164E-02  0.1226708E+00
        -11   -1    0    0    0    0  0.00000000000E+00  0.00000000000E+00  0.45593999997E+02  0.45594000000E+02  0.51100000000E-03 0.  1.
         11   -1    0    0    0    0 -0.00000000000E+00 -0.00000000000E+00 -0.45593999997E+02  0.45594000000E+02  0.51100000000E-03 0. -1.
    9900012    2    1    2    0    0 -0.49821323528E+01  0.82686365175E+01 -0.16046470962E+02  0.72461515467E+02  0.69999928577E+02 0.  0.
        -12    1    1    2    0    0  0.49821323528E+01 -0.82686365175E+01  0.16046470962E+02  0.18726484533E+02  0.00000000000E+00 0.  1.
         11    1    3    3    0    0 -0.56674685853E+01  0.82702108079E+00 -0.40939393953E+01  0.70402062517E+01  0.51100000000E-03 0. -1.
        -11    1    3    3    0    0  0.92887863294E+01 -0.77992236682E+01  0.23185282336E+02  0.26166137632E+02  0.51100000000E-03 0.  1.
        -12    1    3    3    0    0 -0.86034500969E+01  0.15240839105E+02 -0.35137813903E+02  0.39255171583E+02  0.00000000000E+00 0.  1.
</event>
<event>
 7    1  0.1905073E-013  0.7246162E+02  0.7816164E-02  0.1226708E+00
        -11   -1    0    0    0    0  0.00000000000E+00  0.00000000000E+00  0.45593999997E+02  0.45594000000E+02  0.51100000000E-03 0.  1.
         11   -1    0    0    0    0 -0.00000000000E+00 -0.00000000000E+00 -0.45593999997E+02  0.45594000000E+02  0.51100000000E-03 0. -1.
    9900012    2    1    2    0    0  0.91032681335E+01 -0.55756231989E+01 -0.15385715627E+02  0.72461619941E+02  0.70000064674E+02 0.  0.
        -12    1    1    2    0    0 -0.91032681335E+01  0.55756231989E+01  0.15385715627E+02  0.18726380059E+02  0.00000000000E+00 0.  1.
         11    1    3    3    0    0 -0.12573522483E+01 -0.32532698126E+02 -0.20463881156E+02  0.38454230121E+02  0.51100000000E-03 0. -1.
        -11    1    3    3    0    0 -0.11384311107E+01  0.20133939579E+02  0.18399162322E+01  0.20249860255E+02  0.51100000000E-03 0.  1.
        -12    1    3    3    0    0  0.11499051492E+02  0.68231353477E+01  0.32382492973E+01  0.13757529564E+02  0.00000000000E+00 0.  1.
</event>
<event>
 7    1  0.1905073E-013  0.7246158E+02  0.7816164E-02  0.1226708E+00
        -11   -1    0    0    0    0  0.00000000000E+00  0.00000000000E+00  0.45593999997E+02  0.45594000000E+02  0.51100000000E-03 0.  1.
         11   -1    0    0    0    0 -0.00000000000E+00 -0.00000000000E+00 -0.45593999997E+02  0.45594000000E+02  0.51100000000E-03 0. -1.
    9900012    2    1    2    0    0 -0.15728516930E+02 -0.90146023369E+00 -0.10123243848E+02  0.72461576386E+02  0.70000007935E+02 0.  0.
        -12    1    1    2    0    0  0.15728516930E+02  0.90146023369E+00  0.10123243848E+02  0.18726423614E+02  0.00000000000E+00 0.  1.
         11    1    3    3    0    0 -0.72132972338E+00  0.25776244115E+02  0.13603703638E+01  0.25822193653E+02  0.51100000000E-03 0. -1.
        -11    1    3    3    0    0  0.60819343792E+01 -0.18309147610E+02 -0.13962887336E+02  0.23815478895E+02  0.51100000000E-03 0.  1.
        -12    1    3    3    0    0 -0.21089121586E+02 -0.83685567392E+01  0.24792731239E+01  0.22823903838E+02  0.00000000000E+00 0.  1.
</event>
<event>
 7    1  0.1905073E-013  0.7246127E+02  0.7816164E-02  0.1226709E+00
        -11   -1    0    0    0    0  0.00000000000E+00  0.00000000000E+00  0.45593999997E+02  0.45594000000E+02  0.51100000000E-03 0. -1.
         11   -1    0    0    0    0 -0.00000000000E+00 -0.00000000000E+00 -0.45593999997E+02  0.45594000000E+02  0.51100000000E-03 0.  1.
    9900012    2    1    2    0    0 -0.68564964094E+01 -0.10855928125E+02  0.13631856553E+02  0.72461274938E+02  0.69999615242E+02 0.  0.
        -12    1    1    2    0    0  0.68564964094E+01  0.10855928125E+02 -0.13631856553E+02  0.18726725062E+02  0.00000000000E+00 0.  1.
         11    1    3    3    0    0  0.11941850074E+02  0.50464018017E+01  0.31940703842E+02  0.34471473953E+02  0.51100000000E-03 0. -1.
        -11    1    3    3    0    0 -0.24387522973E+01 -0.13779996715E+02 -0.16122621203E+02  0.21348881398E+02  0.51100000000E-03 0.  1.
        -12    1    3    3    0    0 -0.16359594186E+02 -0.21223332118E+01 -0.21862260859E+01  0.16640919587E+02  0.00000000000E+00 0.  1.
</event>
<event>
 7    1  0.1905073E-013  0.7246158E+02  0.7816164E-02  0.1226708E+00
        -11   -1    0    0    0    0  0.00000000000E+00  0.00000000000E+00  0.45593999997E+02  0.45594000000E+02  0.51100000000E-03 0.  1.
         11   -1    0    0    0    0 -0.00000000000E+00 -0.00000000000E+00 -0.45593999997E+02  0.45594000000E+02  0.51100000000E-03 0. -1.
    9900012    2    1    2    0    0  0.82087990999E+01  0.32926029772E+01 -0.16506153235E+02  0.72461582520E+02  0.70000015926E+02 0.  0.
        -12    1    1    2    0    0 -0.82087990999E+01 -0.32926029772E+01  0.16506153235E+02  0.18726417480E+02  0.00000000000E+00 0.  1.
         11    1    3    3    0    0  0.63803597439E+01  0.61033078736E+01  0.27082264657E+01  0.92354668703E+01  0.51100000000E-03 0. -1.
        -11    1    3    3    0    0  0.17735158821E+02 -0.18869431804E+02 -0.28750643728E+02  0.38693550239E+02  0.51100000000E-03 0.  1.
        -12    1    3    3    0    0 -0.15906719465E+02  0.16058726908E+02  0.95362640280E+01  0.24532565411E+02  0.00000000000E+00 0.  1.
</event>
<event>
 7    1  0.1905073E-013  0.7246157E+02  0.7816164E-02  0.1226708E+00
        -11   -1    0    0    0    0  0.00000000000E+00  0.00000000000E+00  0.45593999997E+02  0.45594000000E+02  0.51100000000E-03 0.  1.
         11   -1    0    0    0    0 -0.00000000000E+00 -0.00000000000E+00 -0.45593999997E+02  0.45594000000E+02  0.51100000000E-03 0. -1.
    9900012    2    1    2    0    0  0.13689448862E+01 -0.17609151237E+02 -0.62227927459E+01  0.72461565023E+02  0.69999993133E+02 0.  0.
        -12    1    1    2    0    0 -0.13689448862E+01  0.17609151237E+02  0.62227927459E+01  0.18726434977E+02  0.00000000000E+00 0.  1.
         11    1    3    3    0    0  0.68655297057E+01 -0.36615458749E+02 -0.10073452760E+02  0.38591472741E+02  0.51100000000E-03 0. -1.
        -11    1    3    3    0    0 -0.14516397763E+01 -0.22856167598E+01  0.10781345977E+02  0.11116146965E+02  0.51100000000E-03 0.  1.
         12    1    3    3    0    0 -0.40449450432E+01  0.21291924271E+02 -0.69306859628E+01  0.22753945317E+02  0.00000000000E+00 0. -1.
</event>
<event>
 7    1  0.1905073E-013  0.7246163E+02  0.7816164E-02  0.1226708E+00
        -11   -1    0    0    0    0  0.00000000000E+00  0.00000000000E+00  0.45593999997E+02  0.45594000000E+02  0.51100000000E-03 0. -1.
         11   -1    0    0    0    0 -0.00000000000E+00 -0.00000000000E+00 -0.45593999997E+02  0.45594000000E+02  0.51100000000E-03 0.  1.
    9900012    2    1    2    0    0  0.96843293672E+01 -0.14195966163E+02  0.74407893905E+01  0.72461627224E+02  0.70000074162E+02 0.  0.
        -12    1    1    2    0    0 -0.96843293672E+01  0.14195966163E+02 -0.74407893905E+01  0.18726372776E+02  0.00000000000E+00 0.  1.
         11    1    3    3    0    0 -0.22106992148E+01 -0.22363631641E+02 -0.10205014711E+02  0.24681198040E+02  0.51100000000E-03 0.  1.
        -11    1    3    3    0    0  0.18897269172E+01  0.22049708575E+02 -0.14021681754E+01  0.22174913572E+02  0.51100000000E-03 0. -1.
        -12    1    3    3    0    0  0.10005301665E+02 -0.13882043096E+02  0.19047972276E+02  0.25605515612E+02  0.00000000000E+00 0.  1.
</event>
<event>
 7    1  0.1905073E-013  0.7246158E+02  0.7816164E-02  0.1226708E+00
        -11   -1    0    0    0    0  0.00000000000E+00  0.00000000000E+00  0.45593999997E+02  0.45594000000E+02  0.51100000000E-03 0. -1.
         11   -1    0    0    0    0 -0.00000000000E+00 -0.00000000000E+00 -0.45593999997E+02  0.45594000000E+02  0.51100000000E-03 0.  1.
    9900012    2    1    2    0    0 -0.98411578080E+01 -0.53115025682E+01  0.15020602615E+02  0.72461576170E+02  0.70000007655E+02 0.  0.
        -12    1    1    2    0    0  0.98411578080E+01  0.53115025682E+01 -0.15020602615E+02  0.18726423830E+02  0.00000000000E+00 0.  1.
         11    1    3    3    0    0 -0.38053573190E+00 -0.38637173824E+01  0.14491457911E+02  0.15002515526E+02  0.51100000000E-03 0. -1.
        -11    1    3    3    0    0 -0.21986526517E+02  0.25423051379E+01 -0.22107025580E+02  0.31282443063E+02  0.51100000000E-03 0.  1.
        -12    1    3    3    0    0  0.12525904441E+02 -0.39900903237E+01  0.22636170284E+02  0.26176617582E+02  0.00000000000E+00 0.  1.
</event>
<event>
 7    1  0.1905073E-013  0.7246155E+02  0.7816164E-02  0.1226708E+00
        -11   -1    0    0    0    0  0.00000000000E+00  0.00000000000E+00  0.45593999997E+02  0.45594000000E+02  0.51100000000E-03 0.  1.
         11   -1    0    0    0    0 -0.00000000000E+00 -0.00000000000E+00 -0.45593999997E+02  0.45594000000E+02  0.51100000000E-03 0. -1.
    9900012    2    1    2    0    0 -0.44353162745E+01  0.13072003774E+02 -0.12654276866E+02  0.72461547156E+02  0.69999969858E+02 0.  0.
        -12    1    1    2    0    0  0.44353162745E+01 -0.13072003774E+02  0.12654276866E+02  0.18726452844E+02  0.00000000000E+00 0.  1.
         11    1    3    3    0    0  0.15535272942E+02  0.26773031942E+01  0.11560375749E+02  0.19548783734E+02  0.51100000000E-03 0.  1.
        -11    1    3    3    0    0 -0.26403890905E+02  0.17599346158E+02 -0.28211776998E+02  0.42459472463E+02  0.51100000000E-03 0. -1.
         12    1    3    3    0    0  0.64333016890E+01 -0.72046455789E+01  0.39971243830E+01  0.10453290959E+02  0.00000000000E+00 0. -1.
</event>
<event>
 7    1  0.1905073E-013  0.7246182E+02  0.7816164E-02  0.1226707E+00
        -11   -1    0    0    0    0  0.00000000000E+00  0.00000000000E+00  0.45593999997E+02  0.45594000000E+02  0.51100000000E-03 0. -1.
         11   -1    0    0    0    0 -0.00000000000E+00 -0.00000000000E+00 -0.45593999997E+02  0.45594000000E+02  0.51100000000E-03 0.  1.
    9900012    2    1    2    0    0  0.11574915001E+00 -0.16500343996E+02  0.88541061757E+01  0.72461816566E+02  0.70000320813E+02 0.  0.
        -12    1    1    2    0    0 -0.11574915001E+00  0.16500343996E+02 -0.88541061757E+01  0.18726183434E+02  0.00000000000E+00 0.  1.
         11    1    3    3    0    0  0.13787362431E+02 -0.25456925952E+02  0.68646149214E+01  0.29753476772E+02  0.51100000000E-03 0. -1.
        -11    1    3    3    0    0 -0.25511449839E+02  0.78319553539E+01 -0.72432701198E+01  0.27652098652E+02  0.51100000000E-03 0.  1.
        -12    1    3    3    0    0  0.11839836559E+02  0.11246266022E+01  0.92327613741E+01  0.15056241142E+02  0.00000000000E+00 0.  1.
</event>
<event>
 7    1  0.1905073E-013  0.7246157E+02  0.7816164E-02  0.1226708E+00
        -11   -1    0    0    0    0  0.00000000000E+00  0.00000000000E+00  0.45593999997E+02  0.45594000000E+02  0.51100000000E-03 0. -1.
         11   -1    0    0    0    0 -0.00000000000E+00 -0.00000000000E+00 -0.45593999997E+02  0.45594000000E+02  0.51100000000E-03 0.  1.
    9900012    2    1    2    0    0  0.93989225196E+01  0.15027861396E+02  0.60417573095E+01  0.72461569639E+02  0.69999999146E+02 0.  0.
        -12    1    1    2    0    0 -0.93989225196E+01 -0.15027861396E+02 -0.60417573095E+01  0.18726430361E+02  0.00000000000E+00 0.  1.
         11    1    3    3    0    0 -0.20830940098E+01  0.94743938598E+01 -0.48595009615E+01  0.10849800437E+02  0.51100000000E-03 0. -1.
        -11    1    3    3    0    0 -0.97110894236E+00  0.19764458892E+02  0.29222813742E+02  0.35292346637E+02  0.51100000000E-03 0.  1.
        -12    1    3    3    0    0  0.12453125472E+02 -0.14210991355E+02 -0.18321555471E+02  0.26319422566E+02  0.00000000000E+00 0.  1.
</event>
<event>
 7    1  0.1905073E-013  0.7246157E+02  0.7816164E-02  0.1226708E+00
        -11   -1    0    0    0    0  0.00000000000E+00  0.00000000000E+00  0.45593999997E+02  0.45594000000E+02  0.51100000000E-03 0.  1.
         11   -1    0    0    0    0 -0.00000000000E+00 -0.00000000000E+00 -0.45593999997E+02  0.45594000000E+02  0.51100000000E-03 0. -1.
    9900012    2    1    2    0    0  0.18380332612E+02 -0.16482751593E+01  0.31820929992E+01  0.72461570715E+02  0.70000000547E+02 0.  0.
        -12    1    1    2    0    0 -0.18380332612E+02  0.16482751593E+01 -0.31820929992E+01  0.18726429285E+02  0.00000000000E+00 0.  1.
         11    1    3    3    0    0  0.11739343729E+02 -0.26338876590E+02 -0.23105239154E+01  0.28929001577E+02  0.51100000000E-03 0. -1.
        -11    1    3    3    0    0  0.19338861304E+02  0.16732179462E+02  0.10625409169E+02  0.27692177710E+02  0.51100000000E-03 0.  1.
         12    1    3    3    0    0 -0.12697872421E+02  0.79584219682E+01 -0.51327922543E+01  0.15840391427E+02  0.00000000000E+00 0. -1.
</event>
<event>
 7    1  0.1905073E-013  0.7246213E+02  0.7816164E-02  0.1226707E+00
        -11   -1    0    0    0    0  0.00000000000E+00  0.00000000000E+00  0.45593999997E+02  0.45594000000E+02  0.51100000000E-03 0.  1.
         11   -1    0    0    0    0 -0.00000000000E+00 -0.00000000000E+00 -0.45593999997E+02  0.45594000000E+02  0.51100000000E-03 0. -1.
    9900012    2    1    2    0    0 -0.16183049639E+02 -0.21639656690E+01 -0.91697482346E+01  0.72462132177E+02  0.70000731953E+02 0.  0.
        -12    1    1    2    0    0  0.16183049639E+02  0.21639656690E+01  0.91697482346E+01  0.18725867823E+02  0.00000000000E+00 0.  1.
         11    1    3    3    0    0 -0.53974351761E+01 -0.21996958988E+02  0.76909911006E+00  0.22662524680E+02  0.51100000000E-03 0. -1.
        -11    1    3    3    0    0  0.14250080486E+02  0.11616861976E+02  0.55880682653E+01  0.19215691068E+02  0.51100000000E-03 0.  1.
        -12    1    3    3    0    0 -0.25035694948E+02  0.82161313424E+01 -0.15526915610E+02  0.30583916429E+02  0.00000000000E+00 0.  1.
</event>
<event>
 7    1  0.1905073E-013  0.7246155E+02  0.7816164E-02  0.1226708E+00
        -11   -1    0    0    0    0  0.00000000000E+00  0.00000000000E+00  0.45593999997E+02  0.45594000000E+02  0.51100000000E-03 0. -1.
         11   -1    0    0    0    0 -0.00000000000E+00 -0.00000000000E+00 -0.45593999997E+02  0.45594000000E+02  0.51100000000E-03 0.  1.
    9900012    2    1    2    0    0  0.12553981382E+02  0.11761368582E+02 -0.73991679811E+01  0.72461550089E+02  0.69999973679E+02 0.  0.
        -12    1    1    2    0    0 -0.12553981382E+02 -0.11761368582E+02  0.73991679811E+01  0.18726449911E+02  0.00000000000E+00 0.  1.
         11    1    3    3    0    0  0.25163882695E+02 -0.11397953514E+02 -0.64718981552E+01  0.28372870891E+02  0.51100000000E-03 0. -1.
        -11    1    3    3    0    0 -0.18195997874E+02  0.15502199065E+02 -0.14181352121E+02  0.27794302703E+02  0.51100000000E-03 0.  1.
         12    1    3    3    0    0  0.55860965609E+01  0.76571230308E+01  0.13254082295E+02  0.16294376496E+02  0.00000000000E+00 0. -1.
</event>
<event>
 7    1  0.1905073E-013  0.7246156E+02  0.7816164E-02  0.1226708E+00
        -11   -1    0    0    0    0  0.00000000000E+00  0.00000000000E+00  0.45593999997E+02  0.45594000000E+02  0.51100000000E-03 0. -1.
         11   -1    0    0    0    0 -0.00000000000E+00 -0.00000000000E+00 -0.45593999997E+02  0.45594000000E+02  0.51100000000E-03 0.  1.
    9900012    2    1    2    0    0  0.71749880998E+00  0.18708465535E+02 -0.39772285906E+00  0.72461556913E+02  0.69999982569E+02 0.  0.
        -12    1    1    2    0    0 -0.71749880998E+00 -0.18708465535E+02  0.39772285906E+00  0.18726443087E+02  0.00000000000E+00 0.  1.
         11    1    3    3    0    0 -0.55004920162E+00 -0.20448055142E+02  0.10162290615E+02  0.22840701916E+02  0.51100000000E-03 0. -1.
        -11    1    3    3    0    0 -0.25342554313E+01  0.11717913978E+02 -0.17360249441E+02  0.21097635400E+02  0.51100000000E-03 0.  1.
         12    1    3    3    0    0  0.38018034429E+01  0.27438606699E+02  0.68002359670E+01  0.28523219597E+02  0.00000000000E+00 0. -1.
</event>
<event>
 7    1  0.1905073E-013  0.7246159E+02  0.7816164E-02  0.1226708E+00
        -11   -1    0    0    0    0  0.00000000000E+00  0.00000000000E+00  0.45593999997E+02  0.45594000000E+02  0.51100000000E-03 0.  1.
         11   -1    0    0    0    0 -0.00000000000E+00 -0.00000000000E+00 -0.45593999997E+02  0.45594000000E+02  0.51100000000E-03 0. -1.
    9900012    2    1    2    0    0  0.27930861182E+00  0.11449170045E+02 -0.14816104322E+02  0.72461589364E+02  0.70000024842E+02 0.  0.
        -12    1    1    2    0    0 -0.27930861182E+00 -0.11449170045E+02  0.14816104322E+02  0.18726410636E+02  0.00000000000E+00 0.  1.
         11    1    3    3    0    0  0.82221761199E+01  0.68188391607E+01 -0.25830612910E+02  0.27952125343E+02  0.51100000000E-03 0.  1.
        -11    1    3    3    0    0  0.11942367581E+02 -0.95977130020E+01  0.12840277585E+02  0.19990221785E+02  0.51100000000E-03 0. -1.
        -12    1    3    3    0    0 -0.19885235089E+02  0.14228043887E+02 -0.18257689974E+01  0.24519242236E+02  0.00000000000E+00 0.  1.
</event>
<event>
 7    1  0.1905073E-013  0.7246156E+02  0.7816164E-02  0.1226708E+00
        -11   -1    0    0    0    0  0.00000000000E+00  0.00000000000E+00  0.45593999997E+02  0.45594000000E+02  0.51100000000E-03 0.  1.
         11   -1    0    0    0    0 -0.00000000000E+00 -0.00000000000E+00 -0.45593999997E+02  0.45594000000E+02  0.51100000000E-03 0. -1.
    9900012    2    1    2    0    0 -0.14985766652E+02 -0.29815640992E+01 -0.10826667445E+02  0.72461557343E+02  0.69999983128E+02 0.  0.
        -12    1    1    2    0    0  0.14985766652E+02  0.29815640992E+01  0.10826667445E+02  0.18726442657E+02  0.00000000000E+00 0.  1.
         11    1    3    3    0    0 -0.17340350059E+01  0.10305613001E+02  0.21358026978E+02  0.23777675525E+02  0.51100000000E-03 0. -1.
        -11    1    3    3    0    0  0.57808819891E+01  0.64532590019E+01 -0.11169998959E+02  0.14136195574E+02  0.51100000000E-03 0.  1.
         12    1    3    3    0    0 -0.19032613635E+02 -0.19740436102E+02 -0.21014695464E+02  0.34547686243E+02  0.00000000000E+00 0. -1.
</event>
<event>
 7    1  0.4213692E-013  0.7246154E+02  0.7816164E-02  0.1226708E+00
        -11   -1    0    0    0    0  0.00000000000E+00  0.00000000000E+00  0.45593999997E+02  0.45594000000E+02  0.51100000000E-03 0. -1.
         11   -1    0    0    0    0 -0.00000000000E+00 -0.00000000000E+00 -0.45593999997E+02  0.45594000000E+02  0.51100000000E-03 0.  1.
    9900012    2    1    2    0    0 -0.12127424760E+02  0.84303929868E+01  0.11512349322E+02  0.72461544272E+02  0.69999966101E+02 0.  0.
        -12    1    1    2    0    0  0.12127424760E+02 -0.84303929868E+01 -0.11512349322E+02  0.18726455728E+02  0.00000000000E+00 0.  1.
         11    1    3    3    0    0  0.45201140162E+01  0.20189841301E+02  0.22450910805E+02  0.30530386810E+02  0.51100000000E-03 0. -1.
        -11    1    3    3    0    0  0.73071699594E+01 -0.12521726648E+02 -0.10603992101E+02  0.17961988191E+02  0.51100000000E-03 0.  1.
         12    1    3    3    0    0 -0.23954708735E+02  0.76227833342E+00 -0.33456938242E+00  0.23969169271E+02  0.00000000000E+00 0. -1.
</event>
<event>
 7    1  0.1905073E-013  0.7246156E+02  0.7816164E-02  0.1226708E+00
        -11   -1    0    0    0    0  0.00000000000E+00  0.00000000000E+00  0.45593999997E+02  0.45594000000E+02  0.51100000000E-03 0.  1.
         11   -1    0    0    0    0 -0.00000000000E+00 -0.00000000000E+00 -0.45593999997E+02  0.45594000000E+02  0.51100000000E-03 0. -1.
    9900012    2    1    2    0    0  0.11611647234E+02 -0.10886762511E+02 -0.98654676636E+01  0.72461564096E+02  0.69999991925E+02 0.  0.
        -12    1    1    2    0    0 -0.11611647234E+02  0.10886762511E+02  0.98654676636E+01  0.18726435904E+02  0.00000000000E+00 0.  1.
         11    1    3    3    0    0 -0.15007034716E+02 -0.31744029771E+01 -0.19010496313E+02  0.24427175349E+02  0.51100000000E-03 0. -1.
        -11    1    3    3    0    0  0.36354414449E+02 -0.46126668758E+01  0.93319408163E+01  0.37815410421E+02  0.51100000000E-03 0.  1.
         12    1    3    3    0    0 -0.97357324989E+01 -0.30996926577E+01 -0.18691216695E+00  0.10218978326E+02  0.00000000000E+00 0. -1.
</event>
<event>
 7    1  0.1905073E-013  0.7246152E+02  0.7816164E-02  0.1226708E+00
        -11   -1    0    0    0    0  0.00000000000E+00  0.00000000000E+00  0.45593999997E+02  0.45594000000E+02  0.51100000000E-03 0.  1.
         11   -1    0    0    0    0 -0.00000000000E+00 -0.00000000000E+00 -0.45593999997E+02  0.45594000000E+02  0.51100000000E-03 0. -1.
    9900012    2    1    2    0    0  0.13968075442E+02 -0.11499644690E+02 -0.48303226365E+01  0.72461522053E+02  0.69999937156E+02 0.  0.
        -12    1    1    2    0    0 -0.13968075442E+02  0.11499644690E+02  0.48303226365E+01  0.18726477947E+02  0.00000000000E+00 0.  1.
         11    1    3    3    0    0 -0.64359136644E+01  0.14667512072E+02 -0.21261470515E+02  0.26619673623E+02  0.51100000000E-03 0. -1.
        -11    1    3    3    0    0  0.15182941863E+01 -0.12390239593E+02  0.18561127155E+02  0.22368251965E+02  0.51100000000E-03 0.  1.
         12    1    3    3    0    0  0.18885694920E+02 -0.13776917169E+02 -0.21299792768E+01  0.23473596465E+02  0.00000000000E+00 0. -1.
</event>
<event>
 7    1  0.1905073E-013  0.7246173E+02  0.7816164E-02  0.1226708E+00
        -11   -1    0    0    0    0  0.00000000000E+00  0.00000000000E+00  0.45593999997E+02  0.45594000000E+02  0.51100000000E-03 0. -1.
         11   -1    0    0    0    0 -0.00000000000E+00 -0.00000000000E+00 -0.45593999997E+02  0.45594000000E+02  0.51100000000E-03 0.  1.
    9900012    2    1    2    0    0 -0.63122473837E+00  0.59403116746E+01  0.17747890540E+02  0.72461725248E+02  0.70000201856E+02 0.  0.
        -12    1    1    2    0    0  0.63122473837E+00 -0.59403116746E+01 -0.17747890540E+02  0.18726274752E+02  0.00000000000E+00 0.  1.
         11    1    3    3    0    0 -0.14225545391E+02  0.23708092096E+02 -0.47872904996E+01  0.28059898843E+02  0.51100000000E-03 0. -1.
        -11    1    3    3    0    0  0.17502955216E+02 -0.84556985101E+01  0.27074142017E+02  0.33329588129E+02  0.51100000000E-03 0.  1.
        -12    1    3    3    0    0 -0.39086345641E+01 -0.93120819117E+01 -0.45389609778E+01  0.11072238276E+02  0.00000000000E+00 0.  1.
</event>
<event>
 7    1  0.1905073E-013  0.7246123E+02  0.7816164E-02  0.1226709E+00
        -11   -1    0    0    0    0  0.00000000000E+00  0.00000000000E+00  0.45593999997E+02  0.45594000000E+02  0.51100000000E-03 0.  1.
         11   -1    0    0    0    0 -0.00000000000E+00 -0.00000000000E+00 -0.45593999997E+02  0.45594000000E+02  0.51100000000E-03 0. -1.
    9900012    2    1    2    0    0 -0.74545131663E+01  0.16925876117E+02  0.29388491044E+01  0.72461230847E+02  0.69999557805E+02 0.  0.
        -12    1    1    2    0    0  0.74545131663E+01 -0.16925876117E+02 -0.29388491044E+01  0.18726769153E+02  0.00000000000E+00 0.  1.
         11    1    3    3    0    0 -0.77952509830E+01  0.57820926026E+01 -0.24912078220E+02  0.26735934138E+02  0.51100000000E-03 0. -1.
        -11    1    3    3    0    0 -0.10721167170E+02  0.74450565736E+00  0.28571260179E+02  0.30525638775E+02  0.51100000000E-03 0.  1.
         12    1    3    3    0    0  0.11061904986E+02  0.10399277857E+02 -0.72033285448E+00  0.15199657933E+02  0.00000000000E+00 0. -1.
</event>
<event>
 7    1  0.1905073E-013  0.7246155E+02  0.7816164E-02  0.1226708E+00
        -11   -1    0    0    0    0  0.00000000000E+00  0.00000000000E+00  0.45593999997E+02  0.45594000000E+02  0.51100000000E-03 0. -1.
         11   -1    0    0    0    0 -0.00000000000E+00 -0.00000000000E+00 -0.45593999997E+02  0.45594000000E+02  0.51100000000E-03 0.  1.
    9900012    2    1    2    0    0  0.13476413456E+02  0.12878519044E+02  0.17916271603E+01  0.72461550783E+02  0.69999974583E+02 0.  0.
        -12    1    1    2    0    0 -0.13476413456E+02 -0.12878519044E+02 -0.17916271603E+01  0.18726449217E+02  0.00000000000E+00 0.  1.
         11    1    3    3    0    0  0.15424079348E+02  0.82306394978E+00  0.19505391296E+02  0.24880513416E+02  0.51100000000E-03 0. -1.
        -11    1    3    3    0    0 -0.55439486952E+01  0.25937809373E+02 -0.19787124788E+02  0.33091322576E+02  0.51100000000E-03 0.  1.
        -12    1    3    3    0    0  0.35962828031E+01 -0.13882354278E+02  0.20733606530E+01  0.14489714790E+02  0.00000000000E+00 0.  1.
</event>
<event>
 7    1  0.1905073E-013  0.7246161E+02  0.7816164E-02  0.1226708E+00
        -11   -1    0    0    0    0  0.00000000000E+00  0.00000000000E+00  0.45593999997E+02  0.45594000000E+02  0.51100000000E-03 0.  1.
         11   -1    0    0    0    0 -0.00000000000E+00 -0.00000000000E+00 -0.45593999997E+02  0.45594000000E+02  0.51100000000E-03 0. -1.
    9900012    2    1    2    0    0 -0.12126875886E+02  0.14264908802E+02 -0.35886832533E+00  0.72461614114E+02  0.70000057083E+02 0.  0.
        -12    1    1    2    0    0  0.12126875886E+02 -0.14264908802E+02  0.35886832533E+00  0.18726385886E+02  0.00000000000E+00 0.  1.
         11    1    3    3    0    0 -0.32182481638E+02  0.43014218413E+01  0.66769627918E+01  0.33148094766E+02  0.51100000000E-03 0. -1.
        -11    1    3    3    0    0  0.14136083191E+02  0.19025840138E+02  0.37909920939E+01  0.24003813494E+02  0.51100000000E-03 0.  1.
        -12    1    3    3    0    0  0.59195225609E+01 -0.90623531777E+01 -0.10826823211E+02  0.15309705853E+02  0.00000000000E+00 0.  1.
</event>
<event>
 7    1  0.1905073E-013  0.7246160E+02  0.7816164E-02  0.1226708E+00
        -11   -1    0    0    0    0  0.00000000000E+00  0.00000000000E+00  0.45593999997E+02  0.45594000000E+02  0.51100000000E-03 0. -1.
         11   -1    0    0    0    0 -0.00000000000E+00 -0.00000000000E+00 -0.45593999997E+02  0.45594000000E+02  0.51100000000E-03 0.  1.
    9900012    2    1    2    0    0  0.16893613253E+02  0.72295808332E+01 -0.36079337757E+01  0.72461596343E+02  0.70000033934E+02 0.  0.
        -12    1    1    2    0    0 -0.16893613253E+02 -0.72295808332E+01  0.36079337757E+01  0.18726403657E+02  0.00000000000E+00 0.  1.
         11    1    3    3    0    0  0.22533791193E+02  0.23562940968E+02 -0.20053714567E+02  0.38277087151E+02  0.51100000000E-03 0. -1.
        -11    1    3    3    0    0 -0.12983121126E+02 -0.69847086525E+01  0.11150318216E+01  0.14784819422E+02  0.51100000000E-03 0.  1.
         12    1    3    3    0    0  0.73429431866E+01 -0.93486514826E+01  0.15330748970E+02  0.19399689770E+02  0.00000000000E+00 0. -1.
</event>
<event>
 7    1  0.1905073E-013  0.7246156E+02  0.7816164E-02  0.1226708E+00
        -11   -1    0    0    0    0  0.00000000000E+00  0.00000000000E+00  0.45593999997E+02  0.45594000000E+02  0.51100000000E-03 0.  1.
         11   -1    0    0    0    0 -0.00000000000E+00 -0.00000000000E+00 -0.45593999997E+02  0.45594000000E+02  0.51100000000E-03 0. -1.
    9900012    2    1    2    0    0 -0.46739254563E+01 -0.62580939625E+01 -0.17019697110E+02  0.72461563902E+02  0.69999991673E+02 0.  0.
        -12    1    1    2    0    0  0.46739254563E+01  0.62580939625E+01  0.17019697110E+02  0.18726436098E+02  0.00000000000E+00 0.  1.
         11    1    3    3    0    0 -0.13844881283E+02 -0.22651142649E+02 -0.30534444546E+02  0.40461182695E+02  0.51100000000E-03 0. -1.
        -11    1    3    3    0    0 -0.57133222444E+01  0.45165306703E+01  0.10413570738E+02  0.12707618036E+02  0.51100000000E-03 0.  1.
         12    1    3    3    0    0  0.14884278071E+02  0.11876518016E+02  0.31011766982E+01  0.19292763172E+02  0.00000000000E+00 0. -1.
</event>
<event>
 7    1  0.1905073E-013  0.7246155E+02  0.7816164E-02  0.1226708E+00
        -11   -1    0    0    0    0  0.00000000000E+00  0.00000000000E+00  0.45593999997E+02  0.45594000000E+02  0.51100000000E-03 0. -1.
         11   -1    0    0    0    0 -0.00000000000E+00 -0.00000000000E+00 -0.45593999997E+02  0.45594000000E+02  0.51100000000E-03 0.  1.
    9900012    2    1    2    0    0 -0.14398990958E+02  0.99390142457E+01 -0.66756883974E+01  0.72461554519E+02  0.69999979449E+02 0.  0.
        -12    1    1    2    0    0  0.14398990958E+02 -0.99390142457E+01  0.66756883974E+01  0.18726445481E+02  0.00000000000E+00 0.  1.
         11    1    3    3    0    0 -0.12682116977E+02  0.87385779638E+01 -0.20328348085E+01  0.15534839988E+02  0.51100000000E-03 0. -1.
        -11    1    3    3    0    0  0.23648736434E+02  0.24262858310E+00 -0.16573440826E+02  0.28879067586E+02  0.51100000000E-03 0.  1.
        -12    1    3    3    0    0 -0.25365610415E+02  0.95780769881E+00  0.11930587237E+02  0.28047646945E+02  0.00000000000E+00 0.  1.
</event>
<event>
 7    1  0.1905073E-013  0.7246157E+02  0.7816164E-02  0.1226708E+00
        -11   -1    0    0    0    0  0.00000000000E+00  0.00000000000E+00  0.45593999997E+02  0.45594000000E+02  0.51100000000E-03 0.  1.
         11   -1    0    0    0    0 -0.00000000000E+00 -0.00000000000E+00 -0.45593999997E+02  0.45594000000E+02  0.51100000000E-03 0. -1.
    9900012    2    1    2    0    0  0.75007929819E+01  0.16210425215E+02 -0.56248995685E+01  0.72461567447E+02  0.69999996290E+02 0.  0.
        -12    1    1    2    0    0 -0.75007929819E+01 -0.16210425215E+02  0.56248995685E+01  0.18726432553E+02  0.00000000000E+00 0.  1.
         11    1    3    3    0    0  0.28565241179E+01  0.35764758552E+02  0.16593228186E+02  0.39529898890E+02  0.51100000000E-03 0. -1.
        -11    1    3    3    0    0  0.83817610261E+01 -0.14469807218E+02 -0.20373198522E+02  0.26357095006E+02  0.51100000000E-03 0.  1.
         12    1    3    3    0    0 -0.37374921622E+01 -0.50845261185E+01 -0.18449292320E+01  0.65745735514E+01  0.00000000000E+00 0. -1.
</event>
<event>
 7    1  0.1905073E-013  0.7246156E+02  0.7816164E-02  0.1226708E+00
        -11   -1    0    0    0    0  0.00000000000E+00  0.00000000000E+00  0.45593999997E+02  0.45594000000E+02  0.51100000000E-03 0.  1.
         11   -1    0    0    0    0 -0.00000000000E+00 -0.00000000000E+00 -0.45593999997E+02  0.45594000000E+02  0.51100000000E-03 0. -1.
    9900012    2    1    2    0    0 -0.52917037565E+01 -0.15262838142E+02 -0.94722328340E+01  0.72461560091E+02  0.69999986708E+02 0.  0.
        -12    1    1    2    0    0  0.52917037565E+01  0.15262838142E+02  0.94722328340E+01  0.18726439909E+02  0.00000000000E+00 0.  1.
         11    1    3    3    0    0 -0.20446560710E+00 -0.24588106052E+02  0.48276513977E+00  0.24593694880E+02  0.51100000000E-03 0. -1.
        -11    1    3    3    0    0  0.16943262716E+02  0.11570485408E+02 -0.14675900128E+02  0.25225628414E+02  0.51100000000E-03 0.  1.
        -12    1    3    3    0    0 -0.22030500866E+02 -0.22452174975E+01  0.47209021547E+01  0.22642236797E+02  0.00000000000E+00 0.  1.
</event>
<event>
 7    1  0.2918671E-013  0.7246173E+02  0.7816164E-02  0.1226708E+00
        -11   -1    0    0    0    0  0.00000000000E+00  0.00000000000E+00  0.45593999997E+02  0.45594000000E+02  0.51100000000E-03 0. -1.
         11   -1    0    0    0    0 -0.00000000000E+00 -0.00000000000E+00 -0.45593999997E+02  0.45594000000E+02  0.51100000000E-03 0.  1.
    9900012    2    1    2    0    0  0.79967422239E+01  0.23524665279E+01  0.16768752876E+02  0.72461733475E+02  0.70000212572E+02 0.  0.
        -12    1    1    2    0    0 -0.79967422239E+01 -0.23524665279E+01 -0.16768752876E+02  0.18726266525E+02  0.00000000000E+00 0.  1.
         11    1    3    3    0    0  0.15722200212E+02 -0.23605725174E+02  0.12548199432E+02  0.31014112107E+02  0.51100000000E-03 0. -1.
        -11    1    3    3    0    0 -0.29077634168E+01  0.17150391318E+02 -0.12861751709E+02  0.21633669770E+02  0.51100000000E-03 0.  1.
         12    1    3    3    0    0 -0.48176945716E+01  0.88078003844E+01  0.17082305152E+02  0.19813951598E+02  0.00000000000E+00 0. -1.
</event>
<event>
 7    1  0.1905073E-013  0.7246146E+02  0.7816164E-02  0.1226708E+00
        -11   -1    0    0    0    0  0.00000000000E+00  0.00000000000E+00  0.45593999997E+02  0.45594000000E+02  0.51100000000E-03 0.  1.
         11   -1    0    0    0    0 -0.00000000000E+00 -0.00000000000E+00 -0.45593999997E+02  0.45594000000E+02  0.51100000000E-03 0. -1.
    9900012    2    1    2    0    0  0.16849591719E+02 -0.72339838831E+01  0.38005381665E+01  0.72461458561E+02  0.69999854447E+02 0.  0.
        -12    1    1    2    0    0 -0.16849591719E+02  0.72339838831E+01 -0.38005381665E+01  0.18726541439E+02  0.00000000000E+00 0.  1.
         11    1    3    3    0    0  0.19971705809E+02  0.19799779038E+02 -0.89246297375E+01  0.29505072430E+02  0.51100000000E-03 0. -1.
        -11    1    3    3    0    0 -0.24660258860E+00 -0.23339189893E+02 -0.56330384049E+01  0.24010616811E+02  0.51100000000E-03 0.  1.
        -12    1    3    3    0    0 -0.28755115020E+01 -0.36945730280E+01  0.18358206309E+02  0.18945769320E+02  0.00000000000E+00 0.  1.
</event>
<event>
 8    1  0.1905073E-013  0.7246147E+02  0.7816164E-02  0.1226708E+00
        -11   -1    0    0    0    0  0.00000000000E+00  0.00000000000E+00  0.45593999997E+02  0.45594000000E+02  0.51100000000E-03 0.  1.
         11   -1    0    0    0    0 -0.00000000000E+00 -0.00000000000E+00 -0.45593999997E+02  0.45594000000E+02  0.51100000000E-03 0. -1.
    9900012    2    1    2    0    0 -0.78122957314E+01 -0.13998741154E+02 -0.96791541113E+01  0.72461474887E+02  0.69999875714E+02 0.  0.
        -24    2    3    3    0    0 -0.11011408729E+02 -0.24347097361E+01 -0.20193671573E+02  0.56507910260E+02  0.51557546651E+02 0.  0.
        -12    1    1    2    0    0  0.78122957314E+01  0.13998741154E+02  0.96791541113E+01  0.18726525113E+02  0.00000000000E+00 0.  1.
         11    1    4    4    0    0 -0.20359799313E+02 -0.80716534652E+01 -0.33046263656E+02  0.39645031966E+02  0.51100000000E-03 0. -1.
        -11    1    3    3    0    0  0.31991129979E+01 -0.11564031418E+02  0.10514517461E+02  0.15953564627E+02  0.51100000000E-03 0.  1.
        -12    1    4    4    0    0  0.93483905832E+01  0.56369437291E+01  0.12852592083E+02  0.16862878294E+02  0.00000000000E+00 0.  1.
</event>
<event>
 8    1  0.1905073E-013  0.7246160E+02  0.7816164E-02  0.1226708E+00
        -11   -1    0    0    0    0  0.00000000000E+00  0.00000000000E+00  0.45593999997E+02  0.45594000000E+02  0.51100000000E-03 0.  1.
         11   -1    0    0    0    0 -0.00000000000E+00 -0.00000000000E+00 -0.45593999997E+02  0.45594000000E+02  0.51100000000E-03 0. -1.
    9900012    2    1    2    0    0 -0.22285034407E+01 -0.18574294168E+02 -0.84102609135E+00  0.72461602687E+02  0.70000042198E+02 0.  0.
        -24    2    3    3    0    0 -0.15880442002E+02 -0.20765495025E+02 -0.43345429238E+01  0.58200415928E+02  0.51818007777E+02 0.  0.
        -12    1    1    2    0    0  0.22285034407E+01  0.18574294168E+02  0.84102609135E+00  0.18726397313E+02  0.00000000000E+00 0.  1.
         11    1    4    4    0    0 -0.28694591068E+02 -0.28136109378E+02  0.53294056859E+01  0.40539151110E+02  0.51100000000E-03 0. -1.
        -11    1    3    3    0    0  0.13651938561E+02  0.21912008573E+01  0.34935168324E+01  0.14261186760E+02  0.51100000000E-03 0.  1.
        -12    1    4    4    0    0  0.12814149067E+02  0.73706143525E+01 -0.96639486097E+01  0.17661264818E+02  0.00000000000E+00 0.  1.
</event>
<event>
 7    1  0.1905073E-013  0.7246159E+02  0.7816164E-02  0.1226708E+00
        -11   -1    0    0    0    0  0.00000000000E+00  0.00000000000E+00  0.45593999997E+02  0.45594000000E+02  0.51100000000E-03 0.  1.
         11   -1    0    0    0    0 -0.00000000000E+00 -0.00000000000E+00 -0.45593999997E+02  0.45594000000E+02  0.51100000000E-03 0. -1.
    9900012    2    1    2    0    0 -0.11338437416E+02  0.37716846780E+01 -0.14418478093E+02  0.72461594076E+02  0.70000030979E+02 0.  0.
        -12    1    1    2    0    0  0.11338437416E+02 -0.37716846780E+01  0.14418478093E+02  0.18726405924E+02  0.00000000000E+00 0.  1.
         11    1    3    3    0    0 -0.35208546095E+02 -0.13611250665E+02 -0.14609400067E+02  0.40476442943E+02  0.51100000000E-03 0. -1.
        -11    1    3    3    0    0  0.74953597547E+01  0.55792784913E+01  0.58464495922E+01  0.11022238404E+02  0.51100000000E-03 0.  1.
         12    1    3    3    0    0  0.16374748924E+02  0.11803656852E+02 -0.56555276183E+01  0.20962912728E+02  0.00000000000E+00 0. -1.
</event>
<event>
 7    1  0.1905073E-013  0.7246153E+02  0.7816164E-02  0.1226708E+00
        -11   -1    0    0    0    0  0.00000000000E+00  0.00000000000E+00  0.45593999997E+02  0.45594000000E+02  0.51100000000E-03 0.  1.
         11   -1    0    0    0    0 -0.00000000000E+00 -0.00000000000E+00 -0.45593999997E+02  0.45594000000E+02  0.51100000000E-03 0. -1.
    9900012    2    1    2    0    0 -0.86248347459E+00  0.19220346031E+01 -0.18607592934E+02  0.72461531845E+02  0.69999949912E+02 0.  0.
        -12    1    1    2    0    0  0.86248347459E+00 -0.19220346031E+01  0.18607592934E+02  0.18726468155E+02  0.00000000000E+00 0.  1.
         11    1    3    3    0    0  0.83672033155E+01  0.28706039694E+01  0.23389745297E+02  0.25006612002E+02  0.51100000000E-03 0.  1.
        -11    1    3    3    0    0  0.43486559319E+01  0.10183331990E+01 -0.25996085782E+02  0.26376965086E+02  0.51100000000E-03 0. -1.
        -12    1    3    3    0    0 -0.13578342722E+02 -0.19669025653E+01 -0.16001252450E+02  0.21077954757E+02  0.00000000000E+00 0.  1.
</event>
<event>
 7    1  0.1905073E-013  0.7246117E+02  0.7816164E-02  0.1226709E+00
        -11   -1    0    0    0    0  0.00000000000E+00  0.00000000000E+00  0.45593999997E+02  0.45594000000E+02  0.51100000000E-03 0. -1.
         11   -1    0    0    0    0 -0.00000000000E+00 -0.00000000000E+00 -0.45593999997E+02  0.45594000000E+02  0.51100000000E-03 0.  1.
    9900012    2    1    2    0    0 -0.67889992687E+01  0.15546068749E+02  0.79324167179E+01  0.72461174332E+02  0.69999484183E+02 0.  0.
        -12    1    1    2    0    0  0.67889992687E+01 -0.15546068749E+02 -0.79324167179E+01  0.18726825668E+02  0.00000000000E+00 0.  1.
         11    1    3    3    0    0 -0.26271160509E+02 -0.65932268756E+01  0.24746982983E+02  0.36688658767E+02  0.51100000000E-03 0. -1.
        -11    1    3    3    0    0  0.82011447943E+01  0.12427207504E+02 -0.14359811649E+02  0.20685706494E+02  0.51100000000E-03 0.  1.
         12    1    3    3    0    0  0.11281016446E+02  0.97120881203E+01 -0.24547546164E+01  0.15086809070E+02  0.00000000000E+00 0. -1.
</event>
<event>
 7    1  0.1905073E-013  0.7246153E+02  0.7816164E-02  0.1226708E+00
        -11   -1    0    0    0    0  0.00000000000E+00  0.00000000000E+00  0.45593999997E+02  0.45594000000E+02  0.51100000000E-03 0. -1.
         11   -1    0    0    0    0 -0.00000000000E+00 -0.00000000000E+00 -0.45593999997E+02  0.45594000000E+02  0.51100000000E-03 0.  1.
    9900012    2    1    2    0    0 -0.13588007607E+02 -0.77586151180E+01  0.10288370342E+02  0.72461531471E+02  0.69999949425E+02 0.  0.
        -12    1    1    2    0    0  0.13588007607E+02  0.77586151180E+01 -0.10288370342E+02  0.18726468529E+02  0.00000000000E+00 0.  1.
         11    1    3    3    0    0 -0.14288963168E+02  0.11974438130E+02 -0.39119220707E+01  0.19049009725E+02  0.51100000000E-03 0. -1.
        -11    1    3    3    0    0  0.19834330715E+02  0.20155314212E+01  0.14146311332E+02  0.24445473331E+02  0.51100000000E-03 0.  1.
        -12    1    3    3    0    0 -0.19133375155E+02 -0.21748584669E+02  0.53981080199E-01  0.28967048415E+02  0.00000000000E+00 0.  1.
</event>
<event>
 7    1  0.1905073E-013  0.7246151E+02  0.7816164E-02  0.1226708E+00
        -11   -1    0    0    0    0  0.00000000000E+00  0.00000000000E+00  0.45593999997E+02  0.45594000000E+02  0.51100000000E-03 0.  1.
         11   -1    0    0    0    0 -0.00000000000E+00 -0.00000000000E+00 -0.45593999997E+02  0.45594000000E+02  0.51100000000E-03 0. -1.
    9900012    2    1    2    0    0  0.58138015151E+01  0.21416828535E+01 -0.17671855576E+02  0.72461506121E+02  0.69999916402E+02 0.  0.
        -12    1    1    2    0    0 -0.58138015151E+01 -0.21416828535E+01  0.17671855576E+02  0.18726493879E+02  0.00000000000E+00 0.  1.
         11    1    3    3    0    0  0.19138387605E+02 -0.12700889829E+02 -0.19365236763E+02  0.30043349975E+02  0.51100000000E-03 0. -1.
        -11    1    3    3    0    0  0.39088217317E+01  0.21426831271E+02  0.75667342063E+01  0.23057394745E+02  0.51100000000E-03 0.  1.
        -12    1    3    3    0    0 -0.17233407822E+02 -0.65842585882E+01 -0.58733530192E+01  0.19360761400E+02  0.00000000000E+00 0.  1.
</event>
<event>
 7    1  0.1905073E-013  0.7246158E+02  0.7816164E-02  0.1226708E+00
        -11   -1    0    0    0    0  0.00000000000E+00  0.00000000000E+00  0.45593999997E+02  0.45594000000E+02  0.51100000000E-03 0.  1.
         11   -1    0    0    0    0 -0.00000000000E+00 -0.00000000000E+00 -0.45593999997E+02  0.45594000000E+02  0.51100000000E-03 0. -1.
    9900012    2    1    2    0    0 -0.16100344651E+02 -0.94089733086E+01 -0.17114479928E+01  0.72461576667E+02  0.70000008302E+02 0.  0.
        -12    1    1    2    0    0  0.16100344651E+02  0.94089733086E+01  0.17114479928E+01  0.18726423333E+02  0.00000000000E+00 0.  1.
         11    1    3    3    0    0  0.96448452103E+01 -0.14219871112E+02 -0.82530069358E+00  0.17202002647E+02  0.51100000000E-03 0. -1.
        -11    1    3    3    0    0 -0.12770895911E+02  0.24301544459E+02 -0.11231874180E+02  0.29661689826E+02  0.51100000000E-03 0.  1.
        -12    1    3    3    0    0 -0.12974293950E+02 -0.19490646656E+02  0.10345726880E+02  0.25597884195E+02  0.00000000000E+00 0.  1.
</event>
<event>
 7    1  0.1905073E-013  0.7246164E+02  0.7816164E-02  0.1226708E+00
        -11   -1    0    0    0    0  0.00000000000E+00  0.00000000000E+00  0.45593999997E+02  0.45594000000E+02  0.51100000000E-03 0. -1.
         11   -1    0    0    0    0 -0.00000000000E+00 -0.00000000000E+00 -0.45593999997E+02  0.45594000000E+02  0.51100000000E-03 0.  1.
    9900012    2    1    2    0    0  0.15355042396E+02 -0.87299680581E+01  0.62198811147E+01  0.72461639159E+02  0.70000089709E+02 0.  0.
        -12    1    1    2    0    0 -0.15355042396E+02  0.87299680581E+01 -0.62198811147E+01  0.18726360841E+02  0.00000000000E+00 0.  1.
         11    1    3    3    0    0 -0.35598688346E+01 -0.52647610016E+01  0.51442682160E+01  0.81764216050E+01  0.51100000000E-03 0. -1.
        -11    1    3    3    0    0  0.18528288417E+02 -0.31201428738E+02  0.34115543523E+01  0.36448118337E+02  0.51100000000E-03 0.  1.
        -12    1    3    3    0    0  0.38662281333E+00  0.27736221681E+02 -0.23359414536E+01  0.27837099217E+02  0.00000000000E+00 0.  1.
</event>
<event>
 7    1  0.1905073E-013  0.7246151E+02  0.7816164E-02  0.1226708E+00
        -11   -1    0    0    0    0  0.00000000000E+00  0.00000000000E+00  0.45593999997E+02  0.45594000000E+02  0.51100000000E-03 0.  1.
         11   -1    0    0    0    0 -0.00000000000E+00 -0.00000000000E+00 -0.45593999997E+02  0.45594000000E+02  0.51100000000E-03 0. -1.
    9900012    2    1    2    0    0  0.56474059485E+01 -0.98383618418E+01 -0.14899489118E+02  0.72461512511E+02  0.69999924727E+02 0.  0.
        -12    1    1    2    0    0 -0.56474059485E+01  0.98383618418E+01  0.14899489118E+02  0.18726487489E+02  0.00000000000E+00 0.  1.
         11    1    3    3    0    0 -0.29071327431E+01 -0.10287557103E+02 -0.31066587696E+01  0.11132680760E+02  0.51100000000E-03 0. -1.
        -11    1    3    3    0    0 -0.19220434659E+02  0.17680033647E+02  0.12303416113E+01  0.26144262066E+02  0.51100000000E-03 0.  1.
        -12    1    3    3    0    0  0.27774973350E+02 -0.17230838385E+02 -0.13023171960E+02  0.35184569686E+02  0.00000000000E+00 0.  1.
</event>
<event>
 7    1  0.1905073E-013  0.7246159E+02  0.7816164E-02  0.1226708E+00
        -11   -1    0    0    0    0  0.00000000000E+00  0.00000000000E+00  0.45593999997E+02  0.45594000000E+02  0.51100000000E-03 0. -1.
         11   -1    0    0    0    0 -0.00000000000E+00 -0.00000000000E+00 -0.45593999997E+02  0.45594000000E+02  0.51100000000E-03 0.  1.
    9900012    2    1    2    0    0  0.11071191914E+02  0.14872963511E-01  0.15103205924E+02  0.72461592422E+02  0.70000028825E+02 0.  0.
        -12    1    1    2    0    0 -0.11071191914E+02 -0.14872963511E-01 -0.15103205924E+02  0.18726407578E+02  0.00000000000E+00 0.  1.
         11    1    3    3    0    0  0.12627739373E+02  0.19019555951E+02  0.46878777745E+01  0.23306211802E+02  0.51100000000E-03 0. -1.
        -11    1    3    3    0    0 -0.91689058121E+01 -0.31105357121E+02  0.12407779905E+02  0.34721248219E+02  0.51100000000E-03 0.  1.
        -12    1    3    3    0    0  0.76123583525E+01  0.12100674133E+02 -0.19924517552E+01  0.14434132401E+02  0.00000000000E+00 0.  1.
</event>
<event>
 7    1  0.1905073E-013  0.7246177E+02  0.7816164E-02  0.1226707E+00
        -11   -1    0    0    0    0  0.00000000000E+00  0.00000000000E+00  0.45593999997E+02  0.45594000000E+02  0.51100000000E-03 0.  1.
         11   -1    0    0    0    0 -0.00000000000E+00 -0.00000000000E+00 -0.45593999997E+02  0.45594000000E+02  0.51100000000E-03 0. -1.
    9900012    2    1    2    0    0 -0.11056880320E+01  0.18622233281E+02  0.16314278147E+01  0.72461770398E+02  0.70000260672E+02 0.  0.
        -12    1    1    2    0    0  0.11056880320E+01 -0.18622233281E+02 -0.16314278147E+01  0.18726229602E+02  0.00000000000E+00 0.  1.
         11    1    3    3    0    0 -0.84132165310E+01  0.84263649184E+01 -0.18253204341E+01  0.12046478037E+02  0.51100000000E-03 0. -1.
        -11    1    3    3    0    0  0.27314389344E+02 -0.11135221435E+02  0.85913454756E+01  0.30722633985E+02  0.51100000000E-03 0.  1.
        -12    1    3    3    0    0 -0.20006860845E+02  0.21331089797E+02 -0.51345972268E+01  0.29692658377E+02  0.00000000000E+00 0.  1.
</event>
<event>
 7    1  0.1905073E-013  0.7246157E+02  0.7816164E-02  0.1226708E+00
        -11   -1    0    0    0    0  0.00000000000E+00  0.00000000000E+00  0.45593999997E+02  0.45594000000E+02  0.51100000000E-03 0. -1.
         11   -1    0    0    0    0 -0.00000000000E+00 -0.00000000000E+00 -0.45593999997E+02  0.45594000000E+02  0.51100000000E-03 0.  1.
    9900012    2    1    2    0    0  0.15170726576E+02  0.10729416039E+02  0.23255031737E+01  0.72461567387E+02  0.69999996213E+02 0.  0.
        -12    1    1    2    0    0 -0.15170726576E+02 -0.10729416039E+02 -0.23255031737E+01  0.18726432613E+02  0.00000000000E+00 0.  1.
         11    1    3    3    0    0  0.60178924672E+01 -0.14043605790E+02 -0.54908906088E+01  0.16235386453E+02  0.51100000000E-03 0. -1.
        -11    1    3    3    0    0  0.19756684028E+02  0.31732079638E+02  0.16495255064E+02  0.40857617182E+02  0.51100000000E-03 0.  1.
        -12    1    3    3    0    0 -0.10603849918E+02 -0.69590578084E+01 -0.86788612811E+01  0.15368563752E+02  0.00000000000E+00 0.  1.
</event>
<event>
 7    1  0.1905073E-013  0.7246162E+02  0.7816164E-02  0.1226708E+00
        -11   -1    0    0    0    0  0.00000000000E+00  0.00000000000E+00  0.45593999997E+02  0.45594000000E+02  0.51100000000E-03 0.  1.
         11   -1    0    0    0    0 -0.00000000000E+00 -0.00000000000E+00 -0.45593999997E+02  0.45594000000E+02  0.51100000000E-03 0. -1.
    9900012    2    1    2    0    0 -0.17185610237E+02  0.20142685842E+00 -0.74358186551E+01  0.72461623653E+02  0.70000069510E+02 0.  0.
        -12    1    1    2    0    0  0.17185610237E+02 -0.20142685842E+00  0.74358186551E+01  0.18726376347E+02  0.00000000000E+00 0.  1.
         11    1    3    3    0    0  0.17289740343E+02 -0.68383571223E+00 -0.26041316350E+01  0.17498121449E+02  0.51100000000E-03 0. -1.
        -11    1    3    3    0    0 -0.30695080785E+02 -0.16426974563E+02 -0.10492608384E+02  0.36361082335E+02  0.51100000000E-03 0.  1.
        -12    1    3    3    0    0 -0.37802697959E+01  0.17312237133E+02  0.56609213636E+01  0.18602419869E+02  0.00000000000E+00 0.  1.
</event>
<event>
 7    1  0.1905073E-013  0.7246163E+02  0.7816164E-02  0.1226708E+00
        -11   -1    0    0    0    0  0.00000000000E+00  0.00000000000E+00  0.45593999997E+02  0.45594000000E+02  0.51100000000E-03 0. -1.
         11   -1    0    0    0    0 -0.00000000000E+00 -0.00000000000E+00 -0.45593999997E+02  0.45594000000E+02  0.51100000000E-03 0.  1.
    9900012    2    1    2    0    0  0.12384541394E+02  0.14032473814E+02 -0.62429090115E+00  0.72461630196E+02  0.70000078033E+02 0.  0.
        -12    1    1    2    0    0 -0.12384541394E+02 -0.14032473814E+02  0.62429090115E+00  0.18726369804E+02  0.00000000000E+00 0.  1.
         11    1    3    3    0    0  0.20191434741E+02 -0.89613622746E+00 -0.25007237107E+02  0.32153677939E+02  0.51100000000E-03 0. -1.
        -11    1    3    3    0    0 -0.11946410878E+02  0.20800482166E+01 -0.34980448370E+00  0.12131186953E+02  0.51100000000E-03 0.  1.
         12    1    3    3    0    0  0.41395175315E+01  0.12848561825E+02  0.24732750689E+02  0.28176765305E+02  0.00000000000E+00 0. -1.
</event>
<event>
 7    1  0.1905073E-013  0.7246156E+02  0.7816164E-02  0.1226708E+00
        -11   -1    0    0    0    0  0.00000000000E+00  0.00000000000E+00  0.45593999997E+02  0.45594000000E+02  0.51100000000E-03 0. -1.
         11   -1    0    0    0    0 -0.00000000000E+00 -0.00000000000E+00 -0.45593999997E+02  0.45594000000E+02  0.51100000000E-03 0.  1.
    9900012    2    1    2    0    0 -0.82190907903E+01 -0.46261628209E+01  0.16177913639E+02  0.72461555448E+02  0.69999980659E+02 0.  0.
        -12    1    1    2    0    0  0.82190907903E+01  0.46261628209E+01 -0.16177913639E+02  0.18726444552E+02  0.00000000000E+00 0.  1.
         11    1    3    3    0    0  0.22687019276E+02  0.12799022172E+02  0.87039757685E+01  0.27464067554E+02  0.51100000000E-03 0. -1.
        -11    1    3    3    0    0 -0.70051934136E+01 -0.18759924112E+02  0.37417141566E+00  0.20028666754E+02  0.51100000000E-03 0.  1.
         12    1    3    3    0    0 -0.23900916653E+02  0.13347391193E+01  0.70997664547E+01  0.24968821139E+02  0.00000000000E+00 0. -1.
</event>
<event>
 7    1  0.1905073E-013  0.7246153E+02  0.7816164E-02  0.1226708E+00
        -11   -1    0    0    0    0  0.00000000000E+00  0.00000000000E+00  0.45593999997E+02  0.45594000000E+02  0.51100000000E-03 0. -1.
         11   -1    0    0    0    0 -0.00000000000E+00 -0.00000000000E+00 -0.45593999997E+02  0.45594000000E+02  0.51100000000E-03 0.  1.
    9900012    2    1    2    0    0  0.14092430728E+02  0.12298497435E+02 -0.91165720410E+00  0.72461527779E+02  0.69999944616E+02 0.  0.
        -12    1    1    2    0    0 -0.14092430728E+02 -0.12298497435E+02  0.91165720410E+00  0.18726472221E+02  0.00000000000E+00 0.  1.
         11    1    3    3    0    0  0.16787809005E+02 -0.17483060567E+02  0.14775757970E+02  0.28386809645E+02  0.51100000000E-03 0.  1.
        -11    1    3    3    0    0  0.14725542784E+01  0.34373887387E+02 -0.10450158663E+02  0.35957452170E+02  0.51100000000E-03 0. -1.
        -12    1    3    3    0    0 -0.41679325549E+01 -0.45923293855E+01 -0.52372565111E+01  0.81172659640E+01  0.00000000000E+00 0.  1.
</event>
<event>
 7    1  0.1905073E-013  0.7246154E+02  0.7816164E-02  0.1226708E+00
        -11   -1    0    0    0    0  0.00000000000E+00  0.00000000000E+00  0.45593999997E+02  0.45594000000E+02  0.51100000000E-03 0. -1.
         11   -1    0    0    0    0 -0.00000000000E+00 -0.00000000000E+00 -0.45593999997E+02  0.45594000000E+02  0.51100000000E-03 0.  1.
    9900012    2    1    2    0    0  0.17114838052E+02 -0.41173837153E+01  0.63882622280E+01  0.72461536787E+02  0.69999956350E+02 0.  0.
        -12    1    1    2    0    0 -0.17114838052E+02  0.41173837153E+01 -0.63882622280E+01  0.18726463213E+02  0.00000000000E+00 0.  1.
         11    1    3    3    0    0 -0.13189446661E+01  0.18167251597E+02  0.11320596150E+02  0.21446317704E+02  0.51100000000E-03 0. -1.
        -11    1    3    3    0    0  0.17509140364E+02  0.29508416368E+01 -0.15568052292E+02  0.23614438699E+02  0.51100000000E-03 0.  1.
         12    1    3    3    0    0  0.92464235352E+00 -0.25235476949E+02  0.10635718370E+02  0.27400780383E+02  0.00000000000E+00 0. -1.
</event>
<event>
 7    1  0.1905073E-013  0.7246156E+02  0.7816164E-02  0.1226708E+00
        -11   -1    0    0    0    0  0.00000000000E+00  0.00000000000E+00  0.45593999997E+02  0.45594000000E+02  0.51100000000E-03 0.  1.
         11   -1    0    0    0    0 -0.00000000000E+00 -0.00000000000E+00 -0.45593999997E+02  0.45594000000E+02  0.51100000000E-03 0. -1.
    9900012    2    1    2    0    0 -0.14811372333E+01  0.18431633345E+02 -0.29598246898E+01  0.72461563140E+02  0.69999990680E+02 0.  0.
        -12    1    1    2    0    0  0.14811372333E+01 -0.18431633345E+02  0.29598246898E+01  0.18726436860E+02  0.00000000000E+00 0.  1.
         11    1    3    3    0    0 -0.20944420858E+02  0.19126234686E+02 -0.39373557972E+01  0.28635369550E+02  0.51100000000E-03 0. -1.
        -11    1    3    3    0    0  0.31308357912E+02 -0.51078461376E+00 -0.26824166736E+01  0.31427210114E+02  0.51100000000E-03 0.  1.
        -12    1    3    3    0    0 -0.11845074288E+02 -0.18381672727E+00  0.36599477809E+01  0.12398983476E+02  0.00000000000E+00 0.  1.
</event>
<event>
 7    1  0.1905073E-013  0.7246160E+02  0.7816164E-02  0.1226708E+00
        -11   -1    0    0    0    0  0.00000000000E+00  0.00000000000E+00  0.45593999997E+02  0.45594000000E+02  0.51100000000E-03 0.  1.
         11   -1    0    0    0    0 -0.00000000000E+00 -0.00000000000E+00 -0.45593999997E+02  0.45594000000E+02  0.51100000000E-03 0. -1.
    9900012    2    1    2    0    0 -0.10347971714E+02  0.78753151331E+01 -0.13475052120E+02  0.72461597871E+02  0.70000035924E+02 0.  0.
        -12    1    1    2    0    0  0.10347971714E+02 -0.78753151331E+01  0.13475052120E+02  0.18726402129E+02  0.00000000000E+00 0.  1.
         11    1    3    3    0    0 -0.92102188009E+01  0.29448799235E+02  0.14576600965E+01  0.30889879896E+02  0.51100000000E-03 0. -1.
        -11    1    3    3    0    0 -0.18345776772E+01 -0.25213479958E+02 -0.22051304020E+02  0.33546166042E+02  0.51100000000E-03 0.  1.
        -12    1    3    3    0    0  0.69682476363E+00  0.36399958561E+01  0.71185918031E+01  0.80255519338E+01  0.00000000000E+00 0.  1.
</event>
<event>
 7    1  0.1905073E-013  0.7246160E+02  0.7816164E-02  0.1226708E+00
        -11   -1    0    0    0    0  0.00000000000E+00  0.00000000000E+00  0.45593999997E+02  0.45594000000E+02  0.51100000000E-03 0. -1.
         11   -1    0    0    0    0 -0.00000000000E+00 -0.00000000000E+00 -0.45593999997E+02  0.45594000000E+02  0.51100000000E-03 0.  1.
    9900012    2    1    2    0    0  0.70610947664E+01  0.86181015988E+01  0.15051490644E+02  0.72461598715E+02  0.70000037023E+02 0.  0.
        -12    1    1    2    0    0 -0.70610947664E+01 -0.86181015988E+01 -0.15051490644E+02  0.18726401285E+02  0.00000000000E+00 0.  1.
         11    1    3    3    0    0  0.51291021378E+00  0.62358415538E+01  0.14718679594E+02  0.15993383820E+02  0.51100000000E-03 0. -1.
        -11    1    3    3    0    0  0.21561936091E+02 -0.12319028906E+02 -0.16269614987E+02  0.29687976240E+02  0.51100000000E-03 0.  1.
        -12    1    3    3    0    0 -0.15013751538E+02  0.14701288951E+02  0.16602426037E+02  0.26780238655E+02  0.00000000000E+00 0.  1.
</event>
<event>
 7    1  0.1905073E-013  0.7246157E+02  0.7816164E-02  0.1226708E+00
        -11   -1    0    0    0    0  0.00000000000E+00  0.00000000000E+00  0.45593999997E+02  0.45594000000E+02  0.51100000000E-03 0. -1.
         11   -1    0    0    0    0 -0.00000000000E+00 -0.00000000000E+00 -0.45593999997E+02  0.45594000000E+02  0.51100000000E-03 0.  1.
    9900012    2    1    2    0    0  0.17459045426E+02  0.54870368701E+00 -0.67497914825E+01  0.72461574073E+02  0.70000004923E+02 0.  0.
        -12    1    1    2    0    0 -0.17459045426E+02 -0.54870368701E+00  0.67497914825E+01  0.18726425927E+02  0.00000000000E+00 0.  1.
         11    1    3    3    0    0 -0.74494934303E+00  0.28392835715E+02  0.71834416250E+00  0.28411689286E+02  0.51100000000E-03 0. -1.
        -11    1    3    3    0    0 -0.24219193612E+01 -0.20131952017E+02  0.13666601939E+01  0.20323113584E+02  0.51100000000E-03 0.  1.
         12    1    3    3    0    0  0.20625914131E+02 -0.77121800115E+01 -0.88347958389E+01  0.23726771204E+02  0.00000000000E+00 0. -1.
</event>
<event>
 7    1  0.1905073E-013  0.7246156E+02  0.7816164E-02  0.1226708E+00
        -11   -1    0    0    0    0  0.00000000000E+00  0.00000000000E+00  0.45593999997E+02  0.45594000000E+02  0.51100000000E-03 0.  1.
         11   -1    0    0    0    0 -0.00000000000E+00 -0.00000000000E+00 -0.45593999997E+02  0.45594000000E+02  0.51100000000E-03 0. -1.
    9900012    2    1    2    0    0 -0.90568433696E+01  0.14080307148E+02 -0.83903566252E+01  0.72461560256E+02  0.69999986923E+02 0.  0.
        -12    1    1    2    0    0  0.90568433696E+01 -0.14080307148E+02  0.83903566252E+01  0.18726439744E+02  0.00000000000E+00 0.  1.
         11    1    3    3    0    0 -0.21075868589E+02  0.19994328536E+02  0.78302170694E+01  0.30087833256E+02  0.51100000000E-03 0. -1.
        -11    1    3    3    0    0  0.96461574343E+00  0.12263621181E+02 -0.17118123781E+02  0.21079778226E+02  0.51100000000E-03 0.  1.
         12    1    3    3    0    0  0.11054409476E+02 -0.18177642569E+02  0.89755008678E+00  0.21293948774E+02  0.00000000000E+00 0. -1.
</event>
<event>
 7    1  0.1905073E-013  0.7246176E+02  0.7816164E-02  0.1226707E+00
        -11   -1    0    0    0    0  0.00000000000E+00  0.00000000000E+00  0.45593999997E+02  0.45594000000E+02  0.51100000000E-03 0. -1.
         11   -1    0    0    0    0 -0.00000000000E+00 -0.00000000000E+00 -0.45593999997E+02  0.45594000000E+02  0.51100000000E-03 0.  1.
    9900012    2    1    2    0    0 -0.69412871829E+01 -0.14891817524E+02 -0.89846653685E+01  0.72461764161E+02  0.70000252547E+02 0.  0.
        -12    1    1    2    0    0  0.69412871829E+01  0.14891817524E+02  0.89846653685E+01  0.18726235839E+02  0.00000000000E+00 0.  1.
         11    1    3    3    0    0 -0.17087773537E+02  0.10530238569E+02 -0.12022706640E+02  0.23397081099E+02  0.51100000000E-03 0. -1.
        -11    1    3    3    0    0  0.22911395397E+02 -0.50308217947E+01  0.74385534559E+01  0.24608398663E+02  0.51100000000E-03 0.  1.
        -12    1    3    3    0    0 -0.12764909044E+02 -0.20391234298E+02 -0.44005121845E+01  0.24456284399E+02  0.00000000000E+00 0.  1.
</event>
<event>
 7    1  0.1905073E-013  0.7246155E+02  0.7816164E-02  0.1226708E+00
        -11   -1    0    0    0    0  0.00000000000E+00  0.00000000000E+00  0.45593999997E+02  0.45594000000E+02  0.51100000000E-03 0.  1.
         11   -1    0    0    0    0 -0.00000000000E+00 -0.00000000000E+00 -0.45593999997E+02  0.45594000000E+02  0.51100000000E-03 0. -1.
    9900012    2    1    2    0    0  0.18039954367E+02  0.26858783575E+01 -0.42457159815E+01  0.72461548113E+02  0.69999971104E+02 0.  0.
        -12    1    1    2    0    0 -0.18039954367E+02 -0.26858783575E+01  0.42457159815E+01  0.18726451887E+02  0.00000000000E+00 0.  1.
         11    1    3    3    0    0  0.77465703075E+01  0.19518741104E+02  0.20084025750E+02  0.29057850857E+02  0.51100000000E-03 0. -1.
        -11    1    3    3    0    0 -0.23222927127E+01 -0.19541398637E+02 -0.52441676684E+01  0.20365672072E+02  0.51100000000E-03 0.  1.
         12    1    3    3    0    0  0.12615676772E+02  0.27085358901E+01 -0.19085574063E+02  0.23038025184E+02  0.00000000000E+00 0. -1.
</event>
<event>
 7    1  0.1905073E-013  0.7246172E+02  0.7816164E-02  0.1226708E+00
        -11   -1    0    0    0    0  0.00000000000E+00  0.00000000000E+00  0.45593999997E+02  0.45594000000E+02  0.51100000000E-03 0.  1.
         11   -1    0    0    0    0 -0.00000000000E+00 -0.00000000000E+00 -0.45593999997E+02  0.45594000000E+02  0.51100000000E-03 0. -1.
    9900012    2    1    2    0    0  0.18211368908E+02  0.34980219834E+01 -0.26045153060E+01  0.72461718594E+02  0.70000193188E+02 0.  0.
        -12    1    1    2    0    0 -0.18211368908E+02 -0.34980219834E+01  0.26045153060E+01  0.18726281406E+02  0.00000000000E+00 0.  1.
         11    1    3    3    0    0 -0.18500648724E+02  0.21554287969E+01  0.63654188825E+01  0.19683455853E+02  0.51100000000E-03 0.  1.
        -11    1    3    3    0    0  0.14324333640E+02  0.17367282013E+02  0.30852961333E+01  0.22722853501E+02  0.51100000000E-03 0. -1.
         12    1    3    3    0    0  0.22387683992E+02 -0.16024688826E+02 -0.12055230322E+02  0.30055409240E+02  0.00000000000E+00 0. -1.
</event>
<event>
 7    1  0.1905073E-013  0.7246157E+02  0.7816164E-02  0.1226708E+00
        -11   -1    0    0    0    0  0.00000000000E+00  0.00000000000E+00  0.45593999997E+02  0.45594000000E+02  0.51100000000E-03 0.  1.
         11   -1    0    0    0    0 -0.00000000000E+00 -0.00000000000E+00 -0.45593999997E+02  0.45594000000E+02  0.51100000000E-03 0. -1.
    9900012    2    1    2    0    0 -0.85420933483E+01 -0.15679323602E+02  0.56454168030E+01  0.72461567391E+02  0.69999996217E+02 0.  0.
        -12    1    1    2    0    0  0.85420933483E+01  0.15679323602E+02 -0.56454168030E+01  0.18726432609E+02  0.00000000000E+00 0.  1.
         11    1    3    3    0    0  0.67339892482E+01  0.94994165390E+00 -0.13438808106E+02  0.15061559146E+02  0.51100000000E-03 0. -1.
        -11    1    3    3    0    0  0.76999427018E+01 -0.25887567455E+02  0.18284988476E+02  0.32615886776E+02  0.51100000000E-03 0.  1.
        -12    1    3    3    0    0 -0.22976025298E+02  0.92583021990E+01  0.79923643303E+00  0.24784121469E+02  0.00000000000E+00 0.  1.
</event>
<event>
 7    1  0.1905073E-013  0.7246150E+02  0.7816164E-02  0.1226708E+00
        -11   -1    0    0    0    0  0.00000000000E+00  0.00000000000E+00  0.45593999997E+02  0.45594000000E+02  0.51100000000E-03 0.  1.
         11   -1    0    0    0    0 -0.00000000000E+00 -0.00000000000E+00 -0.45593999997E+02  0.45594000000E+02  0.51100000000E-03 0. -1.
    9900012    2    1    2    0    0 -0.12203982935E+01 -0.12079881070E+02 -0.14257236685E+02  0.72461502823E+02  0.69999912105E+02 0.  0.
        -12    1    1    2    0    0  0.12203982935E+01  0.12079881070E+02  0.14257236685E+02  0.18726497177E+02  0.00000000000E+00 0.  1.
         11    1    3    3    0    0  0.27384619957E+01 -0.23236295305E+02 -0.17528152883E+02  0.29234581190E+02  0.51100000000E-03 0. -1.
        -11    1    3    3    0    0  0.72854836720E+01 -0.76698247046E+01  0.15002817316E+02  0.18357260444E+02  0.51100000000E-03 0.  1.
         12    1    3    3    0    0 -0.11244343961E+02  0.18826238940E+02 -0.11731901118E+02  0.24869661188E+02  0.00000000000E+00 0. -1.
</event>
<event>
 7    1  0.1905073E-013  0.7246157E+02  0.7816164E-02  0.1226708E+00
        -11   -1    0    0    0    0  0.00000000000E+00  0.00000000000E+00  0.45593999997E+02  0.45594000000E+02  0.51100000000E-03 0.  1.
         11   -1    0    0    0    0 -0.00000000000E+00 -0.00000000000E+00 -0.45593999997E+02  0.45594000000E+02  0.51100000000E-03 0. -1.
    9900012    2    1    2    0    0 -0.88213854654E+00  0.11375346462E+02 -0.14849331275E+02  0.72461566413E+02  0.69999994944E+02 0.  0.
        -12    1    1    2    0    0  0.88213854654E+00 -0.11375346462E+02  0.14849331275E+02  0.18726433587E+02  0.00000000000E+00 0.  1.
         11    1    3    3    0    0 -0.20720406456E+01 -0.13212057568E+02 -0.16848068518E+02  0.21510677132E+02  0.51100000000E-03 0. -1.
        -11    1    3    3    0    0  0.19988306302E+01  0.26386770343E+02  0.19794176407E+02  0.33046427839E+02  0.51100000000E-03 0.  1.
        -12    1    3    3    0    0 -0.80892853118E+00 -0.17993663125E+01 -0.17795439164E+02  0.17904461442E+02  0.00000000000E+00 0.  1.
</event>
<event>
 7    1  0.1905073E-013  0.7246152E+02  0.7816164E-02  0.1226708E+00
        -11   -1    0    0    0    0  0.00000000000E+00  0.00000000000E+00  0.45593999997E+02  0.45594000000E+02  0.51100000000E-03 0.  1.
         11   -1    0    0    0    0 -0.00000000000E+00 -0.00000000000E+00 -0.45593999997E+02  0.45594000000E+02  0.51100000000E-03 0. -1.
    9900012    2    1    2    0    0  0.38454711436E+01  0.10026330215E+02 -0.15341648240E+02  0.72461518307E+02  0.69999932277E+02 0.  0.
        -12    1    1    2    0    0 -0.38454711436E+01 -0.10026330215E+02  0.15341648240E+02  0.18726481693E+02  0.00000000000E+00 0.  1.
         11    1    3    3    0    0  0.13360783353E+02  0.62966167750E+01 -0.38134694984E+01  0.15254522755E+02  0.51100000000E-03 0. -1.
        -11    1    3    3    0    0 -0.21321213453E+02 -0.68355174781E+00 -0.28790983945E+02  0.35832696562E+02  0.51100000000E-03 0.  1.
        -12    1    3    3    0    0  0.11805901244E+02  0.44132651874E+01  0.17262805204E+02  0.21374298990E+02  0.00000000000E+00 0.  1.
</event>
<event>
 7    1  0.1905073E-013  0.7246159E+02  0.7816164E-02  0.1226708E+00
        -11   -1    0    0    0    0  0.00000000000E+00  0.00000000000E+00  0.45593999997E+02  0.45594000000E+02  0.51100000000E-03 0. -1.
         11   -1    0    0    0    0 -0.00000000000E+00 -0.00000000000E+00 -0.45593999997E+02  0.45594000000E+02  0.51100000000E-03 0.  1.
    9900012    2    1    2    0    0 -0.10035599014E+01 -0.10124125577E+02  0.15721749756E+02  0.72461589063E+02  0.70000024450E+02 0.  0.
        -12    1    1    2    0    0  0.10035599014E+01  0.10124125577E+02 -0.15721749756E+02  0.18726410937E+02  0.00000000000E+00 0.  1.
         11    1    3    3    0    0 -0.11654419761E+02 -0.14895250116E+02 -0.66741011459E+00  0.18924571660E+02  0.51100000000E-03 0. -1.
        -11    1    3    3    0    0  0.24891016335E+02  0.14802471610E+02  0.20694609932E+02  0.35594139131E+02  0.51100000000E-03 0.  1.
        -12    1    3    3    0    0 -0.14240156475E+02 -0.10031347071E+02 -0.43054500610E+01  0.17942878273E+02  0.00000000000E+00 0.  1.
</event>
<event>
 7    1  0.1905073E-013  0.7246153E+02  0.7816164E-02  0.1226708E+00
        -11   -1    0    0    0    0  0.00000000000E+00  0.00000000000E+00  0.45593999997E+02  0.45594000000E+02  0.51100000000E-03 0.  1.
         11   -1    0    0    0    0 -0.00000000000E+00 -0.00000000000E+00 -0.45593999997E+02  0.45594000000E+02  0.51100000000E-03 0. -1.
    9900012    2    1    2    0    0  0.11019407364E+02 -0.14984122394E+02 -0.21747483534E+01  0.72461526948E+02  0.69999943533E+02 0.  0.
        -12    1    1    2    0    0 -0.11019407364E+02  0.14984122394E+02  0.21747483534E+01  0.18726473052E+02  0.00000000000E+00 0.  1.
         11    1    3    3    0    0  0.54704484295E+01  0.50413233905E+01 -0.19495945041E+02  0.20867022328E+02  0.51100000000E-03 0. -1.
        -11    1    3    3    0    0 -0.50841249610E+00 -0.31046063856E+02  0.11001804210E+01  0.31069711319E+02  0.51100000000E-03 0.  1.
        -12    1    3    3    0    0  0.60573714303E+01  0.11020618072E+02  0.16221016266E+02  0.20524793301E+02  0.00000000000E+00 0.  1.
</event>
<event>
 7    1  0.1905073E-013  0.7246159E+02  0.7816164E-02  0.1226708E+00
        -11   -1    0    0    0    0  0.00000000000E+00  0.00000000000E+00  0.45593999997E+02  0.45594000000E+02  0.51100000000E-03 0.  1.
         11   -1    0    0    0    0 -0.00000000000E+00 -0.00000000000E+00 -0.45593999997E+02  0.45594000000E+02  0.51100000000E-03 0. -1.
    9900012    2    1    2    0    0 -0.16611731451E+02 -0.34034717122E+01 -0.79463868077E+01  0.72461593382E+02  0.70000030077E+02 0.  0.
        -12    1    1    2    0    0  0.16611731451E+02  0.34034717122E+01  0.79463868077E+01  0.18726406618E+02  0.00000000000E+00 0.  1.
         11    1    3    3    0    0 -0.36633519204E+02 -0.10123235729E+02  0.27159865834E+01  0.38103427854E+02  0.51100000000E-03 0. -1.
        -11    1    3    3    0    0  0.17198838130E+02  0.90065575587E+00 -0.17771309491E+02  0.24747336324E+02  0.51100000000E-03 0.  1.
         12    1    3    3    0    0  0.28229496224E+01  0.58191082605E+01  0.71089361003E+01  0.96108292045E+01  0.00000000000E+00 0. -1.
</event>
<event>
 7    1  0.1905073E-013  0.7246157E+02  0.7816164E-02  0.1226708E+00
        -11   -1    0    0    0    0  0.00000000000E+00  0.00000000000E+00  0.45593999997E+02  0.45594000000E+02  0.51100000000E-03 0. -1.
         11   -1    0    0    0    0 -0.00000000000E+00 -0.00000000000E+00 -0.45593999997E+02  0.45594000000E+02  0.51100000000E-03 0.  1.
    9900012    2    1    2    0    0  0.94960585201E+01 -0.11139992926E+02 -0.11679239029E+02  0.72461569638E+02  0.69999999145E+02 0.  0.
        -12    1    1    2    0    0 -0.94960585201E+01  0.11139992926E+02  0.11679239029E+02  0.18726430362E+02  0.00000000000E+00 0.  1.
         11    1    3    3    0    0 -0.47354145474E+01  0.19376656325E+02  0.13917288062E+02  0.24322209367E+02  0.51100000000E-03 0. -1.
        -11    1    3    3    0    0  0.10567199231E+02 -0.17729028393E+01 -0.12135750013E+02  0.16189049161E+02  0.51100000000E-03 0.  1.
         12    1    3    3    0    0  0.36642738362E+01 -0.28743746412E+02 -0.13460777077E+02  0.31950311110E+02  0.00000000000E+00 0. -1.
</event>
<event>
 7    1  0.1905073E-013  0.7246155E+02  0.7816164E-02  0.1226708E+00
        -11   -1    0    0    0    0  0.00000000000E+00  0.00000000000E+00  0.45593999997E+02  0.45594000000E+02  0.51100000000E-03 0.  1.
         11   -1    0    0    0    0 -0.00000000000E+00 -0.00000000000E+00 -0.45593999997E+02  0.45594000000E+02  0.51100000000E-03 0. -1.
    9900012    2    1    2    0    0 -0.17558234156E+02  0.53100340791E+01 -0.37671994538E+01  0.72461552384E+02  0.69999976669E+02 0.  0.
        -12    1    1    2    0    0  0.17558234156E+02 -0.53100340791E+01  0.37671994538E+01  0.18726447616E+02  0.00000000000E+00 0.  1.
         11    1    3    3    0    0  0.45941921812E+00  0.17403474381E+02 -0.24400176544E+02  0.29974332389E+02  0.51100000000E-03 0. -1.
        -11    1    3    3    0    0 -0.35936112846E+01 -0.20044643471E+02  0.14096464441E+02  0.24767157365E+02  0.51100000000E-03 0.  1.
        -12    1    3    3    0    0 -0.14424042089E+02  0.79512031688E+01  0.65365126490E+01  0.17720062630E+02  0.00000000000E+00 0.  1.
</event>
<event>
 7    1  0.1905073E-013  0.7246156E+02  0.7816164E-02  0.1226708E+00
        -11   -1    0    0    0    0  0.00000000000E+00  0.00000000000E+00  0.45593999997E+02  0.45594000000E+02  0.51100000000E-03 0. -1.
         11   -1    0    0    0    0 -0.00000000000E+00 -0.00000000000E+00 -0.45593999997E+02  0.45594000000E+02  0.51100000000E-03 0.  1.
    9900012    2    1    2    0    0  0.82056725399E+01  0.14787203510E+02  0.80427024977E+01  0.72461561125E+02  0.69999988055E+02 0.  0.
        -12    1    1    2    0    0 -0.82056725399E+01 -0.14787203510E+02 -0.80427024977E+01  0.18726438875E+02  0.00000000000E+00 0.  1.
         11    1    3    3    0    0 -0.86965715558E+01  0.11055648100E+02 -0.24126095251E+02  0.27927158539E+02  0.51100000000E-03 0. -1.
        -11    1    3    3    0    0  0.13055702900E+02 -0.79789119420E+01  0.76835503308E+01  0.17121663469E+02  0.51100000000E-03 0.  1.
         12    1    3    3    0    0  0.38465411954E+01  0.11710467352E+02  0.24485247418E+02  0.27412739117E+02  0.00000000000E+00 0. -1.
</event>
<event>
 7    1  0.1905073E-013  0.7246159E+02  0.7816164E-02  0.1226708E+00
        -11   -1    0    0    0    0  0.00000000000E+00  0.00000000000E+00  0.45593999997E+02  0.45594000000E+02  0.51100000000E-03 0.  1.
         11   -1    0    0    0    0 -0.00000000000E+00 -0.00000000000E+00 -0.45593999997E+02  0.45594000000E+02  0.51100000000E-03 0. -1.
    9900012    2    1    2    0    0 -0.30113902807E+01  0.17823622414E+02 -0.48916604371E+01  0.72461592731E+02  0.70000029228E+02 0.  0.
        -12    1    1    2    0    0  0.30113902807E+01 -0.17823622414E+02  0.48916604371E+01  0.18726407269E+02  0.00000000000E+00 0.  1.
         11    1    3    3    0    0 -0.13389372298E+02 -0.68809113202E+01  0.16179967149E+02  0.22100080731E+02  0.51100000000E-03 0. -1.
        -11    1    3    3    0    0  0.20880324052E+02  0.86790569169E+01 -0.21492251445E+02  0.31196647799E+02  0.51100000000E-03 0.  1.
        -12    1    3    3    0    0 -0.10502342035E+02  0.16025476817E+02  0.42062385902E+00  0.19164864201E+02  0.00000000000E+00 0.  1.
</event>
<event>
 7    1  0.1905073E-013  0.7246156E+02  0.7816164E-02  0.1226708E+00
        -11   -1    0    0    0    0  0.00000000000E+00  0.00000000000E+00  0.45593999997E+02  0.45594000000E+02  0.51100000000E-03 0. -1.
         11   -1    0    0    0    0 -0.00000000000E+00 -0.00000000000E+00 -0.45593999997E+02  0.45594000000E+02  0.51100000000E-03 0.  1.
    9900012    2    1    2    0    0  0.50169581516E+01  0.94540989304E+01  0.15366517703E+02  0.72461555543E+02  0.69999980784E+02 0.  0.
        -12    1    1    2    0    0 -0.50169581516E+01 -0.94540989304E+01 -0.15366517703E+02  0.18726444457E+02  0.00000000000E+00 0.  1.
         11    1    3    3    0    0  0.92908923626E+01  0.21392901456E+02 -0.22889736465E+01  0.23435364606E+02  0.51100000000E-03 0. -1.
        -11    1    3    3    0    0  0.86440844032E+01 -0.32306295916E+01  0.28557475315E+02  0.30011440474E+02  0.51100000000E-03 0.  1.
        -12    1    3    3    0    0 -0.12918018614E+02 -0.87081729344E+01 -0.10901983965E+02  0.19014750462E+02  0.00000000000E+00 0.  1.
</event>
<event>
 7    1  0.1905073E-013  0.7246157E+02  0.7816164E-02  0.1226708E+00
        -11   -1    0    0    0    0  0.00000000000E+00  0.00000000000E+00  0.45593999997E+02  0.45594000000E+02  0.51100000000E-03 0.  1.
         11   -1    0    0    0    0 -0.00000000000E+00 -0.00000000000E+00 -0.45593999997E+02  0.45594000000E+02  0.51100000000E-03 0. -1.
    9900012    2    1    2    0    0  0.68643970342E+01 -0.12979993874E+02 -0.11622346159E+02  0.72461571674E+02  0.70000001797E+02 0.  0.
        -12    1    1    2    0    0 -0.68643970342E+01  0.12979993874E+02  0.11622346159E+02  0.18726428326E+02  0.00000000000E+00 0.  1.
         11    1    3    3    0    0  0.16430392415E+02 -0.14978301540E+02 -0.26351683942E+02  0.34477798056E+02  0.51100000000E-03 0. -1.
        -11    1    3    3    0    0 -0.16738325590E+02 -0.10201254622E+02  0.13453492557E+02  0.23774641988E+02  0.51100000000E-03 0.  1.
        -12    1    3    3    0    0  0.71723302097E+01  0.12199562287E+02  0.12758452262E+01  0.14209131630E+02  0.00000000000E+00 0.  1.
</event>
<event>
 7    1  0.2110939E-013  0.7246152E+02  0.7816164E-02  0.1226708E+00
        -11   -1    0    0    0    0  0.00000000000E+00  0.00000000000E+00  0.45593999997E+02  0.45594000000E+02  0.51100000000E-03 0. -1.
         11   -1    0    0    0    0 -0.00000000000E+00 -0.00000000000E+00 -0.45593999997E+02  0.45594000000E+02  0.51100000000E-03 0.  1.
    9900012    2    1    2    0    0  0.12120222804E+02 -0.43884214914E+01  0.13583922208E+02  0.72461521779E+02  0.69999936800E+02 0.  0.
        -12    1    1    2    0    0 -0.12120222804E+02  0.43884214914E+01 -0.13583922208E+02  0.18726478221E+02  0.00000000000E+00 0.  1.
         11    1    3    3    0    0  0.58835670097E+01  0.27305717550E+02  0.75962832358E+01  0.28946883959E+02  0.51100000000E-03 0. -1.
        -11    1    3    3    0    0  0.13438364263E+02 -0.21391644421E+02 -0.61936543863E+01  0.26010640900E+02  0.51100000000E-03 0.  1.
         12    1    3    3    0    0 -0.72017084689E+01 -0.10302494620E+02  0.12181293359E+02  0.17503996920E+02  0.00000000000E+00 0. -1.
</event>
<event>
 7    1  0.1905073E-013  0.7246158E+02  0.7816164E-02  0.1226708E+00
        -11   -1    0    0    0    0  0.00000000000E+00  0.00000000000E+00  0.45593999997E+02  0.45594000000E+02  0.51100000000E-03 0.  1.
         11   -1    0    0    0    0 -0.00000000000E+00 -0.00000000000E+00 -0.45593999997E+02  0.45594000000E+02  0.51100000000E-03 0. -1.
    9900012    2    1    2    0    0  0.23762575096E+00 -0.10399499466E+02 -0.15571535221E+02  0.72461581114E+02  0.70000014095E+02 0.  0.
        -12    1    1    2    0    0 -0.23762575096E+00  0.10399499466E+02  0.15571535221E+02  0.18726418886E+02  0.00000000000E+00 0.  1.
         11    1    3    3    0    0 -0.57763954301E+00 -0.19395374215E+02  0.21372911876E+02  0.28867205800E+02  0.51100000000E-03 0. -1.
        -11    1    3    3    0    0  0.10737680986E+02  0.66890660129E+01 -0.23918593656E+02  0.27058095274E+02  0.51100000000E-03 0.  1.
         12    1    3    3    0    0 -0.99224156919E+01  0.23068087365E+01 -0.13025853441E+02  0.16536280041E+02  0.00000000000E+00 0. -1.
</event>
<event>
 7    1  0.1905073E-013  0.7246089E+02  0.7816164E-02  0.1226710E+00
        -11   -1    0    0    0    0  0.00000000000E+00  0.00000000000E+00  0.45593999997E+02  0.45594000000E+02  0.51100000000E-03 0. -1.
         11   -1    0    0    0    0 -0.00000000000E+00 -0.00000000000E+00 -0.45593999997E+02  0.45594000000E+02  0.51100000000E-03 0.  1.
    9900012    2    1    2    0    0 -0.16003799392E+02  0.19292859263E+01  0.95321022925E+01  0.72460888282E+02  0.69999111547E+02 0.  0.
        -12    1    1    2    0    0  0.16003799392E+02 -0.19292859263E+01 -0.95321022925E+01  0.18727111718E+02  0.00000000000E+00 0.  1.
         11    1    3    3    0    0 -0.33507341104E+02  0.14018371218E+02  0.10652681600E+02  0.37851502810E+02  0.51100000000E-03 0. -1.
        -11    1    3    3    0    0 -0.37000628124E+01 -0.77883546273E+01 -0.81459868770E+01  0.11861957472E+02  0.51100000000E-03 0.  1.
         12    1    3    3    0    0  0.21203604524E+02 -0.43007306644E+01  0.70254075694E+01  0.22747427999E+02  0.00000000000E+00 0. -1.
</event>
<event>
 7    1  0.1905073E-013  0.7246158E+02  0.7816164E-02  0.1226708E+00
        -11   -1    0    0    0    0  0.00000000000E+00  0.00000000000E+00  0.45593999997E+02  0.45594000000E+02  0.51100000000E-03 0. -1.
         11   -1    0    0    0    0 -0.00000000000E+00 -0.00000000000E+00 -0.45593999997E+02  0.45594000000E+02  0.51100000000E-03 0.  1.
    9900012    2    1    2    0    0  0.18575246273E+02  0.21249583490E+01  0.10600768828E+01  0.72461575218E+02  0.70000006415E+02 0.  0.
        -12    1    1    2    0    0 -0.18575246273E+02 -0.21249583490E+01 -0.10600768828E+01  0.18726424782E+02  0.00000000000E+00 0.  1.
         11    1    3    3    0    0  0.96220906741E+01  0.10182608182E+02  0.24510121437E+02  0.28231475190E+02  0.51100000000E-03 0. -1.
        -11    1    3    3    0    0 -0.31274484936E+01  0.11910926241E+02 -0.15003406023E+02  0.19410133708E+02  0.51100000000E-03 0.  1.
         12    1    3    3    0    0  0.12080604093E+02 -0.19968576074E+02 -0.84466385309E+01  0.24819966320E+02  0.00000000000E+00 0. -1.
</event>
<event>
 7    1  0.1905073E-013  0.7246180E+02  0.7816164E-02  0.1226707E+00
        -11   -1    0    0    0    0  0.00000000000E+00  0.00000000000E+00  0.45593999997E+02  0.45594000000E+02  0.51100000000E-03 0.  1.
         11   -1    0    0    0    0 -0.00000000000E+00 -0.00000000000E+00 -0.45593999997E+02  0.45594000000E+02  0.51100000000E-03 0. -1.
    9900012    2    1    2    0    0 -0.15946025561E+02 -0.53528834148E+01 -0.82305309470E+01  0.72461795587E+02  0.70000293485E+02 0.  0.
        -12    1    1    2    0    0  0.15946025561E+02  0.53528834148E+01  0.82305309470E+01  0.18726204413E+02  0.00000000000E+00 0.  1.
         11    1    3    3    0    0  0.14528133550E+01 -0.33716869486E+02 -0.10834061518E+02  0.35444531932E+02  0.51100000000E-03 0. -1.
        -11    1    3    3    0    0 -0.16109011083E+02  0.14517267141E+02  0.63848219809E+01  0.22605690330E+02  0.51100000000E-03 0.  1.
         12    1    3    3    0    0 -0.12898278335E+01  0.13846718931E+02 -0.37812914095E+01  0.14411573326E+02  0.00000000000E+00 0. -1.
</event>
<event>
 7    1  0.1905073E-013  0.7246155E+02  0.7816164E-02  0.1226708E+00
        -11   -1    0    0    0    0  0.00000000000E+00  0.00000000000E+00  0.45593999997E+02  0.45594000000E+02  0.51100000000E-03 0. -1.
         11   -1    0    0    0    0 -0.00000000000E+00 -0.00000000000E+00 -0.45593999997E+02  0.45594000000E+02  0.51100000000E-03 0.  1.
    9900012    2    1    2    0    0  0.11163008861E+02 -0.20751759304E+01  0.14891640379E+02  0.72461546114E+02  0.69999968501E+02 0.  0.
        -12    1    1    2    0    0 -0.11163008861E+02  0.20751759304E+01 -0.14891640379E+02  0.18726453886E+02  0.00000000000E+00 0.  1.
         11    1    3    3    0    0  0.93962909078E+01  0.94568946624E+01  0.39371067797E+00  0.13337096679E+02  0.51100000000E-03 0. -1.
        -11    1    3    3    0    0 -0.27756634392E+01 -0.34102924310E+02  0.10196428577E+02  0.35702673709E+02  0.51100000000E-03 0.  1.
        -12    1    3    3    0    0  0.45423813924E+01  0.22570853717E+02  0.43015011239E+01  0.23421775726E+02  0.00000000000E+00 0.  1.
</event>
<event>
 7    1  0.1905073E-013  0.7246157E+02  0.7816164E-02  0.1226708E+00
        -11   -1    0    0    0    0  0.00000000000E+00  0.00000000000E+00  0.45593999997E+02  0.45594000000E+02  0.51100000000E-03 0. -1.
         11   -1    0    0    0    0 -0.00000000000E+00 -0.00000000000E+00 -0.45593999997E+02  0.45594000000E+02  0.51100000000E-03 0.  1.
    9900012    2    1    2    0    0 -0.12804140846E+02 -0.40954831786E+01  0.13036873398E+02  0.72461572864E+02  0.70000003348E+02 0.  0.
        -12    1    1    2    0    0  0.12804140846E+02  0.40954831786E+01 -0.13036873398E+02  0.18726427136E+02  0.00000000000E+00 0.  1.
         11    1    3    3    0    0  0.19993838167E+02  0.53950672412E+01 -0.16896218822E+02  0.26727187018E+02  0.51100000000E-03 0. -1.
        -11    1    3    3    0    0 -0.19625572659E+02 -0.50314063299E+01  0.14227968528E+02  0.24757084654E+02  0.51100000000E-03 0.  1.
         12    1    3    3    0    0 -0.13172406354E+02 -0.44591440899E+01  0.15705123691E+02  0.20977301193E+02  0.00000000000E+00 0. -1.
</event>
<event>
 7    1  0.1905073E-013  0.7246162E+02  0.7816164E-02  0.1226708E+00
        -11   -1    0    0    0    0  0.00000000000E+00  0.00000000000E+00  0.45593999997E+02  0.45594000000E+02  0.51100000000E-03 0.  1.
         11   -1    0    0    0    0 -0.00000000000E+00 -0.00000000000E+00 -0.45593999997E+02  0.45594000000E+02  0.51100000000E-03 0. -1.
    9900012    2    1    2    0    0 -0.58467939243E+01  0.61970729994E+01 -0.16675991283E+02  0.72461617589E+02  0.70000061610E+02 0.  0.
        -12    1    1    2    0    0  0.58467939243E+01 -0.61970729994E+01  0.16675991283E+02  0.18726382411E+02  0.00000000000E+00 0.  1.
         11    1    3    3    0    0 -0.36878976671E+01  0.13115738086E+02 -0.26745083766E+02  0.30015374072E+02  0.51100000000E-03 0. -1.
        -11    1    3    3    0    0  0.10124740741E+02  0.12062225922E+02  0.11935919224E+02  0.19760410857E+02  0.51100000000E-03 0.  1.
         12    1    3    3    0    0 -0.12283636998E+02 -0.18980891009E+02 -0.18668267408E+01  0.22685832660E+02  0.00000000000E+00 0. -1.
</event>
<event>
 7    1  0.1905073E-013  0.7246158E+02  0.7816164E-02  0.1226708E+00
        -11   -1    0    0    0    0  0.00000000000E+00  0.00000000000E+00  0.45593999997E+02  0.45594000000E+02  0.51100000000E-03 0.  1.
         11   -1    0    0    0    0 -0.00000000000E+00 -0.00000000000E+00 -0.45593999997E+02  0.45594000000E+02  0.51100000000E-03 0. -1.
    9900012    2    1    2    0    0 -0.37905117767E+01  0.12771554768E+02 -0.13160476319E+02  0.72461582092E+02  0.70000015369E+02 0.  0.
        -12    1    1    2    0    0  0.37905117767E+01 -0.12771554768E+02  0.13160476319E+02  0.18726417908E+02  0.00000000000E+00 0.  1.
         11    1    3    3    0    0  0.82535774404E+01  0.19222435711E+01  0.12126458845E+02  0.14794173356E+02  0.51100000000E-03 0.  1.
        -11    1    3    3    0    0 -0.95988283136E+01  0.29301772429E+02 -0.23881340072E+02  0.39000638154E+02  0.51100000000E-03 0. -1.
        -12    1    3    3    0    0 -0.24452609036E+01 -0.18452461233E+02 -0.14055950918E+01  0.18666770583E+02  0.00000000000E+00 0.  1.
</event>
<event>
 7    1  0.1905073E-013  0.7246160E+02  0.7816164E-02  0.1226708E+00
        -11   -1    0    0    0    0  0.00000000000E+00  0.00000000000E+00  0.45593999997E+02  0.45594000000E+02  0.51100000000E-03 0.  1.
         11   -1    0    0    0    0 -0.00000000000E+00 -0.00000000000E+00 -0.45593999997E+02  0.45594000000E+02  0.51100000000E-03 0. -1.
    9900012    2    1    2    0    0 -0.46711197881E+01  0.10749958506E+02  0.14604690759E+02  0.72461602586E+02  0.70000042066E+02 0.  0.
        -12    1    1    2    0    0  0.46711197881E+01 -0.10749958506E+02 -0.14604690759E+02  0.18726397414E+02  0.00000000000E+00 0.  1.
         11    1    3    3    0    0  0.85719508441E+01 -0.26221650068E+02 -0.39347089326E+01  0.27866381326E+02  0.51100000000E-03 0.  1.
        -11    1    3    3    0    0 -0.77979706131E+01  0.32213366798E+02  0.16797005389E+02  0.37157081915E+02  0.51100000000E-03 0. -1.
        -12    1    3    3    0    0 -0.54451000191E+01  0.47582417760E+01  0.17423943026E+01  0.74381393455E+01  0.00000000000E+00 0.  1.
</event>
<event>
 7    1  0.1905073E-013  0.7246179E+02  0.7816164E-02  0.1226707E+00
        -11   -1    0    0    0    0  0.00000000000E+00  0.00000000000E+00  0.45593999997E+02  0.45594000000E+02  0.51100000000E-03 0. -1.
         11   -1    0    0    0    0 -0.00000000000E+00 -0.00000000000E+00 -0.45593999997E+02  0.45594000000E+02  0.51100000000E-03 0.  1.
    9900012    2    1    2    0    0 -0.15178879280E+01  0.18600557638E+02  0.15447434777E+01  0.72461789475E+02  0.70000285523E+02 0.  0.
        -12    1    1    2    0    0  0.15178879280E+01 -0.18600557638E+02 -0.15447434777E+01  0.18726210525E+02  0.00000000000E+00 0.  1.
         11    1    3    3    0    0  0.18813218008E+02  0.69900714943E+00 -0.17545772513E+02  0.25734799710E+02  0.51100000000E-03 0.  1.
        -11    1    3    3    0    0 -0.89073998887E+01  0.29208472175E+01  0.25227828248E+02  0.26913127645E+02  0.51100000000E-03 0. -1.
         12    1    3    3    0    0 -0.11423706047E+02  0.14980703271E+02 -0.61373122577E+01  0.19813862120E+02  0.00000000000E+00 0. -1.
</event>
<event>
 7    1  0.1905073E-013  0.7246159E+02  0.7816164E-02  0.1226708E+00
        -11   -1    0    0    0    0  0.00000000000E+00  0.00000000000E+00  0.45593999997E+02  0.45594000000E+02  0.51100000000E-03 0.  1.
         11   -1    0    0    0    0 -0.00000000000E+00 -0.00000000000E+00 -0.45593999997E+02  0.45594000000E+02  0.51100000000E-03 0. -1.
    9900012    2    1    2    0    0 -0.12320656331E+02 -0.61119486915E+01  0.12709201580E+02  0.72461593669E+02  0.70000030450E+02 0.  0.
        -12    1    1    2    0    0  0.12320656331E+02  0.61119486915E+01 -0.12709201580E+02  0.18726406331E+02  0.00000000000E+00 0.  1.
         11    1    3    3    0    0 -0.18065634998E+02 -0.98404315798E+01 -0.16906911128E+02  0.26627897133E+02  0.51100000000E-03 0. -1.
        -11    1    3    3    0    0  0.34941465549E-01 -0.83462601360E+01  0.31279354719E+02  0.32373744162E+02  0.51100000000E-03 0.  1.
        -12    1    3    3    0    0  0.57100372012E+01  0.12074743024E+02 -0.16632420100E+01  0.13459952375E+02  0.00000000000E+00 0.  1.
</event>
<event>
 7    1  0.1905073E-013  0.7246160E+02  0.7816164E-02  0.1226708E+00
        -11   -1    0    0    0    0  0.00000000000E+00  0.00000000000E+00  0.45593999997E+02  0.45594000000E+02  0.51100000000E-03 0. -1.
         11   -1    0    0    0    0 -0.00000000000E+00 -0.00000000000E+00 -0.45593999997E+02  0.45594000000E+02  0.51100000000E-03 0.  1.
    9900012    2    1    2    0    0  0.65312334627E+01 -0.16350964979E+02 -0.63770754904E+01  0.72461597299E+02  0.70000035179E+02 0.  0.
        -12    1    1    2    0    0 -0.65312334627E+01  0.16350964979E+02  0.63770754904E+01  0.18726402701E+02  0.00000000000E+00 0.  1.
         11    1    3    3    0    0 -0.62514260914E+01 -0.54857481436E+01  0.10129326215E+02  0.13106372904E+02  0.51100000000E-03 0. -1.
        -11    1    3    3    0    0  0.28918036861E+02 -0.22675750908E+02 -0.13421843406E+02  0.39122735280E+02  0.51100000000E-03 0.  1.
        -12    1    3    3    0    0 -0.16135377307E+02  0.11810534072E+02 -0.30845582987E+01  0.20232489115E+02  0.00000000000E+00 0.  1.
</event>
<event>
 7    1  0.2648387E-013  0.7246156E+02  0.7816164E-02  0.1226708E+00
        -11   -1    0    0    0    0  0.00000000000E+00  0.00000000000E+00  0.45593999997E+02  0.45594000000E+02  0.51100000000E-03 0. -1.
         11   -1    0    0    0    0 -0.00000000000E+00 -0.00000000000E+00 -0.45593999997E+02  0.45594000000E+02  0.51100000000E-03 0.  1.
    9900012    2    1    2    0    0  0.43728960263E+01  0.58638184098E+01  0.17238708793E+02  0.72461557016E+02  0.69999982702E+02 0.  0.
        -12    1    1    2    0    0 -0.43728960263E+01 -0.58638184098E+01 -0.17238708793E+02  0.18726442984E+02  0.00000000000E+00 0.  1.
         11    1    3    3    0    0 -0.23552165159E+01  0.55885605591E+01  0.30145537352E+02  0.30749511809E+02  0.51100000000E-03 0. -1.
        -11    1    3    3    0    0 -0.16087103493E+01 -0.13212882910E+02 -0.20253821183E+02  0.24236037147E+02  0.51100000000E-03 0.  1.
         12    1    3    3    0    0  0.83368228915E+01  0.13488140761E+02  0.73469926236E+01  0.17476008060E+02  0.00000000000E+00 0. -1.
</event>
<event>
 7    1  0.1905073E-013  0.7246158E+02  0.7816164E-02  0.1226708E+00
        -11   -1    0    0    0    0  0.00000000000E+00  0.00000000000E+00  0.45593999997E+02  0.45594000000E+02  0.51100000000E-03 0.  1.
         11   -1    0    0    0    0 -0.00000000000E+00 -0.00000000000E+00 -0.45593999997E+02  0.45594000000E+02  0.51100000000E-03 0. -1.
    9900012    2    1    2    0    0  0.15227141454E+02  0.62589121674E+01 -0.89240741856E+01  0.72461576998E+02  0.70000008733E+02 0.  0.
        -12    1    1    2    0    0 -0.15227141454E+02 -0.62589121674E+01  0.89240741856E+01  0.18726423002E+02  0.00000000000E+00 0.  1.
         11    1    3    3    0    0 -0.31902825379E+01 -0.42726966030E+01 -0.69155488037E+01  0.87326201366E+01  0.51100000000E-03 0. -1.
        -11    1    3    3    0    0  0.30108744774E+02  0.27985652261E+02 -0.80124563141E+01  0.41879979713E+02  0.51100000000E-03 0.  1.
        -12    1    3    3    0    0 -0.11691320782E+02 -0.17454043490E+02  0.60039309322E+01  0.21848977148E+02  0.00000000000E+00 0.  1.
</event>
<event>
 7    1  0.1905073E-013  0.7246167E+02  0.7816164E-02  0.1226708E+00
        -11   -1    0    0    0    0  0.00000000000E+00  0.00000000000E+00  0.45593999997E+02  0.45594000000E+02  0.51100000000E-03 0. -1.
         11   -1    0    0    0    0 -0.00000000000E+00 -0.00000000000E+00 -0.45593999997E+02  0.45594000000E+02  0.51100000000E-03 0.  1.
    9900012    2    1    2    0    0  0.58889156062E+00  0.17818845009E+02  0.57286525253E+01  0.72461668526E+02  0.70000127965E+02 0.  0.
        -12    1    1    2    0    0 -0.58889156062E+00 -0.17818845009E+02 -0.57286525253E+01  0.18726331474E+02  0.00000000000E+00 0.  1.
         11    1    3    3    0    0  0.29204163214E+02 -0.29771743036E+01  0.16011092858E+02  0.33438029407E+02  0.51100000000E-03 0. -1.
        -11    1    3    3    0    0 -0.75894744314E+01  0.12381590897E+02 -0.70628535432E+01  0.16148926148E+02  0.51100000000E-03 0.  1.
         12    1    3    3    0    0 -0.21025797222E+02  0.84144284155E+01 -0.32195867895E+01  0.22874712971E+02  0.00000000000E+00 0. -1.
</event>
<event>
 7    1  0.1905073E-013  0.7246159E+02  0.7816164E-02  0.1226708E+00
        -11   -1    0    0    0    0  0.00000000000E+00  0.00000000000E+00  0.45593999997E+02  0.45594000000E+02  0.51100000000E-03 0.  1.
         11   -1    0    0    0    0 -0.00000000000E+00 -0.00000000000E+00 -0.45593999997E+02  0.45594000000E+02  0.51100000000E-03 0. -1.
    9900012    2    1    2    0    0 -0.78152348816E+01  0.10097626962E+02 -0.13698117686E+02  0.72461590983E+02  0.70000026951E+02 0.  0.
        -12    1    1    2    0    0  0.78152348816E+01 -0.10097626962E+02  0.13698117686E+02  0.18726409017E+02  0.00000000000E+00 0.  1.
         11    1    3    3    0    0 -0.30654426535E+02 -0.78637091126E+01 -0.20078579518E+02  0.37479076068E+02  0.51100000000E-03 0. -1.
        -11    1    3    3    0    0  0.27854594509E+01  0.32718836560E+01  0.90133658387E+01  0.99852276396E+01  0.51100000000E-03 0.  1.
         12    1    3    3    0    0  0.20053732202E+02  0.14689452419E+02 -0.26329040063E+01  0.24997287275E+02  0.00000000000E+00 0. -1.
</event>
<event>
 7    1  0.1905073E-013  0.7246156E+02  0.7816164E-02  0.1226708E+00
        -11   -1    0    0    0    0  0.00000000000E+00  0.00000000000E+00  0.45593999997E+02  0.45594000000E+02  0.51100000000E-03 0. -1.
         11   -1    0    0    0    0 -0.00000000000E+00 -0.00000000000E+00 -0.45593999997E+02  0.45594000000E+02  0.51100000000E-03 0.  1.
    9900012    2    1    2    0    0 -0.13229631363E+02  0.93465184355E+01  0.93967638766E+01  0.72461555484E+02  0.69999980706E+02 0.  0.
        -12    1    1    2    0    0  0.13229631363E+02 -0.93465184355E+01 -0.93967638766E+01  0.18726444516E+02  0.00000000000E+00 0.  1.
         11    1    3    3    0    0  0.68530023702E+01  0.15803366110E+02  0.24004119070E+02  0.29545012345E+02  0.51100000000E-03 0.  1.
        -11    1    3    3    0    0 -0.26825129119E+02 -0.12546583185E+02 -0.56313894768E+01  0.30144930744E+02  0.51100000000E-03 0. -1.
        -12    1    3    3    0    0  0.67424953855E+01  0.60897355107E+01 -0.89759657162E+01  0.12771612394E+02  0.00000000000E+00 0.  1.
</event>
<event>
 7    1  0.1905073E-013  0.7246158E+02  0.7816164E-02  0.1226708E+00
        -11   -1    0    0    0    0  0.00000000000E+00  0.00000000000E+00  0.45593999997E+02  0.45594000000E+02  0.51100000000E-03 0.  1.
         11   -1    0    0    0    0 -0.00000000000E+00 -0.00000000000E+00 -0.45593999997E+02  0.45594000000E+02  0.51100000000E-03 0. -1.
    9900012    2    1    2    0    0  0.46983118724E+01  0.90137927002E+01 -0.15727560429E+02  0.72461581487E+02  0.70000014580E+02 0.  0.
        -12    1    1    2    0    0 -0.46983118724E+01 -0.90137927002E+01  0.15727560429E+02  0.18726418513E+02  0.00000000000E+00 0.  1.
         11    1    3    3    0    0  0.31870848645E+02  0.22379404230E+02 -0.16034983675E+02  0.42115429819E+02  0.51100000000E-03 0. -1.
        -11    1    3    3    0    0 -0.12515245568E+02 -0.54207693716E+01 -0.57388374483E+00  0.13650840818E+02  0.51100000000E-03 0.  1.
         12    1    3    3    0    0 -0.14657291205E+02 -0.79448421584E+01  0.88130699109E+00  0.16695310850E+02  0.00000000000E+00 0. -1.
</event>
<event>
 7    1  0.1905073E-013  0.7246165E+02  0.7816164E-02  0.1226708E+00
        -11   -1    0    0    0    0  0.00000000000E+00  0.00000000000E+00  0.45593999997E+02  0.45594000000E+02  0.51100000000E-03 0.  1.
         11   -1    0    0    0    0 -0.00000000000E+00 -0.00000000000E+00 -0.45593999997E+02  0.45594000000E+02  0.51100000000E-03 0. -1.
    9900012    2    1    2    0    0  0.62456907616E+01 -0.57673779707E+01 -0.16685466354E+02  0.72461652540E+02  0.70000107140E+02 0.  0.
        -12    1    1    2    0    0 -0.62456907616E+01  0.57673779707E+01  0.16685466354E+02  0.18726347460E+02  0.00000000000E+00 0.  1.
         11    1    3    3    0    0  0.14269569873E+02 -0.71527310384E+01 -0.32625933681E+02  0.36321257336E+02  0.51100000000E-03 0. -1.
        -11    1    3    3    0    0  0.26705127624E+01  0.40330159777E+01  0.22703434634E+02  0.23212987759E+02  0.51100000000E-03 0.  1.
        -12    1    3    3    0    0 -0.10694391874E+02 -0.26476629099E+01 -0.67629673069E+01  0.12927407444E+02  0.00000000000E+00 0.  1.
</event>
<event>
 7    1  0.1905073E-013  0.7246156E+02  0.7816164E-02  0.1226708E+00
        -11   -1    0    0    0    0  0.00000000000E+00  0.00000000000E+00  0.45593999997E+02  0.45594000000E+02  0.51100000000E-03 0. -1.
         11   -1    0    0    0    0 -0.00000000000E+00 -0.00000000000E+00 -0.45593999997E+02  0.45594000000E+02  0.51100000000E-03 0.  1.
    9900012    2    1    2    0    0 -0.16726192447E+02 -0.17531657253E+01  0.82365333235E+01  0.72461559201E+02  0.69999985549E+02 0.  0.
        -12    1    1    2    0    0  0.16726192447E+02  0.17531657253E+01 -0.82365333235E+01  0.18726440799E+02  0.00000000000E+00 0.  1.
         11    1    3    3    0    0 -0.14956763427E+02 -0.26299280920E+00  0.33311150335E+01  0.15325477645E+02  0.51100000000E-03 0. -1.
        -11    1    3    3    0    0  0.23417569281E+02  0.53718765599E+01  0.15899634152E+02  0.28810379644E+02  0.51100000000E-03 0.  1.
        -12    1    3    3    0    0 -0.25186998300E+02 -0.68620494761E+01 -0.10994215862E+02  0.28325701912E+02  0.00000000000E+00 0.  1.
</event>
<event>
 7    1  0.1905073E-013  0.7246156E+02  0.7816164E-02  0.1226708E+00
        -11   -1    0    0    0    0  0.00000000000E+00  0.00000000000E+00  0.45593999997E+02  0.45594000000E+02  0.51100000000E-03 0.  1.
         11   -1    0    0    0    0 -0.00000000000E+00 -0.00000000000E+00 -0.45593999997E+02  0.45594000000E+02  0.51100000000E-03 0. -1.
    9900012    2    1    2    0    0 -0.23042184119E+01  0.92151886904E+01 -0.16138473611E+02  0.72461562656E+02  0.69999990050E+02 0.  0.
        -12    1    1    2    0    0  0.23042184119E+01 -0.92151886904E+01  0.16138473611E+02  0.18726437344E+02  0.00000000000E+00 0.  1.
         11    1    3    3    0    0 -0.67489126423E+01 -0.51222013540E+00 -0.11732729358E+02  0.13545003868E+02  0.51100000000E-03 0. -1.
        -11    1    3    3    0    0 -0.88766889935E+01  0.10939222981E+02  0.23824283570E+02  0.27677765351E+02  0.51100000000E-03 0.  1.
        -12    1    3    3    0    0  0.13321383224E+02 -0.12118141548E+01 -0.28230027824E+02  0.31238793438E+02  0.00000000000E+00 0.  1.
</event>
<event>
 7    1  0.1905073E-013  0.7246158E+02  0.7816164E-02  0.1226708E+00
        -11   -1    0    0    0    0  0.00000000000E+00  0.00000000000E+00  0.45593999997E+02  0.45594000000E+02  0.51100000000E-03 0.  1.
         11   -1    0    0    0    0 -0.00000000000E+00 -0.00000000000E+00 -0.45593999997E+02  0.45594000000E+02  0.51100000000E-03 0. -1.
    9900012    2    1    2    0    0  0.16107962650E+02  0.61835561094E+01 -0.72784695693E+01  0.72461576258E+02  0.70000007769E+02 0.  0.
        -12    1    1    2    0    0 -0.16107962650E+02 -0.61835561094E+01  0.72784695693E+01  0.18726423742E+02  0.00000000000E+00 0.  1.
         11    1    3    3    0    0  0.31408209788E+02  0.12106267803E+02 -0.11588557856E+02  0.35599607240E+02  0.51100000000E-03 0. -1.
        -11    1    3    3    0    0 -0.14266597656E+02 -0.49378145313E+01 -0.12738831873E+02  0.19753370821E+02  0.51100000000E-03 0.  1.
        -12    1    3    3    0    0 -0.10336494822E+01 -0.98489716208E+00  0.17048920160E+02  0.17108598198E+02  0.00000000000E+00 0.  1.
</event>
<event>
 7    1  0.1905073E-013  0.7246153E+02  0.7816164E-02  0.1226708E+00
        -11   -1    0    0    0    0  0.00000000000E+00  0.00000000000E+00  0.45593999997E+02  0.45594000000E+02  0.51100000000E-03 0. -1.
         11   -1    0    0    0    0 -0.00000000000E+00 -0.00000000000E+00 -0.45593999997E+02  0.45594000000E+02  0.51100000000E-03 0.  1.
    9900012    2    1    2    0    0  0.10390413464E+02  0.10854320376E+02  0.11176029525E+02  0.72461532134E+02  0.69999950290E+02 0.  0.
        -12    1    1    2    0    0 -0.10390413464E+02 -0.10854320376E+02 -0.11176029525E+02  0.18726467866E+02  0.00000000000E+00 0.  1.
         11    1    3    3    0    0  0.19526308195E+02 -0.17365213640E+01  0.72551566479E+01  0.20902859049E+02  0.51100000000E-03 0. -1.
        -11    1    3    3    0    0 -0.69024049787E+01  0.20268922003E+02 -0.18159097900E+02  0.28075349160E+02  0.51100000000E-03 0.  1.
        -12    1    3    3    0    0 -0.22334897527E+01 -0.76780802633E+01  0.22079970778E+02  0.23483323925E+02  0.00000000000E+00 0.  1.
</event>
<event>
 8    1  0.1905073E-013  0.7246155E+02  0.7816164E-02  0.1226708E+00
        -11   -1    0    0    0    0  0.00000000000E+00  0.00000000000E+00  0.45593999997E+02  0.45594000000E+02  0.51100000000E-03 0.  1.
         11   -1    0    0    0    0 -0.00000000000E+00 -0.00000000000E+00 -0.45593999997E+02  0.45594000000E+02  0.51100000000E-03 0. -1.
    9900012    2    1    2    0    0  0.11879628617E+02 -0.66070092558E+01 -0.12880280926E+02  0.72461553885E+02  0.69999978624E+02 0.  0.
        -24    2    3    3    0    0  0.29456800479E+01 -0.14636820537E+02 -0.23383705652E+02  0.56504886392E+02  0.49224901724E+02 0.  0.
        -12    1    1    2    0    0 -0.11879628617E+02  0.66070092558E+01  0.12880280926E+02  0.18726446115E+02  0.00000000000E+00 0.  1.
         11    1    4    4    0    0 -0.14002456691E+02 -0.11003397599E+02 -0.32396409142E+02  0.36968511975E+02  0.51100000000E-03 0. -1.
        -11    1    3    3    0    0  0.89339485689E+01  0.80298112810E+01  0.10503424726E+02  0.15956667493E+02  0.51100000000E-03 0.  1.
        -12    1    4    4    0    0  0.16948136739E+02 -0.36334229380E+01  0.90127034898E+01  0.19536374417E+02  0.00000000000E+00 0.  1.
</event>
<event>
 7    1  0.1905073E-013  0.7246160E+02  0.7816164E-02  0.1226708E+00
        -11   -1    0    0    0    0  0.00000000000E+00  0.00000000000E+00  0.45593999997E+02  0.45594000000E+02  0.51100000000E-03 0. -1.
         11   -1    0    0    0    0 -0.00000000000E+00 -0.00000000000E+00 -0.45593999997E+02  0.45594000000E+02  0.51100000000E-03 0.  1.
    9900012    2    1    2    0    0  0.13517570080E+02  0.12951949734E+02  0.44760522430E+00  0.72461600100E+02  0.70000038828E+02 0.  0.
        -12    1    1    2    0    0 -0.13517570080E+02 -0.12951949734E+02 -0.44760522430E+00  0.18726399900E+02  0.00000000000E+00 0.  1.
         11    1    3    3    0    0  0.31008576396E+02  0.18818552636E+02 -0.10589958123E+02  0.37786465126E+02  0.51100000000E-03 0. -1.
        -11    1    3    3    0    0 -0.17414635566E+02  0.62016626617E+01  0.24930162570E+00  0.18487625679E+02  0.51100000000E-03 0.  1.
        -12    1    3    3    0    0 -0.76370750237E-01 -0.12068265564E+02  0.10788261722E+02  0.16187509295E+02  0.00000000000E+00 0.  1.
</event>
<event>
 7    1  0.1905073E-013  0.7246156E+02  0.7816164E-02  0.1226708E+00
        -11   -1    0    0    0    0  0.00000000000E+00  0.00000000000E+00  0.45593999997E+02  0.45594000000E+02  0.51100000000E-03 0.  1.
         11   -1    0    0    0    0 -0.00000000000E+00 -0.00000000000E+00 -0.45593999997E+02  0.45594000000E+02  0.51100000000E-03 0. -1.
    9900012    2    1    2    0    0  0.18672196829E+02 -0.11445393345E+01 -0.84777671905E+00  0.72461557998E+02  0.69999983981E+02 0.  0.
        -12    1    1    2    0    0 -0.18672196829E+02  0.11445393345E+01  0.84777671905E+00  0.18726442002E+02  0.00000000000E+00 0.  1.
         11    1    3    3    0    0 -0.40911924732E+01  0.36952152450E+01 -0.15973241827E+02  0.16897837917E+02  0.51100000000E-03 0. -1.
        -11    1    3    3    0    0 -0.14239543199E+02  0.21981007658E+01  0.10027268893E+02  0.17553984141E+02  0.51100000000E-03 0.  1.
        -12    1    3    3    0    0  0.37002932501E+02 -0.70378553453E+01  0.50981962145E+01  0.38009735939E+02  0.00000000000E+00 0.  1.
</event>
<event>
 7    1  0.1905073E-013  0.7246152E+02  0.7816164E-02  0.1226708E+00
        -11   -1    0    0    0    0  0.00000000000E+00  0.00000000000E+00  0.45593999997E+02  0.45594000000E+02  0.51100000000E-03 0.  1.
         11   -1    0    0    0    0 -0.00000000000E+00 -0.00000000000E+00 -0.45593999997E+02  0.45594000000E+02  0.51100000000E-03 0. -1.
    9900012    2    1    2    0    0 -0.11211250320E+02  0.12655027809E+02 -0.80522786429E+01  0.72461519981E+02  0.69999934457E+02 0.  0.
        -12    1    1    2    0    0  0.11211250320E+02 -0.12655027809E+02  0.80522786429E+01  0.18726480019E+02  0.00000000000E+00 0.  1.
         11    1    3    3    0    0 -0.13921925857E+02  0.32291361556E+02 -0.18692827261E+02  0.39824287087E+02  0.51100000000E-03 0. -1.
        -11    1    3    3    0    0 -0.61933974048E+01 -0.18520418884E+02  0.11297701469E+01  0.19561198018E+02  0.51100000000E-03 0.  1.
         12    1    3    3    0    0  0.89040729423E+01 -0.11159148634E+01  0.95107784712E+01  0.13076034876E+02  0.00000000000E+00 0. -1.
</event>
<event>
 7    1  0.2377030E-013  0.7246160E+02  0.7816164E-02  0.1226708E+00
        -11   -1    0    0    0    0  0.00000000000E+00  0.00000000000E+00  0.45593999997E+02  0.45594000000E+02  0.51100000000E-03 0. -1.
         11   -1    0    0    0    0 -0.00000000000E+00 -0.00000000000E+00 -0.45593999997E+02  0.45594000000E+02  0.51100000000E-03 0.  1.
    9900012    2    1    2    0    0  0.26422796264E+01  0.22183188830E+01  0.18405849528E+02  0.72461604801E+02  0.70000044951E+02 0.  0.
        -12    1    1    2    0    0 -0.26422796264E+01 -0.22183188830E+01 -0.18405849528E+02  0.18726395199E+02  0.00000000000E+00 0.  1.
         11    1    3    3    0    0 -0.25939728463E+01  0.27719476140E+02  0.15944256522E+02  0.32082976310E+02  0.51100000000E-03 0. -1.
        -11    1    3    3    0    0 -0.41185375128E+01 -0.46667793399E+01 -0.11879303595E+02  0.13411153374E+02  0.51100000000E-03 0.  1.
         12    1    3    3    0    0  0.93547899855E+01 -0.20834377917E+02  0.14340896601E+02  0.26967475117E+02  0.00000000000E+00 0. -1.
</event>
<event>
 7    1  0.1905073E-013  0.7246158E+02  0.7816164E-02  0.1226708E+00
        -11   -1    0    0    0    0  0.00000000000E+00  0.00000000000E+00  0.45593999997E+02  0.45594000000E+02  0.51100000000E-03 0.  1.
         11   -1    0    0    0    0 -0.00000000000E+00 -0.00000000000E+00 -0.45593999997E+02  0.45594000000E+02  0.51100000000E-03 0. -1.
    9900012    2    1    2    0    0 -0.11119897218E+02 -0.15046723845E+02  0.78923498382E+00  0.72461577371E+02  0.70000009219E+02 0.  0.
        -12    1    1    2    0    0  0.11119897218E+02  0.15046723845E+02 -0.78923498382E+00  0.18726422629E+02  0.00000000000E+00 0.  1.
         11    1    3    3    0    0 -0.66045336640E+01 -0.18866663386E+02 -0.26566531726E+02  0.33246826321E+02  0.51100000000E-03 0. -1.
        -11    1    3    3    0    0 -0.14662253357E+02 -0.38307145003E+01  0.12338104023E+02  0.19541874481E+02  0.51100000000E-03 0.  1.
         12    1    3    3    0    0  0.10146889803E+02  0.76506540406E+01  0.15017662686E+02  0.19672876569E+02  0.00000000000E+00 0. -1.
</event>
<event>
 7    1  0.2618639E-013  0.7246160E+02  0.7816164E-02  0.1226708E+00
        -11   -1    0    0    0    0  0.00000000000E+00  0.00000000000E+00  0.45593999997E+02  0.45594000000E+02  0.51100000000E-03 0. -1.
         11   -1    0    0    0    0 -0.00000000000E+00 -0.00000000000E+00 -0.45593999997E+02  0.45594000000E+02  0.51100000000E-03 0.  1.
    9900012    2    1    2    0    0  0.23528863407E+01  0.12753499729E+02  0.13508895690E+02  0.72461599058E+02  0.70000037470E+02 0.  0.
        -12    1    1    2    0    0 -0.23528863407E+01 -0.12753499729E+02 -0.13508895690E+02  0.18726400942E+02  0.00000000000E+00 0.  1.
         11    1    3    3    0    0  0.49786453859E+01  0.30271519594E+02  0.10270033926E+02  0.32351590463E+02  0.51100000000E-03 0. -1.
        -11    1    3    3    0    0 -0.14423615733E+02 -0.27598592901E+00 -0.78856254629E+01  0.16440801326E+02  0.51100000000E-03 0.  1.
         12    1    3    3    0    0  0.11797856687E+02 -0.17242033936E+02  0.11124487227E+02  0.23669207269E+02  0.00000000000E+00 0. -1.
</event>
<event>
 7    1  0.1905073E-013  0.7246158E+02  0.7816164E-02  0.1226708E+00
        -11   -1    0    0    0    0  0.00000000000E+00  0.00000000000E+00  0.45593999997E+02  0.45594000000E+02  0.51100000000E-03 0.  1.
         11   -1    0    0    0    0 -0.00000000000E+00 -0.00000000000E+00 -0.45593999997E+02  0.45594000000E+02  0.51100000000E-03 0. -1.
    9900012    2    1    2    0    0 -0.45412304774E+01 -0.56948897243E+00 -0.18158515459E+02  0.72461580812E+02  0.70000013701E+02 0.  0.
        -12    1    1    2    0    0  0.45412304774E+01  0.56948897243E+00  0.18158515459E+02  0.18726419188E+02  0.00000000000E+00 0.  1.
         11    1    3    3    0    0 -0.12090655207E+02 -0.16928371065E+01 -0.52232114845E+01  0.13278990145E+02  0.51100000000E-03 0. -1.
        -11    1    3    3    0    0  0.79910119972E+01 -0.27735015976E+02 -0.55683164590E+01  0.29395467888E+02  0.51100000000E-03 0.  1.
        -12    1    3    3    0    0 -0.44158726761E+00  0.28858364110E+02 -0.73669875151E+01  0.29787122779E+02  0.00000000000E+00 0.  1.
</event>
<event>
 7    1  0.1905073E-013  0.7246158E+02  0.7816164E-02  0.1226708E+00
        -11   -1    0    0    0    0  0.00000000000E+00  0.00000000000E+00  0.45593999997E+02  0.45594000000E+02  0.51100000000E-03 0. -1.
         11   -1    0    0    0    0 -0.00000000000E+00 -0.00000000000E+00 -0.45593999997E+02  0.45594000000E+02  0.51100000000E-03 0.  1.
    9900012    2    1    2    0    0 -0.10673314892E+02 -0.11820800698E+02  0.98502751053E+01  0.72461577502E+02  0.70000009389E+02 0.  0.
        -12    1    1    2    0    0  0.10673314892E+02  0.11820800698E+02 -0.98502751053E+01  0.18726422498E+02  0.00000000000E+00 0.  1.
         11    1    3    3    0    0  0.25953295442E+02 -0.12053866601E+02  0.12605759968E+02  0.31269384851E+02  0.51100000000E-03 0. -1.
        -11    1    3    3    0    0 -0.16732567699E+02  0.93344045887E+01 -0.15188994300E+00  0.19160715061E+02  0.51100000000E-03 0.  1.
        -12    1    3    3    0    0 -0.19894042636E+02 -0.91013386859E+01 -0.26035949199E+01  0.22031477590E+02  0.00000000000E+00 0.  1.
</event>
<event>
 7    1  0.1905073E-013  0.7246159E+02  0.7816164E-02  0.1226708E+00
        -11   -1    0    0    0    0  0.00000000000E+00  0.00000000000E+00  0.45593999997E+02  0.45594000000E+02  0.51100000000E-03 0.  1.
         11   -1    0    0    0    0 -0.00000000000E+00 -0.00000000000E+00 -0.45593999997E+02  0.45594000000E+02  0.51100000000E-03 0. -1.
    9900012    2    1    2    0    0 -0.12391025284E+02  0.94220064233E+01  0.10409936573E+02  0.72461588382E+02  0.70000023563E+02 0.  0.
        -12    1    1    2    0    0  0.12391025284E+02 -0.94220064233E+01 -0.10409936573E+02  0.18726411618E+02  0.00000000000E+00 0.  1.
         11    1    3    3    0    0 -0.25394758111E+02  0.44053241991E+01 -0.12195900041E+02  0.28513866782E+02  0.51100000000E-03 0. -1.
        -11    1    3    3    0    0 -0.56057656730E+01  0.37797707211E+01  0.24297478312E+02  0.25220601263E+02  0.51100000000E-03 0.  1.
         12    1    3    3    0    0  0.18609498500E+02  0.12369115031E+01 -0.16916416983E+01  0.18727120337E+02  0.00000000000E+00 0. -1.
</event>
<event>
 7    1  0.1905073E-013  0.7246159E+02  0.7816164E-02  0.1226708E+00
        -11   -1    0    0    0    0  0.00000000000E+00  0.00000000000E+00  0.45593999997E+02  0.45594000000E+02  0.51100000000E-03 0.  1.
         11   -1    0    0    0    0 -0.00000000000E+00 -0.00000000000E+00 -0.45593999997E+02  0.45594000000E+02  0.51100000000E-03 0. -1.
    9900012    2    1    2    0    0 -0.73414036210E+01 -0.72760109362E+01 -0.15615438608E+02  0.72461589100E+02  0.70000024498E+02 0.  0.
        -12    1    1    2    0    0  0.73414036210E+01  0.72760109362E+01  0.15615438608E+02  0.18726410900E+02  0.00000000000E+00 0.  1.
         11    1    3    3    0    0 -0.51042804386E+01 -0.29125566315E+01 -0.40523274436E+02  0.40947190822E+02  0.51100000000E-03 0. -1.
        -11    1    3    3    0    0 -0.19940574483E+01  0.50069610928E+01  0.55266318188E+00  0.54176896686E+01  0.51100000000E-03 0.  1.
         12    1    3    3    0    0 -0.24306573410E+00 -0.93704153975E+01  0.24355172645E+02  0.26096708610E+02  0.00000000000E+00 0. -1.
</event>
<event>
 7    1  0.1905073E-013  0.7246155E+02  0.7816164E-02  0.1226708E+00
        -11   -1    0    0    0    0  0.00000000000E+00  0.00000000000E+00  0.45593999997E+02  0.45594000000E+02  0.51100000000E-03 0. -1.
         11   -1    0    0    0    0 -0.00000000000E+00 -0.00000000000E+00 -0.45593999997E+02  0.45594000000E+02  0.51100000000E-03 0.  1.
    9900012    2    1    2    0    0  0.62687828139E+01  0.17211278657E+02 -0.38928180352E+01  0.72461553908E+02  0.69999978653E+02 0.  0.
        -12    1    1    2    0    0 -0.62687828139E+01 -0.17211278657E+02  0.38928180352E+01  0.18726446092E+02  0.00000000000E+00 0.  1.
         11    1    3    3    0    0 -0.10744261076E+02 -0.94369952191E+01  0.62321185498E+01  0.15599209170E+02  0.51100000000E-03 0. -1.
        -11    1    3    3    0    0  0.19000954431E+02  0.26686606481E+01  0.13248517060E+02  0.23316972863E+02  0.51100000000E-03 0.  1.
        -12    1    3    3    0    0 -0.19879105408E+01  0.23979613229E+02 -0.23373453645E+02  0.33545371875E+02  0.00000000000E+00 0.  1.
</event>
<event>
 7    1  0.1905073E-013  0.7246156E+02  0.7816164E-02  0.1226708E+00
        -11   -1    0    0    0    0  0.00000000000E+00  0.00000000000E+00  0.45593999997E+02  0.45594000000E+02  0.51100000000E-03 0.  1.
         11   -1    0    0    0    0 -0.00000000000E+00 -0.00000000000E+00 -0.45593999997E+02  0.45594000000E+02  0.51100000000E-03 0. -1.
    9900012    2    1    2    0    0  0.94057661272E+01 -0.14779293410E+02 -0.66169174466E+01  0.72461560226E+02  0.69999986884E+02 0.  0.
        -12    1    1    2    0    0 -0.94057661272E+01  0.14779293410E+02  0.66169174466E+01  0.18726439774E+02  0.00000000000E+00 0.  1.
         11    1    3    3    0    0  0.21181795185E+02 -0.54040622462E+01  0.10128474040E+02  0.24092702685E+02  0.51100000000E-03 0. -1.
        -11    1    3    3    0    0 -0.16737097060E+02 -0.18426233321E+02  0.39861785954E+01  0.25210039914E+02  0.51100000000E-03 0.  1.
         12    1    3    3    0    0  0.49610680020E+01  0.90510021579E+01 -0.20731570082E+02  0.23158817626E+02  0.00000000000E+00 0. -1.
</event>
<event>
 7    1  0.1905073E-013  0.7246157E+02  0.7816164E-02  0.1226708E+00
        -11   -1    0    0    0    0  0.00000000000E+00  0.00000000000E+00  0.45593999997E+02  0.45594000000E+02  0.51100000000E-03 0.  1.
         11   -1    0    0    0    0 -0.00000000000E+00 -0.00000000000E+00 -0.45593999997E+02  0.45594000000E+02  0.51100000000E-03 0. -1.
    9900012    2    1    2    0    0 -0.34041257477E+01  0.14044758850E+02 -0.11909481578E+02  0.72461572826E+02  0.70000003297E+02 0.  0.
        -12    1    1    2    0    0  0.34041257477E+01 -0.14044758850E+02  0.11909481578E+02  0.18726427174E+02  0.00000000000E+00 0.  1.
         11    1    3    3    0    0 -0.90148753222E+01  0.17759085463E+02  0.56332471749E+01  0.20697501481E+02  0.51100000000E-03 0. -1.
        -11    1    3    3    0    0  0.11973395998E+02 -0.24118387907E+02 -0.13055632676E+02  0.29925046229E+02  0.51100000000E-03 0.  1.
        -12    1    3    3    0    0 -0.63626464230E+01  0.20404061294E+02 -0.44870960773E+01  0.21839025115E+02  0.00000000000E+00 0.  1.
</event>
<event>
 7    1  0.1905073E-013  0.7246155E+02  0.7816164E-02  0.1226708E+00
        -11   -1    0    0    0    0  0.00000000000E+00  0.00000000000E+00  0.45593999997E+02  0.45594000000E+02  0.51100000000E-03 0.  1.
         11   -1    0    0    0    0 -0.00000000000E+00 -0.00000000000E+00 -0.45593999997E+02  0.45594000000E+02  0.51100000000E-03 0. -1.
    9900012    2    1    2    0    0  0.18714661528E+01 -0.68986367098E+01 -0.17308559218E+02  0.72461553562E+02  0.69999978203E+02 0.  0.
        -12    1    1    2    0    0 -0.18714661528E+01  0.68986367098E+01  0.17308559218E+02  0.18726446438E+02  0.00000000000E+00 0.  1.
         11    1    3    3    0    0 -0.22910299192E+02 -0.70884520977E+01 -0.19907562190E+00  0.23982651930E+02  0.51100000000E-03 0. -1.
        -11    1    3    3    0    0  0.93313183172E+01  0.10135389664E+02  0.90701552649E+01  0.16494463980E+02  0.51100000000E-03 0.  1.
         12    1    3    3    0    0  0.15450447028E+02 -0.99455742766E+01 -0.26179638861E+02  0.31984437652E+02  0.00000000000E+00 0. -1.
</event>
<event>
 7    1  0.1905073E-013  0.7246147E+02  0.7816164E-02  0.1226708E+00
        -11   -1    0    0    0    0  0.00000000000E+00  0.00000000000E+00  0.45593999997E+02  0.45594000000E+02  0.51100000000E-03 0. -1.
         11   -1    0    0    0    0 -0.00000000000E+00 -0.00000000000E+00 -0.45593999997E+02  0.45594000000E+02  0.51100000000E-03 0.  1.
    9900012    2    1    2    0    0  0.60918728579E+01 -0.12131381797E+02  0.12899674102E+02  0.72461469858E+02  0.69999869163E+02 0.  0.
        -12    1    1    2    0    0 -0.60918728579E+01  0.12131381797E+02 -0.12899674102E+02  0.18726530142E+02  0.00000000000E+00 0.  1.
         11    1    3    3    0    0  0.16829117443E+01 -0.95232288551E+01  0.18481951791E+02  0.20859209525E+02  0.51100000000E-03 0. -1.
        -11    1    3    3    0    0  0.10960028232E+02  0.91993345364E+01 -0.24492396543E+02  0.28365956065E+02  0.51100000000E-03 0.  1.
        -12    1    3    3    0    0 -0.65510671186E+01 -0.11807487478E+02  0.18910118855E+02  0.23236304268E+02  0.00000000000E+00 0.  1.
</event>
<event>
 7    1  0.1905073E-013  0.7246160E+02  0.7816164E-02  0.1226708E+00
        -11   -1    0    0    0    0  0.00000000000E+00  0.00000000000E+00  0.45593999997E+02  0.45594000000E+02  0.51100000000E-03 0.  1.
         11   -1    0    0    0    0 -0.00000000000E+00 -0.00000000000E+00 -0.45593999997E+02  0.45594000000E+02  0.51100000000E-03 0. -1.
    9900012    2    1    2    0    0 -0.11353929792E+02  0.28410499519E+01 -0.14618301279E+02  0.72461601018E+02  0.70000040023E+02 0.  0.
        -12    1    1    2    0    0  0.11353929792E+02 -0.28410499519E+01  0.14618301279E+02  0.18726398982E+02  0.00000000000E+00 0.  1.
         11    1    3    3    0    0 -0.17941748525E+02 -0.21266033578E+02 -0.30680754647E+02  0.41418102687E+02  0.51100000000E-03 0. -1.
        -11    1    3    3    0    0  0.47328790402E+01  0.38157082565E+01  0.49134939197E+01  0.78167893836E+01  0.51100000000E-03 0.  1.
         12    1    3    3    0    0  0.18549396934E+01  0.20291375273E+02  0.11148959448E+02  0.23226708947E+02  0.00000000000E+00 0. -1.
</event>
<event>
 7    1  0.1905073E-013  0.7246156E+02  0.7816164E-02  0.1226708E+00
        -11   -1    0    0    0    0  0.00000000000E+00  0.00000000000E+00  0.45593999997E+02  0.45594000000E+02  0.51100000000E-03 0.  1.
         11   -1    0    0    0    0 -0.00000000000E+00 -0.00000000000E+00 -0.45593999997E+02  0.45594000000E+02  0.51100000000E-03 0. -1.
    9900012    2    1    2    0    0 -0.50421572561E+01 -0.18029008523E+02 -0.45921624188E+00  0.72461564737E+02  0.69999992760E+02 0.  0.
        -12    1    1    2    0    0  0.50421572561E+01  0.18029008523E+02  0.45921624188E+00  0.18726435263E+02  0.00000000000E+00 0.  1.
         11    1    3    3    0    0 -0.23981366414E+02 -0.20320819498E+02  0.12165525301E+02  0.33705216900E+02  0.51100000000E-03 0.  1.
        -11    1    3    3    0    0  0.25538530443E+02 -0.50632061560E+01 -0.55968015814E+01  0.26630373298E+02  0.51100000000E-03 0. -1.
         12    1    3    3    0    0 -0.65993212854E+01  0.73550171308E+01 -0.70279399610E+01  0.12125974539E+02  0.00000000000E+00 0. -1.
</event>
<event>
 7    1  0.1905073E-013  0.7246159E+02  0.7816164E-02  0.1226708E+00
        -11   -1    0    0    0    0  0.00000000000E+00  0.00000000000E+00  0.45593999997E+02  0.45594000000E+02  0.51100000000E-03 0. -1.
         11   -1    0    0    0    0 -0.00000000000E+00 -0.00000000000E+00 -0.45593999997E+02  0.45594000000E+02  0.51100000000E-03 0.  1.
    9900012    2    1    2    0    0 -0.13098364028E+02 -0.11652143292E+02  0.65832387201E+01  0.72461585086E+02  0.70000019268E+02 0.  0.
        -12    1    1    2    0    0  0.13098364028E+02  0.11652143292E+02 -0.65832387201E+01  0.18726414914E+02  0.00000000000E+00 0.  1.
         11    1    3    3    0    0  0.40042289313E+01  0.21443079856E+02  0.72190059455E+01  0.22977240264E+02  0.51100000000E-03 0. -1.
        -11    1    3    3    0    0 -0.84120153473E-01 -0.13344785210E+02  0.14200711204E+02  0.19487189830E+02  0.51100000000E-03 0.  1.
         12    1    3    3    0    0 -0.17018472805E+02 -0.19750437938E+02 -0.14836478430E+02  0.29997154991E+02  0.00000000000E+00 0. -1.
</event>
<event>
 7    1  0.1905073E-013  0.7246148E+02  0.7816164E-02  0.1226708E+00
        -11   -1    0    0    0    0  0.00000000000E+00  0.00000000000E+00  0.45593999997E+02  0.45594000000E+02  0.51100000000E-03 0.  1.
         11   -1    0    0    0    0 -0.00000000000E+00 -0.00000000000E+00 -0.45593999997E+02  0.45594000000E+02  0.51100000000E-03 0. -1.
    9900012    2    1    2    0    0  0.87158287752E+01 -0.10809327574E+02 -0.12564845951E+02  0.72461479031E+02  0.69999881112E+02 0.  0.
        -12    1    1    2    0    0 -0.87158287752E+01  0.10809327574E+02  0.12564845951E+02  0.18726520969E+02  0.00000000000E+00 0.  1.
         11    1    3    3    0    0  0.42331913550E+01  0.42747988961E+01 -0.29585775377E+02  0.30191255681E+02  0.51100000000E-03 0. -1.
        -11    1    3    3    0    0 -0.13773185528E+02 -0.14821829362E+02  0.11090542226E+02  0.23073521455E+02  0.51100000000E-03 0.  1.
        -12    1    3    3    0    0  0.18255822948E+02 -0.26229710805E+00  0.59303871996E+01  0.19196701894E+02  0.00000000000E+00 0.  1.
</event>
<event>
 7    1  0.1905073E-013  0.7246159E+02  0.7816164E-02  0.1226708E+00
        -11   -1    0    0    0    0  0.00000000000E+00  0.00000000000E+00  0.45593999997E+02  0.45594000000E+02  0.51100000000E-03 0. -1.
         11   -1    0    0    0    0 -0.00000000000E+00 -0.00000000000E+00 -0.45593999997E+02  0.45594000000E+02  0.51100000000E-03 0.  1.
    9900012    2    1    2    0    0 -0.38992171806E+01 -0.11877249325E+01  0.18277409940E+02  0.72461593530E+02  0.70000030269E+02 0.  0.
        -12    1    1    2    0    0  0.38992171806E+01  0.11877249325E+01 -0.18277409940E+02  0.18726406470E+02  0.00000000000E+00 0.  1.
         11    1    3    3    0    0 -0.27172798114E+02  0.25367239506E+01  0.87526892816E+01  0.28660172639E+02  0.51100000000E-03 0. -1.
        -11    1    3    3    0    0  0.21563948290E+02  0.19480668069E+01 -0.96701081078E+01  0.23713072791E+02  0.51100000000E-03 0.  1.
         12    1    3    3    0    0  0.17096326439E+01 -0.56725156900E+01  0.19194828767E+02  0.20088348101E+02  0.00000000000E+00 0. -1.
</event>
<event>
 7    1  0.1905073E-013  0.7246162E+02  0.7816164E-02  0.1226708E+00
        -11   -1    0    0    0    0  0.00000000000E+00  0.00000000000E+00  0.45593999997E+02  0.45594000000E+02  0.51100000000E-03 0.  1.
         11   -1    0    0    0    0 -0.00000000000E+00 -0.00000000000E+00 -0.45593999997E+02  0.45594000000E+02  0.51100000000E-03 0. -1.
    9900012    2    1    2    0    0  0.62180331431E+01  0.68760217788E+01 -0.16270639079E+02  0.72461620005E+02  0.70000064758E+02 0.  0.
        -12    1    1    2    0    0 -0.62180331431E+01 -0.68760217788E+01  0.16270639079E+02  0.18726379995E+02  0.00000000000E+00 0.  1.
         11    1    3    3    0    0  0.56701496870E+01  0.22004465660E+02 -0.12120065719E+02  0.25753506553E+02  0.51100000000E-03 0. -1.
        -11    1    3    3    0    0  0.19294346302E+02 -0.18990423226E+02  0.22930502399E+00  0.27073244257E+02  0.51100000000E-03 0.  1.
        -12    1    3    3    0    0 -0.18746462846E+02  0.38619793447E+01 -0.43798783836E+01  0.19634869196E+02  0.00000000000E+00 0.  1.
</event>
<event>
 7    1  0.1905073E-013  0.7246160E+02  0.7816164E-02  0.1226708E+00
        -11   -1    0    0    0    0  0.00000000000E+00  0.00000000000E+00  0.45593999997E+02  0.45594000000E+02  0.51100000000E-03 0.  1.
         11   -1    0    0    0    0 -0.00000000000E+00 -0.00000000000E+00 -0.45593999997E+02  0.45594000000E+02  0.51100000000E-03 0. -1.
    9900012    2    1    2    0    0  0.42376521163E+00 -0.54222010448E+01 -0.17919215715E+02  0.72461597971E+02  0.70000036054E+02 0.  0.
        -12    1    1    2    0    0 -0.42376521163E+00  0.54222010448E+01  0.17919215715E+02  0.18726402029E+02  0.00000000000E+00 0.  1.
         11    1    3    3    0    0 -0.22553065579E+02  0.96729688725E+01 -0.91991359393E+01  0.26207464511E+02  0.51100000000E-03 0. -1.
        -11    1    3    3    0    0  0.20400416920E+02 -0.26304334843E+02 -0.30400681980E+01  0.33426592063E+02  0.51100000000E-03 0.  1.
         12    1    3    3    0    0  0.25764138709E+01  0.11209164925E+02 -0.56800115777E+01  0.12827541397E+02  0.00000000000E+00 0. -1.
</event>
<event>
 7    1  0.1905073E-013  0.7246167E+02  0.7816164E-02  0.1226708E+00
        -11   -1    0    0    0    0  0.00000000000E+00  0.00000000000E+00  0.45593999997E+02  0.45594000000E+02  0.51100000000E-03 0.  1.
         11   -1    0    0    0    0 -0.00000000000E+00 -0.00000000000E+00 -0.45593999997E+02  0.45594000000E+02  0.51100000000E-03 0. -1.
    9900012    2    1    2    0    0  0.72189301177E+01 -0.16057060548E+02 -0.63822681895E+01  0.72461668465E+02  0.70000127886E+02 0.  0.
        -12    1    1    2    0    0 -0.72189301177E+01  0.16057060548E+02  0.63822681895E+01  0.18726331535E+02  0.00000000000E+00 0.  1.
         11    1    3    3    0    0  0.63011190839E+01 -0.18669490689E+02 -0.59567228529E+01  0.20584861712E+02  0.51100000000E-03 0. -1.
        -11    1    3    3    0    0 -0.10872446169E+02  0.11060258165E+02 -0.21367283952E+02  0.26402655551E+02  0.51100000000E-03 0.  1.
        -12    1    3    3    0    0  0.11790257202E+02 -0.84478280239E+01  0.20941738616E+02  0.25474151202E+02  0.00000000000E+00 0.  1.
</event>
<event>
 7    1  0.1905073E-013  0.7246157E+02  0.7816164E-02  0.1226708E+00
        -11   -1    0    0    0    0  0.00000000000E+00  0.00000000000E+00  0.45593999997E+02  0.45594000000E+02  0.51100000000E-03 0. -1.
         11   -1    0    0    0    0 -0.00000000000E+00 -0.00000000000E+00 -0.45593999997E+02  0.45594000000E+02  0.51100000000E-03 0.  1.
    9900012    2    1    2    0    0  0.10228021260E+02  0.26037864926E+01  0.15468908636E+02  0.72461567949E+02  0.69999996945E+02 0.  0.
        -12    1    1    2    0    0 -0.10228021260E+02 -0.26037864926E+01 -0.15468908636E+02  0.18726432051E+02  0.00000000000E+00 0.  1.
         11    1    3    3    0    0 -0.41635804818E+01 -0.23146545941E+02  0.30835823701E+02  0.38780742837E+02  0.51100000000E-03 0. -1.
        -11    1    3    3    0    0  0.38028032446E+01  0.11787195440E+02 -0.53070585522E+01  0.13474574560E+02  0.51100000000E-03 0.  1.
         12    1    3    3    0    0  0.10588798497E+02  0.13963136994E+02 -0.10059856513E+02  0.20206250552E+02  0.00000000000E+00 0. -1.
</event>
<event>
 7    1  0.1905073E-013  0.7246154E+02  0.7816164E-02  0.1226708E+00
        -11   -1    0    0    0    0  0.00000000000E+00  0.00000000000E+00  0.45593999997E+02  0.45594000000E+02  0.51100000000E-03 0.  1.
         11   -1    0    0    0    0 -0.00000000000E+00 -0.00000000000E+00 -0.45593999997E+02  0.45594000000E+02  0.51100000000E-03 0. -1.
    9900012    2    1    2    0    0  0.30493961481E+01 -0.30969992813E+01 -0.18215109992E+02  0.72461536014E+02  0.69999955343E+02 0.  0.
        -12    1    1    2    0    0 -0.30493961481E+01  0.30969992813E+01  0.18215109992E+02  0.18726463986E+02  0.00000000000E+00 0.  1.
         11    1    3    3    0    0  0.31535667298E+02 -0.13193402444E+02 -0.22439535703E+02  0.40891281990E+02  0.51100000000E-03 0. -1.
        -11    1    3    3    0    0 -0.47865710160E+01  0.23956218475E+01 -0.22768425220E+01  0.58167240143E+01  0.51100000000E-03 0.  1.
         12    1    3    3    0    0 -0.23699700134E+02  0.77007813157E+01  0.65012682334E+01  0.25753530009E+02  0.00000000000E+00 0. -1.
</event>
<event>
 7    1  0.1905073E-013  0.7246161E+02  0.7816164E-02  0.1226708E+00
        -11   -1    0    0    0    0  0.00000000000E+00  0.00000000000E+00  0.45593999997E+02  0.45594000000E+02  0.51100000000E-03 0. -1.
         11   -1    0    0    0    0 -0.00000000000E+00 -0.00000000000E+00 -0.45593999997E+02  0.45594000000E+02  0.51100000000E-03 0.  1.
    9900012    2    1    2    0    0  0.52157143149E+01 -0.48049660562E+01  0.17331655101E+02  0.72461611049E+02  0.70000053090E+02 0.  0.
        -12    1    1    2    0    0 -0.52157143149E+01  0.48049660562E+01 -0.17331655101E+02  0.18726388951E+02  0.00000000000E+00 0.  1.
         11    1    3    3    0    0 -0.71341355372E+01 -0.41662309090E+01  0.36829347049E+02  0.37744591323E+02  0.51100000000E-03 0. -1.
        -11    1    3    3    0    0  0.23265258072E+01  0.95834245370E+01 -0.17735024307E+02  0.20292506884E+02  0.51100000000E-03 0.  1.
         12    1    3    3    0    0  0.10023324045E+02 -0.10222159684E+02 -0.17626676412E+01  0.14424512842E+02  0.00000000000E+00 0. -1.
</event>
<event>
 7    1  0.1905073E-013  0.7246165E+02  0.7816164E-02  0.1226708E+00
        -11   -1    0    0    0    0  0.00000000000E+00  0.00000000000E+00  0.45593999997E+02  0.45594000000E+02  0.51100000000E-03 0.  1.
         11   -1    0    0    0    0 -0.00000000000E+00 -0.00000000000E+00 -0.45593999997E+02  0.45594000000E+02  0.51100000000E-03 0. -1.
    9900012    2    1    2    0    0  0.17802055491E+02  0.32067041014E+01 -0.48456147460E+01  0.72461651900E+02  0.70000106307E+02 0.  0.
        -12    1    1    2    0    0 -0.17802055491E+02 -0.32067041014E+01  0.48456147460E+01  0.18726348100E+02  0.00000000000E+00 0.  1.
         11    1    3    3    0    0 -0.13316939578E+02 -0.12360289572E+02  0.81819510986E+01  0.19926413678E+02  0.51100000000E-03 0. -1.
        -11    1    3    3    0    0  0.37822805527E+02  0.18197505499E+02 -0.58689593307E+01  0.42381110276E+02  0.51100000000E-03 0.  1.
        -12    1    3    3    0    0 -0.67038104588E+01 -0.26305118249E+01 -0.71586065139E+01  0.10154127946E+02  0.00000000000E+00 0.  1.
</event>
<event>
 7    1  0.1905073E-013  0.7246098E+02  0.7816164E-02  0.1226710E+00
        -11   -1    0    0    0    0  0.00000000000E+00  0.00000000000E+00  0.45593999997E+02  0.45594000000E+02  0.51100000000E-03 0.  1.
         11   -1    0    0    0    0 -0.00000000000E+00 -0.00000000000E+00 -0.45593999997E+02  0.45594000000E+02  0.51100000000E-03 0. -1.
    9900012    2    1    2    0    0 -0.11508404434E+02  0.33519254037E+01 -0.14388280737E+02  0.72460976769E+02  0.69999226819E+02 0.  0.
        -12    1    1    2    0    0  0.11508404434E+02 -0.33519254037E+01  0.14388280737E+02  0.18727023231E+02  0.00000000000E+00 0.  1.
         11    1    3    3    0    0  0.10690716780E+02  0.16445886028E+02 -0.79297724622E+01  0.21157501839E+02  0.51100000000E-03 0. -1.
        -11    1    3    3    0    0 -0.31125265083E+02  0.41534662083E+01 -0.26461083584E+01  0.31512462579E+02  0.51100000000E-03 0.  1.
        -12    1    3    3    0    0  0.89261438699E+01 -0.17247426833E+02 -0.38123999169E+01  0.19791012351E+02  0.00000000000E+00 0.  1.
</event>
<event>
 7    1  0.1905073E-013  0.7246154E+02  0.7816164E-02  0.1226708E+00
        -11   -1    0    0    0    0  0.00000000000E+00  0.00000000000E+00  0.45593999997E+02  0.45594000000E+02  0.51100000000E-03 0.  1.
         11   -1    0    0    0    0 -0.00000000000E+00 -0.00000000000E+00 -0.45593999997E+02  0.45594000000E+02  0.51100000000E-03 0. -1.
    9900012    2    1    2    0    0  0.16508106410E+02  0.49572419475E+01 -0.73204190286E+01  0.72461538515E+02  0.69999958602E+02 0.  0.
        -12    1    1    2    0    0 -0.16508106410E+02 -0.49572419475E+01  0.73204190286E+01  0.18726461485E+02  0.00000000000E+00 0.  1.
         11    1    3    3    0    0 -0.20833611784E+02  0.49899519731E+01 -0.11851331546E+02  0.24482505189E+02  0.51100000000E-03 0.  1.
        -11    1    3    3    0    0  0.12831319839E+02  0.18572476489E+01  0.16214588128E+02  0.20760660058E+02  0.51100000000E-03 0. -1.
         12    1    3    3    0    0  0.24510398356E+02 -0.18899576744E+01 -0.11683675611E+02  0.27218373268E+02  0.00000000000E+00 0. -1.
</event>
<event>
 7    1  0.1905073E-013  0.7246155E+02  0.7816164E-02  0.1226708E+00
        -11   -1    0    0    0    0  0.00000000000E+00  0.00000000000E+00  0.45593999997E+02  0.45594000000E+02  0.51100000000E-03 0. -1.
         11   -1    0    0    0    0 -0.00000000000E+00 -0.00000000000E+00 -0.45593999997E+02  0.45594000000E+02  0.51100000000E-03 0.  1.
    9900012    2    1    2    0    0 -0.26835199592E+01  0.97709892597E+01  0.15748225391E+02  0.72461545091E+02  0.69999967168E+02 0.  0.
        -12    1    1    2    0    0  0.26835199592E+01 -0.97709892597E+01 -0.15748225391E+02  0.18726454909E+02  0.00000000000E+00 0.  1.
         11    1    3    3    0    0 -0.32360180157E+01 -0.27249869444E+00  0.41878566173E+02  0.42004289937E+02  0.51100000000E-03 0. -1.
        -11    1    3    3    0    0  0.34650054814E+01  0.11747439525E+02 -0.19745742849E+02  0.23235812000E+02  0.51100000000E-03 0.  1.
         12    1    3    3    0    0 -0.29125074249E+01 -0.17039515709E+01 -0.63845979329E+01  0.72214431537E+01  0.00000000000E+00 0. -1.
</event>
<event>
 7    1  0.1905073E-013  0.7246155E+02  0.7816164E-02  0.1226708E+00
        -11   -1    0    0    0    0  0.00000000000E+00  0.00000000000E+00  0.45593999997E+02  0.45594000000E+02  0.51100000000E-03 0. -1.
         11   -1    0    0    0    0 -0.00000000000E+00 -0.00000000000E+00 -0.45593999997E+02  0.45594000000E+02  0.51100000000E-03 0.  1.
    9900012    2    1    2    0    0  0.11080890547E+02  0.13369021048E+02 -0.70116496725E+01  0.72461545711E+02  0.69999967975E+02 0.  0.
        -12    1    1    2    0    0 -0.11080890547E+02 -0.13369021048E+02  0.70116496725E+01  0.18726454289E+02  0.00000000000E+00 0.  1.
         11    1    3    3    0    0  0.31686378228E+02  0.13282455869E+02  0.66200627069E+01  0.34989647463E+02  0.51100000000E-03 0. -1.
        -11    1    3    3    0    0 -0.14136615090E+02  0.13762672637E+02 -0.86665939634E+01  0.21549127488E+02  0.51100000000E-03 0.  1.
         12    1    3    3    0    0 -0.64688725902E+01 -0.13676107457E+02 -0.49651184160E+01  0.15922770759E+02  0.00000000000E+00 0. -1.
</event>
<event>
 7    1  0.1905073E-013  0.7246156E+02  0.7816164E-02  0.1226708E+00
        -11   -1    0    0    0    0  0.00000000000E+00  0.00000000000E+00  0.45593999997E+02  0.45594000000E+02  0.51100000000E-03 0.  1.
         11   -1    0    0    0    0 -0.00000000000E+00 -0.00000000000E+00 -0.45593999997E+02  0.45594000000E+02  0.51100000000E-03 0. -1.
    9900012    2    1    2    0    0  0.11803043318E+02  0.86786909227E+01 -0.11663958274E+02  0.72461563331E+02  0.69999990929E+02 0.  0.
        -12    1    1    2    0    0 -0.11803043318E+02 -0.86786909227E+01  0.11663958274E+02  0.18726436669E+02  0.00000000000E+00 0.  1.
         11    1    3    3    0    0  0.16841957042E+02  0.12460661513E+02 -0.47242503397E+01  0.21476455570E+02  0.51100000000E-03 0. -1.
        -11    1    3    3    0    0  0.34618111800E+00 -0.22091493504E+02 -0.18374814518E+02  0.28736522674E+02  0.51100000000E-03 0.  1.
        -12    1    3    3    0    0 -0.53850948421E+01  0.18309522913E+02  0.11435106583E+02  0.22248585087E+02  0.00000000000E+00 0.  1.
</event>
<event>
 7    1  0.1905073E-013  0.7246159E+02  0.7816164E-02  0.1226708E+00
        -11   -1    0    0    0    0  0.00000000000E+00  0.00000000000E+00  0.45593999997E+02  0.45594000000E+02  0.51100000000E-03 0.  1.
         11   -1    0    0    0    0 -0.00000000000E+00 -0.00000000000E+00 -0.45593999997E+02  0.45594000000E+02  0.51100000000E-03 0. -1.
    9900012    2    1    2    0    0 -0.93430637875E+01  0.10932746238E+02 -0.11994196822E+02  0.72461587139E+02  0.70000021943E+02 0.  0.
        -12    1    1    2    0    0  0.93430637875E+01 -0.10932746238E+02  0.11994196822E+02  0.18726412861E+02  0.00000000000E+00 0.  1.
         11    1    3    3    0    0  0.19674198047E+02 -0.16105915514E+01 -0.24012904717E+01  0.19885529164E+02  0.51100000000E-03 0. -1.
        -11    1    3    3    0    0 -0.10948547370E+02  0.16746042331E+02  0.12604930785E+02  0.23647090806E+02  0.51100000000E-03 0.  1.
         12    1    3    3    0    0 -0.18068714465E+02 -0.42027045410E+01 -0.22197837136E+02  0.28928967168E+02  0.00000000000E+00 0. -1.
</event>
<event>
 7    1  0.1905073E-013  0.7246158E+02  0.7816164E-02  0.1226708E+00
        -11   -1    0    0    0    0  0.00000000000E+00  0.00000000000E+00  0.45593999997E+02  0.45594000000E+02  0.51100000000E-03 0.  1.
         11   -1    0    0    0    0 -0.00000000000E+00 -0.00000000000E+00 -0.45593999997E+02  0.45594000000E+02  0.51100000000E-03 0. -1.
    9900012    2    1    2    0    0 -0.14629082767E+01 -0.13573609658E+02 -0.12817795175E+02  0.72461578748E+02  0.70000011012E+02 0.  0.
        -12    1    1    2    0    0  0.14629082767E+01  0.13573609658E+02  0.12817795175E+02  0.18726421252E+02  0.00000000000E+00 0.  1.
         11    1    3    3    0    0  0.22698066718E+01 -0.19270156846E+02 -0.18404344472E+02  0.26743426536E+02  0.51100000000E-03 0. -1.
        -11    1    3    3    0    0 -0.21690047523E+02 -0.36483101274E+01  0.11239852541E+02  0.24700255337E+02  0.51100000000E-03 0.  1.
        -12    1    3    3    0    0  0.17957332574E+02  0.93448573154E+01 -0.56533032442E+01  0.21017896874E+02  0.00000000000E+00 0.  1.
</event>
<event>
 7    1  0.1905073E-013  0.7246147E+02  0.7816164E-02  0.1226708E+00
        -11   -1    0    0    0    0  0.00000000000E+00  0.00000000000E+00  0.45593999997E+02  0.45594000000E+02  0.51100000000E-03 0. -1.
         11   -1    0    0    0    0 -0.00000000000E+00 -0.00000000000E+00 -0.45593999997E+02  0.45594000000E+02  0.51100000000E-03 0.  1.
    9900012    2    1    2    0    0  0.15647955987E+02  0.70021300902E+01 -0.75362150645E+01  0.72461470960E+02  0.69999870599E+02 0.  0.
        -12    1    1    2    0    0 -0.15647955987E+02 -0.70021300902E+01  0.75362150645E+01  0.18726529040E+02  0.00000000000E+00 0.  1.
         11    1    3    3    0    0  0.15366124001E+02  0.22408332958E+02 -0.24182304035E+02  0.36373547826E+02  0.51100000000E-03 0.  1.
        -11    1    3    3    0    0 -0.13732219451E+02 -0.52252227426E+01  0.73258255576E+01  0.16417811185E+02  0.51100000000E-03 0. -1.
         12    1    3    3    0    0  0.14014051437E+02 -0.10180980125E+02  0.93202634129E+01  0.19670111949E+02  0.00000000000E+00 0. -1.
</event>
<event>
 7    1  0.1905073E-013  0.7246156E+02  0.7816164E-02  0.1226708E+00
        -11   -1    0    0    0    0  0.00000000000E+00  0.00000000000E+00  0.45593999997E+02  0.45594000000E+02  0.51100000000E-03 0. -1.
         11   -1    0    0    0    0 -0.00000000000E+00 -0.00000000000E+00 -0.45593999997E+02  0.45594000000E+02  0.51100000000E-03 0.  1.
    9900012    2    1    2    0    0 -0.31783008988E+01 -0.10472890540E+02  0.15195273618E+02  0.72461564856E+02  0.69999992916E+02 0.  0.
        -12    1    1    2    0    0  0.31783008988E+01  0.10472890540E+02 -0.15195273618E+02  0.18726435144E+02  0.00000000000E+00 0.  1.
         11    1    3    3    0    0 -0.13108497292E+02  0.17065816406E+02  0.14037209870E+02  0.25692762639E+02  0.51100000000E-03 0. -1.
        -11    1    3    3    0    0  0.19178747934E+02 -0.43213814482E+01 -0.63736804705E+01  0.20666942516E+02  0.51100000000E-03 0.  1.
        -12    1    3    3    0    0 -0.92485515410E+01 -0.23217325498E+02  0.75317442188E+01  0.26101859701E+02  0.00000000000E+00 0.  1.
</event>
<event>
 7    1  0.1905073E-013  0.7246152E+02  0.7816164E-02  0.1226708E+00
        -11   -1    0    0    0    0  0.00000000000E+00  0.00000000000E+00  0.45593999997E+02  0.45594000000E+02  0.51100000000E-03 0.  1.
         11   -1    0    0    0    0 -0.00000000000E+00 -0.00000000000E+00 -0.45593999997E+02  0.45594000000E+02  0.51100000000E-03 0. -1.
    9900012    2    1    2    0    0  0.11683380050E+02  0.11907085724E+02 -0.85088743450E+01  0.72461521355E+02  0.69999936247E+02 0.  0.
        -12    1    1    2    0    0 -0.11683380050E+02 -0.11907085724E+02  0.85088743450E+01  0.18726478645E+02  0.00000000000E+00 0.  1.
         11    1    3    3    0    0 -0.23763143111E+02 -0.79403510481E+01 -0.47065519027E+01  0.25492896586E+02  0.51100000000E-03 0. -1.
        -11    1    3    3    0    0  0.17408990263E+02  0.20295562953E+01  0.76799856296E+01  0.19135679248E+02  0.51100000000E-03 0.  1.
         12    1    3    3    0    0  0.18037532898E+02  0.17817880476E+02 -0.11482308072E+02  0.27832945521E+02  0.00000000000E+00 0. -1.
</event>
<event>
 7    1  0.1905073E-013  0.7246157E+02  0.7816164E-02  0.1226708E+00
        -11   -1    0    0    0    0  0.00000000000E+00  0.00000000000E+00  0.45593999997E+02  0.45594000000E+02  0.51100000000E-03 0.  1.
         11   -1    0    0    0    0 -0.00000000000E+00 -0.00000000000E+00 -0.45593999997E+02  0.45594000000E+02  0.51100000000E-03 0. -1.
    9900012    2    1    2    0    0  0.75679855220E+01  0.14349335971E+02  0.93542113763E+01  0.72461571666E+02  0.70000001787E+02 0.  0.
        -12    1    1    2    0    0 -0.75679855220E+01 -0.14349335971E+02 -0.93542113763E+01  0.18726428334E+02  0.00000000000E+00 0.  1.
         11    1    3    3    0    0  0.14273934977E+01 -0.17177742091E+02 -0.15083875180E+02  0.22904924498E+02  0.51100000000E-03 0. -1.
        -11    1    3    3    0    0  0.13234363167E+02  0.20234152912E+02  0.30749541784E+01  0.24372621032E+02  0.51100000000E-03 0.  1.
        -12    1    3    3    0    0 -0.70937711427E+01  0.11292925149E+02  0.21363132378E+02  0.25184026137E+02  0.00000000000E+00 0.  1.
</event>
<event>
 7    1  0.1905073E-013  0.7246154E+02  0.7816164E-02  0.1226708E+00
        -11   -1    0    0    0    0  0.00000000000E+00  0.00000000000E+00  0.45593999997E+02  0.45594000000E+02  0.51100000000E-03 0. -1.
         11   -1    0    0    0    0 -0.00000000000E+00 -0.00000000000E+00 -0.45593999997E+02  0.45594000000E+02  0.51100000000E-03 0.  1.
    9900012    2    1    2    0    0 -0.11208571553E+02  0.12012760807E+02  0.89856367228E+01  0.72461543694E+02  0.69999965348E+02 0.  0.
        -12    1    1    2    0    0  0.11208571553E+02 -0.12012760807E+02 -0.89856367228E+01  0.18726456306E+02  0.00000000000E+00 0.  1.
         11    1    3    3    0    0 -0.17418912320E+02 -0.29565932888E+00  0.23397458087E+02  0.29170995287E+02  0.51100000000E-03 0. -1.
        -11    1    3    3    0    0  0.22362929195E+02  0.80946779801E+01 -0.56805902143E+01  0.24451861263E+02  0.51100000000E-03 0.  1.
        -12    1    3    3    0    0 -0.16152588429E+02  0.42137421559E+01 -0.87312311497E+01  0.18838687144E+02  0.00000000000E+00 0.  1.
</event>
<event>
 7    1  0.1905073E-013  0.7246162E+02  0.7816164E-02  0.1226708E+00
        -11   -1    0    0    0    0  0.00000000000E+00  0.00000000000E+00  0.45593999997E+02  0.45594000000E+02  0.51100000000E-03 0. -1.
         11   -1    0    0    0    0 -0.00000000000E+00 -0.00000000000E+00 -0.45593999997E+02  0.45594000000E+02  0.51100000000E-03 0.  1.
    9900012    2    1    2    0    0  0.18556946950E+02  0.19246358214E+01  0.16163988498E+01  0.72461621589E+02  0.70000066820E+02 0.  0.
        -12    1    1    2    0    0 -0.18556946950E+02 -0.19246358214E+01 -0.16163988498E+01  0.18726378411E+02  0.00000000000E+00 0.  1.
         11    1    3    3    0    0  0.27233201468E+02  0.11390931178E+02  0.20885427678E+02  0.36160775225E+02  0.51100000000E-03 0. -1.
        -11    1    3    3    0    0  0.60467846893E+01 -0.42526265017E+01 -0.19315572701E+02  0.20681870957E+02  0.51100000000E-03 0.  1.
         12    1    3    3    0    0 -0.14723039207E+02 -0.52136688549E+01  0.46543872540E-01  0.15618975407E+02  0.00000000000E+00 0. -1.
</event>
<event>
 7    1  0.1905073E-013  0.7246154E+02  0.7816164E-02  0.1226708E+00
        -11   -1    0    0    0    0  0.00000000000E+00  0.00000000000E+00  0.45593999997E+02  0.45594000000E+02  0.51100000000E-03 0.  1.
         11   -1    0    0    0    0 -0.00000000000E+00 -0.00000000000E+00 -0.45593999997E+02  0.45594000000E+02  0.51100000000E-03 0. -1.
    9900012    2    1    2    0    0 -0.11151251815E+02  0.13832807713E+02 -0.59146592540E+01  0.72461543305E+02  0.69999964841E+02 0.  0.
        -12    1    1    2    0    0  0.11151251815E+02 -0.13832807713E+02  0.59146592540E+01  0.18726456695E+02  0.00000000000E+00 0.  1.
         11    1    3    3    0    0  0.21834989453E+02 -0.42006408591E+01  0.14689257404E+02  0.26649323282E+02  0.51100000000E-03 0. -1.
        -11    1    3    3    0    0 -0.28761744122E+02  0.11934873261E+02 -0.96842816194E+01  0.32610802435E+02  0.51100000000E-03 0.  1.
         12    1    3    3    0    0 -0.42244971458E+01  0.60985753113E+01 -0.10919635039E+02  0.13201417588E+02  0.00000000000E+00 0. -1.
</event>
<event>
 7    1  0.1905073E-013  0.7246155E+02  0.7816164E-02  0.1226708E+00
        -11   -1    0    0    0    0  0.00000000000E+00  0.00000000000E+00  0.45593999997E+02  0.45594000000E+02  0.51100000000E-03 0.  1.
         11   -1    0    0    0    0 -0.00000000000E+00 -0.00000000000E+00 -0.45593999997E+02  0.45594000000E+02  0.51100000000E-03 0. -1.
    9900012    2    1    2    0    0  0.15657002672E+02  0.59989706525E+01 -0.83396903403E+01  0.72461553019E+02  0.69999977496E+02 0.  0.
        -12    1    1    2    0    0 -0.15657002672E+02 -0.59989706525E+01  0.83396903403E+01  0.18726446981E+02  0.00000000000E+00 0.  1.
         11    1    3    3    0    0  0.29738316500E+02 -0.54776936393E+01 -0.15089467242E+02  0.33794446552E+02  0.51100000000E-03 0. -1.
        -11    1    3    3    0    0 -0.16767256451E+02  0.62331231953E+01  0.18368725147E+02  0.25639866954E+02  0.51100000000E-03 0.  1.
        -12    1    3    3    0    0  0.26859426233E+01  0.52435410965E+01 -0.11618948245E+02  0.13027239513E+02  0.00000000000E+00 0.  1.
</event>
<event>
 7    1  0.1905073E-013  0.7246155E+02  0.7816164E-02  0.1226708E+00
        -11   -1    0    0    0    0  0.00000000000E+00  0.00000000000E+00  0.45593999997E+02  0.45594000000E+02  0.51100000000E-03 0.  1.
         11   -1    0    0    0    0 -0.00000000000E+00 -0.00000000000E+00 -0.45593999997E+02  0.45594000000E+02  0.51100000000E-03 0. -1.
    9900012    2    1    2    0    0 -0.45727016334E+01  0.15882030952E+02 -0.88052012846E+01  0.72461546063E+02  0.69999968434E+02 0.  0.
        -12    1    1    2    0    0  0.45727016334E+01 -0.15882030952E+02  0.88052012846E+01  0.18726453937E+02  0.00000000000E+00 0.  1.
         11    1    3    3    0    0  0.10511287419E+02 -0.64368366134E+01 -0.31569413616E+02  0.33890233182E+02  0.51100000000E-03 0. -1.
        -11    1    3    3    0    0 -0.10015124171E+02  0.20631797483E+02  0.23884806084E+02  0.33112803286E+02  0.51100000000E-03 0.  1.
         12    1    3    3    0    0 -0.50688648813E+01  0.16870700824E+01 -0.11205937526E+01  0.54585095956E+01  0.00000000000E+00 0. -1.
</event>
<event>
 7    1  0.1905073E-013  0.7246158E+02  0.7816164E-02  0.1226708E+00
        -11   -1    0    0    0    0  0.00000000000E+00  0.00000000000E+00  0.45593999997E+02  0.45594000000E+02  0.51100000000E-03 0.  1.
         11   -1    0    0    0    0 -0.00000000000E+00 -0.00000000000E+00 -0.45593999997E+02  0.45594000000E+02  0.51100000000E-03 0. -1.
    9900012    2    1    2    0    0  0.99218117233E+00  0.13172162744E+02  0.13273608870E+02  0.72461575160E+02  0.70000006339E+02 0.  0.
        -12    1    1    2    0    0 -0.99218117233E+00 -0.13172162744E+02 -0.13273608870E+02  0.18726424840E+02  0.00000000000E+00 0.  1.
         11    1    3    3    0    0  0.56640510999E+01  0.14544359359E+02  0.82359752825E+01  0.17647978727E+02  0.51100000000E-03 0. -1.
        -11    1    3    3    0    0  0.66224622598E+01 -0.19861878853E+02 -0.14638050333E+02  0.25546501830E+02  0.51100000000E-03 0.  1.
        -12    1    3    3    0    0 -0.11294332187E+02  0.18489682238E+02  0.19675683920E+02  0.29267094604E+02  0.00000000000E+00 0.  1.
</event>
<event>
 7    1  0.1905073E-013  0.7246163E+02  0.7816164E-02  0.1226708E+00
        -11   -1    0    0    0    0  0.00000000000E+00  0.00000000000E+00  0.45593999997E+02  0.45594000000E+02  0.51100000000E-03 0.  1.
         11   -1    0    0    0    0 -0.00000000000E+00 -0.00000000000E+00 -0.45593999997E+02  0.45594000000E+02  0.51100000000E-03 0. -1.
    9900012    2    1    2    0    0 -0.55506256730E+00  0.37931520441E+01 -0.18329777658E+02  0.72461632336E+02  0.70000080821E+02 0.  0.
        -12    1    1    2    0    0  0.55506256730E+00 -0.37931520441E+01  0.18329777658E+02  0.18726367664E+02  0.00000000000E+00 0.  1.
         11    1    3    3    0    0 -0.21535916508E+02  0.11355001504E+02 -0.33914025674E+01  0.24581158855E+02  0.51100000000E-03 0. -1.
        -11    1    3    3    0    0  0.12201739888E+01 -0.19790835019E+02  0.74895798816E+00  0.19842553103E+02  0.51100000000E-03 0.  1.
        -12    1    3    3    0    0  0.19760679952E+02  0.12228985559E+02 -0.15687333079E+02  0.28037920378E+02  0.00000000000E+00 0.  1.
</event>
<event>
 7    1  0.1905073E-013  0.7246136E+02  0.7816164E-02  0.1226709E+00
        -11   -1    0    0    0    0  0.00000000000E+00  0.00000000000E+00  0.45593999997E+02  0.45594000000E+02  0.51100000000E-03 0.  1.
         11   -1    0    0    0    0 -0.00000000000E+00 -0.00000000000E+00 -0.45593999997E+02  0.45594000000E+02  0.51100000000E-03 0. -1.
    9900012    2    1    2    0    0  0.77733438632E+00  0.15141246718E+02 -0.10992060811E+02  0.72461361172E+02  0.69999727578E+02 0.  0.
        -12    1    1    2    0    0 -0.77733438632E+00 -0.15141246718E+02  0.10992060811E+02  0.18726638828E+02  0.00000000000E+00 0.  1.
         11    1    3    3    0    0 -0.70558847453E+01  0.13768225738E+02 -0.39089705135E+01  0.15957117542E+02  0.51100000000E-03 0. -1.
        -11    1    3    3    0    0  0.13250304172E+02 -0.38985615664E+01  0.22263488959E+02  0.26199852744E+02  0.51100000000E-03 0.  1.
        -12    1    3    3    0    0 -0.54170850401E+01  0.52715825470E+01 -0.29346579257E+02  0.30304390886E+02  0.00000000000E+00 0.  1.
</event>
<event>
 7    1  0.1905073E-013  0.7246182E+02  0.7816164E-02  0.1226707E+00
        -11   -1    0    0    0    0  0.00000000000E+00  0.00000000000E+00  0.45593999997E+02  0.45594000000E+02  0.51100000000E-03 0.  1.
         11   -1    0    0    0    0 -0.00000000000E+00 -0.00000000000E+00 -0.45593999997E+02  0.45594000000E+02  0.51100000000E-03 0. -1.
    9900012    2    1    2    0    0 -0.34879538341E+01 -0.14768346258E+02 -0.10972692273E+02  0.72461819160E+02  0.70000324193E+02 0.  0.
        -12    1    1    2    0    0  0.34879538341E+01  0.14768346258E+02  0.10972692273E+02  0.18726180840E+02  0.00000000000E+00 0.  1.
         11    1    3    3    0    0  0.19099756524E+02 -0.20125710740E+02 -0.19592711288E+02  0.33966443263E+02  0.51100000000E-03 0. -1.
        -11    1    3    3    0    0 -0.15113107226E+02  0.10901975997E+02 -0.73333222707E+01  0.20025900890E+02  0.51100000000E-03 0.  1.
        -12    1    3    3    0    0 -0.74746031320E+01 -0.55446115152E+01  0.15953341286E+02  0.18469475007E+02  0.00000000000E+00 0.  1.
</event>
<event>
 7    1  0.1905073E-013  0.7246155E+02  0.7816164E-02  0.1226708E+00
        -11   -1    0    0    0    0  0.00000000000E+00  0.00000000000E+00  0.45593999997E+02  0.45594000000E+02  0.51100000000E-03 0.  1.
         11   -1    0    0    0    0 -0.00000000000E+00 -0.00000000000E+00 -0.45593999997E+02  0.45594000000E+02  0.51100000000E-03 0. -1.
    9900012    2    1    2    0    0  0.90221174652E+01  0.15358479292E+02 -0.57791537392E+01  0.72461545246E+02  0.69999967370E+02 0.  0.
        -12    1    1    2    0    0 -0.90221174652E+01 -0.15358479292E+02  0.57791537392E+01  0.18726454754E+02  0.00000000000E+00 0.  1.
         11    1    3    3    0    0  0.23261524860E+02 -0.18223139961E+02 -0.15615312521E+02  0.33421839480E+02  0.51100000000E-03 0. -1.
        -11    1    3    3    0    0 -0.14222206493E+02  0.27052204123E+02  0.10850660382E+02  0.32431924649E+02  0.51100000000E-03 0.  1.
         12    1    3    3    0    0 -0.17200901223E-01  0.65294151294E+01 -0.10145015999E+01  0.66077811177E+01  0.00000000000E+00 0. -1.
</event>
<event>
 7    1  0.1905073E-013  0.7246141E+02  0.7816164E-02  0.1226708E+00
        -11   -1    0    0    0    0  0.00000000000E+00  0.00000000000E+00  0.45593999997E+02  0.45594000000E+02  0.51100000000E-03 0.  1.
         11   -1    0    0    0    0 -0.00000000000E+00 -0.00000000000E+00 -0.45593999997E+02  0.45594000000E+02  0.51100000000E-03 0. -1.
    9900012    2    1    2    0    0 -0.25869004598E+01 -0.16440323236E+02 -0.85853959351E+01  0.72461406465E+02  0.69999786581E+02 0.  0.
        -12    1    1    2    0    0  0.25869004598E+01  0.16440323236E+02  0.85853959351E+01  0.18726593535E+02  0.00000000000E+00 0.  1.
         11    1    3    3    0    0  0.20901112405E+02 -0.74907987128E+01 -0.17892289040E+02  0.28514953489E+02  0.51100000000E-03 0. -1.
        -11    1    3    3    0    0 -0.30147720520E+02  0.18990953870E+01  0.60620754536E+01  0.30809744804E+02  0.51100000000E-03 0.  1.
        -12    1    3    3    0    0  0.66597076553E+01 -0.10848619910E+02  0.32448176515E+01  0.13136708172E+02  0.00000000000E+00 0.  1.
</event>
<event>
 7    1  0.1905073E-013  0.7246164E+02  0.7816164E-02  0.1226708E+00
        -11   -1    0    0    0    0  0.00000000000E+00  0.00000000000E+00  0.45593999997E+02  0.45594000000E+02  0.51100000000E-03 0.  1.
         11   -1    0    0    0    0 -0.00000000000E+00 -0.00000000000E+00 -0.45593999997E+02  0.45594000000E+02  0.51100000000E-03 0. -1.
    9900012    2    1    2    0    0  0.94466495515E+01  0.15029905285E+02 -0.59614995897E+01  0.72461635751E+02  0.70000085270E+02 0.  0.
        -12    1    1    2    0    0 -0.94466495515E+01 -0.15029905285E+02  0.59614995897E+01  0.18726364249E+02  0.00000000000E+00 0.  1.
         11    1    3    3    0    0  0.14702335471E+01  0.94961434608E+01 -0.21895163981E+02  0.23911012804E+02  0.51100000000E-03 0. -1.
        -11    1    3    3    0    0  0.25672704990E+02  0.20398156330E+01  0.16354724165E+02  0.30507796251E+02  0.51100000000E-03 0.  1.
        -12    1    3    3    0    0 -0.17696288986E+02  0.34939461910E+01 -0.42105977343E+00  0.18042826696E+02  0.00000000000E+00 0.  1.
</event>
<event>
 7    1  0.1905073E-013  0.7246164E+02  0.7816164E-02  0.1226708E+00
        -11   -1    0    0    0    0  0.00000000000E+00  0.00000000000E+00  0.45593999997E+02  0.45594000000E+02  0.51100000000E-03 0. -1.
         11   -1    0    0    0    0 -0.00000000000E+00 -0.00000000000E+00 -0.45593999997E+02  0.45594000000E+02  0.51100000000E-03 0.  1.
    9900012    2    1    2    0    0  0.51763396650E+00 -0.11502994165E+02  0.14767867729E+02  0.72461635245E+02  0.70000084610E+02 0.  0.
        -12    1    1    2    0    0 -0.51763396650E+00  0.11502994165E+02 -0.14767867729E+02  0.18726364755E+02  0.00000000000E+00 0.  1.
         11    1    3    3    0    0 -0.29029161199E+01 -0.36282123187E+02 -0.49788258499E+01  0.36737012563E+02  0.51100000000E-03 0.  1.
        -11    1    3    3    0    0 -0.68461969610E+00  0.24913304468E+02  0.13773262862E+02  0.28475326404E+02  0.51100000000E-03 0. -1.
         12    1    3    3    0    0  0.41051697825E+01 -0.13417544587E+00  0.59734307170E+01  0.72492962779E+01  0.00000000000E+00 0. -1.
</event>
<event>
 7    1  0.1905073E-013  0.7246159E+02  0.7816164E-02  0.1226708E+00
        -11   -1    0    0    0    0  0.00000000000E+00  0.00000000000E+00  0.45593999997E+02  0.45594000000E+02  0.51100000000E-03 0.  1.
         11   -1    0    0    0    0 -0.00000000000E+00 -0.00000000000E+00 -0.45593999997E+02  0.45594000000E+02  0.51100000000E-03 0. -1.
    9900012    2    1    2    0    0  0.11120782590E+02 -0.43854620867E+01 -0.14414384923E+02  0.72461586146E+02  0.70000020650E+02 0.  0.
        -12    1    1    2    0    0 -0.11120782590E+02  0.43854620867E+01  0.14414384923E+02  0.18726413854E+02  0.00000000000E+00 0.  1.
         11    1    3    3    0    0  0.71090704655E+01  0.19015342415E+02 -0.23153929391E+01  0.20432405017E+02  0.51100000000E-03 0. -1.
        -11    1    3    3    0    0  0.21229308227E+02 -0.23163356561E+02 -0.14569319573E+02  0.34633649649E+02  0.51100000000E-03 0.  1.
        -12    1    3    3    0    0 -0.17217596102E+02 -0.23744794112E+00  0.24703275890E+01  0.17395531480E+02  0.00000000000E+00 0.  1.
</event>
<event>
 7    1  0.1905073E-013  0.7246153E+02  0.7816164E-02  0.1226708E+00
        -11   -1    0    0    0    0  0.00000000000E+00  0.00000000000E+00  0.45593999997E+02  0.45594000000E+02  0.51100000000E-03 0. -1.
         11   -1    0    0    0    0 -0.00000000000E+00 -0.00000000000E+00 -0.45593999997E+02  0.45594000000E+02  0.51100000000E-03 0.  1.
    9900012    2    1    2    0    0 -0.74483464011E+01 -0.16109270592E+02 -0.59744517307E+01  0.72461533793E+02  0.69999952450E+02 0.  0.
        -12    1    1    2    0    0  0.74483464011E+01  0.16109270592E+02  0.59744517307E+01  0.18726466207E+02  0.00000000000E+00 0.  1.
         11    1    3    3    0    0 -0.35310712652E+00 -0.36924438953E+02  0.14641152064E+02  0.39722817255E+02  0.51100000000E-03 0. -1.
        -11    1    3    3    0    0  0.37363807520E+00  0.16588263693E+02 -0.15729599527E+02  0.22863298085E+02  0.51100000000E-03 0.  1.
        -12    1    3    3    0    0 -0.74688773498E+01  0.42269046679E+01 -0.48860042675E+01  0.98754184539E+01  0.00000000000E+00 0.  1.
</event>
<event>
 7    1  0.1905073E-013  0.7246156E+02  0.7816164E-02  0.1226708E+00
        -11   -1    0    0    0    0  0.00000000000E+00  0.00000000000E+00  0.45593999997E+02  0.45594000000E+02  0.51100000000E-03 0. -1.
         11   -1    0    0    0    0 -0.00000000000E+00 -0.00000000000E+00 -0.45593999997E+02  0.45594000000E+02  0.51100000000E-03 0.  1.
    9900012    2    1    2    0    0  0.15325433494E+02  0.89434029663E+00  0.10724313340E+02  0.72461557386E+02  0.69999983185E+02 0.  0.
        -12    1    1    2    0    0 -0.15325433494E+02 -0.89434029663E+00 -0.10724313340E+02  0.18726442614E+02  0.00000000000E+00 0.  1.
         11    1    3    3    0    0  0.20244720482E+02  0.16673330325E+02  0.12811735943E+02  0.29188854545E+02  0.51100000000E-03 0. -1.
        -11    1    3    3    0    0  0.46024483759E+00 -0.27287598402E+02 -0.90915506725E+01  0.28765972011E+02  0.51100000000E-03 0.  1.
        -12    1    3    3    0    0 -0.53795318260E+01  0.11508608373E+02  0.70041280700E+01  0.14506730830E+02  0.00000000000E+00 0.  1.
</event>
<event>
 7    1  0.1905073E-013  0.7246155E+02  0.7816164E-02  0.1226708E+00
        -11   -1    0    0    0    0  0.00000000000E+00  0.00000000000E+00  0.45593999997E+02  0.45594000000E+02  0.51100000000E-03 0.  1.
         11   -1    0    0    0    0 -0.00000000000E+00 -0.00000000000E+00 -0.45593999997E+02  0.45594000000E+02  0.51100000000E-03 0. -1.
    9900012    2    1    2    0    0 -0.35174019770E+01 -0.40805669143E+01 -0.17934791141E+02  0.72461551424E+02  0.69999975417E+02 0.  0.
        -12    1    1    2    0    0  0.35174019770E+01  0.40805669143E+01  0.17934791141E+02  0.18726448576E+02  0.00000000000E+00 0.  1.
         11    1    3    3    0    0 -0.17279517258E+02 -0.13388095613E+02 -0.98342354510E+01  0.23969459901E+02  0.51100000000E-03 0. -1.
        -11    1    3    3    0    0  0.23655329995E+02 -0.59819970057E+01 -0.15421098902E+02  0.28864670740E+02  0.51100000000E-03 0.  1.
        -12    1    3    3    0    0 -0.98932147143E+01  0.15289525704E+02  0.73205432114E+01  0.19627420782E+02  0.00000000000E+00 0.  1.
</event>
<event>
 7    1  0.1905073E-013  0.7246158E+02  0.7816164E-02  0.1226708E+00
        -11   -1    0    0    0    0  0.00000000000E+00  0.00000000000E+00  0.45593999997E+02  0.45594000000E+02  0.51100000000E-03 0. -1.
         11   -1    0    0    0    0 -0.00000000000E+00 -0.00000000000E+00 -0.45593999997E+02  0.45594000000E+02  0.51100000000E-03 0.  1.
    9900012    2    1    2    0    0 -0.97913691946E+01 -0.97785948072E+01  0.12616939019E+02  0.72461575426E+02  0.70000006685E+02 0.  0.
        -12    1    1    2    0    0  0.97913691946E+01  0.97785948072E+01 -0.12616939019E+02  0.18726424574E+02  0.00000000000E+00 0.  1.
         11    1    3    3    0    0 -0.30518718303E+02 -0.44050981889E+01  0.85464787629E+00  0.30846839062E+02  0.51100000000E-03 0.  1.
        -11    1    3    3    0    0  0.21632918180E+02  0.57103998397E+01 -0.35876233280E+01  0.22659718814E+02  0.51100000000E-03 0. -1.
         12    1    3    3    0    0 -0.90556907232E+00 -0.11083896458E+02  0.15349914471E+02  0.18955017550E+02  0.00000000000E+00 0. -1.
</event>
<event>
 7    1  0.1905073E-013  0.7246155E+02  0.7816164E-02  0.1226708E+00
        -11   -1    0    0    0    0  0.00000000000E+00  0.00000000000E+00  0.45593999997E+02  0.45594000000E+02  0.51100000000E-03 0.  1.
         11   -1    0    0    0    0 -0.00000000000E+00 -0.00000000000E+00 -0.45593999997E+02  0.45594000000E+02  0.51100000000E-03 0. -1.
    9900012    2    1    2    0    0 -0.16864228059E+02  0.35921438844E+01 -0.73057634986E+01  0.72461551698E+02  0.69999975775E+02 0.  0.
        -12    1    1    2    0    0  0.16864228059E+02 -0.35921438844E+01  0.73057634986E+01  0.18726448302E+02  0.00000000000E+00 0.  1.
         11    1    3    3    0    0  0.12304226961E+02 -0.13807881542E+02 -0.95142346032E+01  0.20798371430E+02  0.51100000000E-03 0. -1.
        -11    1    3    3    0    0 -0.23100631525E+02  0.29743053236E+02 -0.40938555501E+00  0.37662394898E+02  0.51100000000E-03 0.  1.
         12    1    3    3    0    0 -0.60678234948E+01 -0.12343027810E+02  0.26178566596E+01  0.14000785370E+02  0.00000000000E+00 0. -1.
</event>
<event>
 7    1  0.1905073E-013  0.7246154E+02  0.7816164E-02  0.1226708E+00
        -11   -1    0    0    0    0  0.00000000000E+00  0.00000000000E+00  0.45593999997E+02  0.45594000000E+02  0.51100000000E-03 0.  1.
         11   -1    0    0    0    0 -0.00000000000E+00 -0.00000000000E+00 -0.45593999997E+02  0.45594000000E+02  0.51100000000E-03 0. -1.
    9900012    2    1    2    0    0 -0.95534924609E+01  0.15055650250E+02 -0.57217388626E+01  0.72461544963E+02  0.69999967001E+02 0.  0.
        -12    1    1    2    0    0  0.95534924609E+01 -0.15055650250E+02  0.57217388626E+01  0.18726455037E+02  0.00000000000E+00 0.  1.
         11    1    3    3    0    0 -0.17221732663E+02  0.72669551884E+01 -0.16477750811E+02  0.24918125646E+02  0.51100000000E-03 0. -1.
        -11    1    3    3    0    0  0.54250583818E+01 -0.21756888093E+01  0.27399398526E+02  0.28015922617E+02  0.51100000000E-03 0.  1.
        -12    1    3    3    0    0  0.22431818208E+01  0.99643838710E+01 -0.16643386577E+02  0.19527496700E+02  0.00000000000E+00 0.  1.
</event>
<event>
 7    1  0.1905073E-013  0.7246143E+02  0.7816164E-02  0.1226708E+00
        -11   -1    0    0    0    0  0.00000000000E+00  0.00000000000E+00  0.45593999997E+02  0.45594000000E+02  0.51100000000E-03 0. -1.
         11   -1    0    0    0    0 -0.00000000000E+00 -0.00000000000E+00 -0.45593999997E+02  0.45594000000E+02  0.51100000000E-03 0.  1.
    9900012    2    1    2    0    0 -0.18598629633E+02 -0.19833290762E+01 -0.91752330307E+00  0.72461428839E+02  0.69999815727E+02 0.  0.
        -12    1    1    2    0    0  0.18598629633E+02  0.19833290762E+01  0.91752330307E+00  0.18726571161E+02  0.00000000000E+00 0.  1.
         11    1    3    3    0    0  0.20258256733E+02 -0.53612974433E+01  0.76607599530E+01  0.22312053233E+02  0.51100000000E-03 0.  1.
        -11    1    3    3    0    0 -0.38000551240E+02  0.11654343931E+02 -0.24639212027E+01  0.39823818689E+02  0.51100000000E-03 0. -1.
         12    1    3    3    0    0 -0.85633512628E+00 -0.82763755637E+01 -0.61143620533E+01  0.10325556917E+02  0.00000000000E+00 0. -1.
</event>
<event>
 7    1  0.1905073E-013  0.7246165E+02  0.7816164E-02  0.1226708E+00
        -11   -1    0    0    0    0  0.00000000000E+00  0.00000000000E+00  0.45593999997E+02  0.45594000000E+02  0.51100000000E-03 0.  1.
         11   -1    0    0    0    0 -0.00000000000E+00 -0.00000000000E+00 -0.45593999997E+02  0.45594000000E+02  0.51100000000E-03 0. -1.
    9900012    2    1    2    0    0  0.16565769724E+02 -0.81162056902E+01 -0.32216028551E+01  0.72461648345E+02  0.70000101676E+02 0.  0.
        -12    1    1    2    0    0 -0.16565769724E+02  0.81162056902E+01  0.32216028551E+01  0.18726351655E+02  0.00000000000E+00 0.  1.
         11    1    3    3    0    0 -0.75845547330E+00 -0.31551979246E+02 -0.99179959280E+01  0.33082764282E+02  0.51100000000E-03 0. -1.
        -11    1    3    3    0    0  0.18697997535E+02  0.69571090028E+01  0.10303917717E+02  0.22454113166E+02  0.51100000000E-03 0.  1.
         12    1    3    3    0    0 -0.13737723378E+01  0.16478664553E+02 -0.36075246443E+01  0.16924770898E+02  0.00000000000E+00 0. -1.
</event>
<event>
 7    1  0.1905073E-013  0.7246161E+02  0.7816164E-02  0.1226708E+00
        -11   -1    0    0    0    0  0.00000000000E+00  0.00000000000E+00  0.45593999997E+02  0.45594000000E+02  0.51100000000E-03 0.  1.
         11   -1    0    0    0    0 -0.00000000000E+00 -0.00000000000E+00 -0.45593999997E+02  0.45594000000E+02  0.51100000000E-03 0. -1.
    9900012    2    1    2    0    0 -0.91551932782E+01 -0.53639967820E+01 -0.15430090866E+02  0.72461608741E+02  0.70000050084E+02 0.  0.
        -12    1    1    2    0    0  0.91551932782E+01  0.53639967820E+01  0.15430090866E+02  0.18726391259E+02  0.00000000000E+00 0.  1.
         11    1    3    3    0    0  0.25124397508E+02 -0.15986781450E+02 -0.15199241031E+02  0.33433956683E+02  0.51100000000E-03 0. -1.
        -11    1    3    3    0    0 -0.15153570968E+02  0.38200848114E+01  0.74636898864E+01  0.17318499589E+02  0.51100000000E-03 0.  1.
         12    1    3    3    0    0 -0.19126019818E+02  0.68026998569E+01 -0.76945397210E+01  0.21709152470E+02  0.00000000000E+00 0. -1.
</event>
<event>
 7    1  0.1905073E-013  0.7246195E+02  0.7816164E-02  0.1226707E+00
        -11   -1    0    0    0    0  0.00000000000E+00  0.00000000000E+00  0.45593999997E+02  0.45594000000E+02  0.51100000000E-03 0. -1.
         11   -1    0    0    0    0 -0.00000000000E+00 -0.00000000000E+00 -0.45593999997E+02  0.45594000000E+02  0.51100000000E-03 0.  1.
    9900012    2    1    2    0    0  0.13445081821E+02  0.86697808038E+01 -0.97329048769E+01  0.72461954991E+02  0.70000501137E+02 0.  0.
        -12    1    1    2    0    0 -0.13445081821E+02 -0.86697808038E+01  0.97329048769E+01  0.18726045009E+02  0.00000000000E+00 0.  1.
         11    1    3    3    0    0 -0.53969331239E+01  0.15103764182E+02  0.24664885880E+02  0.29421202819E+02  0.51100000000E-03 0. -1.
        -11    1    3    3    0    0  0.19255974750E+01  0.45048443948E+01 -0.11747146149E+02  0.12727803879E+02  0.51100000000E-03 0.  1.
         12    1    3    3    0    0  0.16916417470E+02 -0.10938827773E+02 -0.22650644607E+02  0.30312948292E+02  0.00000000000E+00 0. -1.
</event>
<event>
 7    1  0.1905073E-013  0.7246155E+02  0.7816164E-02  0.1226708E+00
        -11   -1    0    0    0    0  0.00000000000E+00  0.00000000000E+00  0.45593999997E+02  0.45594000000E+02  0.51100000000E-03 0. -1.
         11   -1    0    0    0    0 -0.00000000000E+00 -0.00000000000E+00 -0.45593999997E+02  0.45594000000E+02  0.51100000000E-03 0.  1.
    9900012    2    1    2    0    0 -0.12476388872E+02  0.54405528091E+00  0.13954341612E+02  0.72461550116E+02  0.69999973714E+02 0.  0.
        -12    1    1    2    0    0  0.12476388872E+02 -0.54405528091E+00 -0.13954341612E+02  0.18726449884E+02  0.00000000000E+00 0.  1.
         11    1    3    3    0    0  0.11791376408E+02 -0.22123778439E+02  0.11012133607E+02  0.27381841006E+02  0.51100000000E-03 0. -1.
        -11    1    3    3    0    0 -0.70703318966E+01  0.19249741863E+02 -0.10450275652E+02  0.23016307618E+02  0.51100000000E-03 0.  1.
         12    1    3    3    0    0 -0.17197433384E+02  0.34180918568E+01  0.13392483656E+02  0.22063401492E+02  0.00000000000E+00 0. -1.
</event>
<event>
 7    1  0.2214646E-013  0.7246173E+02  0.7816164E-02  0.1226708E+00
        -11   -1    0    0    0    0  0.00000000000E+00  0.00000000000E+00  0.45593999997E+02  0.45594000000E+02  0.51100000000E-03 0.  1.
         11   -1    0    0    0    0 -0.00000000000E+00 -0.00000000000E+00 -0.45593999997E+02  0.45594000000E+02  0.51100000000E-03 0. -1.
    9900012    2    1    2    0    0  0.13241080676E+02  0.13066546840E+02  0.21476143138E+01  0.72461732058E+02  0.70000210727E+02 0.  0.
        -12    1    1    2    0    0 -0.13241080676E+02 -0.13066546840E+02 -0.21476143138E+01  0.18726267942E+02  0.00000000000E+00 0.  1.
         11    1    3    3    0    0  0.27463995199E+02 -0.11416834266E+02  0.39192019574E+01  0.29999588017E+02  0.51100000000E-03 0. -1.
        -11    1    3    3    0    0 -0.18112811506E+02  0.90551156980E+00  0.20903191656E+01  0.18255501262E+02  0.51100000000E-03 0.  1.
         12    1    3    3    0    0  0.38898969827E+01  0.23577869536E+02 -0.38619068092E+01  0.24206642779E+02  0.00000000000E+00 0. -1.
</event>
<event>
 7    1  0.1905073E-013  0.7246151E+02  0.7816164E-02  0.1226708E+00
        -11   -1    0    0    0    0  0.00000000000E+00  0.00000000000E+00  0.45593999997E+02  0.45594000000E+02  0.51100000000E-03 0.  1.
         11   -1    0    0    0    0 -0.00000000000E+00 -0.00000000000E+00 -0.45593999997E+02  0.45594000000E+02  0.51100000000E-03 0. -1.
    9900012    2    1    2    0    0  0.56052167259E+01 -0.62694869919E+01 -0.16731902906E+02  0.72461508163E+02  0.69999919062E+02 0.  0.
        -12    1    1    2    0    0 -0.56052167259E+01  0.62694869919E+01  0.16731902906E+02  0.18726491837E+02  0.00000000000E+00 0.  1.
         11    1    3    3    0    0 -0.84577457255E+00  0.16239430768E+02 -0.26104600813E+02  0.30755237443E+02  0.51100000000E-03 0. -1.
        -11    1    3    3    0    0  0.17432004534E+02 -0.23241774175E+02  0.35885587564E+01  0.29273411196E+02  0.51100000000E-03 0.  1.
         12    1    3    3    0    0 -0.10981013235E+02  0.73285641434E+00  0.57841391515E+01  0.12432859523E+02  0.00000000000E+00 0. -1.
</event>
<event>
 7    1  0.1905073E-013  0.7246157E+02  0.7816164E-02  0.1226708E+00
        -11   -1    0    0    0    0  0.00000000000E+00  0.00000000000E+00  0.45593999997E+02  0.45594000000E+02  0.51100000000E-03 0. -1.
         11   -1    0    0    0    0 -0.00000000000E+00 -0.00000000000E+00 -0.45593999997E+02  0.45594000000E+02  0.51100000000E-03 0.  1.
    9900012    2    1    2    0    0  0.22366564079E+01 -0.13337534107E+02  0.12953249398E+02  0.72461571672E+02  0.70000001795E+02 0.  0.
        -12    1    1    2    0    0 -0.22366564079E+01  0.13337534107E+02 -0.12953249398E+02  0.18726428328E+02  0.00000000000E+00 0.  1.
         11    1    3    3    0    0 -0.79939838002E+01  0.13504054631E+02 -0.85549959072E+01  0.17873198474E+02  0.51100000000E-03 0. -1.
        -11    1    3    3    0    0  0.24270331394E+02 -0.97801256528E+01  0.19028979144E+02  0.32354317969E+02  0.51100000000E-03 0.  1.
         12    1    3    3    0    0 -0.14039691186E+02 -0.17061463085E+02  0.24792661617E+01  0.22234055228E+02  0.00000000000E+00 0. -1.
</event>
<event>
 7    1  0.1905073E-013  0.7246149E+02  0.7816164E-02  0.1226708E+00
        -11   -1    0    0    0    0  0.00000000000E+00  0.00000000000E+00  0.45593999997E+02  0.45594000000E+02  0.51100000000E-03 0.  1.
         11   -1    0    0    0    0 -0.00000000000E+00 -0.00000000000E+00 -0.45593999997E+02  0.45594000000E+02  0.51100000000E-03 0. -1.
    9900012    2    1    2    0    0 -0.41162757428E+01 -0.28110037921E+01 -0.18050943336E+02  0.72461494089E+02  0.69999900728E+02 0.  0.
        -12    1    1    2    0    0  0.41162757428E+01  0.28110037921E+01  0.18050943336E+02  0.18726505911E+02  0.00000000000E+00 0.  1.
         11    1    3    3    0    0  0.18733211488E+02 -0.24736484310E+02 -0.21197536664E+02  0.37578749707E+02  0.51100000000E-03 0. -1.
        -11    1    3    3    0    0 -0.11546298444E+00  0.49643841184E+01 -0.30800186490E+01  0.58433685931E+01  0.51100000000E-03 0.  1.
         12    1    3    3    0    0 -0.22734024246E+02  0.16961096399E+02  0.62266119773E+01  0.29039375789E+02  0.00000000000E+00 0. -1.
</event>
<event>
 7    1  0.1905073E-013  0.7246156E+02  0.7816164E-02  0.1226708E+00
        -11   -1    0    0    0    0  0.00000000000E+00  0.00000000000E+00  0.45593999997E+02  0.45594000000E+02  0.51100000000E-03 0.  1.
         11   -1    0    0    0    0 -0.00000000000E+00 -0.00000000000E+00 -0.45593999997E+02  0.45594000000E+02  0.51100000000E-03 0. -1.
    9900012    2    1    2    0    0 -0.31267910556E+01 -0.90679847945E+01 -0.16083359695E+02  0.72461558010E+02  0.69999983997E+02 0.  0.
        -12    1    1    2    0    0  0.31267910556E+01  0.90679847945E+01  0.16083359695E+02  0.18726441990E+02  0.00000000000E+00 0.  1.
         11    1    3    3    0    0 -0.85841756354E+01  0.47309293648E+01 -0.28745071687E+02  0.30370197736E+02  0.51100000000E-03 0. -1.
        -11    1    3    3    0    0  0.16610758460E+02 -0.40460101995E+01  0.19362797627E+02  0.25830319924E+02  0.51100000000E-03 0.  1.
        -12    1    3    3    0    0 -0.11153373880E+02 -0.97529039599E+01 -0.67010856355E+01  0.16261040350E+02  0.00000000000E+00 0.  1.
</event>
<event>
 7    1  0.1905073E-013  0.7246158E+02  0.7816164E-02  0.1226708E+00
        -11   -1    0    0    0    0  0.00000000000E+00  0.00000000000E+00  0.45593999997E+02  0.45594000000E+02  0.51100000000E-03 0. -1.
         11   -1    0    0    0    0 -0.00000000000E+00 -0.00000000000E+00 -0.45593999997E+02  0.45594000000E+02  0.51100000000E-03 0.  1.
    9900012    2    1    2    0    0  0.13795664409E+02  0.19104437771E+01 -0.12518335591E+02  0.72461578081E+02  0.70000010143E+02 0.  0.
        -12    1    1    2    0    0 -0.13795664409E+02 -0.19104437771E+01  0.12518335591E+02  0.18726421919E+02  0.00000000000E+00 0.  1.
         11    1    3    3    0    0 -0.14053140608E+02  0.49549254696E+01 -0.73119952804E+01  0.16598413255E+02  0.51100000000E-03 0. -1.
        -11    1    3    3    0    0  0.28752222875E+02  0.14646265424E+02  0.86119075979E+01  0.33397131072E+02  0.51100000000E-03 0.  1.
         12    1    3    3    0    0 -0.90341785749E+00 -0.17690747116E+02 -0.13818247908E+02  0.22466033754E+02  0.00000000000E+00 0. -1.
</event>
<event>
 7    1  0.1905073E-013  0.7246159E+02  0.7816164E-02  0.1226708E+00
        -11   -1    0    0    0    0  0.00000000000E+00  0.00000000000E+00  0.45593999997E+02  0.45594000000E+02  0.51100000000E-03 0.  1.
         11   -1    0    0    0    0 -0.00000000000E+00 -0.00000000000E+00 -0.45593999997E+02  0.45594000000E+02  0.51100000000E-03 0. -1.
    9900012    2    1    2    0    0  0.96631249008E+01  0.12254991118E+02 -0.10349762378E+02  0.72461591603E+02  0.70000027759E+02 0.  0.
        -12    1    1    2    0    0 -0.96631249008E+01 -0.12254991118E+02  0.10349762378E+02  0.18726408397E+02  0.00000000000E+00 0.  1.
         11    1    3    3    0    0 -0.29995582366E+01  0.29643688295E+02  0.10020803618E+02  0.31435045901E+02  0.51100000000E-03 0.  1.
        -11    1    3    3    0    0  0.66847431207E+01 -0.75529313646E+01  0.63594794078E+01  0.11923738566E+02  0.51100000000E-03 0. -1.
         12    1    3    3    0    0  0.59779400167E+01 -0.98357658122E+01 -0.26730045404E+02  0.29102807137E+02  0.00000000000E+00 0. -1.
</event>
<event>
 7    1  0.1905073E-013  0.7246158E+02  0.7816164E-02  0.1226708E+00
        -11   -1    0    0    0    0  0.00000000000E+00  0.00000000000E+00  0.45593999997E+02  0.45594000000E+02  0.51100000000E-03 0.  1.
         11   -1    0    0    0    0 -0.00000000000E+00 -0.00000000000E+00 -0.45593999997E+02  0.45594000000E+02  0.51100000000E-03 0. -1.
    9900012    2    1    2    0    0  0.70445182421E+01  0.11300834857E+02  0.13166037699E+02  0.72461584048E+02  0.70000017917E+02 0.  0.
        -12    1    1    2    0    0 -0.70445182421E+01 -0.11300834857E+02 -0.13166037699E+02  0.18726415952E+02  0.00000000000E+00 0.  1.
         11    1    3    3    0    0  0.13984856941E+02  0.10912361271E+02 -0.48302440992E+00  0.17745116653E+02  0.51100000000E-03 0. -1.
        -11    1    3    3    0    0 -0.29664599202E+02 -0.27768132527E+01  0.50767871091E+01  0.30223714287E+02  0.51100000000E-03 0.  1.
        -12    1    3    3    0    0  0.22724260503E+02  0.31652868389E+01  0.85722749993E+01  0.24492753109E+02  0.00000000000E+00 0.  1.
</event>
<event>
 7    1  0.1905073E-013  0.7246152E+02  0.7816164E-02  0.1226708E+00
        -11   -1    0    0    0    0  0.00000000000E+00  0.00000000000E+00  0.45593999997E+02  0.45594000000E+02  0.51100000000E-03 0.  1.
         11   -1    0    0    0    0 -0.00000000000E+00 -0.00000000000E+00 -0.45593999997E+02  0.45594000000E+02  0.51100000000E-03 0. -1.
    9900012    2    1    2    0    0  0.11723654779E+02  0.12019955779E+02 -0.82920287783E+01  0.72461517160E+02  0.69999930782E+02 0.  0.
        -12    1    1    2    0    0 -0.11723654779E+02 -0.12019955779E+02  0.82920287783E+01  0.18726482840E+02  0.00000000000E+00 0.  1.
         11    1    3    3    0    0  0.22822740015E+01 -0.18677854625E+02  0.25577687335E+01  0.18989818566E+02  0.51100000000E-03 0.  1.
        -11    1    3    3    0    0 -0.77307169042E+01  0.28047775206E+02 -0.18509912852E+02  0.34482728312E+02  0.51100000000E-03 0. -1.
        -12    1    3    3    0    0  0.17172097682E+02  0.26500351985E+01  0.76601153398E+01  0.18988970282E+02  0.00000000000E+00 0.  1.
</event>
<event>
 7    1  0.1905073E-013  0.7246160E+02  0.7816164E-02  0.1226708E+00
        -11   -1    0    0    0    0  0.00000000000E+00  0.00000000000E+00  0.45593999997E+02  0.45594000000E+02  0.51100000000E-03 0.  1.
         11   -1    0    0    0    0 -0.00000000000E+00 -0.00000000000E+00 -0.45593999997E+02  0.45594000000E+02  0.51100000000E-03 0. -1.
    9900012    2    1    2    0    0 -0.13012503232E+02  0.46464529278E+01  0.12639757771E+02  0.72461595068E+02  0.70000032272E+02 0.  0.
        -12    1    1    2    0    0  0.13012503232E+02 -0.46464529278E+01 -0.12639757771E+02  0.18726404932E+02  0.00000000000E+00 0.  1.
         11    1    3    3    0    0 -0.23623162270E+02 -0.21689206071E+02  0.13269879196E+02  0.34706845863E+02  0.51100000000E-03 0. -1.
        -11    1    3    3    0    0  0.58835551662E+01 -0.29662155177E+00  0.74755646372E+01  0.95177871716E+01  0.51100000000E-03 0.  1.
         12    1    3    3    0    0  0.47271038723E+01  0.26632280551E+02 -0.81056860618E+01  0.28236962033E+02  0.00000000000E+00 0. -1.
</event>
<event>
 7    1  0.1905073E-013  0.7246174E+02  0.7816164E-02  0.1226708E+00
        -11   -1    0    0    0    0  0.00000000000E+00  0.00000000000E+00  0.45593999997E+02  0.45594000000E+02  0.51100000000E-03 0.  1.
         11   -1    0    0    0    0 -0.00000000000E+00 -0.00000000000E+00 -0.45593999997E+02  0.45594000000E+02  0.51100000000E-03 0. -1.
    9900012    2    1    2    0    0  0.47561385984E+00  0.10750225676E+02 -0.15325771486E+02  0.72461739501E+02  0.70000220422E+02 0.  0.
        -12    1    1    2    0    0 -0.47561385984E+00 -0.10750225676E+02  0.15325771486E+02  0.18726260499E+02  0.00000000000E+00 0.  1.
         11    1    3    3    0    0  0.22419530641E+02 -0.48378859702E+01 -0.21117496391E+02  0.31176740511E+02  0.51100000000E-03 0. -1.
        -11    1    3    3    0    0 -0.68653211918E+01  0.22843071469E+02  0.58183705933E+01  0.24551822454E+02  0.51100000000E-03 0.  1.
        -12    1    3    3    0    0 -0.15078595589E+02 -0.72549598224E+01 -0.26645688777E-01  0.16733176535E+02  0.00000000000E+00 0.  1.
</event>
<event>
 7    1  0.1905073E-013  0.7246169E+02  0.7816164E-02  0.1226708E+00
        -11   -1    0    0    0    0  0.00000000000E+00  0.00000000000E+00  0.45593999997E+02  0.45594000000E+02  0.51100000000E-03 0.  1.
         11   -1    0    0    0    0 -0.00000000000E+00 -0.00000000000E+00 -0.45593999997E+02  0.45594000000E+02  0.51100000000E-03 0. -1.
    9900012    2    1    2    0    0 -0.94049440407E+01  0.15018406026E+02 -0.60555034068E+01  0.72461691942E+02  0.70000158469E+02 0.  0.
        -12    1    1    2    0    0  0.94049440407E+01 -0.15018406026E+02  0.60555034068E+01  0.18726308058E+02  0.00000000000E+00 0.  1.
         11    1    3    3    0    0  0.11216438034E+02  0.29542136245E+02  0.96406263035E+01  0.33037675037E+02  0.51100000000E-03 0. -1.
        -11    1    3    3    0    0 -0.19513880590E+02  0.19407699783E+01 -0.74605239495E+01  0.20981361768E+02  0.51100000000E-03 0.  1.
         12    1    3    3    0    0 -0.11075014848E+01 -0.16464500197E+02 -0.82356057607E+01  0.18442655138E+02  0.00000000000E+00 0. -1.
</event>
<event>
 7    1  0.1905073E-013  0.7246172E+02  0.7816164E-02  0.1226708E+00
        -11   -1    0    0    0    0  0.00000000000E+00  0.00000000000E+00  0.45593999997E+02  0.45594000000E+02  0.51100000000E-03 0. -1.
         11   -1    0    0    0    0 -0.00000000000E+00 -0.00000000000E+00 -0.45593999997E+02  0.45594000000E+02  0.51100000000E-03 0.  1.
    9900012    2    1    2    0    0  0.99138238456E+01 -0.69130942369E+01  0.14303804425E+02  0.72461719104E+02  0.70000193852E+02 0.  0.
        -12    1    1    2    0    0 -0.99138238456E+01  0.69130942369E+01 -0.14303804425E+02  0.18726280896E+02  0.00000000000E+00 0.  1.
         11    1    3    3    0    0 -0.10481896969E+02  0.19687933946E+02  0.99168118237E+01  0.24409589594E+02  0.51100000000E-03 0. -1.
        -11    1    3    3    0    0  0.26401770277E+02 -0.17664784659E+02 -0.68424003297E+01  0.32494869339E+02  0.51100000000E-03 0.  1.
         12    1    3    3    0    0 -0.60060494621E+01 -0.89362435237E+01  0.11229392931E+02  0.15557260172E+02  0.00000000000E+00 0. -1.
</event>
<event>
 7    1  0.1972138E-013  0.7246153E+02  0.7816164E-02  0.1226708E+00
        -11   -1    0    0    0    0  0.00000000000E+00  0.00000000000E+00  0.45593999997E+02  0.45594000000E+02  0.51100000000E-03 0. -1.
         11   -1    0    0    0    0 -0.00000000000E+00 -0.00000000000E+00 -0.45593999997E+02  0.45594000000E+02  0.51100000000E-03 0.  1.
    9900012    2    1    2    0    0  0.11281327576E+02  0.91908963631E+01  0.11787268748E+02  0.72461531236E+02  0.69999949119E+02 0.  0.
        -12    1    1    2    0    0 -0.11281327576E+02 -0.91908963631E+01 -0.11787268748E+02  0.18726468764E+02  0.00000000000E+00 0.  1.
         11    1    3    3    0    0  0.13962635283E+02  0.32306667761E+02  0.13869403650E+02  0.37829040746E+02  0.51100000000E-03 0. -1.
        -11    1    3    3    0    0 -0.12845714905E+02 -0.52149305566E+01  0.57833996278E+00  0.13875963732E+02  0.51100000000E-03 0.  1.
         12    1    3    3    0    0  0.10164407198E+02 -0.17900840842E+02 -0.26604748647E+01  0.20756526757E+02  0.00000000000E+00 0. -1.
</event>
<event>
 7    1  0.1905073E-013  0.7246144E+02  0.7816164E-02  0.1226708E+00
        -11   -1    0    0    0    0  0.00000000000E+00  0.00000000000E+00  0.45593999997E+02  0.45594000000E+02  0.51100000000E-03 0.  1.
         11   -1    0    0    0    0 -0.00000000000E+00 -0.00000000000E+00 -0.45593999997E+02  0.45594000000E+02  0.51100000000E-03 0. -1.
    9900012    2    1    2    0    0  0.28664418481E+01 -0.13989088682E+02  0.12114990182E+02  0.72461439234E+02  0.69999829269E+02 0.  0.
        -12    1    1    2    0    0 -0.28664418481E+01  0.13989088682E+02 -0.12114990182E+02  0.18726560766E+02  0.00000000000E+00 0.  1.
         11    1    3    3    0    0 -0.73284275953E+01  0.21269065094E+02  0.13882647275E+01  0.22538994215E+02  0.51100000000E-03 0. -1.
        -11    1    3    3    0    0  0.13844883725E+02 -0.94370218903E+01  0.16166922128E+02  0.23283203364E+02  0.51100000000E-03 0.  1.
         12    1    3    3    0    0 -0.36500142821E+01 -0.25821131886E+02 -0.54401966740E+01  0.26639241655E+02  0.00000000000E+00 0. -1.
</event>
<event>
 7    1  0.1905073E-013  0.7246155E+02  0.7816164E-02  0.1226708E+00
        -11   -1    0    0    0    0  0.00000000000E+00  0.00000000000E+00  0.45593999997E+02  0.45594000000E+02  0.51100000000E-03 0.  1.
         11   -1    0    0    0    0 -0.00000000000E+00 -0.00000000000E+00 -0.45593999997E+02  0.45594000000E+02  0.51100000000E-03 0. -1.
    9900012    2    1    2    0    0  0.24076557965E+01 -0.82555472856E+01 -0.16635179125E+02  0.72461546734E+02  0.69999969308E+02 0.  0.
        -12    1    1    2    0    0 -0.24076557965E+01  0.82555472856E+01  0.16635179125E+02  0.18726453266E+02  0.00000000000E+00 0.  1.
         11    1    3    3    0    0 -0.23919289673E+02  0.59431294196E+01 -0.11979431091E+02  0.27403648941E+02  0.51100000000E-03 0.  1.
        -11    1    3    3    0    0  0.10870249047E+02 -0.59377929550E+01  0.14516313234E+02  0.19082532581E+02  0.51100000000E-03 0. -1.
         12    1    3    3    0    0  0.15456696422E+02 -0.82608837502E+01 -0.19172061269E+02  0.25975365212E+02  0.00000000000E+00 0. -1.
</event>
<event>
 7    1  0.1905073E-013  0.7246161E+02  0.7816164E-02  0.1226708E+00
        -11   -1    0    0    0    0  0.00000000000E+00  0.00000000000E+00  0.45593999997E+02  0.45594000000E+02  0.51100000000E-03 0. -1.
         11   -1    0    0    0    0 -0.00000000000E+00 -0.00000000000E+00 -0.45593999997E+02  0.45594000000E+02  0.51100000000E-03 0.  1.
    9900012    2    1    2    0    0 -0.14177254759E+02 -0.49992990442E+01 -0.11166471701E+02  0.72461611302E+02  0.70000053420E+02 0.  0.
        -12    1    1    2    0    0  0.14177254759E+02  0.49992990442E+01  0.11166471701E+02  0.18726388698E+02  0.00000000000E+00 0.  1.
         11    1    3    3    0    0 -0.72686065926E+01 -0.14268896797E+01  0.11338618899E+02  0.13543741534E+02  0.51100000000E-03 0. -1.
        -11    1    3    3    0    0 -0.10126384761E+02  0.93342942409E+00 -0.39633210700E+02  0.40917066726E+02  0.51100000000E-03 0.  1.
        -12    1    3    3    0    0  0.32177365950E+01 -0.45058387886E+01  0.17128120100E+02  0.18000803042E+02  0.00000000000E+00 0.  1.
</event>
<event>
 7    1  0.1905073E-013  0.7246161E+02  0.7816164E-02  0.1226708E+00
        -11   -1    0    0    0    0  0.00000000000E+00  0.00000000000E+00  0.45593999997E+02  0.45594000000E+02  0.51100000000E-03 0. -1.
         11   -1    0    0    0    0 -0.00000000000E+00 -0.00000000000E+00 -0.45593999997E+02  0.45594000000E+02  0.51100000000E-03 0.  1.
    9900012    2    1    2    0    0 -0.50550095246E+01  0.13372197260E+02  0.12095824588E+02  0.72461608107E+02  0.70000049258E+02 0.  0.
        -12    1    1    2    0    0  0.50550095246E+01 -0.13372197260E+02 -0.12095824588E+02  0.18726391893E+02  0.00000000000E+00 0.  1.
         11    1    3    3    0    0  0.15303403592E+02  0.23202055176E+02 -0.13459917742E+02  0.30882015992E+02  0.51100000000E-03 0. -1.
        -11    1    3    3    0    0 -0.19275789070E+02 -0.34859172604E+01  0.52520133751E+01  0.20280318246E+02  0.51100000000E-03 0.  1.
         12    1    3    3    0    0 -0.10826240465E+01 -0.63439406553E+01  0.20303728955E+02  0.21299273869E+02  0.00000000000E+00 0. -1.
</event>
<event>
 7    1  0.1905073E-013  0.7246157E+02  0.7816164E-02  0.1226708E+00
        -11   -1    0    0    0    0  0.00000000000E+00  0.00000000000E+00  0.45593999997E+02  0.45594000000E+02  0.51100000000E-03 0.  1.
         11   -1    0    0    0    0 -0.00000000000E+00 -0.00000000000E+00 -0.45593999997E+02  0.45594000000E+02  0.51100000000E-03 0. -1.
    9900012    2    1    2    0    0 -0.15409390904E+01  0.24225991498E+01 -0.18505021753E+02  0.72461566544E+02  0.69999995114E+02 0.  0.
        -12    1    1    2    0    0  0.15409390904E+01 -0.24225991498E+01  0.18505021753E+02  0.18726433456E+02  0.00000000000E+00 0.  1.
         11    1    3    3    0    0 -0.14032464763E+02  0.27263606492E+02 -0.11150339348E+02  0.32627356223E+02  0.51100000000E-03 0. -1.
        -11    1    3    3    0    0  0.67978006119E+01 -0.20145812056E+02 -0.17327181797E+02  0.27427997846E+02  0.51100000000E-03 0.  1.
         12    1    3    3    0    0  0.56937250603E+01 -0.46951952856E+01  0.99724993927E+01  0.12406212475E+02  0.00000000000E+00 0. -1.
</event>
<event>
 7    1  0.1905073E-013  0.7246157E+02  0.7816164E-02  0.1226708E+00
        -11   -1    0    0    0    0  0.00000000000E+00  0.00000000000E+00  0.45593999997E+02  0.45594000000E+02  0.51100000000E-03 0.  1.
         11   -1    0    0    0    0 -0.00000000000E+00 -0.00000000000E+00 -0.45593999997E+02  0.45594000000E+02  0.51100000000E-03 0. -1.
    9900012    2    1    2    0    0 -0.10247656946E+02  0.15673275019E+02  0.11423096206E+00  0.72461572914E+02  0.70000003412E+02 0.  0.
        -12    1    1    2    0    0  0.10247656946E+02 -0.15673275019E+02 -0.11423096206E+00  0.18726427086E+02  0.00000000000E+00 0.  1.
         11    1    3    3    0    0 -0.23602828410E+02 -0.12277756551E+02  0.13920803673E+02  0.30027080944E+02  0.51100000000E-03 0.  1.
        -11    1    3    3    0    0  0.14381057547E+01  0.18213346895E+02 -0.18838873773E+02  0.26243043242E+02  0.51100000000E-03 0. -1.
         12    1    3    3    0    0  0.11917065709E+02  0.97376846747E+01  0.50323010620E+01  0.16191448728E+02  0.00000000000E+00 0. -1.
</event>
<event>
 7    1  0.1905073E-013  0.7246150E+02  0.7816164E-02  0.1226708E+00
        -11   -1    0    0    0    0  0.00000000000E+00  0.00000000000E+00  0.45593999997E+02  0.45594000000E+02  0.51100000000E-03 0. -1.
         11   -1    0    0    0    0 -0.00000000000E+00 -0.00000000000E+00 -0.45593999997E+02  0.45594000000E+02  0.51100000000E-03 0.  1.
    9900012    2    1    2    0    0  0.10290025989E+02  0.54525775846E+01  0.14665143857E+02  0.72461503223E+02  0.69999912628E+02 0.  0.
        -12    1    1    2    0    0 -0.10290025989E+02 -0.54525775846E+01 -0.14665143857E+02  0.18726496777E+02  0.00000000000E+00 0.  1.
         11    1    3    3    0    0  0.20768796737E+02  0.38284189638E+01  0.11958233643E+02  0.24269302869E+02  0.51100000000E-03 0. -1.
        -11    1    3    3    0    0 -0.20699955233E+02 -0.16890544148E+02  0.39497921456E+01  0.27007026614E+02  0.51100000000E-03 0.  1.
        -12    1    3    3    0    0  0.10221184486E+02  0.18514702768E+02 -0.12428819315E+01  0.21185173740E+02  0.00000000000E+00 0.  1.
</event>
<event>
 7    1  0.1905073E-013  0.7246157E+02  0.7816164E-02  0.1226708E+00
        -11   -1    0    0    0    0  0.00000000000E+00  0.00000000000E+00  0.45593999997E+02  0.45594000000E+02  0.51100000000E-03 0. -1.
         11   -1    0    0    0    0 -0.00000000000E+00 -0.00000000000E+00 -0.45593999997E+02  0.45594000000E+02  0.51100000000E-03 0.  1.
    9900012    2    1    2    0    0  0.16039734061E+02  0.59410951313E+01  0.76229632236E+01  0.72461568188E+02  0.69999997256E+02 0.  0.
        -12    1    1    2    0    0 -0.16039734061E+02 -0.59410951313E+01 -0.76229632236E+01  0.18726431812E+02  0.00000000000E+00 0.  1.
         11    1    3    3    0    0 -0.23038855940E+02 -0.38326430258E+01  0.65455082415E+01  0.24255344030E+02  0.51100000000E-03 0. -1.
        -11    1    3    3    0    0  0.65481723699E+01  0.97098735969E+00 -0.10636334984E+02  0.12528088441E+02  0.51100000000E-03 0.  1.
         12    1    3    3    0    0  0.32530417632E+02  0.88027507974E+01  0.11713789966E+02  0.35678135717E+02  0.00000000000E+00 0. -1.
</event>
<event>
 7    1  0.1905073E-013  0.7246156E+02  0.7816164E-02  0.1226708E+00
        -11   -1    0    0    0    0  0.00000000000E+00  0.00000000000E+00  0.45593999997E+02  0.45594000000E+02  0.51100000000E-03 0. -1.
         11   -1    0    0    0    0 -0.00000000000E+00 -0.00000000000E+00 -0.45593999997E+02  0.45594000000E+02  0.51100000000E-03 0.  1.
    9900012    2    1    2    0    0 -0.10757470571E+02  0.11257719406E+02  0.10402882973E+02  0.72461564315E+02  0.69999992211E+02 0.  0.
        -12    1    1    2    0    0  0.10757470571E+02 -0.11257719406E+02 -0.10402882973E+02  0.18726435685E+02  0.00000000000E+00 0.  1.
         11    1    3    3    0    0  0.41670952381E+01  0.49808237269E+00  0.28614597433E+02  0.28920718443E+02  0.51100000000E-03 0. -1.
        -11    1    3    3    0    0 -0.85971914646E+01  0.23621294778E+02 -0.10271814442E+02  0.27154878756E+02  0.51100000000E-03 0.  1.
        -12    1    3    3    0    0 -0.63273743448E+01 -0.12861657744E+02 -0.79399000181E+01  0.16385967116E+02  0.00000000000E+00 0.  1.
</event>
<event>
 7    1  0.1905073E-013  0.7246159E+02  0.7816164E-02  0.1226708E+00
        -11   -1    0    0    0    0  0.00000000000E+00  0.00000000000E+00  0.45593999997E+02  0.45594000000E+02  0.51100000000E-03 0.  1.
         11   -1    0    0    0    0 -0.00000000000E+00 -0.00000000000E+00 -0.45593999997E+02  0.45594000000E+02  0.51100000000E-03 0. -1.
    9900012    2    1    2    0    0 -0.44013504685E+01 -0.13032220548E+02  0.12707003701E+02  0.72461585462E+02  0.70000019759E+02 0.  0.
        -12    1    1    2    0    0  0.44013504685E+01  0.13032220548E+02 -0.12707003701E+02  0.18726414538E+02  0.00000000000E+00 0.  1.
         11    1    3    3    0    0  0.12193400001E+02 -0.54274182729E+01 -0.15879109604E+02  0.20743239736E+02  0.51100000000E-03 0. -1.
        -11    1    3    3    0    0 -0.21442548063E+02  0.39814124808E+01  0.31979779817E+02  0.38708407745E+02  0.51100000000E-03 0.  1.
        -12    1    3    3    0    0  0.48477975929E+01 -0.11586214756E+02 -0.33936665119E+01  0.13009937981E+02  0.00000000000E+00 0.  1.
</event>
<event>
 7    1  0.1905073E-013  0.7246153E+02  0.7816164E-02  0.1226708E+00
        -11   -1    0    0    0    0  0.00000000000E+00  0.00000000000E+00  0.45593999997E+02  0.45594000000E+02  0.51100000000E-03 0.  1.
         11   -1    0    0    0    0 -0.00000000000E+00 -0.00000000000E+00 -0.45593999997E+02  0.45594000000E+02  0.51100000000E-03 0. -1.
    9900012    2    1    2    0    0 -0.57148931480E+01  0.88289270740E+01 -0.15494215715E+02  0.72461530029E+02  0.69999947547E+02 0.  0.
        -12    1    1    2    0    0  0.57148931480E+01 -0.88289270740E+01  0.15494215715E+02  0.18726469971E+02  0.00000000000E+00 0.  1.
         11    1    3    3    0    0  0.10616460449E+02  0.74253447739E+01 -0.15782124285E+02  0.20418629353E+02  0.51100000000E-03 0. -1.
        -11    1    3    3    0    0 -0.25481682394E+02  0.13926928504E+02  0.13164929817E+02  0.31884021901E+02  0.51100000000E-03 0.  1.
        -12    1    3    3    0    0  0.91503287975E+01 -0.12523346204E+02 -0.12877021247E+02  0.20158878775E+02  0.00000000000E+00 0.  1.
</event>
<event>
 7    1  0.1905073E-013  0.7246159E+02  0.7816164E-02  0.1226708E+00
        -11   -1    0    0    0    0  0.00000000000E+00  0.00000000000E+00  0.45593999997E+02  0.45594000000E+02  0.51100000000E-03 0.  1.
         11   -1    0    0    0    0 -0.00000000000E+00 -0.00000000000E+00 -0.45593999997E+02  0.45594000000E+02  0.51100000000E-03 0. -1.
    9900012    2    1    2    0    0 -0.93254171079E+01 -0.30571754506E+01 -0.15948946044E+02  0.72461585343E+02  0.70000019604E+02 0.  0.
        -12    1    1    2    0    0  0.93254171079E+01  0.30571754506E+01  0.15948946044E+02  0.18726414657E+02  0.00000000000E+00 0.  1.
         11    1    3    3    0    0 -0.79901243589E+01  0.17707340352E+02 -0.27958141940E+01  0.19626730927E+02  0.51100000000E-03 0.  1.
        -11    1    3    3    0    0 -0.10108333191E+02 -0.31124268771E+02 -0.19235439355E+02  0.37959196961E+02  0.51100000000E-03 0. -1.
        -12    1    3    3    0    0  0.87730404415E+01  0.10359752969E+02  0.60823075054E+01  0.14875657456E+02  0.00000000000E+00 0.  1.
</event>
<event>
 7    1  0.1905073E-013  0.7246158E+02  0.7816164E-02  0.1226708E+00
        -11   -1    0    0    0    0  0.00000000000E+00  0.00000000000E+00  0.45593999997E+02  0.45594000000E+02  0.51100000000E-03 0.  1.
         11   -1    0    0    0    0 -0.00000000000E+00 -0.00000000000E+00 -0.45593999997E+02  0.45594000000E+02  0.51100000000E-03 0. -1.
    9900012    2    1    2    0    0 -0.17521506883E+02  0.25527094278E+01 -0.60958532871E+01  0.72461575991E+02  0.70000007421E+02 0.  0.
        -12    1    1    2    0    0  0.17521506883E+02 -0.25527094278E+01  0.60958532871E+01  0.18726424009E+02  0.00000000000E+00 0.  1.
         11    1    3    3    0    0  0.24276155618E+02 -0.54307637497E+01 -0.71658314990E+01  0.25887720406E+02  0.51100000000E-03 0. -1.
        -11    1    3    3    0    0 -0.83611639172E+01  0.90889656377E+00  0.81054681944E+01  0.11680486716E+02  0.51100000000E-03 0.  1.
         12    1    3    3    0    0 -0.33436498583E+02  0.70745766137E+01 -0.70354899824E+01  0.34893368869E+02  0.00000000000E+00 0. -1.
</event>
<event>
 7    1  0.1905073E-013  0.7246169E+02  0.7816164E-02  0.1226708E+00
        -11   -1    0    0    0    0  0.00000000000E+00  0.00000000000E+00  0.45593999997E+02  0.45594000000E+02  0.51100000000E-03 0. -1.
         11   -1    0    0    0    0 -0.00000000000E+00 -0.00000000000E+00 -0.45593999997E+02  0.45594000000E+02  0.51100000000E-03 0.  1.
    9900012    2    1    2    0    0 -0.11325069238E+02 -0.93021293518E+01  0.11657093584E+02  0.72461691380E+02  0.70000157736E+02 0.  0.
        -12    1    1    2    0    0  0.11325069238E+02  0.93021293518E+01 -0.11657093584E+02  0.18726308620E+02  0.00000000000E+00 0.  1.
         11    1    3    3    0    0  0.68491655123E+01 -0.93079022125E+01  0.23870504695E+02  0.26520729750E+02  0.51100000000E-03 0. -1.
        -11    1    3    3    0    0 -0.88335215177E+01 -0.12950802224E+02 -0.22145235301E+02  0.27132376001E+02  0.51100000000E-03 0.  1.
        -12    1    3    3    0    0 -0.93407132326E+01  0.12956575085E+02  0.99318241892E+01  0.18808585629E+02  0.00000000000E+00 0.  1.
</event>
<event>
 7    1  0.1905073E-013  0.7246159E+02  0.7816164E-02  0.1226708E+00
        -11   -1    0    0    0    0  0.00000000000E+00  0.00000000000E+00  0.45593999997E+02  0.45594000000E+02  0.51100000000E-03 0. -1.
         11   -1    0    0    0    0 -0.00000000000E+00 -0.00000000000E+00 -0.45593999997E+02  0.45594000000E+02  0.51100000000E-03 0.  1.
    9900012    2    1    2    0    0 -0.13176306705E+02 -0.78650800939E+01  0.10733312957E+02  0.72461586828E+02  0.70000021538E+02 0.  0.
        -12    1    1    2    0    0  0.13176306705E+02  0.78650800939E+01 -0.10733312957E+02  0.18726413172E+02  0.00000000000E+00 0.  1.
         11    1    3    3    0    0 -0.33710697473E+02  0.10295499416E+02  0.86862198353E+01  0.36302325650E+02  0.51100000000E-03 0. -1.
        -11    1    3    3    0    0  0.11009608760E+02  0.38090319919E+01 -0.21559758413E+01  0.11847718846E+02  0.51100000000E-03 0.  1.
         12    1    3    3    0    0  0.95247820085E+01 -0.21969611502E+02  0.42030689630E+01  0.24311542332E+02  0.00000000000E+00 0. -1.
</event>
<event>
 7    1  0.1905073E-013  0.7246162E+02  0.7816164E-02  0.1226708E+00
        -11   -1    0    0    0    0  0.00000000000E+00  0.00000000000E+00  0.45593999997E+02  0.45594000000E+02  0.51100000000E-03 0.  1.
         11   -1    0    0    0    0 -0.00000000000E+00 -0.00000000000E+00 -0.45593999997E+02  0.45594000000E+02  0.51100000000E-03 0. -1.
    9900012    2    1    2    0    0  0.16449948974E+02  0.13847271127E-02  0.89485482631E+01  0.72461619165E+02  0.70000063663E+02 0.  0.
        -12    1    1    2    0    0 -0.16449948974E+02 -0.13847271127E-02 -0.89485482631E+01  0.18726380835E+02  0.00000000000E+00 0.  1.
         11    1    3    3    0    0  0.10816914481E+02 -0.10522578195E+02 -0.19736363492E+02  0.24844603738E+02  0.51100000000E-03 0. -1.
        -11    1    3    3    0    0  0.15097957562E+02 -0.75681185427E+00  0.29201609052E+02  0.32882443009E+02  0.51100000000E-03 0.  1.
         12    1    3    3    0    0 -0.94649230692E+01  0.11280774776E+02 -0.51669729689E+00  0.14734572418E+02  0.00000000000E+00 0. -1.
</event>
<event>
 7    1  0.1905073E-013  0.7246156E+02  0.7816164E-02  0.1226708E+00
        -11   -1    0    0    0    0  0.00000000000E+00  0.00000000000E+00  0.45593999997E+02  0.45594000000E+02  0.51100000000E-03 0.  1.
         11   -1    0    0    0    0 -0.00000000000E+00 -0.00000000000E+00 -0.45593999997E+02  0.45594000000E+02  0.51100000000E-03 0. -1.
    9900012    2    1    2    0    0  0.18245309968E+02  0.10920657377E+00 -0.42161774244E+01  0.72461563767E+02  0.69999991497E+02 0.  0.
        -12    1    1    2    0    0 -0.18245309968E+02 -0.10920657377E+00  0.42161774244E+01  0.18726436233E+02  0.00000000000E+00 0.  1.
         11    1    3    3    0    0 -0.54784836084E+00 -0.10951695506E+02 -0.38821217851E+01  0.11632310265E+02  0.51100000000E-03 0. -1.
        -11    1    3    3    0    0 -0.58626786608E+01  0.15353835538E+02  0.21880504716E+02  0.27365448173E+02  0.51100000000E-03 0.  1.
        -12    1    3    3    0    0  0.24655836990E+02 -0.42929334585E+01 -0.22214560355E+02  0.33463805329E+02  0.00000000000E+00 0.  1.
</event>
<event>
 7    1  0.1905073E-013  0.7246157E+02  0.7816164E-02  0.1226708E+00
        -11   -1    0    0    0    0  0.00000000000E+00  0.00000000000E+00  0.45593999997E+02  0.45594000000E+02  0.51100000000E-03 0. -1.
         11   -1    0    0    0    0 -0.00000000000E+00 -0.00000000000E+00 -0.45593999997E+02  0.45594000000E+02  0.51100000000E-03 0.  1.
    9900012    2    1    2    0    0 -0.18252418390E+02  0.34884527041E+01  0.23149342967E+01  0.72461574817E+02  0.70000005892E+02 0.  0.
        -12    1    1    2    0    0  0.18252418390E+02 -0.34884527041E+01 -0.23149342967E+01  0.18726425183E+02  0.00000000000E+00 0.  1.
         11    1    3    3    0    0 -0.15658991815E+02  0.15138998786E+02  0.93756224829E+00  0.21800741550E+02  0.51100000000E-03 0. -1.
        -11    1    3    3    0    0 -0.10164008214E+01 -0.15628132656E+02  0.23438127340E+02  0.28188959086E+02  0.51100000000E-03 0.  1.
        -12    1    3    3    0    0 -0.15770257537E+01  0.39775865738E+01 -0.22060755291E+02  0.22471874181E+02  0.00000000000E+00 0.  1.
</event>
<event>
 7    1  0.1905073E-013  0.7246159E+02  0.7816164E-02  0.1226708E+00
        -11   -1    0    0    0    0  0.00000000000E+00  0.00000000000E+00  0.45593999997E+02  0.45594000000E+02  0.51100000000E-03 0.  1.
         11   -1    0    0    0    0 -0.00000000000E+00 -0.00000000000E+00 -0.45593999997E+02  0.45594000000E+02  0.51100000000E-03 0. -1.
    9900012    2    1    2    0    0  0.47243528236E+01  0.97070908269E+01 -0.15301351212E+02  0.72461588950E+02  0.70000024302E+02 0.  0.
        -12    1    1    2    0    0 -0.47243528236E+01 -0.97070908269E+01  0.15301351212E+02  0.18726411050E+02  0.00000000000E+00 0.  1.
         11    1    3    3    0    0  0.11065467784E+02  0.93179697914E+01 -0.23201165242E+02  0.27341602132E+02  0.51100000000E-03 0. -1.
        -11    1    3    3    0    0  0.83545642796E+01  0.28440744355E+01  0.22555572084E+02  0.24220679924E+02  0.51100000000E-03 0.  1.
        -12    1    3    3    0    0 -0.14695679240E+02 -0.24549533999E+01 -0.14655758053E+02  0.20899306893E+02  0.00000000000E+00 0.  1.
</event>
<event>
 7    1  0.1905073E-013  0.7246159E+02  0.7816164E-02  0.1226708E+00
        -11   -1    0    0    0    0  0.00000000000E+00  0.00000000000E+00  0.45593999997E+02  0.45594000000E+02  0.51100000000E-03 0.  1.
         11   -1    0    0    0    0 -0.00000000000E+00 -0.00000000000E+00 -0.45593999997E+02  0.45594000000E+02  0.51100000000E-03 0. -1.
    9900012    2    1    2    0    0 -0.14742368981E+02  0.27541911549E+01 -0.11214079089E+02  0.72461585984E+02  0.70000020439E+02 0.  0.
        -12    1    1    2    0    0  0.14742368981E+02 -0.27541911549E+01  0.11214079089E+02  0.18726414016E+02  0.00000000000E+00 0.  1.
         11    1    3    3    0    0  0.34423845769E+01 -0.22826807676E+02  0.33660620178E+01  0.23329027713E+02  0.51100000000E-03 0.  1.
        -11    1    3    3    0    0 -0.87078971124E+01  0.29242213919E+02  0.10058125011E+01  0.30527793992E+02  0.51100000000E-03 0. -1.
         12    1    3    3    0    0 -0.94768564456E+01 -0.36612150876E+01 -0.15585953607E+02  0.18604764279E+02  0.00000000000E+00 0. -1.
</event>
<event>
 7    1  0.1905073E-013  0.7246158E+02  0.7816164E-02  0.1226708E+00
        -11   -1    0    0    0    0  0.00000000000E+00  0.00000000000E+00  0.45593999997E+02  0.45594000000E+02  0.51100000000E-03 0. -1.
         11   -1    0    0    0    0 -0.00000000000E+00 -0.00000000000E+00 -0.45593999997E+02  0.45594000000E+02  0.51100000000E-03 0.  1.
    9900012    2    1    2    0    0  0.18116011763E+02 -0.23626208177E+01 -0.41117872503E+01  0.72461584067E+02  0.70000017941E+02 0.  0.
        -12    1    1    2    0    0 -0.18116011763E+02  0.23626208177E+01  0.41117872503E+01  0.18726415933E+02  0.00000000000E+00 0.  1.
         11    1    3    3    0    0  0.33500490704E+02 -0.20597273616E+02  0.64829302206E+01  0.39856730202E+02  0.51100000000E-03 0. -1.
        -11    1    3    3    0    0 -0.88478925650E+01  0.17736670961E+02  0.37610945498E+00  0.19824635134E+02  0.51100000000E-03 0.  1.
         12    1    3    3    0    0 -0.65365863768E+01  0.49798183731E+00 -0.10970826926E+02  0.12780218731E+02  0.00000000000E+00 0. -1.
</event>
<event>
 7    1  0.1905073E-013  0.7246156E+02  0.7816164E-02  0.1226708E+00
        -11   -1    0    0    0    0  0.00000000000E+00  0.00000000000E+00  0.45593999997E+02  0.45594000000E+02  0.51100000000E-03 0.  1.
         11   -1    0    0    0    0 -0.00000000000E+00 -0.00000000000E+00 -0.45593999997E+02  0.45594000000E+02  0.51100000000E-03 0. -1.
    9900012    2    1    2    0    0 -0.29850399098E+00 -0.95458011629E+01 -0.16108009634E+02  0.72461564171E+02  0.69999992024E+02 0.  0.
        -12    1    1    2    0    0  0.29850399098E+00  0.95458011629E+01  0.16108009634E+02  0.18726435829E+02  0.00000000000E+00 0.  1.
         11    1    3    3    0    0 -0.18807828381E+02  0.12239935914E+02 -0.17974984988E+02  0.28751530832E+02  0.51100000000E-03 0. -1.
        -11    1    3    3    0    0  0.11617714686E+02 -0.16857640491E+02  0.16838016614E+02  0.26507926007E+02  0.51100000000E-03 0.  1.
         12    1    3    3    0    0  0.68916097042E+01 -0.49280965865E+01 -0.14971041260E+02  0.17202107332E+02  0.00000000000E+00 0. -1.
</event>
<event>
 7    1  0.1905073E-013  0.7246144E+02  0.7816164E-02  0.1226708E+00
        -11   -1    0    0    0    0  0.00000000000E+00  0.00000000000E+00  0.45593999997E+02  0.45594000000E+02  0.51100000000E-03 0. -1.
         11   -1    0    0    0    0 -0.00000000000E+00 -0.00000000000E+00 -0.45593999997E+02  0.45594000000E+02  0.51100000000E-03 0.  1.
    9900012    2    1    2    0    0 -0.17737425245E+02 -0.57117601721E+01 -0.18556552848E+01  0.72461443586E+02  0.69999834938E+02 0.  0.
        -12    1    1    2    0    0  0.17737425245E+02  0.57117601721E+01  0.18556552848E+01  0.18726556414E+02  0.00000000000E+00 0.  1.
         11    1    3    3    0    0 -0.13730265693E+02 -0.15740664512E+02 -0.15372213991E+02  0.25934411089E+02  0.51100000000E-03 0. -1.
        -11    1    3    3    0    0  0.81006034185E+01 -0.89783295612E+01  0.19738213271E+02  0.23147942476E+02  0.51100000000E-03 0.  1.
         12    1    3    3    0    0 -0.12107762971E+02  0.19007233901E+02 -0.62216545648E+01  0.23379090022E+02  0.00000000000E+00 0. -1.
</event>
<event>
 7    1  0.1905073E-013  0.7246200E+02  0.7816164E-02  0.1226707E+00
        -11   -1    0    0    0    0  0.00000000000E+00  0.00000000000E+00  0.45593999997E+02  0.45594000000E+02  0.51100000000E-03 0. -1.
         11   -1    0    0    0    0 -0.00000000000E+00 -0.00000000000E+00 -0.45593999997E+02  0.45594000000E+02  0.51100000000E-03 0.  1.
    9900012    2    1    2    0    0 -0.18124439244E+02  0.38045161647E+01 -0.27737361254E+01  0.72461995268E+02  0.70000553604E+02 0.  0.
        -12    1    1    2    0    0  0.18124439244E+02 -0.38045161647E+01  0.27737361254E+01  0.18726004732E+02  0.00000000000E+00 0.  1.
         11    1    3    3    0    0  0.13674916184E+02  0.38074229125E+01  0.13430995716E+02  0.19542043088E+02  0.51100000000E-03 0. -1.
        -11    1    3    3    0    0 -0.76363678531E+01 -0.78112261082E+01 -0.23990015226E+02  0.26360011345E+02  0.51100000000E-03 0.  1.
         12    1    3    3    0    0 -0.24162987574E+02  0.78083193604E+01  0.77852833849E+01  0.26559940834E+02  0.00000000000E+00 0. -1.
</event>
<event>
 7    1  0.1905073E-013  0.7246154E+02  0.7816164E-02  0.1226708E+00
        -11   -1    0    0    0    0  0.00000000000E+00  0.00000000000E+00  0.45593999997E+02  0.45594000000E+02  0.51100000000E-03 0.  1.
         11   -1    0    0    0    0 -0.00000000000E+00 -0.00000000000E+00 -0.45593999997E+02  0.45594000000E+02  0.51100000000E-03 0. -1.
    9900012    2    1    2    0    0 -0.14828075190E+02  0.11318442290E+02  0.16435588528E+01  0.72461541835E+02  0.69999962927E+02 0.  0.
        -12    1    1    2    0    0  0.14828075190E+02 -0.11318442290E+02 -0.16435588528E+01  0.18726458165E+02  0.00000000000E+00 0.  1.
         11    1    3    3    0    0 -0.27510024293E+02  0.13276769119E+02  0.16358226621E+02  0.34650622120E+02  0.51100000000E-03 0. -1.
        -11    1    3    3    0    0  0.13789784551E+02 -0.81344681904E+01  0.52771515578E+01  0.16857522343E+02  0.51100000000E-03 0.  1.
         12    1    3    3    0    0 -0.11078354477E+01  0.61761413609E+01 -0.19991819326E+02  0.20953397373E+02  0.00000000000E+00 0. -1.
</event>
<event>
 7    1  0.1905073E-013  0.7246154E+02  0.7816164E-02  0.1226708E+00
        -11   -1    0    0    0    0  0.00000000000E+00  0.00000000000E+00  0.45593999997E+02  0.45594000000E+02  0.51100000000E-03 0. -1.
         11   -1    0    0    0    0 -0.00000000000E+00 -0.00000000000E+00 -0.45593999997E+02  0.45594000000E+02  0.51100000000E-03 0.  1.
    9900012    2    1    2    0    0 -0.43872907038E+01  0.89963459953E+01 -0.15827116238E+02  0.72461543597E+02  0.69999965222E+02 0.  0.
        -12    1    1    2    0    0  0.43872907038E+01 -0.89963459953E+01  0.15827116238E+02  0.18726456403E+02  0.00000000000E+00 0.  1.
         11    1    3    3    0    0  0.13855808563E+02 -0.75259030354E+01  0.20904717388E+01  0.15905744868E+02  0.51100000000E-03 0. -1.
        -11    1    3    3    0    0 -0.24415324180E+02 -0.21705086096E+01  0.63374611079E+01  0.25317633696E+02  0.51100000000E-03 0.  1.
        -12    1    3    3    0    0  0.61722249125E+01  0.18692757640E+02 -0.24255049085E+02  0.31238165034E+02  0.00000000000E+00 0.  1.
</event>
<event>
 7    1  0.1905073E-013  0.7246157E+02  0.7816164E-02  0.1226708E+00
        -11   -1    0    0    0    0  0.00000000000E+00  0.00000000000E+00  0.45593999997E+02  0.45594000000E+02  0.51100000000E-03 0.  1.
         11   -1    0    0    0    0 -0.00000000000E+00 -0.00000000000E+00 -0.45593999997E+02  0.45594000000E+02  0.51100000000E-03 0. -1.
    9900012    2    1    2    0    0  0.15055332079E+02  0.11101734886E+02 -0.87610604082E+00  0.72461572063E+02  0.70000002304E+02 0.  0.
        -12    1    1    2    0    0 -0.15055332079E+02 -0.11101734886E+02  0.87610604082E+00  0.18726427937E+02  0.00000000000E+00 0.  1.
         11    1    3    3    0    0  0.28364065821E+02  0.11629402814E+02 -0.84264829155E+01  0.31792591185E+02  0.51100000000E-03 0. -1.
        -11    1    3    3    0    0 -0.10425820519E+02  0.18179773103E+02  0.52227850995E+01  0.21598133439E+02  0.51100000000E-03 0.  1.
         12    1    3    3    0    0 -0.28829132226E+01 -0.18707441031E+02  0.23275917751E+01  0.19070847439E+02  0.00000000000E+00 0. -1.
</event>
<event>
 7    1  0.1905073E-013  0.7246151E+02  0.7816164E-02  0.1226708E+00
        -11   -1    0    0    0    0  0.00000000000E+00  0.00000000000E+00  0.45593999997E+02  0.45594000000E+02  0.51100000000E-03 0.  1.
         11   -1    0    0    0    0 -0.00000000000E+00 -0.00000000000E+00 -0.45593999997E+02  0.45594000000E+02  0.51100000000E-03 0. -1.
    9900012    2    1    2    0    0 -0.16290729768E+02  0.92035973075E+01 -0.76642369638E+00  0.72461508469E+02  0.69999919461E+02 0.  0.
        -12    1    1    2    0    0  0.16290729768E+02 -0.92035973075E+01  0.76642369638E+00  0.18726491531E+02  0.00000000000E+00 0.  1.
         11    1    3    3    0    0 -0.21323572237E+02 -0.13914043796E+02 -0.18094787304E+01  0.25525860636E+02  0.51100000000E-03 0. -1.
        -11    1    3    3    0    0  0.22863208508E+02  0.11486863399E+02 -0.49875784324E+00  0.25591465251E+02  0.51100000000E-03 0.  1.
         12    1    3    3    0    0 -0.17830366040E+02  0.11630777705E+02  0.15418128773E+01  0.21344182582E+02  0.00000000000E+00 0. -1.
</event>
<event>
 7    1  0.1905073E-013  0.7246157E+02  0.7816164E-02  0.1226708E+00
        -11   -1    0    0    0    0  0.00000000000E+00  0.00000000000E+00  0.45593999997E+02  0.45594000000E+02  0.51100000000E-03 0.  1.
         11   -1    0    0    0    0 -0.00000000000E+00 -0.00000000000E+00 -0.45593999997E+02  0.45594000000E+02  0.51100000000E-03 0. -1.
    9900012    2    1    2    0    0 -0.88257203637E+01 -0.94841633118E+01 -0.13521704673E+02  0.72461569723E+02  0.69999999256E+02 0.  0.
        -12    1    1    2    0    0  0.88257203637E+01  0.94841633118E+01  0.13521704673E+02  0.18726430277E+02  0.00000000000E+00 0.  1.
         11    1    3    3    0    0  0.22672206407E+02  0.53385242680E+01  0.10276607600E+02  0.25458543728E+02  0.51100000000E-03 0. -1.
        -11    1    3    3    0    0 -0.27816659731E+02 -0.28141612740E+01 -0.15841728120E+02  0.32134816202E+02  0.51100000000E-03 0.  1.
         12    1    3    3    0    0 -0.36812670401E+01 -0.12008526306E+02 -0.79565841533E+01  0.14868209793E+02  0.00000000000E+00 0. -1.
</event>
<event>
 7    1  0.1905073E-013  0.7246159E+02  0.7816164E-02  0.1226708E+00
        -11   -1    0    0    0    0  0.00000000000E+00  0.00000000000E+00  0.45593999997E+02  0.45594000000E+02  0.51100000000E-03 0. -1.
         11   -1    0    0    0    0 -0.00000000000E+00 -0.00000000000E+00 -0.45593999997E+02  0.45594000000E+02  0.51100000000E-03 0.  1.
    9900012    2    1    2    0    0  0.78361265468E+01 -0.66203069061E+01  0.15666691289E+02  0.72461586603E+02  0.70000021245E+02 0.  0.
        -12    1    1    2    0    0 -0.78361265468E+01  0.66203069061E+01 -0.15666691289E+02  0.18726413397E+02  0.00000000000E+00 0.  1.
         11    1    3    3    0    0 -0.74032542313E+01 -0.15515101554E+01  0.25737500958E+02  0.26826000686E+02  0.51100000000E-03 0. -1.
        -11    1    3    3    0    0  0.50655808427E+01  0.17215556421E+02 -0.11128509817E+02  0.21115852414E+02  0.51100000000E-03 0.  1.
        -12    1    3    3    0    0  0.10173799935E+02 -0.22284353172E+02  0.10577001470E+01  0.24519733502E+02  0.00000000000E+00 0.  1.
</event>
<event>
 7    1  0.1905073E-013  0.7246154E+02  0.7816164E-02  0.1226708E+00
        -11   -1    0    0    0    0  0.00000000000E+00  0.00000000000E+00  0.45593999997E+02  0.45594000000E+02  0.51100000000E-03 0.  1.
         11   -1    0    0    0    0 -0.00000000000E+00 -0.00000000000E+00 -0.45593999997E+02  0.45594000000E+02  0.51100000000E-03 0. -1.
    9900012    2    1    2    0    0 -0.14612111525E+01  0.17412846198E+02  0.67333598335E+01  0.72461535161E+02  0.69999954232E+02 0.  0.
        -12    1    1    2    0    0  0.14612111525E+01 -0.17412846198E+02 -0.67333598335E+01  0.18726464839E+02  0.00000000000E+00 0.  1.
         11    1    3    3    0    0  0.97374927860E+01  0.25332506100E+01 -0.20484419150E+02  0.22822084755E+02  0.51100000000E-03 0. -1.
        -11    1    3    3    0    0 -0.14401058126E+02  0.18750168133E+02  0.17787394929E+01  0.23709137365E+02  0.51100000000E-03 0.  1.
        -12    1    3    3    0    0  0.32023541878E+01 -0.38705725451E+01  0.25439039490E+02  0.25930313040E+02  0.00000000000E+00 0.  1.
</event>
<event>
 7    1  0.1905073E-013  0.7246160E+02  0.7816164E-02  0.1226708E+00
        -11   -1    0    0    0    0  0.00000000000E+00  0.00000000000E+00  0.45593999997E+02  0.45594000000E+02  0.51100000000E-03 0. -1.
         11   -1    0    0    0    0 -0.00000000000E+00 -0.00000000000E+00 -0.45593999997E+02  0.45594000000E+02  0.51100000000E-03 0.  1.
    9900012    2    1    2    0    0  0.80566369520E+01 -0.68427653493E+01  0.15457850255E+02  0.72461602292E+02  0.70000041683E+02 0.  0.
        -12    1    1    2    0    0 -0.80566369520E+01  0.68427653493E+01 -0.15457850255E+02  0.18726397708E+02  0.00000000000E+00 0.  1.
         11    1    3    3    0    0 -0.17318036183E+01 -0.23699128766E+01  0.21363556981E+02  0.21564257417E+02  0.51100000000E-03 0. -1.
        -11    1    3    3    0    0 -0.10654366865E+02 -0.18239302786E+02 -0.13546991634E+02  0.25093996931E+02  0.51100000000E-03 0.  1.
        -12    1    3    3    0    0  0.20442807435E+02  0.13766450313E+02  0.76412849079E+01  0.25803347943E+02  0.00000000000E+00 0.  1.
</event>
<event>
 7    1  0.1905073E-013  0.7246155E+02  0.7816164E-02  0.1226708E+00
        -11   -1    0    0    0    0  0.00000000000E+00  0.00000000000E+00  0.45593999997E+02  0.45594000000E+02  0.51100000000E-03 0. -1.
         11   -1    0    0    0    0 -0.00000000000E+00 -0.00000000000E+00 -0.45593999997E+02  0.45594000000E+02  0.51100000000E-03 0.  1.
    9900012    2    1    2    0    0 -0.91585238121E+01 -0.21035032725E+01  0.16198041314E+02  0.72461552744E+02  0.69999977137E+02 0.  0.
        -12    1    1    2    0    0  0.91585238121E+01  0.21035032725E+01 -0.16198041314E+02  0.18726447256E+02  0.00000000000E+00 0.  1.
         11    1    3    3    0    0  0.18947573348E+02  0.47197720604E+00  0.91026423397E+00  0.18975296559E+02  0.51100000000E-03 0. -1.
        -11    1    3    3    0    0 -0.23025992387E+02 -0.13148068587E+02  0.26336552136E+02  0.37372209082E+02  0.51100000000E-03 0.  1.
        -12    1    3    3    0    0 -0.50801047731E+01  0.10572588108E+02 -0.11048775056E+02  0.16114047104E+02  0.00000000000E+00 0.  1.
</event>
<event>
 7    1  0.1905073E-013  0.7246163E+02  0.7816164E-02  0.1226708E+00
        -11   -1    0    0    0    0  0.00000000000E+00  0.00000000000E+00  0.45593999997E+02  0.45594000000E+02  0.51100000000E-03 0. -1.
         11   -1    0    0    0    0 -0.00000000000E+00 -0.00000000000E+00 -0.45593999997E+02  0.45594000000E+02  0.51100000000E-03 0.  1.
    9900012    2    1    2    0    0  0.10651535609E+02 -0.16323434624E+01  0.15315260812E+02  0.72461629029E+02  0.70000076513E+02 0.  0.
        -12    1    1    2    0    0 -0.10651535609E+02  0.16323434624E+01 -0.15315260812E+02  0.18726370971E+02  0.00000000000E+00 0.  1.
         11    1    3    3    0    0  0.25074788690E+02  0.49132119068E+01  0.26140305834E+02  0.36554073213E+02  0.51100000000E-03 0. -1.
        -11    1    3    3    0    0 -0.81400043910E+01 -0.10743140474E+02  0.79642009237E+01  0.15655773227E+02  0.51100000000E-03 0.  1.
         12    1    3    3    0    0 -0.62832486900E+01  0.41975851043E+01 -0.18789245946E+02  0.20251782589E+02  0.00000000000E+00 0. -1.
</event>
<event>
 7    1  0.1905073E-013  0.7246159E+02  0.7816164E-02  0.1226708E+00
        -11   -1    0    0    0    0  0.00000000000E+00  0.00000000000E+00  0.45593999997E+02  0.45594000000E+02  0.51100000000E-03 0. -1.
         11   -1    0    0    0    0 -0.00000000000E+00 -0.00000000000E+00 -0.45593999997E+02  0.45594000000E+02  0.51100000000E-03 0.  1.
    9900012    2    1    2    0    0  0.96170331335E+01 -0.62752792655E+01  0.14792288877E+02  0.72461594409E+02  0.70000031413E+02 0.  0.
        -12    1    1    2    0    0 -0.96170331335E+01  0.62752792655E+01 -0.14792288877E+02  0.18726405591E+02  0.00000000000E+00 0.  1.
         11    1    3    3    0    0 -0.64293161309E+01  0.76592375858E+01  0.82726664622E+01  0.12978329514E+02  0.51100000000E-03 0. -1.
        -11    1    3    3    0    0  0.35456451423E+02 -0.17203776160E+02  0.34298625264E+01  0.39558738843E+02  0.51100000000E-03 0.  1.
        -12    1    3    3    0    0 -0.19410102158E+02  0.32692593091E+01  0.30897598883E+01  0.19924526052E+02  0.00000000000E+00 0.  1.
</event>
<event>
 7    1  0.1905073E-013  0.7246154E+02  0.7816164E-02  0.1226708E+00
        -11   -1    0    0    0    0  0.00000000000E+00  0.00000000000E+00  0.45593999997E+02  0.45594000000E+02  0.51100000000E-03 0. -1.
         11   -1    0    0    0    0 -0.00000000000E+00 -0.00000000000E+00 -0.45593999997E+02  0.45594000000E+02  0.51100000000E-03 0.  1.
    9900012    2    1    2    0    0  0.13614996912E+02 -0.11768429659E+02  0.51784269197E+01  0.72461543236E+02  0.69999964752E+02 0.  0.
        -12    1    1    2    0    0 -0.13614996912E+02  0.11768429659E+02 -0.51784269197E+01  0.18726456764E+02  0.00000000000E+00 0.  1.
         11    1    3    3    0    0 -0.60023513119E+01  0.18946303980E+02  0.16453424446E+02  0.25801275783E+02  0.51100000000E-03 0. -1.
        -11    1    3    3    0    0  0.21977893270E+02 -0.26078201965E+02  0.15195633811E+00  0.34104596484E+02  0.51100000000E-03 0.  1.
        -12    1    3    3    0    0 -0.23605450459E+01 -0.46365316740E+01 -0.11426953864E+02  0.12555670969E+02  0.00000000000E+00 0.  1.
</event>
<event>
 7    1  0.1905073E-013  0.7246157E+02  0.7816164E-02  0.1226708E+00
        -11   -1    0    0    0    0  0.00000000000E+00  0.00000000000E+00  0.45593999997E+02  0.45594000000E+02  0.51100000000E-03 0. -1.
         11   -1    0    0    0    0 -0.00000000000E+00 -0.00000000000E+00 -0.45593999997E+02  0.45594000000E+02  0.51100000000E-03 0.  1.
    9900012    2    1    2    0    0 -0.10920162167E+02 -0.94102277059E+01  0.11953108618E+02  0.72461571273E+02  0.70000001275E+02 0.  0.
        -12    1    1    2    0    0  0.10920162167E+02  0.94102277059E+01 -0.11953108618E+02  0.18726428727E+02  0.00000000000E+00 0.  1.
         11    1    3    3    0    0 -0.18853635209E+02  0.12334695440E+02  0.22003578043E+02  0.31492248556E+02  0.51100000000E-03 0. -1.
        -11    1    3    3    0    0  0.77210626228E+01 -0.22819869144E+02  0.60442442066E+01  0.24837353403E+02  0.51100000000E-03 0.  1.
        -12    1    3    3    0    0  0.21241041984E+00  0.10749459981E+01 -0.16094713631E+02  0.16131969314E+02  0.00000000000E+00 0.  1.
</event>
<event>
 7    1  0.1905073E-013  0.7246158E+02  0.7816164E-02  0.1226708E+00
        -11   -1    0    0    0    0  0.00000000000E+00  0.00000000000E+00  0.45593999997E+02  0.45594000000E+02  0.51100000000E-03 0. -1.
         11   -1    0    0    0    0 -0.00000000000E+00 -0.00000000000E+00 -0.45593999997E+02  0.45594000000E+02  0.51100000000E-03 0.  1.
    9900012    2    1    2    0    0 -0.10907077817E+02  0.15131596442E+02  0.16580433366E+01  0.72461583762E+02  0.70000017544E+02 0.  0.
        -12    1    1    2    0    0  0.10907077817E+02 -0.15131596442E+02 -0.16580433366E+01  0.18726416238E+02  0.00000000000E+00 0.  1.
         11    1    3    3    0    0  0.12131791917E+02 -0.37713582565E+01  0.12206944273E+02  0.17618541568E+02  0.51100000000E-03 0. -1.
        -11    1    3    3    0    0 -0.70077861078E+01  0.50083175475E+01 -0.26780250460E+02  0.28131372625E+02  0.51100000000E-03 0.  1.
        -12    1    3    3    0    0 -0.16031083627E+02  0.13894637151E+02  0.16231349524E+02  0.26711669569E+02  0.00000000000E+00 0.  1.
</event>
<event>
 7    1  0.1905073E-013  0.7246159E+02  0.7816164E-02  0.1226708E+00
        -11   -1    0    0    0    0  0.00000000000E+00  0.00000000000E+00  0.45593999997E+02  0.45594000000E+02  0.51100000000E-03 0.  1.
         11   -1    0    0    0    0 -0.00000000000E+00 -0.00000000000E+00 -0.45593999997E+02  0.45594000000E+02  0.51100000000E-03 0. -1.
    9900012    2    1    2    0    0 -0.12004489152E+02  0.72144829863E+01 -0.12430685420E+02  0.72461589117E+02  0.70000024520E+02 0.  0.
        -12    1    1    2    0    0  0.12004489152E+02 -0.72144829863E+01  0.12430685420E+02  0.18726410883E+02  0.00000000000E+00 0.  1.
         11    1    3    3    0    0  0.64873238952E+01  0.32150614916E+02 -0.12918553172E+02  0.35251048596E+02  0.51100000000E-03 0. -1.
        -11    1    3    3    0    0 -0.56846436246E+01 -0.10513225767E+02  0.10110953688E+02  0.15654854643E+02  0.51100000000E-03 0.  1.
         12    1    3    3    0    0 -0.12807169422E+02 -0.14422906162E+02 -0.96230859351E+01  0.21555685878E+02  0.00000000000E+00 0. -1.
</event>
<event>
 7    1  0.1905073E-013  0.7246157E+02  0.7816164E-02  0.1226708E+00
        -11   -1    0    0    0    0  0.00000000000E+00  0.00000000000E+00  0.45593999997E+02  0.45594000000E+02  0.51100000000E-03 0.  1.
         11   -1    0    0    0    0 -0.00000000000E+00 -0.00000000000E+00 -0.45593999997E+02  0.45594000000E+02  0.51100000000E-03 0. -1.
    9900012    2    1    2    0    0  0.60108013701E+01 -0.15907991138E+02 -0.78412593708E+01  0.72461567780E+02  0.69999996725E+02 0.  0.
        -12    1    1    2    0    0 -0.60108013701E+01  0.15907991138E+02  0.78412593708E+01  0.18726432220E+02  0.00000000000E+00 0.  1.
         11    1    3    3    0    0  0.82631829201E+01 -0.29963997992E+02 -0.13674602182E+02  0.33957563410E+02  0.51100000000E-03 0. -1.
        -11    1    3    3    0    0 -0.88684382552E+01  0.17499476345E+02  0.16399906125E+02  0.25570252064E+02  0.51100000000E-03 0.  1.
        -12    1    3    3    0    0  0.66160567053E+01 -0.34434694911E+01 -0.10566563313E+02  0.12933752306E+02  0.00000000000E+00 0.  1.
</event>
<event>
 7    1  0.1905073E-013  0.7246156E+02  0.7816164E-02  0.1226708E+00
        -11   -1    0    0    0    0  0.00000000000E+00  0.00000000000E+00  0.45593999997E+02  0.45594000000E+02  0.51100000000E-03 0. -1.
         11   -1    0    0    0    0 -0.00000000000E+00 -0.00000000000E+00 -0.45593999997E+02  0.45594000000E+02  0.51100000000E-03 0.  1.
    9900012    2    1    2    0    0  0.62983855942E+01 -0.45738747787E+01  0.17032012771E+02  0.72461562789E+02  0.69999990223E+02 0.  0.
        -12    1    1    2    0    0 -0.62983855942E+01  0.45738747787E+01 -0.17032012771E+02  0.18726437211E+02  0.00000000000E+00 0.  1.
         11    1    3    3    0    0  0.98554127535E+01 -0.14015401280E+01  0.21905642084E+02  0.24061392949E+02  0.51100000000E-03 0. -1.
        -11    1    3    3    0    0 -0.21508311197E+02 -0.92889601759E+01 -0.14064322937E+02  0.27325764612E+02  0.51100000000E-03 0.  1.
        -12    1    3    3    0    0  0.17951284038E+02  0.61166255252E+01  0.91906936235E+01  0.21074405228E+02  0.00000000000E+00 0.  1.
</event>
<event>
 7    1  0.1905073E-013  0.7246157E+02  0.7816164E-02  0.1226708E+00
        -11   -1    0    0    0    0  0.00000000000E+00  0.00000000000E+00  0.45593999997E+02  0.45594000000E+02  0.51100000000E-03 0.  1.
         11   -1    0    0    0    0 -0.00000000000E+00 -0.00000000000E+00 -0.45593999997E+02  0.45594000000E+02  0.51100000000E-03 0. -1.
    9900012    2    1    2    0    0  0.20773162187E+01  0.10613811011E+02 -0.15287606501E+02  0.72461571098E+02  0.70000001048E+02 0.  0.
        -12    1    1    2    0    0 -0.20773162187E+01 -0.10613811011E+02  0.15287606501E+02  0.18726428902E+02  0.00000000000E+00 0.  1.
         11    1    3    3    0    0  0.19461946010E+02  0.21703704730E+02 -0.27364719815E+02  0.39983071822E+02  0.51100000000E-03 0. -1.
        -11    1    3    3    0    0 -0.17592715453E+02 -0.13245187280E+02  0.19331529514E+01  0.22106010578E+02  0.51100000000E-03 0.  1.
        -12    1    3    3    0    0  0.20808566111E+00  0.21552935613E+01  0.10143960362E+02  0.10372488699E+02  0.00000000000E+00 0.  1.
</event>
<event>
 7    1  0.1905073E-013  0.7246157E+02  0.7816164E-02  0.1226708E+00
        -11   -1    0    0    0    0  0.00000000000E+00  0.00000000000E+00  0.45593999997E+02  0.45594000000E+02  0.51100000000E-03 0.  1.
         11   -1    0    0    0    0 -0.00000000000E+00 -0.00000000000E+00 -0.45593999997E+02  0.45594000000E+02  0.51100000000E-03 0. -1.
    9900012    2    1    2    0    0 -0.16066054659E+02 -0.18400120993E+00  0.96190976300E+01  0.72461574608E+02  0.70000005619E+02 0.  0.
        -12    1    1    2    0    0  0.16066054659E+02  0.18400120993E+00 -0.96190976300E+01  0.18726425392E+02  0.00000000000E+00 0.  1.
         11    1    3    3    0    0 -0.11731909843E+02 -0.61377160816E+00 -0.17261223245E+02  0.20879756999E+02  0.51100000000E-03 0. -1.
        -11    1    3    3    0    0  0.17735951827E+02 -0.89914610318E+01  0.14252882432E+02  0.24465384047E+02  0.51100000000E-03 0.  1.
         12    1    3    3    0    0 -0.22070096643E+02  0.94212314300E+01  0.12627438443E+02  0.27116433562E+02  0.00000000000E+00 0. -1.
</event>
<event>
 7    1  0.1905073E-013  0.7246143E+02  0.7816164E-02  0.1226708E+00
        -11   -1    0    0    0    0  0.00000000000E+00  0.00000000000E+00  0.45593999997E+02  0.45594000000E+02  0.51100000000E-03 0. -1.
         11   -1    0    0    0    0 -0.00000000000E+00 -0.00000000000E+00 -0.45593999997E+02  0.45594000000E+02  0.51100000000E-03 0.  1.
    9900012    2    1    2    0    0  0.56604213262E+01 -0.12898012790E+02  0.12340401370E+02  0.72461425046E+02  0.69999810787E+02 0.  0.
        -12    1    1    2    0    0 -0.56604213262E+01  0.12898012790E+02 -0.12340401370E+02  0.18726574954E+02  0.00000000000E+00 0.  1.
         11    1    3    3    0    0  0.55459455333E+01 -0.56907495496E+01  0.30570178041E+02  0.31586040082E+02  0.51100000000E-03 0. -1.
        -11    1    3    3    0    0 -0.12389182972E+02 -0.47718154174E+01 -0.23578541436E+02  0.27059373489E+02  0.51100000000E-03 0.  1.
        -12    1    3    3    0    0  0.12503658765E+02 -0.24354478234E+01  0.53487647640E+01  0.13816011476E+02  0.00000000000E+00 0.  1.
</event>
<event>
 7    1  0.1905073E-013  0.7246158E+02  0.7816164E-02  0.1226708E+00
        -11   -1    0    0    0    0  0.00000000000E+00  0.00000000000E+00  0.45593999997E+02  0.45594000000E+02  0.51100000000E-03 0.  1.
         11   -1    0    0    0    0 -0.00000000000E+00 -0.00000000000E+00 -0.45593999997E+02  0.45594000000E+02  0.51100000000E-03 0. -1.
    9900012    2    1    2    0    0 -0.52278131331E+01  0.10836260489E+02  0.14350057980E+02  0.72461581880E+02  0.70000015093E+02 0.  0.
        -12    1    1    2    0    0  0.52278131331E+01 -0.10836260489E+02 -0.14350057980E+02  0.18726418120E+02  0.00000000000E+00 0.  1.
         11    1    3    3    0    0  0.13134192401E+02 -0.22316173402E+02  0.70053502229E+01  0.26825240676E+02  0.51100000000E-03 0.  1.
        -11    1    3    3    0    0 -0.24375210973E+02  0.25874909024E+02  0.67004205149E+01  0.36173988753E+02  0.51100000000E-03 0. -1.
        -12    1    3    3    0    0  0.60132054392E+01  0.72775248676E+01  0.64428724239E+00  0.94623524508E+01  0.00000000000E+00 0.  1.
</event>
<event>
 7    1  0.1905073E-013  0.7246156E+02  0.7816164E-02  0.1226708E+00
        -11   -1    0    0    0    0  0.00000000000E+00  0.00000000000E+00  0.45593999997E+02  0.45594000000E+02  0.51100000000E-03 0.  1.
         11   -1    0    0    0    0 -0.00000000000E+00 -0.00000000000E+00 -0.45593999997E+02  0.45594000000E+02  0.51100000000E-03 0. -1.
    9900012    2    1    2    0    0 -0.52359106563E+01  0.17503519285E+02  0.41099461492E+01  0.72461558664E+02  0.69999984849E+02 0.  0.
        -12    1    1    2    0    0  0.52359106563E+01 -0.17503519285E+02 -0.41099461492E+01  0.18726441336E+02  0.00000000000E+00 0.  1.
         11    1    3    3    0    0 -0.97800391279E+00 -0.17396783614E+02  0.11014460835E+02  0.20613658567E+02  0.51100000000E-03 0. -1.
        -11    1    3    3    0    0  0.10030276702E+02  0.27714862224E+02  0.74023161050E+01  0.30389378453E+02  0.51100000000E-03 0.  1.
         12    1    3    3    0    0 -0.14288183445E+02  0.71854406752E+01 -0.14306830791E+02  0.21458521644E+02  0.00000000000E+00 0. -1.
</event>
<event>
 7    1  0.1905073E-013  0.7246153E+02  0.7816164E-02  0.1226708E+00
        -11   -1    0    0    0    0  0.00000000000E+00  0.00000000000E+00  0.45593999997E+02  0.45594000000E+02  0.51100000000E-03 0.  1.
         11   -1    0    0    0    0 -0.00000000000E+00 -0.00000000000E+00 -0.45593999997E+02  0.45594000000E+02  0.51100000000E-03 0. -1.
    9900012    2    1    2    0    0 -0.29966774950E+01 -0.14944936978E+02 -0.10878852678E+02  0.72461530689E+02  0.69999948406E+02 0.  0.
        -12    1    1    2    0    0  0.29966774950E+01  0.14944936978E+02  0.10878852678E+02  0.18726469311E+02  0.00000000000E+00 0.  1.
         11    1    3    3    0    0  0.88087177676E+01 -0.16604238713E+02  0.21265475110E+02  0.28381590580E+02  0.51100000000E-03 0.  1.
        -11    1    3    3    0    0 -0.13858711630E+02  0.68479958781E+01 -0.48210087486E+01  0.16192623666E+02  0.51100000000E-03 0. -1.
         12    1    3    3    0    0  0.20533163671E+01 -0.51886941428E+01 -0.27323319039E+02  0.27887316442E+02  0.00000000000E+00 0. -1.
</event>
<event>
 7    1  0.1905073E-013  0.7246161E+02  0.7816164E-02  0.1226708E+00
        -11   -1    0    0    0    0  0.00000000000E+00  0.00000000000E+00  0.45593999997E+02  0.45594000000E+02  0.51100000000E-03 0.  1.
         11   -1    0    0    0    0 -0.00000000000E+00 -0.00000000000E+00 -0.45593999997E+02  0.45594000000E+02  0.51100000000E-03 0. -1.
    9900012    2    1    2    0    0  0.72097139663E+01 -0.52750801384E+01 -0.16458170907E+02  0.72461605912E+02  0.70000046399E+02 0.  0.
        -12    1    1    2    0    0 -0.72097139663E+01  0.52750801384E+01  0.16458170907E+02  0.18726394088E+02  0.00000000000E+00 0.  1.
         11    1    3    3    0    0 -0.55033573838E+01 -0.14115836668E+02  0.18167017608E+02  0.23655534582E+02  0.51100000000E-03 0. -1.
        -11    1    3    3    0    0  0.14020946321E+01  0.13598473050E+02 -0.18326423368E+01  0.13792857458E+02  0.51100000000E-03 0.  1.
         12    1    3    3    0    0  0.11310976718E+02 -0.47577165209E+01 -0.32792546178E+02  0.35013213872E+02  0.00000000000E+00 0. -1.
</event>
<event>
 7    1  0.1905073E-013  0.7246156E+02  0.7816164E-02  0.1226708E+00
        -11   -1    0    0    0    0  0.00000000000E+00  0.00000000000E+00  0.45593999997E+02  0.45594000000E+02  0.51100000000E-03 0.  1.
         11   -1    0    0    0    0 -0.00000000000E+00 -0.00000000000E+00 -0.45593999997E+02  0.45594000000E+02  0.51100000000E-03 0. -1.
    9900012    2    1    2    0    0  0.16634382771E+02  0.67329167835E+01 -0.53520884302E+01  0.72461555886E+02  0.69999981230E+02 0.  0.
        -12    1    1    2    0    0 -0.16634382771E+02 -0.67329167835E+01  0.53520884302E+01  0.18726444114E+02  0.00000000000E+00 0.  1.
         11    1    3    3    0    0 -0.10137709662E+02 -0.31517865760E+01 -0.27236291372E+02  0.29232216539E+02  0.51100000000E-03 0. -1.
        -11    1    3    3    0    0  0.60091704931E+01  0.11960645586E+02  0.17285427396E+02  0.21862140183E+02  0.51100000000E-03 0.  1.
        -12    1    3    3    0    0  0.20762921940E+02 -0.20759422264E+01  0.45987755456E+01  0.21367199164E+02  0.00000000000E+00 0.  1.
</event>
<event>
 7    1  0.1905073E-013  0.7246147E+02  0.7816164E-02  0.1226708E+00
        -11   -1    0    0    0    0  0.00000000000E+00  0.00000000000E+00  0.45593999997E+02  0.45594000000E+02  0.51100000000E-03 0.  1.
         11   -1    0    0    0    0 -0.00000000000E+00 -0.00000000000E+00 -0.45593999997E+02  0.45594000000E+02  0.51100000000E-03 0. -1.
    9900012    2    1    2    0    0 -0.56414969364E+01  0.15183621431E+02 -0.93975660672E+01  0.72461465472E+02  0.69999863449E+02 0.  0.
        -12    1    1    2    0    0  0.56414969364E+01 -0.15183621431E+02  0.93975660672E+01  0.18726534528E+02  0.00000000000E+00 0.  1.
         11    1    3    3    0    0 -0.13647327520E+02 -0.18366587016E+02 -0.23458599970E+02  0.32770214828E+02  0.51100000000E-03 0. -1.
        -11    1    3    3    0    0  0.53838468412E+01  0.36407421320E+01  0.53803803413E+01  0.84373753596E+01  0.51100000000E-03 0.  1.
         12    1    3    3    0    0  0.26219837424E+01  0.29909466316E+02  0.86806535611E+01  0.31253875284E+02  0.00000000000E+00 0. -1.
</event>
<event>
 7    1  0.1905073E-013  0.7246162E+02  0.7816164E-02  0.1226708E+00
        -11   -1    0    0    0    0  0.00000000000E+00  0.00000000000E+00  0.45593999997E+02  0.45594000000E+02  0.51100000000E-03 0. -1.
         11   -1    0    0    0    0 -0.00000000000E+00 -0.00000000000E+00 -0.45593999997E+02  0.45594000000E+02  0.51100000000E-03 0.  1.
    9900012    2    1    2    0    0  0.17371617952E+02  0.69927758072E+01 -0.72430441768E-01  0.72461621014E+02  0.70000066072E+02 0.  0.
        -12    1    1    2    0    0 -0.17371617952E+02 -0.69927758072E+01  0.72430441768E-01  0.18726378986E+02  0.00000000000E+00 0.  1.
         11    1    3    3    0    0 -0.16314924364E+02 -0.84205880380E+01  0.28269280335E+01  0.18576183200E+02  0.51100000000E-03 0. -1.
        -11    1    3    3    0    0  0.32129407055E+02  0.25949583137E+02  0.35203407639E+01  0.41449637659E+02  0.51100000000E-03 0.  1.
        -12    1    3    3    0    0  0.15571352614E+01 -0.10536219291E+02 -0.64196992392E+01  0.12435800155E+02  0.00000000000E+00 0.  1.
</event>
<event>
 7    1  0.1905073E-013  0.7246168E+02  0.7816164E-02  0.1226708E+00
        -11   -1    0    0    0    0  0.00000000000E+00  0.00000000000E+00  0.45593999997E+02  0.45594000000E+02  0.51100000000E-03 0. -1.
         11   -1    0    0    0    0 -0.00000000000E+00 -0.00000000000E+00 -0.45593999997E+02  0.45594000000E+02  0.51100000000E-03 0.  1.
    9900012    2    1    2    0    0  0.18021078794E+02  0.29086327215E+01 -0.41779977161E+01  0.72461679215E+02  0.70000141889E+02 0.  0.
        -12    1    1    2    0    0 -0.18021078794E+02 -0.29086327215E+01  0.41779977161E+01  0.18726320785E+02  0.00000000000E+00 0.  1.
         11    1    3    3    0    0 -0.19398330266E+02  0.93948899932E+01 -0.65276828154E+01  0.22520431130E+02  0.51100000000E-03 0. -1.
        -11    1    3    3    0    0  0.34501941490E+02  0.24256106329E+01 -0.84844573095E+01  0.35612547924E+02  0.51100000000E-03 0.  1.
         12    1    3    3    0    0  0.29174675699E+01 -0.89118679046E+01  0.10834142409E+02  0.14328700161E+02  0.00000000000E+00 0. -1.
</event>
<event>
 7    1  0.1905073E-013  0.7246160E+02  0.7816164E-02  0.1226708E+00
        -11   -1    0    0    0    0  0.00000000000E+00  0.00000000000E+00  0.45593999997E+02  0.45594000000E+02  0.51100000000E-03 0.  1.
         11   -1    0    0    0    0 -0.00000000000E+00 -0.00000000000E+00 -0.45593999997E+02  0.45594000000E+02  0.51100000000E-03 0. -1.
    9900012    2    1    2    0    0 -0.27275981430E+00  0.17576288283E+02  0.64558384669E+01  0.72461597301E+02  0.70000035182E+02 0.  0.
        -12    1    1    2    0    0  0.27275981430E+00 -0.17576288283E+02 -0.64558384669E+01  0.18726402699E+02  0.00000000000E+00 0.  1.
         11    1    3    3    0    0 -0.55595034417E+01 -0.18017866146E+02  0.12768710547E+02  0.22772605215E+02  0.51100000000E-03 0.  1.
        -11    1    3    3    0    0  0.14712532666E+02  0.36460722793E+02 -0.78674890721E+01  0.40096637124E+02  0.51100000000E-03 0. -1.
         12    1    3    3    0    0 -0.94257890391E+01 -0.86656836393E+00  0.15546169916E+01  0.95923549626E+01  0.00000000000E+00 0. -1.
</event>
<event>
 7    1  0.1905073E-013  0.7246156E+02  0.7816164E-02  0.1226708E+00
        -11   -1    0    0    0    0  0.00000000000E+00  0.00000000000E+00  0.45593999997E+02  0.45594000000E+02  0.51100000000E-03 0. -1.
         11   -1    0    0    0    0 -0.00000000000E+00 -0.00000000000E+00 -0.45593999997E+02  0.45594000000E+02  0.51100000000E-03 0.  1.
    9900012    2    1    2    0    0 -0.60026323059E+00  0.17910369608E+02  0.54348841778E+01  0.72461558227E+02  0.69999984280E+02 0.  0.
        -12    1    1    2    0    0  0.60026323059E+00 -0.17910369608E+02 -0.54348841778E+01  0.18726441773E+02  0.00000000000E+00 0.  1.
         11    1    3    3    0    0 -0.13643954897E+02  0.21654201779E+01 -0.14252134708E+02  0.19848674862E+02  0.51100000000E-03 0.  1.
        -11    1    3    3    0    0 -0.88547514814E+01  0.72825838869E+01  0.25903379683E+02  0.28327155366E+02  0.51100000000E-03 0. -1.
        -12    1    3    3    0    0  0.21898443148E+02  0.84623655434E+01 -0.62163607964E+01  0.24285727999E+02  0.00000000000E+00 0.  1.
</event>
<event>
 7    1  0.1905073E-013  0.7246158E+02  0.7816164E-02  0.1226708E+00
        -11   -1    0    0    0    0  0.00000000000E+00  0.00000000000E+00  0.45593999997E+02  0.45594000000E+02  0.51100000000E-03 0.  1.
         11   -1    0    0    0    0 -0.00000000000E+00 -0.00000000000E+00 -0.45593999997E+02  0.45594000000E+02  0.51100000000E-03 0. -1.
    9900012    2    1    2    0    0  0.11611039647E+02  0.11026041534E+02 -0.97102469297E+01  0.72461582056E+02  0.70000015322E+02 0.  0.
        -12    1    1    2    0    0 -0.11611039647E+02 -0.11026041534E+02  0.97102469297E+01  0.18726417944E+02  0.00000000000E+00 0.  1.
         11    1    3    3    0    0  0.12815721067E+01  0.35337064428E+02  0.10303517162E+02  0.36830870416E+02  0.51100000000E-03 0.  1.
        -11    1    3    3    0    0  0.25792916055E+01 -0.17784717952E+02 -0.17729292718E+02  0.25244341116E+02  0.51100000000E-03 0. -1.
        -12    1    3    3    0    0  0.77501759345E+01 -0.65263049416E+01 -0.22844713733E+01  0.10386370524E+02  0.00000000000E+00 0.  1.
</event>
<event>
 7    1  0.1905073E-013  0.7246156E+02  0.7816164E-02  0.1226708E+00
        -11   -1    0    0    0    0  0.00000000000E+00  0.00000000000E+00  0.45593999997E+02  0.45594000000E+02  0.51100000000E-03 0.  1.
         11   -1    0    0    0    0 -0.00000000000E+00 -0.00000000000E+00 -0.45593999997E+02  0.45594000000E+02  0.51100000000E-03 0. -1.
    9900012    2    1    2    0    0  0.17370443109E+02  0.66974914685E+01  0.20225627564E+01  0.72461562915E+02  0.69999990388E+02 0.  0.
        -12    1    1    2    0    0 -0.17370443109E+02 -0.66974914685E+01 -0.20225627564E+01  0.18726437085E+02  0.00000000000E+00 0.  1.
         11    1    3    3    0    0 -0.11287977776E+02 -0.12158701391E+02  0.13616294383E+02  0.21462896700E+02  0.51100000000E-03 0. -1.
        -11    1    3    3    0    0  0.24856041783E+02 -0.41450421370E+00  0.49144035879E+01  0.25340599633E+02  0.51100000000E-03 0.  1.
         12    1    3    3    0    0  0.38023791016E+01  0.19270697073E+02 -0.16508135214E+02  0.25658066583E+02  0.00000000000E+00 0. -1.
</event>
<event>
 7    1  0.1905073E-013  0.7246161E+02  0.7816164E-02  0.1226708E+00
        -11   -1    0    0    0    0  0.00000000000E+00  0.00000000000E+00  0.45593999997E+02  0.45594000000E+02  0.51100000000E-03 0.  1.
         11   -1    0    0    0    0 -0.00000000000E+00 -0.00000000000E+00 -0.45593999997E+02  0.45594000000E+02  0.51100000000E-03 0. -1.
    9900012    2    1    2    0    0 -0.37133777476E+01  0.18186456149E+02 -0.24781681135E+01  0.72461610098E+02  0.70000051852E+02 0.  0.
        -12    1    1    2    0    0  0.37133777476E+01 -0.18186456149E+02  0.24781681135E+01  0.18726389902E+02  0.00000000000E+00 0.  1.
         11    1    3    3    0    0  0.17708649434E+02 -0.90194341381E+01  0.77689563292E+01  0.21337833528E+02  0.51100000000E-03 0.  1.
        -11    1    3    3    0    0 -0.47773125460E+01  0.22782921907E+02  0.93040355804E+01  0.25068891561E+02  0.51100000000E-03 0. -1.
        -12    1    3    3    0    0 -0.16644714636E+02  0.44229683804E+01 -0.19551160023E+02  0.26054885009E+02  0.00000000000E+00 0.  1.
</event>
<event>
 8    1  0.1905073E-013  0.7246140E+02  0.7816164E-02  0.1226708E+00
        -11   -1    0    0    0    0  0.00000000000E+00  0.00000000000E+00  0.45593999997E+02  0.45594000000E+02  0.51100000000E-03 0. -1.
         11   -1    0    0    0    0 -0.00000000000E+00 -0.00000000000E+00 -0.45593999997E+02  0.45594000000E+02  0.51100000000E-03 0.  1.
    9900012    2    1    2    0    0  0.39318799671E+01  0.14899051818E+02  0.10641618706E+02  0.72461401968E+02  0.69999780724E+02 0.  0.
        -24    2    3    3    0    0  0.76024854490E+01 -0.36957749090E+00  0.13428883304E+02  0.56512319556E+02  0.54363342266E+02 0.  0.
        -12    1    1    2    0    0 -0.39318799671E+01 -0.14899051818E+02 -0.10641618706E+02  0.18726598032E+02  0.00000000000E+00 0.  1.
         11    1    4    4    0    0 -0.16150290752E+02 -0.93606294454E+01  0.22777021426E+02  0.29449040397E+02  0.51100000000E-03 0. -1.
        -11    1    3    3    0    0 -0.36706054819E+01  0.15268629309E+02 -0.27872645977E+01  0.15949082412E+02  0.51100000000E-03 0.  1.
        -12    1    4    4    0    0  0.23752776201E+02  0.89910519545E+01 -0.93481381219E+01  0.27063279159E+02  0.00000000000E+00 0.  1.
</event>
<event>
 7    1  0.1905073E-013  0.7246162E+02  0.7816164E-02  0.1226708E+00
        -11   -1    0    0    0    0  0.00000000000E+00  0.00000000000E+00  0.45593999997E+02  0.45594000000E+02  0.51100000000E-03 0.  1.
         11   -1    0    0    0    0 -0.00000000000E+00 -0.00000000000E+00 -0.45593999997E+02  0.45594000000E+02  0.51100000000E-03 0. -1.
    9900012    2    1    2    0    0  0.18021739246E+02 -0.11569065462E+01  0.49553960197E+01  0.72461615728E+02  0.70000059185E+02 0.  0.
        -12    1    1    2    0    0 -0.18021739246E+02  0.11569065462E+01 -0.49553960197E+01  0.18726384272E+02  0.00000000000E+00 0.  1.
         11    1    3    3    0    0  0.75787031352E+01 -0.49837777394E+01 -0.36137433336E+01  0.97639092022E+01  0.51100000000E-03 0. -1.
        -11    1    3    3    0    0  0.22460574428E+02  0.17332652371E+02  0.25338966223E+02  0.38038946507E+02  0.51100000000E-03 0.  1.
        -12    1    3    3    0    0 -0.12017538318E+02 -0.13505781177E+02 -0.16769826869E+02  0.24658760019E+02  0.00000000000E+00 0.  1.
</event>
<event>
 7    1  0.1905073E-013  0.7246157E+02  0.7816164E-02  0.1226708E+00
        -11   -1    0    0    0    0  0.00000000000E+00  0.00000000000E+00  0.45593999997E+02  0.45594000000E+02  0.51100000000E-03 0.  1.
         11   -1    0    0    0    0 -0.00000000000E+00 -0.00000000000E+00 -0.45593999997E+02  0.45594000000E+02  0.51100000000E-03 0. -1.
    9900012    2    1    2    0    0  0.15498380917E+02  0.89640523603E+01 -0.54886254395E+01  0.72461573353E+02  0.70000003984E+02 0.  0.
        -12    1    1    2    0    0 -0.15498380917E+02 -0.89640523603E+01  0.54886254395E+01  0.18726426647E+02  0.00000000000E+00 0.  1.
         11    1    3    3    0    0  0.96737271370E+01 -0.34991587567E+01 -0.13224692347E+02  0.16754629111E+02  0.51100000000E-03 0. -1.
        -11    1    3    3    0    0  0.25680317370E+02 -0.85971273062E+00  0.16161438057E+02  0.30354734170E+02  0.51100000000E-03 0.  1.
        -12    1    3    3    0    0 -0.19855663591E+02  0.13322923848E+02 -0.84253711496E+01  0.25352210071E+02  0.00000000000E+00 0.  1.
</event>
<event>
 7    1  0.1905073E-013  0.7246158E+02  0.7816164E-02  0.1226708E+00
        -11   -1    0    0    0    0  0.00000000000E+00  0.00000000000E+00  0.45593999997E+02  0.45594000000E+02  0.51100000000E-03 0. -1.
         11   -1    0    0    0    0 -0.00000000000E+00 -0.00000000000E+00 -0.45593999997E+02  0.45594000000E+02  0.51100000000E-03 0.  1.
    9900012    2    1    2    0    0 -0.45014024433E-02  0.18725771789E+02  0.15574176085E+00  0.72461580031E+02  0.70000012684E+02 0.  0.
        -12    1    1    2    0    0  0.45014024433E-02 -0.18725771789E+02 -0.15574176085E+00  0.18726419969E+02  0.00000000000E+00 0.  1.
         11    1    3    3    0    0  0.20110221701E+02  0.36144123960E+02  0.15138504972E+01  0.41389738550E+02  0.51100000000E-03 0. -1.
        -11    1    3    3    0    0 -0.53041127963E+01 -0.10491797395E+02  0.59341264857E+01  0.13169103331E+02  0.51100000000E-03 0.  1.
         12    1    3    3    0    0 -0.14810610307E+02 -0.69265547756E+01 -0.72922352220E+01  0.17902738150E+02  0.00000000000E+00 0. -1.
</event>
<event>
 7    1  0.1905073E-013  0.7246154E+02  0.7816164E-02  0.1226708E+00
        -11   -1    0    0    0    0  0.00000000000E+00  0.00000000000E+00  0.45593999997E+02  0.45594000000E+02  0.51100000000E-03 0. -1.
         11   -1    0    0    0    0 -0.00000000000E+00 -0.00000000000E+00 -0.45593999997E+02  0.45594000000E+02  0.51100000000E-03 0.  1.
    9900012    2    1    2    0    0 -0.78649030390E+01  0.16770333261E+02 -0.27531209270E+01  0.72461536043E+02  0.69999955381E+02 0.  0.
        -12    1    1    2    0    0  0.78649030390E+01 -0.16770333261E+02  0.27531209270E+01  0.18726463957E+02  0.00000000000E+00 0.  1.
         11    1    3    3    0    0  0.26387177104E+01  0.55720385072E+01  0.48763294014E+01  0.78606000390E+01  0.51100000000E-03 0. -1.
        -11    1    3    3    0    0 -0.68714659101E+01 -0.18478365874E+02 -0.23562554419E+02  0.30722321204E+02  0.51100000000E-03 0.  1.
        -12    1    3    3    0    0 -0.36321548394E+01  0.29676660628E+02  0.15933104091E+02  0.33878614800E+02  0.00000000000E+00 0.  1.
</event>
<event>
 7    1  0.2701988E-013  0.7246165E+02  0.7816164E-02  0.1226708E+00
        -11   -1    0    0    0    0  0.00000000000E+00  0.00000000000E+00  0.45593999997E+02  0.45594000000E+02  0.51100000000E-03 0. -1.
         11   -1    0    0    0    0 -0.00000000000E+00 -0.00000000000E+00 -0.45593999997E+02  0.45594000000E+02  0.51100000000E-03 0.  1.
    9900012    2    1    2    0    0  0.40945021882E+01  0.99825390550E+01  0.15305559518E+02  0.72461649947E+02  0.70000103762E+02 0.  0.
        -12    1    1    2    0    0 -0.40945021882E+01 -0.99825390550E+01 -0.15305559518E+02  0.18726350053E+02  0.00000000000E+00 0.  1.
         11    1    3    3    0    0  0.20807942469E+02  0.10154594246E+02  0.29379537350E+02  0.37406462934E+02  0.51100000000E-03 0. -1.
        -11    1    3    3    0    0  0.17833242297E+00  0.55296452524E+01 -0.16183176057E+02  0.17102747341E+02  0.51100000000E-03 0.  1.
         12    1    3    3    0    0 -0.16891772704E+02 -0.57017004432E+01  0.21091982247E+01  0.17952439672E+02  0.00000000000E+00 0. -1.
</event>
<event>
 7    1  0.1905073E-013  0.7246164E+02  0.7816164E-02  0.1226708E+00
        -11   -1    0    0    0    0  0.00000000000E+00  0.00000000000E+00  0.45593999997E+02  0.45594000000E+02  0.51100000000E-03 0. -1.
         11   -1    0    0    0    0 -0.00000000000E+00 -0.00000000000E+00 -0.45593999997E+02  0.45594000000E+02  0.51100000000E-03 0.  1.
    9900012    2    1    2    0    0 -0.36878414522E+01 -0.97623550221E+01  0.15549042234E+02  0.72461642518E+02  0.70000094085E+02 0.  0.
        -12    1    1    2    0    0  0.36878414522E+01  0.97623550221E+01 -0.15549042234E+02  0.18726357482E+02  0.00000000000E+00 0.  1.
         11    1    3    3    0    0 -0.19627396544E+02  0.26195837553E+01  0.50402779377E+01  0.20432848947E+02  0.51100000000E-03 0.  1.
        -11    1    3    3    0    0  0.31927453876E+02 -0.26970192779E+01  0.89698341658E+01  0.33273024347E+02  0.51100000000E-03 0. -1.
         12    1    3    3    0    0 -0.15987898784E+02 -0.96849194995E+01  0.15389301303E+01  0.18755769224E+02  0.00000000000E+00 0. -1.
</event>
<event>
 7    1  0.1905073E-013  0.7246157E+02  0.7816164E-02  0.1226708E+00
        -11   -1    0    0    0    0  0.00000000000E+00  0.00000000000E+00  0.45593999997E+02  0.45594000000E+02  0.51100000000E-03 0. -1.
         11   -1    0    0    0    0 -0.00000000000E+00 -0.00000000000E+00 -0.45593999997E+02  0.45594000000E+02  0.51100000000E-03 0.  1.
    9900012    2    1    2    0    0  0.12483489181E+01  0.11052045555E+02  0.15065626370E+02  0.72461569910E+02  0.69999999499E+02 0.  0.
        -12    1    1    2    0    0 -0.12483489181E+01 -0.11052045555E+02 -0.15065626370E+02  0.18726430090E+02  0.00000000000E+00 0.  1.
         11    1    3    3    0    0 -0.48794886327E+01 -0.10828237652E+01  0.15708089518E+02  0.16484113358E+02  0.51100000000E-03 0. -1.
        -11    1    3    3    0    0  0.19921453516E+02  0.25994600304E+02  0.92942453207E+01  0.34043597805E+02  0.51100000000E-03 0.  1.
        -12    1    3    3    0    0 -0.13793615965E+02 -0.13859730984E+02 -0.99367084688E+01  0.21933858747E+02  0.00000000000E+00 0.  1.
</event>
<event>
 7    1  0.1905073E-013  0.7246125E+02  0.7816164E-02  0.1226709E+00
        -11   -1    0    0    0    0  0.00000000000E+00  0.00000000000E+00  0.45593999997E+02  0.45594000000E+02  0.51100000000E-03 0.  1.
         11   -1    0    0    0    0 -0.00000000000E+00 -0.00000000000E+00 -0.45593999997E+02  0.45594000000E+02  0.51100000000E-03 0. -1.
    9900012    2    1    2    0    0  0.41423704320E+01  0.18233298064E+02 -0.10385781686E+01  0.72461253468E+02  0.69999587273E+02 0.  0.
        -12    1    1    2    0    0 -0.41423704320E+01 -0.18233298064E+02  0.10385781686E+01  0.18726746532E+02  0.00000000000E+00 0.  1.
         11    1    3    3    0    0  0.11274294833E+02  0.19611823344E+02 -0.28740179962E+02  0.36575009000E+02  0.51100000000E-03 0. -1.
        -11    1    3    3    0    0 -0.71681286944E+01  0.81252883142E+01  0.64584333828E+01  0.12614029538E+02  0.51100000000E-03 0.  1.
         12    1    3    3    0    0  0.36204293693E-01 -0.95038135943E+01  0.21243168411E+02  0.23272214929E+02  0.00000000000E+00 0. -1.
</event>
<event>
 7    1  0.1905073E-013  0.7246156E+02  0.7816164E-02  0.1226708E+00
        -11   -1    0    0    0    0  0.00000000000E+00  0.00000000000E+00  0.45593999997E+02  0.45594000000E+02  0.51100000000E-03 0. -1.
         11   -1    0    0    0    0 -0.00000000000E+00 -0.00000000000E+00 -0.45593999997E+02  0.45594000000E+02  0.51100000000E-03 0.  1.
    9900012    2    1    2    0    0  0.14509905223E+02  0.51620472171E+01 -0.10653417340E+02  0.72461564619E+02  0.69999992607E+02 0.  0.
        -12    1    1    2    0    0 -0.14509905223E+02 -0.51620472171E+01  0.10653417340E+02  0.18726435381E+02  0.00000000000E+00 0.  1.
         11    1    3    3    0    0 -0.14627948372E+02 -0.80780302016E+00 -0.45081115354E+01  0.15328160006E+02  0.51100000000E-03 0. -1.
        -11    1    3    3    0    0  0.13430040583E+02 -0.19458806099E+02  0.67398564742E+01  0.24585296224E+02  0.51100000000E-03 0.  1.
        -12    1    3    3    0    0  0.15707813012E+02  0.25428656337E+02 -0.12885162279E+02  0.32548108389E+02  0.00000000000E+00 0.  1.
</event>
<event>
 7    1  0.1905073E-013  0.7246157E+02  0.7816164E-02  0.1226708E+00
        -11   -1    0    0    0    0  0.00000000000E+00  0.00000000000E+00  0.45593999997E+02  0.45594000000E+02  0.51100000000E-03 0. -1.
         11   -1    0    0    0    0 -0.00000000000E+00 -0.00000000000E+00 -0.45593999997E+02  0.45594000000E+02  0.51100000000E-03 0.  1.
    9900012    2    1    2    0    0  0.15687475670E+02  0.76018261035E+01  0.68406515338E+01  0.72461570377E+02  0.70000000108E+02 0.  0.
        -12    1    1    2    0    0 -0.15687475670E+02 -0.76018261035E+01 -0.68406515338E+01  0.18726429623E+02  0.00000000000E+00 0.  1.
         11    1    3    3    0    0 -0.24878151209E+02  0.40294283056E+01 -0.73179400859E+01  0.26243302906E+02  0.51100000000E-03 0. -1.
        -11    1    3    3    0    0  0.16232971725E+02 -0.23901071280E+01 -0.18126849924E+01  0.16507810583E+02  0.51100000000E-03 0.  1.
         12    1    3    3    0    0  0.24332655154E+02  0.59625049259E+01  0.15971276612E+02  0.29710456888E+02  0.00000000000E+00 0. -1.
</event>
<event>
 7    1  0.1905073E-013  0.7246155E+02  0.7816164E-02  0.1226708E+00
        -11   -1    0    0    0    0  0.00000000000E+00  0.00000000000E+00  0.45593999997E+02  0.45594000000E+02  0.51100000000E-03 0.  1.
         11   -1    0    0    0    0 -0.00000000000E+00 -0.00000000000E+00 -0.45593999997E+02  0.45594000000E+02  0.51100000000E-03 0. -1.
    9900012    2    1    2    0    0  0.35426787328E+01 -0.15764315555E+02 -0.94665510512E+01  0.72461553292E+02  0.69999977851E+02 0.  0.
        -12    1    1    2    0    0 -0.35426787328E+01  0.15764315555E+02  0.94665510512E+01  0.18726446708E+02  0.00000000000E+00 0.  1.
         11    1    3    3    0    0 -0.12732061915E+01 -0.21729043761E+02  0.15036272649E+01  0.21818187184E+02  0.51100000000E-03 0.  1.
        -11    1    3    3    0    0 -0.16199936116E+01  0.23010356421E+02  0.79286542174E+01  0.24391892913E+02  0.51100000000E-03 0. -1.
        -12    1    3    3    0    0  0.64358785359E+01 -0.17045628214E+02 -0.18898832533E+02  0.26251473194E+02  0.00000000000E+00 0.  1.
</event>
<event>
 7    1  0.1905073E-013  0.7246154E+02  0.7816164E-02  0.1226708E+00
        -11   -1    0    0    0    0  0.00000000000E+00  0.00000000000E+00  0.45593999997E+02  0.45594000000E+02  0.51100000000E-03 0.  1.
         11   -1    0    0    0    0 -0.00000000000E+00 -0.00000000000E+00 -0.45593999997E+02  0.45594000000E+02  0.51100000000E-03 0. -1.
    9900012    2    1    2    0    0 -0.98194286211E+01 -0.77037985740E+01 -0.13961043928E+02  0.72461536413E+02  0.69999955863E+02 0.  0.
        -12    1    1    2    0    0  0.98194286211E+01  0.77037985740E+01  0.13961043928E+02  0.18726463587E+02  0.00000000000E+00 0.  1.
         11    1    3    3    0    0  0.48575508991E+01  0.22273690827E+02 -0.11148655416E+02  0.25377265842E+02  0.51100000000E-03 0. -1.
        -11    1    3    3    0    0 -0.16365911340E+01 -0.10797233416E+02  0.14492601309E+02  0.18146464475E+02  0.51100000000E-03 0.  1.
         12    1    3    3    0    0 -0.13040388386E+02 -0.19180255984E+02 -0.17304989822E+02  0.28937806096E+02  0.00000000000E+00 0. -1.
</event>
<event>
 8    1  0.1905073E-013  0.7246151E+02  0.7816164E-02  0.1226708E+00
        -11   -1    0    0    0    0  0.00000000000E+00  0.00000000000E+00  0.45593999997E+02  0.45594000000E+02  0.51100000000E-03 0. -1.
         11   -1    0    0    0    0 -0.00000000000E+00 -0.00000000000E+00 -0.45593999997E+02  0.45594000000E+02  0.51100000000E-03 0.  1.
    9900012    2    1    2    0    0 -0.17097057635E+02  0.14423089241E+00 -0.76387873481E+01  0.72461514626E+02  0.69999927481E+02 0.  0.
         24    2    3    3    0    0 -0.20926288844E+02  0.66039554766E+01 -0.17978761529E+02  0.59682386342E+02  0.52509328511E+02 0.  0.
        -12    1    1    2    0    0  0.17097057635E+02 -0.14423089241E+00  0.76387873481E+01  0.18726485374E+02  0.00000000000E+00 0.  1.
         11    1    3    3    0    0  0.38292312090E+01 -0.64597245842E+01  0.10339974181E+02  0.12779128283E+02  0.51100000000E-03 0. -1.
        -11    1    4    4    0    0 -0.34377546022E+02 -0.95967794499E+01 -0.13462367081E+02  0.38146417577E+02  0.51100000000E-03 0.  1.
         12    1    4    4    0    0  0.13451257178E+02  0.16200734927E+02 -0.45163944485E+01  0.21535968765E+02  0.00000000000E+00 0. -1.
</event>
<event>
 7    1  0.1905073E-013  0.7246144E+02  0.7816164E-02  0.1226708E+00
        -11   -1    0    0    0    0  0.00000000000E+00  0.00000000000E+00  0.45593999997E+02  0.45594000000E+02  0.51100000000E-03 0. -1.
         11   -1    0    0    0    0 -0.00000000000E+00 -0.00000000000E+00 -0.45593999997E+02  0.45594000000E+02  0.51100000000E-03 0.  1.
    9900012    2    1    2    0    0  0.16379264897E+02  0.38508910807E+00  0.90694883384E+01  0.72461435155E+02  0.69999823955E+02 0.  0.
        -12    1    1    2    0    0 -0.16379264897E+02 -0.38508910807E+00 -0.90694883384E+01  0.18726564845E+02  0.00000000000E+00 0.  1.
         11    1    3    3    0    0 -0.94192403254E+01  0.58401136874E+01 -0.40447658994E+01  0.11797845042E+02  0.51100000000E-03 0. -1.
        -11    1    3    3    0    0  0.40570085547E+02 -0.11793164690E+02  0.46703369846E+01  0.42506736202E+02  0.51100000000E-03 0.  1.
        -12    1    3    3    0    0 -0.14771580325E+02  0.63381401105E+01  0.84439172532E+01  0.18156853911E+02  0.00000000000E+00 0.  1.
</event>
<event>
 7    1  0.1905073E-013  0.7246162E+02  0.7816164E-02  0.1226708E+00
        -11   -1    0    0    0    0  0.00000000000E+00  0.00000000000E+00  0.45593999997E+02  0.45594000000E+02  0.51100000000E-03 0. -1.
         11   -1    0    0    0    0 -0.00000000000E+00 -0.00000000000E+00 -0.45593999997E+02  0.45594000000E+02  0.51100000000E-03 0.  1.
    9900012    2    1    2    0    0 -0.11019154779E+02 -0.25401865862E+01  0.14926588507E+02  0.72461618491E+02  0.70000062785E+02 0.  0.
        -12    1    1    2    0    0  0.11019154779E+02  0.25401865862E+01 -0.14926588507E+02  0.18726381509E+02  0.00000000000E+00 0.  1.
         11    1    3    3    0    0 -0.11017573927E+01  0.12224867134E+02 -0.21499590730E+02  0.24756688947E+02  0.51100000000E-03 0.  1.
        -11    1    3    3    0    0 -0.14704435100E+02 -0.90736766982E+01  0.36372329712E+02  0.40267833185E+02  0.51100000000E-03 0. -1.
        -12    1    3    3    0    0  0.47870377135E+01 -0.56913770224E+01  0.53849525585E-01  0.74370963590E+01  0.00000000000E+00 0.  1.
</event>
<event>
 7    1  0.1905073E-013  0.7246157E+02  0.7816164E-02  0.1226708E+00
        -11   -1    0    0    0    0  0.00000000000E+00  0.00000000000E+00  0.45593999997E+02  0.45594000000E+02  0.51100000000E-03 0. -1.
         11   -1    0    0    0    0 -0.00000000000E+00 -0.00000000000E+00 -0.45593999997E+02  0.45594000000E+02  0.51100000000E-03 0.  1.
    9900012    2    1    2    0    0 -0.10513645170E+02  0.15461935014E+02  0.10349477274E+01  0.72461567186E+02  0.69999995951E+02 0.  0.
        -12    1    1    2    0    0  0.10513645170E+02 -0.15461935014E+02 -0.10349477274E+01  0.18726432814E+02  0.00000000000E+00 0.  1.
         11    1    3    3    0    0 -0.32333015468E+02  0.14731782741E+01 -0.20265280692E+02  0.38187376779E+02  0.51100000000E-03 0. -1.
        -11    1    3    3    0    0  0.96743092463E+01  0.34351950671E+01  0.51824856957E+01  0.11500042730E+02  0.51100000000E-03 0.  1.
         12    1    3    3    0    0  0.12145061051E+02  0.10553561673E+02  0.16117742724E+02  0.22774147677E+02  0.00000000000E+00 0. -1.
</event>
<event>
 7    1  0.1905073E-013  0.7246153E+02  0.7816164E-02  0.1226708E+00
        -11   -1    0    0    0    0  0.00000000000E+00  0.00000000000E+00  0.45593999997E+02  0.45594000000E+02  0.51100000000E-03 0.  1.
         11   -1    0    0    0    0 -0.00000000000E+00 -0.00000000000E+00 -0.45593999997E+02  0.45594000000E+02  0.51100000000E-03 0. -1.
    9900012    2    1    2    0    0  0.26068047398E+01 -0.10679215682E+02 -0.15160464229E+02  0.72461527983E+02  0.69999944882E+02 0.  0.
        -12    1    1    2    0    0 -0.26068047398E+01  0.10679215682E+02  0.15160464229E+02  0.18726472017E+02  0.00000000000E+00 0.  1.
         11    1    3    3    0    0  0.22628143439E+02  0.65513508147E+01 -0.24445154383E+02  0.33948765015E+02  0.51100000000E-03 0. -1.
        -11    1    3    3    0    0 -0.11447370897E+02 -0.14586103921E+01  0.15668653575E+02  0.19459613301E+02  0.51100000000E-03 0.  1.
         12    1    3    3    0    0 -0.85739678024E+01 -0.15771956105E+02 -0.63839634210E+01  0.19053149667E+02  0.00000000000E+00 0. -1.
</event>
<event>
 7    1  0.1905073E-013  0.7246157E+02  0.7816164E-02  0.1226708E+00
        -11   -1    0    0    0    0  0.00000000000E+00  0.00000000000E+00  0.45593999997E+02  0.45594000000E+02  0.51100000000E-03 0. -1.
         11   -1    0    0    0    0 -0.00000000000E+00 -0.00000000000E+00 -0.45593999997E+02  0.45594000000E+02  0.51100000000E-03 0.  1.
    9900012    2    1    2    0    0 -0.46943837446E+01  0.56890851424E+01  0.17212679745E+02  0.72461567545E+02  0.69999996419E+02 0.  0.
        -12    1    1    2    0    0  0.46943837446E+01 -0.56890851424E+01 -0.17212679745E+02  0.18726432455E+02  0.00000000000E+00 0.  1.
         11    1    3    3    0    0 -0.17773807880E+02  0.23330937847E+01 -0.85491900594E+01  0.19860519231E+02  0.51100000000E-03 0. -1.
        -11    1    3    3    0    0  0.85633872978E+01 -0.55396999361E+01  0.36526904186E+02  0.37924063694E+02  0.51100000000E-03 0.  1.
        -12    1    3    3    0    0  0.45160368380E+01  0.88956912937E+01 -0.10765034382E+02  0.14676984621E+02  0.00000000000E+00 0.  1.
</event>
<event>
 7    1  0.1905073E-013  0.7246161E+02  0.7816164E-02  0.1226708E+00
        -11   -1    0    0    0    0  0.00000000000E+00  0.00000000000E+00  0.45593999997E+02  0.45594000000E+02  0.51100000000E-03 0. -1.
         11   -1    0    0    0    0 -0.00000000000E+00 -0.00000000000E+00 -0.45593999997E+02  0.45594000000E+02  0.51100000000E-03 0.  1.
    9900012    2    1    2    0    0  0.27437304586E+01 -0.17189336706E+02  0.69048096077E+01  0.72461608225E+02  0.70000049411E+02 0.  0.
        -12    1    1    2    0    0 -0.27437304586E+01  0.17189336706E+02 -0.69048096077E+01  0.18726391775E+02  0.00000000000E+00 0.  1.
         11    1    3    3    0    0  0.54786627044E+01 -0.98300140301E+01  0.21825721425E+02  0.24556201596E+02  0.51100000000E-03 0. -1.
        -11    1    3    3    0    0 -0.91480627400E+01 -0.25010986637E+02 -0.10386199134E+02  0.28585129651E+02  0.51100000000E-03 0.  1.
        -12    1    3    3    0    0  0.64131304942E+01  0.17651663962E+02 -0.45347126833E+01  0.19320276977E+02  0.00000000000E+00 0.  1.
</event>
<event>
 7    1  0.1905073E-013  0.7246155E+02  0.7816164E-02  0.1226708E+00
        -11   -1    0    0    0    0  0.00000000000E+00  0.00000000000E+00  0.45593999997E+02  0.45594000000E+02  0.51100000000E-03 0. -1.
         11   -1    0    0    0    0 -0.00000000000E+00 -0.00000000000E+00 -0.45593999997E+02  0.45594000000E+02  0.51100000000E-03 0.  1.
    9900012    2    1    2    0    0  0.23192938221E+01  0.12767631153E+02  0.13501425108E+02  0.72461547879E+02  0.69999970800E+02 0.  0.
        -12    1    1    2    0    0 -0.23192938221E+01 -0.12767631153E+02 -0.13501425108E+02  0.18726452121E+02  0.00000000000E+00 0.  1.
         11    1    3    3    0    0  0.12244935125E+01  0.35067135999E+01  0.24352340422E+02  0.24633978747E+02  0.51100000000E-03 0. -1.
        -11    1    3    3    0    0  0.35304181231E+00  0.10697816539E+02 -0.28324431633E+02  0.30279388118E+02  0.51100000000E-03 0.  1.
        -12    1    3    3    0    0  0.74175849726E+00 -0.14368989857E+01  0.17473516318E+02  0.17548181014E+02  0.00000000000E+00 0.  1.
</event>
<event>
 7    1  0.1905073E-013  0.7246158E+02  0.7816164E-02  0.1226708E+00
        -11   -1    0    0    0    0  0.00000000000E+00  0.00000000000E+00  0.45593999997E+02  0.45594000000E+02  0.51100000000E-03 0.  1.
         11   -1    0    0    0    0 -0.00000000000E+00 -0.00000000000E+00 -0.45593999997E+02  0.45594000000E+02  0.51100000000E-03 0. -1.
    9900012    2    1    2    0    0  0.15908418820E+02  0.47911413736E+01 -0.86397954897E+01  0.72461577728E+02  0.70000009684E+02 0.  0.
        -12    1    1    2    0    0 -0.15908418820E+02 -0.47911413736E+01  0.86397954897E+01  0.18726422272E+02  0.00000000000E+00 0.  1.
         11    1    3    3    0    0 -0.31713789561E+01 -0.22966618018E+01 -0.28195459127E+02  0.28466053740E+02  0.51100000000E-03 0. -1.
        -11    1    3    3    0    0  0.27774649604E+02  0.33591380163E+01  0.20208666163E+02  0.34512391357E+02  0.51100000000E-03 0.  1.
        -12    1    3    3    0    0 -0.86948518285E+01  0.37286651591E+01 -0.65300252569E+00  0.94831326304E+01  0.00000000000E+00 0.  1.
</event>
<event>
 7    1  0.1905073E-013  0.7246148E+02  0.7816164E-02  0.1226708E+00
        -11   -1    0    0    0    0  0.00000000000E+00  0.00000000000E+00  0.45593999997E+02  0.45594000000E+02  0.51100000000E-03 0.  1.
         11   -1    0    0    0    0 -0.00000000000E+00 -0.00000000000E+00 -0.45593999997E+02  0.45594000000E+02  0.51100000000E-03 0. -1.
    9900012    2    1    2    0    0 -0.18445564300E+01 -0.18200363937E+02 -0.40033797093E+01  0.72461476432E+02  0.69999877727E+02 0.  0.
        -12    1    1    2    0    0  0.18445564300E+01  0.18200363937E+02  0.40033797093E+01  0.18726523568E+02  0.00000000000E+00 0.  1.
         11    1    3    3    0    0  0.11353751884E+02 -0.20598276186E+02 -0.22199850002E+02  0.32342387111E+02  0.51100000000E-03 0. -1.
        -11    1    3    3    0    0 -0.31641891614E+01 -0.13211850030E+02  0.16662850910E+02  0.21499201728E+02  0.51100000000E-03 0.  1.
        -12    1    3    3    0    0 -0.10034119152E+02  0.15609762279E+02  0.15336193828E+01  0.18619887593E+02  0.00000000000E+00 0.  1.
</event>
<event>
 7    1  0.1905073E-013  0.7246156E+02  0.7816164E-02  0.1226708E+00
        -11   -1    0    0    0    0  0.00000000000E+00  0.00000000000E+00  0.45593999997E+02  0.45594000000E+02  0.51100000000E-03 0.  1.
         11   -1    0    0    0    0 -0.00000000000E+00 -0.00000000000E+00 -0.45593999997E+02  0.45594000000E+02  0.51100000000E-03 0. -1.
    9900012    2    1    2    0    0 -0.14889865925E+02 -0.11346762718E+02 -0.47165454660E+00  0.72461559082E+02  0.69999985394E+02 0.  0.
        -12    1    1    2    0    0  0.14889865925E+02  0.11346762718E+02  0.47165454660E+00  0.18726440918E+02  0.00000000000E+00 0.  1.
         11    1    3    3    0    0 -0.22173441154E+02 -0.15176315341E+02 -0.54423679419E+01  0.27415349880E+02  0.51100000000E-03 0. -1.
        -11    1    3    3    0    0  0.50048620232E+01  0.17177665274E+02 -0.13307712181E+02  0.22298341461E+02  0.51100000000E-03 0.  1.
        -12    1    3    3    0    0  0.22787132060E+01 -0.13348112651E+02  0.18278425577E+02  0.22747867741E+02  0.00000000000E+00 0.  1.
</event>
<event>
 7    1  0.1905073E-013  0.7246158E+02  0.7816164E-02  0.1226708E+00
        -11   -1    0    0    0    0  0.00000000000E+00  0.00000000000E+00  0.45593999997E+02  0.45594000000E+02  0.51100000000E-03 0.  1.
         11   -1    0    0    0    0 -0.00000000000E+00 -0.00000000000E+00 -0.45593999997E+02  0.45594000000E+02  0.51100000000E-03 0. -1.
    9900012    2    1    2    0    0  0.96940305090E+01  0.12856516309E+02 -0.95610930602E+01  0.72461581773E+02  0.70000014953E+02 0.  0.
        -12    1    1    2    0    0 -0.96940305090E+01 -0.12856516309E+02  0.95610930602E+01  0.18726418227E+02  0.00000000000E+00 0.  1.
         11    1    3    3    0    0  0.27768707613E+02  0.29240629998E+02 -0.17570215425E+02  0.43986680206E+02  0.51100000000E-03 0. -1.
        -11    1    3    3    0    0 -0.15313745813E+02 -0.70407723405E+01  0.18674270100E+01  0.16957905822E+02  0.51100000000E-03 0.  1.
        -12    1    3    3    0    0 -0.27609312915E+01 -0.93433413489E+01  0.61416953543E+01  0.11516995745E+02  0.00000000000E+00 0.  1.
</event>
<event>
 7    1  0.1905073E-013  0.7246157E+02  0.7816164E-02  0.1226708E+00
        -11   -1    0    0    0    0  0.00000000000E+00  0.00000000000E+00  0.45593999997E+02  0.45594000000E+02  0.51100000000E-03 0.  1.
         11   -1    0    0    0    0 -0.00000000000E+00 -0.00000000000E+00 -0.45593999997E+02  0.45594000000E+02  0.51100000000E-03 0. -1.
    9900012    2    1    2    0    0  0.11836749002E+01 -0.16385233754E+02 -0.89890053473E+01  0.72461569786E+02  0.69999999338E+02 0.  0.
        -12    1    1    2    0    0 -0.11836749002E+01  0.16385233754E+02  0.89890053473E+01  0.18726430214E+02  0.00000000000E+00 0.  1.
         11    1    3    3    0    0 -0.22988871147E+02 -0.93708038202E+01 -0.17913626854E+02  0.30613692822E+02  0.51100000000E-03 0. -1.
        -11    1    3    3    0    0  0.22441601267E+02 -0.12576947501E+02  0.17763015614E+02  0.31262274387E+02  0.51100000000E-03 0.  1.
        -12    1    3    3    0    0  0.17309447806E+01  0.55625175674E+01 -0.88383941075E+01  0.10585602577E+02  0.00000000000E+00 0.  1.
</event>
<event>
 7    1  0.1905073E-013  0.7246155E+02  0.7816164E-02  0.1226708E+00
        -11   -1    0    0    0    0  0.00000000000E+00  0.00000000000E+00  0.45593999997E+02  0.45594000000E+02  0.51100000000E-03 0.  1.
         11   -1    0    0    0    0 -0.00000000000E+00 -0.00000000000E+00 -0.45593999997E+02  0.45594000000E+02  0.51100000000E-03 0. -1.
    9900012    2    1    2    0    0 -0.65463240688E+01  0.20844180915E+01 -0.17420698337E+02  0.72461551107E+02  0.69999975005E+02 0.  0.
        -12    1    1    2    0    0  0.65463240688E+01 -0.20844180915E+01  0.17420698337E+02  0.18726448893E+02  0.00000000000E+00 0.  1.
         11    1    3    3    0    0  0.21893775902E+02  0.10515625642E+02 -0.26564721269E+02  0.35994447103E+02  0.51100000000E-03 0. -1.
        -11    1    3    3    0    0 -0.77065003854E+01 -0.11725441057E+02  0.14418755114E+01  0.14105145211E+02  0.51100000000E-03 0.  1.
         12    1    3    3    0    0 -0.20733599585E+02  0.32942335070E+01  0.77021474210E+01  0.22361958793E+02  0.00000000000E+00 0. -1.
</event>
<event>
 7    1  0.2208673E-013  0.7246158E+02  0.7816164E-02  0.1226708E+00
        -11   -1    0    0    0    0  0.00000000000E+00  0.00000000000E+00  0.45593999997E+02  0.45594000000E+02  0.51100000000E-03 0. -1.
         11   -1    0    0    0    0 -0.00000000000E+00 -0.00000000000E+00 -0.45593999997E+02  0.45594000000E+02  0.51100000000E-03 0.  1.
    9900012    2    1    2    0    0 -0.16571149720E+02  0.54796914892E+01  0.67859369203E+01  0.72461575842E+02  0.70000007226E+02 0.  0.
        -12    1    1    2    0    0  0.16571149720E+02 -0.54796914892E+01 -0.67859369203E+01  0.18726424158E+02  0.00000000000E+00 0.  1.
         11    1    3    3    0    0 -0.13709384493E+02 -0.19520177753E+02  0.18595100869E+02  0.30245038259E+02  0.51100000000E-03 0. -1.
        -11    1    3    3    0    0 -0.14657817411E+02  0.11938500502E+02 -0.15243912421E+02  0.24284898016E+02  0.51100000000E-03 0.  1.
         12    1    3    3    0    0  0.11796052184E+02  0.13061368740E+02  0.34347484723E+01  0.17931639567E+02  0.00000000000E+00 0. -1.
</event>
<event>
 7    1  0.1905073E-013  0.7246157E+02  0.7816164E-02  0.1226708E+00
        -11   -1    0    0    0    0  0.00000000000E+00  0.00000000000E+00  0.45593999997E+02  0.45594000000E+02  0.51100000000E-03 0. -1.
         11   -1    0    0    0    0 -0.00000000000E+00 -0.00000000000E+00 -0.45593999997E+02  0.45594000000E+02  0.51100000000E-03 0.  1.
    9900012    2    1    2    0    0  0.38738121842E+01  0.18249706763E+02 -0.16189726805E+01  0.72461567069E+02  0.69999995799E+02 0.  0.
        -12    1    1    2    0    0 -0.38738121842E+01 -0.18249706763E+02  0.16189726805E+01  0.18726432931E+02  0.00000000000E+00 0.  1.
         11    1    3    3    0    0  0.25133136155E+02 -0.17732031383E+01  0.85042992732E+01  0.26592139605E+02  0.51100000000E-03 0. -1.
        -11    1    3    3    0    0 -0.30117280757E+02  0.11999177507E+02 -0.47512905739E+01  0.32765921678E+02  0.51100000000E-03 0.  1.
        -12    1    3    3    0    0  0.88579567859E+01  0.80237323942E+01 -0.53719813798E+01  0.13103505787E+02  0.00000000000E+00 0.  1.
</event>
<event>
 7    1  0.1905073E-013  0.7246156E+02  0.7816164E-02  0.1226708E+00
        -11   -1    0    0    0    0  0.00000000000E+00  0.00000000000E+00  0.45593999997E+02  0.45594000000E+02  0.51100000000E-03 0. -1.
         11   -1    0    0    0    0 -0.00000000000E+00 -0.00000000000E+00 -0.45593999997E+02  0.45594000000E+02  0.51100000000E-03 0.  1.
    9900012    2    1    2    0    0  0.16766060102E+02 -0.81045339584E+01  0.19736628934E+01  0.72461559141E+02  0.69999985471E+02 0.  0.
        -12    1    1    2    0    0 -0.16766060102E+02  0.81045339584E+01 -0.19736628934E+01  0.18726440859E+02  0.00000000000E+00 0.  1.
         11    1    3    3    0    0 -0.84018202569E+01 -0.32273053218E+02 -0.97614877695E+01  0.34748053059E+02  0.51100000000E-03 0. -1.
        -11    1    3    3    0    0  0.14404712619E+02  0.14457793447E+02  0.25876321300E+01  0.20572296354E+02  0.51100000000E-03 0.  1.
         12    1    3    3    0    0  0.10763167740E+02  0.97107258131E+01  0.91475185329E+01  0.17141209727E+02  0.00000000000E+00 0. -1.
</event>
<event>
 7    1  0.1905073E-013  0.7246145E+02  0.7816164E-02  0.1226708E+00
        -11   -1    0    0    0    0  0.00000000000E+00  0.00000000000E+00  0.45593999997E+02  0.45594000000E+02  0.51100000000E-03 0.  1.
         11   -1    0    0    0    0 -0.00000000000E+00 -0.00000000000E+00 -0.45593999997E+02  0.45594000000E+02  0.51100000000E-03 0. -1.
    9900012    2    1    2    0    0  0.80068262709E+00  0.36254085202E+01 -0.18354810647E+02  0.72461447902E+02  0.69999840560E+02 0.  0.
        -12    1    1    2    0    0 -0.80068262709E+00 -0.36254085202E+01  0.18354810647E+02  0.18726552098E+02  0.00000000000E+00 0.  1.
         11    1    3    3    0    0 -0.18061556564E+02  0.12942299874E+02 -0.25127112129E+02  0.33542431572E+02  0.51100000000E-03 0. -1.
        -11    1    3    3    0    0  0.13433786260E+02 -0.21268054468E+02  0.35670828150E+01  0.25407102042E+02  0.51100000000E-03 0.  1.
        -12    1    3    3    0    0  0.54284529311E+01  0.11951163114E+02  0.32052186673E+01  0.13511914287E+02  0.00000000000E+00 0.  1.
</event>
<event>
 7    1  0.1905073E-013  0.7246155E+02  0.7816164E-02  0.1226708E+00
        -11   -1    0    0    0    0  0.00000000000E+00  0.00000000000E+00  0.45593999997E+02  0.45594000000E+02  0.51100000000E-03 0. -1.
         11   -1    0    0    0    0 -0.00000000000E+00 -0.00000000000E+00 -0.45593999997E+02  0.45594000000E+02  0.51100000000E-03 0.  1.
    9900012    2    1    2    0    0 -0.72801412402E+00 -0.18232884484E+02  0.42085502728E+01  0.72461548746E+02  0.69999971929E+02 0.  0.
        -12    1    1    2    0    0  0.72801412402E+00  0.18232884484E+02 -0.42085502728E+01  0.18726451254E+02  0.00000000000E+00 0.  1.
         11    1    3    3    0    0 -0.13380873207E+02 -0.17891353485E+01  0.19326353470E+02  0.23574492821E+02  0.51100000000E-03 0. -1.
        -11    1    3    3    0    0  0.64543431734E+01 -0.30370902569E+02 -0.12233855935E+02  0.33372406266E+02  0.51100000000E-03 0.  1.
        -12    1    3    3    0    0  0.61985159091E+01  0.13927153434E+02 -0.28839472623E+01  0.15514649659E+02  0.00000000000E+00 0.  1.
</event>
<event>
 7    1  0.1905073E-013  0.7246159E+02  0.7816164E-02  0.1226708E+00
        -11   -1    0    0    0    0  0.00000000000E+00  0.00000000000E+00  0.45593999997E+02  0.45594000000E+02  0.51100000000E-03 0.  1.
         11   -1    0    0    0    0 -0.00000000000E+00 -0.00000000000E+00 -0.45593999997E+02  0.45594000000E+02  0.51100000000E-03 0. -1.
    9900012    2    1    2    0    0 -0.16073722355E+02  0.14913268891E+01 -0.94915586562E+01  0.72461593725E+02  0.70000030523E+02 0.  0.
        -12    1    1    2    0    0  0.16073722355E+02 -0.14913268891E+01  0.94915586562E+01  0.18726406275E+02  0.00000000000E+00 0.  1.
         11    1    3    3    0    0  0.21138982284E+02  0.47235191134E+01 -0.11375845796E+01  0.21690143009E+02  0.51100000000E-03 0.  1.
        -11    1    3    3    0    0 -0.16242691687E+02  0.11411856031E+02 -0.14357920813E+02  0.24499089404E+02  0.51100000000E-03 0. -1.
         12    1    3    3    0    0 -0.20970012952E+02 -0.14644048256E+02  0.60039467362E+01  0.26272361312E+02  0.00000000000E+00 0. -1.
</event>
<event>
 7    1  0.1905073E-013  0.7246150E+02  0.7816164E-02  0.1226708E+00
        -11   -1    0    0    0    0  0.00000000000E+00  0.00000000000E+00  0.45593999997E+02  0.45594000000E+02  0.51100000000E-03 0.  1.
         11   -1    0    0    0    0 -0.00000000000E+00 -0.00000000000E+00 -0.45593999997E+02  0.45594000000E+02  0.51100000000E-03 0. -1.
    9900012    2    1    2    0    0 -0.16573255915E+02 -0.86299139316E+01 -0.12384176545E+01  0.72461497274E+02  0.69999904877E+02 0.  0.
        -12    1    1    2    0    0  0.16573255915E+02  0.86299139316E+01  0.12384176545E+01  0.18726502726E+02  0.00000000000E+00 0.  1.
         11    1    3    3    0    0  0.10396959701E+02 -0.17619789496E+02 -0.25892679456E+02  0.32999766704E+02  0.51100000000E-03 0. -1.
        -11    1    3    3    0    0 -0.14581695038E+02  0.10919796152E+02  0.15774928446E+02  0.24098052741E+02  0.51100000000E-03 0.  1.
        -12    1    3    3    0    0 -0.12388520577E+02 -0.19299205882E+01  0.88793333550E+01  0.15363677828E+02  0.00000000000E+00 0.  1.
</event>
<event>
 7    1  0.1905224E-013  0.7246158E+02  0.7816164E-02  0.1226708E+00
        -11   -1    0    0    0    0  0.00000000000E+00  0.00000000000E+00  0.45593999997E+02  0.45594000000E+02  0.51100000000E-03 0. -1.
         11   -1    0    0    0    0 -0.00000000000E+00 -0.00000000000E+00 -0.45593999997E+02  0.45594000000E+02  0.51100000000E-03 0.  1.
    9900012    2    1    2    0    0  0.98272154803E+01 -0.78089708575E+01  0.13896925661E+02  0.72461581955E+02  0.70000015190E+02 0.  0.
        -12    1    1    2    0    0 -0.98272154803E+01  0.78089708575E+01 -0.13896925661E+02  0.18726418045E+02  0.00000000000E+00 0.  1.
         11    1    3    3    0    0  0.16573820672E+02 -0.13822855166E+02  0.31386649126E+02  0.38090479129E+02  0.51100000000E-03 0. -1.
        -11    1    3    3    0    0  0.11107563262E+02  0.23070165236E+01 -0.71216617917E+01  0.13394713651E+02  0.51100000000E-03 0.  1.
         12    1    3    3    0    0 -0.17854168454E+02  0.37068677852E+01 -0.10368061673E+02  0.20976389175E+02  0.00000000000E+00 0. -1.
</event>
<event>
 7    1  0.1905073E-013  0.7246170E+02  0.7816164E-02  0.1226708E+00
        -11   -1    0    0    0    0  0.00000000000E+00  0.00000000000E+00  0.45593999997E+02  0.45594000000E+02  0.51100000000E-03 0. -1.
         11   -1    0    0    0    0 -0.00000000000E+00 -0.00000000000E+00 -0.45593999997E+02  0.45594000000E+02  0.51100000000E-03 0.  1.
    9900012    2    1    2    0    0 -0.14239419911E+02  0.12091340983E+02 -0.13087182281E+01  0.72461698989E+02  0.70000167648E+02 0.  0.
        -12    1    1    2    0    0  0.14239419911E+02 -0.12091340983E+02  0.13087182281E+01  0.18726301011E+02  0.00000000000E+00 0.  1.
         11    1    3    3    0    0 -0.33457267047E+02  0.17058359709E+02  0.14101775968E+01  0.37581444295E+02  0.51100000000E-03 0. -1.
        -11    1    3    3    0    0  0.12545225552E+02 -0.12630040109E+02  0.85144928920E+01  0.19733149439E+02  0.51100000000E-03 0.  1.
        -12    1    3    3    0    0  0.66726215837E+01  0.76630213836E+01 -0.11233388717E+02  0.15147105254E+02  0.00000000000E+00 0.  1.
</event>
<event>
 7    1  0.1905073E-013  0.7246165E+02  0.7816164E-02  0.1226708E+00
        -11   -1    0    0    0    0  0.00000000000E+00  0.00000000000E+00  0.45593999997E+02  0.45594000000E+02  0.51100000000E-03 0. -1.
         11   -1    0    0    0    0 -0.00000000000E+00 -0.00000000000E+00 -0.45593999997E+02  0.45594000000E+02  0.51100000000E-03 0.  1.
    9900012    2    1    2    0    0 -0.16962599743E+02 -0.13306297247E+01  0.78214937481E+01  0.72461651451E+02  0.70000105722E+02 0.  0.
        -12    1    1    2    0    0  0.16962599743E+02  0.13306297247E+01 -0.78214937481E+01  0.18726348549E+02  0.00000000000E+00 0.  1.
         11    1    3    3    0    0 -0.29747854994E+02 -0.19999322185E+02  0.58521406517E+01  0.36320177795E+02  0.51100000000E-03 0. -1.
        -11    1    3    3    0    0 -0.20998849011E+01  0.24207350943E+01 -0.10392464307E+02  0.10875329403E+02  0.51100000000E-03 0.  1.
         12    1    3    3    0    0  0.14885140151E+02  0.16247957366E+02  0.12361817404E+02  0.25266144253E+02  0.00000000000E+00 0. -1.
</event>
<event>
 7    1  0.1905073E-013  0.7246156E+02  0.7816164E-02  0.1226708E+00
        -11   -1    0    0    0    0  0.00000000000E+00  0.00000000000E+00  0.45593999997E+02  0.45594000000E+02  0.51100000000E-03 0.  1.
         11   -1    0    0    0    0 -0.00000000000E+00 -0.00000000000E+00 -0.45593999997E+02  0.45594000000E+02  0.51100000000E-03 0. -1.
    9900012    2    1    2    0    0  0.18181088673E+02 -0.18967283060E+01 -0.40657097929E+01  0.72461559876E+02  0.69999986428E+02 0.  0.
        -12    1    1    2    0    0 -0.18181088673E+02  0.18967283060E+01  0.40657097929E+01  0.18726440124E+02  0.00000000000E+00 0.  1.
         11    1    3    3    0    0  0.59341986947E+01 -0.27800347127E+01 -0.30430528665E+02  0.31128128474E+02  0.51100000000E-03 0. -1.
        -11    1    3    3    0    0 -0.63328253204E+01  0.40930041370E+00  0.21074738476E+02  0.22009470813E+02  0.51100000000E-03 0.  1.
        -12    1    3    3    0    0  0.18579715299E+02  0.47400599300E+00  0.52900803962E+01  0.19323960589E+02  0.00000000000E+00 0.  1.
</event>
<event>
 7    1  0.1905073E-013  0.7246158E+02  0.7816164E-02  0.1226708E+00
        -11   -1    0    0    0    0  0.00000000000E+00  0.00000000000E+00  0.45593999997E+02  0.45594000000E+02  0.51100000000E-03 0.  1.
         11   -1    0    0    0    0 -0.00000000000E+00 -0.00000000000E+00 -0.45593999997E+02  0.45594000000E+02  0.51100000000E-03 0. -1.
    9900012    2    1    2    0    0 -0.17481642127E+02 -0.57051097538E+01 -0.35387703728E+01  0.72461575234E+02  0.70000006435E+02 0.  0.
        -12    1    1    2    0    0  0.17481642127E+02  0.57051097538E+01  0.35387703728E+01  0.18726424766E+02  0.00000000000E+00 0.  1.
         11    1    3    3    0    0 -0.16870651573E+02  0.47369989514E+00  0.80784712620E+01  0.18711092279E+02  0.51100000000E-03 0. -1.
        -11    1    3    3    0    0  0.16834425018E+02  0.78380043743E+01  0.11284987992E+02  0.21729775252E+02  0.51100000000E-03 0.  1.
        -12    1    3    3    0    0 -0.17445415573E+02 -0.14016814023E+02 -0.22902229627E+02  0.32020707702E+02  0.00000000000E+00 0.  1.
</event>
<event>
 7    1  0.1905073E-013  0.7246158E+02  0.7816164E-02  0.1226708E+00
        -11   -1    0    0    0    0  0.00000000000E+00  0.00000000000E+00  0.45593999997E+02  0.45594000000E+02  0.51100000000E-03 0.  1.
         11   -1    0    0    0    0 -0.00000000000E+00 -0.00000000000E+00 -0.45593999997E+02  0.45594000000E+02  0.51100000000E-03 0. -1.
    9900012    2    1    2    0    0 -0.88051098320E+01 -0.16527139540E+02 -0.49505962120E-01  0.72461581459E+02  0.70000014545E+02 0.  0.
        -12    1    1    2    0    0  0.88051098320E+01  0.16527139540E+02  0.49505962120E-01  0.18726418541E+02  0.00000000000E+00 0.  1.
         11    1    3    3    0    0 -0.89536683385E+01 -0.30401573045E+02 -0.10342935018E+02  0.33337668265E+02  0.51100000000E-03 0. -1.
        -11    1    3    3    0    0 -0.72482085218E+01  0.20825919804E+02 -0.31538851215E+01  0.22275602216E+02  0.51100000000E-03 0.  1.
        -12    1    3    3    0    0  0.73967670284E+01 -0.69514862989E+01  0.13447314178E+02  0.16848310978E+02  0.00000000000E+00 0.  1.
</event>
<event>
 7    1  0.1905073E-013  0.7246147E+02  0.7816164E-02  0.1226708E+00
        -11   -1    0    0    0    0  0.00000000000E+00  0.00000000000E+00  0.45593999997E+02  0.45594000000E+02  0.51100000000E-03 0.  1.
         11   -1    0    0    0    0 -0.00000000000E+00 -0.00000000000E+00 -0.45593999997E+02  0.45594000000E+02  0.51100000000E-03 0. -1.
    9900012    2    1    2    0    0 -0.70096223502E+00  0.14625148070E+02 -0.11674612005E+02  0.72461471502E+02  0.69999871304E+02 0.  0.
        -12    1    1    2    0    0  0.70096223502E+00 -0.14625148070E+02  0.11674612005E+02  0.18726528498E+02  0.00000000000E+00 0.  1.
         11    1    3    3    0    0 -0.19303693929E+02 -0.38554865327E+01 -0.20578440593E+02  0.28477527864E+02  0.51100000000E-03 0. -1.
        -11    1    3    3    0    0  0.18936492940E+02  0.16821492066E+02  0.20301809533E+02  0.32461004771E+02  0.51100000000E-03 0.  1.
        -12    1    3    3    0    0 -0.33376124542E+00  0.16591425369E+01 -0.11397980945E+02  0.11522938868E+02  0.00000000000E+00 0.  1.
</event>
<event>
 7    1  0.1905073E-013  0.7246160E+02  0.7816164E-02  0.1226708E+00
        -11   -1    0    0    0    0  0.00000000000E+00  0.00000000000E+00  0.45593999997E+02  0.45594000000E+02  0.51100000000E-03 0.  1.
         11   -1    0    0    0    0 -0.00000000000E+00 -0.00000000000E+00 -0.45593999997E+02  0.45594000000E+02  0.51100000000E-03 0. -1.
    9900012    2    1    2    0    0 -0.92892598906E+01  0.14618208579E+02  0.71200918965E+01  0.72461599385E+02  0.70000037897E+02 0.  0.
        -12    1    1    2    0    0  0.92892598906E+01 -0.14618208579E+02 -0.71200918965E+01  0.18726400615E+02  0.00000000000E+00 0.  1.
         11    1    3    3    0    0  0.65040276244E+01  0.13765008745E+02 -0.14832393130E+02  0.21255063569E+02  0.51100000000E-03 0. -1.
        -11    1    3    3    0    0 -0.15080627795E+02 -0.14182419352E+02 -0.41134174177E+01  0.21106552454E+02  0.51100000000E-03 0.  1.
        -12    1    3    3    0    0 -0.71265971979E+00  0.15035619186E+02  0.26065902445E+02  0.30099983363E+02  0.00000000000E+00 0.  1.
</event>
<event>
 7    1  0.1905073E-013  0.7246160E+02  0.7816164E-02  0.1226708E+00
        -11   -1    0    0    0    0  0.00000000000E+00  0.00000000000E+00  0.45593999997E+02  0.45594000000E+02  0.51100000000E-03 0. -1.
         11   -1    0    0    0    0 -0.00000000000E+00 -0.00000000000E+00 -0.45593999997E+02  0.45594000000E+02  0.51100000000E-03 0.  1.
    9900012    2    1    2    0    0 -0.15702573485E+02  0.65483021998E+01  0.78247685361E+01  0.72461599428E+02  0.70000037952E+02 0.  0.
        -12    1    1    2    0    0  0.15702573485E+02 -0.65483021998E+01 -0.78247685361E+01  0.18726400572E+02  0.00000000000E+00 0.  1.
         11    1    3    3    0    0 -0.37174116943E+01 -0.71988459478E+01 -0.27216757061E+02  0.28397084320E+02  0.51100000000E-03 0.  1.
        -11    1    3    3    0    0 -0.13543683286E+02  0.97813909743E+00  0.21130050279E+02  0.25117068661E+02  0.51100000000E-03 0. -1.
         12    1    3    3    0    0  0.15585214953E+01  0.12769009050E+02  0.13911475318E+02  0.18947446448E+02  0.00000000000E+00 0. -1.
</event>
<event>
 7    1  0.1905073E-013  0.7246166E+02  0.7816164E-02  0.1226708E+00
        -11   -1    0    0    0    0  0.00000000000E+00  0.00000000000E+00  0.45593999997E+02  0.45594000000E+02  0.51100000000E-03 0. -1.
         11   -1    0    0    0    0 -0.00000000000E+00 -0.00000000000E+00 -0.45593999997E+02  0.45594000000E+02  0.51100000000E-03 0.  1.
    9900012    2    1    2    0    0  0.85949480735E+01  0.93999136729E+00  0.16610813323E+02  0.72461659316E+02  0.70000115967E+02 0.  0.
        -12    1    1    2    0    0 -0.85949480735E+01 -0.93999136729E+00 -0.16610813323E+02  0.18726340684E+02  0.00000000000E+00 0.  1.
         11    1    3    3    0    0  0.35136398262E+01  0.50195582107E+01  0.10167571500E+02  0.11871021014E+02  0.51100000000E-03 0. -1.
        -11    1    3    3    0    0 -0.15224836334E+02 -0.24292664320E+02  0.12549494441E+02  0.31295670502E+02  0.51100000000E-03 0.  1.
        -12    1    3    3    0    0  0.20306144582E+02  0.20213097477E+02 -0.61062526180E+01  0.29294967800E+02  0.00000000000E+00 0.  1.
</event>
<event>
 7    1  0.1905073E-013  0.7246156E+02  0.7816164E-02  0.1226708E+00
        -11   -1    0    0    0    0  0.00000000000E+00  0.00000000000E+00  0.45593999997E+02  0.45594000000E+02  0.51100000000E-03 0. -1.
         11   -1    0    0    0    0 -0.00000000000E+00 -0.00000000000E+00 -0.45593999997E+02  0.45594000000E+02  0.51100000000E-03 0.  1.
    9900012    2    1    2    0    0  0.25528484991E+01 -0.18289283753E+02  0.31088235610E+01  0.72461555607E+02  0.69999980867E+02 0.  0.
        -12    1    1    2    0    0 -0.25528484991E+01  0.18289283753E+02 -0.31088235610E+01  0.18726444393E+02  0.00000000000E+00 0.  1.
         11    1    3    3    0    0  0.15411434897E+02 -0.20106866805E+02  0.16934878349E+02  0.30472750504E+02  0.51100000000E-03 0. -1.
        -11    1    3    3    0    0 -0.93722698731E+01 -0.38012547082E+01 -0.26130826796E+02  0.28019798165E+02  0.51100000000E-03 0.  1.
        -12    1    3    3    0    0 -0.34863165243E+01  0.56188377604E+01  0.12304772007E+02  0.13969006938E+02  0.00000000000E+00 0.  1.
</event>
<event>
 8    1  0.1905073E-013  0.7246168E+02  0.7816164E-02  0.1226708E+00
        -11   -1    0    0    0    0  0.00000000000E+00  0.00000000000E+00  0.45593999997E+02  0.45594000000E+02  0.51100000000E-03 0. -1.
         11   -1    0    0    0    0 -0.00000000000E+00 -0.00000000000E+00 -0.45593999997E+02  0.45594000000E+02  0.51100000000E-03 0.  1.
    9900012    2    1    2    0    0  0.95451718731E+00  0.11446589400E+02 -0.14789840509E+02  0.72461684446E+02  0.70000148704E+02 0.  0.
         24    2    3    3    0    0 -0.11587719841E+00 -0.82254361437E+01 -0.17800581538E+02  0.52531835101E+02  0.48734605454E+02 0.  0.
        -12    1    1    2    0    0 -0.95451718731E+00 -0.11446589400E+02  0.14789840509E+02  0.18726315554E+02  0.00000000000E+00 0.  1.
         11    1    3    3    0    0  0.10703943857E+01  0.19672025543E+02  0.30107410289E+01  0.19929849345E+02  0.51100000000E-03 0. -1.
        -11    1    4    4    0    0  0.23048420941E+02 -0.92024090502E+01 -0.15436580005E+02  0.29226735067E+02  0.51100000000E-03 0.  1.
         12    1    4    4    0    0 -0.23164298139E+02  0.97697290653E+00 -0.23640015324E+01  0.23305100034E+02  0.00000000000E+00 0. -1.
</event>
<event>
 7    1  0.1905073E-013  0.7246150E+02  0.7816164E-02  0.1226708E+00
        -11   -1    0    0    0    0  0.00000000000E+00  0.00000000000E+00  0.45593999997E+02  0.45594000000E+02  0.51100000000E-03 0.  1.
         11   -1    0    0    0    0 -0.00000000000E+00 -0.00000000000E+00 -0.45593999997E+02  0.45594000000E+02  0.51100000000E-03 0. -1.
    9900012    2    1    2    0    0 -0.66397356758E+01  0.16596468971E+02 -0.55814833349E+01  0.72461499302E+02  0.69999907520E+02 0.  0.
        -12    1    1    2    0    0  0.66397356758E+01 -0.16596468971E+02  0.55814833349E+01  0.18726500698E+02  0.00000000000E+00 0.  1.
         11    1    3    3    0    0 -0.23962870366E+02  0.10203951617E+02  0.19211626113E+01  0.26115716548E+02  0.51100000000E-03 0. -1.
        -11    1    3    3    0    0  0.89623596458E+01  0.64210599592E+01 -0.24796414819E+02  0.27136987481E+02  0.51100000000E-03 0.  1.
        -12    1    3    3    0    0  0.83607750446E+01 -0.28542605049E-01  0.17293768872E+02  0.19208795273E+02  0.00000000000E+00 0.  1.
</event>
<event>
 7    1  0.1905073E-013  0.7246168E+02  0.7816164E-02  0.1226708E+00
        -11   -1    0    0    0    0  0.00000000000E+00  0.00000000000E+00  0.45593999997E+02  0.45594000000E+02  0.51100000000E-03 0.  1.
         11   -1    0    0    0    0 -0.00000000000E+00 -0.00000000000E+00 -0.45593999997E+02  0.45594000000E+02  0.51100000000E-03 0. -1.
    9900012    2    1    2    0    0  0.29737936036E+00 -0.95882224059E+01 -0.16082683208E+02  0.72461677816E+02  0.70000140066E+02 0.  0.
        -12    1    1    2    0    0 -0.29737936036E+00  0.95882224059E+01  0.16082683208E+02  0.18726322184E+02  0.00000000000E+00 0.  1.
         11    1    3    3    0    0  0.12511660504E+02 -0.17583953262E+02 -0.32496950994E+02  0.39010112600E+02  0.51100000000E-03 0. -1.
        -11    1    3    3    0    0 -0.19562479115E+02  0.54453513473E+01  0.75645080968E+01  0.21669430621E+02  0.51100000000E-03 0.  1.
         12    1    3    3    0    0  0.73481979713E+01  0.25503795093E+01  0.88497596890E+01  0.11782134595E+02  0.00000000000E+00 0. -1.
</event>
<event>
 7    1  0.1905073E-013  0.7246153E+02  0.7816164E-02  0.1226708E+00
        -11   -1    0    0    0    0  0.00000000000E+00  0.00000000000E+00  0.45593999997E+02  0.45594000000E+02  0.51100000000E-03 0. -1.
         11   -1    0    0    0    0 -0.00000000000E+00 -0.00000000000E+00 -0.45593999997E+02  0.45594000000E+02  0.51100000000E-03 0.  1.
    9900012    2    1    2    0    0  0.38900231426E+01 -0.18071461477E+02 -0.29951132452E+01  0.72461529342E+02  0.69999946652E+02 0.  0.
        -12    1    1    2    0    0 -0.38900231426E+01  0.18071461477E+02  0.29951132452E+01  0.18726470658E+02  0.00000000000E+00 0.  1.
         11    1    3    3    0    0  0.12741666408E+02  0.18132931661E+02  0.70338376367E+01  0.23251411691E+02  0.51100000000E-03 0. -1.
        -11    1    3    3    0    0 -0.60279113918E+00 -0.21602071125E+02 -0.20212069183E+02  0.29589534889E+02  0.51100000000E-03 0.  1.
        -12    1    3    3    0    0 -0.82488521259E+01 -0.14602322013E+02  0.10183118301E+02  0.19620582762E+02  0.00000000000E+00 0.  1.
</event>
<event>
 7    1  0.1905073E-013  0.7246158E+02  0.7816164E-02  0.1226708E+00
        -11   -1    0    0    0    0  0.00000000000E+00  0.00000000000E+00  0.45593999997E+02  0.45594000000E+02  0.51100000000E-03 0.  1.
         11   -1    0    0    0    0 -0.00000000000E+00 -0.00000000000E+00 -0.45593999997E+02  0.45594000000E+02  0.51100000000E-03 0. -1.
    9900012    2    1    2    0    0  0.16382655135E+02 -0.82170754773E+01 -0.38428160367E+01  0.72461576055E+02  0.70000007504E+02 0.  0.
        -12    1    1    2    0    0 -0.16382655135E+02  0.82170754773E+01  0.38428160367E+01  0.18726423945E+02  0.00000000000E+00 0.  1.
         11    1    3    3    0    0  0.24025394901E+02 -0.80120405749E+01  0.11565759453E+02  0.27842039909E+02  0.51100000000E-03 0.  1.
        -11    1    3    3    0    0 -0.16042335429E+02 -0.16680650483E+02 -0.61929187471E+01  0.23957313485E+02  0.51100000000E-03 0. -1.
         12    1    3    3    0    0  0.83995956631E+01  0.16475615581E+02 -0.92156567425E+01  0.20662222661E+02  0.00000000000E+00 0. -1.
</event>
<event>
 7    1  0.1905073E-013  0.7246144E+02  0.7816164E-02  0.1226708E+00
        -11   -1    0    0    0    0  0.00000000000E+00  0.00000000000E+00  0.45593999997E+02  0.45594000000E+02  0.51100000000E-03 0.  1.
         11   -1    0    0    0    0 -0.00000000000E+00 -0.00000000000E+00 -0.45593999997E+02  0.45594000000E+02  0.51100000000E-03 0. -1.
    9900012    2    1    2    0    0  0.59322075857E+01  0.17548135726E+02 -0.27487709469E+01  0.72461444096E+02  0.69999835603E+02 0.  0.
        -12    1    1    2    0    0 -0.59322075857E+01 -0.17548135726E+02  0.27487709469E+01  0.18726555904E+02  0.00000000000E+00 0.  1.
         11    1    3    3    0    0  0.21652128246E+02  0.76086238802E+01 -0.12931646959E+02  0.26342613922E+02  0.51100000000E-03 0. -1.
        -11    1    3    3    0    0 -0.23219406590E+02  0.11020533763E+02  0.20807763870E+02  0.33068958925E+02  0.51100000000E-03 0.  1.
         12    1    3    3    0    0  0.74994859303E+01 -0.10810219170E+01 -0.10624887859E+02  0.13049871249E+02  0.00000000000E+00 0. -1.
</event>
<event>
 7    1  0.1905073E-013  0.7246158E+02  0.7816164E-02  0.1226708E+00
        -11   -1    0    0    0    0  0.00000000000E+00  0.00000000000E+00  0.45593999997E+02  0.45594000000E+02  0.51100000000E-03 0.  1.
         11   -1    0    0    0    0 -0.00000000000E+00 -0.00000000000E+00 -0.45593999997E+02  0.45594000000E+02  0.51100000000E-03 0. -1.
    9900012    2    1    2    0    0 -0.74647866125E+01  0.70597371901E+01 -0.15656171445E+02  0.72461584628E+02  0.70000018673E+02 0.  0.
        -12    1    1    2    0    0  0.74647866125E+01 -0.70597371901E+01  0.15656171445E+02  0.18726415372E+02  0.00000000000E+00 0.  1.
         11    1    3    3    0    0  0.86869196027E+00  0.21670735699E+02 -0.18352761913E+02  0.28411252727E+02  0.51100000000E-03 0. -1.
        -11    1    3    3    0    0 -0.17450671295E+02 -0.19162569820E+02  0.13480103455E+02  0.29213750190E+02  0.51100000000E-03 0.  1.
         12    1    3    3    0    0  0.91171927220E+01  0.45515713119E+01 -0.10783512986E+02  0.14836581711E+02  0.00000000000E+00 0. -1.
</event>
<event>
 7    1  0.1905073E-013  0.7246150E+02  0.7816164E-02  0.1226708E+00
        -11   -1    0    0    0    0  0.00000000000E+00  0.00000000000E+00  0.45593999997E+02  0.45594000000E+02  0.51100000000E-03 0.  1.
         11   -1    0    0    0    0 -0.00000000000E+00 -0.00000000000E+00 -0.45593999997E+02  0.45594000000E+02  0.51100000000E-03 0. -1.
    9900012    2    1    2    0    0 -0.96541141097E+01 -0.92257123666E+01 -0.13128828835E+02  0.72461499139E+02  0.69999907307E+02 0.  0.
        -12    1    1    2    0    0  0.96541141097E+01  0.92257123666E+01  0.13128828835E+02  0.18726500861E+02  0.00000000000E+00 0.  1.
         11    1    3    3    0    0 -0.31367732282E+02 -0.12809914296E+02  0.59589097330E+01  0.34402574587E+02  0.51100000000E-03 0. -1.
        -11    1    3    3    0    0  0.11189562702E+02  0.30442156904E+01  0.43308695992E+01  0.12378610357E+02  0.51100000000E-03 0.  1.
         12    1    3    3    0    0  0.10524055470E+02  0.53998623915E+00 -0.23418608167E+02  0.25680314195E+02  0.00000000000E+00 0. -1.
</event>
<event>
 8    1  0.1905073E-013  0.7246156E+02  0.7816164E-02  0.1226708E+00
        -11   -1    0    0    0    0  0.00000000000E+00  0.00000000000E+00  0.45593999997E+02  0.45594000000E+02  0.51100000000E-03 0.  1.
         11   -1    0    0    0    0 -0.00000000000E+00 -0.00000000000E+00 -0.45593999997E+02  0.45594000000E+02  0.51100000000E-03 0. -1.
    9900012    2    1    2    0    0  0.12781356472E+02  0.89866383291E+01 -0.10322635939E+02  0.72461560017E+02  0.69999986611E+02 0.  0.
         24    2    3    3    0    0  0.27605439339E+02  0.72824395767E+01 -0.54758143557E+01  0.56772410710E+02  0.48765027096E+02 0.  0.
        -12    1    1    2    0    0 -0.12781356472E+02 -0.89866383291E+01  0.10322635939E+02  0.18726439983E+02  0.00000000000E+00 0.  1.
         11    1    3    3    0    0 -0.14824082867E+02  0.17041987523E+01 -0.48468215832E+01  0.15689149307E+02  0.51100000000E-03 0. -1.
        -11    1    4    4    0    0  0.40103151251E+02  0.43473488453E+01  0.43974369438E+01  0.40577082623E+02  0.51100000000E-03 0.  1.
         12    1    4    4    0    0 -0.12497711912E+02  0.29350907315E+01 -0.98732512995E+01  0.16195328087E+02  0.00000000000E+00 0. -1.
</event>
<event>
 7    1  0.1905073E-013  0.7246163E+02  0.7816164E-02  0.1226708E+00
        -11   -1    0    0    0    0  0.00000000000E+00  0.00000000000E+00  0.45593999997E+02  0.45594000000E+02  0.51100000000E-03 0.  1.
         11   -1    0    0    0    0 -0.00000000000E+00 -0.00000000000E+00 -0.45593999997E+02  0.45594000000E+02  0.51100000000E-03 0. -1.
    9900012    2    1    2    0    0  0.12063275642E+02  0.87382769214E+01 -0.11348867316E+02  0.72461631102E+02  0.70000079213E+02 0.  0.
        -12    1    1    2    0    0 -0.12063275642E+02 -0.87382769214E+01  0.11348867316E+02  0.18726368898E+02  0.00000000000E+00 0.  1.
         11    1    3    3    0    0  0.85006578506E+01 -0.89370740539E+01 -0.39294083457E+01  0.12944988480E+02  0.51100000000E-03 0. -1.
        -11    1    3    3    0    0  0.21731374206E+02  0.25403359293E+02 -0.17074580167E+02  0.37538308118E+02  0.51100000000E-03 0.  1.
        -12    1    3    3    0    0 -0.18168756415E+02 -0.77280083173E+01  0.96551211964E+01  0.21978334503E+02  0.00000000000E+00 0.  1.
</event>
<event>
 7    1  0.1905073E-013  0.7246159E+02  0.7816164E-02  0.1226708E+00
        -11   -1    0    0    0    0  0.00000000000E+00  0.00000000000E+00  0.45593999997E+02  0.45594000000E+02  0.51100000000E-03 0.  1.
         11   -1    0    0    0    0 -0.00000000000E+00 -0.00000000000E+00 -0.45593999997E+02  0.45594000000E+02  0.51100000000E-03 0. -1.
    9900012    2    1    2    0    0  0.59239679738E-01  0.13715246736E+02 -0.12750174604E+02  0.72461589377E+02  0.70000024859E+02 0.  0.
        -12    1    1    2    0    0 -0.59239679738E-01 -0.13715246736E+02  0.12750174604E+02  0.18726410623E+02  0.00000000000E+00 0.  1.
         11    1    3    3    0    0 -0.27470161134E+02 -0.17600608789E+01  0.78679806710E+01  0.28628878552E+02  0.51100000000E-03 0. -1.
        -11    1    3    3    0    0  0.20088611393E+02  0.21007292552E+02 -0.18037632325E+02  0.34208402889E+02  0.51100000000E-03 0.  1.
        -12    1    3    3    0    0  0.74407894215E+01 -0.55319849364E+01 -0.25805229508E+01  0.96243079362E+01  0.00000000000E+00 0.  1.
</event>
<event>
 7    1  0.1905073E-013  0.7246154E+02  0.7816164E-02  0.1226708E+00
        -11   -1    0    0    0    0  0.00000000000E+00  0.00000000000E+00  0.45593999997E+02  0.45594000000E+02  0.51100000000E-03 0.  1.
         11   -1    0    0    0    0 -0.00000000000E+00 -0.00000000000E+00 -0.45593999997E+02  0.45594000000E+02  0.51100000000E-03 0. -1.
    9900012    2    1    2    0    0  0.15602122082E+02 -0.10191767255E+02 -0.18390582951E+01  0.72461535607E+02  0.69999954814E+02 0.  0.
        -12    1    1    2    0    0 -0.15602122082E+02  0.10191767255E+02  0.18390582951E+01  0.18726464393E+02  0.00000000000E+00 0.  1.
         11    1    3    3    0    0 -0.16440052379E+02  0.15760470379E+02  0.49931977324E+01  0.23315226197E+02  0.51100000000E-03 0. -1.
        -11    1    3    3    0    0  0.18302119482E+02 -0.10407776183E+02 -0.16020167136E+02  0.26456287305E+02  0.51100000000E-03 0.  1.
        -12    1    3    3    0    0  0.13740054978E+02 -0.15544461451E+02  0.91879111087E+01  0.22690022106E+02  0.00000000000E+00 0.  1.
</event>
<event>
 7    1  0.1905073E-013  0.7246174E+02  0.7816164E-02  0.1226708E+00
        -11   -1    0    0    0    0  0.00000000000E+00  0.00000000000E+00  0.45593999997E+02  0.45594000000E+02  0.51100000000E-03 0. -1.
         11   -1    0    0    0    0 -0.00000000000E+00 -0.00000000000E+00 -0.45593999997E+02  0.45594000000E+02  0.51100000000E-03 0.  1.
    9900012    2    1    2    0    0  0.36142274792E+01 -0.15241630661E+02  0.10261713062E+02  0.72461743021E+02  0.70000225008E+02 0.  0.
        -12    1    1    2    0    0 -0.36142274792E+01  0.15241630661E+02 -0.10261713062E+02  0.18726256979E+02  0.00000000000E+00 0.  1.
         11    1    3    3    0    0 -0.18577026582E+02 -0.11540586632E+02 -0.11869141793E+02  0.24883078258E+02  0.51100000000E-03 0.  1.
        -11    1    3    3    0    0  0.51053818245E+01 -0.44445126384E+01  0.28527456363E+02  0.29319522216E+02  0.51100000000E-03 0. -1.
        -12    1    3    3    0    0  0.17085872237E+02  0.74346860871E+00 -0.63966015089E+01  0.18259142547E+02  0.00000000000E+00 0.  1.
</event>
<event>
 7    1  0.1973587E-013  0.7246156E+02  0.7816164E-02  0.1226708E+00
        -11   -1    0    0    0    0  0.00000000000E+00  0.00000000000E+00  0.45593999997E+02  0.45594000000E+02  0.51100000000E-03 0. -1.
         11   -1    0    0    0    0 -0.00000000000E+00 -0.00000000000E+00 -0.45593999997E+02  0.45594000000E+02  0.51100000000E-03 0.  1.
    9900012    2    1    2    0    0  0.15884110273E+02  0.51579106010E+01  0.84717433781E+01  0.72461563158E+02  0.69999990704E+02 0.  0.
        -12    1    1    2    0    0 -0.15884110273E+02 -0.51579106010E+01 -0.84717433781E+01  0.18726436842E+02  0.00000000000E+00 0.  1.
         11    1    3    3    0    0 -0.86824381960E+01 -0.11825319971E+02  0.14939944116E+02  0.20938597276E+02  0.51100000000E-03 0. -1.
        -11    1    3    3    0    0 -0.22978012440E+01  0.21825941563E+02 -0.97769391350E+01  0.24025822666E+02  0.51100000000E-03 0.  1.
         12    1    3    3    0    0  0.26864349713E+02 -0.48427109913E+01  0.33087383971E+01  0.27497143216E+02  0.00000000000E+00 0. -1.
</event>
<event>
 7    1  0.1905073E-013  0.7246156E+02  0.7816164E-02  0.1226708E+00
        -11   -1    0    0    0    0  0.00000000000E+00  0.00000000000E+00  0.45593999997E+02  0.45594000000E+02  0.51100000000E-03 0. -1.
         11   -1    0    0    0    0 -0.00000000000E+00 -0.00000000000E+00 -0.45593999997E+02  0.45594000000E+02  0.51100000000E-03 0.  1.
    9900012    2    1    2    0    0 -0.60491190557E+01  0.17212048473E+02  0.42229308117E+01  0.72461558837E+02  0.69999985075E+02 0.  0.
        -12    1    1    2    0    0  0.60491190557E+01 -0.17212048473E+02 -0.42229308117E+01  0.18726441163E+02  0.00000000000E+00 0.  1.
         11    1    3    3    0    0  0.17403097404E+02  0.11559770725E+02  0.71494047570E+01  0.22081895007E+02  0.51100000000E-03 0. -1.
        -11    1    3    3    0    0 -0.19998988716E+02  0.15235367276E+02 -0.18887341620E+02  0.31445311883E+02  0.51100000000E-03 0.  1.
        -12    1    3    3    0    0 -0.34532277437E+01 -0.95830895281E+01  0.15960867674E+02  0.18934351948E+02  0.00000000000E+00 0.  1.
</event>
<event>
 7    1  0.1905073E-013  0.7246152E+02  0.7816164E-02  0.1226708E+00
        -11   -1    0    0    0    0  0.00000000000E+00  0.00000000000E+00  0.45593999997E+02  0.45594000000E+02  0.51100000000E-03 0.  1.
         11   -1    0    0    0    0 -0.00000000000E+00 -0.00000000000E+00 -0.45593999997E+02  0.45594000000E+02  0.51100000000E-03 0. -1.
    9900012    2    1    2    0    0 -0.16477123510E+02  0.37137677169E+01 -0.80866061855E+01  0.72461524907E+02  0.69999940874E+02 0.  0.
        -12    1    1    2    0    0  0.16477123510E+02 -0.37137677169E+01  0.80866061855E+01  0.18726475093E+02  0.00000000000E+00 0.  1.
         11    1    3    3    0    0 -0.10737860876E+02 -0.17458916943E+02  0.36970820265E+01  0.20827478311E+02  0.51100000000E-03 0. -1.
        -11    1    3    3    0    0 -0.14248225515E+02  0.28550130531E+02 -0.20031750622E+02  0.37674831345E+02  0.51100000000E-03 0.  1.
        -12    1    3    3    0    0  0.85089628812E+01 -0.73774458704E+01  0.82480624102E+01  0.13959215250E+02  0.00000000000E+00 0.  1.
</event>
<event>
 7    1  0.1905073E-013  0.7246155E+02  0.7816164E-02  0.1226708E+00
        -11   -1    0    0    0    0  0.00000000000E+00  0.00000000000E+00  0.45593999997E+02  0.45594000000E+02  0.51100000000E-03 0.  1.
         11   -1    0    0    0    0 -0.00000000000E+00 -0.00000000000E+00 -0.45593999997E+02  0.45594000000E+02  0.51100000000E-03 0. -1.
    9900012    2    1    2    0    0 -0.70041206253E+01  0.12415241089E+02 -0.12144304746E+02  0.72461546658E+02  0.69999969209E+02 0.  0.
        -12    1    1    2    0    0  0.70041206253E+01 -0.12415241089E+02  0.12144304746E+02  0.18726453342E+02  0.00000000000E+00 0.  1.
         11    1    3    3    0    0  0.10829468969E+02  0.12241813999E+02  0.20081508196E+02  0.25892206932E+02  0.51100000000E-03 0.  1.
        -11    1    3    3    0    0 -0.14110036447E+02 -0.12481139242E+02 -0.11717177340E+02  0.22184774292E+02  0.51100000000E-03 0. -1.
         12    1    3    3    0    0 -0.37235531477E+01  0.12654566333E+02 -0.20508635602E+02  0.24384565433E+02  0.00000000000E+00 0. -1.
</event>
<event>
 7    1  0.1905073E-013  0.7246153E+02  0.7816164E-02  0.1226708E+00
        -11   -1    0    0    0    0  0.00000000000E+00  0.00000000000E+00  0.45593999997E+02  0.45594000000E+02  0.51100000000E-03 0.  1.
         11   -1    0    0    0    0 -0.00000000000E+00 -0.00000000000E+00 -0.45593999997E+02  0.45594000000E+02  0.51100000000E-03 0. -1.
    9900012    2    1    2    0    0 -0.18373902316E+01 -0.71306902028E+01 -0.17217950325E+02  0.72461533194E+02  0.69999951670E+02 0.  0.
        -12    1    1    2    0    0  0.18373902316E+01  0.71306902028E+01  0.17217950325E+02  0.18726466806E+02  0.00000000000E+00 0.  1.
         11    1    3    3    0    0 -0.67831456004E+01 -0.10229852572E+02 -0.25818776114E+02  0.28587937109E+02  0.51100000000E-03 0. -1.
        -11    1    3    3    0    0 -0.15313067596E+02  0.12509495090E+02  0.85329652712E+01  0.21535761031E+02  0.51100000000E-03 0.  1.
        -12    1    3    3    0    0  0.20258822965E+02 -0.94103327209E+01  0.67860517764E-01  0.22337835054E+02  0.00000000000E+00 0.  1.
</event>
<event>
 7    1  0.1905073E-013  0.7246161E+02  0.7816164E-02  0.1226708E+00
        -11   -1    0    0    0    0  0.00000000000E+00  0.00000000000E+00  0.45593999997E+02  0.45594000000E+02  0.51100000000E-03 0. -1.
         11   -1    0    0    0    0 -0.00000000000E+00 -0.00000000000E+00 -0.45593999997E+02  0.45594000000E+02  0.51100000000E-03 0.  1.
    9900012    2    1    2    0    0  0.10874267364E+02 -0.25680476104E+01  0.15027748128E+02  0.72461607581E+02  0.70000048573E+02 0.  0.
        -12    1    1    2    0    0 -0.10874267364E+02  0.25680476104E+01 -0.15027748128E+02  0.18726392419E+02  0.00000000000E+00 0.  1.
         11    1    3    3    0    0 -0.15323641703E+01  0.59018115594E+01 -0.18659437208E+02  0.19630438528E+02  0.51100000000E-03 0.  1.
        -11    1    3    3    0    0  0.21180134321E+02  0.69893700366E+01  0.23249760497E+02  0.32218018977E+02  0.51100000000E-03 0. -1.
         12    1    3    3    0    0 -0.87735027868E+01 -0.15459229206E+02  0.10437424838E+02  0.20613150076E+02  0.00000000000E+00 0. -1.
</event>
<event>
 7    1  0.1905073E-013  0.7246156E+02  0.7816164E-02  0.1226708E+00
        -11   -1    0    0    0    0  0.00000000000E+00  0.00000000000E+00  0.45593999997E+02  0.45594000000E+02  0.51100000000E-03 0. -1.
         11   -1    0    0    0    0 -0.00000000000E+00 -0.00000000000E+00 -0.45593999997E+02  0.45594000000E+02  0.51100000000E-03 0.  1.
    9900012    2    1    2    0    0 -0.14664665377E+02  0.94740429673E+01  0.67727125050E+01  0.72461560524E+02  0.69999987273E+02 0.  0.
        -12    1    1    2    0    0  0.14664665377E+02 -0.94740429673E+01 -0.67727125050E+01  0.18726439476E+02  0.00000000000E+00 0.  1.
         11    1    3    3    0    0  0.33984600322E+01  0.36510899057E+01  0.14812682797E+02  0.15629957134E+02  0.51100000000E-03 0. -1.
        -11    1    3    3    0    0 -0.16589125322E+02 -0.22463527873E+02 -0.34530655869E+01  0.28137747346E+02  0.51100000000E-03 0.  1.
        -12    1    3    3    0    0 -0.14740000864E+01  0.28286480935E+02 -0.45869047054E+01  0.28693856045E+02  0.00000000000E+00 0.  1.
</event>
<event>
 7    1  0.1905073E-013  0.7246161E+02  0.7816164E-02  0.1226708E+00
        -11   -1    0    0    0    0  0.00000000000E+00  0.00000000000E+00  0.45593999997E+02  0.45594000000E+02  0.51100000000E-03 0.  1.
         11   -1    0    0    0    0 -0.00000000000E+00 -0.00000000000E+00 -0.45593999997E+02  0.45594000000E+02  0.51100000000E-03 0. -1.
    9900012    2    1    2    0    0  0.36207592540E+01  0.18290476098E+02 -0.17396314187E+01  0.72461608705E+02  0.70000050037E+02 0.  0.
        -12    1    1    2    0    0 -0.36207592540E+01 -0.18290476098E+02  0.17396314187E+01  0.18726391295E+02  0.00000000000E+00 0.  1.
         11    1    3    3    0    0  0.11053012276E+02  0.47699497730E+00 -0.26850265884E+02  0.29040202872E+02  0.51100000000E-03 0. -1.
        -11    1    3    3    0    0  0.35323345338E+01  0.23003056933E+02  0.15795550395E+02  0.28126809774E+02  0.51100000000E-03 0.  1.
        -12    1    3    3    0    0 -0.10964587556E+02 -0.51895758121E+01  0.93150840697E+01  0.15294596059E+02  0.00000000000E+00 0.  1.
</event>
<event>
 7    1  0.1905073E-013  0.7246088E+02  0.7816164E-02  0.1226710E+00
        -11   -1    0    0    0    0  0.00000000000E+00  0.00000000000E+00  0.45593999997E+02  0.45594000000E+02  0.51100000000E-03 0. -1.
         11   -1    0    0    0    0 -0.00000000000E+00 -0.00000000000E+00 -0.45593999997E+02  0.45594000000E+02  0.51100000000E-03 0.  1.
    9900012    2    1    2    0    0 -0.28348996485E+01  0.12600305627E+02  0.13561001518E+02  0.72460877421E+02  0.69999097398E+02 0.  0.
        -12    1    1    2    0    0  0.28348996485E+01 -0.12600305627E+02 -0.13561001518E+02  0.18727122579E+02  0.00000000000E+00 0.  1.
         11    1    3    3    0    0  0.11657661096E+01  0.16699922918E+02  0.25882935181E+02  0.30824872586E+02  0.51100000000E-03 0. -1.
        -11    1    3    3    0    0  0.13867636715E+02 -0.13668641390E+02 -0.52280930524E+01  0.20161251517E+02  0.51100000000E-03 0.  1.
        -12    1    3    3    0    0 -0.17868302473E+02  0.95690240991E+01 -0.70938406105E+01  0.21474753318E+02  0.00000000000E+00 0.  1.
</event>
<event>
 7    1  0.1905073E-013  0.7246150E+02  0.7816164E-02  0.1226708E+00
        -11   -1    0    0    0    0  0.00000000000E+00  0.00000000000E+00  0.45593999997E+02  0.45594000000E+02  0.51100000000E-03 0.  1.
         11   -1    0    0    0    0 -0.00000000000E+00 -0.00000000000E+00 -0.45593999997E+02  0.45594000000E+02  0.51100000000E-03 0. -1.
    9900012    2    1    2    0    0 -0.10929973018E+02  0.12074793180E+02 -0.92421343524E+01  0.72461495043E+02  0.69999901971E+02 0.  0.
        -12    1    1    2    0    0  0.10929973018E+02 -0.12074793180E+02  0.92421343524E+01  0.18726504957E+02  0.00000000000E+00 0.  1.
         11    1    3    3    0    0  0.77417952723E+01 -0.21029070879E+01 -0.41320521785E+01  0.90239385928E+01  0.51100000000E-03 0. -1.
        -11    1    3    3    0    0 -0.28828778544E+02 -0.14849591850E+02 -0.38816416442E+01  0.32660006009E+02  0.51100000000E-03 0.  1.
        -12    1    3    3    0    0  0.10157010253E+02  0.29027292118E+02 -0.12284405296E+01  0.30777550440E+02  0.00000000000E+00 0.  1.
</event>
<event>
 7    1  0.1905073E-013  0.7246154E+02  0.7816164E-02  0.1226708E+00
        -11   -1    0    0    0    0  0.00000000000E+00  0.00000000000E+00  0.45593999997E+02  0.45594000000E+02  0.51100000000E-03 0.  1.
         11   -1    0    0    0    0 -0.00000000000E+00 -0.00000000000E+00 -0.45593999997E+02  0.45594000000E+02  0.51100000000E-03 0. -1.
    9900012    2    1    2    0    0  0.75077790645E+01 -0.10672743218E+02 -0.13431536701E+02  0.72461538176E+02  0.69999958160E+02 0.  0.
        -12    1    1    2    0    0 -0.75077790645E+01  0.10672743218E+02  0.13431536701E+02  0.18726461824E+02  0.00000000000E+00 0.  1.
         11    1    3    3    0    0  0.41366862539E+01  0.15300100347E+02  0.12632026755E+02  0.20267544103E+02  0.51100000000E-03 0. -1.
        -11    1    3    3    0    0  0.17523299648E+02 -0.24679592280E+02 -0.21983055662E+02  0.37408595833E+02  0.51100000000E-03 0.  1.
         12    1    3    3    0    0 -0.14152206838E+02 -0.12932512847E+01 -0.40805077945E+01  0.14785398240E+02  0.00000000000E+00 0. -1.
</event>
<event>
 7    1  0.1905073E-013  0.7246168E+02  0.7816164E-02  0.1226708E+00
        -11   -1    0    0    0    0  0.00000000000E+00  0.00000000000E+00  0.45593999997E+02  0.45594000000E+02  0.51100000000E-03 0. -1.
         11   -1    0    0    0    0 -0.00000000000E+00 -0.00000000000E+00 -0.45593999997E+02  0.45594000000E+02  0.51100000000E-03 0.  1.
    9900012    2    1    2    0    0  0.15415196493E+02 -0.10160462715E+01  0.10583692861E+02  0.72461676615E+02  0.70000138503E+02 0.  0.
        -12    1    1    2    0    0 -0.15415196493E+02  0.10160462715E+01 -0.10583692861E+02  0.18726323385E+02  0.00000000000E+00 0.  1.
         11    1    3    3    0    0 -0.64740909558E+01  0.26720658821E+02 -0.10372225936E+02  0.29385209420E+02  0.51100000000E-03 0. -1.
        -11    1    3    3    0    0  0.20076775199E+02 -0.20454978407E+02  0.11208497646E+02  0.30775208590E+02  0.51100000000E-03 0.  1.
        -12    1    3    3    0    0  0.18125122499E+01 -0.72817266855E+01  0.97474211502E+01  0.12301258605E+02  0.00000000000E+00 0.  1.
</event>
<event>
 7    1  0.1905073E-013  0.7246152E+02  0.7816164E-02  0.1226708E+00
        -11   -1    0    0    0    0  0.00000000000E+00  0.00000000000E+00  0.45593999997E+02  0.45594000000E+02  0.51100000000E-03 0.  1.
         11   -1    0    0    0    0 -0.00000000000E+00 -0.00000000000E+00 -0.45593999997E+02  0.45594000000E+02  0.51100000000E-03 0. -1.
    9900012    2    1    2    0    0  0.41486375629E+01 -0.83362900093E+01 -0.16247338150E+02  0.72461523510E+02  0.69999939055E+02 0.  0.
        -12    1    1    2    0    0 -0.41486375629E+01  0.83362900093E+01  0.16247338150E+02  0.18726476490E+02  0.00000000000E+00 0.  1.
         11    1    3    3    0    0  0.35462033806E+02 -0.36591043717E+00 -0.54824648865E+01  0.35885194072E+02  0.51100000000E-03 0. -1.
        -11    1    3    3    0    0 -0.12083220502E+02 -0.66621180928E+01 -0.10433718591E+02  0.17298858895E+02  0.51100000000E-03 0.  1.
         12    1    3    3    0    0 -0.19230175741E+02 -0.13082614794E+01 -0.33115467311E+00  0.19277470543E+02  0.00000000000E+00 0. -1.
</event>
<event>
 7    1  0.1905073E-013  0.7246186E+02  0.7816164E-02  0.1226707E+00
        -11   -1    0    0    0    0  0.00000000000E+00  0.00000000000E+00  0.45593999997E+02  0.45594000000E+02  0.51100000000E-03 0. -1.
         11   -1    0    0    0    0 -0.00000000000E+00 -0.00000000000E+00 -0.45593999997E+02  0.45594000000E+02  0.51100000000E-03 0.  1.
    9900012    2    1    2    0    0  0.93019859469E+00 -0.13317166649E+02  0.13132253637E+02  0.72461860981E+02  0.70000378672E+02 0.  0.
        -12    1    1    2    0    0 -0.93019859469E+00  0.13317166649E+02 -0.13132253637E+02  0.18726139019E+02  0.00000000000E+00 0.  1.
         11    1    3    3    0    0 -0.14281558526E+02 -0.33538576062E+01 -0.86343537560E+01  0.17022436366E+02  0.51100000000E-03 0.  1.
        -11    1    3    3    0    0  0.14014876998E+02 -0.21497134167E+02  0.31266436119E+02  0.40449148106E+02  0.51100000000E-03 0. -1.
         12    1    3    3    0    0  0.11968801225E+01  0.11533825124E+02 -0.94998287255E+01  0.14990276509E+02  0.00000000000E+00 0. -1.
</event>
<event>
 7    1  0.1905073E-013  0.7246161E+02  0.7816164E-02  0.1226708E+00
        -11   -1    0    0    0    0  0.00000000000E+00  0.00000000000E+00  0.45593999997E+02  0.45594000000E+02  0.51100000000E-03 0.  1.
         11   -1    0    0    0    0 -0.00000000000E+00 -0.00000000000E+00 -0.45593999997E+02  0.45594000000E+02  0.51100000000E-03 0. -1.
    9900012    2    1    2    0    0 -0.32563754661E+01 -0.12000225274E+02 -0.14002432754E+02  0.72461614582E+02  0.70000057693E+02 0.  0.
        -12    1    1    2    0    0  0.32563754661E+01  0.12000225274E+02  0.14002432754E+02  0.18726385418E+02  0.00000000000E+00 0.  1.
         11    1    3    3    0    0  0.31604430380E+01 -0.18072997791E+00 -0.33467592111E+02  0.33616971688E+02  0.51100000000E-03 0. -1.
        -11    1    3    3    0    0  0.80908916631E+01 -0.14208272026E+02  0.17601483883E+02  0.24023941330E+02  0.51100000000E-03 0.  1.
        -12    1    3    3    0    0 -0.14507710167E+02  0.23887767301E+01  0.18636754746E+01  0.14820701564E+02  0.00000000000E+00 0.  1.
</event>
<event>
 7    1  0.1905073E-013  0.7246161E+02  0.7816164E-02  0.1226708E+00
        -11   -1    0    0    0    0  0.00000000000E+00  0.00000000000E+00  0.45593999997E+02  0.45594000000E+02  0.51100000000E-03 0. -1.
         11   -1    0    0    0    0 -0.00000000000E+00 -0.00000000000E+00 -0.45593999997E+02  0.45594000000E+02  0.51100000000E-03 0.  1.
    9900012    2    1    2    0    0  0.80062734022E+01 -0.22860130738E+01  0.16773538415E+02  0.72461605245E+02  0.70000045530E+02 0.  0.
        -12    1    1    2    0    0 -0.80062734022E+01  0.22860130738E+01 -0.16773538415E+02  0.18726394755E+02  0.00000000000E+00 0.  1.
         11    1    3    3    0    0  0.36017529705E+02  0.24674756061E+01  0.21015169391E+02  0.41773056229E+02  0.51100000000E-03 0. -1.
        -11    1    3    3    0    0 -0.11007576340E+02  0.21851875359E+01  0.17777531604E+01  0.11362314377E+02  0.51100000000E-03 0.  1.
         12    1    3    3    0    0 -0.17003679963E+02 -0.69386762158E+01 -0.60193841368E+01  0.19326234638E+02  0.00000000000E+00 0. -1.
</event>
<event>
 7    1  0.1905073E-013  0.7246156E+02  0.7816164E-02  0.1226708E+00
        -11   -1    0    0    0    0  0.00000000000E+00  0.00000000000E+00  0.45593999997E+02  0.45594000000E+02  0.51100000000E-03 0.  1.
         11   -1    0    0    0    0 -0.00000000000E+00 -0.00000000000E+00 -0.45593999997E+02  0.45594000000E+02  0.51100000000E-03 0. -1.
    9900012    2    1    2    0    0 -0.12980232223E+02 -0.45518815281E+01 -0.12707225224E+02  0.72461558083E+02  0.69999984092E+02 0.  0.
        -12    1    1    2    0    0  0.12980232223E+02  0.45518815281E+01  0.12707225224E+02  0.18726441917E+02  0.00000000000E+00 0.  1.
         11    1    3    3    0    0 -0.30116750272E+02  0.84309774305E+01 -0.17824585069E+02  0.35997442416E+02  0.51100000000E-03 0. -1.
        -11    1    3    3    0    0  0.11390149960E+02  0.78630155857E+01  0.53522501018E+01  0.14839444451E+02  0.51100000000E-03 0.  1.
         12    1    3    3    0    0  0.57463680897E+01 -0.20845874544E+02 -0.23489025706E+00  0.21624671215E+02  0.00000000000E+00 0. -1.
</event>
<event>
 7    1  0.1905073E-013  0.7246153E+02  0.7816164E-02  0.1226708E+00
        -11   -1    0    0    0    0  0.00000000000E+00  0.00000000000E+00  0.45593999997E+02  0.45594000000E+02  0.51100000000E-03 0.  1.
         11   -1    0    0    0    0 -0.00000000000E+00 -0.00000000000E+00 -0.45593999997E+02  0.45594000000E+02  0.51100000000E-03 0. -1.
    9900012    2    1    2    0    0 -0.43124953186E+01  0.14504004910E+02 -0.11032531379E+02  0.72461534158E+02  0.69999952926E+02 0.  0.
        -12    1    1    2    0    0  0.43124953186E+01 -0.14504004910E+02  0.11032531379E+02  0.18726465842E+02  0.00000000000E+00 0.  1.
         11    1    3    3    0    0  0.15842908277E+02 -0.45328096598E+01 -0.97162160550E+01  0.19129792491E+02  0.51100000000E-03 0. -1.
        -11    1    3    3    0    0 -0.74153088110E+01 -0.11001138273E+01  0.20000777660E+02  0.21359498179E+02  0.51100000000E-03 0.  1.
        -12    1    3    3    0    0 -0.12740094784E+02  0.20136928397E+02 -0.21317092984E+02  0.31972243488E+02  0.00000000000E+00 0.  1.
</event>
<event>
 7    1  0.1905073E-013  0.7246164E+02  0.7816164E-02  0.1226708E+00
        -11   -1    0    0    0    0  0.00000000000E+00  0.00000000000E+00  0.45593999997E+02  0.45594000000E+02  0.51100000000E-03 0.  1.
         11   -1    0    0    0    0 -0.00000000000E+00 -0.00000000000E+00 -0.45593999997E+02  0.45594000000E+02  0.51100000000E-03 0. -1.
    9900012    2    1    2    0    0 -0.11079570652E+02  0.65566279949E+01 -0.13598901935E+02  0.72461644500E+02  0.70000096666E+02 0.  0.
        -12    1    1    2    0    0  0.11079570652E+02 -0.65566279949E+01  0.13598901935E+02  0.18726355500E+02  0.00000000000E+00 0.  1.
         11    1    3    3    0    0 -0.19132995790E+01 -0.94715114480E+01 -0.17747003627E+02  0.20207087430E+02  0.51100000000E-03 0. -1.
        -11    1    3    3    0    0 -0.23059738095E+02  0.25294894379E+02 -0.24090226300E+01  0.34313067379E+02  0.51100000000E-03 0.  1.
        -12    1    3    3    0    0  0.13893467022E+02 -0.92667549364E+01  0.65571243221E+01  0.17941489691E+02  0.00000000000E+00 0.  1.
</event>
<event>
 7    1  0.1905073E-013  0.7246164E+02  0.7816164E-02  0.1226708E+00
        -11   -1    0    0    0    0  0.00000000000E+00  0.00000000000E+00  0.45593999997E+02  0.45594000000E+02  0.51100000000E-03 0. -1.
         11   -1    0    0    0    0 -0.00000000000E+00 -0.00000000000E+00 -0.45593999997E+02  0.45594000000E+02  0.51100000000E-03 0.  1.
    9900012    2    1    2    0    0  0.18079243267E+02 -0.44419111337E+01  0.20216053250E+01  0.72461641579E+02  0.70000092861E+02 0.  0.
        -12    1    1    2    0    0 -0.18079243267E+02  0.44419111337E+01 -0.20216053250E+01  0.18726358421E+02  0.00000000000E+00 0.  1.
         11    1    3    3    0    0 -0.22911168728E+02  0.66364591831E+01  0.88721269033E+01  0.25449535930E+02  0.51100000000E-03 0. -1.
        -11    1    3    3    0    0  0.21914569906E+02 -0.12511275849E+02 -0.10851144176E+02  0.27468668110E+02  0.51100000000E-03 0.  1.
         12    1    3    3    0    0  0.19075842090E+02  0.14329055324E+01  0.40006225980E+01  0.19543437540E+02  0.00000000000E+00 0. -1.
</event>
<event>
 7    1  0.1905073E-013  0.7246155E+02  0.7816164E-02  0.1226708E+00
        -11   -1    0    0    0    0  0.00000000000E+00  0.00000000000E+00  0.45593999997E+02  0.45594000000E+02  0.51100000000E-03 0.  1.
         11   -1    0    0    0    0 -0.00000000000E+00 -0.00000000000E+00 -0.45593999997E+02  0.45594000000E+02  0.51100000000E-03 0. -1.
    9900012    2    1    2    0    0  0.50992582019E+01 -0.18017906496E+02  0.18032130582E+00  0.72461550670E+02  0.69999974436E+02 0.  0.
        -12    1    1    2    0    0 -0.50992582019E+01  0.18017906496E+02 -0.18032130582E+00  0.18726449330E+02  0.00000000000E+00 0.  1.
         11    1    3    3    0    0  0.24086715344E+02 -0.22494951377E+02  0.17074061982E+02  0.37117600762E+02  0.51100000000E-03 0. -1.
        -11    1    3    3    0    0 -0.19525894159E+02 -0.32524253691E+01 -0.38400995037E+01  0.20163957398E+02  0.51100000000E-03 0.  1.
         12    1    3    3    0    0  0.53843701698E+00  0.77294702499E+01 -0.13053641173E+02  0.15179992511E+02  0.00000000000E+00 0. -1.
</event>
<event>
 7    1  0.1905073E-013  0.7246162E+02  0.7816164E-02  0.1226708E+00
        -11   -1    0    0    0    0  0.00000000000E+00  0.00000000000E+00  0.45593999997E+02  0.45594000000E+02  0.51100000000E-03 0.  1.
         11   -1    0    0    0    0 -0.00000000000E+00 -0.00000000000E+00 -0.45593999997E+02  0.45594000000E+02  0.51100000000E-03 0. -1.
    9900012    2    1    2    0    0 -0.17624350599E+02 -0.50862433874E+01  0.37669275961E+01  0.72461618894E+02  0.70000063310E+02 0.  0.
        -12    1    1    2    0    0  0.17624350599E+02  0.50862433874E+01 -0.37669275961E+01  0.18726381106E+02  0.00000000000E+00 0.  1.
         11    1    3    3    0    0  0.90751872799E+01  0.13866016704E+02 -0.48812419563E+01  0.17275762406E+02  0.51100000000E-03 0. -1.
        -11    1    3    3    0    0 -0.36097115148E+00 -0.20955866914E+02 -0.96283225416E+01  0.23064762160E+02  0.51100000000E-03 0.  1.
         12    1    3    3    0    0 -0.26338566727E+02  0.20036068222E+01  0.18276492094E+02  0.32121094327E+02  0.00000000000E+00 0. -1.
</event>
<event>
 7    1  0.1905073E-013  0.7246164E+02  0.7816164E-02  0.1226708E+00
        -11   -1    0    0    0    0  0.00000000000E+00  0.00000000000E+00  0.45593999997E+02  0.45594000000E+02  0.51100000000E-03 0.  1.
         11   -1    0    0    0    0 -0.00000000000E+00 -0.00000000000E+00 -0.45593999997E+02  0.45594000000E+02  0.51100000000E-03 0. -1.
    9900012    2    1    2    0    0  0.16739330996E+02  0.76391523028E+01 -0.34806389746E+01  0.72461636291E+02  0.70000085972E+02 0.  0.
        -12    1    1    2    0    0 -0.16739330996E+02 -0.76391523028E+01  0.34806389746E+01  0.18726363709E+02  0.00000000000E+00 0.  1.
         11    1    3    3    0    0  0.35625218348E+02  0.23103263228E+02 -0.77339363128E+01  0.43159364282E+02  0.51100000000E-03 0. -1.
        -11    1    3    3    0    0 -0.24147804790E+01 -0.72778016852E+01  0.73830892952E+01  0.10644602855E+02  0.51100000000E-03 0.  1.
         12    1    3    3    0    0 -0.16471106872E+02 -0.81863092396E+01 -0.31297919571E+01  0.18657669154E+02  0.00000000000E+00 0. -1.
</event>
<event>
 7    1  0.1905073E-013  0.7246156E+02  0.7816164E-02  0.1226708E+00
        -11   -1    0    0    0    0  0.00000000000E+00  0.00000000000E+00  0.45593999997E+02  0.45594000000E+02  0.51100000000E-03 0.  1.
         11   -1    0    0    0    0 -0.00000000000E+00 -0.00000000000E+00 -0.45593999997E+02  0.45594000000E+02  0.51100000000E-03 0. -1.
    9900012    2    1    2    0    0  0.26715211386E+01  0.15246874469E+02  0.10539235992E+02  0.72461556089E+02  0.69999981495E+02 0.  0.
        -12    1    1    2    0    0 -0.26715211386E+01 -0.15246874469E+02 -0.10539235992E+02  0.18726443911E+02  0.00000000000E+00 0.  1.
         11    1    3    3    0    0 -0.10742281282E+01  0.20565407321E+01 -0.98543146063E+01  0.10123776098E+02  0.51100000000E-03 0. -1.
        -11    1    3    3    0    0 -0.13384402751E+02 -0.18523862739E+02  0.84549908551E+01  0.24367244375E+02  0.51100000000E-03 0.  1.
        -12    1    3    3    0    0  0.17130152018E+02  0.31714196476E+02  0.11938559744E+02  0.37970535617E+02  0.00000000000E+00 0.  1.
</event>
