<event>
 7    1  0.3383281E-011  0.5052888E+02  0.7816164E-02  0.1300439E+00
        -11   -1    0    0    0    0  0.00000000000E+00  0.00000000000E+00  0.45593999997E+02  0.45594000000E+02  0.51100000000E-03 0.  1.
         11   -1    0    0    0    0 -0.00000000000E+00 -0.00000000000E+00 -0.45593999997E+02  0.45594000000E+02  0.51100000000E-03 0. -1.
    9900012    2    1    2    0    0 -0.86473172880E+01  0.17910297867E+02  0.35462784895E+02  0.50528880747E+02  0.30000063518E+02 0.  0.
         12    1    1    2    0    0  0.86473172880E+01 -0.17910297867E+02 -0.35462784895E+02  0.40659119253E+02  0.00000000000E+00 0. -1.
         11    1    3    3    0    0  0.15373474761E+01 -0.63607416772E+01  0.16826075976E+02  0.18053789213E+02  0.51100000000E-03 0. -1.
        -11    1    3    3    0    0 -0.23231359943E+01  0.98462336634E+01  0.80840521579E+01  0.12949794506E+02  0.51100000000E-03 0.  1.
        -12    1    3    3    0    0 -0.78615287698E+01  0.14424805881E+02  0.10552656761E+02  0.19525297027E+02  0.00000000000E+00 0.  1.
</event>
<event>
 7    1  0.3383281E-011  0.5052886E+02  0.7816164E-02  0.1300439E+00
        -11   -1    0    0    0    0  0.00000000000E+00  0.00000000000E+00  0.45593999997E+02  0.45594000000E+02  0.51100000000E-03 0.  1.
         11   -1    0    0    0    0 -0.00000000000E+00 -0.00000000000E+00 -0.45593999997E+02  0.45594000000E+02  0.51100000000E-03 0. -1.
    9900012    2    1    2    0    0  0.13667225946E+02  0.98591236731E+01  0.37002299736E+02  0.50528861170E+02  0.30000004011E+02 0.  0.
         12    1    1    2    0    0 -0.13667225946E+02 -0.98591236731E+01 -0.37002299736E+02  0.40659138830E+02  0.00000000000E+00 0. -1.
         11    1    3    3    0    0  0.67106306861E+01  0.40601056243E+01  0.32900828542E+01  0.85053904869E+01  0.51100000000E-03 0. -1.
        -11    1    3    3    0    0  0.60927219442E+00 -0.55342434123E+01  0.26675398962E+02  0.27250247206E+02  0.51100000000E-03 0.  1.
         12    1    3    3    0    0  0.63473230660E+01  0.11333261461E+02  0.70368179195E+01  0.14773223476E+02  0.00000000000E+00 0. -1.
</event>
<event>
 7    1  0.3383281E-011  0.5052886E+02  0.7816164E-02  0.1300439E+00
        -11   -1    0    0    0    0  0.00000000000E+00  0.00000000000E+00  0.45593999997E+02  0.45594000000E+02  0.51100000000E-03 0.  1.
         11   -1    0    0    0    0 -0.00000000000E+00 -0.00000000000E+00 -0.45593999997E+02  0.45594000000E+02  0.51100000000E-03 0. -1.
    9900012    2    1    2    0    0 -0.32216517482E+02  0.13776021716E+02  0.20627241253E+02  0.50528857674E+02  0.29999993385E+02 0.  0.
         12    1    1    2    0    0  0.32216517482E+02 -0.13776021716E+02 -0.20627241253E+02  0.40659142326E+02  0.00000000000E+00 0. -1.
         11    1    3    3    0    0 -0.19847758221E+02  0.14277321296E+02  0.88293876931E+01  0.25994874438E+02  0.51100000000E-03 0. -1.
        -11    1    3    3    0    0 -0.13177869430E+02  0.63368916543E+01  0.78332033684E+01  0.16588294482E+02  0.51100000000E-03 0.  1.
         12    1    3    3    0    0  0.80911016923E+00 -0.68381912337E+01  0.39646501921E+01  0.79456887530E+01  0.00000000000E+00 0. -1.
</event>
<event>
 7    1  0.3383281E-011  0.5052886E+02  0.7816164E-02  0.1300439E+00
        -11   -1    0    0    0    0  0.00000000000E+00  0.00000000000E+00  0.45593999997E+02  0.45594000000E+02  0.51100000000E-03 0.  1.
         11   -1    0    0    0    0 -0.00000000000E+00 -0.00000000000E+00 -0.45593999997E+02  0.45594000000E+02  0.51100000000E-03 0. -1.
    9900012    2    1    2    0    0  0.78322910618E+01  0.76627269128E+01  0.39154864698E+02  0.50528860849E+02  0.30000003036E+02 0.  0.
         12    1    1    2    0    0 -0.78322910618E+01 -0.76627269128E+01 -0.39154864698E+02  0.40659139151E+02  0.00000000000E+00 0. -1.
         11    1    3    3    0    0 -0.28258442973E+01 -0.11606381338E+01  0.29698235521E+01  0.42605550181E+01  0.51100000000E-03 0. -1.
        -11    1    3    3    0    0 -0.56142810087E+00  0.19726941237E+01  0.32570070598E+02  0.32634586294E+02  0.51100000000E-03 0.  1.
         12    1    3    3    0    0  0.11219563460E+02  0.68506709229E+01  0.36149705483E+01  0.13633719536E+02  0.00000000000E+00 0. -1.
</event>
<event>
 7    1  0.3383281E-011  0.5052887E+02  0.7816164E-02  0.1300439E+00
        -11   -1    0    0    0    0  0.00000000000E+00  0.00000000000E+00  0.45593999997E+02  0.45594000000E+02  0.51100000000E-03 0.  1.
         11   -1    0    0    0    0 -0.00000000000E+00 -0.00000000000E+00 -0.45593999997E+02  0.45594000000E+02  0.51100000000E-03 0. -1.
    9900012    2    1    2    0    0  0.17907837938E+02  0.13113811339E+02  0.34066149010E+02  0.50528865530E+02  0.30000017265E+02 0.  0.
         12    1    1    2    0    0 -0.17907837938E+02 -0.13113811339E+02 -0.34066149010E+02  0.40659134470E+02  0.00000000000E+00 0. -1.
         11    1    3    3    0    0 -0.30078462333E+01  0.20134029685E+01 -0.47237899870E+00  0.36502154260E+01  0.51100000000E-03 0. -1.
        -11    1    3    3    0    0  0.69901309019E+00  0.36892117205E+01  0.21243037471E+02  0.21572332829E+02  0.51100000000E-03 0.  1.
        -12    1    3    3    0    0  0.20216671081E+02  0.74111966496E+01  0.13295490538E+02  0.25306317275E+02  0.00000000000E+00 0.  1.
</event>
<event>
 7    1  0.3383281E-011  0.5052886E+02  0.7816164E-02  0.1300439E+00
        -11   -1    0    0    0    0  0.00000000000E+00  0.00000000000E+00  0.45593999997E+02  0.45594000000E+02  0.51100000000E-03 0.  1.
         11   -1    0    0    0    0 -0.00000000000E+00 -0.00000000000E+00 -0.45593999997E+02  0.45594000000E+02  0.51100000000E-03 0. -1.
    9900012    2    1    2    0    0 -0.23458123940E+02  0.29387818964E+02  0.15467331794E+02  0.50528857915E+02  0.29999994119E+02 0.  0.
         12    1    1    2    0    0  0.23458123940E+02 -0.29387818964E+02 -0.15467331794E+02  0.40659142085E+02  0.00000000000E+00 0. -1.
         11    1    3    3    0    0 -0.42233472879E+01 -0.52926308351E+01  0.51210490824E+00  0.67904974169E+01  0.51100000000E-03 0. -1.
        -11    1    3    3    0    0 -0.91513970114E+01  0.83327956857E+01  0.14507712952E+01  0.12461472177E+02  0.51100000000E-03 0.  1.
        -12    1    3    3    0    0 -0.10083379641E+02  0.26347654114E+02  0.13504455591E+02  0.31276888321E+02  0.00000000000E+00 0.  1.
</event>
<event>
 7    1  0.3383281E-011  0.5052888E+02  0.7816164E-02  0.1300439E+00
        -11   -1    0    0    0    0  0.00000000000E+00  0.00000000000E+00  0.45593999997E+02  0.45594000000E+02  0.51100000000E-03 0.  1.
         11   -1    0    0    0    0 -0.00000000000E+00 -0.00000000000E+00 -0.45593999997E+02  0.45594000000E+02  0.51100000000E-03 0. -1.
    9900012    2    1    2    0    0 -0.20850908577E+02  0.27892491014E+02  0.20986010433E+02  0.50528879530E+02  0.30000059820E+02 0.  0.
         12    1    1    2    0    0  0.20850908577E+02 -0.27892491014E+02 -0.20986010433E+02  0.40659120470E+02  0.00000000000E+00 0. -1.
         11    1    3    3    0    0 -0.11533778551E+01 -0.25881107903E+01  0.49773111891E+01  0.57273226619E+01  0.51100000000E-03 0.  1.
        -11    1    3    3    0    0 -0.21301110891E+02  0.18160552801E+02  0.16266287728E+02  0.32374914979E+02  0.51100000000E-03 0. -1.
         12    1    3    3    0    0  0.16035801689E+01  0.12320049004E+02 -0.25758848324E+00  0.12426641889E+02  0.00000000000E+00 0. -1.
</event>
<event>
 7    1  0.3383281E-011  0.5052886E+02  0.7816164E-02  0.1300439E+00
        -11   -1    0    0    0    0  0.00000000000E+00  0.00000000000E+00  0.45593999997E+02  0.45594000000E+02  0.51100000000E-03 0.  1.
         11   -1    0    0    0    0 -0.00000000000E+00 -0.00000000000E+00 -0.45593999997E+02  0.45594000000E+02  0.51100000000E-03 0. -1.
    9900012    2    1    2    0    0 -0.85561885664E+01 -0.30857171534E+02  0.25055782249E+02  0.50528860536E+02  0.30000002085E+02 0.  0.
         12    1    1    2    0    0  0.85561885664E+01  0.30857171534E+02 -0.25055782249E+02  0.40659139464E+02  0.00000000000E+00 0. -1.
         11    1    3    3    0    0 -0.47104396026E+01 -0.83749826005E+01 -0.34380386315E+00  0.96149246573E+01  0.51100000000E-03 0. -1.
        -11    1    3    3    0    0 -0.84308194360E+01 -0.12699965246E+02  0.23043758516E+01  0.15416808423E+02  0.51100000000E-03 0.  1.
         12    1    3    3    0    0  0.45850704722E+01 -0.97822236870E+01  0.23095210261E+02  0.25497127456E+02  0.00000000000E+00 0. -1.
</event>
<event>
 7    1  0.3383281E-011  0.5052886E+02  0.7816164E-02  0.1300439E+00
        -11   -1    0    0    0    0  0.00000000000E+00  0.00000000000E+00  0.45593999997E+02  0.45594000000E+02  0.51100000000E-03 0.  1.
         11   -1    0    0    0    0 -0.00000000000E+00 -0.00000000000E+00 -0.45593999997E+02  0.45594000000E+02  0.51100000000E-03 0. -1.
    9900012    2    1    2    0    0  0.83563108742E+01 -0.38265677048E+02  0.10912196820E+02  0.50528855754E+02  0.29999987549E+02 0.  0.
         12    1    1    2    0    0 -0.83563108742E+01  0.38265677048E+02 -0.10912196820E+02  0.40659144246E+02  0.00000000000E+00 0. -1.
         11    1    3    3    0    0  0.71781740326E+01 -0.11711541831E+01 -0.22555095853E+01  0.76147953560E+01  0.51100000000E-03 0. -1.
        -11    1    3    3    0    0  0.64626420706E+01 -0.49450172280E+01  0.40024626342E+01  0.90685525480E+01  0.51100000000E-03 0.  1.
         12    1    3    3    0    0 -0.52845052290E+01 -0.32149505637E+02  0.91652437707E+01  0.33845507850E+02  0.00000000000E+00 0. -1.
</event>
<event>
 7    1  0.4211049E-011  0.5052887E+02  0.7816164E-02  0.1300439E+00
        -11   -1    0    0    0    0  0.00000000000E+00  0.00000000000E+00  0.45593999997E+02  0.45594000000E+02  0.51100000000E-03 0.  1.
         11   -1    0    0    0    0 -0.00000000000E+00 -0.00000000000E+00 -0.45593999997E+02  0.45594000000E+02  0.51100000000E-03 0. -1.
    9900012    2    1    2    0    0 -0.17090078741E+02  0.34386295950E+02  0.13367011765E+02  0.50528866413E+02  0.30000019949E+02 0.  0.
         12    1    1    2    0    0  0.17090078741E+02 -0.34386295950E+02 -0.13367011765E+02  0.40659133587E+02  0.00000000000E+00 0. -1.
         11    1    3    3    0    0 -0.97304184712E+01  0.92912931984E+01 -0.18633573668E+01  0.13582388371E+02  0.51100000000E-03 0. -1.
        -11    1    3    3    0    0 -0.63828134897E+01  0.28764461974E+02  0.11516133780E+02  0.31634726460E+02  0.51100000000E-03 0.  1.
         12    1    3    3    0    0 -0.97684677988E+00 -0.36694592226E+01  0.37142353519E+01  0.53117515819E+01  0.00000000000E+00 0. -1.
</event>
<event>
 7    1  0.3383281E-011  0.5052887E+02  0.7816164E-02  0.1300439E+00
        -11   -1    0    0    0    0  0.00000000000E+00  0.00000000000E+00  0.45593999997E+02  0.45594000000E+02  0.51100000000E-03 0. -1.
         11   -1    0    0    0    0 -0.00000000000E+00 -0.00000000000E+00 -0.45593999997E+02  0.45594000000E+02  0.51100000000E-03 0.  1.
    9900012    2    1    2    0    0 -0.29795283639E+02  0.54729844552E+01 -0.27119231260E+02  0.50528865846E+02  0.30000018226E+02 0.  0.
         12    1    1    2    0    0  0.29795283639E+02 -0.54729844552E+01  0.27119231260E+02  0.40659134154E+02  0.00000000000E+00 0. -1.
         11    1    3    3    0    0 -0.99960301396E+01  0.77007110470E+01 -0.14079963393E+02  0.18906796095E+02  0.51100000000E-03 0.  1.
        -11    1    3    3    0    0  0.88459078550E+00  0.15358278932E+01 -0.10264380320E+02  0.10416274372E+02  0.51100000000E-03 0. -1.
        -12    1    3    3    0    0 -0.20683844285E+02 -0.37635544851E+01 -0.27748875476E+01  0.21205795379E+02  0.00000000000E+00 0.  1.
</event>
<event>
 7    1  0.3383281E-011  0.5052885E+02  0.7816164E-02  0.1300439E+00
        -11   -1    0    0    0    0  0.00000000000E+00  0.00000000000E+00  0.45593999997E+02  0.45594000000E+02  0.51100000000E-03 0.  1.
         11   -1    0    0    0    0 -0.00000000000E+00 -0.00000000000E+00 -0.45593999997E+02  0.45594000000E+02  0.51100000000E-03 0. -1.
    9900012    2    1    2    0    0  0.75971507420E+00 -0.38449186975E+02  0.13200348106E+02  0.50528851753E+02  0.29999975389E+02 0.  0.
         12    1    1    2    0    0 -0.75971507420E+00  0.38449186975E+02 -0.13200348106E+02  0.40659148247E+02  0.00000000000E+00 0. -1.
         11    1    3    3    0    0  0.15845557511E+01  0.30300816925E+01 -0.13220066411E+01  0.36660488011E+01  0.51100000000E-03 0. -1.
        -11    1    3    3    0    0 -0.22550589649E+01 -0.37143564596E+01 -0.29246832658E+01  0.52378914947E+01  0.51100000000E-03 0.  1.
        -12    1    3    3    0    0  0.14302182880E+01 -0.37764912208E+02  0.17447038012E+02  0.41624911457E+02  0.00000000000E+00 0.  1.
</event>
<event>
 7    1  0.3383281E-011  0.5052885E+02  0.7816164E-02  0.1300439E+00
        -11   -1    0    0    0    0  0.00000000000E+00  0.00000000000E+00  0.45593999997E+02  0.45594000000E+02  0.51100000000E-03 0.  1.
         11   -1    0    0    0    0 -0.00000000000E+00 -0.00000000000E+00 -0.45593999997E+02  0.45594000000E+02  0.51100000000E-03 0. -1.
    9900012    2    1    2    0    0 -0.18762379311E+01  0.30584658413E+02  0.26724980247E+02  0.50528853818E+02  0.29999981666E+02 0.  0.
         12    1    1    2    0    0  0.18762379311E+01 -0.30584658413E+02 -0.26724980247E+02  0.40659146182E+02  0.00000000000E+00 0. -1.
         11    1    3    3    0    0  0.16919770554E+01  0.45724843361E+01  0.59122190278E+01  0.76632064733E+01  0.51100000000E-03 0. -1.
        -11    1    3    3    0    0 -0.49956322820E+01  0.20170823944E+02  0.27110325644E+02  0.34158282118E+02  0.51100000000E-03 0.  1.
         12    1    3    3    0    0  0.14274172955E+01  0.58413501334E+01 -0.62975644247E+01  0.87073652272E+01  0.00000000000E+00 0. -1.
</event>
<event>
 7    1  0.3383281E-011  0.5052887E+02  0.7816164E-02  0.1300439E+00
        -11   -1    0    0    0    0  0.00000000000E+00  0.00000000000E+00  0.45593999997E+02  0.45594000000E+02  0.51100000000E-03 0.  1.
         11   -1    0    0    0    0 -0.00000000000E+00 -0.00000000000E+00 -0.45593999997E+02  0.45594000000E+02  0.51100000000E-03 0. -1.
    9900012    2    1    2    0    0 -0.22981132819E+02 -0.10180462863E+02  0.31959203958E+02  0.50528868094E+02  0.30000025057E+02 0.  0.
         12    1    1    2    0    0  0.22981132819E+02  0.10180462863E+02 -0.31959203958E+02  0.40659131906E+02  0.00000000000E+00 0. -1.
         11    1    3    3    0    0 -0.25002403664E+01  0.39529012096E+01  0.10197592176E+02  0.11219069316E+02  0.51100000000E-03 0. -1.
        -11    1    3    3    0    0 -0.75346812698E+01  0.51409309606E+01  0.34988680977E+01  0.97694765062E+01  0.51100000000E-03 0.  1.
         12    1    3    3    0    0 -0.12946211183E+02 -0.19274295033E+02  0.18262743685E+02  0.29540322271E+02  0.00000000000E+00 0. -1.
</event>
<event>
 7    1  0.3383281E-011  0.5052886E+02  0.7816164E-02  0.1300439E+00
        -11   -1    0    0    0    0  0.00000000000E+00  0.00000000000E+00  0.45593999997E+02  0.45594000000E+02  0.51100000000E-03 0. -1.
         11   -1    0    0    0    0 -0.00000000000E+00 -0.00000000000E+00 -0.45593999997E+02  0.45594000000E+02  0.51100000000E-03 0.  1.
    9900012    2    1    2    0    0  0.27924691676E+02 -0.56025933858E+01 -0.29017034702E+02  0.50528858829E+02  0.29999996897E+02 0.  0.
         12    1    1    2    0    0 -0.27924691676E+02  0.56025933858E+01  0.29017034702E+02  0.40659141171E+02  0.00000000000E+00 0. -1.
         11    1    3    3    0    0  0.12151064706E+02  0.53351873445E+01 -0.14336344325E+02  0.19535694673E+02  0.51100000000E-03 0. -1.
        -11    1    3    3    0    0  0.15513395359E+02 -0.17395349347E+01 -0.15184412894E+02  0.21777461113E+02  0.51100000000E-03 0.  1.
        -12    1    3    3    0    0  0.26023161128E+00 -0.91982457956E+01  0.50372251655E+00  0.92157030432E+01  0.00000000000E+00 0.  1.
</event>
<event>
 7    1  0.3383281E-011  0.5052885E+02  0.7816164E-02  0.1300439E+00
        -11   -1    0    0    0    0  0.00000000000E+00  0.00000000000E+00  0.45593999997E+02  0.45594000000E+02  0.51100000000E-03 0. -1.
         11   -1    0    0    0    0 -0.00000000000E+00 -0.00000000000E+00 -0.45593999997E+02  0.45594000000E+02  0.51100000000E-03 0.  1.
    9900012    2    1    2    0    0  0.21061252334E+02  0.68793819868E+01 -0.34091997321E+02  0.50528849398E+02  0.29999968230E+02 0.  0.
         12    1    1    2    0    0 -0.21061252334E+02 -0.68793819868E+01  0.34091997321E+02  0.40659150602E+02  0.00000000000E+00 0. -1.
         11    1    3    3    0    0  0.54467843477E+01  0.13016475977E+02 -0.12773760562E+02  0.19033262089E+02  0.51100000000E-03 0.  1.
        -11    1    3    3    0    0 -0.93939727235E+00 -0.20213417190E+00 -0.11130901115E+02  0.11172299913E+02  0.51100000000E-03 0. -1.
        -12    1    3    3    0    0  0.16553865258E+02 -0.59349598186E+01 -0.10187335643E+02  0.20323287395E+02  0.00000000000E+00 0.  1.
</event>
<event>
 7    1  0.3383281E-011  0.5052885E+02  0.7816164E-02  0.1300439E+00
        -11   -1    0    0    0    0  0.00000000000E+00  0.00000000000E+00  0.45593999997E+02  0.45594000000E+02  0.51100000000E-03 0. -1.
         11   -1    0    0    0    0 -0.00000000000E+00 -0.00000000000E+00 -0.45593999997E+02  0.45594000000E+02  0.51100000000E-03 0.  1.
    9900012    2    1    2    0    0  0.51847545349E+01  0.11325963814E+02 -0.38704103748E+02  0.50528846260E+02  0.29999958693E+02 0.  0.
         12    1    1    2    0    0 -0.51847545349E+01 -0.11325963814E+02  0.38704103748E+02  0.40659153740E+02  0.00000000000E+00 0. -1.
         11    1    3    3    0    0  0.64221068592E+01 -0.29216375189E+01 -0.26651462232E-01  0.70555037286E+01  0.51100000000E-03 0. -1.
        -11    1    3    3    0    0  0.45083646852E+01  0.38532021552E-01 -0.81276291795E+01  0.92943635173E+01  0.51100000000E-03 0.  1.
        -12    1    3    3    0    0 -0.57457170095E+01  0.14209069311E+02 -0.30549823106E+02  0.34178979014E+02  0.00000000000E+00 0.  1.
</event>
<event>
 7    1  0.3383281E-011  0.5052885E+02  0.7816164E-02  0.1300439E+00
        -11   -1    0    0    0    0  0.00000000000E+00  0.00000000000E+00  0.45593999997E+02  0.45594000000E+02  0.51100000000E-03 0.  1.
         11   -1    0    0    0    0 -0.00000000000E+00 -0.00000000000E+00 -0.45593999997E+02  0.45594000000E+02  0.51100000000E-03 0. -1.
    9900012    2    1    2    0    0  0.17344028202E+02 -0.33566893882E+01  0.36620811797E+02  0.50528849313E+02  0.29999967972E+02 0.  0.
         12    1    1    2    0    0 -0.17344028202E+02  0.33566893882E+01 -0.36620811797E+02  0.40659150687E+02  0.00000000000E+00 0. -1.
         11    1    3    3    0    0 -0.15676981904E+01  0.23060913210E+01  0.51265339311E+01  0.58358448578E+01  0.51100000000E-03 0. -1.
        -11    1    3    3    0    0  0.87882450143E+01  0.97307800104E+01  0.15434051205E+02  0.20251697877E+02  0.51100000000E-03 0.  1.
        -12    1    3    3    0    0  0.10123481378E+02 -0.15393560720E+02  0.16060226661E+02  0.24441306578E+02  0.00000000000E+00 0.  1.
</event>
<event>
 7    1  0.3383281E-011  0.5052889E+02  0.7816164E-02  0.1300439E+00
        -11   -1    0    0    0    0  0.00000000000E+00  0.00000000000E+00  0.45593999997E+02  0.45594000000E+02  0.51100000000E-03 0.  1.
         11   -1    0    0    0    0 -0.00000000000E+00 -0.00000000000E+00 -0.45593999997E+02  0.45594000000E+02  0.51100000000E-03 0. -1.
    9900012    2    1    2    0    0  0.17738800508E+02  0.16308251145E+02  0.32749646589E+02  0.50528887238E+02  0.30000083249E+02 0.  0.
         12    1    1    2    0    0 -0.17738800508E+02 -0.16308251145E+02 -0.32749646589E+02  0.40659112762E+02  0.00000000000E+00 0. -1.
         11    1    3    3    0    0  0.16433993837E+02  0.12781934500E+02  0.29665843612E+02  0.36242465155E+02  0.51100000000E-03 0.  1.
        -11    1    3    3    0    0  0.27959527869E+01  0.83629010688E+01  0.26457305769E+01  0.92062672576E+01  0.51100000000E-03 0. -1.
         12    1    3    3    0    0 -0.14911461166E+01 -0.48365844235E+01  0.43807240029E+00  0.50801548258E+01  0.00000000000E+00 0. -1.
</event>
<event>
 7    1  0.3383281E-011  0.5052886E+02  0.7816164E-02  0.1300439E+00
        -11   -1    0    0    0    0  0.00000000000E+00  0.00000000000E+00  0.45593999997E+02  0.45594000000E+02  0.51100000000E-03 0. -1.
         11   -1    0    0    0    0 -0.00000000000E+00 -0.00000000000E+00 -0.45593999997E+02  0.45594000000E+02  0.51100000000E-03 0.  1.
    9900012    2    1    2    0    0 -0.31023759940E+02 -0.24464450065E+02 -0.96011914722E+01  0.50528857418E+02  0.29999992607E+02 0.  0.
         12    1    1    2    0    0  0.31023759940E+02  0.24464450065E+02  0.96011914722E+01  0.40659142582E+02  0.00000000000E+00 0. -1.
         11    1    3    3    0    0 -0.41056774668E+01  0.28126941557E+01 -0.48240437022E+01  0.69310341059E+01  0.51100000000E-03 0. -1.
        -11    1    3    3    0    0 -0.43695120512E+01 -0.55659382360E+01  0.71883115954E+01  0.10086829426E+02  0.51100000000E-03 0.  1.
        -12    1    3    3    0    0 -0.22548570422E+02 -0.21711205985E+02 -0.11965459365E+02  0.33510993886E+02  0.00000000000E+00 0.  1.
</event>
<event>
 7    1  0.3383281E-011  0.5052887E+02  0.7816164E-02  0.1300439E+00
        -11   -1    0    0    0    0  0.00000000000E+00  0.00000000000E+00  0.45593999997E+02  0.45594000000E+02  0.51100000000E-03 0. -1.
         11   -1    0    0    0    0 -0.00000000000E+00 -0.00000000000E+00 -0.45593999997E+02  0.45594000000E+02  0.51100000000E-03 0.  1.
    9900012    2    1    2    0    0  0.30435415091E+02  0.14197292470E+02 -0.22919140483E+02  0.50528873033E+02  0.30000040071E+02 0.  0.
         12    1    1    2    0    0 -0.30435415091E+02 -0.14197292470E+02  0.22919140483E+02  0.40659126967E+02  0.00000000000E+00 0. -1.
         11    1    3    3    0    0  0.82367104682E+01 -0.58644098850E+00 -0.12472550490E+01  0.83512249275E+01  0.51100000000E-03 0. -1.
        -11    1    3    3    0    0  0.18361536525E+02  0.29700689455E+01 -0.17257313898E+01  0.18680082500E+02  0.51100000000E-03 0.  1.
         12    1    3    3    0    0  0.38371680977E+01  0.11813664513E+02 -0.19946154044E+02  0.23497565606E+02  0.00000000000E+00 0. -1.
</event>
<event>
 7    1  0.3383281E-011  0.5052887E+02  0.7816164E-02  0.1300439E+00
        -11   -1    0    0    0    0  0.00000000000E+00  0.00000000000E+00  0.45593999997E+02  0.45594000000E+02  0.51100000000E-03 0.  1.
         11   -1    0    0    0    0 -0.00000000000E+00 -0.00000000000E+00 -0.45593999997E+02  0.45594000000E+02  0.51100000000E-03 0. -1.
    9900012    2    1    2    0    0  0.37296149322E+02  0.10457279184E+02  0.12361544997E+02  0.50528865271E+02  0.30000016478E+02 0.  0.
         12    1    1    2    0    0 -0.37296149322E+02 -0.10457279184E+02 -0.12361544997E+02  0.40659134729E+02  0.00000000000E+00 0. -1.
         11    1    3    3    0    0  0.76743588372E+01  0.12862304116E+02 -0.18186276882E+01  0.15087811560E+02  0.51100000000E-03 0. -1.
        -11    1    3    3    0    0  0.20814506468E+02  0.38018075507E+01  0.62498318484E+01  0.22062588664E+02  0.51100000000E-03 0.  1.
        -12    1    3    3    0    0  0.88072840168E+01 -0.62068324829E+01  0.79303408367E+01  0.13378465047E+02  0.00000000000E+00 0.  1.
</event>
<event>
 7    1  0.3383281E-011  0.5052886E+02  0.7816164E-02  0.1300439E+00
        -11   -1    0    0    0    0  0.00000000000E+00  0.00000000000E+00  0.45593999997E+02  0.45594000000E+02  0.51100000000E-03 0.  1.
         11   -1    0    0    0    0 -0.00000000000E+00 -0.00000000000E+00 -0.45593999997E+02  0.45594000000E+02  0.51100000000E-03 0. -1.
    9900012    2    1    2    0    0 -0.25463177229E+02  0.21678116253E+02  0.23126851932E+02  0.50528863275E+02  0.30000010412E+02 0.  0.
         12    1    1    2    0    0  0.25463177229E+02 -0.21678116253E+02 -0.23126851932E+02  0.40659136725E+02  0.00000000000E+00 0. -1.
         11    1    3    3    0    0 -0.20241674801E+01  0.28973795744E+01 -0.43218921301E+01  0.55830828609E+01  0.51100000000E-03 0. -1.
        -11    1    3    3    0    0 -0.49778971660E+01  0.19687247487E+01 -0.25381959850E+01  0.59243376382E+01  0.51100000000E-03 0.  1.
        -12    1    3    3    0    0 -0.18461112583E+02  0.16812011930E+02  0.29986940048E+02  0.39021442776E+02  0.00000000000E+00 0.  1.
</event>
<event>
 7    1  0.3383281E-011  0.5052886E+02  0.7816164E-02  0.1300439E+00
        -11   -1    0    0    0    0  0.00000000000E+00  0.00000000000E+00  0.45593999997E+02  0.45594000000E+02  0.51100000000E-03 0.  1.
         11   -1    0    0    0    0 -0.00000000000E+00 -0.00000000000E+00 -0.45593999997E+02  0.45594000000E+02  0.51100000000E-03 0. -1.
    9900012    2    1    2    0    0  0.24500632848E+02 -0.55239988858E+00  0.32443483048E+02  0.50528858987E+02  0.29999997377E+02 0.  0.
         12    1    1    2    0    0 -0.24500632848E+02  0.55239988858E+00 -0.32443483048E+02  0.40659141013E+02  0.00000000000E+00 0. -1.
         11    1    3    3    0    0  0.15936219608E+02  0.32594753068E+01  0.23784691118E+02  0.28814905978E+02  0.51100000000E-03 0.  1.
        -11    1    3    3    0    0  0.40247813059E+01  0.16565879855E+01  0.12778285535E+02  0.13499175153E+02  0.51100000000E-03 0. -1.
         12    1    3    3    0    0  0.45396319343E+01 -0.54684631809E+01 -0.41194936055E+01  0.82147778561E+01  0.00000000000E+00 0. -1.
</event>
<event>
 7    1  0.3383281E-011  0.5052884E+02  0.7816164E-02  0.1300439E+00
        -11   -1    0    0    0    0  0.00000000000E+00  0.00000000000E+00  0.45593999997E+02  0.45594000000E+02  0.51100000000E-03 0.  1.
         11   -1    0    0    0    0 -0.00000000000E+00 -0.00000000000E+00 -0.45593999997E+02  0.45594000000E+02  0.51100000000E-03 0. -1.
    9900012    2    1    2    0    0 -0.11043895181E+02 -0.15724235411E+02  0.35832224000E+02  0.50528837726E+02  0.29999932753E+02 0.  0.
         12    1    1    2    0    0  0.11043895181E+02  0.15724235411E+02 -0.35832224000E+02  0.40659162274E+02  0.00000000000E+00 0. -1.
         11    1    3    3    0    0 -0.61869600270E+01 -0.10894126864E+02  0.10833077818E+02  0.16562489239E+02  0.51100000000E-03 0. -1.
        -11    1    3    3    0    0 -0.46105853953E+01 -0.15580905860E+01  0.28648390147E+02  0.29058826581E+02  0.51100000000E-03 0.  1.
        -12    1    3    3    0    0 -0.24634975834E+00 -0.32720179607E+01 -0.36492439661E+01  0.49075219065E+01  0.00000000000E+00 0.  1.
</event>
<event>
 7    1  0.3383281E-011  0.5052884E+02  0.7816164E-02  0.1300439E+00
        -11   -1    0    0    0    0  0.00000000000E+00  0.00000000000E+00  0.45593999997E+02  0.45594000000E+02  0.51100000000E-03 0.  1.
         11   -1    0    0    0    0 -0.00000000000E+00 -0.00000000000E+00 -0.45593999997E+02  0.45594000000E+02  0.51100000000E-03 0. -1.
    9900012    2    1    2    0    0 -0.16817467570E+02 -0.37323037821E+01  0.36829468592E+02  0.50528842806E+02  0.29999948192E+02 0.  0.
         12    1    1    2    0    0  0.16817467570E+02  0.37323037821E+01 -0.36829468592E+02  0.40659157194E+02  0.00000000000E+00 0. -1.
         11    1    3    3    0    0 -0.82233318015E+01 -0.48227494844E+01  0.14145582592E+02  0.17058124329E+02  0.51100000000E-03 0. -1.
        -11    1    3    3    0    0 -0.10739410094E+02  0.67689887795E+00  0.26761931301E+02  0.28844307731E+02  0.51100000000E-03 0.  1.
         12    1    3    3    0    0  0.21452743255E+01  0.41354682435E+00 -0.40780453010E+01  0.46264107454E+01  0.00000000000E+00 0. -1.
</event>
<event>
 7    1  0.3383281E-011  0.5052886E+02  0.7816164E-02  0.1300439E+00
        -11   -1    0    0    0    0  0.00000000000E+00  0.00000000000E+00  0.45593999997E+02  0.45594000000E+02  0.51100000000E-03 0.  1.
         11   -1    0    0    0    0 -0.00000000000E+00 -0.00000000000E+00 -0.45593999997E+02  0.45594000000E+02  0.51100000000E-03 0. -1.
    9900012    2    1    2    0    0  0.22549710989E+02 -0.33644448608E+02  0.35674807949E+01  0.50528864409E+02  0.30000013856E+02 0.  0.
         12    1    1    2    0    0 -0.22549710989E+02  0.33644448608E+02 -0.35674807949E+01  0.40659135591E+02  0.00000000000E+00 0. -1.
         11    1    3    3    0    0  0.33291102931E+01 -0.22207329217E+02  0.26888358745E+01  0.22615885676E+02  0.51100000000E-03 0. -1.
        -11    1    3    3    0    0  0.71417569865E+01 -0.62717233569E+01  0.84779659357E+01  0.12736369710E+02  0.51100000000E-03 0.  1.
        -12    1    3    3    0    0  0.12078843709E+02 -0.51653960346E+01 -0.75993210152E+01  0.15176609023E+02  0.00000000000E+00 0.  1.
</event>
<event>
 7    1  0.3383281E-011  0.5052872E+02  0.7816164E-02  0.1300439E+00
        -11   -1    0    0    0    0  0.00000000000E+00  0.00000000000E+00  0.45593999997E+02  0.45594000000E+02  0.51100000000E-03 0. -1.
         11   -1    0    0    0    0 -0.00000000000E+00 -0.00000000000E+00 -0.45593999997E+02  0.45594000000E+02  0.51100000000E-03 0.  1.
    9900012    2    1    2    0    0  0.38040111235E+02  0.71993068188E+01 -0.12421644699E+02  0.50528716454E+02  0.29999564131E+02 0.  0.
         12    1    1    2    0    0 -0.38040111235E+02 -0.71993068188E+01  0.12421644699E+02  0.40659283546E+02  0.00000000000E+00 0. -1.
         11    1    3    3    0    0  0.19460758516E+02  0.87334989812E+00 -0.18044637331E+01  0.19563740739E+02  0.51100000000E-03 0. -1.
        -11    1    3    3    0    0  0.13736293982E+02 -0.66190331411E+01 -0.61237057755E+01  0.16431589843E+02  0.51100000000E-03 0.  1.
        -12    1    3    3    0    0  0.48430587366E+01  0.12944990062E+02 -0.44934751902E+01  0.14533385872E+02  0.00000000000E+00 0.  1.
</event>
<event>
 7    1  0.3383281E-011  0.5052887E+02  0.7816164E-02  0.1300439E+00
        -11   -1    0    0    0    0  0.00000000000E+00  0.00000000000E+00  0.45593999997E+02  0.45594000000E+02  0.51100000000E-03 0.  1.
         11   -1    0    0    0    0 -0.00000000000E+00 -0.00000000000E+00 -0.45593999997E+02  0.45594000000E+02  0.51100000000E-03 0. -1.
    9900012    2    1    2    0    0  0.33590497858E+02  0.15013293598E+02  0.17304459648E+02  0.50528869970E+02  0.30000030762E+02 0.  0.
         12    1    1    2    0    0 -0.33590497858E+02 -0.15013293598E+02 -0.17304459648E+02  0.40659130030E+02  0.00000000000E+00 0. -1.
         11    1    3    3    0    0  0.74101461122E+01  0.28885914040E+01  0.43784337363E+00  0.79652955240E+01  0.51100000000E-03 0. -1.
        -11    1    3    3    0    0  0.29506354705E+02  0.15134353913E+02  0.18273134047E+02  0.37862660557E+02  0.51100000000E-03 0.  1.
        -12    1    3    3    0    0 -0.33260029589E+01 -0.30096517186E+01 -0.14065177719E+01  0.47009138890E+01  0.00000000000E+00 0.  1.
</event>
<event>
 7    1  0.3383281E-011  0.5052886E+02  0.7816164E-02  0.1300439E+00
        -11   -1    0    0    0    0  0.00000000000E+00  0.00000000000E+00  0.45593999997E+02  0.45594000000E+02  0.51100000000E-03 0.  1.
         11   -1    0    0    0    0 -0.00000000000E+00 -0.00000000000E+00 -0.45593999997E+02  0.45594000000E+02  0.51100000000E-03 0. -1.
    9900012    2    1    2    0    0 -0.19070049130E+02 -0.54056819223E+01  0.35500392751E+02  0.50528855194E+02  0.29999985848E+02 0.  0.
         12    1    1    2    0    0  0.19070049130E+02  0.54056819223E+01 -0.35500392751E+02  0.40659144806E+02  0.00000000000E+00 0. -1.
         11    1    3    3    0    0 -0.70332524878E+00 -0.75960093341E+01  0.48370904860E+01  0.90327996125E+01  0.51100000000E-03 0. -1.
        -11    1    3    3    0    0 -0.39062158370E+01  0.67708056219E+01  0.23413631163E+02  0.24684012142E+02  0.51100000000E-03 0.  1.
         12    1    3    3    0    0 -0.14460508044E+02 -0.45804782101E+01  0.72496711022E+01  0.16812043440E+02  0.00000000000E+00 0. -1.
</event>
<event>
 7    1  0.3383281E-011  0.5052885E+02  0.7816164E-02  0.1300439E+00
        -11   -1    0    0    0    0  0.00000000000E+00  0.00000000000E+00  0.45593999997E+02  0.45594000000E+02  0.51100000000E-03 0.  1.
         11   -1    0    0    0    0 -0.00000000000E+00 -0.00000000000E+00 -0.45593999997E+02  0.45594000000E+02  0.51100000000E-03 0. -1.
    9900012    2    1    2    0    0  0.31271382302E+02  0.47470275482E-01  0.25985856361E+02  0.50528851763E+02  0.29999975420E+02 0.  0.
         12    1    1    2    0    0 -0.31271382302E+02 -0.47470275482E-01 -0.25985856361E+02  0.40659148237E+02  0.00000000000E+00 0. -1.
         11    1    3    3    0    0  0.18840186298E+02  0.15449468770E+01  0.11799699138E+02  0.22283904070E+02  0.51100000000E-03 0. -1.
        -11    1    3    3    0    0  0.11227144814E+02 -0.94370215199E+01  0.13904124830E+02  0.20209672026E+02  0.51100000000E-03 0.  1.
         12    1    3    3    0    0  0.12040511899E+01  0.79395449184E+01  0.28203239276E+00  0.80352756674E+01  0.00000000000E+00 0. -1.
</event>
<event>
 7    1  0.3383281E-011  0.5052886E+02  0.7816164E-02  0.1300439E+00
        -11   -1    0    0    0    0  0.00000000000E+00  0.00000000000E+00  0.45593999997E+02  0.45594000000E+02  0.51100000000E-03 0.  1.
         11   -1    0    0    0    0 -0.00000000000E+00 -0.00000000000E+00 -0.45593999997E+02  0.45594000000E+02  0.51100000000E-03 0. -1.
    9900012    2    1    2    0    0  0.39741471202E+02 -0.54009066481E+01  0.66791627830E+01  0.50528861526E+02  0.30000005095E+02 0.  0.
         12    1    1    2    0    0 -0.39741471202E+02  0.54009066481E+01 -0.66791627830E+01  0.40659138474E+02  0.00000000000E+00 0. -1.
         11    1    3    3    0    0  0.16863890482E+02 -0.20521870440E+00  0.13014840462E+02  0.21303027705E+02  0.51100000000E-03 0. -1.
        -11    1    3    3    0    0  0.50837479501E+01 -0.24718327057E+01  0.53347606614E+01  0.77726521677E+01  0.51100000000E-03 0.  1.
         12    1    3    3    0    0  0.17793832770E+02 -0.27238552380E+01 -0.11670438340E+02  0.21453181653E+02  0.00000000000E+00 0. -1.
</event>
<event>
 7    1  0.3383281E-011  0.5052887E+02  0.7816164E-02  0.1300439E+00
        -11   -1    0    0    0    0  0.00000000000E+00  0.00000000000E+00  0.45593999997E+02  0.45594000000E+02  0.51100000000E-03 0.  1.
         11   -1    0    0    0    0 -0.00000000000E+00 -0.00000000000E+00 -0.45593999997E+02  0.45594000000E+02  0.51100000000E-03 0. -1.
    9900012    2    1    2    0    0  0.23495085482E+02  0.28504119166E+01  0.33060869929E+02  0.50528868057E+02  0.30000024945E+02 0.  0.
         12    1    1    2    0    0 -0.23495085482E+02 -0.28504119166E+01 -0.33060869929E+02  0.40659131943E+02  0.00000000000E+00 0. -1.
         11    1    3    3    0    0 -0.37158068729E+01  0.16489465635E+01  0.37151350282E+01  0.55071293815E+01  0.51100000000E-03 0.  1.
        -11    1    3    3    0    0  0.44165110641E+01  0.77648542516E+01  0.26667082666E+01  0.93225460454E+01  0.51100000000E-03 0. -1.
        -12    1    3    3    0    0  0.22794381290E+02 -0.65633888986E+01  0.26679026635E+02  0.35699192630E+02  0.00000000000E+00 0.  1.
</event>
<event>
 7    1  0.3383281E-011  0.5052887E+02  0.7816164E-02  0.1300439E+00
        -11   -1    0    0    0    0  0.00000000000E+00  0.00000000000E+00  0.45593999997E+02  0.45594000000E+02  0.51100000000E-03 0. -1.
         11   -1    0    0    0    0 -0.00000000000E+00 -0.00000000000E+00 -0.45593999997E+02  0.45594000000E+02  0.51100000000E-03 0.  1.
    9900012    2    1    2    0    0 -0.37689454249E+02 -0.13153106240E+01 -0.15196713873E+02  0.50528866756E+02  0.30000020991E+02 0.  0.
         12    1    1    2    0    0  0.37689454249E+02  0.13153106240E+01  0.15196713873E+02  0.40659133244E+02  0.00000000000E+00 0. -1.
         11    1    3    3    0    0 -0.43914766222E+01 -0.31708484341E+01 -0.16545670939E+00  0.54191072050E+01  0.51100000000E-03 0. -1.
        -11    1    3    3    0    0  0.44542438425E+01  0.12558531807E+01 -0.50719479259E+00  0.46556097602E+01  0.51100000000E-03 0.  1.
        -12    1    3    3    0    0 -0.37752221469E+02  0.59968462944E+00 -0.14524062371E+02  0.40454149791E+02  0.00000000000E+00 0.  1.
</event>
<event>
 7    1  0.3383281E-011  0.5052887E+02  0.7816164E-02  0.1300439E+00
        -11   -1    0    0    0    0  0.00000000000E+00  0.00000000000E+00  0.45593999997E+02  0.45594000000E+02  0.51100000000E-03 0. -1.
         11   -1    0    0    0    0 -0.00000000000E+00 -0.00000000000E+00 -0.45593999997E+02  0.45594000000E+02  0.51100000000E-03 0.  1.
    9900012    2    1    2    0    0  0.33567922145E+02 -0.22598953366E+02 -0.39556449979E+01  0.50528865507E+02  0.30000017196E+02 0.  0.
         12    1    1    2    0    0 -0.33567922145E+02  0.22598953366E+02  0.39556449979E+01  0.40659134493E+02  0.00000000000E+00 0. -1.
         11    1    3    3    0    0 -0.43577017214E-01 -0.88654605890E+01 -0.83135359387E+01  0.12153730723E+02  0.51100000000E-03 0. -1.
        -11    1    3    3    0    0  0.64064868793E+00 -0.76108017012E-01 -0.20214438079E+01  0.21218997388E+01  0.51100000000E-03 0.  1.
        -12    1    3    3    0    0  0.32970850474E+02 -0.13657384760E+02  0.63793347487E+01  0.36253235046E+02  0.00000000000E+00 0.  1.
</event>
<event>
 7    1  0.3383281E-011  0.5052886E+02  0.7816164E-02  0.1300439E+00
        -11   -1    0    0    0    0  0.00000000000E+00  0.00000000000E+00  0.45593999997E+02  0.45594000000E+02  0.51100000000E-03 0. -1.
         11   -1    0    0    0    0 -0.00000000000E+00 -0.00000000000E+00 -0.45593999997E+02  0.45594000000E+02  0.51100000000E-03 0.  1.
    9900012    2    1    2    0    0 -0.19331650602E+02  0.68012165815E+01 -0.35116892304E+02  0.50528863425E+02  0.30000010866E+02 0.  0.
         12    1    1    2    0    0  0.19331650602E+02 -0.68012165815E+01  0.35116892304E+02  0.40659136575E+02  0.00000000000E+00 0. -1.
         11    1    3    3    0    0 -0.11570104056E+02 -0.47156209254E+01 -0.19084216046E+02  0.22810341754E+02  0.51100000000E-03 0. -1.
        -11    1    3    3    0    0  0.32424098565E+01  0.46477607013E+00  0.20306475685E+01  0.38539289409E+01  0.51100000000E-03 0.  1.
        -12    1    3    3    0    0 -0.11003956402E+02  0.11052061437E+02 -0.18063323826E+02  0.23864592730E+02  0.00000000000E+00 0.  1.
</event>
<event>
 7    1  0.3383281E-011  0.5052885E+02  0.7816164E-02  0.1300439E+00
        -11   -1    0    0    0    0  0.00000000000E+00  0.00000000000E+00  0.45593999997E+02  0.45594000000E+02  0.51100000000E-03 0. -1.
         11   -1    0    0    0    0 -0.00000000000E+00 -0.00000000000E+00 -0.45593999997E+02  0.45594000000E+02  0.51100000000E-03 0.  1.
    9900012    2    1    2    0    0 -0.32490701423E+02  0.11545143497E+02 -0.21546005909E+02  0.50528851116E+02  0.29999973451E+02 0.  0.
         12    1    1    2    0    0  0.32490701423E+02 -0.11545143497E+02  0.21546005909E+02  0.40659148884E+02  0.00000000000E+00 0. -1.
         11    1    3    3    0    0 -0.57361431271E+01 -0.31123424233E+01 -0.10424053956E+02  0.12298411055E+02  0.51100000000E-03 0. -1.
        -11    1    3    3    0    0 -0.15200608246E+02  0.15577572784E+01 -0.13763275676E+02  0.20564845158E+02  0.51100000000E-03 0.  1.
         12    1    3    3    0    0 -0.11553950050E+02  0.13099728642E+02  0.26413237225E+01  0.17665594903E+02  0.00000000000E+00 0. -1.
</event>
<event>
 7    1  0.3383281E-011  0.5052886E+02  0.7816164E-02  0.1300439E+00
        -11   -1    0    0    0    0  0.00000000000E+00  0.00000000000E+00  0.45593999997E+02  0.45594000000E+02  0.51100000000E-03 0.  1.
         11   -1    0    0    0    0 -0.00000000000E+00 -0.00000000000E+00 -0.45593999997E+02  0.45594000000E+02  0.51100000000E-03 0. -1.
    9900012    2    1    2    0    0 -0.11916240892E+02  0.58706613499E+01  0.38427907865E+02  0.50528861242E+02  0.30000004230E+02 0.  0.
         12    1    1    2    0    0  0.11916240892E+02 -0.58706613499E+01 -0.38427907865E+02  0.40659138758E+02  0.00000000000E+00 0. -1.
         11    1    3    3    0    0 -0.36587654328E+01  0.20707454700E+01 -0.13562098824E+01  0.44174491282E+01  0.51100000000E-03 0. -1.
        -11    1    3    3    0    0 -0.12659409394E+02  0.96970743035E+01  0.27753411018E+02  0.32008525734E+02  0.51100000000E-03 0.  1.
        -12    1    3    3    0    0  0.44019339340E+01 -0.58971584237E+01  0.12030706729E+02  0.14102886380E+02  0.00000000000E+00 0.  1.
</event>
<event>
 7    1  0.3383281E-011  0.5052886E+02  0.7816164E-02  0.1300439E+00
        -11   -1    0    0    0    0  0.00000000000E+00  0.00000000000E+00  0.45593999997E+02  0.45594000000E+02  0.51100000000E-03 0.  1.
         11   -1    0    0    0    0 -0.00000000000E+00 -0.00000000000E+00 -0.45593999997E+02  0.45594000000E+02  0.51100000000E-03 0. -1.
    9900012    2    1    2    0    0  0.37514444278E+02 -0.15677981307E+02  0.18077798211E+00  0.50528864396E+02  0.30000013819E+02 0.  0.
         12    1    1    2    0    0 -0.37514444278E+02  0.15677981307E+02 -0.18077798211E+00  0.40659135604E+02  0.00000000000E+00 0. -1.
         11    1    3    3    0    0  0.24572165773E+01  0.14608717894E+01  0.70696402280E+01  0.76257375320E+01  0.51100000000E-03 0. -1.
        -11    1    3    3    0    0 -0.13651420814E+01 -0.27871394679E+01 -0.12729879328E+01  0.33544385304E+01  0.51100000000E-03 0.  1.
        -12    1    3    3    0    0  0.36422369782E+02 -0.14351713628E+02 -0.56158743130E+01  0.39548688334E+02  0.00000000000E+00 0.  1.
</event>
<event>
 7    1  0.3383281E-011  0.5052887E+02  0.7816164E-02  0.1300439E+00
        -11   -1    0    0    0    0  0.00000000000E+00  0.00000000000E+00  0.45593999997E+02  0.45594000000E+02  0.51100000000E-03 0. -1.
         11   -1    0    0    0    0 -0.00000000000E+00 -0.00000000000E+00 -0.45593999997E+02  0.45594000000E+02  0.51100000000E-03 0.  1.
    9900012    2    1    2    0    0 -0.40503426676E+02  0.12566429945E+01  0.33254072452E+01  0.50528867478E+02  0.30000023185E+02 0.  0.
         12    1    1    2    0    0  0.40503426676E+02 -0.12566429945E+01 -0.33254072452E+01  0.40659132522E+02  0.00000000000E+00 0. -1.
         11    1    3    3    0    0  0.16624367659E+01 -0.20403858488E+01  0.26918788896E+01  0.37647154780E+01  0.51100000000E-03 0. -1.
        -11    1    3    3    0    0  0.16519347677E+01  0.14919037946E+01 -0.17692733154E+01  0.28434123399E+01  0.51100000000E-03 0.  1.
        -12    1    3    3    0    0 -0.43817798210E+02  0.18051250487E+01  0.24028016709E+01  0.43920739660E+02  0.00000000000E+00 0.  1.
</event>
<event>
 7    1  0.3383281E-011  0.5052886E+02  0.7816164E-02  0.1300439E+00
        -11   -1    0    0    0    0  0.00000000000E+00  0.00000000000E+00  0.45593999997E+02  0.45594000000E+02  0.51100000000E-03 0.  1.
         11   -1    0    0    0    0 -0.00000000000E+00 -0.00000000000E+00 -0.45593999997E+02  0.45594000000E+02  0.51100000000E-03 0. -1.
    9900012    2    1    2    0    0  0.16756068885E+02 -0.11852307346E+02  0.35098757242E+02  0.50528858422E+02  0.29999995660E+02 0.  0.
         12    1    1    2    0    0 -0.16756068885E+02  0.11852307346E+02 -0.35098757242E+02  0.40659141578E+02  0.00000000000E+00 0. -1.
         11    1    3    3    0    0 -0.31419882767E+01 -0.11654762296E+01  0.36950272381E+01  0.49883516039E+01  0.51100000000E-03 0. -1.
        -11    1    3    3    0    0 -0.37384979206E+01  0.71091325286E+00  0.12852846349E+02  0.13404380772E+02  0.51100000000E-03 0.  1.
        -12    1    3    3    0    0  0.23636555082E+02 -0.11397744369E+02  0.18550883656E+02  0.32136126046E+02  0.00000000000E+00 0.  1.
</event>
<event>
 7    1  0.3383281E-011  0.5052884E+02  0.7816164E-02  0.1300439E+00
        -11   -1    0    0    0    0  0.00000000000E+00  0.00000000000E+00  0.45593999997E+02  0.45594000000E+02  0.51100000000E-03 0.  1.
         11   -1    0    0    0    0 -0.00000000000E+00 -0.00000000000E+00 -0.45593999997E+02  0.45594000000E+02  0.51100000000E-03 0. -1.
    9900012    2    1    2    0    0 -0.17690907853E+02 -0.29221833487E+02  0.22051841459E+02  0.50528837629E+02  0.29999932456E+02 0.  0.
         12    1    1    2    0    0  0.17690907853E+02  0.29221833487E+02 -0.22051841459E+02  0.40659162371E+02  0.00000000000E+00 0. -1.
         11    1    3    3    0    0 -0.10291915011E+02 -0.13293638747E+02 -0.30980026442E+01  0.17095086030E+02  0.51100000000E-03 0. -1.
        -11    1    3    3    0    0 -0.84233890229E+01 -0.15016969745E+02  0.13976722861E+02  0.22176826761E+02  0.51100000000E-03 0.  1.
        -12    1    3    3    0    0  0.10243961805E+01 -0.91122499465E+00  0.11173121242E+02  0.11256924838E+02  0.00000000000E+00 0.  1.
</event>
<event>
 7    1  0.3383281E-011  0.5052886E+02  0.7816164E-02  0.1300439E+00
        -11   -1    0    0    0    0  0.00000000000E+00  0.00000000000E+00  0.45593999997E+02  0.45594000000E+02  0.51100000000E-03 0.  1.
         11   -1    0    0    0    0 -0.00000000000E+00 -0.00000000000E+00 -0.45593999997E+02  0.45594000000E+02  0.51100000000E-03 0. -1.
    9900012    2    1    2    0    0  0.13272381273E+02  0.19415018408E+02  0.33167246657E+02  0.50528864554E+02  0.30000014298E+02 0.  0.
         12    1    1    2    0    0 -0.13272381273E+02 -0.19415018408E+02 -0.33167246657E+02  0.40659135446E+02  0.00000000000E+00 0. -1.
         11    1    3    3    0    0  0.30750126215E+01  0.84364803663E+01 -0.24078260307E+00  0.89826432700E+01  0.51100000000E-03 0. -1.
        -11    1    3    3    0    0 -0.41689744417E+00  0.13687400992E+02  0.19863187527E+02  0.24126022639E+02  0.51100000000E-03 0.  1.
        -12    1    3    3    0    0  0.10614266096E+02 -0.27088629507E+01  0.13544841733E+02  0.17420198644E+02  0.00000000000E+00 0.  1.
</event>
<event>
 7    1  0.3383281E-011  0.5052886E+02  0.7816164E-02  0.1300439E+00
        -11   -1    0    0    0    0  0.00000000000E+00  0.00000000000E+00  0.45593999997E+02  0.45594000000E+02  0.51100000000E-03 0. -1.
         11   -1    0    0    0    0 -0.00000000000E+00 -0.00000000000E+00 -0.45593999997E+02  0.45594000000E+02  0.51100000000E-03 0.  1.
    9900012    2    1    2    0    0 -0.71686613001E+01 -0.37906896231E+02 -0.12839130159E+02  0.50528858962E+02  0.29999997301E+02 0.  0.
         12    1    1    2    0    0  0.71686613001E+01  0.37906896231E+02  0.12839130159E+02  0.40659141038E+02  0.00000000000E+00 0. -1.
         11    1    3    3    0    0 -0.31752061533E+01 -0.96300826948E+01  0.59176076390E+01  0.11740464525E+02  0.51100000000E-03 0. -1.
        -11    1    3    3    0    0  0.31456242346E+01 -0.14498579146E+02 -0.52284190938E+00  0.14845104008E+02  0.51100000000E-03 0.  1.
        -12    1    3    3    0    0 -0.71390793813E+01 -0.13778234390E+02 -0.18233895889E+02  0.23943290430E+02  0.00000000000E+00 0.  1.
</event>
<event>
 7    1  0.4773853E-011  0.5052885E+02  0.7816164E-02  0.1300439E+00
        -11   -1    0    0    0    0  0.00000000000E+00  0.00000000000E+00  0.45593999997E+02  0.45594000000E+02  0.51100000000E-03 0. -1.
         11   -1    0    0    0    0 -0.00000000000E+00 -0.00000000000E+00 -0.45593999997E+02  0.45594000000E+02  0.51100000000E-03 0.  1.
    9900012    2    1    2    0    0  0.38649181107E+02  0.97523722913E+01 -0.80186192890E+01  0.50528853172E+02  0.29999979700E+02 0.  0.
         12    1    1    2    0    0 -0.38649181107E+02 -0.97523722913E+01  0.80186192890E+01  0.40659146828E+02  0.00000000000E+00 0. -1.
         11    1    3    3    0    0  0.10052057494E+02  0.13118034369E+02 -0.60763605010E+01  0.17608203848E+02  0.51100000000E-03 0. -1.
        -11    1    3    3    0    0  0.18425684131E+02  0.11487028947E+00 -0.85380770485E+01  0.20308072061E+02  0.51100000000E-03 0.  1.
         12    1    3    3    0    0  0.10171439482E+02 -0.34805323667E+01  0.65958182605E+01  0.12612577263E+02  0.00000000000E+00 0. -1.
</event>
<event>
 7    1  0.3383281E-011  0.5052886E+02  0.7816164E-02  0.1300439E+00
        -11   -1    0    0    0    0  0.00000000000E+00  0.00000000000E+00  0.45593999997E+02  0.45594000000E+02  0.51100000000E-03 0.  1.
         11   -1    0    0    0    0 -0.00000000000E+00 -0.00000000000E+00 -0.45593999997E+02  0.45594000000E+02  0.51100000000E-03 0. -1.
    9900012    2    1    2    0    0  0.23699449939E+02  0.32741854581E+02  0.44128083537E+01  0.50528857776E+02  0.29999993695E+02 0.  0.
         12    1    1    2    0    0 -0.23699449939E+02 -0.32741854581E+02 -0.44128083537E+01  0.40659142224E+02  0.00000000000E+00 0. -1.
         11    1    3    3    0    0  0.20189679746E+02  0.10434320851E+02  0.34781190239E+01  0.22991205538E+02  0.51100000000E-03 0. -1.
        -11    1    3    3    0    0  0.37387261866E+01  0.22076547675E+02 -0.38692256513E+01  0.22722740551E+02  0.51100000000E-03 0.  1.
         12    1    3    3    0    0 -0.22895599341E+00  0.23098605461E+00  0.48039149812E+01  0.48149116867E+01  0.00000000000E+00 0. -1.
</event>
<event>
 7    1  0.3383281E-011  0.5052886E+02  0.7816164E-02  0.1300439E+00
        -11   -1    0    0    0    0  0.00000000000E+00  0.00000000000E+00  0.45593999997E+02  0.45594000000E+02  0.51100000000E-03 0.  1.
         11   -1    0    0    0    0 -0.00000000000E+00 -0.00000000000E+00 -0.45593999997E+02  0.45594000000E+02  0.51100000000E-03 0. -1.
    9900012    2    1    2    0    0 -0.19521327481E+02 -0.28389052329E+02  0.21590391102E+02  0.50528861954E+02  0.30000006394E+02 0.  0.
         12    1    1    2    0    0  0.19521327481E+02  0.28389052329E+02 -0.21590391102E+02  0.40659138046E+02  0.00000000000E+00 0. -1.
         11    1    3    3    0    0 -0.66406042968E+00 -0.27484215578E+01  0.76674952020E+01  0.81722261501E+01  0.51100000000E-03 0. -1.
        -11    1    3    3    0    0 -0.13999875263E+02 -0.13922548099E+02  0.20162750121E+02  0.28220034473E+02  0.51100000000E-03 0.  1.
        -12    1    3    3    0    0 -0.48573917890E+01 -0.11718082672E+02 -0.62398542209E+01  0.14136601331E+02  0.00000000000E+00 0.  1.
</event>
<event>
 7    1  0.3383281E-011  0.5052886E+02  0.7816164E-02  0.1300439E+00
        -11   -1    0    0    0    0  0.00000000000E+00  0.00000000000E+00  0.45593999997E+02  0.45594000000E+02  0.51100000000E-03 0.  1.
         11   -1    0    0    0    0 -0.00000000000E+00 -0.00000000000E+00 -0.45593999997E+02  0.45594000000E+02  0.51100000000E-03 0. -1.
    9900012    2    1    2    0    0 -0.38067454768E+02  0.64366067827E+01  0.12751646081E+02  0.50528862071E+02  0.30000006750E+02 0.  0.
         12    1    1    2    0    0  0.38067454768E+02 -0.64366067827E+01 -0.12751646081E+02  0.40659137929E+02  0.00000000000E+00 0. -1.
         11    1    3    3    0    0 -0.58876798687E+01  0.44249621669E+00 -0.42641868350E+01  0.72831220478E+01  0.51100000000E-03 0. -1.
        -11    1    3    3    0    0 -0.65849422325E+01  0.10800773676E+02  0.10372828085E+01  0.12692286322E+02  0.51100000000E-03 0.  1.
        -12    1    3    3    0    0 -0.25594832667E+02 -0.48066631099E+01  0.15978550107E+02  0.30553453700E+02  0.00000000000E+00 0.  1.
</event>
<event>
 7    1  0.3383281E-011  0.5052886E+02  0.7816164E-02  0.1300439E+00
        -11   -1    0    0    0    0  0.00000000000E+00  0.00000000000E+00  0.45593999997E+02  0.45594000000E+02  0.51100000000E-03 0. -1.
         11   -1    0    0    0    0 -0.00000000000E+00 -0.00000000000E+00 -0.45593999997E+02  0.45594000000E+02  0.51100000000E-03 0.  1.
    9900012    2    1    2    0    0 -0.37866663127E+02 -0.14397039129E+02 -0.34650993548E+01  0.50528858032E+02  0.29999994474E+02 0.  0.
         12    1    1    2    0    0  0.37866663127E+02  0.14397039129E+02  0.34650993548E+01  0.40659141968E+02  0.00000000000E+00 0. -1.
         11    1    3    3    0    0 -0.50428387743E+01 -0.79895104897E+01  0.41272008159E+00  0.94568937234E+01  0.51100000000E-03 0. -1.
        -11    1    3    3    0    0 -0.30698252351E+02 -0.49648193050E+01  0.52963164328E+01  0.31544937726E+02  0.51100000000E-03 0.  1.
        -12    1    3    3    0    0 -0.21255720021E+01 -0.14427093342E+01 -0.91741358692E+01  0.95270265826E+01  0.00000000000E+00 0.  1.
</event>
<event>
 7    1  0.3383281E-011  0.5052894E+02  0.7816164E-02  0.1300438E+00
        -11   -1    0    0    0    0  0.00000000000E+00  0.00000000000E+00  0.45593999997E+02  0.45594000000E+02  0.51100000000E-03 0.  1.
         11   -1    0    0    0    0 -0.00000000000E+00 -0.00000000000E+00 -0.45593999997E+02  0.45594000000E+02  0.51100000000E-03 0. -1.
    9900012    2    1    2    0    0 -0.37110345897E+02 -0.27641156292E+01  0.16381107493E+02  0.50528944545E+02  0.30000257437E+02 0.  0.
         12    1    1    2    0    0  0.37110345897E+02  0.27641156292E+01 -0.16381107493E+02  0.40659055455E+02  0.00000000000E+00 0. -1.
         11    1    3    3    0    0 -0.26911614784E+02 -0.49984085145E+01  0.11494653796E+02  0.29687474869E+02  0.51100000000E-03 0. -1.
        -11    1    3    3    0    0 -0.12107337002E+02 -0.45472136422E+01  0.14841663851E+01  0.13017968786E+02  0.51100000000E-03 0.  1.
         12    1    3    3    0    0  0.19086058886E+01  0.67815065275E+01  0.34022873112E+01  0.78235008895E+01  0.00000000000E+00 0. -1.
</event>
<event>
 7    1  0.3383281E-011  0.5052886E+02  0.7816164E-02  0.1300439E+00
        -11   -1    0    0    0    0  0.00000000000E+00  0.00000000000E+00  0.45593999997E+02  0.45594000000E+02  0.51100000000E-03 0. -1.
         11   -1    0    0    0    0 -0.00000000000E+00 -0.00000000000E+00 -0.45593999997E+02  0.45594000000E+02  0.51100000000E-03 0.  1.
    9900012    2    1    2    0    0 -0.92076739446E+01  0.37935898143E+02 -0.11368896216E+02  0.50528862915E+02  0.30000009316E+02 0.  0.
         12    1    1    2    0    0  0.92076739446E+01 -0.37935898143E+02  0.11368896216E+02  0.40659137085E+02  0.00000000000E+00 0. -1.
         11    1    3    3    0    0  0.11167528144E+01  0.38338188633E+01  0.37503299974E-01  0.39933332798E+01  0.51100000000E-03 0. -1.
        -11    1    3    3    0    0  0.10643120148E+01  0.25533188113E+02 -0.17564721229E+02  0.31009609598E+02  0.51100000000E-03 0.  1.
         12    1    3    3    0    0 -0.11388738774E+02  0.85688911664E+01  0.61583217135E+01  0.15525920037E+02  0.00000000000E+00 0. -1.
</event>
<event>
 7    1  0.3383281E-011  0.5052885E+02  0.7816164E-02  0.1300439E+00
        -11   -1    0    0    0    0  0.00000000000E+00  0.00000000000E+00  0.45593999997E+02  0.45594000000E+02  0.51100000000E-03 0. -1.
         11   -1    0    0    0    0 -0.00000000000E+00 -0.00000000000E+00 -0.45593999997E+02  0.45594000000E+02  0.51100000000E-03 0.  1.
    9900012    2    1    2    0    0  0.14668540814E+02  0.96250661603E+01 -0.36679125319E+02  0.50528853153E+02  0.29999979644E+02 0.  0.
         12    1    1    2    0    0 -0.14668540814E+02 -0.96250661603E+01  0.36679125319E+02  0.40659146847E+02  0.00000000000E+00 0. -1.
         11    1    3    3    0    0  0.79728858208E+01 -0.23894332090E+01 -0.50252982175E+01  0.97226499375E+01  0.51100000000E-03 0. -1.
        -11    1    3    3    0    0  0.91631693142E+01 -0.32845230396E+01 -0.83752308085E+01  0.12841193669E+02  0.51100000000E-03 0.  1.
         12    1    3    3    0    0 -0.24675143215E+01  0.15299022409E+02 -0.23278596293E+02  0.27965009547E+02  0.00000000000E+00 0. -1.
</event>
<event>
 7    1  0.3383281E-011  0.5052886E+02  0.7816164E-02  0.1300439E+00
        -11   -1    0    0    0    0  0.00000000000E+00  0.00000000000E+00  0.45593999997E+02  0.45594000000E+02  0.51100000000E-03 0. -1.
         11   -1    0    0    0    0 -0.00000000000E+00 -0.00000000000E+00 -0.45593999997E+02  0.45594000000E+02  0.51100000000E-03 0.  1.
    9900012    2    1    2    0    0  0.10320416471E+02  0.21202814789E+02 -0.33122430407E+02  0.50528858996E+02  0.29999997404E+02 0.  0.
         12    1    1    2    0    0 -0.10320416471E+02 -0.21202814789E+02  0.33122430407E+02  0.40659141004E+02  0.00000000000E+00 0. -1.
         11    1    3    3    0    0 -0.20819740365E+01  0.96494661864E+00  0.22169276625E+01  0.31906905816E+01  0.51100000000E-03 0. -1.
        -11    1    3    3    0    0 -0.17464889745E+01 -0.31079281597E+01 -0.15189944747E+01  0.38751497596E+01  0.51100000000E-03 0.  1.
        -12    1    3    3    0    0  0.14148879482E+02  0.23345796330E+02 -0.33820363595E+02  0.43463018655E+02  0.00000000000E+00 0.  1.
</event>
<event>
 7    1  0.3383281E-011  0.5052887E+02  0.7816164E-02  0.1300439E+00
        -11   -1    0    0    0    0  0.00000000000E+00  0.00000000000E+00  0.45593999997E+02  0.45594000000E+02  0.51100000000E-03 0. -1.
         11   -1    0    0    0    0 -0.00000000000E+00 -0.00000000000E+00 -0.45593999997E+02  0.45594000000E+02  0.51100000000E-03 0.  1.
    9900012    2    1    2    0    0 -0.28166899537E+02 -0.36566317327E+01  0.29093297903E+02  0.50528866118E+02  0.30000019052E+02 0.  0.
         12    1    1    2    0    0  0.28166899537E+02  0.36566317327E+01 -0.29093297903E+02  0.40659133882E+02  0.00000000000E+00 0. -1.
         11    1    3    3    0    0 -0.19637574114E+01  0.48272958877E+01  0.68861637665E+01  0.86358775141E+01  0.51100000000E-03 0. -1.
        -11    1    3    3    0    0 -0.15179418302E+02  0.67829420124E+01  0.91423008631E+01  0.18973790018E+02  0.51100000000E-03 0.  1.
         12    1    3    3    0    0 -0.11023723824E+02 -0.15266869633E+02  0.13064833274E+02  0.22919198586E+02  0.00000000000E+00 0. -1.
</event>
<event>
 7    1  0.3383281E-011  0.5052885E+02  0.7816164E-02  0.1300439E+00
        -11   -1    0    0    0    0  0.00000000000E+00  0.00000000000E+00  0.45593999997E+02  0.45594000000E+02  0.51100000000E-03 0.  1.
         11   -1    0    0    0    0 -0.00000000000E+00 -0.00000000000E+00 -0.45593999997E+02  0.45594000000E+02  0.51100000000E-03 0. -1.
    9900012    2    1    2    0    0 -0.11854716289E+02 -0.17340092532E+02  0.34813124742E+02  0.50528846521E+02  0.29999959486E+02 0.  0.
         12    1    1    2    0    0  0.11854716289E+02  0.17340092532E+02 -0.34813124742E+02  0.40659153479E+02  0.00000000000E+00 0. -1.
         11    1    3    3    0    0  0.18857587022E+01 -0.55968970648E+00 -0.30658363401E+01  0.36426214703E+01  0.51100000000E-03 0. -1.
        -11    1    3    3    0    0 -0.46852025874E+01 -0.15940167973E+01 -0.14642399285E+00  0.49511062482E+01  0.51100000000E-03 0.  1.
        -12    1    3    3    0    0 -0.90552724034E+01 -0.15186386028E+02  0.38025385075E+02  0.41935118803E+02  0.00000000000E+00 0.  1.
</event>
<event>
 7    1  0.3383281E-011  0.5052886E+02  0.7816164E-02  0.1300439E+00
        -11   -1    0    0    0    0  0.00000000000E+00  0.00000000000E+00  0.45593999997E+02  0.45594000000E+02  0.51100000000E-03 0.  1.
         11   -1    0    0    0    0 -0.00000000000E+00 -0.00000000000E+00 -0.45593999997E+02  0.45594000000E+02  0.51100000000E-03 0. -1.
    9900012    2    1    2    0    0 -0.34812542304E+02  0.14136256700E+02  0.15537659212E+02  0.50528859467E+02  0.29999998835E+02 0.  0.
         12    1    1    2    0    0  0.34812542304E+02 -0.14136256700E+02 -0.15537659212E+02  0.40659140533E+02  0.00000000000E+00 0. -1.
         11    1    3    3    0    0 -0.98496308119E+00  0.31551738520E+01 -0.18142733937E+01  0.37705254959E+01  0.51100000000E-03 0. -1.
        -11    1    3    3    0    0 -0.20397061590E+02  0.18608568563E+02  0.81861257399E+01  0.28798118000E+02  0.51100000000E-03 0.  1.
        -12    1    3    3    0    0 -0.13430517632E+02 -0.76274857149E+01  0.91658068658E+01  0.17960215970E+02  0.00000000000E+00 0.  1.
</event>
<event>
 7    1  0.3383281E-011  0.5052887E+02  0.7816164E-02  0.1300439E+00
        -11   -1    0    0    0    0  0.00000000000E+00  0.00000000000E+00  0.45593999997E+02  0.45594000000E+02  0.51100000000E-03 0. -1.
         11   -1    0    0    0    0 -0.00000000000E+00 -0.00000000000E+00 -0.45593999997E+02  0.45594000000E+02  0.51100000000E-03 0.  1.
    9900012    2    1    2    0    0  0.22957794661E+02  0.18167404429E+02 -0.28214360939E+02  0.50528867169E+02  0.30000022247E+02 0.  0.
         12    1    1    2    0    0 -0.22957794661E+02 -0.18167404429E+02  0.28214360939E+02  0.40659132831E+02  0.00000000000E+00 0. -1.
         11    1    3    3    0    0  0.11523180090E+01 -0.44937663700E+01 -0.81943894027E+01  0.94164638228E+01  0.51100000000E-03 0. -1.
        -11    1    3    3    0    0  0.56296675854E-01 -0.25037946439E+01 -0.24164977353E+01  0.34801750675E+01  0.51100000000E-03 0.  1.
        -12    1    3    3    0    0  0.21749179976E+02  0.25164965443E+02 -0.17603473801E+02  0.37632228279E+02  0.00000000000E+00 0.  1.
</event>
<event>
 7    1  0.3383281E-011  0.5052886E+02  0.7816164E-02  0.1300439E+00
        -11   -1    0    0    0    0  0.00000000000E+00  0.00000000000E+00  0.45593999997E+02  0.45594000000E+02  0.51100000000E-03 0.  1.
         11   -1    0    0    0    0 -0.00000000000E+00 -0.00000000000E+00 -0.45593999997E+02  0.45594000000E+02  0.51100000000E-03 0. -1.
    9900012    2    1    2    0    0 -0.27039649068E+02  0.43620522324E+01  0.30049886799E+02  0.50528858125E+02  0.29999994756E+02 0.  0.
         12    1    1    2    0    0  0.27039649068E+02 -0.43620522324E+01 -0.30049886799E+02  0.40659141875E+02  0.00000000000E+00 0. -1.
         11    1    3    3    0    0 -0.24344586653E+01  0.17635287184E+01  0.77437258830E+01  0.83067390320E+01  0.51100000000E-03 0. -1.
        -11    1    3    3    0    0 -0.69291412368E+01  0.12542138758E+02  0.39395257226E+01  0.14860622669E+02  0.51100000000E-03 0.  1.
        -12    1    3    3    0    0 -0.17676049166E+02 -0.99436152445E+01  0.18366635193E+02  0.27361496424E+02  0.00000000000E+00 0.  1.
</event>
<event>
 7    1  0.3383281E-011  0.5052885E+02  0.7816164E-02  0.1300439E+00
        -11   -1    0    0    0    0  0.00000000000E+00  0.00000000000E+00  0.45593999997E+02  0.45594000000E+02  0.51100000000E-03 0.  1.
         11   -1    0    0    0    0 -0.00000000000E+00 -0.00000000000E+00 -0.45593999997E+02  0.45594000000E+02  0.51100000000E-03 0. -1.
    9900012    2    1    2    0    0  0.37574911120E+02  0.98398868544E+01  0.12019535828E+02  0.50528848994E+02  0.29999967002E+02 0.  0.
         12    1    1    2    0    0 -0.37574911120E+02 -0.98398868544E+01 -0.12019535828E+02  0.40659151006E+02  0.00000000000E+00 0. -1.
         11    1    3    3    0    0 -0.33843520272E+01 -0.55133695492E+00  0.10116622418E+01  0.35750904652E+01  0.51100000000E-03 0. -1.
        -11    1    3    3    0    0 -0.93337341292E+00 -0.36354284393E+00 -0.16131227492E+01  0.18988192627E+01  0.51100000000E-03 0.  1.
        -12    1    3    3    0    0  0.41892636561E+02  0.10754766653E+02  0.12620996336E+02  0.45054939266E+02  0.00000000000E+00 0.  1.
</event>
<event>
 7    1  0.3383281E-011  0.5052886E+02  0.7816164E-02  0.1300439E+00
        -11   -1    0    0    0    0  0.00000000000E+00  0.00000000000E+00  0.45593999997E+02  0.45594000000E+02  0.51100000000E-03 0.  1.
         11   -1    0    0    0    0 -0.00000000000E+00 -0.00000000000E+00 -0.45593999997E+02  0.45594000000E+02  0.51100000000E-03 0. -1.
    9900012    2    1    2    0    0  0.13934460160E+02  0.10714654524E+02  0.36663231770E+02  0.50528861232E+02  0.30000004202E+02 0.  0.
         12    1    1    2    0    0 -0.13934460160E+02 -0.10714654524E+02 -0.36663231770E+02  0.40659138768E+02  0.00000000000E+00 0. -1.
         11    1    3    3    0    0  0.37223381448E+01  0.10704423300E+02  0.25585596701E+02  0.27983267112E+02  0.51100000000E-03 0.  1.
        -11    1    3    3    0    0  0.14981102726E+01  0.74639342751E+01  0.18692437418E+01  0.78389235026E+01  0.51100000000E-03 0. -1.
        -12    1    3    3    0    0  0.87140117422E+01 -0.74537030513E+01  0.92083913267E+01  0.14706670617E+02  0.00000000000E+00 0.  1.
</event>
<event>
 7    1  0.3383281E-011  0.5052886E+02  0.7816164E-02  0.1300439E+00
        -11   -1    0    0    0    0  0.00000000000E+00  0.00000000000E+00  0.45593999997E+02  0.45594000000E+02  0.51100000000E-03 0.  1.
         11   -1    0    0    0    0 -0.00000000000E+00 -0.00000000000E+00 -0.45593999997E+02  0.45594000000E+02  0.51100000000E-03 0. -1.
    9900012    2    1    2    0    0  0.83810686406E+01 -0.19829558374E+02  0.34492202742E+02  0.50528859000E+02  0.29999997416E+02 0.  0.
         12    1    1    2    0    0 -0.83810686406E+01  0.19829558374E+02 -0.34492202742E+02  0.40659141000E+02  0.00000000000E+00 0. -1.
         11    1    3    3    0    0 -0.12140669571E+01 -0.94409369506E+00 -0.14690998545E+01  0.21268582757E+01  0.51100000000E-03 0. -1.
        -11    1    3    3    0    0 -0.35064488991E+01 -0.92014698083E+01  0.10831567086E+01  0.99063342984E+01  0.51100000000E-03 0.  1.
         12    1    3    3    0    0  0.13101584497E+02 -0.96839948706E+01  0.34878145888E+02  0.38495666426E+02  0.00000000000E+00 0. -1.
</event>
<event>
 7    1  0.3383281E-011  0.5052883E+02  0.7816164E-02  0.1300439E+00
        -11   -1    0    0    0    0  0.00000000000E+00  0.00000000000E+00  0.45593999997E+02  0.45594000000E+02  0.51100000000E-03 0. -1.
         11   -1    0    0    0    0 -0.00000000000E+00 -0.00000000000E+00 -0.45593999997E+02  0.45594000000E+02  0.51100000000E-03 0.  1.
    9900012    2    1    2    0    0  0.14789636252E+02  0.77177787109E+01 -0.37079245685E+02  0.50528832408E+02  0.29999916588E+02 0.  0.
         12    1    1    2    0    0 -0.14789636252E+02 -0.77177787109E+01  0.37079245685E+02  0.40659167592E+02  0.00000000000E+00 0. -1.
         11    1    3    3    0    0  0.26438084586E+01 -0.40793739393E+01 -0.15062075187E+02  0.15827100938E+02  0.51100000000E-03 0. -1.
        -11    1    3    3    0    0 -0.26439931898E+01  0.13548428706E+01 -0.14989205046E+02  0.15280790797E+02  0.51100000000E-03 0.  1.
        -12    1    3    3    0    0  0.14789820983E+02  0.10442309780E+02 -0.70279654514E+01  0.19420940673E+02  0.00000000000E+00 0.  1.
</event>
<event>
 7    1  0.3383281E-011  0.5052886E+02  0.7816164E-02  0.1300439E+00
        -11   -1    0    0    0    0  0.00000000000E+00  0.00000000000E+00  0.45593999997E+02  0.45594000000E+02  0.51100000000E-03 0. -1.
         11   -1    0    0    0    0 -0.00000000000E+00 -0.00000000000E+00 -0.45593999997E+02  0.45594000000E+02  0.51100000000E-03 0.  1.
    9900012    2    1    2    0    0  0.15501973540E+02 -0.34390926705E+02 -0.15169650516E+02  0.50528864249E+02  0.30000013372E+02 0.  0.
         12    1    1    2    0    0 -0.15501973540E+02  0.34390926705E+02  0.15169650516E+02  0.40659135751E+02  0.00000000000E+00 0. -1.
         11    1    3    3    0    0  0.27980061491E+01  0.14917079455E+01 -0.27364198374E+01  0.41883200442E+01  0.51100000000E-03 0. -1.
        -11    1    3    3    0    0  0.15102206984E+02 -0.10469452448E+02 -0.93821290360E+01  0.20632751533E+02  0.51100000000E-03 0.  1.
         12    1    3    3    0    0 -0.23982395933E+01 -0.25413182203E+02 -0.30511016422E+01  0.25707792672E+02  0.00000000000E+00 0. -1.
</event>
<event>
 7    1  0.3383281E-011  0.5052885E+02  0.7816164E-02  0.1300439E+00
        -11   -1    0    0    0    0  0.00000000000E+00  0.00000000000E+00  0.45593999997E+02  0.45594000000E+02  0.51100000000E-03 0.  1.
         11   -1    0    0    0    0 -0.00000000000E+00 -0.00000000000E+00 -0.45593999997E+02  0.45594000000E+02  0.51100000000E-03 0. -1.
    9900012    2    1    2    0    0 -0.22895972419E+02 -0.25065701584E+02  0.22375240327E+02  0.50528851846E+02  0.29999975672E+02 0.  0.
         12    1    1    2    0    0  0.22895972419E+02  0.25065701584E+02 -0.22375240327E+02  0.40659148154E+02  0.00000000000E+00 0. -1.
         11    1    3    3    0    0 -0.12343092373E+02 -0.16928200759E+02  0.23787419558E+02  0.31697905921E+02  0.51100000000E-03 0. -1.
        -11    1    3    3    0    0 -0.16858010375E+01 -0.69888350638E+01  0.41497838547E+01  0.83009907234E+01  0.51100000000E-03 0.  1.
         12    1    3    3    0    0 -0.88670790091E+01 -0.11486657608E+01 -0.55619630863E+01  0.10529955202E+02  0.00000000000E+00 0. -1.
</event>
<event>
 7    1  0.3383281E-011  0.5052886E+02  0.7816164E-02  0.1300439E+00
        -11   -1    0    0    0    0  0.00000000000E+00  0.00000000000E+00  0.45593999997E+02  0.45594000000E+02  0.51100000000E-03 0.  1.
         11   -1    0    0    0    0 -0.00000000000E+00 -0.00000000000E+00 -0.45593999997E+02  0.45594000000E+02  0.51100000000E-03 0. -1.
    9900012    2    1    2    0    0  0.70662827801E+01 -0.35125243168E+02 -0.19221104861E+02  0.50528856722E+02  0.29999990494E+02 0.  0.
         12    1    1    2    0    0 -0.70662827801E+01  0.35125243168E+02  0.19221104861E+02  0.40659143278E+02  0.00000000000E+00 0. -1.
         11    1    3    3    0    0  0.56015780891E+01  0.65274802816E+00  0.85512251797E+00  0.57039452889E+01  0.51100000000E-03 0. -1.
        -11    1    3    3    0    0 -0.80193272274E+01 -0.15862944440E+02 -0.65123280525E+01  0.18930214801E+02  0.51100000000E-03 0.  1.
         12    1    3    3    0    0  0.94840319184E+01 -0.19915046757E+02 -0.13563899327E+02  0.25894696633E+02  0.00000000000E+00 0. -1.
</event>
<event>
 7    1  0.3383281E-011  0.5052885E+02  0.7816164E-02  0.1300439E+00
        -11   -1    0    0    0    0  0.00000000000E+00  0.00000000000E+00  0.45593999997E+02  0.45594000000E+02  0.51100000000E-03 0.  1.
         11   -1    0    0    0    0 -0.00000000000E+00 -0.00000000000E+00 -0.45593999997E+02  0.45594000000E+02  0.51100000000E-03 0. -1.
    9900012    2    1    2    0    0  0.27094478610E+02 -0.14881590992E+02  0.26411997303E+02  0.50528854373E+02  0.29999983351E+02 0.  0.
         12    1    1    2    0    0 -0.27094478610E+02  0.14881590992E+02 -0.26411997303E+02  0.40659145627E+02  0.00000000000E+00 0. -1.
         11    1    3    3    0    0  0.29585337220E+01  0.55872076144E+00 -0.32434134791E+01  0.44254742041E+01  0.51100000000E-03 0. -1.
        -11    1    3    3    0    0  0.21780506083E+02 -0.37130529210E+01  0.13124656447E+02  0.25698906870E+02  0.51100000000E-03 0.  1.
        -12    1    3    3    0    0  0.23554388050E+01 -0.11727258832E+02  0.16530754335E+02  0.20404473298E+02  0.00000000000E+00 0.  1.
</event>
<event>
 7    1  0.3383281E-011  0.5052886E+02  0.7816164E-02  0.1300439E+00
        -11   -1    0    0    0    0  0.00000000000E+00  0.00000000000E+00  0.45593999997E+02  0.45594000000E+02  0.51100000000E-03 0. -1.
         11   -1    0    0    0    0 -0.00000000000E+00 -0.00000000000E+00 -0.45593999997E+02  0.45594000000E+02  0.51100000000E-03 0.  1.
    9900012    2    1    2    0    0  0.30803541106E+02  0.25457751713E+02 -0.74973472801E+01  0.50528862242E+02  0.30000007272E+02 0.  0.
         12    1    1    2    0    0 -0.30803541106E+02 -0.25457751713E+02  0.74973472801E+01  0.40659137758E+02  0.00000000000E+00 0. -1.
         11    1    3    3    0    0  0.13345633506E+01  0.11830029259E+02 -0.58288767322E+01  0.13255431183E+02  0.51100000000E-03 0. -1.
        -11    1    3    3    0    0  0.71599638284E+01  0.12040431934E+02 -0.45369020960E+01  0.14724828150E+02  0.51100000000E-03 0.  1.
         12    1    3    3    0    0  0.22309013927E+02  0.15872905197E+01  0.28684315481E+01  0.22548602909E+02  0.00000000000E+00 0. -1.
</event>
<event>
 7    1  0.3383281E-011  0.5052889E+02  0.7816164E-02  0.1300439E+00
        -11   -1    0    0    0    0  0.00000000000E+00  0.00000000000E+00  0.45593999997E+02  0.45594000000E+02  0.51100000000E-03 0. -1.
         11   -1    0    0    0    0 -0.00000000000E+00 -0.00000000000E+00 -0.45593999997E+02  0.45594000000E+02  0.51100000000E-03 0.  1.
    9900012    2    1    2    0    0  0.80164036993E+01 -0.33724864483E+02 -0.21249325369E+02  0.50528892271E+02  0.30000098547E+02 0.  0.
         12    1    1    2    0    0 -0.80164036993E+01  0.33724864483E+02  0.21249325369E+02  0.40659107729E+02  0.00000000000E+00 0. -1.
         11    1    3    3    0    0 -0.40789526360E+01 -0.16899183691E+02 -0.20461385029E+02  0.26849367620E+02  0.51100000000E-03 0. -1.
        -11    1    3    3    0    0 -0.22722605510E+01 -0.22352770412E+01 -0.21062762957E+00  0.31943693779E+01  0.51100000000E-03 0.  1.
         12    1    3    3    0    0  0.14367616886E+02 -0.14590403751E+02 -0.57731271071E+00  0.20485155274E+02  0.00000000000E+00 0. -1.
</event>
<event>
 7    1  0.4371598E-011  0.5052886E+02  0.7816164E-02  0.1300439E+00
        -11   -1    0    0    0    0  0.00000000000E+00  0.00000000000E+00  0.45593999997E+02  0.45594000000E+02  0.51100000000E-03 0. -1.
         11   -1    0    0    0    0 -0.00000000000E+00 -0.00000000000E+00 -0.45593999997E+02  0.45594000000E+02  0.51100000000E-03 0.  1.
    9900012    2    1    2    0    0  0.31307003726E+01 -0.36894929519E+02 -0.16796681373E+02  0.50528860632E+02  0.30000002376E+02 0.  0.
         12    1    1    2    0    0 -0.31307003726E+01  0.36894929519E+02  0.16796681373E+02  0.40659139368E+02  0.00000000000E+00 0. -1.
         11    1    3    3    0    0  0.23666653864E+01  0.12555605215E+01  0.23357954958E+01  0.35543604394E+01  0.51100000000E-03 0. -1.
        -11    1    3    3    0    0  0.53388105848E+01 -0.31106867099E+02 -0.71831763003E+01  0.32368782819E+02  0.51100000000E-03 0.  1.
         12    1    3    3    0    0 -0.45747755985E+01 -0.70436229416E+01 -0.11949300568E+02  0.14605717373E+02  0.00000000000E+00 0. -1.
</event>
<event>
 7    1  0.3383281E-011  0.5052885E+02  0.7816164E-02  0.1300439E+00
        -11   -1    0    0    0    0  0.00000000000E+00  0.00000000000E+00  0.45593999997E+02  0.45594000000E+02  0.51100000000E-03 0.  1.
         11   -1    0    0    0    0 -0.00000000000E+00 -0.00000000000E+00 -0.45593999997E+02  0.45594000000E+02  0.51100000000E-03 0. -1.
    9900012    2    1    2    0    0  0.25729096595E+02  0.22040980389E+02  0.22480543724E+02  0.50528854974E+02  0.29999985180E+02 0.  0.
         12    1    1    2    0    0 -0.25729096595E+02 -0.22040980389E+02 -0.22480543724E+02  0.40659145026E+02  0.00000000000E+00 0. -1.
         11    1    3    3    0    0  0.18026894488E+02  0.13981433297E+02  0.15655010051E+02  0.27668190072E+02  0.51100000000E-03 0. -1.
        -11    1    3    3    0    0  0.97536652058E+01  0.39227098838E+01  0.11981120147E+02  0.15939538200E+02  0.51100000000E-03 0.  1.
         12    1    3    3    0    0 -0.20514630987E+01  0.41368372084E+01 -0.51555864746E+01  0.69211267025E+01  0.00000000000E+00 0. -1.
</event>
<event>
 7    1  0.3383281E-011  0.5052893E+02  0.7816164E-02  0.1300439E+00
        -11   -1    0    0    0    0  0.00000000000E+00  0.00000000000E+00  0.45593999997E+02  0.45594000000E+02  0.51100000000E-03 0.  1.
         11   -1    0    0    0    0 -0.00000000000E+00 -0.00000000000E+00 -0.45593999997E+02  0.45594000000E+02  0.51100000000E-03 0. -1.
    9900012    2    1    2    0    0 -0.19123235047E+02 -0.39688072240E+01  0.35661046867E+02  0.50528931970E+02  0.30000219216E+02 0.  0.
         12    1    1    2    0    0  0.19123235047E+02  0.39688072240E+01 -0.35661046867E+02  0.40659068030E+02  0.00000000000E+00 0. -1.
         11    1    3    3    0    0 -0.86973253830E+01 -0.91925000915E+01  0.13959406186E+02  0.18841723597E+02  0.51100000000E-03 0.  1.
        -11    1    3    3    0    0 -0.20841133288E+01 -0.49467471821E+01  0.16821615225E+02  0.17657309395E+02  0.51100000000E-03 0. -1.
         12    1    3    3    0    0 -0.83417963348E+01  0.10170440050E+02  0.48800254553E+01  0.14029898978E+02  0.00000000000E+00 0. -1.
</event>
<event>
 7    1  0.3383281E-011  0.5052887E+02  0.7816164E-02  0.1300439E+00
        -11   -1    0    0    0    0  0.00000000000E+00  0.00000000000E+00  0.45593999997E+02  0.45594000000E+02  0.51100000000E-03 0.  1.
         11   -1    0    0    0    0 -0.00000000000E+00 -0.00000000000E+00 -0.45593999997E+02  0.45594000000E+02  0.51100000000E-03 0. -1.
    9900012    2    1    2    0    0  0.56963998253E+01  0.37964972278E+01  0.40078703934E+02  0.50528869769E+02  0.30000030149E+02 0.  0.
         12    1    1    2    0    0 -0.56963998253E+01 -0.37964972278E+01 -0.40078703934E+02  0.40659130231E+02  0.00000000000E+00 0. -1.
         11    1    3    3    0    0 -0.36517782632E+01  0.89749495251E+01  0.12207695118E+02  0.15585667256E+02  0.51100000000E-03 0. -1.
        -11    1    3    3    0    0 -0.41089849621E+01 -0.38319529523E+01  0.15965146823E+02  0.16924938233E+02  0.51100000000E-03 0.  1.
        -12    1    3    3    0    0  0.13457163051E+02 -0.13464993450E+01  0.11905861992E+02  0.18018264279E+02  0.00000000000E+00 0.  1.
</event>
<event>
 7    1  0.3383281E-011  0.5052885E+02  0.7816164E-02  0.1300439E+00
        -11   -1    0    0    0    0  0.00000000000E+00  0.00000000000E+00  0.45593999997E+02  0.45594000000E+02  0.51100000000E-03 0. -1.
         11   -1    0    0    0    0 -0.00000000000E+00 -0.00000000000E+00 -0.45593999997E+02  0.45594000000E+02  0.51100000000E-03 0.  1.
    9900012    2    1    2    0    0 -0.22310822802E+02  0.32148532802E+02  0.11039253678E+02  0.50528854692E+02  0.29999984322E+02 0.  0.
         12    1    1    2    0    0  0.22310822802E+02 -0.32148532802E+02 -0.11039253678E+02  0.40659145308E+02  0.00000000000E+00 0. -1.
         11    1    3    3    0    0 -0.22314883958E+01  0.11061521135E+02  0.52929589649E+01  0.12464036471E+02  0.51100000000E-03 0. -1.
        -11    1    3    3    0    0 -0.19323622958E+02  0.20038474980E+02  0.12980963298E+02  0.30715603399E+02  0.51100000000E-03 0.  1.
        -12    1    3    3    0    0 -0.75571144840E+00  0.10485366862E+01 -0.72346685844E+01  0.73492148221E+01  0.00000000000E+00 0.  1.
</event>
<event>
 7    1  0.3383281E-011  0.5052885E+02  0.7816164E-02  0.1300439E+00
        -11   -1    0    0    0    0  0.00000000000E+00  0.00000000000E+00  0.45593999997E+02  0.45594000000E+02  0.51100000000E-03 0.  1.
         11   -1    0    0    0    0 -0.00000000000E+00 -0.00000000000E+00 -0.45593999997E+02  0.45594000000E+02  0.51100000000E-03 0. -1.
    9900012    2    1    2    0    0 -0.12186098826E+02 -0.12224050215E+02  0.36813559625E+02  0.50528848748E+02  0.29999966255E+02 0.  0.
         12    1    1    2    0    0  0.12186098826E+02  0.12224050215E+02 -0.36813559625E+02  0.40659151252E+02  0.00000000000E+00 0. -1.
         11    1    3    3    0    0  0.16624690210E+01 -0.26149917625E+01 -0.35422594912E+01  0.47063348508E+01  0.51100000000E-03 0. -1.
        -11    1    3    3    0    0  0.18515620900E+01 -0.22293620584E+01  0.14853331788E+01  0.32564631540E+01  0.51100000000E-03 0.  1.
        -12    1    3    3    0    0 -0.15700129937E+02 -0.73796963946E+01  0.38870485937E+02  0.42566050744E+02  0.00000000000E+00 0.  1.
</event>
<event>
 7    1  0.3383281E-011  0.5052886E+02  0.7816164E-02  0.1300439E+00
        -11   -1    0    0    0    0  0.00000000000E+00  0.00000000000E+00  0.45593999997E+02  0.45594000000E+02  0.51100000000E-03 0.  1.
         11   -1    0    0    0    0 -0.00000000000E+00 -0.00000000000E+00 -0.45593999997E+02  0.45594000000E+02  0.51100000000E-03 0. -1.
    9900012    2    1    2    0    0  0.17342071090E+02 -0.33877451592E+02  0.14308606699E+02  0.50528863490E+02  0.30000011065E+02 0.  0.
         12    1    1    2    0    0 -0.17342071090E+02  0.33877451592E+02 -0.14308606699E+02  0.40659136510E+02  0.00000000000E+00 0. -1.
         11    1    3    3    0    0  0.14401379054E+01 -0.23923726201E+02  0.18467553815E+02  0.30256721843E+02  0.51100000000E-03 0.  1.
        -11    1    3    3    0    0  0.26706126975E+01 -0.21148577465E+01 -0.34923161018E+01  0.48786337723E+01  0.51100000000E-03 0. -1.
        -12    1    3    3    0    0  0.13231320487E+02 -0.78388676449E+01 -0.66663101462E+00  0.15393507875E+02  0.00000000000E+00 0.  1.
</event>
<event>
 7    1  0.3383281E-011  0.5052887E+02  0.7816164E-02  0.1300439E+00
        -11   -1    0    0    0    0  0.00000000000E+00  0.00000000000E+00  0.45593999997E+02  0.45594000000E+02  0.51100000000E-03 0.  1.
         11   -1    0    0    0    0 -0.00000000000E+00 -0.00000000000E+00 -0.45593999997E+02  0.45594000000E+02  0.51100000000E-03 0. -1.
    9900012    2    1    2    0    0 -0.11205312744E+02  0.85391284562E+01  0.38140382533E+02  0.50528873985E+02  0.30000042966E+02 0.  0.
         12    1    1    2    0    0  0.11205312744E+02 -0.85391284562E+01 -0.38140382533E+02  0.40659126015E+02  0.00000000000E+00 0. -1.
         11    1    3    3    0    0 -0.86977648607E+01 -0.25911679966E+01  0.42799274395E+01  0.10034094095E+02  0.51100000000E-03 0. -1.
        -11    1    3    3    0    0 -0.93978691821E+01  0.11442404067E+01  0.10273902030E+02  0.13970765707E+02  0.51100000000E-03 0.  1.
        -12    1    3    3    0    0  0.68903212984E+01  0.99860560461E+01  0.23586553064E+02  0.26524014183E+02  0.00000000000E+00 0.  1.
</event>
<event>
 7    1  0.3383281E-011  0.5052886E+02  0.7816164E-02  0.1300439E+00
        -11   -1    0    0    0    0  0.00000000000E+00  0.00000000000E+00  0.45593999997E+02  0.45594000000E+02  0.51100000000E-03 0.  1.
         11   -1    0    0    0    0 -0.00000000000E+00 -0.00000000000E+00 -0.45593999997E+02  0.45594000000E+02  0.51100000000E-03 0. -1.
    9900012    2    1    2    0    0  0.35606553861E+02  0.60528222239E+01  0.18673577740E+02  0.50528857850E+02  0.29999993922E+02 0.  0.
         12    1    1    2    0    0 -0.35606553861E+02 -0.60528222239E+01 -0.18673577740E+02  0.40659142150E+02  0.00000000000E+00 0. -1.
         11    1    3    3    0    0  0.98897741287E+00 -0.23558371449E+01  0.41444236254E+01  0.48687054157E+01  0.51100000000E-03 0.  1.
        -11    1    3    3    0    0 -0.29272569576E+01 -0.15924216188E+01  0.43779688788E+01  0.55019316311E+01  0.51100000000E-03 0. -1.
        -12    1    3    3    0    0  0.37544833406E+02  0.10001080988E+02  0.10151185235E+02  0.40158220803E+02  0.00000000000E+00 0.  1.
</event>
<event>
 7    1  0.3383281E-011  0.5052886E+02  0.7816164E-02  0.1300439E+00
        -11   -1    0    0    0    0  0.00000000000E+00  0.00000000000E+00  0.45593999997E+02  0.45594000000E+02  0.51100000000E-03 0.  1.
         11   -1    0    0    0    0 -0.00000000000E+00 -0.00000000000E+00 -0.45593999997E+02  0.45594000000E+02  0.51100000000E-03 0. -1.
    9900012    2    1    2    0    0 -0.76844442741E+01  0.21521263470E+02  0.33629604146E+02  0.50528859083E+02  0.29999997668E+02 0.  0.
         12    1    1    2    0    0  0.76844442741E+01 -0.21521263470E+02 -0.33629604146E+02  0.40659140917E+02  0.00000000000E+00 0. -1.
         11    1    3    3    0    0  0.49639277635E+01  0.13268584659E+02  0.15342728951E+02  0.20882893708E+02  0.51100000000E-03 0. -1.
        -11    1    3    3    0    0 -0.85570084354E+01  0.69889932434E+01  0.21580117137E+02  0.24243965761E+02  0.51100000000E-03 0.  1.
        -12    1    3    3    0    0 -0.40913636022E+01  0.12636855679E+01 -0.32932419421E+01  0.54019996139E+01  0.00000000000E+00 0.  1.
</event>
<event>
 7    1  0.3383281E-011  0.5052886E+02  0.7816164E-02  0.1300439E+00
        -11   -1    0    0    0    0  0.00000000000E+00  0.00000000000E+00  0.45593999997E+02  0.45594000000E+02  0.51100000000E-03 0.  1.
         11   -1    0    0    0    0 -0.00000000000E+00 -0.00000000000E+00 -0.45593999997E+02  0.45594000000E+02  0.51100000000E-03 0. -1.
    9900012    2    1    2    0    0 -0.13517053262E+01 -0.30545953643E+02  0.26800805677E+02  0.50528861098E+02  0.30000003795E+02 0.  0.
         12    1    1    2    0    0  0.13517053262E+01  0.30545953643E+02 -0.26800805677E+02  0.40659138902E+02  0.00000000000E+00 0. -1.
         11    1    3    3    0    0 -0.18932318167E+00 -0.15433249810E+02  0.59455101706E+01  0.16539955695E+02  0.51100000000E-03 0. -1.
        -11    1    3    3    0    0  0.62816141569E+01 -0.14077357211E+02  0.46108050298E+01  0.16090064814E+02  0.51100000000E-03 0.  1.
         12    1    3    3    0    0 -0.74439963015E+01 -0.10353466232E+01  0.16244490477E+02  0.17898840588E+02  0.00000000000E+00 0. -1.
</event>
<event>
 7    1  0.3383281E-011  0.5052886E+02  0.7816164E-02  0.1300439E+00
        -11   -1    0    0    0    0  0.00000000000E+00  0.00000000000E+00  0.45593999997E+02  0.45594000000E+02  0.51100000000E-03 0.  1.
         11   -1    0    0    0    0 -0.00000000000E+00 -0.00000000000E+00 -0.45593999997E+02  0.45594000000E+02  0.51100000000E-03 0. -1.
    9900012    2    1    2    0    0 -0.57770320593E+00 -0.26411912171E+02  0.30907007485E+02  0.50528856414E+02  0.29999989555E+02 0.  0.
         12    1    1    2    0    0  0.57770320593E+00  0.26411912171E+02 -0.30907007485E+02  0.40659143586E+02  0.00000000000E+00 0. -1.
         11    1    3    3    0    0  0.97432792321E-01 -0.10252215675E+02  0.22162660897E+01  0.10489483068E+02  0.51100000000E-03 0. -1.
        -11    1    3    3    0    0 -0.37837556030E+01 -0.47289978907E+01 -0.25928502482E+01  0.65881029276E+01  0.51100000000E-03 0.  1.
        -12    1    3    3    0    0  0.31086196048E+01 -0.11430698605E+02  0.31283591644E+02  0.33451270418E+02  0.00000000000E+00 0.  1.
</event>
<event>
 7    1  0.3383281E-011  0.5052886E+02  0.7816164E-02  0.1300439E+00
        -11   -1    0    0    0    0  0.00000000000E+00  0.00000000000E+00  0.45593999997E+02  0.45594000000E+02  0.51100000000E-03 0.  1.
         11   -1    0    0    0    0 -0.00000000000E+00 -0.00000000000E+00 -0.45593999997E+02  0.45594000000E+02  0.51100000000E-03 0. -1.
    9900012    2    1    2    0    0  0.17411912916E+02  0.21570582404E+02  0.29743915960E+02  0.50528864824E+02  0.30000015119E+02 0.  0.
         12    1    1    2    0    0 -0.17411912916E+02 -0.21570582404E+02 -0.29743915960E+02  0.40659135176E+02  0.00000000000E+00 0. -1.
         11    1    3    3    0    0  0.14239319825E+01  0.30920008126E+01 -0.10168685872E+01  0.35527557333E+01  0.51100000000E-03 0. -1.
        -11    1    3    3    0    0  0.14682602824E+02  0.16140788572E+02  0.67837207334E+01  0.22850005441E+02  0.51100000000E-03 0.  1.
        -12    1    3    3    0    0  0.13053781094E+01  0.23377930195E+01  0.23977063813E+02  0.24126103650E+02  0.00000000000E+00 0.  1.
</event>
<event>
 7    1  0.3383281E-011  0.5052886E+02  0.7816164E-02  0.1300439E+00
        -11   -1    0    0    0    0  0.00000000000E+00  0.00000000000E+00  0.45593999997E+02  0.45594000000E+02  0.51100000000E-03 0.  1.
         11   -1    0    0    0    0 -0.00000000000E+00 -0.00000000000E+00 -0.45593999997E+02  0.45594000000E+02  0.51100000000E-03 0. -1.
    9900012    2    1    2    0    0  0.38702675667E+02 -0.12218032196E+02  0.24471307115E+01  0.50528857569E+02  0.29999993067E+02 0.  0.
         12    1    1    2    0    0 -0.38702675667E+02  0.12218032196E+02 -0.24471307115E+01  0.40659142431E+02  0.00000000000E+00 0. -1.
         11    1    3    3    0    0 -0.16057876991E+01 -0.41458355734E+00 -0.13360121766E+01  0.21296390440E+01  0.51100000000E-03 0. -1.
        -11    1    3    3    0    0  0.50172390119E+01 -0.38134288734E+01  0.98661330082E+01  0.11707070849E+02  0.51100000000E-03 0.  1.
        -12    1    3    3    0    0  0.35291224354E+02 -0.79900197648E+01 -0.60829901201E+01  0.36692147676E+02  0.00000000000E+00 0.  1.
</event>
<event>
 7    1  0.3383281E-011  0.5052886E+02  0.7816164E-02  0.1300439E+00
        -11   -1    0    0    0    0  0.00000000000E+00  0.00000000000E+00  0.45593999997E+02  0.45594000000E+02  0.51100000000E-03 0.  1.
         11   -1    0    0    0    0 -0.00000000000E+00 -0.00000000000E+00 -0.45593999997E+02  0.45594000000E+02  0.51100000000E-03 0. -1.
    9900012    2    1    2    0    0 -0.29848536186E+02 -0.14129854106E+02  0.23718719846E+02  0.50528861290E+02  0.30000004377E+02 0.  0.
         12    1    1    2    0    0  0.29848536186E+02  0.14129854106E+02 -0.23718719846E+02  0.40659138710E+02  0.00000000000E+00 0. -1.
         11    1    3    3    0    0 -0.46183113447E+01 -0.38554161739E+01  0.13693221757E+02  0.14956515500E+02  0.51100000000E-03 0. -1.
        -11    1    3    3    0    0 -0.23207476973E+02 -0.13806300668E+01  0.12114084062E+02  0.26215342069E+02  0.51100000000E-03 0.  1.
         12    1    3    3    0    0 -0.20227478683E+01 -0.88938078648E+01 -0.20885859731E+01  0.93570037214E+01  0.00000000000E+00 0. -1.
</event>
<event>
 7    1  0.3383281E-011  0.5052882E+02  0.7816164E-02  0.1300439E+00
        -11   -1    0    0    0    0  0.00000000000E+00  0.00000000000E+00  0.45593999997E+02  0.45594000000E+02  0.51100000000E-03 0.  1.
         11   -1    0    0    0    0 -0.00000000000E+00 -0.00000000000E+00 -0.45593999997E+02  0.45594000000E+02  0.51100000000E-03 0. -1.
    9900012    2    1    2    0    0 -0.36722346865E+01  0.39943781669E+02  0.66466577689E+01  0.50528818243E+02  0.29999873531E+02 0.  0.
         12    1    1    2    0    0  0.36722346865E+01 -0.39943781669E+02 -0.66466577689E+01  0.40659181757E+02  0.00000000000E+00 0. -1.
         11    1    3    3    0    0  0.17871794270E+01  0.27013367833E+00 -0.37965853096E+01  0.42048832068E+01  0.51100000000E-03 0. -1.
        -11    1    3    3    0    0  0.13139021780E+01  0.21469461689E+02  0.15185570643E+02  0.26329938856E+02  0.51100000000E-03 0.  1.
         12    1    3    3    0    0 -0.67733162915E+01  0.18204186302E+02 -0.47423275649E+01  0.19993996180E+02  0.00000000000E+00 0. -1.
</event>
<event>
 7    1  0.3383281E-011  0.5052886E+02  0.7816164E-02  0.1300439E+00
        -11   -1    0    0    0    0  0.00000000000E+00  0.00000000000E+00  0.45593999997E+02  0.45594000000E+02  0.51100000000E-03 0. -1.
         11   -1    0    0    0    0 -0.00000000000E+00 -0.00000000000E+00 -0.45593999997E+02  0.45594000000E+02  0.51100000000E-03 0.  1.
    9900012    2    1    2    0    0 -0.19283975428E+02  0.12810049227E+02 -0.33424491284E+02  0.50528859735E+02  0.29999999652E+02 0.  0.
         12    1    1    2    0    0  0.19283975428E+02 -0.12810049227E+02  0.33424491284E+02  0.40659140265E+02  0.00000000000E+00 0. -1.
         11    1    3    3    0    0 -0.59303748606E+01  0.10473988006E+02 -0.43776759014E+01  0.12807724907E+02  0.51100000000E-03 0. -1.
        -11    1    3    3    0    0 -0.96599500752E+01  0.95988912833E+01 -0.96738553666E+01  0.16704395447E+02  0.51100000000E-03 0.  1.
        -12    1    3    3    0    0 -0.36936504917E+01 -0.72628300621E+01 -0.19372960016E+02  0.21016739382E+02  0.00000000000E+00 0.  1.
</event>
<event>
 7    1  0.3383281E-011  0.5052886E+02  0.7816164E-02  0.1300439E+00
        -11   -1    0    0    0    0  0.00000000000E+00  0.00000000000E+00  0.45593999997E+02  0.45594000000E+02  0.51100000000E-03 0.  1.
         11   -1    0    0    0    0 -0.00000000000E+00 -0.00000000000E+00 -0.45593999997E+02  0.45594000000E+02  0.51100000000E-03 0. -1.
    9900012    2    1    2    0    0  0.28228423854E+02  0.28133694739E+02 -0.80509028550E+01  0.50528859210E+02  0.29999998055E+02 0.  0.
         12    1    1    2    0    0 -0.28228423854E+02 -0.28133694739E+02  0.80509028550E+01  0.40659140790E+02  0.00000000000E+00 0. -1.
         11    1    3    3    0    0  0.14855977828E+02  0.79965795633E+01 -0.47387839550E+01  0.17524309846E+02  0.51100000000E-03 0. -1.
        -11    1    3    3    0    0  0.13913931998E+02  0.24055012888E+02  0.87150176011E-01  0.27789363866E+02  0.51100000000E-03 0.  1.
         12    1    3    3    0    0 -0.54148597138E+00 -0.39178977114E+01 -0.33992690761E+01  0.52151854987E+01  0.00000000000E+00 0. -1.
</event>
<event>
 7    1  0.3383281E-011  0.5052886E+02  0.7816164E-02  0.1300439E+00
        -11   -1    0    0    0    0  0.00000000000E+00  0.00000000000E+00  0.45593999997E+02  0.45594000000E+02  0.51100000000E-03 0.  1.
         11   -1    0    0    0    0 -0.00000000000E+00 -0.00000000000E+00 -0.45593999997E+02  0.45594000000E+02  0.51100000000E-03 0. -1.
    9900012    2    1    2    0    0 -0.39472361620E+02 -0.94174736626E+01  0.25316792691E+01  0.50528861520E+02  0.30000005075E+02 0.  0.
         12    1    1    2    0    0  0.39472361620E+02  0.94174736626E+01 -0.25316792691E+01  0.40659138480E+02  0.00000000000E+00 0. -1.
         11    1    3    3    0    0 -0.10262793769E+02  0.57967120889E+01  0.40006660793E+01  0.12447173829E+02  0.51100000000E-03 0. -1.
        -11    1    3    3    0    0  0.22253140349E+01  0.52548304742E+00  0.16030939111E+01  0.27925016269E+01  0.51100000000E-03 0.  1.
        -12    1    3    3    0    0 -0.31434881886E+02 -0.15739668799E+02 -0.30720807214E+01  0.35289186064E+02  0.00000000000E+00 0.  1.
</event>
<event>
 7    1  0.3383281E-011  0.5052885E+02  0.7816164E-02  0.1300439E+00
        -11   -1    0    0    0    0  0.00000000000E+00  0.00000000000E+00  0.45593999997E+02  0.45594000000E+02  0.51100000000E-03 0.  1.
         11   -1    0    0    0    0 -0.00000000000E+00 -0.00000000000E+00 -0.45593999997E+02  0.45594000000E+02  0.51100000000E-03 0. -1.
    9900012    2    1    2    0    0  0.21784878320E+02  0.76920248483E+01  0.33457704455E+02  0.50528853956E+02  0.29999982085E+02 0.  0.
         12    1    1    2    0    0 -0.21784878320E+02 -0.76920248483E+01 -0.33457704455E+02  0.40659146044E+02  0.00000000000E+00 0. -1.
         11    1    3    3    0    0  0.62833840232E+01  0.19834107259E+01 -0.27134306912E+01  0.71258360400E+01  0.51100000000E-03 0. -1.
        -11    1    3    3    0    0  0.13869391513E+01  0.73302003185E+01  0.45538309022E+01  0.87402982252E+01  0.51100000000E-03 0.  1.
        -12    1    3    3    0    0  0.14114555145E+02 -0.16215861961E+01  0.31617304244E+02  0.34662719691E+02  0.00000000000E+00 0.  1.
</event>
<event>
 7    1  0.3383281E-011  0.5052885E+02  0.7816164E-02  0.1300439E+00
        -11   -1    0    0    0    0  0.00000000000E+00  0.00000000000E+00  0.45593999997E+02  0.45594000000E+02  0.51100000000E-03 0.  1.
         11   -1    0    0    0    0 -0.00000000000E+00 -0.00000000000E+00 -0.45593999997E+02  0.45594000000E+02  0.51100000000E-03 0. -1.
    9900012    2    1    2    0    0 -0.32028832601E+02  0.24605973718E+02  0.46761502996E+01  0.50528850451E+02  0.29999971432E+02 0.  0.
         12    1    1    2    0    0  0.32028832601E+02 -0.24605973718E+02 -0.46761502996E+01  0.40659149549E+02  0.00000000000E+00 0. -1.
         11    1    3    3    0    0 -0.82956911192E+01  0.15705939029E+02 -0.27911554622E+01  0.17980143520E+02  0.51100000000E-03 0. -1.
        -11    1    3    3    0    0 -0.14976313573E+02  0.12223896041E+02 -0.17460499361E+01  0.19410365615E+02  0.51100000000E-03 0.  1.
        -12    1    3    3    0    0 -0.87568279086E+01 -0.33238613528E+01  0.92133556979E+01  0.13138341316E+02  0.00000000000E+00 0.  1.
</event>
<event>
 7    1  0.3383281E-011  0.5052883E+02  0.7816164E-02  0.1300439E+00
        -11   -1    0    0    0    0  0.00000000000E+00  0.00000000000E+00  0.45593999997E+02  0.45594000000E+02  0.51100000000E-03 0.  1.
         11   -1    0    0    0    0 -0.00000000000E+00 -0.00000000000E+00 -0.45593999997E+02  0.45594000000E+02  0.51100000000E-03 0. -1.
    9900012    2    1    2    0    0  0.51128544249E+01  0.38581614949E+02  0.11767984039E+02  0.50528834480E+02  0.29999922884E+02 0.  0.
         12    1    1    2    0    0 -0.51128544249E+01 -0.38581614949E+02 -0.11767984039E+02  0.40659165520E+02  0.00000000000E+00 0. -1.
         11    1    3    3    0    0  0.35172358958E+01  0.22881849746E+02  0.97920582067E+01  0.25136316364E+02  0.51100000000E-03 0. -1.
        -11    1    3    3    0    0 -0.78773752019E+01  0.95955215893E+01  0.55090961988E+01  0.13582238984E+02  0.51100000000E-03 0.  1.
         12    1    3    3    0    0  0.94729937310E+01  0.61042436141E+01 -0.35331703664E+01  0.11810279132E+02  0.00000000000E+00 0. -1.
</event>
<event>
 7    1  0.3383281E-011  0.5052885E+02  0.7816164E-02  0.1300439E+00
        -11   -1    0    0    0    0  0.00000000000E+00  0.00000000000E+00  0.45593999997E+02  0.45594000000E+02  0.51100000000E-03 0.  1.
         11   -1    0    0    0    0 -0.00000000000E+00 -0.00000000000E+00 -0.45593999997E+02  0.45594000000E+02  0.51100000000E-03 0. -1.
    9900012    2    1    2    0    0  0.17141525773E+02 -0.32229035682E+02  0.17905980110E+02  0.50528846412E+02  0.29999959154E+02 0.  0.
         12    1    1    2    0    0 -0.17141525773E+02  0.32229035682E+02 -0.17905980110E+02  0.40659153588E+02  0.00000000000E+00 0. -1.
         11    1    3    3    0    0 -0.28131505414E+00 -0.34267810982E+01 -0.38525974343E+01  0.51637654969E+01  0.51100000000E-03 0. -1.
        -11    1    3    3    0    0  0.12954284839E+02 -0.22529514967E+02  0.43779074272E+01  0.26354479961E+02  0.51100000000E-03 0.  1.
        -12    1    3    3    0    0  0.44685559883E+01 -0.62727396170E+01  0.17380670117E+02  0.19010600954E+02  0.00000000000E+00 0.  1.
</event>
<event>
 7    1  0.3383281E-011  0.5052885E+02  0.7816164E-02  0.1300439E+00
        -11   -1    0    0    0    0  0.00000000000E+00  0.00000000000E+00  0.45593999997E+02  0.45594000000E+02  0.51100000000E-03 0.  1.
         11   -1    0    0    0    0 -0.00000000000E+00 -0.00000000000E+00 -0.45593999997E+02  0.45594000000E+02  0.51100000000E-03 0. -1.
    9900012    2    1    2    0    0 -0.65194334619E+01  0.37492429082E+02 -0.14317152932E+02  0.50528854421E+02  0.29999983499E+02 0.  0.
         12    1    1    2    0    0  0.65194334619E+01 -0.37492429082E+02  0.14317152932E+02  0.40659145579E+02  0.00000000000E+00 0. -1.
         11    1    3    3    0    0  0.50109938329E+01  0.17694957348E+02 -0.78585750198E+01  0.19999469402E+02  0.51100000000E-03 0. -1.
        -11    1    3    3    0    0  0.34835866448E+01  0.12814859992E+02 -0.28211314796E+01  0.13576258527E+02  0.51100000000E-03 0.  1.
         12    1    3    3    0    0 -0.15014013940E+02  0.69826117419E+01 -0.36374464327E+01  0.16953126492E+02  0.00000000000E+00 0. -1.
</event>
<event>
 7    1  0.3383281E-011  0.5052887E+02  0.7816164E-02  0.1300439E+00
        -11   -1    0    0    0    0  0.00000000000E+00  0.00000000000E+00  0.45593999997E+02  0.45594000000E+02  0.51100000000E-03 0.  1.
         11   -1    0    0    0    0 -0.00000000000E+00 -0.00000000000E+00 -0.45593999997E+02  0.45594000000E+02  0.51100000000E-03 0. -1.
    9900012    2    1    2    0    0  0.26104711234E+02 -0.27297153566E+02  0.15052391199E+02  0.50528867911E+02  0.30000024503E+02 0.  0.
         12    1    1    2    0    0 -0.26104711234E+02  0.27297153566E+02 -0.15052391199E+02  0.40659132089E+02  0.00000000000E+00 0. -1.
         11    1    3    3    0    0  0.55183973870E+00 -0.20376818048E+01  0.32932429582E+01  0.39117928982E+01  0.51100000000E-03 0.  1.
        -11    1    3    3    0    0  0.46432195552E+01  0.58944872901E+01  0.30454621065E+01  0.80981052077E+01  0.51100000000E-03 0. -1.
         12    1    3    3    0    0  0.20909651940E+02 -0.31153959052E+02  0.87136861341E+01  0.38518969805E+02  0.00000000000E+00 0. -1.
</event>
<event>
 7    1  0.3383281E-011  0.5052885E+02  0.7816164E-02  0.1300439E+00
        -11   -1    0    0    0    0  0.00000000000E+00  0.00000000000E+00  0.45593999997E+02  0.45594000000E+02  0.51100000000E-03 0.  1.
         11   -1    0    0    0    0 -0.00000000000E+00 -0.00000000000E+00 -0.45593999997E+02  0.45594000000E+02  0.51100000000E-03 0. -1.
    9900012    2    1    2    0    0 -0.37041199228E+01 -0.11357364084E+02  0.38864589871E+02  0.50528848888E+02  0.29999966679E+02 0.  0.
         12    1    1    2    0    0  0.37041199228E+01  0.11357364084E+02 -0.38864589871E+02  0.40659151112E+02  0.00000000000E+00 0. -1.
         11    1    3    3    0    0  0.62059695895E+00 -0.31224396146E+01  0.19842090870E+02  0.20095853803E+02  0.51100000000E-03 0.  1.
        -11    1    3    3    0    0 -0.11671639330E+02 -0.61789451829E+00  0.46371762629E+01  0.12574273825E+02  0.51100000000E-03 0. -1.
         12    1    3    3    0    0  0.73469224480E+01 -0.76170299516E+01  0.14385322738E+02  0.17858721259E+02  0.00000000000E+00 0. -1.
</event>
<event>
 7    1  0.3383281E-011  0.5052886E+02  0.7816164E-02  0.1300439E+00
        -11   -1    0    0    0    0  0.00000000000E+00  0.00000000000E+00  0.45593999997E+02  0.45594000000E+02  0.51100000000E-03 0.  1.
         11   -1    0    0    0    0 -0.00000000000E+00 -0.00000000000E+00 -0.45593999997E+02  0.45594000000E+02  0.51100000000E-03 0. -1.
    9900012    2    1    2    0    0  0.31399241149E+00  0.23968130798E+02  0.32841983736E+02  0.50528858581E+02  0.29999996143E+02 0.  0.
         12    1    1    2    0    0 -0.31399241149E+00 -0.23968130798E+02 -0.32841983736E+02  0.40659141419E+02  0.00000000000E+00 0. -1.
         11    1    3    3    0    0  0.98421111080E+01  0.12900888095E+02  0.21987565699E+02  0.27326783754E+02  0.51100000000E-03 0. -1.
        -11    1    3    3    0    0  0.33309073181E+01  0.21154733732E+01  0.52375925311E+01  0.65576327236E+01  0.51100000000E-03 0.  1.
        -12    1    3    3    0    0 -0.12859026015E+02  0.89517693295E+01  0.56168255061E+01  0.16644442104E+02  0.00000000000E+00 0.  1.
</event>
<event>
 7    1  0.3383281E-011  0.5052888E+02  0.7816164E-02  0.1300439E+00
        -11   -1    0    0    0    0  0.00000000000E+00  0.00000000000E+00  0.45593999997E+02  0.45594000000E+02  0.51100000000E-03 0.  1.
         11   -1    0    0    0    0 -0.00000000000E+00 -0.00000000000E+00 -0.45593999997E+02  0.45594000000E+02  0.51100000000E-03 0. -1.
    9900012    2    1    2    0    0 -0.39407354601E+02  0.56050361256E+01  0.82950515643E+01  0.50528881625E+02  0.30000066186E+02 0.  0.
         12    1    1    2    0    0  0.39407354601E+02 -0.56050361256E+01 -0.82950515643E+01  0.40659118375E+02  0.00000000000E+00 0. -1.
         11    1    3    3    0    0 -0.12306023105E+02  0.62223165769E+01  0.24846622659E+01  0.14011744184E+02  0.51100000000E-03 0. -1.
        -11    1    3    3    0    0 -0.31203212320E+02  0.43945543302E+00  0.72608368259E+01  0.32039870971E+02  0.51100000000E-03 0.  1.
         12    1    3    3    0    0  0.41018808232E+01 -0.10567358843E+01 -0.14504475275E+01  0.44772664704E+01  0.00000000000E+00 0. -1.
</event>
<event>
 7    1  0.3383281E-011  0.5052887E+02  0.7816164E-02  0.1300439E+00
        -11   -1    0    0    0    0  0.00000000000E+00  0.00000000000E+00  0.45593999997E+02  0.45594000000E+02  0.51100000000E-03 0. -1.
         11   -1    0    0    0    0 -0.00000000000E+00 -0.00000000000E+00 -0.45593999997E+02  0.45594000000E+02  0.51100000000E-03 0.  1.
    9900012    2    1    2    0    0 -0.23499246710E+02  0.32135525023E+02 -0.82618803136E+01  0.50528865347E+02  0.30000016708E+02 0.  0.
         12    1    1    2    0    0  0.23499246710E+02 -0.32135525023E+02  0.82618803136E+01  0.40659134653E+02  0.00000000000E+00 0. -1.
         11    1    3    3    0    0 -0.12858189798E+02  0.16245294326E+02 -0.10859804355E+01  0.20746613853E+02  0.51100000000E-03 0.  1.
        -11    1    3    3    0    0 -0.72541744864E+01  0.36215804217E+01 -0.13363126135E+02  0.15630484081E+02  0.51100000000E-03 0. -1.
         12    1    3    3    0    0 -0.33868824266E+01  0.12268650275E+02  0.61872262573E+01  0.14151767413E+02  0.00000000000E+00 0. -1.
</event>
<event>
 7    1  0.3383281E-011  0.5052885E+02  0.7816164E-02  0.1300439E+00
        -11   -1    0    0    0    0  0.00000000000E+00  0.00000000000E+00  0.45593999997E+02  0.45594000000E+02  0.51100000000E-03 0. -1.
         11   -1    0    0    0    0 -0.00000000000E+00 -0.00000000000E+00 -0.45593999997E+02  0.45594000000E+02  0.51100000000E-03 0.  1.
    9900012    2    1    2    0    0 -0.28152504096E+02  0.14219945210E+02 -0.25659235599E+02  0.50528847276E+02  0.29999961781E+02 0.  0.
         12    1    1    2    0    0  0.28152504096E+02 -0.14219945210E+02  0.25659235599E+02  0.40659152724E+02  0.00000000000E+00 0. -1.
         11    1    3    3    0    0  0.29148465851E+01 -0.13476828105E+01 -0.90332045137E+01  0.95870414425E+01  0.51100000000E-03 0. -1.
        -11    1    3    3    0    0 -0.40659948597E+01  0.98783579927E-02 -0.73975205990E+01  0.84413105058E+01  0.51100000000E-03 0.  1.
         12    1    3    3    0    0 -0.27001355822E+02  0.15557749663E+02 -0.92285104862E+01  0.32500495328E+02  0.00000000000E+00 0. -1.
</event>
<event>
 7    1  0.3383281E-011  0.5052885E+02  0.7816164E-02  0.1300439E+00
        -11   -1    0    0    0    0  0.00000000000E+00  0.00000000000E+00  0.45593999997E+02  0.45594000000E+02  0.51100000000E-03 0.  1.
         11   -1    0    0    0    0 -0.00000000000E+00 -0.00000000000E+00 -0.45593999997E+02  0.45594000000E+02  0.51100000000E-03 0. -1.
    9900012    2    1    2    0    0  0.17891150680E+02  0.13596977126E+02  0.33885028035E+02  0.50528853617E+02  0.29999981055E+02 0.  0.
         12    1    1    2    0    0 -0.17891150680E+02 -0.13596977126E+02 -0.33885028035E+02  0.40659146383E+02  0.00000000000E+00 0. -1.
         11    1    3    3    0    0  0.13728265521E+02  0.13859688527E+02  0.30097204818E+02  0.35866390652E+02  0.51100000000E-03 0. -1.
        -11    1    3    3    0    0  0.88656142580E+01 -0.81336569784E+00  0.43239766101E+01  0.98973458015E+01  0.51100000000E-03 0.  1.
         12    1    3    3    0    0 -0.47027290980E+01  0.55065429760E+00 -0.53615339345E+00  0.47651171640E+01  0.00000000000E+00 0. -1.
</event>
<event>
 7    1  0.3383281E-011  0.5052887E+02  0.7816164E-02  0.1300439E+00
        -11   -1    0    0    0    0  0.00000000000E+00  0.00000000000E+00  0.45593999997E+02  0.45594000000E+02  0.51100000000E-03 0.  1.
         11   -1    0    0    0    0 -0.00000000000E+00 -0.00000000000E+00 -0.45593999997E+02  0.45594000000E+02  0.51100000000E-03 0. -1.
    9900012    2    1    2    0    0 -0.75687647318E+01 -0.13730971182E+02  0.37514520990E+02  0.50528867517E+02  0.30000023304E+02 0.  0.
         12    1    1    2    0    0  0.75687647318E+01  0.13730971182E+02 -0.37514520990E+02  0.40659132483E+02  0.00000000000E+00 0. -1.
         11    1    3    3    0    0 -0.51681363747E-01 -0.76882125853E+01  0.38968911958E+01  0.86195733638E+01  0.51100000000E-03 0. -1.
        -11    1    3    3    0    0 -0.19708002697E+01 -0.14326792680E+02  0.15290402559E+02  0.21046079275E+02  0.51100000000E-03 0.  1.
         12    1    3    3    0    0 -0.55462830983E+01  0.82840340828E+01  0.18327227236E+02  0.20863214878E+02  0.00000000000E+00 0. -1.
</event>
<event>
 7    1  0.4153618E-011  0.5052884E+02  0.7816164E-02  0.1300439E+00
        -11   -1    0    0    0    0  0.00000000000E+00  0.00000000000E+00  0.45593999997E+02  0.45594000000E+02  0.51100000000E-03 0.  1.
         11   -1    0    0    0    0 -0.00000000000E+00 -0.00000000000E+00 -0.45593999997E+02  0.45594000000E+02  0.51100000000E-03 0. -1.
    9900012    2    1    2    0    0  0.16325486033E+02  0.25400832471E+02  0.27229458474E+02  0.50528841213E+02  0.29999943352E+02 0.  0.
         12    1    1    2    0    0 -0.16325486033E+02 -0.25400832471E+02 -0.27229458474E+02  0.40659158787E+02  0.00000000000E+00 0. -1.
         11    1    3    3    0    0  0.96783057684E+01  0.10006199028E+02  0.55306638439E+01  0.14979381307E+02  0.51100000000E-03 0. -1.
        -11    1    3    3    0    0  0.13786812369E+02  0.14026514333E+02  0.20068864906E+02  0.28099441961E+02  0.51100000000E-03 0.  1.
         12    1    3    3    0    0 -0.71396321037E+01  0.13681191099E+01  0.16299297238E+01  0.74500179449E+01  0.00000000000E+00 0. -1.
</event>
<event>
 7    1  0.3383281E-011  0.5052886E+02  0.7816164E-02  0.1300439E+00
        -11   -1    0    0    0    0  0.00000000000E+00  0.00000000000E+00  0.45593999997E+02  0.45594000000E+02  0.51100000000E-03 0.  1.
         11   -1    0    0    0    0 -0.00000000000E+00 -0.00000000000E+00 -0.45593999997E+02  0.45594000000E+02  0.51100000000E-03 0. -1.
    9900012    2    1    2    0    0  0.39811786141E+02  0.68126119449E+01 -0.46664203969E+01  0.50528862324E+02  0.30000007520E+02 0.  0.
         12    1    1    2    0    0 -0.39811786141E+02 -0.68126119449E+01  0.46664203969E+01  0.40659137676E+02  0.00000000000E+00 0. -1.
         11    1    3    3    0    0  0.33376023057E+00 -0.29603090935E+01 -0.32819687049E+00  0.29970884651E+01  0.51100000000E-03 0. -1.
        -11    1    3    3    0    0  0.68016661397E+01 -0.73230809947E+00  0.84777506463E+01  0.10893630878E+02  0.51100000000E-03 0.  1.
        -12    1    3    3    0    0  0.32676359770E+02  0.10505229138E+02 -0.12815974173E+02  0.36638142981E+02  0.00000000000E+00 0.  1.
</event>
<event>
 7    1  0.3383281E-011  0.5052885E+02  0.7816164E-02  0.1300439E+00
        -11   -1    0    0    0    0  0.00000000000E+00  0.00000000000E+00  0.45593999997E+02  0.45594000000E+02  0.51100000000E-03 0.  1.
         11   -1    0    0    0    0 -0.00000000000E+00 -0.00000000000E+00 -0.45593999997E+02  0.45594000000E+02  0.51100000000E-03 0. -1.
    9900012    2    1    2    0    0  0.55577075039E+01  0.10336350658E+02  0.38928629779E+02  0.50528850057E+02  0.29999970232E+02 0.  0.
         12    1    1    2    0    0 -0.55577075039E+01 -0.10336350658E+02 -0.38928629779E+02  0.40659149943E+02  0.00000000000E+00 0. -1.
         11    1    3    3    0    0 -0.52108489439E+01  0.14188467219E+01  0.17112764946E+02  0.17944715018E+02  0.51100000000E-03 0. -1.
        -11    1    3    3    0    0 -0.31805169411E+01  0.96650633916E+01  0.10326517093E+02  0.14497106398E+02  0.51100000000E-03 0.  1.
         12    1    3    3    0    0  0.13949073389E+02 -0.74755945503E+00  0.11489347740E+02  0.18087028641E+02  0.00000000000E+00 0. -1.
</event>
<event>
 7    1  0.3383281E-011  0.5052887E+02  0.7816164E-02  0.1300439E+00
        -11   -1    0    0    0    0  0.00000000000E+00  0.00000000000E+00  0.45593999997E+02  0.45594000000E+02  0.51100000000E-03 0.  1.
         11   -1    0    0    0    0 -0.00000000000E+00 -0.00000000000E+00 -0.45593999997E+02  0.45594000000E+02  0.51100000000E-03 0. -1.
    9900012    2    1    2    0    0  0.10336753800E+02 -0.16163644758E+02  0.35847638763E+02  0.50528867006E+02  0.30000021750E+02 0.  0.
         12    1    1    2    0    0 -0.10336753800E+02  0.16163644758E+02 -0.35847638763E+02  0.40659132994E+02  0.00000000000E+00 0. -1.
         11    1    3    3    0    0  0.38656070499E+01  0.24690132274E+01 -0.10023944511E+01  0.46950760461E+01  0.51100000000E-03 0. -1.
        -11    1    3    3    0    0  0.61272719257E+01 -0.13217660684E+02  0.82887076775E+01  0.16761643429E+02  0.51100000000E-03 0.  1.
        -12    1    3    3    0    0  0.34387482470E+00 -0.54149973016E+01  0.28561325536E+02  0.29072147531E+02  0.00000000000E+00 0.  1.
</event>
<event>
 7    1  0.3383281E-011  0.5052878E+02  0.7816164E-02  0.1300439E+00
        -11   -1    0    0    0    0  0.00000000000E+00  0.00000000000E+00  0.45593999997E+02  0.45594000000E+02  0.51100000000E-03 0.  1.
         11   -1    0    0    0    0 -0.00000000000E+00 -0.00000000000E+00 -0.45593999997E+02  0.45594000000E+02  0.51100000000E-03 0. -1.
    9900012    2    1    2    0    0  0.16061399538E+02 -0.19349161370E+02  0.31950179101E+02  0.50528775396E+02  0.29999743292E+02 0.  0.
         12    1    1    2    0    0 -0.16061399538E+02  0.19349161370E+02 -0.31950179101E+02  0.40659224604E+02  0.00000000000E+00 0. -1.
         11    1    3    3    0    0  0.13229530064E+02 -0.15181896225E+02  0.94668699366E+01  0.22251563212E+02  0.51100000000E-03 0. -1.
        -11    1    3    3    0    0  0.17169127033E+01  0.31255733096E+01 -0.96609264068E+00  0.36946357055E+01  0.51100000000E-03 0.  1.
        -12    1    3    3    0    0  0.11149567706E+01 -0.72928384551E+01  0.23449401805E+02  0.24582576479E+02  0.00000000000E+00 0.  1.
</event>
<event>
 7    1  0.3383281E-011  0.5052885E+02  0.7816164E-02  0.1300439E+00
        -11   -1    0    0    0    0  0.00000000000E+00  0.00000000000E+00  0.45593999997E+02  0.45594000000E+02  0.51100000000E-03 0. -1.
         11   -1    0    0    0    0 -0.00000000000E+00 -0.00000000000E+00 -0.45593999997E+02  0.45594000000E+02  0.51100000000E-03 0.  1.
    9900012    2    1    2    0    0 -0.18215593267E+02 -0.18872120682E+02 -0.31067694041E+02  0.50528851089E+02  0.29999973371E+02 0.  0.
         12    1    1    2    0    0  0.18215593267E+02  0.18872120682E+02  0.31067694041E+02  0.40659148911E+02  0.00000000000E+00 0. -1.
         11    1    3    3    0    0 -0.52379905419E+01 -0.66229415411E+00 -0.51401470111E+01  0.73686016326E+01  0.51100000000E-03 0. -1.
        -11    1    3    3    0    0  0.11219848500E+01 -0.14397534303E+02 -0.24559224403E+02  0.28490407992E+02  0.51100000000E-03 0.  1.
         12    1    3    3    0    0 -0.14099587575E+02 -0.38122922250E+01 -0.13683226273E+01  0.14669841465E+02  0.00000000000E+00 0. -1.
</event>
<event>
 7    1  0.3383281E-011  0.5052894E+02  0.7816164E-02  0.1300438E+00
        -11   -1    0    0    0    0  0.00000000000E+00  0.00000000000E+00  0.45593999997E+02  0.45594000000E+02  0.51100000000E-03 0. -1.
         11   -1    0    0    0    0 -0.00000000000E+00 -0.00000000000E+00 -0.45593999997E+02  0.45594000000E+02  0.51100000000E-03 0.  1.
    9900012    2    1    2    0    0  0.13533139489E+02 -0.29558699384E+02  0.24419178445E+02  0.50528943818E+02  0.30000255227E+02 0.  0.
         12    1    1    2    0    0 -0.13533139489E+02  0.29558699384E+02 -0.24419178445E+02  0.40659056182E+02  0.00000000000E+00 0. -1.
         11    1    3    3    0    0  0.17031730753E+02 -0.23070199044E+02  0.22362718112E+02  0.36364888258E+02  0.51100000000E-03 0. -1.
        -11    1    3    3    0    0 -0.16850808117E+01 -0.99453707833E+01  0.18464798067E+01  0.10254725023E+02  0.51100000000E-03 0.  1.
        -12    1    3    3    0    0 -0.18135104526E+01  0.34568704434E+01  0.20998052637E+00  0.39093305368E+01  0.00000000000E+00 0.  1.
</event>
<event>
 7    1  0.3383281E-011  0.5052889E+02  0.7816164E-02  0.1300439E+00
        -11   -1    0    0    0    0  0.00000000000E+00  0.00000000000E+00  0.45593999997E+02  0.45594000000E+02  0.51100000000E-03 0.  1.
         11   -1    0    0    0    0 -0.00000000000E+00 -0.00000000000E+00 -0.45593999997E+02  0.45594000000E+02  0.51100000000E-03 0. -1.
    9900012    2    1    2    0    0 -0.20894839863E+02 -0.13652324222E+02  0.32096468682E+02  0.50528885506E+02  0.30000077984E+02 0.  0.
         12    1    1    2    0    0  0.20894839863E+02  0.13652324222E+02 -0.32096468682E+02  0.40659114494E+02  0.00000000000E+00 0. -1.
         11    1    3    3    0    0 -0.25104069206E+01  0.12592406925E+01  0.98152826375E+01  0.10209192110E+02  0.51100000000E-03 0. -1.
        -11    1    3    3    0    0 -0.15924903072E+01  0.88907368988E+00  0.16431117195E+02  0.16532032238E+02  0.51100000000E-03 0.  1.
        -12    1    3    3    0    0 -0.16791942636E+02 -0.15800638604E+02  0.58500688499E+01  0.23787661157E+02  0.00000000000E+00 0.  1.
</event>
<event>
 7    1  0.3383281E-011  0.5052886E+02  0.7816164E-02  0.1300439E+00
        -11   -1    0    0    0    0  0.00000000000E+00  0.00000000000E+00  0.45593999997E+02  0.45594000000E+02  0.51100000000E-03 0.  1.
         11   -1    0    0    0    0 -0.00000000000E+00 -0.00000000000E+00 -0.45593999997E+02  0.45594000000E+02  0.51100000000E-03 0. -1.
    9900012    2    1    2    0    0  0.12766329411E+02  0.31915370167E+02  0.21716257377E+02  0.50528857682E+02  0.29999993412E+02 0.  0.
         12    1    1    2    0    0 -0.12766329411E+02 -0.31915370167E+02 -0.21716257377E+02  0.40659142318E+02  0.00000000000E+00 0. -1.
         11    1    3    3    0    0  0.49567684751E+01  0.49345969022E+01  0.20344094457E+02  0.21512832911E+02  0.51100000000E-03 0. -1.
        -11    1    3    3    0    0 -0.51188140178E-01  0.82278386792E+01  0.26442670886E+01  0.86424590397E+01  0.51100000000E-03 0.  1.
         12    1    3    3    0    0  0.78607490759E+01  0.18752934586E+02 -0.12721041688E+01  0.20373565732E+02  0.00000000000E+00 0. -1.
</event>
<event>
 7    1  0.3383281E-011  0.5052885E+02  0.7816164E-02  0.1300439E+00
        -11   -1    0    0    0    0  0.00000000000E+00  0.00000000000E+00  0.45593999997E+02  0.45594000000E+02  0.51100000000E-03 0.  1.
         11   -1    0    0    0    0 -0.00000000000E+00 -0.00000000000E+00 -0.45593999997E+02  0.45594000000E+02  0.51100000000E-03 0. -1.
    9900012    2    1    2    0    0  0.17087977496E+01 -0.49160899422E+01  0.40324669291E+02  0.50528845022E+02  0.29999954928E+02 0.  0.
         12    1    1    2    0    0 -0.17087977496E+01  0.49160899422E+01 -0.40324669291E+02  0.40659154978E+02  0.00000000000E+00 0. -1.
         11    1    3    3    0    0  0.95132687244E+01 -0.39397261926E+00  0.62392684741E+01  0.11383583250E+02  0.51100000000E-03 0. -1.
        -11    1    3    3    0    0  0.32124618599E+01  0.26853454814E+01  0.23822228490E+01  0.48172582990E+01  0.51100000000E-03 0.  1.
        -12    1    3    3    0    0 -0.11016932835E+02 -0.72074628043E+01  0.31703177968E+02  0.34328003473E+02  0.00000000000E+00 0.  1.
</event>
<event>
 7    1  0.3383281E-011  0.5052886E+02  0.7816164E-02  0.1300439E+00
        -11   -1    0    0    0    0  0.00000000000E+00  0.00000000000E+00  0.45593999997E+02  0.45594000000E+02  0.51100000000E-03 0.  1.
         11   -1    0    0    0    0 -0.00000000000E+00 -0.00000000000E+00 -0.45593999997E+02  0.45594000000E+02  0.51100000000E-03 0. -1.
    9900012    2    1    2    0    0  0.13363845856E+02  0.16511271501E+02  0.34669168080E+02  0.50528859847E+02  0.29999999991E+02 0.  0.
         12    1    1    2    0    0 -0.13363845856E+02 -0.16511271501E+02 -0.34669168080E+02  0.40659140153E+02  0.00000000000E+00 0. -1.
         11    1    3    3    0    0 -0.10132301990E+01 -0.39285897352E+01 -0.17903294477E+01  0.44346062436E+01  0.51100000000E-03 0. -1.
        -11    1    3    3    0    0  0.30127656633E+01 -0.15939973471E+01  0.45971670269E+01  0.57228951955E+01  0.51100000000E-03 0.  1.
        -12    1    3    3    0    0  0.11364310391E+02  0.22033858584E+02  0.31862330501E+02  0.40371358408E+02  0.00000000000E+00 0.  1.
</event>
<event>
 7    1  0.3383281E-011  0.5052891E+02  0.7816164E-02  0.1300439E+00
        -11   -1    0    0    0    0  0.00000000000E+00  0.00000000000E+00  0.45593999997E+02  0.45594000000E+02  0.51100000000E-03 0.  1.
         11   -1    0    0    0    0 -0.00000000000E+00 -0.00000000000E+00 -0.45593999997E+02  0.45594000000E+02  0.51100000000E-03 0. -1.
    9900012    2    1    2    0    0  0.10564679619E+02 -0.35796704663E+02  0.16129020326E+02  0.50528907328E+02  0.30000144314E+02 0.  0.
         12    1    1    2    0    0 -0.10564679619E+02  0.35796704663E+02 -0.16129020326E+02  0.40659092672E+02  0.00000000000E+00 0. -1.
         11    1    3    3    0    0 -0.63295265901E+01 -0.63571102666E+01  0.40271624332E+01  0.98333003270E+01  0.51100000000E-03 0. -1.
        -11    1    3    3    0    0  0.10362252703E+02 -0.26153508563E+02  0.16047715424E+02  0.32386902628E+02  0.51100000000E-03 0.  1.
        -12    1    3    3    0    0  0.65319535060E+01 -0.32860858334E+01 -0.39458575303E+01  0.83087043730E+01  0.00000000000E+00 0.  1.
</event>
<event>
 7    1  0.3383281E-011  0.5052887E+02  0.7816164E-02  0.1300439E+00
        -11   -1    0    0    0    0  0.00000000000E+00  0.00000000000E+00  0.45593999997E+02  0.45594000000E+02  0.51100000000E-03 0. -1.
         11   -1    0    0    0    0 -0.00000000000E+00 -0.00000000000E+00 -0.45593999997E+02  0.45594000000E+02  0.51100000000E-03 0.  1.
    9900012    2    1    2    0    0 -0.25495662920E+02  0.31554628988E+02 -0.27279431710E+01  0.50528866804E+02  0.30000021138E+02 0.  0.
         12    1    1    2    0    0  0.25495662920E+02 -0.31554628988E+02  0.27279431710E+01  0.40659133196E+02  0.00000000000E+00 0. -1.
         11    1    3    3    0    0  0.37178073473E+00 -0.83043998088E-01 -0.14382383925E+01  0.14878330401E+01  0.51100000000E-03 0. -1.
        -11    1    3    3    0    0 -0.16460647362E+02  0.22134064551E+02 -0.13699050886E+02  0.30798274636E+02  0.51100000000E-03 0.  1.
         12    1    3    3    0    0 -0.94067962921E+01  0.95036084351E+01  0.12409346108E+02  0.18242759128E+02  0.00000000000E+00 0. -1.
</event>
<event>
 7    1  0.3383281E-011  0.5052885E+02  0.7816164E-02  0.1300439E+00
        -11   -1    0    0    0    0  0.00000000000E+00  0.00000000000E+00  0.45593999997E+02  0.45594000000E+02  0.51100000000E-03 0.  1.
         11   -1    0    0    0    0 -0.00000000000E+00 -0.00000000000E+00 -0.45593999997E+02  0.45594000000E+02  0.51100000000E-03 0. -1.
    9900012    2    1    2    0    0 -0.19351232568E+02 -0.13957598081E+02  0.32922361206E+02  0.50528848342E+02  0.29999965022E+02 0.  0.
         12    1    1    2    0    0  0.19351232568E+02  0.13957598081E+02 -0.32922361206E+02  0.40659151658E+02  0.00000000000E+00 0. -1.
         11    1    3    3    0    0 -0.27691863238E+01 -0.15593331829E+01 -0.20908186795E+00  0.31849063346E+01  0.51100000000E-03 0. -1.
        -11    1    3    3    0    0 -0.13046583453E+02 -0.39243860459E+01  0.70462107995E+00  0.13642237235E+02  0.51100000000E-03 0.  1.
        -12    1    3    3    0    0 -0.35354627911E+01 -0.84738788521E+01  0.32426821994E+02  0.33701704773E+02  0.00000000000E+00 0.  1.
</event>
<event>
 7    1  0.3383281E-011  0.5052886E+02  0.7816164E-02  0.1300439E+00
        -11   -1    0    0    0    0  0.00000000000E+00  0.00000000000E+00  0.45593999997E+02  0.45594000000E+02  0.51100000000E-03 0.  1.
         11   -1    0    0    0    0 -0.00000000000E+00 -0.00000000000E+00 -0.45593999997E+02  0.45594000000E+02  0.51100000000E-03 0. -1.
    9900012    2    1    2    0    0 -0.22653091872E+02  0.49279936537E+01  0.33402363807E+02  0.50528860797E+02  0.30000002879E+02 0.  0.
         12    1    1    2    0    0  0.22653091872E+02 -0.49279936537E+01 -0.33402363807E+02  0.40659139203E+02  0.00000000000E+00 0. -1.
         11    1    3    3    0    0  0.14774419767E+01 -0.53248211476E+01  0.18469431809E+00  0.55290747238E+01  0.51100000000E-03 0. -1.
        -11    1    3    3    0    0  0.17835686246E+01 -0.55181611902E+00  0.59636041472E+00  0.19599143025E+01  0.51100000000E-03 0.  1.
        -12    1    3    3    0    0 -0.25914102474E+02  0.10804630920E+02  0.32621309074E+02  0.43039871771E+02  0.00000000000E+00 0.  1.
</event>
<event>
 7    1  0.3383281E-011  0.5052885E+02  0.7816164E-02  0.1300439E+00
        -11   -1    0    0    0    0  0.00000000000E+00  0.00000000000E+00  0.45593999997E+02  0.45594000000E+02  0.51100000000E-03 0.  1.
         11   -1    0    0    0    0 -0.00000000000E+00 -0.00000000000E+00 -0.45593999997E+02  0.45594000000E+02  0.51100000000E-03 0. -1.
    9900012    2    1    2    0    0  0.41167026613E+01  0.15421294018E+02  0.37395226581E+02  0.50528849480E+02  0.29999968479E+02 0.  0.
         12    1    1    2    0    0 -0.41167026613E+01 -0.15421294018E+02 -0.37395226581E+02  0.40659150520E+02  0.00000000000E+00 0. -1.
         11    1    3    3    0    0 -0.19289368772E+01  0.11430067837E+01  0.75042873352E+01  0.78320872476E+01  0.51100000000E-03 0. -1.
        -11    1    3    3    0    0  0.25690588267E+01  0.20737389377E+02  0.28320847120E+02  0.35195308825E+02  0.51100000000E-03 0.  1.
        -12    1    3    3    0    0  0.34765807118E+01 -0.64591021430E+01  0.15700921256E+01  0.75014534073E+01  0.00000000000E+00 0.  1.
</event>
<event>
 7    1  0.3383281E-011  0.5052885E+02  0.7816164E-02  0.1300439E+00
        -11   -1    0    0    0    0  0.00000000000E+00  0.00000000000E+00  0.45593999997E+02  0.45594000000E+02  0.51100000000E-03 0.  1.
         11   -1    0    0    0    0 -0.00000000000E+00 -0.00000000000E+00 -0.45593999997E+02  0.45594000000E+02  0.51100000000E-03 0. -1.
    9900012    2    1    2    0    0  0.20143742533E+02 -0.14138887631E+02  0.32364914828E+02  0.50528853200E+02  0.29999979785E+02 0.  0.
         12    1    1    2    0    0 -0.20143742533E+02  0.14138887631E+02 -0.32364914828E+02  0.40659146800E+02  0.00000000000E+00 0. -1.
         11    1    3    3    0    0 -0.10596272752E+01 -0.74363490125E+00  0.61936258225E+01  0.63274642566E+01  0.51100000000E-03 0. -1.
        -11    1    3    3    0    0  0.13647084263E+02 -0.46313628935E+01  0.28916315703E+02  0.32308601722E+02  0.51100000000E-03 0.  1.
         12    1    3    3    0    0  0.75562855456E+01 -0.87638898366E+01 -0.27450266973E+01  0.11892787221E+02  0.00000000000E+00 0. -1.
</event>
<event>
 7    1  0.3383281E-011  0.5052887E+02  0.7816164E-02  0.1300439E+00
        -11   -1    0    0    0    0  0.00000000000E+00  0.00000000000E+00  0.45593999997E+02  0.45594000000E+02  0.51100000000E-03 0.  1.
         11   -1    0    0    0    0 -0.00000000000E+00 -0.00000000000E+00 -0.45593999997E+02  0.45594000000E+02  0.51100000000E-03 0. -1.
    9900012    2    1    2    0    0 -0.79684870711E+01 -0.37160664247E+02  0.14448301820E+02  0.50528865984E+02  0.30000018645E+02 0.  0.
         12    1    1    2    0    0  0.79684870711E+01  0.37160664247E+02 -0.14448301820E+02  0.40659134016E+02  0.00000000000E+00 0. -1.
         11    1    3    3    0    0  0.35216457756E+01 -0.22272821776E+01  0.88530832114E+01  0.97846746229E+01  0.51100000000E-03 0. -1.
        -11    1    3    3    0    0 -0.87817211203E+01 -0.18451121871E+02  0.10976015684E+02  0.23195591061E+02  0.51100000000E-03 0.  1.
         12    1    3    3    0    0 -0.27084117264E+01 -0.16482260198E+02 -0.53807970750E+01  0.17548600300E+02  0.00000000000E+00 0. -1.
</event>
<event>
 7    1  0.3383281E-011  0.5052887E+02  0.7816164E-02  0.1300439E+00
        -11   -1    0    0    0    0  0.00000000000E+00  0.00000000000E+00  0.45593999997E+02  0.45594000000E+02  0.51100000000E-03 0.  1.
         11   -1    0    0    0    0 -0.00000000000E+00 -0.00000000000E+00 -0.45593999997E+02  0.45594000000E+02  0.51100000000E-03 0. -1.
    9900012    2    1    2    0    0 -0.33542195176E+02 -0.10291686840E+02  0.20546705249E+02  0.50528870990E+02  0.30000033862E+02 0.  0.
         12    1    1    2    0    0  0.33542195176E+02  0.10291686840E+02 -0.20546705249E+02  0.40659129010E+02  0.00000000000E+00 0. -1.
         11    1    3    3    0    0 -0.59739845980E+01 -0.11516063909E+02  0.65621255209E+01  0.14538559473E+02  0.51100000000E-03 0. -1.
        -11    1    3    3    0    0 -0.23552706805E+02  0.15285171793E+00  0.23909142116E+01  0.23674244075E+02  0.51100000000E-03 0.  1.
        -12    1    3    3    0    0 -0.40155037726E+01  0.10715253512E+01  0.11593665517E+02  0.12316067442E+02  0.00000000000E+00 0.  1.
</event>
<event>
 7    1  0.3383281E-011  0.5052886E+02  0.7816164E-02  0.1300439E+00
        -11   -1    0    0    0    0  0.00000000000E+00  0.00000000000E+00  0.45593999997E+02  0.45594000000E+02  0.51100000000E-03 0.  1.
         11   -1    0    0    0    0 -0.00000000000E+00 -0.00000000000E+00 -0.45593999997E+02  0.45594000000E+02  0.51100000000E-03 0. -1.
    9900012    2    1    2    0    0 -0.12543108634E+02 -0.36136512822E+02  0.13783634041E+02  0.50528859570E+02  0.29999999148E+02 0.  0.
         12    1    1    2    0    0  0.12543108634E+02  0.36136512822E+02 -0.13783634041E+02  0.40659140430E+02  0.00000000000E+00 0. -1.
         11    1    3    3    0    0 -0.14928813679E+01  0.11921379942E+01 -0.28119189315E+01  0.33995258661E+01  0.51100000000E-03 0. -1.
        -11    1    3    3    0    0 -0.76427465203E+01 -0.13483281767E+02 -0.33489430990E+01  0.15856414529E+02  0.51100000000E-03 0.  1.
         12    1    3    3    0    0 -0.34074807462E+01 -0.23845369050E+02  0.19944496071E+02  0.31272919174E+02  0.00000000000E+00 0. -1.
</event>
<event>
 7    1  0.3383281E-011  0.5052886E+02  0.7816164E-02  0.1300439E+00
        -11   -1    0    0    0    0  0.00000000000E+00  0.00000000000E+00  0.45593999997E+02  0.45594000000E+02  0.51100000000E-03 0. -1.
         11   -1    0    0    0    0 -0.00000000000E+00 -0.00000000000E+00 -0.45593999997E+02  0.45594000000E+02  0.51100000000E-03 0.  1.
    9900012    2    1    2    0    0  0.36851260221E+01  0.12625236723E+02 -0.38473225417E+02  0.50528857977E+02  0.29999994307E+02 0.  0.
         12    1    1    2    0    0 -0.36851260221E+01 -0.12625236723E+02  0.38473225417E+02  0.40659142023E+02  0.00000000000E+00 0. -1.
         11    1    3    3    0    0 -0.72120640020E+01  0.45535261788E-01 -0.42226809128E+01  0.83574502679E+01  0.51100000000E-03 0. -1.
        -11    1    3    3    0    0 -0.48481459272E+01  0.10812893643E+01 -0.88769470728E+01  0.10172211914E+02  0.51100000000E-03 0.  1.
         12    1    3    3    0    0  0.15745335951E+02  0.11498412097E+02 -0.25373597431E+02  0.31999195795E+02  0.00000000000E+00 0. -1.
</event>
<event>
 7    1  0.3383281E-011  0.5052887E+02  0.7816164E-02  0.1300439E+00
        -11   -1    0    0    0    0  0.00000000000E+00  0.00000000000E+00  0.45593999997E+02  0.45594000000E+02  0.51100000000E-03 0.  1.
         11   -1    0    0    0    0 -0.00000000000E+00 -0.00000000000E+00 -0.45593999997E+02  0.45594000000E+02  0.51100000000E-03 0. -1.
    9900012    2    1    2    0    0 -0.37423777967E+01  0.16691296582E+02  0.36885774415E+02  0.50528866618E+02  0.30000020572E+02 0.  0.
         12    1    1    2    0    0  0.37423777967E+01 -0.16691296582E+02 -0.36885774415E+02  0.40659133382E+02  0.00000000000E+00 0. -1.
         11    1    3    3    0    0  0.55700587966E+01  0.45620055066E+01  0.18290108305E+01  0.74285079336E+01  0.51100000000E-03 0. -1.
        -11    1    3    3    0    0  0.30030105601E+01  0.19985196813E+01  0.22542945505E+02  0.22829729425E+02  0.51100000000E-03 0.  1.
        -12    1    3    3    0    0 -0.12315447153E+02  0.10130771394E+02  0.12513818080E+02  0.20270629259E+02  0.00000000000E+00 0.  1.
</event>
<event>
 7    1  0.3383281E-011  0.5052886E+02  0.7816164E-02  0.1300439E+00
        -11   -1    0    0    0    0  0.00000000000E+00  0.00000000000E+00  0.45593999997E+02  0.45594000000E+02  0.51100000000E-03 0.  1.
         11   -1    0    0    0    0 -0.00000000000E+00 -0.00000000000E+00 -0.45593999997E+02  0.45594000000E+02  0.51100000000E-03 0. -1.
    9900012    2    1    2    0    0 -0.29239528623E+02  0.58454666680E+01  0.27641391490E+02  0.50528855418E+02  0.29999986528E+02 0.  0.
         12    1    1    2    0    0  0.29239528623E+02 -0.58454666680E+01 -0.27641391490E+02  0.40659144582E+02  0.00000000000E+00 0. -1.
         11    1    3    3    0    0  0.27649223547E+01 -0.57682105023E+01  0.44847697886E+01  0.78121833277E+01  0.51100000000E-03 0. -1.
        -11    1    3    3    0    0 -0.99067461325E+01  0.18564078362E+01  0.13154001299E+02  0.16571590733E+02  0.51100000000E-03 0.  1.
        -12    1    3    3    0    0 -0.22097704845E+02  0.97572693341E+01  0.10002620403E+02  0.26145081357E+02  0.00000000000E+00 0.  1.
</event>
<event>
 7    1  0.3383281E-011  0.5052886E+02  0.7816164E-02  0.1300439E+00
        -11   -1    0    0    0    0  0.00000000000E+00  0.00000000000E+00  0.45593999997E+02  0.45594000000E+02  0.51100000000E-03 0. -1.
         11   -1    0    0    0    0 -0.00000000000E+00 -0.00000000000E+00 -0.45593999997E+02  0.45594000000E+02  0.51100000000E-03 0.  1.
    9900012    2    1    2    0    0 -0.30577829613E+02 -0.17996512766E+02 -0.19856672137E+02  0.50528861249E+02  0.30000004254E+02 0.  0.
         12    1    1    2    0    0  0.30577829613E+02  0.17996512766E+02  0.19856672137E+02  0.40659138751E+02  0.00000000000E+00 0. -1.
         11    1    3    3    0    0 -0.80009003631E+01 -0.33712663182E+01 -0.84097106130E+01  0.12087310539E+02  0.51100000000E-03 0.  1.
        -11    1    3    3    0    0 -0.20904124864E+02 -0.99846271177E+01 -0.18629875420E+02  0.29727890497E+02  0.51100000000E-03 0. -1.
         12    1    3    3    0    0 -0.16728043864E+01 -0.46406193299E+01  0.71829138956E+01  0.87136602132E+01  0.00000000000E+00 0. -1.
</event>
<event>
 7    1  0.3383281E-011  0.5052886E+02  0.7816164E-02  0.1300439E+00
        -11   -1    0    0    0    0  0.00000000000E+00  0.00000000000E+00  0.45593999997E+02  0.45594000000E+02  0.51100000000E-03 0.  1.
         11   -1    0    0    0    0 -0.00000000000E+00 -0.00000000000E+00 -0.45593999997E+02  0.45594000000E+02  0.51100000000E-03 0. -1.
    9900012    2    1    2    0    0 -0.17298170515E+02  0.32462661118E+02  0.17323822041E+02  0.50528857361E+02  0.29999992435E+02 0.  0.
         12    1    1    2    0    0  0.17298170515E+02 -0.32462661118E+02 -0.17323822041E+02  0.40659142639E+02  0.00000000000E+00 0. -1.
         11    1    3    3    0    0 -0.70384756993E+01  0.27322600461E+00  0.20880826026E+01  0.73467599549E+01  0.51100000000E-03 0. -1.
        -11    1    3    3    0    0 -0.11406057334E+02  0.18199929512E+02  0.18971015362E+02  0.28657198088E+02  0.51100000000E-03 0.  1.
        -12    1    3    3    0    0  0.11463625178E+01  0.13989505601E+02 -0.37352759235E+01  0.14524899318E+02  0.00000000000E+00 0.  1.
</event>
<event>
 7    1  0.3383281E-011  0.5052885E+02  0.7816164E-02  0.1300439E+00
        -11   -1    0    0    0    0  0.00000000000E+00  0.00000000000E+00  0.45593999997E+02  0.45594000000E+02  0.51100000000E-03 0.  1.
         11   -1    0    0    0    0 -0.00000000000E+00 -0.00000000000E+00 -0.45593999997E+02  0.45594000000E+02  0.51100000000E-03 0. -1.
    9900012    2    1    2    0    0  0.27565501279E+02 -0.25359121702E+02  0.15818477031E+02  0.50528854290E+02  0.29999983101E+02 0.  0.
         12    1    1    2    0    0 -0.27565501279E+02  0.25359121702E+02 -0.15818477031E+02  0.40659145710E+02  0.00000000000E+00 0. -1.
         11    1    3    3    0    0  0.12696509487E+02  0.29901781746E+00 -0.23250508173E+00  0.12702158229E+02  0.51100000000E-03 0. -1.
        -11    1    3    3    0    0  0.16609802089E+01 -0.37515750531E+00 -0.30526903848E+01  0.34954995715E+01  0.51100000000E-03 0.  1.
        -12    1    3    3    0    0  0.13208011583E+02 -0.25282982014E+02  0.19103672497E+02  0.34331196489E+02  0.00000000000E+00 0.  1.
</event>
<event>
 7    1  0.3383281E-011  0.5052886E+02  0.7816164E-02  0.1300439E+00
        -11   -1    0    0    0    0  0.00000000000E+00  0.00000000000E+00  0.45593999997E+02  0.45594000000E+02  0.51100000000E-03 0.  1.
         11   -1    0    0    0    0 -0.00000000000E+00 -0.00000000000E+00 -0.45593999997E+02  0.45594000000E+02  0.51100000000E-03 0. -1.
    9900012    2    1    2    0    0  0.10381776060E+02 -0.33225177459E+02  0.21011230406E+02  0.50528862103E+02  0.30000006848E+02 0.  0.
         12    1    1    2    0    0 -0.10381776060E+02  0.33225177459E+02 -0.21011230406E+02  0.40659137897E+02  0.00000000000E+00 0. -1.
         11    1    3    3    0    0  0.61549151147E+01  0.12857058273E+01  0.50030439846E+01  0.80353263105E+01  0.51100000000E-03 0. -1.
        -11    1    3    3    0    0 -0.32209365626E+01  0.45459283854E+00  0.30747483161E+01  0.44760657343E+01  0.51100000000E-03 0.  1.
        -12    1    3    3    0    0  0.74477975079E+01 -0.34965476125E+02  0.12933438105E+02  0.38017470058E+02  0.00000000000E+00 0.  1.
</event>
<event>
 7    1  0.3383281E-011  0.5052886E+02  0.7816164E-02  0.1300439E+00
        -11   -1    0    0    0    0  0.00000000000E+00  0.00000000000E+00  0.45593999997E+02  0.45594000000E+02  0.51100000000E-03 0. -1.
         11   -1    0    0    0    0 -0.00000000000E+00 -0.00000000000E+00 -0.45593999997E+02  0.45594000000E+02  0.51100000000E-03 0.  1.
    9900012    2    1    2    0    0 -0.12104929340E+02  0.38171863397E+02 -0.70388214598E+01  0.50528862318E+02  0.30000007501E+02 0.  0.
         12    1    1    2    0    0  0.12104929340E+02 -0.38171863397E+02  0.70388214598E+01  0.40659137682E+02  0.00000000000E+00 0. -1.
         11    1    3    3    0    0 -0.53280631283E+00  0.31065627508E+00  0.31825747898E+01  0.32417853788E+01  0.51100000000E-03 0. -1.
        -11    1    3    3    0    0  0.65419071292E+01  0.10172265553E+02  0.14947861145E+01  0.12186300552E+02  0.51100000000E-03 0.  1.
        -12    1    3    3    0    0 -0.18114030157E+02  0.27688941569E+02 -0.11716182364E+02  0.35100776386E+02  0.00000000000E+00 0.  1.
</event>
<event>
 7    1  0.3383281E-011  0.5052886E+02  0.7816164E-02  0.1300439E+00
        -11   -1    0    0    0    0  0.00000000000E+00  0.00000000000E+00  0.45593999997E+02  0.45594000000E+02  0.51100000000E-03 0.  1.
         11   -1    0    0    0    0 -0.00000000000E+00 -0.00000000000E+00 -0.45593999997E+02  0.45594000000E+02  0.51100000000E-03 0. -1.
    9900012    2    1    2    0    0  0.13869476480E+02 -0.37424704820E+02  0.77585453223E+01  0.50528856696E+02  0.29999990414E+02 0.  0.
         12    1    1    2    0    0 -0.13869476480E+02  0.37424704820E+02 -0.77585453223E+01  0.40659143304E+02  0.00000000000E+00 0. -1.
         11    1    3    3    0    0 -0.44817985467E+01 -0.33851970135E+00 -0.39130094882E+01  0.59592581180E+01  0.51100000000E-03 0. -1.
        -11    1    3    3    0    0  0.12428559590E+01 -0.84641332813E+01 -0.15580556644E+01  0.86956184859E+01  0.51100000000E-03 0.  1.
         12    1    3    3    0    0  0.17108419068E+02 -0.28622051837E+02  0.13229610475E+02  0.35873980092E+02  0.00000000000E+00 0. -1.
</event>
<event>
 7    1  0.3383281E-011  0.5052886E+02  0.7816164E-02  0.1300439E+00
        -11   -1    0    0    0    0  0.00000000000E+00  0.00000000000E+00  0.45593999997E+02  0.45594000000E+02  0.51100000000E-03 0. -1.
         11   -1    0    0    0    0 -0.00000000000E+00 -0.00000000000E+00 -0.45593999997E+02  0.45594000000E+02  0.51100000000E-03 0.  1.
    9900012    2    1    2    0    0  0.22276352260E+02  0.32987750354E+02  0.82908700702E+01  0.50528855027E+02  0.29999985341E+02 0.  0.
         12    1    1    2    0    0 -0.22276352260E+02 -0.32987750354E+02 -0.82908700702E+01  0.40659144973E+02  0.00000000000E+00 0. -1.
         11    1    3    3    0    0  0.68960412911E+01 -0.26286693229E+01  0.59379703765E+01  0.94723165251E+01  0.51100000000E-03 0. -1.
        -11    1    3    3    0    0  0.10297492240E+02  0.88535268520E+01 -0.96212318665E+00  0.13614292689E+02  0.51100000000E-03 0.  1.
         12    1    3    3    0    0  0.50828187288E+01  0.26762892824E+02  0.33150228803E+01  0.27442245813E+02  0.00000000000E+00 0. -1.
</event>
<event>
 7    1  0.3383281E-011  0.5052884E+02  0.7816164E-02  0.1300439E+00
        -11   -1    0    0    0    0  0.00000000000E+00  0.00000000000E+00  0.45593999997E+02  0.45594000000E+02  0.51100000000E-03 0.  1.
         11   -1    0    0    0    0 -0.00000000000E+00 -0.00000000000E+00 -0.45593999997E+02  0.45594000000E+02  0.51100000000E-03 0. -1.
    9900012    2    1    2    0    0 -0.22419207660E+02  0.10600576717E+02  0.32220708295E+02  0.50528841846E+02  0.29999945274E+02 0.  0.
         12    1    1    2    0    0  0.22419207660E+02 -0.10600576717E+02 -0.32220708295E+02  0.40659158154E+02  0.00000000000E+00 0. -1.
         11    1    3    3    0    0 -0.21081994136E+02  0.20889695170E+01  0.23511582622E+02  0.31648203552E+02  0.51100000000E-03 0. -1.
        -11    1    3    3    0    0 -0.16483912037E+01  0.89702935238E+01  0.12263548278E+02  0.15283258032E+02  0.51100000000E-03 0.  1.
         12    1    3    3    0    0  0.31117768017E+00 -0.45868632380E+00 -0.35544226048E+01  0.35973802615E+01  0.00000000000E+00 0. -1.
</event>
<event>
 7    1  0.3383281E-011  0.5052887E+02  0.7816164E-02  0.1300439E+00
        -11   -1    0    0    0    0  0.00000000000E+00  0.00000000000E+00  0.45593999997E+02  0.45594000000E+02  0.51100000000E-03 0. -1.
         11   -1    0    0    0    0 -0.00000000000E+00 -0.00000000000E+00 -0.45593999997E+02  0.45594000000E+02  0.51100000000E-03 0.  1.
    9900012    2    1    2    0    0 -0.25786703436E+02 -0.24695452396E+01 -0.31338670237E+02  0.50528868430E+02  0.30000026080E+02 0.  0.
         12    1    1    2    0    0  0.25786703436E+02  0.24695452396E+01  0.31338670237E+02  0.40659131570E+02  0.00000000000E+00 0. -1.
         11    1    3    3    0    0  0.35417468534E+01  0.23427917590E+01 -0.83954551735E+01  0.94083107852E+01  0.51100000000E-03 0. -1.
        -11    1    3    3    0    0  0.79754442465E+00  0.54653489727E+00 -0.61318270399E+01  0.62075825095E+01  0.51100000000E-03 0.  1.
         12    1    3    3    0    0 -0.30125994714E+02 -0.53588718958E+01 -0.16811388023E+02  0.34912975135E+02  0.00000000000E+00 0. -1.
</event>
<event>
 7    1  0.3383281E-011  0.5052886E+02  0.7816164E-02  0.1300439E+00
        -11   -1    0    0    0    0  0.00000000000E+00  0.00000000000E+00  0.45593999997E+02  0.45594000000E+02  0.51100000000E-03 0.  1.
         11   -1    0    0    0    0 -0.00000000000E+00 -0.00000000000E+00 -0.45593999997E+02  0.45594000000E+02  0.51100000000E-03 0. -1.
    9900012    2    1    2    0    0 -0.44927043222E+01 -0.17432393480E+02  0.36456729600E+02  0.50528857514E+02  0.29999992900E+02 0.  0.
         12    1    1    2    0    0  0.44927043222E+01  0.17432393480E+02 -0.36456729600E+02  0.40659142486E+02  0.00000000000E+00 0. -1.
         11    1    3    3    0    0 -0.36435993375E+01 -0.13615305929E+02  0.53094191409E+00  0.14104406093E+02  0.51100000000E-03 0. -1.
        -11    1    3    3    0    0 -0.13621603666E+00  0.86619894877E-01 -0.93955438562E-01  0.18677714097E+00  0.51100000000E-03 0.  1.
        -12    1    3    3    0    0 -0.71288894810E+00 -0.39037074462E+01  0.36019743124E+02  0.36237674280E+02  0.00000000000E+00 0.  1.
</event>
<event>
 7    1  0.3383281E-011  0.5052885E+02  0.7816164E-02  0.1300439E+00
        -11   -1    0    0    0    0  0.00000000000E+00  0.00000000000E+00  0.45593999997E+02  0.45594000000E+02  0.51100000000E-03 0. -1.
         11   -1    0    0    0    0 -0.00000000000E+00 -0.00000000000E+00 -0.45593999997E+02  0.45594000000E+02  0.51100000000E-03 0.  1.
    9900012    2    1    2    0    0 -0.24334067379E+01  0.13257997930E+02 -0.38359754605E+02  0.50528846654E+02  0.29999959890E+02 0.  0.
         12    1    1    2    0    0  0.24334067379E+01 -0.13257997930E+02  0.38359754605E+02  0.40659153346E+02  0.00000000000E+00 0. -1.
         11    1    3    3    0    0  0.51307801233E+01 -0.34340341453E+01 -0.53481860697E+01  0.81682672387E+01  0.51100000000E-03 0. -1.
        -11    1    3    3    0    0  0.91624279592E+00  0.94803930712E+01 -0.24499376985E+01  0.98346097346E+01  0.51100000000E-03 0.  1.
         12    1    3    3    0    0 -0.84804296571E+01  0.72116390042E+01 -0.30561630837E+02  0.32525969681E+02  0.00000000000E+00 0. -1.
</event>
<event>
 7    1  0.3383281E-011  0.5052887E+02  0.7816164E-02  0.1300439E+00
        -11   -1    0    0    0    0  0.00000000000E+00  0.00000000000E+00  0.45593999997E+02  0.45594000000E+02  0.51100000000E-03 0. -1.
         11   -1    0    0    0    0 -0.00000000000E+00 -0.00000000000E+00 -0.45593999997E+02  0.45594000000E+02  0.51100000000E-03 0.  1.
    9900012    2    1    2    0    0 -0.14224656189E+02  0.15638853823E+02 -0.34731112820E+02  0.50528870763E+02  0.30000033171E+02 0.  0.
         12    1    1    2    0    0  0.14224656189E+02 -0.15638853823E+02  0.34731112820E+02  0.40659129237E+02  0.00000000000E+00 0. -1.
         11    1    3    3    0    0 -0.30920864273E+01  0.17395569546E+02 -0.13447594839E+02  0.22203707922E+02  0.51100000000E-03 0.  1.
        -11    1    3    3    0    0  0.34484172838E+01  0.14690517886E+01 -0.46171341809E+01  0.59470684564E+01  0.51100000000E-03 0. -1.
         12    1    3    3    0    0 -0.14580987046E+02 -0.32257675115E+01 -0.16666383801E+02  0.22378094384E+02  0.00000000000E+00 0. -1.
</event>
<event>
 7    1  0.3383281E-011  0.5052885E+02  0.7816164E-02  0.1300439E+00
        -11   -1    0    0    0    0  0.00000000000E+00  0.00000000000E+00  0.45593999997E+02  0.45594000000E+02  0.51100000000E-03 0.  1.
         11   -1    0    0    0    0 -0.00000000000E+00 -0.00000000000E+00 -0.45593999997E+02  0.45594000000E+02  0.51100000000E-03 0. -1.
    9900012    2    1    2    0    0 -0.11822036227E+02 -0.30303541674E+02  0.24394690824E+02  0.50528854425E+02  0.29999983510E+02 0.  0.
         12    1    1    2    0    0  0.11822036227E+02  0.30303541674E+02 -0.24394690824E+02  0.40659145575E+02  0.00000000000E+00 0. -1.
         11    1    3    3    0    0 -0.18092541386E+01 -0.31784269011E+01 -0.62950447458E+01  0.72803424862E+01  0.51100000000E-03 0. -1.
        -11    1    3    3    0    0 -0.87594851228E+01 -0.10502391508E+02  0.15804243650E+02  0.20899830731E+02  0.51100000000E-03 0.  1.
        -12    1    3    3    0    0 -0.12532969656E+01 -0.16622723265E+02  0.14885491920E+02  0.22348681207E+02  0.00000000000E+00 0.  1.
</event>
<event>
 7    1  0.3383281E-011  0.5052886E+02  0.7816164E-02  0.1300439E+00
        -11   -1    0    0    0    0  0.00000000000E+00  0.00000000000E+00  0.45593999997E+02  0.45594000000E+02  0.51100000000E-03 0.  1.
         11   -1    0    0    0    0 -0.00000000000E+00 -0.00000000000E+00 -0.45593999997E+02  0.45594000000E+02  0.51100000000E-03 0. -1.
    9900012    2    1    2    0    0  0.40451895761E+02  0.40940343242E+01 -0.22140278358E+00  0.50528855803E+02  0.29999987698E+02 0.  0.
         12    1    1    2    0    0 -0.40451895761E+02 -0.40940343242E+01  0.22140278358E+00  0.40659144197E+02  0.00000000000E+00 0. -1.
         11    1    3    3    0    0  0.26094096470E+02  0.34822198347E+01 -0.36088208391E+01  0.26571626101E+02  0.51100000000E-03 0. -1.
        -11    1    3    3    0    0  0.16337998065E+02  0.64258407800E+01  0.20957704682E+01  0.17680889814E+02  0.51100000000E-03 0.  1.
         12    1    3    3    0    0 -0.19801987742E+01 -0.58140262905E+01  0.12916475873E+01  0.62763398874E+01  0.00000000000E+00 0. -1.
</event>
<event>
 7    1  0.4427291E-011  0.5052886E+02  0.7816164E-02  0.1300439E+00
        -11   -1    0    0    0    0  0.00000000000E+00  0.00000000000E+00  0.45593999997E+02  0.45594000000E+02  0.51100000000E-03 0.  1.
         11   -1    0    0    0    0 -0.00000000000E+00 -0.00000000000E+00 -0.45593999997E+02  0.45594000000E+02  0.51100000000E-03 0. -1.
    9900012    2    1    2    0    0 -0.29229707895E+02  0.15323911578E+02  0.23747999660E+02  0.50528861082E+02  0.30000003745E+02 0.  0.
         12    1    1    2    0    0  0.29229707895E+02 -0.15323911578E+02 -0.23747999660E+02  0.40659138918E+02  0.00000000000E+00 0. -1.
         11    1    3    3    0    0 -0.13383995021E+02 -0.39134395385E+01  0.80320040613E+01  0.16092216170E+02  0.51100000000E-03 0. -1.
        -11    1    3    3    0    0 -0.16362658828E+02  0.61156063083E+01  0.98522604915E+01  0.20055031326E+02  0.51100000000E-03 0.  1.
         12    1    3    3    0    0  0.51694595398E+00  0.13121744808E+02  0.58637351069E+01  0.14381613586E+02  0.00000000000E+00 0. -1.
</event>
<event>
 7    1  0.3383281E-011  0.5052888E+02  0.7816164E-02  0.1300439E+00
        -11   -1    0    0    0    0  0.00000000000E+00  0.00000000000E+00  0.45593999997E+02  0.45594000000E+02  0.51100000000E-03 0.  1.
         11   -1    0    0    0    0 -0.00000000000E+00 -0.00000000000E+00 -0.45593999997E+02  0.45594000000E+02  0.51100000000E-03 0. -1.
    9900012    2    1    2    0    0  0.20769734699E+02 -0.32934952024E+00  0.34952448613E+02  0.50528880302E+02  0.30000062166E+02 0.  0.
         12    1    1    2    0    0 -0.20769734699E+02  0.32934952024E+00 -0.34952448613E+02  0.40659119698E+02  0.00000000000E+00 0. -1.
         11    1    3    3    0    0 -0.51985716502E+01  0.56378459298E+01  0.70688730587E+01  0.10429737317E+02  0.51100000000E-03 0. -1.
        -11    1    3    3    0    0  0.11964716159E+02 -0.67621695204E+01  0.19167380835E+02  0.23585373809E+02  0.51100000000E-03 0.  1.
        -12    1    3    3    0    0  0.14003590190E+02  0.79497407040E+00  0.87161947193E+01  0.16513769175E+02  0.00000000000E+00 0.  1.
</event>
<event>
 7    1  0.3383281E-011  0.5052885E+02  0.7816164E-02  0.1300439E+00
        -11   -1    0    0    0    0  0.00000000000E+00  0.00000000000E+00  0.45593999997E+02  0.45594000000E+02  0.51100000000E-03 0. -1.
         11   -1    0    0    0    0 -0.00000000000E+00 -0.00000000000E+00 -0.45593999997E+02  0.45594000000E+02  0.51100000000E-03 0.  1.
    9900012    2    1    2    0    0 -0.30557743239E+02  0.14496453209E+00 -0.26821068522E+02  0.50528850928E+02  0.29999972882E+02 0.  0.
         12    1    1    2    0    0  0.30557743239E+02 -0.14496453209E+00  0.26821068522E+02  0.40659149072E+02  0.00000000000E+00 0. -1.
         11    1    3    3    0    0 -0.40488139150E+00  0.17643733671E+01 -0.40212606454E+01  0.44099296773E+01  0.51100000000E-03 0. -1.
        -11    1    3    3    0    0 -0.10070078014E+02  0.11585383414E+02 -0.47740903562E+01  0.16075432157E+02  0.51100000000E-03 0.  1.
         12    1    3    3    0    0 -0.20082783833E+02 -0.13204792249E+02 -0.18025717520E+02  0.30043489094E+02  0.00000000000E+00 0. -1.
</event>
<event>
 7    1  0.3383281E-011  0.5052887E+02  0.7816164E-02  0.1300439E+00
        -11   -1    0    0    0    0  0.00000000000E+00  0.00000000000E+00  0.45593999997E+02  0.45594000000E+02  0.51100000000E-03 0.  1.
         11   -1    0    0    0    0 -0.00000000000E+00 -0.00000000000E+00 -0.45593999997E+02  0.45594000000E+02  0.51100000000E-03 0. -1.
    9900012    2    1    2    0    0  0.16042492784E+02  0.38247624712E+00  0.37358490725E+02  0.50528871972E+02  0.30000036845E+02 0.  0.
         12    1    1    2    0    0 -0.16042492784E+02 -0.38247624712E+00 -0.37358490725E+02  0.40659128028E+02  0.00000000000E+00 0. -1.
         11    1    3    3    0    0 -0.43242603281E+01 -0.35841236983E+01  0.15408844649E+01  0.58240445796E+01  0.51100000000E-03 0. -1.
        -11    1    3    3    0    0  0.56431168834E+01  0.65358504762E+01  0.24440952261E+02  0.25921463255E+02  0.51100000000E-03 0.  1.
        -12    1    3    3    0    0  0.14723636229E+02 -0.25692505309E+01  0.11376653999E+02  0.18783364137E+02  0.00000000000E+00 0.  1.
</event>
<event>
 7    1  0.3383281E-011  0.5052886E+02  0.7816164E-02  0.1300439E+00
        -11   -1    0    0    0    0  0.00000000000E+00  0.00000000000E+00  0.45593999997E+02  0.45594000000E+02  0.51100000000E-03 0.  1.
         11   -1    0    0    0    0 -0.00000000000E+00 -0.00000000000E+00 -0.45593999997E+02  0.45594000000E+02  0.51100000000E-03 0. -1.
    9900012    2    1    2    0    0  0.23454870964E+02 -0.20512051474E+02  0.26120686447E+02  0.50528862182E+02  0.30000007089E+02 0.  0.
         12    1    1    2    0    0 -0.23454870964E+02  0.20512051474E+02 -0.26120686447E+02  0.40659137818E+02  0.00000000000E+00 0. -1.
         11    1    3    3    0    0  0.15070659844E+02  0.24338060861E+01  0.13569189171E+02  0.20424766712E+02  0.51100000000E-03 0. -1.
        -11    1    3    3    0    0  0.13766791226E+00 -0.49031554012E+01  0.85641655799E+01  0.98693879082E+01  0.51100000000E-03 0.  1.
         12    1    3    3    0    0  0.82465432077E+01 -0.18042702159E+02  0.39873316966E+01  0.20234707562E+02  0.00000000000E+00 0. -1.
</event>
<event>
 7    1  0.3383281E-011  0.5052886E+02  0.7816164E-02  0.1300439E+00
        -11   -1    0    0    0    0  0.00000000000E+00  0.00000000000E+00  0.45593999997E+02  0.45594000000E+02  0.51100000000E-03 0.  1.
         11   -1    0    0    0    0 -0.00000000000E+00 -0.00000000000E+00 -0.45593999997E+02  0.45594000000E+02  0.51100000000E-03 0. -1.
    9900012    2    1    2    0    0  0.24480280845E+02  0.13415477954E+02  0.29561907778E+02  0.50528860923E+02  0.30000003262E+02 0.  0.
         12    1    1    2    0    0 -0.24480280845E+02 -0.13415477954E+02 -0.29561907778E+02  0.40659139077E+02  0.00000000000E+00 0. -1.
         11    1    3    3    0    0  0.15545255476E+02  0.77717147958E+01  0.11955498925E+02  0.21094749904E+02  0.51100000000E-03 0. -1.
        -11    1    3    3    0    0  0.10547676844E+02 -0.18717131273E+01  0.18817183319E+02  0.21652787007E+02  0.51100000000E-03 0.  1.
         12    1    3    3    0    0 -0.16126514757E+01  0.75154762856E+01 -0.12107744661E+01  0.77813240126E+01  0.00000000000E+00 0. -1.
</event>
<event>
 7    1  0.3383281E-011  0.5052889E+02  0.7816164E-02  0.1300439E+00
        -11   -1    0    0    0    0  0.00000000000E+00  0.00000000000E+00  0.45593999997E+02  0.45594000000E+02  0.51100000000E-03 0. -1.
         11   -1    0    0    0    0 -0.00000000000E+00 -0.00000000000E+00 -0.45593999997E+02  0.45594000000E+02  0.51100000000E-03 0.  1.
    9900012    2    1    2    0    0 -0.30910951010E+02 -0.11307532143E+02 -0.23870826264E+02  0.50528886359E+02  0.30000080578E+02 0.  0.
         12    1    1    2    0    0  0.30910951010E+02  0.11307532143E+02  0.23870826264E+02  0.40659113641E+02  0.00000000000E+00 0. -1.
         11    1    3    3    0    0 -0.59356851177E+01 -0.54869150162E+01 -0.19688299022E+01  0.83195484046E+01  0.51100000000E-03 0.  1.
        -11    1    3    3    0    0 -0.15962422548E+02 -0.15320606395E+02 -0.91862570570E+01  0.23956361011E+02  0.51100000000E-03 0. -1.
         12    1    3    3    0    0 -0.90128433438E+01  0.94999892677E+01 -0.12715739305E+02  0.18252976944E+02  0.00000000000E+00 0. -1.
</event>
<event>
 7    1  0.3383281E-011  0.5052887E+02  0.7816164E-02  0.1300439E+00
        -11   -1    0    0    0    0  0.00000000000E+00  0.00000000000E+00  0.45593999997E+02  0.45594000000E+02  0.51100000000E-03 0.  1.
         11   -1    0    0    0    0 -0.00000000000E+00 -0.00000000000E+00 -0.45593999997E+02  0.45594000000E+02  0.51100000000E-03 0. -1.
    9900012    2    1    2    0    0 -0.69966256495E+01  0.32365608156E+02  0.23594058504E+02  0.50528868695E+02  0.30000026885E+02 0.  0.
         12    1    1    2    0    0  0.69966256495E+01 -0.32365608156E+02 -0.23594058504E+02  0.40659131305E+02  0.00000000000E+00 0. -1.
         11    1    3    3    0    0 -0.26892297030E+00  0.91640362584E+01  0.98363248928E+01  0.13446381215E+02  0.51100000000E-03 0.  1.
        -11    1    3    3    0    0  0.40210093175E+01  0.75676730363E+01 -0.53927500991E+01  0.10125213332E+02  0.51100000000E-03 0. -1.
         12    1    3    3    0    0 -0.10748711997E+02  0.15633898862E+02  0.19150483710E+02  0.26957274149E+02  0.00000000000E+00 0. -1.
</event>
<event>
 7    1  0.3383281E-011  0.5052886E+02  0.7816164E-02  0.1300439E+00
        -11   -1    0    0    0    0  0.00000000000E+00  0.00000000000E+00  0.45593999997E+02  0.45594000000E+02  0.51100000000E-03 0.  1.
         11   -1    0    0    0    0 -0.00000000000E+00 -0.00000000000E+00 -0.45593999997E+02  0.45594000000E+02  0.51100000000E-03 0. -1.
    9900012    2    1    2    0    0 -0.38905281219E+02 -0.10016225191E+02 -0.62625757454E+01  0.50528861682E+02  0.30000005569E+02 0.  0.
         12    1    1    2    0    0  0.38905281219E+02  0.10016225191E+02  0.62625757454E+01  0.40659138318E+02  0.00000000000E+00 0. -1.
         11    1    3    3    0    0 -0.75923224195E+01 -0.50467780107E+01  0.11340322678E+01  0.91869122917E+01  0.51100000000E-03 0. -1.
        -11    1    3    3    0    0 -0.15529374662E+02 -0.14535269303E+02  0.47861953218E+00  0.21275916150E+02  0.51100000000E-03 0.  1.
         12    1    3    3    0    0 -0.15783584137E+02  0.95658221230E+01 -0.78752275454E+01  0.20066033240E+02  0.00000000000E+00 0. -1.
</event>
<event>
 7    1  0.3383281E-011  0.5052886E+02  0.7816164E-02  0.1300439E+00
        -11   -1    0    0    0    0  0.00000000000E+00  0.00000000000E+00  0.45593999997E+02  0.45594000000E+02  0.51100000000E-03 0.  1.
         11   -1    0    0    0    0 -0.00000000000E+00 -0.00000000000E+00 -0.45593999997E+02  0.45594000000E+02  0.51100000000E-03 0. -1.
    9900012    2    1    2    0    0 -0.26643701939E+02  0.11554388201E+02  0.28456539118E+02  0.50528863779E+02  0.30000011942E+02 0.  0.
         12    1    1    2    0    0  0.26643701939E+02 -0.11554388201E+02 -0.28456539118E+02  0.40659136221E+02  0.00000000000E+00 0. -1.
         11    1    3    3    0    0 -0.35763960704E+01  0.89948594078E+01 -0.15632260963E+01  0.98051915181E+01  0.51100000000E-03 0. -1.
        -11    1    3    3    0    0  0.90055603944E+00  0.25213702327E+01  0.54215940429E+00  0.27317112057E+01  0.51100000000E-03 0.  1.
        -12    1    3    3    0    0 -0.23967861908E+02  0.38158560509E-01  0.29477605810E+02  0.37991961055E+02  0.00000000000E+00 0.  1.
</event>
<event>
 7    1  0.3383281E-011  0.5052886E+02  0.7816164E-02  0.1300439E+00
        -11   -1    0    0    0    0  0.00000000000E+00  0.00000000000E+00  0.45593999997E+02  0.45594000000E+02  0.51100000000E-03 0.  1.
         11   -1    0    0    0    0 -0.00000000000E+00 -0.00000000000E+00 -0.45593999997E+02  0.45594000000E+02  0.51100000000E-03 0. -1.
    9900012    2    1    2    0    0  0.14416784030E+02  0.37895984794E+02 -0.30357825947E+01  0.50528864480E+02  0.30000014074E+02 0.  0.
         12    1    1    2    0    0 -0.14416784030E+02 -0.37895984794E+02  0.30357825947E+01  0.40659135520E+02  0.00000000000E+00 0. -1.
         11    1    3    3    0    0  0.49923713647E+01  0.16942432602E+02 -0.10488409014E+01  0.17693780315E+02  0.51100000000E-03 0. -1.
        -11    1    3    3    0    0  0.30562090415E+01  0.24824233301E+02 -0.34258309435E+01  0.25245183513E+02  0.51100000000E-03 0.  1.
        -12    1    3    3    0    0  0.63682036241E+01 -0.38706811092E+01  0.14388892502E+01  0.75899006529E+01  0.00000000000E+00 0.  1.
</event>
<event>
 7    1  0.3383281E-011  0.5052885E+02  0.7816164E-02  0.1300439E+00
        -11   -1    0    0    0    0  0.00000000000E+00  0.00000000000E+00  0.45593999997E+02  0.45594000000E+02  0.51100000000E-03 0. -1.
         11   -1    0    0    0    0 -0.00000000000E+00 -0.00000000000E+00 -0.45593999997E+02  0.45594000000E+02  0.51100000000E-03 0.  1.
    9900012    2    1    2    0    0  0.23813432165E+02 -0.32780189857E+02 -0.33979298953E+01  0.50528851877E+02  0.29999975765E+02 0.  0.
         12    1    1    2    0    0 -0.23813432165E+02  0.32780189857E+02  0.33979298953E+01  0.40659148123E+02  0.00000000000E+00 0. -1.
         11    1    3    3    0    0  0.13768974662E-01 -0.11572658519E+01  0.55249978999E+01  0.56449141616E+01  0.51100000000E-03 0. -1.
        -11    1    3    3    0    0  0.33927122115E+01 -0.19450260225E+02 -0.73592190158E+01  0.21070861960E+02  0.51100000000E-03 0.  1.
        -12    1    3    3    0    0  0.20406950979E+02 -0.12172663780E+02 -0.15637087794E+01  0.23813075755E+02  0.00000000000E+00 0.  1.
</event>
<event>
 7    1  0.3383281E-011  0.5052889E+02  0.7816164E-02  0.1300439E+00
        -11   -1    0    0    0    0  0.00000000000E+00  0.00000000000E+00  0.45593999997E+02  0.45594000000E+02  0.51100000000E-03 0.  1.
         11   -1    0    0    0    0 -0.00000000000E+00 -0.00000000000E+00 -0.45593999997E+02  0.45594000000E+02  0.51100000000E-03 0. -1.
    9900012    2    1    2    0    0  0.52709831457E+01 -0.24816524439E+02  0.31772947222E+02  0.50528888798E+02  0.30000087991E+02 0.  0.
         12    1    1    2    0    0 -0.52709831457E+01  0.24816524439E+02 -0.31772947222E+02  0.40659111202E+02  0.00000000000E+00 0. -1.
         11    1    3    3    0    0  0.62238632777E+01 -0.71434403467E+01  0.24834404362E+02  0.26580309523E+02  0.51100000000E-03 0. -1.
        -11    1    3    3    0    0  0.25773421717E+01 -0.66718536913E+01  0.97169225667E+01  0.12065442751E+02  0.51100000000E-03 0.  1.
        -12    1    3    3    0    0 -0.35302223038E+01 -0.11001230401E+02 -0.27783797069E+01  0.11883136524E+02  0.00000000000E+00 0.  1.
</event>
<event>
 7    1  0.3383281E-011  0.5052887E+02  0.7816164E-02  0.1300439E+00
        -11   -1    0    0    0    0  0.00000000000E+00  0.00000000000E+00  0.45593999997E+02  0.45594000000E+02  0.51100000000E-03 0. -1.
         11   -1    0    0    0    0 -0.00000000000E+00 -0.00000000000E+00 -0.45593999997E+02  0.45594000000E+02  0.51100000000E-03 0.  1.
    9900012    2    1    2    0    0 -0.37767386675E+02 -0.30096119733E+01  0.14755740750E+02  0.50528866394E+02  0.30000019892E+02 0.  0.
         12    1    1    2    0    0  0.37767386675E+02  0.30096119733E+01 -0.14755740750E+02  0.40659133606E+02  0.00000000000E+00 0. -1.
         11    1    3    3    0    0 -0.92557530233E+01  0.10397545085E+02  0.14276143828E+01  0.13993426704E+02  0.51100000000E-03 0. -1.
        -11    1    3    3    0    0 -0.96484134490E+01 -0.73823454215E+01 -0.85398902449E+00  0.12178678234E+02  0.51100000000E-03 0.  1.
        -12    1    3    3    0    0 -0.18863220202E+02 -0.60248116372E+01  0.14182115392E+02  0.24356761457E+02  0.00000000000E+00 0.  1.
</event>
<event>
 7    1  0.3694089E-011  0.5052886E+02  0.7816164E-02  0.1300439E+00
        -11   -1    0    0    0    0  0.00000000000E+00  0.00000000000E+00  0.45593999997E+02  0.45594000000E+02  0.51100000000E-03 0. -1.
         11   -1    0    0    0    0 -0.00000000000E+00 -0.00000000000E+00 -0.45593999997E+02  0.45594000000E+02  0.51100000000E-03 0.  1.
    9900012    2    1    2    0    0 -0.27538579514E+02 -0.25888627076E+02  0.14985703921E+02  0.50528859631E+02  0.29999999335E+02 0.  0.
         12    1    1    2    0    0  0.27538579514E+02  0.25888627076E+02 -0.14985703921E+02  0.40659140369E+02  0.00000000000E+00 0. -1.
         11    1    3    3    0    0 -0.12000113559E+02 -0.43924880618E+01  0.45064857040E+01  0.13550095589E+02  0.51100000000E-03 0. -1.
        -11    1    3    3    0    0 -0.19618868114E+02 -0.20411160017E+02  0.31042796971E+01  0.28480730188E+02  0.51100000000E-03 0.  1.
         12    1    3    3    0    0  0.40804021599E+01 -0.10849789969E+01  0.73749385203E+01  0.84980338542E+01  0.00000000000E+00 0. -1.
</event>
<event>
 7    1  0.3383281E-011  0.5052886E+02  0.7816164E-02  0.1300439E+00
        -11   -1    0    0    0    0  0.00000000000E+00  0.00000000000E+00  0.45593999997E+02  0.45594000000E+02  0.51100000000E-03 0.  1.
         11   -1    0    0    0    0 -0.00000000000E+00 -0.00000000000E+00 -0.45593999997E+02  0.45594000000E+02  0.51100000000E-03 0. -1.
    9900012    2    1    2    0    0 -0.37673402435E+02  0.64381817950E+01  0.13871935948E+02  0.50528855361E+02  0.29999986354E+02 0.  0.
         12    1    1    2    0    0  0.37673402435E+02 -0.64381817950E+01 -0.13871935948E+02  0.40659144639E+02  0.00000000000E+00 0. -1.
         11    1    3    3    0    0 -0.64893562300E+01 -0.38878528682E+01 -0.35800690303E+01  0.83692316689E+01  0.51100000000E-03 0. -1.
        -11    1    3    3    0    0 -0.25226203720E+02  0.43930453240E+01  0.34640549783E+01  0.25839115281E+02  0.51100000000E-03 0.  1.
         12    1    3    3    0    0 -0.59578424848E+01  0.59329893392E+01  0.13987950000E+02  0.16320508411E+02  0.00000000000E+00 0. -1.
</event>
<event>
 7    1  0.3383281E-011  0.5052881E+02  0.7816164E-02  0.1300439E+00
        -11   -1    0    0    0    0  0.00000000000E+00  0.00000000000E+00  0.45593999997E+02  0.45594000000E+02  0.51100000000E-03 0.  1.
         11   -1    0    0    0    0 -0.00000000000E+00 -0.00000000000E+00 -0.45593999997E+02  0.45594000000E+02  0.51100000000E-03 0. -1.
    9900012    2    1    2    0    0 -0.51250260573E+01 -0.94565585631E+01  0.39210683632E+02  0.50528805433E+02  0.29999834594E+02 0.  0.
         12    1    1    2    0    0  0.51250260573E+01  0.94565585631E+01 -0.39210683632E+02  0.40659194567E+02  0.00000000000E+00 0. -1.
         11    1    3    3    0    0 -0.34324012993E+01 -0.14382944994E+01  0.17806396379E+02  0.18191146803E+02  0.51100000000E-03 0. -1.
        -11    1    3    3    0    0  0.68281315325E+01 -0.13891105515E+01  0.20327144527E+02  0.21488271527E+02  0.51100000000E-03 0.  1.
         12    1    3    3    0    0 -0.85207562905E+01 -0.66291535122E+01  0.10771427260E+01  0.10849387103E+02  0.00000000000E+00 0. -1.
</event>
<event>
 7    1  0.3383281E-011  0.5052886E+02  0.7816164E-02  0.1300439E+00
        -11   -1    0    0    0    0  0.00000000000E+00  0.00000000000E+00  0.45593999997E+02  0.45594000000E+02  0.51100000000E-03 0. -1.
         11   -1    0    0    0    0 -0.00000000000E+00 -0.00000000000E+00 -0.45593999997E+02  0.45594000000E+02  0.51100000000E-03 0.  1.
    9900012    2    1    2    0    0 -0.33399775547E+02  0.19798581814E+02 -0.12068006631E+02  0.50528860406E+02  0.30000001690E+02 0.  0.
         12    1    1    2    0    0  0.33399775547E+02 -0.19798581814E+02  0.12068006631E+02  0.40659139594E+02  0.00000000000E+00 0. -1.
         11    1    3    3    0    0  0.33618741226E+01 -0.23853190946E+01 -0.47574470425E+01  0.62948588087E+01  0.51100000000E-03 0. -1.
        -11    1    3    3    0    0 -0.22832481943E+01  0.40992716495E+01 -0.78797762605E+00  0.47579574792E+01  0.51100000000E-03 0.  1.
        -12    1    3    3    0    0 -0.34478401476E+02  0.18084629259E+02 -0.65225819629E+01  0.39476044118E+02  0.00000000000E+00 0.  1.
</event>
<event>
 7    1  0.3383281E-011  0.5052887E+02  0.7816164E-02  0.1300439E+00
        -11   -1    0    0    0    0  0.00000000000E+00  0.00000000000E+00  0.45593999997E+02  0.45594000000E+02  0.51100000000E-03 0. -1.
         11   -1    0    0    0    0 -0.00000000000E+00 -0.00000000000E+00 -0.45593999997E+02  0.45594000000E+02  0.51100000000E-03 0.  1.
    9900012    2    1    2    0    0 -0.36308917870E+02  0.16775285200E+02 -0.73087176243E+01  0.50528867400E+02  0.30000022949E+02 0.  0.
         12    1    1    2    0    0  0.36308917870E+02 -0.16775285200E+02  0.73087176243E+01  0.40659132600E+02  0.00000000000E+00 0. -1.
         11    1    3    3    0    0  0.20406756052E+01  0.21668086493E+01 -0.47225379525E+01  0.55822738756E+01  0.51100000000E-03 0. -1.
        -11    1    3    3    0    0  0.36252071476E+00 -0.10013714555E+01  0.26715096415E+01  0.28759572470E+01  0.51100000000E-03 0.  1.
        -12    1    3    3    0    0 -0.38712114190E+02  0.15609848006E+02 -0.52576893133E+01  0.42070636277E+02  0.00000000000E+00 0.  1.
</event>
<event>
 7    1  0.3383281E-011  0.5052888E+02  0.7816164E-02  0.1300439E+00
        -11   -1    0    0    0    0  0.00000000000E+00  0.00000000000E+00  0.45593999997E+02  0.45594000000E+02  0.51100000000E-03 0.  1.
         11   -1    0    0    0    0 -0.00000000000E+00 -0.00000000000E+00 -0.45593999997E+02  0.45594000000E+02  0.51100000000E-03 0. -1.
    9900012    2    1    2    0    0  0.22783982967E+02 -0.12955935287E+02  0.31083717692E+02  0.50528884853E+02  0.30000075998E+02 0.  0.
         12    1    1    2    0    0 -0.22783982967E+02  0.12955935287E+02 -0.31083717692E+02  0.40659115147E+02  0.00000000000E+00 0. -1.
         11    1    3    3    0    0  0.10496910585E+02  0.27307272589E+01  0.71796418292E+01  0.13007277203E+02  0.51100000000E-03 0. -1.
        -11    1    3    3    0    0  0.23213390714E+01  0.30130471482E+01 -0.18012951227E+01  0.42085309291E+01  0.51100000000E-03 0.  1.
        -12    1    3    3    0    0  0.99657333114E+01 -0.18699709694E+02  0.25705370986E+02  0.33313076720E+02  0.00000000000E+00 0.  1.
</event>
<event>
 7    1  0.3383281E-011  0.5052886E+02  0.7816164E-02  0.1300439E+00
        -11   -1    0    0    0    0  0.00000000000E+00  0.00000000000E+00  0.45593999997E+02  0.45594000000E+02  0.51100000000E-03 0. -1.
         11   -1    0    0    0    0 -0.00000000000E+00 -0.00000000000E+00 -0.45593999997E+02  0.45594000000E+02  0.51100000000E-03 0.  1.
    9900012    2    1    2    0    0  0.31325664938E+02  0.25076308002E+02  0.65610360882E+01  0.50528859559E+02  0.29999999116E+02 0.  0.
         12    1    1    2    0    0 -0.31325664938E+02 -0.25076308002E+02 -0.65610360882E+01  0.40659140441E+02  0.00000000000E+00 0. -1.
         11    1    3    3    0    0  0.26220414786E+02  0.19668084508E+02  0.49586519364E+01  0.33150142218E+02  0.51100000000E-03 0. -1.
        -11    1    3    3    0    0  0.52463406543E+01  0.98930174893E+01  0.44660445909E+01  0.12055763761E+02  0.51100000000E-03 0.  1.
         12    1    3    3    0    0 -0.14109050188E+00 -0.44847939954E+01 -0.28636604391E+01  0.53229535806E+01  0.00000000000E+00 0. -1.
</event>
<event>
 7    1  0.3383281E-011  0.5052885E+02  0.7816164E-02  0.1300439E+00
        -11   -1    0    0    0    0  0.00000000000E+00  0.00000000000E+00  0.45593999997E+02  0.45594000000E+02  0.51100000000E-03 0.  1.
         11   -1    0    0    0    0 -0.00000000000E+00 -0.00000000000E+00 -0.45593999997E+02  0.45594000000E+02  0.51100000000E-03 0. -1.
    9900012    2    1    2    0    0 -0.49010088244E+01 -0.14305067179E+01  0.40337327697E+02  0.50528852902E+02  0.29999978882E+02 0.  0.
         12    1    1    2    0    0  0.49010088244E+01  0.14305067179E+01 -0.40337327697E+02  0.40659147098E+02  0.00000000000E+00 0. -1.
         11    1    3    3    0    0  0.81703645127E+01  0.12591589352E+01  0.12596091597E+02  0.15066580942E+02  0.51100000000E-03 0. -1.
        -11    1    3    3    0    0 -0.26206001541E+01 -0.68373980855E+01  0.21256850815E+02  0.22482688108E+02  0.51100000000E-03 0.  1.
         12    1    3    3    0    0 -0.10450773183E+02  0.41477324325E+01  0.64843852851E+01  0.12979583852E+02  0.00000000000E+00 0. -1.
</event>
<event>
 7    1  0.3383281E-011  0.5052886E+02  0.7816164E-02  0.1300439E+00
        -11   -1    0    0    0    0  0.00000000000E+00  0.00000000000E+00  0.45593999997E+02  0.45594000000E+02  0.51100000000E-03 0. -1.
         11   -1    0    0    0    0 -0.00000000000E+00 -0.00000000000E+00 -0.45593999997E+02  0.45594000000E+02  0.51100000000E-03 0.  1.
    9900012    2    1    2    0    0 -0.37023341705E+02  0.11988972866E+02 -0.11777194027E+02  0.50528860799E+02  0.30000002886E+02 0.  0.
         12    1    1    2    0    0  0.37023341705E+02 -0.11988972866E+02  0.11777194027E+02  0.40659139201E+02  0.00000000000E+00 0. -1.
         11    1    3    3    0    0  0.18175278209E+01 -0.57683325493E+01 -0.18992686100E+01  0.63391079257E+01  0.51100000000E-03 0. -1.
        -11    1    3    3    0    0 -0.20793972096E+01  0.14028287219E+01  0.66724063020E+00  0.25955792220E+01  0.51100000000E-03 0.  1.
        -12    1    3    3    0    0 -0.36761472316E+02  0.16354476694E+02 -0.10545166047E+02  0.41594173652E+02  0.00000000000E+00 0.  1.
</event>
<event>
 7    1  0.3383281E-011  0.5052886E+02  0.7816164E-02  0.1300439E+00
        -11   -1    0    0    0    0  0.00000000000E+00  0.00000000000E+00  0.45593999997E+02  0.45594000000E+02  0.51100000000E-03 0. -1.
         11   -1    0    0    0    0 -0.00000000000E+00 -0.00000000000E+00 -0.45593999997E+02  0.45594000000E+02  0.51100000000E-03 0.  1.
    9900012    2    1    2    0    0 -0.15191008842E+02  0.31641609004E+02  0.20523343889E+02  0.50528858170E+02  0.29999994892E+02 0.  0.
         12    1    1    2    0    0  0.15191008842E+02 -0.31641609004E+02 -0.20523343889E+02  0.40659141830E+02  0.00000000000E+00 0. -1.
         11    1    3    3    0    0 -0.66727870722E+01  0.13956791112E+02  0.11357027446E+02  0.19191148432E+02  0.51100000000E-03 0. -1.
        -11    1    3    3    0    0 -0.11338622051E+02  0.18282605155E+02  0.14029935856E+02  0.25683790640E+02  0.51100000000E-03 0.  1.
        -12    1    3    3    0    0  0.28204002808E+01 -0.59778726390E+00 -0.48636194133E+01  0.56539190969E+01  0.00000000000E+00 0.  1.
</event>
<event>
 7    1  0.3383281E-011  0.5052886E+02  0.7816164E-02  0.1300439E+00
        -11   -1    0    0    0    0  0.00000000000E+00  0.00000000000E+00  0.45593999997E+02  0.45594000000E+02  0.51100000000E-03 0.  1.
         11   -1    0    0    0    0 -0.00000000000E+00 -0.00000000000E+00 -0.45593999997E+02  0.45594000000E+02  0.51100000000E-03 0. -1.
    9900012    2    1    2    0    0  0.25660549854E+02  0.27931654159E+02  0.14646666974E+02  0.50528856179E+02  0.29999988840E+02 0.  0.
         12    1    1    2    0    0 -0.25660549854E+02 -0.27931654159E+02 -0.14646666974E+02  0.40659143821E+02  0.00000000000E+00 0. -1.
         11    1    3    3    0    0  0.97004641266E+01  0.27784036499E+02  0.62421711227E+01  0.30083490307E+02  0.51100000000E-03 0. -1.
        -11    1    3    3    0    0  0.13047358849E+02  0.36134861102E+01  0.39711312285E+01  0.14108888628E+02  0.51100000000E-03 0.  1.
        -12    1    3    3    0    0  0.29127268778E+01 -0.34658684508E+01  0.44333646228E+01  0.63364772438E+01  0.00000000000E+00 0.  1.
</event>
<event>
 7    1  0.3383281E-011  0.5052886E+02  0.7816164E-02  0.1300439E+00
        -11   -1    0    0    0    0  0.00000000000E+00  0.00000000000E+00  0.45593999997E+02  0.45594000000E+02  0.51100000000E-03 0.  1.
         11   -1    0    0    0    0 -0.00000000000E+00 -0.00000000000E+00 -0.45593999997E+02  0.45594000000E+02  0.51100000000E-03 0. -1.
    9900012    2    1    2    0    0  0.65539262677E+01  0.40088250347E+02  0.17730768360E+01  0.50528861213E+02  0.30000004144E+02 0.  0.
         12    1    1    2    0    0 -0.65539262677E+01 -0.40088250347E+02 -0.17730768360E+01  0.40659138787E+02  0.00000000000E+00 0. -1.
         11    1    3    3    0    0  0.51462163742E+01  0.26426736071E+02  0.10021469994E+00  0.26923334964E+02  0.51100000000E-03 0. -1.
        -11    1    3    3    0    0  0.74819799875E+01  0.15047698734E+02 -0.98026346854E+00  0.16833721468E+02  0.51100000000E-03 0.  1.
         12    1    3    3    0    0 -0.60742700941E+01 -0.13861844581E+01  0.26531256046E+01  0.67718047817E+01  0.00000000000E+00 0. -1.
</event>
<event>
 7    1  0.3383281E-011  0.5052886E+02  0.7816164E-02  0.1300439E+00
        -11   -1    0    0    0    0  0.00000000000E+00  0.00000000000E+00  0.45593999997E+02  0.45594000000E+02  0.51100000000E-03 0.  1.
         11   -1    0    0    0    0 -0.00000000000E+00 -0.00000000000E+00 -0.45593999997E+02  0.45594000000E+02  0.51100000000E-03 0. -1.
    9900012    2    1    2    0    0  0.30168332960E+01 -0.29490393351E+02  0.27827702518E+02  0.50528860676E+02  0.30000002511E+02 0.  0.
         12    1    1    2    0    0 -0.30168332960E+01  0.29490393351E+02 -0.27827702518E+02  0.40659139324E+02  0.00000000000E+00 0. -1.
         11    1    3    3    0    0 -0.52567888805E+01 -0.11696255106E+02  0.42291918500E+01  0.13502676653E+02  0.51100000000E-03 0. -1.
        -11    1    3    3    0    0 -0.21096362087E+01 -0.94294399207E+00 -0.30528256434E+01  0.38287665083E+01  0.51100000000E-03 0.  1.
        -12    1    3    3    0    0  0.10383258385E+02 -0.16851194254E+02  0.26651336311E+02  0.33197417515E+02  0.00000000000E+00 0.  1.
</event>
<event>
 7    1  0.3383281E-011  0.5052886E+02  0.7816164E-02  0.1300439E+00
        -11   -1    0    0    0    0  0.00000000000E+00  0.00000000000E+00  0.45593999997E+02  0.45594000000E+02  0.51100000000E-03 0. -1.
         11   -1    0    0    0    0 -0.00000000000E+00 -0.00000000000E+00 -0.45593999997E+02  0.45594000000E+02  0.51100000000E-03 0.  1.
    9900012    2    1    2    0    0 -0.19314443633E+02  0.21372176032E+02 -0.28694036150E+02  0.50528863859E+02  0.30000012185E+02 0.  0.
         12    1    1    2    0    0  0.19314443633E+02 -0.21372176032E+02  0.28694036150E+02  0.40659136141E+02  0.00000000000E+00 0. -1.
         11    1    3    3    0    0 -0.42353507822E+01 -0.17216694720E+01  0.13135077937E+00  0.45737944103E+01  0.51100000000E-03 0.  1.
        -11    1    3    3    0    0 -0.44691844141E+01 -0.13440275354E+01  0.21161075356E+01  0.51242492823E+01  0.51100000000E-03 0. -1.
        -12    1    3    3    0    0 -0.10609908436E+02  0.24437873039E+02 -0.30941494465E+02  0.40830820166E+02  0.00000000000E+00 0.  1.
</event>
<event>
 7    1  0.3383281E-011  0.5052885E+02  0.7816164E-02  0.1300439E+00
        -11   -1    0    0    0    0  0.00000000000E+00  0.00000000000E+00  0.45593999997E+02  0.45594000000E+02  0.51100000000E-03 0.  1.
         11   -1    0    0    0    0 -0.00000000000E+00 -0.00000000000E+00 -0.45593999997E+02  0.45594000000E+02  0.51100000000E-03 0. -1.
    9900012    2    1    2    0    0 -0.21331140568E+02  0.23943005127E+02  0.24997623237E+02  0.50528853182E+02  0.29999979732E+02 0.  0.
         12    1    1    2    0    0  0.21331140568E+02 -0.23943005127E+02 -0.24997623237E+02  0.40659146818E+02  0.00000000000E+00 0. -1.
         11    1    3    3    0    0  0.48920910882E+01 -0.60867183045E+00  0.51295561940E+01  0.71144489331E+01  0.51100000000E-03 0. -1.
        -11    1    3    3    0    0 -0.11365530780E+02  0.85985930638E+01  0.15727909843E+02  0.21224472688E+02  0.51100000000E-03 0.  1.
        -12    1    3    3    0    0 -0.14857700876E+02  0.15953083894E+02  0.41401572002E+01  0.22189931561E+02  0.00000000000E+00 0.  1.
</event>
<event>
 7    1  0.3383281E-011  0.5052886E+02  0.7816164E-02  0.1300439E+00
        -11   -1    0    0    0    0  0.00000000000E+00  0.00000000000E+00  0.45593999997E+02  0.45594000000E+02  0.51100000000E-03 0. -1.
         11   -1    0    0    0    0 -0.00000000000E+00 -0.00000000000E+00 -0.45593999997E+02  0.45594000000E+02  0.51100000000E-03 0.  1.
    9900012    2    1    2    0    0  0.99748497750E+01  0.97813471614E+01 -0.38183676235E+02  0.50528861899E+02  0.30000006228E+02 0.  0.
         12    1    1    2    0    0 -0.99748497750E+01 -0.97813471614E+01  0.38183676235E+02  0.40659138101E+02  0.00000000000E+00 0. -1.
         11    1    3    3    0    0  0.13090508343E+02  0.27293757213E+01 -0.84611151754E+01  0.15824075669E+02  0.51100000000E-03 0. -1.
        -11    1    3    3    0    0  0.52180665685E+01 -0.12298116632E+01 -0.49924862732E+01  0.73256791418E+01  0.51100000000E-03 0.  1.
         12    1    3    3    0    0 -0.83337251363E+01  0.82817831033E+01 -0.24730074786E+02  0.27379107088E+02  0.00000000000E+00 0. -1.
</event>
<event>
 7    1  0.3383281E-011  0.5052886E+02  0.7816164E-02  0.1300439E+00
        -11   -1    0    0    0    0  0.00000000000E+00  0.00000000000E+00  0.45593999997E+02  0.45594000000E+02  0.51100000000E-03 0.  1.
         11   -1    0    0    0    0 -0.00000000000E+00 -0.00000000000E+00 -0.45593999997E+02  0.45594000000E+02  0.51100000000E-03 0. -1.
    9900012    2    1    2    0    0  0.10861796839E+00  0.39728634415E+02 -0.86481138930E+01  0.50528855097E+02  0.29999985553E+02 0.  0.
         12    1    1    2    0    0 -0.10861796839E+00 -0.39728634415E+02  0.86481138930E+01  0.40659144903E+02  0.00000000000E+00 0. -1.
         11    1    3    3    0    0  0.19539357615E+01  0.29608470431E+01 -0.32780380837E+01  0.48301153311E+01  0.51100000000E-03 0. -1.
        -11    1    3    3    0    0  0.63294809349E+01  0.21219785526E+02 -0.13927146524E+02  0.26159262934E+02  0.51100000000E-03 0.  1.
         12    1    3    3    0    0 -0.81747987280E+01  0.15548001846E+02  0.85570707152E+01  0.19539476832E+02  0.00000000000E+00 0. -1.
</event>
<event>
 7    1  0.3383281E-011  0.5052883E+02  0.7816164E-02  0.1300439E+00
        -11   -1    0    0    0    0  0.00000000000E+00  0.00000000000E+00  0.45593999997E+02  0.45594000000E+02  0.51100000000E-03 0.  1.
         11   -1    0    0    0    0 -0.00000000000E+00 -0.00000000000E+00 -0.45593999997E+02  0.45594000000E+02  0.51100000000E-03 0. -1.
    9900012    2    1    2    0    0  0.41612296027E+00  0.40619240083E+02  0.17528845769E+01  0.50528826034E+02  0.29999897213E+02 0.  0.
         12    1    1    2    0    0 -0.41612296027E+00 -0.40619240083E+02 -0.17528845769E+01  0.40659173966E+02  0.00000000000E+00 0. -1.
         11    1    3    3    0    0  0.85128014647E+01  0.10311372598E+02  0.68736587008E+01  0.15034606009E+02  0.51100000000E-03 0. -1.
        -11    1    3    3    0    0 -0.60145449042E+01  0.29390718140E+02 -0.11983587626E+00  0.30000057068E+02  0.51100000000E-03 0.  1.
         12    1    3    3    0    0 -0.20821336003E+01  0.91714934524E+00 -0.50009382476E+01  0.54941629579E+01  0.00000000000E+00 0. -1.
</event>
<event>
 7    1  0.3383281E-011  0.5052885E+02  0.7816164E-02  0.1300439E+00
        -11   -1    0    0    0    0  0.00000000000E+00  0.00000000000E+00  0.45593999997E+02  0.45594000000E+02  0.51100000000E-03 0.  1.
         11   -1    0    0    0    0 -0.00000000000E+00 -0.00000000000E+00 -0.45593999997E+02  0.45594000000E+02  0.51100000000E-03 0. -1.
    9900012    2    1    2    0    0  0.89274600595E+01  0.25965990160E+02  0.29987230032E+02  0.50528854004E+02  0.29999982232E+02 0.  0.
         12    1    1    2    0    0 -0.89274600595E+01 -0.25965990160E+02 -0.29987230032E+02  0.40659145996E+02  0.00000000000E+00 0. -1.
         11    1    3    3    0    0 -0.18896826490E+01  0.58641046747E+01 -0.31262893726E+01  0.69088573334E+01  0.51100000000E-03 0.  1.
        -11    1    3    3    0    0 -0.33950608594E+00 -0.18005468864E+01 -0.57233835689E+00  0.19195845718E+01  0.51100000000E-03 0. -1.
        -12    1    3    3    0    0  0.11156648794E+02  0.21902432372E+02  0.33685857762E+02  0.41700412099E+02  0.00000000000E+00 0.  1.
</event>
<event>
 7    1  0.3383281E-011  0.5052886E+02  0.7816164E-02  0.1300439E+00
        -11   -1    0    0    0    0  0.00000000000E+00  0.00000000000E+00  0.45593999997E+02  0.45594000000E+02  0.51100000000E-03 0.  1.
         11   -1    0    0    0    0 -0.00000000000E+00 -0.00000000000E+00 -0.45593999997E+02  0.45594000000E+02  0.51100000000E-03 0. -1.
    9900012    2    1    2    0    0 -0.32657224715E+02 -0.20223945373E+02  0.13329044195E+02  0.50528859433E+02  0.29999998732E+02 0.  0.
         12    1    1    2    0    0  0.32657224715E+02  0.20223945373E+02 -0.13329044195E+02  0.40659140567E+02  0.00000000000E+00 0. -1.
         11    1    3    3    0    0 -0.85603836952E+01 -0.11292708659E+02  0.22012160394E+01  0.14340529634E+02  0.51100000000E-03 0. -1.
        -11    1    3    3    0    0 -0.14944693113E+02 -0.12690218464E+02 -0.20466951574E+01  0.19712292059E+02  0.51100000000E-03 0.  1.
         12    1    3    3    0    0 -0.91521479063E+01  0.37589817494E+01  0.13174523313E+02  0.16476037740E+02  0.00000000000E+00 0. -1.
</event>
<event>
 7    1  0.3383281E-011  0.5052885E+02  0.7816164E-02  0.1300439E+00
        -11   -1    0    0    0    0  0.00000000000E+00  0.00000000000E+00  0.45593999997E+02  0.45594000000E+02  0.51100000000E-03 0.  1.
         11   -1    0    0    0    0 -0.00000000000E+00 -0.00000000000E+00 -0.45593999997E+02  0.45594000000E+02  0.51100000000E-03 0. -1.
    9900012    2    1    2    0    0 -0.29655744991E+02 -0.27809358366E+02 -0.58565670188E+00  0.50528848293E+02  0.29999964872E+02 0.  0.
         12    1    1    2    0    0  0.29655744991E+02  0.27809358366E+02  0.58565670188E+00  0.40659151707E+02  0.00000000000E+00 0. -1.
         11    1    3    3    0    0 -0.16557221658E+02 -0.28347260096E+02 -0.35545122158E+01  0.33020346778E+02  0.51100000000E-03 0. -1.
        -11    1    3    3    0    0 -0.50810257237E+01 -0.48574822418E+01  0.34546939286E+01  0.78324240523E+01  0.51100000000E-03 0.  1.
        -12    1    3    3    0    0 -0.80174976095E+01  0.53953839709E+01 -0.48583841469E+00  0.96760774634E+01  0.00000000000E+00 0.  1.
</event>
<event>
 7    1  0.3383281E-011  0.5052886E+02  0.7816164E-02  0.1300439E+00
        -11   -1    0    0    0    0  0.00000000000E+00  0.00000000000E+00  0.45593999997E+02  0.45594000000E+02  0.51100000000E-03 0.  1.
         11   -1    0    0    0    0 -0.00000000000E+00 -0.00000000000E+00 -0.45593999997E+02  0.45594000000E+02  0.51100000000E-03 0. -1.
    9900012    2    1    2    0    0 -0.12760306848E+02 -0.27754464707E+02  0.26833371094E+02  0.50528861467E+02  0.30000004915E+02 0.  0.
         12    1    1    2    0    0  0.12760306848E+02  0.27754464707E+02 -0.26833371094E+02  0.40659138533E+02  0.00000000000E+00 0. -1.
         11    1    3    3    0    0 -0.13207392741E+02 -0.25075780393E+01  0.53395716099E+01  0.14464929861E+02  0.51100000000E-03 0. -1.
        -11    1    3    3    0    0 -0.29489323513E+01 -0.52365008439E+00  0.59562346077E+01  0.66668690093E+01  0.51100000000E-03 0.  1.
         12    1    3    3    0    0  0.33960182441E+01 -0.24723236583E+02  0.15537564876E+02  0.29397062597E+02  0.00000000000E+00 0. -1.
</event>
<event>
 7    1  0.3383281E-011  0.5052886E+02  0.7816164E-02  0.1300439E+00
        -11   -1    0    0    0    0  0.00000000000E+00  0.00000000000E+00  0.45593999997E+02  0.45594000000E+02  0.51100000000E-03 0.  1.
         11   -1    0    0    0    0 -0.00000000000E+00 -0.00000000000E+00 -0.45593999997E+02  0.45594000000E+02  0.51100000000E-03 0. -1.
    9900012    2    1    2    0    0  0.23632379969E+02 -0.10584831120E+02  0.31347053079E+02  0.50528858721E+02  0.29999996567E+02 0.  0.
         12    1    1    2    0    0 -0.23632379969E+02  0.10584831120E+02 -0.31347053079E+02  0.40659141279E+02  0.00000000000E+00 0. -1.
         11    1    3    3    0    0  0.13534515708E+02 -0.71254238927E+01  0.31903894807E+01  0.15624767723E+02  0.51100000000E-03 0. -1.
        -11    1    3    3    0    0  0.14179519602E+02 -0.27620972059E+00  0.14424281613E+02  0.20228568122E+02  0.51100000000E-03 0.  1.
         12    1    3    3    0    0 -0.40816553408E+01 -0.31831975063E+01  0.13732381986E+02  0.14675522876E+02  0.00000000000E+00 0. -1.
</event>
<event>
 7    1  0.3383281E-011  0.5052885E+02  0.7816164E-02  0.1300439E+00
        -11   -1    0    0    0    0  0.00000000000E+00  0.00000000000E+00  0.45593999997E+02  0.45594000000E+02  0.51100000000E-03 0. -1.
         11   -1    0    0    0    0 -0.00000000000E+00 -0.00000000000E+00 -0.45593999997E+02  0.45594000000E+02  0.51100000000E-03 0.  1.
    9900012    2    1    2    0    0  0.27914084698E+02 -0.28848694582E+02  0.64593182442E+01  0.50528854709E+02  0.29999984374E+02 0.  0.
         12    1    1    2    0    0 -0.27914084698E+02  0.28848694582E+02 -0.64593182442E+01  0.40659145291E+02  0.00000000000E+00 0. -1.
         11    1    3    3    0    0  0.15314727940E+02 -0.11060282843E+02  0.79170698142E+01  0.20482937854E+02  0.51100000000E-03 0. -1.
        -11    1    3    3    0    0  0.73976649724E+01 -0.57328820344E+01  0.92084462651E+01  0.13129617905E+02  0.51100000000E-03 0.  1.
         12    1    3    3    0    0  0.52016917855E+01 -0.12055529704E+02 -0.10666197835E+02  0.16916298949E+02  0.00000000000E+00 0. -1.
</event>
<event>
 7    1  0.3383281E-011  0.5052886E+02  0.7816164E-02  0.1300439E+00
        -11   -1    0    0    0    0  0.00000000000E+00  0.00000000000E+00  0.45593999997E+02  0.45594000000E+02  0.51100000000E-03 0.  1.
         11   -1    0    0    0    0 -0.00000000000E+00 -0.00000000000E+00 -0.45593999997E+02  0.45594000000E+02  0.51100000000E-03 0. -1.
    9900012    2    1    2    0    0 -0.48827579867E+00  0.22804877491E+02  0.33658057826E+02  0.50528859487E+02  0.29999998897E+02 0.  0.
         12    1    1    2    0    0  0.48827579867E+00 -0.22804877491E+02 -0.33658057826E+02  0.40659140513E+02  0.00000000000E+00 0. -1.
         11    1    3    3    0    0  0.35144196856E+01 -0.19913526158E+01  0.23712693302E+01  0.46839672783E+01  0.51100000000E-03 0. -1.
        -11    1    3    3    0    0  0.91346970194E+01  0.81700979400E+01  0.12846773912E+02  0.17754796259E+02  0.51100000000E-03 0.  1.
        -12    1    3    3    0    0 -0.13137392504E+02  0.16626132167E+02  0.18440014583E+02  0.28090095950E+02  0.00000000000E+00 0.  1.
</event>
<event>
 7    1  0.3383281E-011  0.5052887E+02  0.7816164E-02  0.1300439E+00
        -11   -1    0    0    0    0  0.00000000000E+00  0.00000000000E+00  0.45593999997E+02  0.45594000000E+02  0.51100000000E-03 0.  1.
         11   -1    0    0    0    0 -0.00000000000E+00 -0.00000000000E+00 -0.45593999997E+02  0.45594000000E+02  0.51100000000E-03 0. -1.
    9900012    2    1    2    0    0  0.25125798528E+02 -0.12791494143E+02  0.29295680388E+02  0.50528868634E+02  0.30000026698E+02 0.  0.
         12    1    1    2    0    0 -0.25125798528E+02  0.12791494143E+02 -0.29295680388E+02  0.40659131366E+02  0.00000000000E+00 0. -1.
         11    1    3    3    0    0  0.44381371691E+01 -0.11970356588E+02  0.42462531544E+01  0.13454261945E+02  0.51100000000E-03 0. -1.
        -11    1    3    3    0    0  0.38904143479E+01 -0.79541239174E+01  0.10502882398E+02  0.13737319608E+02  0.51100000000E-03 0.  1.
        -12    1    3    3    0    0  0.16797247011E+02  0.71329863628E+01  0.14546544835E+02  0.23337287080E+02  0.00000000000E+00 0.  1.
</event>
<event>
 7    1  0.3383281E-011  0.5052884E+02  0.7816164E-02  0.1300439E+00
        -11   -1    0    0    0    0  0.00000000000E+00  0.00000000000E+00  0.45593999997E+02  0.45594000000E+02  0.51100000000E-03 0.  1.
         11   -1    0    0    0    0 -0.00000000000E+00 -0.00000000000E+00 -0.45593999997E+02  0.45594000000E+02  0.51100000000E-03 0. -1.
    9900012    2    1    2    0    0 -0.24031292678E+02  0.22928822361E+02  0.23450657029E+02  0.50528840667E+02  0.29999941690E+02 0.  0.
         12    1    1    2    0    0  0.24031292678E+02 -0.22928822361E+02 -0.23450657029E+02  0.40659159333E+02  0.00000000000E+00 0. -1.
         11    1    3    3    0    0 -0.72616172654E+01 -0.44083790429E+01  0.30835774387E+01  0.90373304231E+01  0.51100000000E-03 0. -1.
        -11    1    3    3    0    0 -0.13223541704E+02  0.12597678557E+02  0.18864621401E+02  0.26257141906E+02  0.51100000000E-03 0.  1.
        -12    1    3    3    0    0 -0.35461337081E+01  0.14739522847E+02  0.15024581894E+01  0.15234368337E+02  0.00000000000E+00 0.  1.
</event>
<event>
 7    1  0.3383281E-011  0.5052885E+02  0.7816164E-02  0.1300439E+00
        -11   -1    0    0    0    0  0.00000000000E+00  0.00000000000E+00  0.45593999997E+02  0.45594000000E+02  0.51100000000E-03 0. -1.
         11   -1    0    0    0    0 -0.00000000000E+00 -0.00000000000E+00 -0.45593999997E+02  0.45594000000E+02  0.51100000000E-03 0.  1.
    9900012    2    1    2    0    0  0.13945283304E+02 -0.37752909709E+02 -0.57803986783E+01  0.50528854328E+02  0.29999983215E+02 0.  0.
         12    1    1    2    0    0 -0.13945283304E+02  0.37752909709E+02  0.57803986783E+01  0.40659145672E+02  0.00000000000E+00 0. -1.
         11    1    3    3    0    0 -0.29711508300E+00 -0.67208849620E+00  0.34883493918E+01  0.35649070198E+01  0.51100000000E-03 0. -1.
        -11    1    3    3    0    0 -0.62415340358E+01 -0.74777822913E+01 -0.42099015868E+01  0.10611184983E+02  0.51100000000E-03 0.  1.
        -12    1    3    3    0    0  0.20483932423E+02 -0.29603038921E+02 -0.50588464834E+01  0.36352762325E+02  0.00000000000E+00 0.  1.
</event>
<event>
 7    1  0.3383281E-011  0.5052880E+02  0.7816164E-02  0.1300439E+00
        -11   -1    0    0    0    0  0.00000000000E+00  0.00000000000E+00  0.45593999997E+02  0.45594000000E+02  0.51100000000E-03 0.  1.
         11   -1    0    0    0    0 -0.00000000000E+00 -0.00000000000E+00 -0.45593999997E+02  0.45594000000E+02  0.51100000000E-03 0. -1.
    9900012    2    1    2    0    0  0.35705908502E+02 -0.16824063021E+02 -0.97575321939E+01  0.50528801372E+02  0.29999822250E+02 0.  0.
         12    1    1    2    0    0 -0.35705908502E+02  0.16824063021E+02  0.97575321939E+01  0.40659198628E+02  0.00000000000E+00 0. -1.
         11    1    3    3    0    0  0.17724595161E+01  0.49832570673E+01 -0.32164590805E+01  0.61903209135E+01  0.51100000000E-03 0. -1.
        -11    1    3    3    0    0  0.16532085340E+02 -0.15079330443E+02 -0.11323955299E+02  0.25078437275E+02  0.51100000000E-03 0.  1.
        -12    1    3    3    0    0  0.17401363646E+02 -0.67279896460E+01  0.47828821856E+01  0.19260043183E+02  0.00000000000E+00 0.  1.
</event>
<event>
 7    1  0.3383281E-011  0.5052886E+02  0.7816164E-02  0.1300439E+00
        -11   -1    0    0    0    0  0.00000000000E+00  0.00000000000E+00  0.45593999997E+02  0.45594000000E+02  0.51100000000E-03 0.  1.
         11   -1    0    0    0    0 -0.00000000000E+00 -0.00000000000E+00 -0.45593999997E+02  0.45594000000E+02  0.51100000000E-03 0. -1.
    9900012    2    1    2    0    0 -0.35041233719E+02  0.17311192196E+02  0.11207147619E+02  0.50528860885E+02  0.30000003146E+02 0.  0.
         12    1    1    2    0    0  0.35041233719E+02 -0.17311192196E+02 -0.11207147619E+02  0.40659139115E+02  0.00000000000E+00 0. -1.
         11    1    3    3    0    0 -0.23064528479E+02  0.20660098989E+02 -0.24823781299E+01  0.31064036532E+02  0.51100000000E-03 0. -1.
        -11    1    3    3    0    0 -0.39330921635E+01 -0.25916243108E+01  0.17006804647E+01  0.50077984024E+01  0.51100000000E-03 0.  1.
        -12    1    3    3    0    0 -0.80436130767E+01 -0.75728248243E+00  0.11988845285E+02  0.14457025951E+02  0.00000000000E+00 0.  1.
</event>
<event>
 7    1  0.3383281E-011  0.5052886E+02  0.7816164E-02  0.1300439E+00
        -11   -1    0    0    0    0  0.00000000000E+00  0.00000000000E+00  0.45593999997E+02  0.45594000000E+02  0.51100000000E-03 0.  1.
         11   -1    0    0    0    0 -0.00000000000E+00 -0.00000000000E+00 -0.45593999997E+02  0.45594000000E+02  0.51100000000E-03 0. -1.
    9900012    2    1    2    0    0 -0.18312244872E+02  0.34775303801E+02  0.10416606573E+02  0.50528858849E+02  0.29999996956E+02 0.  0.
         12    1    1    2    0    0  0.18312244872E+02 -0.34775303801E+02 -0.10416606573E+02  0.40659141151E+02  0.00000000000E+00 0. -1.
         11    1    3    3    0    0 -0.72172350081E+01  0.16019644248E+00  0.82588615732E+01  0.10969181319E+02  0.51100000000E-03 0. -1.
        -11    1    3    3    0    0 -0.14696416944E+02  0.26342359854E+02  0.37525821068E+01  0.30397145695E+02  0.51100000000E-03 0.  1.
        -12    1    3    3    0    0  0.36014070800E+01  0.82727475042E+01 -0.15948371070E+01  0.91625318347E+01  0.00000000000E+00 0.  1.
</event>
<event>
 7    1  0.3383281E-011  0.5052886E+02  0.7816164E-02  0.1300439E+00
        -11   -1    0    0    0    0  0.00000000000E+00  0.00000000000E+00  0.45593999997E+02  0.45594000000E+02  0.51100000000E-03 0. -1.
         11   -1    0    0    0    0 -0.00000000000E+00 -0.00000000000E+00 -0.45593999997E+02  0.45594000000E+02  0.51100000000E-03 0.  1.
    9900012    2    1    2    0    0  0.44334709829E+01  0.37069990469E+02  0.16103596014E+02  0.50528860032E+02  0.30000000555E+02 0.  0.
         12    1    1    2    0    0 -0.44334709829E+01 -0.37069990469E+02 -0.16103596014E+02  0.40659139968E+02  0.00000000000E+00 0. -1.
         11    1    3    3    0    0  0.73297365712E+00  0.12929970620E+02  0.18397935018E+02  0.22499008951E+02  0.51100000000E-03 0. -1.
        -11    1    3    3    0    0 -0.15619578558E+01  0.72020935784E+01  0.49427502382E+01  0.88735925325E+01  0.51100000000E-03 0.  1.
        -12    1    3    3    0    0  0.52624551815E+01  0.16937926270E+02 -0.72370892423E+01  0.19156258549E+02  0.00000000000E+00 0.  1.
</event>
<event>
 7    1  0.3383281E-011  0.5052888E+02  0.7816164E-02  0.1300439E+00
        -11   -1    0    0    0    0  0.00000000000E+00  0.00000000000E+00  0.45593999997E+02  0.45594000000E+02  0.51100000000E-03 0.  1.
         11   -1    0    0    0    0 -0.00000000000E+00 -0.00000000000E+00 -0.45593999997E+02  0.45594000000E+02  0.51100000000E-03 0. -1.
    9900012    2    1    2    0    0  0.18236930393E+02 -0.76232874012E+01  0.35531164176E+02  0.50528883327E+02  0.30000071360E+02 0.  0.
         12    1    1    2    0    0 -0.18236930393E+02  0.76232874012E+01 -0.35531164176E+02  0.40659116673E+02  0.00000000000E+00 0. -1.
         11    1    3    3    0    0  0.43546815064E+01 -0.56812980313E+00  0.19365328789E+01  0.47996023114E+01  0.51100000000E-03 0.  1.
        -11    1    3    3    0    0  0.53548687769E+01  0.42980662211E+01 -0.22088987090E+01  0.72129901308E+01  0.51100000000E-03 0. -1.
        -12    1    3    3    0    0  0.85273801094E+01 -0.11353223819E+02  0.35803530006E+02  0.38516290885E+02  0.00000000000E+00 0.  1.
</event>
<event>
 7    1  0.3383281E-011  0.5052888E+02  0.7816164E-02  0.1300439E+00
        -11   -1    0    0    0    0  0.00000000000E+00  0.00000000000E+00  0.45593999997E+02  0.45594000000E+02  0.51100000000E-03 0.  1.
         11   -1    0    0    0    0 -0.00000000000E+00 -0.00000000000E+00 -0.45593999997E+02  0.45594000000E+02  0.51100000000E-03 0. -1.
    9900012    2    1    2    0    0  0.39335987142E+02 -0.90622527654E+01  0.48703055418E+01  0.50528878198E+02  0.30000055771E+02 0.  0.
         12    1    1    2    0    0 -0.39335987142E+02  0.90622527654E+01 -0.48703055418E+01  0.40659121802E+02  0.00000000000E+00 0. -1.
         11    1    3    3    0    0 -0.18887697152E+01 -0.25279018664E+01 -0.51090083273E+01  0.60049733748E+01  0.51100000000E-03 0. -1.
        -11    1    3    3    0    0 -0.22717139198E+00  0.37999190123E+00 -0.99579661444E+00  0.10897760526E+01  0.51100000000E-03 0.  1.
        -12    1    3    3    0    0  0.41451928249E+02 -0.69143428003E+01  0.10975110484E+02  0.43434128771E+02  0.00000000000E+00 0.  1.
</event>
<event>
 7    1  0.3383281E-011  0.5052887E+02  0.7816164E-02  0.1300439E+00
        -11   -1    0    0    0    0  0.00000000000E+00  0.00000000000E+00  0.45593999997E+02  0.45594000000E+02  0.51100000000E-03 0.  1.
         11   -1    0    0    0    0 -0.00000000000E+00 -0.00000000000E+00 -0.45593999997E+02  0.45594000000E+02  0.51100000000E-03 0. -1.
    9900012    2    1    2    0    0 -0.37717267800E+02  0.14624684687E+02 -0.40854984588E+01  0.50528868305E+02  0.30000025701E+02 0.  0.
         12    1    1    2    0    0  0.37717267800E+02 -0.14624684687E+02  0.40854984588E+01  0.40659131695E+02  0.00000000000E+00 0. -1.
         11    1    3    3    0    0 -0.11684699744E+02 -0.56549762468E+01 -0.97468935599E+01  0.16233080385E+02  0.51100000000E-03 0. -1.
        -11    1    3    3    0    0 -0.40729955170E+00  0.49266009910E+00  0.15293513991E+01  0.16575653415E+01  0.51100000000E-03 0.  1.
        -12    1    3    3    0    0 -0.25625268504E+02  0.19787000835E+02  0.41320437019E+01  0.32638222579E+02  0.00000000000E+00 0.  1.
</event>
<event>
 7    1  0.3383281E-011  0.5052886E+02  0.7816164E-02  0.1300439E+00
        -11   -1    0    0    0    0  0.00000000000E+00  0.00000000000E+00  0.45593999997E+02  0.45594000000E+02  0.51100000000E-03 0. -1.
         11   -1    0    0    0    0 -0.00000000000E+00 -0.00000000000E+00 -0.45593999997E+02  0.45594000000E+02  0.51100000000E-03 0.  1.
    9900012    2    1    2    0    0  0.30225034193E+02 -0.10790801572E+02 -0.24963397570E+02  0.50528864387E+02  0.30000013792E+02 0.  0.
         12    1    1    2    0    0 -0.30225034193E+02  0.10790801572E+02  0.24963397570E+02  0.40659135613E+02  0.00000000000E+00 0. -1.
         11    1    3    3    0    0  0.59843796317E+01  0.80409099005E+01 -0.91473938581E+01  0.13569961174E+02  0.51100000000E-03 0. -1.
        -11    1    3    3    0    0  0.77605792121E+01 -0.47008597617E+01  0.14916627702E+01  0.91950927286E+01  0.51100000000E-03 0.  1.
        -12    1    3    3    0    0  0.16480075349E+02 -0.14130851711E+02 -0.17307666482E+02  0.27763810485E+02  0.00000000000E+00 0.  1.
</event>
<event>
 7    1  0.3383281E-011  0.5052885E+02  0.7816164E-02  0.1300439E+00
        -11   -1    0    0    0    0  0.00000000000E+00  0.00000000000E+00  0.45593999997E+02  0.45594000000E+02  0.51100000000E-03 0.  1.
         11   -1    0    0    0    0 -0.00000000000E+00 -0.00000000000E+00 -0.45593999997E+02  0.45594000000E+02  0.51100000000E-03 0. -1.
    9900012    2    1    2    0    0  0.26981099505E+02  0.49267147311E+01  0.30015227267E+02  0.50528854455E+02  0.29999983603E+02 0.  0.
         12    1    1    2    0    0 -0.26981099505E+02 -0.49267147311E+01 -0.30015227267E+02  0.40659145545E+02  0.00000000000E+00 0. -1.
         11    1    3    3    0    0  0.60363041684E+01  0.59145553527E+01  0.62235214658E+00  0.84738571789E+01  0.51100000000E-03 0. -1.
        -11    1    3    3    0    0  0.17877461713E+02  0.24118226577E+01  0.72469306977E+01  0.19440641209E+02  0.51100000000E-03 0.  1.
         12    1    3    3    0    0  0.30673336239E+01 -0.33996632794E+01  0.22145944423E+02  0.22614356068E+02  0.00000000000E+00 0. -1.
</event>
<event>
 7    1  0.3383281E-011  0.5052886E+02  0.7816164E-02  0.1300439E+00
        -11   -1    0    0    0    0  0.00000000000E+00  0.00000000000E+00  0.45593999997E+02  0.45594000000E+02  0.51100000000E-03 0.  1.
         11   -1    0    0    0    0 -0.00000000000E+00 -0.00000000000E+00 -0.45593999997E+02  0.45594000000E+02  0.51100000000E-03 0. -1.
    9900012    2    1    2    0    0 -0.39469507889E+02 -0.34185777799E+01 -0.91453065443E+01  0.50528863772E+02  0.30000011921E+02 0.  0.
         12    1    1    2    0    0  0.39469507889E+02  0.34185777799E+01  0.91453065443E+01  0.40659136228E+02  0.00000000000E+00 0. -1.
         11    1    3    3    0    0 -0.17290184896E+02 -0.62900743277E+01  0.16075865876E+01  0.18468889075E+02  0.51100000000E-03 0.  1.
        -11    1    3    3    0    0 -0.80947704162E+01 -0.86974329413E+01 -0.30106955780E+01  0.12257036183E+02  0.51100000000E-03 0. -1.
        -12    1    3    3    0    0 -0.14084552577E+02  0.11568929489E+02 -0.77421975539E+01  0.19802938514E+02  0.00000000000E+00 0.  1.
</event>
<event>
 7    1  0.3383281E-011  0.5052889E+02  0.7816164E-02  0.1300439E+00
        -11   -1    0    0    0    0  0.00000000000E+00  0.00000000000E+00  0.45593999997E+02  0.45594000000E+02  0.51100000000E-03 0. -1.
         11   -1    0    0    0    0 -0.00000000000E+00 -0.00000000000E+00 -0.45593999997E+02  0.45594000000E+02  0.51100000000E-03 0.  1.
    9900012    2    1    2    0    0 -0.29818880545E+01  0.87767423772E+01 -0.39588386948E+02  0.50528889775E+02  0.30000090961E+02 0.  0.
         12    1    1    2    0    0  0.29818880545E+01 -0.87767423772E+01  0.39588386948E+02  0.40659110225E+02  0.00000000000E+00 0. -1.
         11    1    3    3    0    0  0.32367998658E+01 -0.16043860420E+01 -0.97239131499E+01  0.10373303001E+02  0.51100000000E-03 0. -1.
        -11    1    3    3    0    0  0.58699342986E+01  0.32427985587E+01 -0.24037541363E+02  0.24955465658E+02  0.51100000000E-03 0.  1.
        -12    1    3    3    0    0 -0.12088622219E+02  0.71383298604E+01 -0.58269324349E+01  0.15200121116E+02  0.00000000000E+00 0.  1.
</event>
<event>
 7    1  0.3383281E-011  0.5052885E+02  0.7816164E-02  0.1300439E+00
        -11   -1    0    0    0    0  0.00000000000E+00  0.00000000000E+00  0.45593999997E+02  0.45594000000E+02  0.51100000000E-03 0. -1.
         11   -1    0    0    0    0 -0.00000000000E+00 -0.00000000000E+00 -0.45593999997E+02  0.45594000000E+02  0.51100000000E-03 0.  1.
    9900012    2    1    2    0    0 -0.17105653030E+02  0.26976414435E+02 -0.25156233754E+02  0.50528850992E+02  0.29999973076E+02 0.  0.
         12    1    1    2    0    0  0.17105653030E+02 -0.26976414435E+02  0.25156233754E+02  0.40659149008E+02  0.00000000000E+00 0. -1.
         11    1    3    3    0    0 -0.47056610551E+01  0.55071114324E+00  0.70997882045E+00  0.47906783356E+01  0.51100000000E-03 0. -1.
        -11    1    3    3    0    0 -0.17464245934E+02  0.10392749161E+02 -0.10122153854E+02  0.22703900988E+02  0.51100000000E-03 0.  1.
        -12    1    3    3    0    0  0.50642539586E+01  0.16032954131E+02 -0.15744058720E+02  0.23034271669E+02  0.00000000000E+00 0.  1.
</event>
<event>
 7    1  0.3383281E-011  0.5052885E+02  0.7816164E-02  0.1300439E+00
        -11   -1    0    0    0    0  0.00000000000E+00  0.00000000000E+00  0.45593999997E+02  0.45594000000E+02  0.51100000000E-03 0.  1.
         11   -1    0    0    0    0 -0.00000000000E+00 -0.00000000000E+00 -0.45593999997E+02  0.45594000000E+02  0.51100000000E-03 0. -1.
    9900012    2    1    2    0    0  0.21375457230E+02 -0.24175456391E+02  0.24734667453E+02  0.50528848047E+02  0.29999964124E+02 0.  0.
         12    1    1    2    0    0 -0.21375457230E+02  0.24175456391E+02 -0.24734667453E+02  0.40659151953E+02  0.00000000000E+00 0. -1.
         11    1    3    3    0    0  0.59489533535E+01 -0.90033378398E+01  0.86663046610E+01  0.13840338688E+02  0.51100000000E-03 0.  1.
        -11    1    3    3    0    0  0.21789228154E+02 -0.14904948303E+02  0.14542706089E+02  0.30139977573E+02  0.51100000000E-03 0. -1.
         12    1    3    3    0    0 -0.63627242778E+01 -0.26717024915E+00  0.15256567031E+01  0.65485317860E+01  0.00000000000E+00 0. -1.
</event>
<event>
 7    1  0.4300662E-011  0.5052892E+02  0.7816164E-02  0.1300439E+00
        -11   -1    0    0    0    0  0.00000000000E+00  0.00000000000E+00  0.45593999997E+02  0.45594000000E+02  0.51100000000E-03 0. -1.
         11   -1    0    0    0    0 -0.00000000000E+00 -0.00000000000E+00 -0.45593999997E+02  0.45594000000E+02  0.51100000000E-03 0.  1.
    9900012    2    1    2    0    0 -0.17651620330E+02  0.10743641780E+02 -0.35016503834E+02  0.50528916393E+02  0.30000171868E+02 0.  0.
         12    1    1    2    0    0  0.17651620330E+02 -0.10743641780E+02  0.35016503834E+02  0.40659083607E+02  0.00000000000E+00 0. -1.
         11    1    3    3    0    0  0.49886671672E+01  0.30018541624E+00 -0.11025282006E+00  0.49989066139E+01  0.51100000000E-03 0. -1.
        -11    1    3    3    0    0 -0.35397239808E+01  0.71852707743E+01 -0.18430606806E+02  0.20095895836E+02  0.51100000000E-03 0.  1.
         12    1    3    3    0    0 -0.19100563517E+02  0.32581855891E+01 -0.16475644208E+02  0.25434113943E+02  0.00000000000E+00 0. -1.
</event>
<event>
 7    1  0.3383281E-011  0.5052886E+02  0.7816164E-02  0.1300439E+00
        -11   -1    0    0    0    0  0.00000000000E+00  0.00000000000E+00  0.45593999997E+02  0.45594000000E+02  0.51100000000E-03 0.  1.
         11   -1    0    0    0    0 -0.00000000000E+00 -0.00000000000E+00 -0.45593999997E+02  0.45594000000E+02  0.51100000000E-03 0. -1.
    9900012    2    1    2    0    0  0.90738762873E+01 -0.30087725552E+02  0.25798433191E+02  0.50528860623E+02  0.30000002350E+02 0.  0.
         12    1    1    2    0    0 -0.90738762873E+01  0.30087725552E+02 -0.25798433191E+02  0.40659139377E+02  0.00000000000E+00 0. -1.
         11    1    3    3    0    0 -0.30996607111E+01 -0.77092542742E+01  0.91188023672E+01  0.12336654930E+02  0.51100000000E-03 0. -1.
        -11    1    3    3    0    0 -0.25945655444E+01 -0.57083382910E+01  0.14521043109E+02  0.15817003182E+02  0.51100000000E-03 0.  1.
         12    1    3    3    0    0  0.14768102543E+02 -0.16670132987E+02  0.21585877150E+01  0.22375202511E+02  0.00000000000E+00 0. -1.
</event>
<event>
 7    1  0.3383281E-011  0.5052886E+02  0.7816164E-02  0.1300439E+00
        -11   -1    0    0    0    0  0.00000000000E+00  0.00000000000E+00  0.45593999997E+02  0.45594000000E+02  0.51100000000E-03 0.  1.
         11   -1    0    0    0    0 -0.00000000000E+00 -0.00000000000E+00 -0.45593999997E+02  0.45594000000E+02  0.51100000000E-03 0. -1.
    9900012    2    1    2    0    0 -0.83448162607E+01 -0.13313274615E+02  0.37500486231E+02  0.50528859490E+02  0.29999998907E+02 0.  0.
         12    1    1    2    0    0  0.83448162607E+01  0.13313274615E+02 -0.37500486231E+02  0.40659140510E+02  0.00000000000E+00 0. -1.
         11    1    3    3    0    0  0.90991300815E+01 -0.15262258128E+01  0.11865402148E+02  0.15030346033E+02  0.51100000000E-03 0. -1.
        -11    1    3    3    0    0 -0.60147429462E+01 -0.10309976856E+02  0.18264216082E+02  0.21818669639E+02  0.51100000000E-03 0.  1.
        -12    1    3    3    0    0 -0.11429203396E+02 -0.14770719464E+01  0.73708680010E+01  0.13679843818E+02  0.00000000000E+00 0.  1.
</event>
<event>
 7    1  0.3383281E-011  0.5052886E+02  0.7816164E-02  0.1300439E+00
        -11   -1    0    0    0    0  0.00000000000E+00  0.00000000000E+00  0.45593999997E+02  0.45594000000E+02  0.51100000000E-03 0.  1.
         11   -1    0    0    0    0 -0.00000000000E+00 -0.00000000000E+00 -0.45593999997E+02  0.45594000000E+02  0.51100000000E-03 0. -1.
    9900012    2    1    2    0    0 -0.24061339353E+02 -0.15312870328E+02  0.28978156977E+02  0.50528860425E+02  0.30000001749E+02 0.  0.
         12    1    1    2    0    0  0.24061339353E+02  0.15312870328E+02 -0.28978156977E+02  0.40659139575E+02  0.00000000000E+00 0. -1.
         11    1    3    3    0    0 -0.11561618857E+02 -0.13694203305E+02  0.74184942722E+01  0.19396811395E+02  0.51100000000E-03 0. -1.
        -11    1    3    3    0    0 -0.15240620087E+02 -0.39791424187E+01  0.91725819642E+01  0.18227625604E+02  0.51100000000E-03 0.  1.
         12    1    3    3    0    0  0.27408995913E+01  0.23604753958E+01  0.12387080741E+02  0.12904423426E+02  0.00000000000E+00 0. -1.
</event>
<event>
 7    1  0.3383281E-011  0.5052887E+02  0.7816164E-02  0.1300439E+00
        -11   -1    0    0    0    0  0.00000000000E+00  0.00000000000E+00  0.45593999997E+02  0.45594000000E+02  0.51100000000E-03 0.  1.
         11   -1    0    0    0    0 -0.00000000000E+00 -0.00000000000E+00 -0.45593999997E+02  0.45594000000E+02  0.51100000000E-03 0. -1.
    9900012    2    1    2    0    0  0.15518563772E+02  0.16463490433E+02  0.33783022680E+02  0.50528868674E+02  0.30000026821E+02 0.  0.
         12    1    1    2    0    0 -0.15518563772E+02 -0.16463490433E+02 -0.33783022680E+02  0.40659131326E+02  0.00000000000E+00 0. -1.
         11    1    3    3    0    0  0.15303908628E+02  0.11001128414E+02  0.16230662392E+02  0.24873054650E+02  0.51100000000E-03 0. -1.
        -11    1    3    3    0    0  0.37620811188E+01  0.11082909428E+02  0.13518299423E+02  0.17880955100E+02  0.51100000000E-03 0.  1.
        -12    1    3    3    0    0 -0.35474259742E+01 -0.56205474094E+01  0.40340608656E+01  0.77748589242E+01  0.00000000000E+00 0.  1.
</event>
<event>
 7    1  0.3383281E-011  0.5052886E+02  0.7816164E-02  0.1300439E+00
        -11   -1    0    0    0    0  0.00000000000E+00  0.00000000000E+00  0.45593999997E+02  0.45594000000E+02  0.51100000000E-03 0. -1.
         11   -1    0    0    0    0 -0.00000000000E+00 -0.00000000000E+00 -0.45593999997E+02  0.45594000000E+02  0.51100000000E-03 0.  1.
    9900012    2    1    2    0    0 -0.17900470359E+02  0.23692410410E+02 -0.27774241007E+02  0.50528860638E+02  0.30000002396E+02 0.  0.
         12    1    1    2    0    0  0.17900470359E+02 -0.23692410410E+02  0.27774241007E+02  0.40659139362E+02  0.00000000000E+00 0. -1.
         11    1    3    3    0    0 -0.52924979010E+00  0.72223040431E+01 -0.11524996133E+02  0.13611293735E+02  0.51100000000E-03 0. -1.
        -11    1    3    3    0    0 -0.54736366590E+01 -0.57434634418E+01 -0.43861262634E+01  0.90656590738E+01  0.51100000000E-03 0.  1.
         12    1    3    3    0    0 -0.11897583910E+02  0.22213569809E+02 -0.11863118611E+02  0.27851907829E+02  0.00000000000E+00 0. -1.
</event>
<event>
 7    1  0.3383281E-011  0.5052885E+02  0.7816164E-02  0.1300439E+00
        -11   -1    0    0    0    0  0.00000000000E+00  0.00000000000E+00  0.45593999997E+02  0.45594000000E+02  0.51100000000E-03 0. -1.
         11   -1    0    0    0    0 -0.00000000000E+00 -0.00000000000E+00 -0.45593999997E+02  0.45594000000E+02  0.51100000000E-03 0.  1.
    9900012    2    1    2    0    0  0.32208565813E+02 -0.24569153609E+02 -0.34830408625E+01  0.50528848577E+02  0.29999965735E+02 0.  0.
         12    1    1    2    0    0 -0.32208565813E+02  0.24569153609E+02  0.34830408625E+01  0.40659151423E+02  0.00000000000E+00 0. -1.
         11    1    3    3    0    0  0.70004505818E+01 -0.15222215048E+02 -0.93102956835E+01  0.19167778830E+02  0.51100000000E-03 0. -1.
        -11    1    3    3    0    0  0.64744482587E+01 -0.16941265707E+01 -0.50523539078E+01  0.83853935723E+01  0.51100000000E-03 0.  1.
         12    1    3    3    0    0  0.18733666972E+02 -0.76528119900E+01  0.10879608729E+02  0.22975676175E+02  0.00000000000E+00 0. -1.
</event>
<event>
 7    1  0.3383281E-011  0.5052885E+02  0.7816164E-02  0.1300439E+00
        -11   -1    0    0    0    0  0.00000000000E+00  0.00000000000E+00  0.45593999997E+02  0.45594000000E+02  0.51100000000E-03 0. -1.
         11   -1    0    0    0    0 -0.00000000000E+00 -0.00000000000E+00 -0.45593999997E+02  0.45594000000E+02  0.51100000000E-03 0.  1.
    9900012    2    1    2    0    0  0.88329578606E+01  0.39217947330E+02  0.60908317725E+01  0.50528846430E+02  0.29999959209E+02 0.  0.
         12    1    1    2    0    0 -0.88329578606E+01 -0.39217947330E+02 -0.60908317725E+01  0.40659153570E+02  0.00000000000E+00 0. -1.
         11    1    3    3    0    0 -0.15462103383E+01  0.17388078341E+02 -0.17711016092E+01  0.17546305479E+02  0.51100000000E-03 0. -1.
        -11    1    3    3    0    0  0.14374957574E+01  0.69051113277E+01 -0.71203869107E+01  0.10022318420E+02  0.51100000000E-03 0.  1.
         12    1    3    3    0    0  0.89416724415E+01  0.14924757661E+02  0.14982320292E+02  0.22960222530E+02  0.00000000000E+00 0. -1.
</event>
<event>
 7    1  0.3383281E-011  0.5052885E+02  0.7816164E-02  0.1300439E+00
        -11   -1    0    0    0    0  0.00000000000E+00  0.00000000000E+00  0.45593999997E+02  0.45594000000E+02  0.51100000000E-03 0.  1.
         11   -1    0    0    0    0 -0.00000000000E+00 -0.00000000000E+00 -0.45593999997E+02  0.45594000000E+02  0.51100000000E-03 0. -1.
    9900012    2    1    2    0    0 -0.28894897427E+02 -0.15766945240E+02  0.23867434686E+02  0.50528854682E+02  0.29999984291E+02 0.  0.
         12    1    1    2    0    0  0.28894897427E+02  0.15766945240E+02 -0.23867434686E+02  0.40659145318E+02  0.00000000000E+00 0. -1.
         11    1    3    3    0    0 -0.82506421895E+00  0.34672496073E+01  0.31317381063E+01  0.47445057311E+01  0.51100000000E-03 0. -1.
        -11    1    3    3    0    0 -0.52054148571E+01 -0.41839799027E+00  0.14651934431E+02  0.15554760800E+02  0.51100000000E-03 0.  1.
         12    1    3    3    0    0 -0.22864418351E+02 -0.18815796857E+02  0.60837621485E+01  0.30229588151E+02  0.00000000000E+00 0. -1.
</event>
<event>
 7    1  0.3383281E-011  0.5052886E+02  0.7816164E-02  0.1300439E+00
        -11   -1    0    0    0    0  0.00000000000E+00  0.00000000000E+00  0.45593999997E+02  0.45594000000E+02  0.51100000000E-03 0.  1.
         11   -1    0    0    0    0 -0.00000000000E+00 -0.00000000000E+00 -0.45593999997E+02  0.45594000000E+02  0.51100000000E-03 0. -1.
    9900012    2    1    2    0    0  0.20124044915E+02  0.31341094116E+02  0.16307188643E+02  0.50528858770E+02  0.29999996716E+02 0.  0.
         12    1    1    2    0    0 -0.20124044915E+02 -0.31341094116E+02 -0.16307188643E+02  0.40659141230E+02  0.00000000000E+00 0. -1.
         11    1    3    3    0    0 -0.58504690608E+01  0.20638160712E+01  0.62333289312E+01  0.87944138425E+01  0.51100000000E-03 0. -1.
        -11    1    3    3    0    0  0.12540387683E+02  0.21639839624E+02  0.53679120346E+01  0.25580431233E+02  0.51100000000E-03 0.  1.
        -12    1    3    3    0    0  0.13434126293E+02  0.76374384210E+01  0.47059476769E+01  0.16154013694E+02  0.00000000000E+00 0.  1.
</event>
<event>
 7    1  0.3383281E-011  0.5052886E+02  0.7816164E-02  0.1300439E+00
        -11   -1    0    0    0    0  0.00000000000E+00  0.00000000000E+00  0.45593999997E+02  0.45594000000E+02  0.51100000000E-03 0. -1.
         11   -1    0    0    0    0 -0.00000000000E+00 -0.00000000000E+00 -0.45593999997E+02  0.45594000000E+02  0.51100000000E-03 0.  1.
    9900012    2    1    2    0    0 -0.18610734012E+02 -0.27392063931E+01 -0.36045845844E+02  0.50528859887E+02  0.30000000113E+02 0.  0.
         12    1    1    2    0    0  0.18610734012E+02  0.27392063931E+01  0.36045845844E+02  0.40659140113E+02  0.00000000000E+00 0. -1.
         11    1    3    3    0    0  0.75371573247E+00  0.57864475536E+01 -0.70080767519E+01  0.91194409213E+01  0.51100000000E-03 0. -1.
        -11    1    3    3    0    0  0.37205240939E+01  0.11852717929E+01 -0.14907826144E+01  0.41796652761E+01  0.51100000000E-03 0.  1.
        -12    1    3    3    0    0 -0.23084973838E+02 -0.97109257396E+01 -0.27546986477E+02  0.37229753690E+02  0.00000000000E+00 0.  1.
</event>
<event>
 7    1  0.3383281E-011  0.5052886E+02  0.7816164E-02  0.1300439E+00
        -11   -1    0    0    0    0  0.00000000000E+00  0.00000000000E+00  0.45593999997E+02  0.45594000000E+02  0.51100000000E-03 0.  1.
         11   -1    0    0    0    0 -0.00000000000E+00 -0.00000000000E+00 -0.45593999997E+02  0.45594000000E+02  0.51100000000E-03 0. -1.
    9900012    2    1    2    0    0  0.38536093418E+02 -0.33464745015E+01  0.12527416728E+02  0.50528861330E+02  0.30000004499E+02 0.  0.
         12    1    1    2    0    0 -0.38536093418E+02  0.33464745015E+01 -0.12527416728E+02  0.40659138670E+02  0.00000000000E+00 0. -1.
         11    1    3    3    0    0 -0.33820086172E+01 -0.85026961854E-01  0.70201343067E+00  0.34551461603E+01  0.51100000000E-03 0. -1.
        -11    1    3    3    0    0  0.35739696101E+01  0.50793214877E+01  0.27766048365E+01  0.68031095999E+01  0.51100000000E-03 0.  1.
         12    1    3    3    0    0  0.38344132425E+02 -0.83407690274E+01  0.90487984608E+01  0.40270605570E+02  0.00000000000E+00 0. -1.
</event>
<event>
 7    1  0.3383281E-011  0.5052887E+02  0.7816164E-02  0.1300439E+00
        -11   -1    0    0    0    0  0.00000000000E+00  0.00000000000E+00  0.45593999997E+02  0.45594000000E+02  0.51100000000E-03 0. -1.
         11   -1    0    0    0    0 -0.00000000000E+00 -0.00000000000E+00 -0.45593999997E+02  0.45594000000E+02  0.51100000000E-03 0.  1.
    9900012    2    1    2    0    0  0.33813449333E+02 -0.18370857661E+02 -0.13127344448E+02  0.50528868932E+02  0.30000027604E+02 0.  0.
         12    1    1    2    0    0 -0.33813449333E+02  0.18370857661E+02  0.13127344448E+02  0.40659131068E+02  0.00000000000E+00 0. -1.
         11    1    3    3    0    0  0.19179152369E+01 -0.11717782746E+00 -0.87751940819E+01  0.89831041927E+01  0.51100000000E-03 0. -1.
        -11    1    3    3    0    0  0.20957147993E+02 -0.10807625765E+02 -0.11793545581E+02  0.26364645727E+02  0.51100000000E-03 0.  1.
         12    1    3    3    0    0  0.10938386103E+02 -0.74460540679E+01  0.74413952143E+01  0.15181119012E+02  0.00000000000E+00 0. -1.
</event>
<event>
 7    1  0.4666112E-011  0.5052886E+02  0.7816164E-02  0.1300439E+00
        -11   -1    0    0    0    0  0.00000000000E+00  0.00000000000E+00  0.45593999997E+02  0.45594000000E+02  0.51100000000E-03 0.  1.
         11   -1    0    0    0    0 -0.00000000000E+00 -0.00000000000E+00 -0.45593999997E+02  0.45594000000E+02  0.51100000000E-03 0. -1.
    9900012    2    1    2    0    0  0.14757515566E+02  0.29102337931E+02  0.24257684213E+02  0.50528861025E+02  0.30000003573E+02 0.  0.
         12    1    1    2    0    0 -0.14757515566E+02 -0.29102337931E+02 -0.24257684213E+02  0.40659138975E+02  0.00000000000E+00 0. -1.
         11    1    3    3    0    0 -0.40054762099E+01  0.97264512823E+00 -0.97775095954E+00  0.42362572412E+01  0.51100000000E-03 0. -1.
        -11    1    3    3    0    0  0.12325013165E+02  0.27662522447E+02  0.14063938364E+02  0.33390349807E+02  0.51100000000E-03 0.  1.
         12    1    3    3    0    0  0.64379786115E+01  0.46717035598E+00  0.11171496809E+02  0.12902253978E+02  0.00000000000E+00 0. -1.
</event>
<event>
 7    1  0.3383281E-011  0.5052889E+02  0.7816164E-02  0.1300439E+00
        -11   -1    0    0    0    0  0.00000000000E+00  0.00000000000E+00  0.45593999997E+02  0.45594000000E+02  0.51100000000E-03 0.  1.
         11   -1    0    0    0    0 -0.00000000000E+00 -0.00000000000E+00 -0.45593999997E+02  0.45594000000E+02  0.51100000000E-03 0. -1.
    9900012    2    1    2    0    0  0.26635981030E+01  0.39056693395E+02  0.10983753566E+02  0.50528894055E+02  0.30000103971E+02 0.  0.
         12    1    1    2    0    0 -0.26635981030E+01 -0.39056693395E+02 -0.10983753566E+02  0.40659105945E+02  0.00000000000E+00 0. -1.
         11    1    3    3    0    0 -0.48813868062E+01  0.27192013995E+01  0.10624927723E+00  0.55886744916E+01  0.51100000000E-03 0. -1.
        -11    1    3    3    0    0  0.29294687001E+01 -0.28206645568E+01  0.11410874819E+00  0.40682866755E+01  0.51100000000E-03 0.  1.
         12    1    3    3    0    0  0.46155162091E+01  0.39158156552E+02  0.10763395540E+02  0.40871932888E+02  0.00000000000E+00 0. -1.
</event>
<event>
 7    1  0.3383281E-011  0.5052886E+02  0.7816164E-02  0.1300439E+00
        -11   -1    0    0    0    0  0.00000000000E+00  0.00000000000E+00  0.45593999997E+02  0.45594000000E+02  0.51100000000E-03 0. -1.
         11   -1    0    0    0    0 -0.00000000000E+00 -0.00000000000E+00 -0.45593999997E+02  0.45594000000E+02  0.51100000000E-03 0.  1.
    9900012    2    1    2    0    0 -0.17904459519E+02  0.36238223740E+02 -0.44030486856E+01  0.50528863656E+02  0.30000011568E+02 0.  0.
         12    1    1    2    0    0  0.17904459519E+02 -0.36238223740E+02  0.44030486856E+01  0.40659136344E+02  0.00000000000E+00 0. -1.
         11    1    3    3    0    0 -0.74434040161E+01  0.10832333303E+02 -0.21142418474E+01  0.13312164624E+02  0.51100000000E-03 0. -1.
        -11    1    3    3    0    0 -0.10386000814E+02  0.29082540156E+02  0.27221124884E+01  0.31001178228E+02  0.51100000000E-03 0.  1.
         12    1    3    3    0    0 -0.75054688742E-01 -0.36766497190E+01 -0.50109193266E+01  0.62155208037E+01  0.00000000000E+00 0. -1.
</event>
<event>
 7    1  0.3383281E-011  0.5052886E+02  0.7816164E-02  0.1300439E+00
        -11   -1    0    0    0    0  0.00000000000E+00  0.00000000000E+00  0.45593999997E+02  0.45594000000E+02  0.51100000000E-03 0.  1.
         11   -1    0    0    0    0 -0.00000000000E+00 -0.00000000000E+00 -0.45593999997E+02  0.45594000000E+02  0.51100000000E-03 0. -1.
    9900012    2    1    2    0    0 -0.11584673605E+02 -0.24476976275E+02  0.30328842064E+02  0.50528859686E+02  0.29999999503E+02 0.  0.
         12    1    1    2    0    0  0.11584673605E+02  0.24476976275E+02 -0.30328842064E+02  0.40659140314E+02  0.00000000000E+00 0. -1.
         11    1    3    3    0    0 -0.14441905711E+02 -0.60793525747E+01  0.18656122780E+02  0.24363458000E+02  0.51100000000E-03 0. -1.
        -11    1    3    3    0    0 -0.43768431751E+01 -0.64371488119E+01  0.90609544287E+01  0.11945481842E+02  0.51100000000E-03 0.  1.
         12    1    3    3    0    0  0.72340752811E+01 -0.11960474889E+02  0.26117648551E+01  0.14219919845E+02  0.00000000000E+00 0. -1.
</event>
<event>
 7    1  0.3383281E-011  0.5052886E+02  0.7816164E-02  0.1300439E+00
        -11   -1    0    0    0    0  0.00000000000E+00  0.00000000000E+00  0.45593999997E+02  0.45594000000E+02  0.51100000000E-03 0.  1.
         11   -1    0    0    0    0 -0.00000000000E+00 -0.00000000000E+00 -0.45593999997E+02  0.45594000000E+02  0.51100000000E-03 0. -1.
    9900012    2    1    2    0    0 -0.38341543362E+02 -0.10037539021E+02  0.90741333577E+01  0.50528855479E+02  0.29999986713E+02 0.  0.
         12    1    1    2    0    0  0.38341543362E+02  0.10037539021E+02 -0.90741333577E+01  0.40659144521E+02  0.00000000000E+00 0. -1.
         11    1    3    3    0    0 -0.86395286152E+01  0.24030166011E+00 -0.65814206305E+01  0.10863438560E+02  0.51100000000E-03 0. -1.
        -11    1    3    3    0    0  0.98992895506E+00  0.25500119881E+01 -0.33667434826E+00  0.27560606585E+01  0.51100000000E-03 0.  1.
        -12    1    3    3    0    0 -0.30691943702E+02 -0.12827852669E+02  0.15992228336E+02  0.36909356260E+02  0.00000000000E+00 0.  1.
</event>
<event>
 7    1  0.3383281E-011  0.5052886E+02  0.7816164E-02  0.1300439E+00
        -11   -1    0    0    0    0  0.00000000000E+00  0.00000000000E+00  0.45593999997E+02  0.45594000000E+02  0.51100000000E-03 0.  1.
         11   -1    0    0    0    0 -0.00000000000E+00 -0.00000000000E+00 -0.45593999997E+02  0.45594000000E+02  0.51100000000E-03 0. -1.
    9900012    2    1    2    0    0 -0.21968623561E+02 -0.32995837047E+02 -0.90454415519E+01  0.50528859619E+02  0.29999999299E+02 0.  0.
         12    1    1    2    0    0  0.21968623561E+02  0.32995837047E+02  0.90454415519E+01  0.40659140381E+02  0.00000000000E+00 0. -1.
         11    1    3    3    0    0 -0.15613759824E+02 -0.97076318569E+01  0.25527993157E+01  0.18561907141E+02  0.51100000000E-03 0. -1.
        -11    1    3    3    0    0 -0.10765612342E+02 -0.11417380556E+02 -0.11231788682E+02  0.19297877218E+02  0.51100000000E-03 0.  1.
        -12    1    3    3    0    0  0.44107486045E+01 -0.11870824634E+02 -0.36645218580E+00  0.12669075260E+02  0.00000000000E+00 0.  1.
</event>
<event>
 7    1  0.3383281E-011  0.5052887E+02  0.7816164E-02  0.1300439E+00
        -11   -1    0    0    0    0  0.00000000000E+00  0.00000000000E+00  0.45593999997E+02  0.45594000000E+02  0.51100000000E-03 0. -1.
         11   -1    0    0    0    0 -0.00000000000E+00 -0.00000000000E+00 -0.45593999997E+02  0.45594000000E+02  0.51100000000E-03 0.  1.
    9900012    2    1    2    0    0 -0.16719425159E+02 -0.15098257441E+02 -0.33847727682E+02  0.50528865422E+02  0.30000016937E+02 0.  0.
         12    1    1    2    0    0  0.16719425159E+02  0.15098257441E+02  0.33847727682E+02  0.40659134578E+02  0.00000000000E+00 0. -1.
         11    1    3    3    0    0 -0.41902489285E+01 -0.92948572027E+00  0.28383772294E+01  0.51457278732E+01  0.51100000000E-03 0. -1.
        -11    1    3    3    0    0 -0.77385353852E+01  0.39589435777E+00 -0.28870081805E+01  0.82690071198E+01  0.51100000000E-03 0.  1.
         12    1    3    3    0    0 -0.47906408448E+01 -0.14564666078E+02 -0.33799096731E+02  0.37114130429E+02  0.00000000000E+00 0. -1.
</event>
<event>
 7    1  0.3383281E-011  0.5052886E+02  0.7816164E-02  0.1300439E+00
        -11   -1    0    0    0    0  0.00000000000E+00  0.00000000000E+00  0.45593999997E+02  0.45594000000E+02  0.51100000000E-03 0. -1.
         11   -1    0    0    0    0 -0.00000000000E+00 -0.00000000000E+00 -0.45593999997E+02  0.45594000000E+02  0.51100000000E-03 0.  1.
    9900012    2    1    2    0    0  0.19469214050E+02 -0.33603136440E+02 -0.12039299642E+02  0.50528858221E+02  0.29999995048E+02 0.  0.
         12    1    1    2    0    0 -0.19469214050E+02  0.33603136440E+02  0.12039299642E+02  0.40659141779E+02  0.00000000000E+00 0. -1.
         11    1    3    3    0    0  0.42910020964E+01 -0.87295512313E+01  0.43280139303E+01  0.10646570741E+02  0.51100000000E-03 0.  1.
        -11    1    3    3    0    0 -0.15242441489E+01 -0.12435453492E+02  0.12691717628E+01  0.12592641542E+02  0.51100000000E-03 0. -1.
         12    1    3    3    0    0  0.16702456102E+02 -0.12438131717E+02 -0.17636485335E+02  0.27289645938E+02  0.00000000000E+00 0. -1.
</event>
<event>
 7    1  0.5439399E-011  0.5052888E+02  0.7816164E-02  0.1300439E+00
        -11   -1    0    0    0    0  0.00000000000E+00  0.00000000000E+00  0.45593999997E+02  0.45594000000E+02  0.51100000000E-03 0.  1.
         11   -1    0    0    0    0 -0.00000000000E+00 -0.00000000000E+00 -0.45593999997E+02  0.45594000000E+02  0.51100000000E-03 0. -1.
    9900012    2    1    2    0    0 -0.18172794349E+02  0.36361087864E+02 -0.88587214039E+00  0.50528881287E+02  0.30000065158E+02 0.  0.
         12    1    1    2    0    0  0.18172794349E+02 -0.36361087864E+02  0.88587214039E+00  0.40659118713E+02  0.00000000000E+00 0. -1.
         11    1    3    3    0    0 -0.10102365028E+02  0.17659806271E+02  0.24475442485E+01  0.20491876678E+02  0.51100000000E-03 0. -1.
        -11    1    3    3    0    0 -0.15335548370E+02  0.15345170844E+02 -0.37814182127E+01  0.22021635634E+02  0.51100000000E-03 0.  1.
         12    1    3    3    0    0  0.72651190492E+01  0.33561107492E+01  0.44800182379E+00  0.80153689743E+01  0.00000000000E+00 0. -1.
</event>
<event>
 7    1  0.3383281E-011  0.5052887E+02  0.7816164E-02  0.1300439E+00
        -11   -1    0    0    0    0  0.00000000000E+00  0.00000000000E+00  0.45593999997E+02  0.45594000000E+02  0.51100000000E-03 0.  1.
         11   -1    0    0    0    0 -0.00000000000E+00 -0.00000000000E+00 -0.45593999997E+02  0.45594000000E+02  0.51100000000E-03 0. -1.
    9900012    2    1    2    0    0  0.28920829773E+02 -0.34574143115E+01  0.28368944125E+02  0.50528866964E+02  0.30000021624E+02 0.  0.
         12    1    1    2    0    0 -0.28920829773E+02  0.34574143115E+01 -0.28368944125E+02  0.40659133036E+02  0.00000000000E+00 0. -1.
         11    1    3    3    0    0  0.81518078762E+01 -0.96462154470E+01  0.35915016868E+01  0.13130130568E+02  0.51100000000E-03 0. -1.
        -11    1    3    3    0    0  0.77869308660E+01 -0.47130079875E+01  0.25655380694E+01  0.94567818230E+01  0.51100000000E-03 0.  1.
        -12    1    3    3    0    0  0.12982091031E+02  0.10901809123E+02  0.22211904369E+02  0.27941954573E+02  0.00000000000E+00 0.  1.
</event>
<event>
 7    1  0.3383281E-011  0.5052888E+02  0.7816164E-02  0.1300439E+00
        -11   -1    0    0    0    0  0.00000000000E+00  0.00000000000E+00  0.45593999997E+02  0.45594000000E+02  0.51100000000E-03 0.  1.
         11   -1    0    0    0    0 -0.00000000000E+00 -0.00000000000E+00 -0.45593999997E+02  0.45594000000E+02  0.51100000000E-03 0. -1.
    9900012    2    1    2    0    0  0.11942291018E+01  0.11449904148E+01  0.40625445697E+02  0.50528880183E+02  0.30000061805E+02 0.  0.
         12    1    1    2    0    0 -0.11942291018E+01 -0.11449904148E+01 -0.40625445697E+02  0.40659119817E+02  0.00000000000E+00 0. -1.
         11    1    3    3    0    0  0.10014197022E+02  0.37032089379E+00  0.44055032220E+01  0.10946677051E+02  0.51100000000E-03 0. -1.
        -11    1    3    3    0    0  0.79396974831E+00 -0.42497609759E+01  0.16700638156E+02  0.17251149857E+02  0.51100000000E-03 0.  1.
        -12    1    3    3    0    0 -0.96139376682E+01  0.50244304969E+01  0.19519304319E+02  0.22331053276E+02  0.00000000000E+00 0.  1.
</event>
<event>
 7    1  0.3383281E-011  0.5052886E+02  0.7816164E-02  0.1300439E+00
        -11   -1    0    0    0    0  0.00000000000E+00  0.00000000000E+00  0.45593999997E+02  0.45594000000E+02  0.51100000000E-03 0.  1.
         11   -1    0    0    0    0 -0.00000000000E+00 -0.00000000000E+00 -0.45593999997E+02  0.45594000000E+02  0.51100000000E-03 0. -1.
    9900012    2    1    2    0    0 -0.24464872109E+02  0.32196228930E+02  0.42471923994E+01  0.50528858741E+02  0.29999996630E+02 0.  0.
         12    1    1    2    0    0  0.24464872109E+02 -0.32196228930E+02 -0.42471923994E+01  0.40659141259E+02  0.00000000000E+00 0. -1.
         11    1    3    3    0    0 -0.38835191666E+01  0.17583810190E+02 -0.30351547641E+01  0.18261551594E+02  0.51100000000E-03 0. -1.
        -11    1    3    3    0    0 -0.53174031774E+01  0.12926293162E+02 -0.23012984912E+01  0.14165444097E+02  0.51100000000E-03 0.  1.
        -12    1    3    3    0    0 -0.15263949765E+02  0.16861255788E+01  0.95836456547E+01  0.18101863051E+02  0.00000000000E+00 0.  1.
</event>
<event>
 7    1  0.3383281E-011  0.5052887E+02  0.7816164E-02  0.1300439E+00
        -11   -1    0    0    0    0  0.00000000000E+00  0.00000000000E+00  0.45593999997E+02  0.45594000000E+02  0.51100000000E-03 0. -1.
         11   -1    0    0    0    0 -0.00000000000E+00 -0.00000000000E+00 -0.45593999997E+02  0.45594000000E+02  0.51100000000E-03 0.  1.
    9900012    2    1    2    0    0  0.31151956187E+02  0.11437239411E+02 -0.23492772217E+02  0.50528866142E+02  0.30000019126E+02 0.  0.
         12    1    1    2    0    0 -0.31151956187E+02 -0.11437239411E+02  0.23492772217E+02  0.40659133858E+02  0.00000000000E+00 0. -1.
         11    1    3    3    0    0  0.11151277159E+02  0.65215695017E+01 -0.18234448512E+01  0.13046332911E+02  0.51100000000E-03 0. -1.
        -11    1    3    3    0    0  0.24814566083E+02  0.19510447105E+01 -0.18379399854E+02  0.30941422149E+02  0.51100000000E-03 0.  1.
        -12    1    3    3    0    0 -0.48138870555E+01  0.29646251990E+01 -0.32899275116E+01  0.65411110818E+01  0.00000000000E+00 0.  1.
</event>
<event>
 7    1  0.3383281E-011  0.5052890E+02  0.7816164E-02  0.1300439E+00
        -11   -1    0    0    0    0  0.00000000000E+00  0.00000000000E+00  0.45593999997E+02  0.45594000000E+02  0.51100000000E-03 0.  1.
         11   -1    0    0    0    0 -0.00000000000E+00 -0.00000000000E+00 -0.45593999997E+02  0.45594000000E+02  0.51100000000E-03 0. -1.
    9900012    2    1    2    0    0  0.16297500813E+02  0.33249303441E+02  0.16793970487E+02  0.50528903149E+02  0.30000131610E+02 0.  0.
         12    1    1    2    0    0 -0.16297500813E+02 -0.33249303441E+02 -0.16793970487E+02  0.40659096851E+02  0.00000000000E+00 0. -1.
         11    1    3    3    0    0  0.11618387380E+02  0.81355986956E+01  0.19817032051E+01  0.14321383987E+02  0.51100000000E-03 0. -1.
        -11    1    3    3    0    0  0.85955295131E+01  0.19505473111E+02  0.16564956461E+01  0.21379676962E+02  0.51100000000E-03 0.  1.
        -12    1    3    3    0    0 -0.39164160800E+01  0.56082316341E+01  0.13155771636E+02  0.14827842200E+02  0.00000000000E+00 0.  1.
</event>
<event>
 7    1  0.3383281E-011  0.5052886E+02  0.7816164E-02  0.1300439E+00
        -11   -1    0    0    0    0  0.00000000000E+00  0.00000000000E+00  0.45593999997E+02  0.45594000000E+02  0.51100000000E-03 0.  1.
         11   -1    0    0    0    0 -0.00000000000E+00 -0.00000000000E+00 -0.45593999997E+02  0.45594000000E+02  0.51100000000E-03 0. -1.
    9900012    2    1    2    0    0  0.49627229469E+01 -0.39962318353E+02 -0.56169348746E+01  0.50528862471E+02  0.30000007967E+02 0.  0.
         12    1    1    2    0    0 -0.49627229469E+01  0.39962318353E+02  0.56169348746E+01  0.40659137529E+02  0.00000000000E+00 0. -1.
         11    1    3    3    0    0  0.44298758186E+01 -0.17849480660E+02  0.48081555624E+01  0.19009106233E+02  0.51100000000E-03 0. -1.
        -11    1    3    3    0    0  0.29525076838E+01 -0.17898779544E+02  0.19303593449E+01  0.18243078092E+02  0.51100000000E-03 0.  1.
         12    1    3    3    0    0 -0.24196605555E+01 -0.42140581488E+01 -0.12355449782E+02  0.13276678146E+02  0.00000000000E+00 0. -1.
</event>
<event>
 7    1  0.3383281E-011  0.5052892E+02  0.7816164E-02  0.1300439E+00
        -11   -1    0    0    0    0  0.00000000000E+00  0.00000000000E+00  0.45593999997E+02  0.45594000000E+02  0.51100000000E-03 0. -1.
         11   -1    0    0    0    0 -0.00000000000E+00 -0.00000000000E+00 -0.45593999997E+02  0.45594000000E+02  0.51100000000E-03 0.  1.
    9900012    2    1    2    0    0  0.52863795587E+00  0.27006077483E+02 -0.30390017567E+02  0.50528919257E+02  0.30000180574E+02 0.  0.
         12    1    1    2    0    0 -0.52863795587E+00 -0.27006077483E+02  0.30390017567E+02  0.40659080743E+02  0.00000000000E+00 0. -1.
         11    1    3    3    0    0  0.50827332525E+01  0.10493062730E+02 -0.93706852590E+00  0.11696864556E+02  0.51100000000E-03 0. -1.
        -11    1    3    3    0    0  0.20028489199E+01  0.17370341371E+02 -0.26105443906E+02  0.31420285883E+02  0.51100000000E-03 0.  1.
         12    1    3    3    0    0 -0.65569442165E+01 -0.85732661789E+00 -0.33475051351E+01  0.74117688184E+01  0.00000000000E+00 0. -1.
</event>
<event>
 7    1  0.3383281E-011  0.5052886E+02  0.7816164E-02  0.1300439E+00
        -11   -1    0    0    0    0  0.00000000000E+00  0.00000000000E+00  0.45593999997E+02  0.45594000000E+02  0.51100000000E-03 0. -1.
         11   -1    0    0    0    0 -0.00000000000E+00 -0.00000000000E+00 -0.45593999997E+02  0.45594000000E+02  0.51100000000E-03 0.  1.
    9900012    2    1    2    0    0 -0.35108040040E+02  0.14361270500E+02  0.14640531710E+02  0.50528859151E+02  0.29999997876E+02 0.  0.
         12    1    1    2    0    0  0.35108040040E+02 -0.14361270500E+02 -0.14640531710E+02  0.40659140849E+02  0.00000000000E+00 0. -1.
         11    1    3    3    0    0 -0.20063338190E+02  0.72917457601E+01  0.84670138866E+01  0.22965134878E+02  0.51100000000E-03 0. -1.
        -11    1    3    3    0    0 -0.13483869343E+02  0.11297046863E+02 -0.25211454217E+01  0.17770598605E+02  0.51100000000E-03 0.  1.
         12    1    3    3    0    0 -0.15608325068E+01 -0.42275221226E+01  0.86946632449E+01  0.97931256682E+01  0.00000000000E+00 0. -1.
</event>
<event>
 7    1  0.3383281E-011  0.5052884E+02  0.7816164E-02  0.1300439E+00
        -11   -1    0    0    0    0  0.00000000000E+00  0.00000000000E+00  0.45593999997E+02  0.45594000000E+02  0.51100000000E-03 0.  1.
         11   -1    0    0    0    0 -0.00000000000E+00 -0.00000000000E+00 -0.45593999997E+02  0.45594000000E+02  0.51100000000E-03 0. -1.
    9900012    2    1    2    0    0 -0.28731374806E+01 -0.35892626144E+02  0.18884702948E+02  0.50528836999E+02  0.29999930542E+02 0.  0.
         12    1    1    2    0    0  0.28731374806E+01  0.35892626144E+02 -0.18884702948E+02  0.40659163001E+02  0.00000000000E+00 0. -1.
         11    1    3    3    0    0 -0.61011718808E+01  0.22012244130E+00  0.72950204215E+01  0.95126271566E+01  0.51100000000E-03 0. -1.
        -11    1    3    3    0    0 -0.54383387384E+01 -0.21189959245E+02  0.43638012356E+01  0.22307681693E+02  0.51100000000E-03 0.  1.
        -12    1    3    3    0    0  0.86663731386E+01 -0.14922789341E+02  0.72258812908E+01  0.18708528150E+02  0.00000000000E+00 0.  1.
</event>
<event>
 7    1  0.3383281E-011  0.5052886E+02  0.7816164E-02  0.1300439E+00
        -11   -1    0    0    0    0  0.00000000000E+00  0.00000000000E+00  0.45593999997E+02  0.45594000000E+02  0.51100000000E-03 0.  1.
         11   -1    0    0    0    0 -0.00000000000E+00 -0.00000000000E+00 -0.45593999997E+02  0.45594000000E+02  0.51100000000E-03 0. -1.
    9900012    2    1    2    0    0 -0.19221348468E+01 -0.13434950145E+02  0.38327180661E+02  0.50528864923E+02  0.30000015420E+02 0.  0.
         12    1    1    2    0    0  0.19221348468E+01  0.13434950145E+02 -0.38327180661E+02  0.40659135077E+02  0.00000000000E+00 0. -1.
         11    1    3    3    0    0  0.16395535958E+01 -0.32234780049E+01 -0.57808028831E+00  0.36623931415E+01  0.51100000000E-03 0. -1.
        -11    1    3    3    0    0 -0.47667412878E+01 -0.34457532430E+01 -0.13451479697E+01  0.60336109618E+01  0.51100000000E-03 0.  1.
         12    1    3    3    0    0  0.12050528451E+01 -0.67657188972E+01  0.40250408919E+02  0.40832860820E+02  0.00000000000E+00 0. -1.
</event>
<event>
 7    1  0.3383281E-011  0.5052885E+02  0.7816164E-02  0.1300439E+00
        -11   -1    0    0    0    0  0.00000000000E+00  0.00000000000E+00  0.45593999997E+02  0.45594000000E+02  0.51100000000E-03 0.  1.
         11   -1    0    0    0    0 -0.00000000000E+00 -0.00000000000E+00 -0.45593999997E+02  0.45594000000E+02  0.51100000000E-03 0. -1.
    9900012    2    1    2    0    0  0.33919889373E+02 -0.35756655269E+01  0.22131920338E+02  0.50528853712E+02  0.29999981342E+02 0.  0.
         12    1    1    2    0    0 -0.33919889373E+02  0.35756655269E+01 -0.22131920338E+02  0.40659146288E+02  0.00000000000E+00 0. -1.
         11    1    3    3    0    0 -0.18654664835E+01  0.63455177623E+00  0.81204960549E+01  0.83561401136E+01  0.51100000000E-03 0. -1.
        -11    1    3    3    0    0  0.18606512596E+02  0.54703017905E+01  0.10787460982E+02  0.22192247010E+02  0.51100000000E-03 0.  1.
        -12    1    3    3    0    0  0.17178843261E+02 -0.96805190937E+01  0.32239633015E+01  0.19980466588E+02  0.00000000000E+00 0.  1.
</event>
<event>
 7    1  0.3383281E-011  0.5052886E+02  0.7816164E-02  0.1300439E+00
        -11   -1    0    0    0    0  0.00000000000E+00  0.00000000000E+00  0.45593999997E+02  0.45594000000E+02  0.51100000000E-03 0.  1.
         11   -1    0    0    0    0 -0.00000000000E+00 -0.00000000000E+00 -0.45593999997E+02  0.45594000000E+02  0.51100000000E-03 0. -1.
    9900012    2    1    2    0    0  0.21444228627E+02  0.29703010852E+02  0.17636372371E+02  0.50528862952E+02  0.30000009430E+02 0.  0.
         12    1    1    2    0    0 -0.21444228627E+02 -0.29703010852E+02 -0.17636372371E+02  0.40659137048E+02  0.00000000000E+00 0. -1.
         11    1    3    3    0    0  0.17245989920E+02  0.17113076236E+02  0.13461013596E+02  0.27775536608E+02  0.51100000000E-03 0. -1.
        -11    1    3    3    0    0  0.68831108120E+01  0.57544424858E+01  0.99599119298E+01  0.13404874810E+02  0.51100000000E-03 0.  1.
         12    1    3    3    0    0 -0.26848721050E+01  0.68354921302E+01 -0.57845531549E+01  0.93484515340E+01  0.00000000000E+00 0. -1.
</event>
<event>
 7    1  0.3923923E-011  0.5052886E+02  0.7816164E-02  0.1300439E+00
        -11   -1    0    0    0    0  0.00000000000E+00  0.00000000000E+00  0.45593999997E+02  0.45594000000E+02  0.51100000000E-03 0. -1.
         11   -1    0    0    0    0 -0.00000000000E+00 -0.00000000000E+00 -0.45593999997E+02  0.45594000000E+02  0.51100000000E-03 0.  1.
    9900012    2    1    2    0    0  0.53872288225E+01  0.39482046856E+02 -0.80815500430E+01  0.50528859460E+02  0.29999998814E+02 0.  0.
         12    1    1    2    0    0 -0.53872288225E+01 -0.39482046856E+02  0.80815500430E+01  0.40659140540E+02  0.00000000000E+00 0. -1.
         11    1    3    3    0    0  0.29996772670E+01 -0.27471662400E+01  0.16083452915E+00  0.40707313917E+01  0.51100000000E-03 0. -1.
        -11    1    3    3    0    0  0.92920709199E+01  0.30227607368E+02 -0.34728686679E+01  0.31813702177E+02  0.51100000000E-03 0.  1.
         12    1    3    3    0    0 -0.69045193644E+01  0.12001605728E+02 -0.47695159042E+01  0.14644425891E+02  0.00000000000E+00 0. -1.
</event>
<event>
 7    1  0.3383281E-011  0.5052886E+02  0.7816164E-02  0.1300439E+00
        -11   -1    0    0    0    0  0.00000000000E+00  0.00000000000E+00  0.45593999997E+02  0.45594000000E+02  0.51100000000E-03 0.  1.
         11   -1    0    0    0    0 -0.00000000000E+00 -0.00000000000E+00 -0.45593999997E+02  0.45594000000E+02  0.51100000000E-03 0. -1.
    9900012    2    1    2    0    0 -0.29146487186E+01  0.19746192651E+02  0.35422569211E+02  0.50528859443E+02  0.29999998762E+02 0.  0.
         12    1    1    2    0    0  0.29146487186E+01 -0.19746192651E+02 -0.35422569211E+02  0.40659140557E+02  0.00000000000E+00 0. -1.
         11    1    3    3    0    0  0.45180226554E+01  0.97391299362E+01  0.23236225984E+02  0.25596589204E+02  0.51100000000E-03 0. -1.
        -11    1    3    3    0    0  0.37072029233E+01  0.92018681063E+01  0.88003342873E+01  0.13261357924E+02  0.51100000000E-03 0.  1.
         12    1    3    3    0    0 -0.11139874297E+02  0.80519460831E+00  0.33860089397E+01  0.11670912315E+02  0.00000000000E+00 0. -1.
</event>
<event>
 7    1  0.3889404E-011  0.5052885E+02  0.7816164E-02  0.1300439E+00
        -11   -1    0    0    0    0  0.00000000000E+00  0.00000000000E+00  0.45593999997E+02  0.45594000000E+02  0.51100000000E-03 0. -1.
         11   -1    0    0    0    0 -0.00000000000E+00 -0.00000000000E+00 -0.45593999997E+02  0.45594000000E+02  0.51100000000E-03 0.  1.
    9900012    2    1    2    0    0  0.34238500453E+01  0.27804998091E+02 -0.29467372723E+02  0.50528846994E+02  0.29999960923E+02 0.  0.
         12    1    1    2    0    0 -0.34238500453E+01 -0.27804998091E+02  0.29467372723E+02  0.40659153006E+02  0.00000000000E+00 0. -1.
         11    1    3    3    0    0 -0.37697577076E+01  0.66107054735E+01 -0.13453330387E+02  0.15456539030E+02  0.51100000000E-03 0. -1.
        -11    1    3    3    0    0  0.37784687169E+00  0.15218380411E+02 -0.20029682850E+02  0.25158101398E+02  0.51100000000E-03 0.  1.
         12    1    3    3    0    0  0.68157608811E+01  0.59759122065E+01  0.40156405144E+01  0.99142065658E+01  0.00000000000E+00 0. -1.
</event>
<event>
 7    1  0.3596438E-011  0.5052887E+02  0.7816164E-02  0.1300439E+00
        -11   -1    0    0    0    0  0.00000000000E+00  0.00000000000E+00  0.45593999997E+02  0.45594000000E+02  0.51100000000E-03 0. -1.
         11   -1    0    0    0    0 -0.00000000000E+00 -0.00000000000E+00 -0.45593999997E+02  0.45594000000E+02  0.51100000000E-03 0.  1.
    9900012    2    1    2    0    0 -0.31318727776E+01 -0.88579431741E+00 -0.40528650032E+02  0.50528871479E+02  0.30000035347E+02 0.  0.
         12    1    1    2    0    0  0.31318727776E+01  0.88579431741E+00  0.40528650032E+02  0.40659128521E+02  0.00000000000E+00 0. -1.
         11    1    3    3    0    0 -0.30268817947E+01  0.27867769458E+01 -0.21503560655E+02  0.21893635153E+02  0.51100000000E-03 0. -1.
        -11    1    3    3    0    0  0.97071559071E+00  0.76416693929E+01 -0.14467072316E+02  0.16390045196E+02  0.51100000000E-03 0.  1.
         12    1    3    3    0    0 -0.10757065737E+01 -0.11314240656E+02 -0.45580170613E+01  0.12245191129E+02  0.00000000000E+00 0. -1.
</event>
<event>
 7    1  0.3383281E-011  0.5052886E+02  0.7816164E-02  0.1300439E+00
        -11   -1    0    0    0    0  0.00000000000E+00  0.00000000000E+00  0.45593999997E+02  0.45594000000E+02  0.51100000000E-03 0.  1.
         11   -1    0    0    0    0 -0.00000000000E+00 -0.00000000000E+00 -0.45593999997E+02  0.45594000000E+02  0.51100000000E-03 0. -1.
    9900012    2    1    2    0    0 -0.40879980123E+01 -0.10653806868E+02  0.39025000035E+02  0.50528856425E+02  0.29999989590E+02 0.  0.
         12    1    1    2    0    0  0.40879980123E+01  0.10653806868E+02 -0.39025000035E+02  0.40659143575E+02  0.00000000000E+00 0. -1.
         11    1    3    3    0    0  0.10486983062E+01 -0.10238301248E+02  0.19723752205E+01  0.10479162411E+02  0.51100000000E-03 0. -1.
        -11    1    3    3    0    0 -0.18121733903E+01 -0.62375028720E+01  0.28236430915E+02  0.28973892481E+02  0.51100000000E-03 0.  1.
        -12    1    3    3    0    0 -0.33245229282E+01  0.58219972518E+01  0.88161938999E+01  0.11075801532E+02  0.00000000000E+00 0.  1.
</event>
<event>
 7    1  0.3383281E-011  0.5052885E+02  0.7816164E-02  0.1300439E+00
        -11   -1    0    0    0    0  0.00000000000E+00  0.00000000000E+00  0.45593999997E+02  0.45594000000E+02  0.51100000000E-03 0. -1.
         11   -1    0    0    0    0 -0.00000000000E+00 -0.00000000000E+00 -0.45593999997E+02  0.45594000000E+02  0.51100000000E-03 0.  1.
    9900012    2    1    2    0    0  0.34880492646E+02  0.16344597441E+02 -0.13014296848E+02  0.50528849059E+02  0.29999967201E+02 0.  0.
         12    1    1    2    0    0 -0.34880492646E+02 -0.16344597441E+02  0.13014296848E+02  0.40659150941E+02  0.00000000000E+00 0. -1.
         11    1    3    3    0    0  0.26512387117E+02  0.29275050700E+01  0.53648861288E+00  0.26678920084E+02  0.51100000000E-03 0.  1.
        -11    1    3    3    0    0  0.32582375321E+01 -0.11849211301E+01 -0.52552515986E+01  0.62958573305E+01  0.51100000000E-03 0. -1.
         12    1    3    3    0    0  0.51098679972E+01  0.14602013502E+02 -0.82955338626E+01  0.17554071645E+02  0.00000000000E+00 0. -1.
</event>
<event>
 7    1  0.3383281E-011  0.5052886E+02  0.7816164E-02  0.1300439E+00
        -11   -1    0    0    0    0  0.00000000000E+00  0.00000000000E+00  0.45593999997E+02  0.45594000000E+02  0.51100000000E-03 0.  1.
         11   -1    0    0    0    0 -0.00000000000E+00 -0.00000000000E+00 -0.45593999997E+02  0.45594000000E+02  0.51100000000E-03 0. -1.
    9900012    2    1    2    0    0 -0.16406456617E+02  0.21119204085E+01  0.37142071071E+02  0.50528862405E+02  0.30000007766E+02 0.  0.
         12    1    1    2    0    0  0.16406456617E+02 -0.21119204085E+01 -0.37142071071E+02  0.40659137595E+02  0.00000000000E+00 0. -1.
         11    1    3    3    0    0 -0.37110751582E+01  0.49936939928E+01  0.20302014554E+02  0.21233955208E+02  0.51100000000E-03 0. -1.
        -11    1    3    3    0    0 -0.14570565321E+02 -0.39890336866E+01  0.20240744661E+02  0.25256712142E+02  0.51100000000E-03 0.  1.
         12    1    3    3    0    0  0.18751838624E+01  0.11072601023E+01 -0.34006881443E+01  0.40381950556E+01  0.00000000000E+00 0. -1.
</event>
<event>
 7    1  0.3383281E-011  0.5052887E+02  0.7816164E-02  0.1300439E+00
        -11   -1    0    0    0    0  0.00000000000E+00  0.00000000000E+00  0.45593999997E+02  0.45594000000E+02  0.51100000000E-03 0.  1.
         11   -1    0    0    0    0 -0.00000000000E+00 -0.00000000000E+00 -0.45593999997E+02  0.45594000000E+02  0.51100000000E-03 0. -1.
    9900012    2    1    2    0    0  0.41662826731E+01  0.11411655824E+02  0.38801819245E+02  0.50528868471E+02  0.30000026206E+02 0.  0.
         12    1    1    2    0    0 -0.41662826731E+01 -0.11411655824E+02 -0.38801819245E+02  0.40659131529E+02  0.00000000000E+00 0. -1.
         11    1    3    3    0    0 -0.26242160881E+01  0.58781011177E+01  0.75087372561E+01  0.98903851427E+01  0.51100000000E-03 0.  1.
        -11    1    3    3    0    0  0.40085237773E+01 -0.42069870739E+01  0.29845035613E+02  0.30405479015E+02  0.51100000000E-03 0. -1.
         12    1    3    3    0    0  0.27819749839E+01  0.97405417800E+01  0.14480463753E+01  0.10233004314E+02  0.00000000000E+00 0. -1.
</event>
<event>
 7    1  0.3383281E-011  0.5052885E+02  0.7816164E-02  0.1300439E+00
        -11   -1    0    0    0    0  0.00000000000E+00  0.00000000000E+00  0.45593999997E+02  0.45594000000E+02  0.51100000000E-03 0.  1.
         11   -1    0    0    0    0 -0.00000000000E+00 -0.00000000000E+00 -0.45593999997E+02  0.45594000000E+02  0.51100000000E-03 0. -1.
    9900012    2    1    2    0    0 -0.28170301383E+02  0.10424563735E+01  0.29300401270E+02  0.50528854536E+02  0.29999983848E+02 0.  0.
         12    1    1    2    0    0  0.28170301383E+02 -0.10424563735E+01 -0.29300401270E+02  0.40659145464E+02  0.00000000000E+00 0. -1.
         11    1    3    3    0    0 -0.73513266477E+00 -0.54998048421E+00  0.30286364413E+01  0.31647334046E+01  0.51100000000E-03 0. -1.
        -11    1    3    3    0    0 -0.83585086824E-01  0.35735421818E+01  0.18526385399E+02  0.18868072143E+02  0.51100000000E-03 0.  1.
         12    1    3    3    0    0 -0.27351583631E+02 -0.19811053240E+01  0.77453794299E+01  0.28496048989E+02  0.00000000000E+00 0. -1.
</event>
<event>
 7    1  0.3383281E-011  0.5052887E+02  0.7816164E-02  0.1300439E+00
        -11   -1    0    0    0    0  0.00000000000E+00  0.00000000000E+00  0.45593999997E+02  0.45594000000E+02  0.51100000000E-03 0. -1.
         11   -1    0    0    0    0 -0.00000000000E+00 -0.00000000000E+00 -0.45593999997E+02  0.45594000000E+02  0.51100000000E-03 0.  1.
    9900012    2    1    2    0    0  0.10667320784E+02  0.32417633184E+02 -0.22101361325E+02  0.50528870073E+02  0.30000031074E+02 0.  0.
         12    1    1    2    0    0 -0.10667320784E+02 -0.32417633184E+02  0.22101361325E+02  0.40659129927E+02  0.00000000000E+00 0. -1.
         11    1    3    3    0    0 -0.34538657726E+01  0.23322187395E+01 -0.10115038403E+01  0.42885397636E+01  0.51100000000E-03 0. -1.
        -11    1    3    3    0    0  0.41327519127E+01  0.27210291130E+02 -0.22758622318E+02  0.35713225447E+02  0.51100000000E-03 0.  1.
        -12    1    3    3    0    0  0.99884346441E+01  0.28751233147E+01  0.16687648332E+01  0.10527104862E+02  0.00000000000E+00 0.  1.
</event>
<event>
 7    1  0.3383281E-011  0.5052886E+02  0.7816164E-02  0.1300439E+00
        -11   -1    0    0    0    0  0.00000000000E+00  0.00000000000E+00  0.45593999997E+02  0.45594000000E+02  0.51100000000E-03 0.  1.
         11   -1    0    0    0    0 -0.00000000000E+00 -0.00000000000E+00 -0.45593999997E+02  0.45594000000E+02  0.51100000000E-03 0. -1.
    9900012    2    1    2    0    0 -0.36256502257E+02 -0.18185589421E+01  0.18311878780E+02  0.50528855678E+02  0.29999987319E+02 0.  0.
         12    1    1    2    0    0  0.36256502257E+02  0.18185589421E+01 -0.18311878780E+02  0.40659144322E+02  0.00000000000E+00 0. -1.
         11    1    3    3    0    0 -0.58882670243E+00  0.18679372314E+01  0.55641621675E+01  0.58987971039E+01  0.51100000000E-03 0. -1.
        -11    1    3    3    0    0 -0.10787871036E+02  0.36009174673E+01 -0.57871900702E+01  0.12760734198E+02  0.51100000000E-03 0.  1.
        -12    1    3    3    0    0 -0.24879804519E+02 -0.72874136408E+01  0.18534906683E+02  0.31869324376E+02  0.00000000000E+00 0.  1.
</event>
<event>
 7    1  0.3383281E-011  0.5052886E+02  0.7816164E-02  0.1300439E+00
        -11   -1    0    0    0    0  0.00000000000E+00  0.00000000000E+00  0.45593999997E+02  0.45594000000E+02  0.51100000000E-03 0.  1.
         11   -1    0    0    0    0 -0.00000000000E+00 -0.00000000000E+00 -0.45593999997E+02  0.45594000000E+02  0.51100000000E-03 0. -1.
    9900012    2    1    2    0    0 -0.15488079436E+02 -0.24640540780E+02  0.28392408276E+02  0.50528859548E+02  0.29999999083E+02 0.  0.
         12    1    1    2    0    0  0.15488079436E+02  0.24640540780E+02 -0.28392408276E+02  0.40659140452E+02  0.00000000000E+00 0. -1.
         11    1    3    3    0    0 -0.35210674714E+01  0.17723252361E+01  0.97166857647E+01  0.10485849293E+02  0.51100000000E-03 0. -1.
        -11    1    3    3    0    0 -0.49696638018E+01 -0.45742479260E+00  0.11011543809E+02  0.12089701943E+02  0.51100000000E-03 0.  1.
         12    1    3    3    0    0 -0.69973481628E+01 -0.25955441224E+02  0.76641787024E+01  0.27953308312E+02  0.00000000000E+00 0. -1.
</event>
<event>
 7    1  0.3383281E-011  0.5052887E+02  0.7816164E-02  0.1300439E+00
        -11   -1    0    0    0    0  0.00000000000E+00  0.00000000000E+00  0.45593999997E+02  0.45594000000E+02  0.51100000000E-03 0.  1.
         11   -1    0    0    0    0 -0.00000000000E+00 -0.00000000000E+00 -0.45593999997E+02  0.45594000000E+02  0.51100000000E-03 0. -1.
    9900012    2    1    2    0    0 -0.75238605144E+01 -0.22436735918E+02  0.33062805570E+02  0.50528871777E+02  0.30000036254E+02 0.  0.
         12    1    1    2    0    0  0.75238605144E+01  0.22436735918E+02 -0.33062805570E+02  0.40659128223E+02  0.00000000000E+00 0. -1.
         11    1    3    3    0    0 -0.63992657038E+01  0.15783342740E+00  0.50049173604E+00  0.64207480232E+01  0.51100000000E-03 0. -1.
        -11    1    3    3    0    0  0.30706934347E-01 -0.81889564372E+01 -0.31460948806E+00  0.81950552065E+01  0.51100000000E-03 0.  1.
         12    1    3    3    0    0 -0.11553017450E+01 -0.14405612908E+02  0.32876923322E+02  0.35913068547E+02  0.00000000000E+00 0. -1.
</event>
<event>
 7    1  0.3383281E-011  0.5052886E+02  0.7816164E-02  0.1300439E+00
        -11   -1    0    0    0    0  0.00000000000E+00  0.00000000000E+00  0.45593999997E+02  0.45594000000E+02  0.51100000000E-03 0. -1.
         11   -1    0    0    0    0 -0.00000000000E+00 -0.00000000000E+00 -0.45593999997E+02  0.45594000000E+02  0.51100000000E-03 0.  1.
    9900012    2    1    2    0    0 -0.20319607110E+02 -0.29575617091E+02  0.19119689046E+02  0.50528855043E+02  0.29999985388E+02 0.  0.
         12    1    1    2    0    0  0.20319607110E+02  0.29575617091E+02 -0.19119689046E+02  0.40659144957E+02  0.00000000000E+00 0. -1.
         11    1    3    3    0    0  0.26906991673E+01 -0.17424885444E+02  0.42543135849E+01  0.18137411036E+02  0.51100000000E-03 0. -1.
        -11    1    3    3    0    0 -0.37997874510E+01  0.24856764200E+01  0.14603369025E+01  0.47696494701E+01  0.51100000000E-03 0.  1.
        -12    1    3    3    0    0 -0.19210518826E+02 -0.14636408068E+02  0.13405038558E+02  0.27621794537E+02  0.00000000000E+00 0.  1.
</event>
<event>
 7    1  0.3383281E-011  0.5052886E+02  0.7816164E-02  0.1300439E+00
        -11   -1    0    0    0    0  0.00000000000E+00  0.00000000000E+00  0.45593999997E+02  0.45594000000E+02  0.51100000000E-03 0.  1.
         11   -1    0    0    0    0 -0.00000000000E+00 -0.00000000000E+00 -0.45593999997E+02  0.45594000000E+02  0.51100000000E-03 0. -1.
    9900012    2    1    2    0    0 -0.12738318266E+02  0.30969430449E+02  0.23060682812E+02  0.50528862450E+02  0.30000007903E+02 0.  0.
         12    1    1    2    0    0  0.12738318266E+02 -0.30969430449E+02 -0.23060682812E+02  0.40659137550E+02  0.00000000000E+00 0. -1.
         11    1    3    3    0    0 -0.48592175973E+01  0.90484377933E+00 -0.20403608993E+01  0.53473180926E+01  0.51100000000E-03 0. -1.
        -11    1    3    3    0    0 -0.71401987907E+01  0.14809204578E+02  0.77585184289E+00  0.16458946665E+02  0.51100000000E-03 0.  1.
        -12    1    3    3    0    0 -0.73890187758E+00  0.15255382092E+02  0.24325191868E+02  0.28722597692E+02  0.00000000000E+00 0.  1.
</event>
<event>
 7    1  0.3383281E-011  0.5052886E+02  0.7816164E-02  0.1300439E+00
        -11   -1    0    0    0    0  0.00000000000E+00  0.00000000000E+00  0.45593999997E+02  0.45594000000E+02  0.51100000000E-03 0. -1.
         11   -1    0    0    0    0 -0.00000000000E+00 -0.00000000000E+00 -0.45593999997E+02  0.45594000000E+02  0.51100000000E-03 0.  1.
    9900012    2    1    2    0    0  0.29910200110E+01  0.36406584660E+02 -0.17854407532E+02  0.50528862335E+02  0.30000007555E+02 0.  0.
         12    1    1    2    0    0 -0.29910200110E+01 -0.36406584660E+02  0.17854407532E+02  0.40659137665E+02  0.00000000000E+00 0. -1.
         11    1    3    3    0    0  0.90898913666E+01  0.15207067905E+02 -0.14547117031E+02  0.22923779215E+02  0.51100000000E-03 0. -1.
        -11    1    3    3    0    0 -0.30617183666E+01  0.21335209152E-01 -0.52966620464E+01  0.61179411278E+01  0.51100000000E-03 0.  1.
        -12    1    3    3    0    0 -0.30371529890E+01  0.21178181545E+02  0.19893715457E+01  0.21487141992E+02  0.00000000000E+00 0.  1.
</event>
<event>
 7    1  0.3383281E-011  0.5052887E+02  0.7816164E-02  0.1300439E+00
        -11   -1    0    0    0    0  0.00000000000E+00  0.00000000000E+00  0.45593999997E+02  0.45594000000E+02  0.51100000000E-03 0. -1.
         11   -1    0    0    0    0 -0.00000000000E+00 -0.00000000000E+00 -0.45593999997E+02  0.45594000000E+02  0.51100000000E-03 0.  1.
    9900012    2    1    2    0    0  0.33855082387E+02 -0.12321580998E+02 -0.18846145637E+02  0.50528866130E+02  0.30000019088E+02 0.  0.
         12    1    1    2    0    0 -0.33855082387E+02  0.12321580998E+02  0.18846145637E+02  0.40659133870E+02  0.00000000000E+00 0. -1.
         11    1    3    3    0    0 -0.22227302980E+01 -0.54028163994E+01  0.67080480688E+00  0.58805556177E+01  0.51100000000E-03 0. -1.
        -11    1    3    3    0    0  0.53256812149E+01  0.37564876705E+01 -0.75310538778E+01  0.99594604670E+01  0.51100000000E-03 0.  1.
        -12    1    3    3    0    0  0.30752131470E+02 -0.10675252269E+02 -0.11985896566E+02  0.34688850045E+02  0.00000000000E+00 0.  1.
</event>
<event>
 7    1  0.3383281E-011  0.5052886E+02  0.7816164E-02  0.1300439E+00
        -11   -1    0    0    0    0  0.00000000000E+00  0.00000000000E+00  0.45593999997E+02  0.45594000000E+02  0.51100000000E-03 0. -1.
         11   -1    0    0    0    0 -0.00000000000E+00 -0.00000000000E+00 -0.45593999997E+02  0.45594000000E+02  0.51100000000E-03 0.  1.
    9900012    2    1    2    0    0 -0.38404399624E+02 -0.71667572635E+01 -0.11265222793E+02  0.50528861239E+02  0.30000004223E+02 0.  0.
         12    1    1    2    0    0  0.38404399624E+02  0.71667572635E+01  0.11265222793E+02  0.40659138761E+02  0.00000000000E+00 0. -1.
         11    1    3    3    0    0 -0.20099508408E+02 -0.45980242243E+01  0.77009939811E+01  0.22009938064E+02  0.51100000000E-03 0. -1.
        -11    1    3    3    0    0 -0.68713695561E+01 -0.12153085974E+01 -0.81673661694E+00  0.70256496872E+01  0.51100000000E-03 0.  1.
        -12    1    3    3    0    0 -0.11433521660E+02 -0.13534244418E+01 -0.18149480158E+02  0.21493273489E+02  0.00000000000E+00 0.  1.
</event>
<event>
 7    1  0.3383281E-011  0.5052886E+02  0.7816164E-02  0.1300439E+00
        -11   -1    0    0    0    0  0.00000000000E+00  0.00000000000E+00  0.45593999997E+02  0.45594000000E+02  0.51100000000E-03 0.  1.
         11   -1    0    0    0    0 -0.00000000000E+00 -0.00000000000E+00 -0.45593999997E+02  0.45594000000E+02  0.51100000000E-03 0. -1.
    9900012    2    1    2    0    0  0.17174987173E+02  0.21233845769E+02  0.30121575233E+02  0.50528859760E+02  0.29999999726E+02 0.  0.
         12    1    1    2    0    0 -0.17174987173E+02 -0.21233845769E+02 -0.30121575233E+02  0.40659140240E+02  0.00000000000E+00 0. -1.
         11    1    3    3    0    0  0.47458805452E+01  0.14394927431E+02  0.22552421443E+02  0.27172578661E+02  0.51100000000E-03 0. -1.
        -11    1    3    3    0    0  0.14480523628E+02  0.10015055030E+02  0.83647492859E+01  0.19492458098E+02  0.51100000000E-03 0.  1.
         12    1    3    3    0    0 -0.20514170009E+01 -0.31761366913E+01 -0.79559549541E+00  0.38638230014E+01  0.00000000000E+00 0. -1.
</event>
<event>
 7    1  0.3383281E-011  0.5052886E+02  0.7816164E-02  0.1300439E+00
        -11   -1    0    0    0    0  0.00000000000E+00  0.00000000000E+00  0.45593999997E+02  0.45594000000E+02  0.51100000000E-03 0. -1.
         11   -1    0    0    0    0 -0.00000000000E+00 -0.00000000000E+00 -0.45593999997E+02  0.45594000000E+02  0.51100000000E-03 0.  1.
    9900012    2    1    2    0    0  0.13184881406E+02 -0.38306585095E+02 -0.34540409824E+01  0.50528856398E+02  0.29999989508E+02 0.  0.
         12    1    1    2    0    0 -0.13184881406E+02  0.38306585095E+02  0.34540409824E+01  0.40659143602E+02  0.00000000000E+00 0. -1.
         11    1    3    3    0    0  0.73792069807E+01 -0.11972964469E+02  0.22885405949E+01  0.14249280408E+02  0.51100000000E-03 0. -1.
        -11    1    3    3    0    0  0.11409657142E+02 -0.25462906242E+02  0.41882066947E+00  0.27905470457E+02  0.51100000000E-03 0.  1.
         12    1    3    3    0    0 -0.56039827168E+01 -0.87071438371E+00 -0.61614022468E+01  0.83741055328E+01  0.00000000000E+00 0. -1.
</event>
<event>
 7    1  0.3383281E-011  0.5052886E+02  0.7816164E-02  0.1300439E+00
        -11   -1    0    0    0    0  0.00000000000E+00  0.00000000000E+00  0.45593999997E+02  0.45594000000E+02  0.51100000000E-03 0.  1.
         11   -1    0    0    0    0 -0.00000000000E+00 -0.00000000000E+00 -0.45593999997E+02  0.45594000000E+02  0.51100000000E-03 0. -1.
    9900012    2    1    2    0    0 -0.24227787617E+02 -0.74454737304E+01  0.31792216845E+02  0.50528858054E+02  0.29999994541E+02 0.  0.
         12    1    1    2    0    0  0.24227787617E+02  0.74454737304E+01 -0.31792216845E+02  0.40659141946E+02  0.00000000000E+00 0. -1.
         11    1    3    3    0    0 -0.46072837770E+00 -0.50956956441E+01  0.41951039365E+01  0.66164402842E+01  0.51100000000E-03 0.  1.
        -11    1    3    3    0    0 -0.12426297298E+01  0.28778544054E+00 -0.44632311722E+01  0.46419157535E+01  0.51100000000E-03 0. -1.
        -12    1    3    3    0    0 -0.22524429509E+02 -0.26375635268E+01  0.32060344080E+02  0.39270502016E+02  0.00000000000E+00 0.  1.
</event>
<event>
 7    1  0.3383281E-011  0.5052886E+02  0.7816164E-02  0.1300439E+00
        -11   -1    0    0    0    0  0.00000000000E+00  0.00000000000E+00  0.45593999997E+02  0.45594000000E+02  0.51100000000E-03 0. -1.
         11   -1    0    0    0    0 -0.00000000000E+00 -0.00000000000E+00 -0.45593999997E+02  0.45594000000E+02  0.51100000000E-03 0.  1.
    9900012    2    1    2    0    0 -0.29258273554E+02 -0.14708410535E+02  0.24099409384E+02  0.50528862718E+02  0.30000008719E+02 0.  0.
         12    1    1    2    0    0  0.29258273554E+02  0.14708410535E+02 -0.24099409384E+02  0.40659137282E+02  0.00000000000E+00 0. -1.
         11    1    3    3    0    0 -0.92313759170E+01 -0.27466658344E+01  0.10048758036E+02  0.13919052153E+02  0.51100000000E-03 0. -1.
        -11    1    3    3    0    0 -0.12993579645E+02 -0.16458446468E+02  0.17755455685E+02  0.27476713394E+02  0.51100000000E-03 0.  1.
        -12    1    3    3    0    0 -0.70333179917E+01  0.44967017672E+01 -0.37048043361E+01  0.91330971704E+01  0.00000000000E+00 0.  1.
</event>
<event>
 7    1  0.3383281E-011  0.5052886E+02  0.7816164E-02  0.1300439E+00
        -11   -1    0    0    0    0  0.00000000000E+00  0.00000000000E+00  0.45593999997E+02  0.45594000000E+02  0.51100000000E-03 0. -1.
         11   -1    0    0    0    0 -0.00000000000E+00 -0.00000000000E+00 -0.45593999997E+02  0.45594000000E+02  0.51100000000E-03 0.  1.
    9900012    2    1    2    0    0 -0.29984098478E+02  0.25571453475E+02 -0.10011006811E+02  0.50528860170E+02  0.30000000973E+02 0.  0.
         12    1    1    2    0    0  0.29984098478E+02 -0.25571453475E+02  0.10011006811E+02  0.40659139830E+02  0.00000000000E+00 0. -1.
         11    1    3    3    0    0 -0.79082900254E+01 -0.61879918920E+01 -0.17580424590E+01  0.10194263501E+02  0.51100000000E-03 0. -1.
        -11    1    3    3    0    0 -0.47459177303E+01  0.35994635316E+01 -0.35565499121E+01  0.69375010167E+01  0.51100000000E-03 0.  1.
         12    1    3    3    0    0 -0.17329890722E+02  0.28159981836E+02 -0.46964144397E+01  0.33397095652E+02  0.00000000000E+00 0. -1.
</event>
<event>
 7    1  0.3383281E-011  0.5052887E+02  0.7816164E-02  0.1300439E+00
        -11   -1    0    0    0    0  0.00000000000E+00  0.00000000000E+00  0.45593999997E+02  0.45594000000E+02  0.51100000000E-03 0.  1.
         11   -1    0    0    0    0 -0.00000000000E+00 -0.00000000000E+00 -0.45593999997E+02  0.45594000000E+02  0.51100000000E-03 0. -1.
    9900012    2    1    2    0    0 -0.58942878694E-02 -0.21269184861E+02  0.34652368277E+02  0.50528869579E+02  0.30000029573E+02 0.  0.
         12    1    1    2    0    0  0.58942878694E-02  0.21269184861E+02 -0.34652368277E+02  0.40659130421E+02  0.00000000000E+00 0. -1.
         11    1    3    3    0    0  0.23939542934E+01 -0.74628069329E+00 -0.21863303603E+00  0.25170921115E+01  0.51100000000E-03 0. -1.
        -11    1    3    3    0    0  0.69418192819E+01 -0.84763513286E+01  0.11639159699E+01  0.11017807742E+02  0.51100000000E-03 0.  1.
        -12    1    3    3    0    0 -0.93416678632E+01 -0.12046552839E+02  0.33707085343E+02  0.36993969726E+02  0.00000000000E+00 0.  1.
</event>
<event>
 7    1  0.3383281E-011  0.5052887E+02  0.7816164E-02  0.1300439E+00
        -11   -1    0    0    0    0  0.00000000000E+00  0.00000000000E+00  0.45593999997E+02  0.45594000000E+02  0.51100000000E-03 0.  1.
         11   -1    0    0    0    0 -0.00000000000E+00 -0.00000000000E+00 -0.45593999997E+02  0.45594000000E+02  0.51100000000E-03 0. -1.
    9900012    2    1    2    0    0  0.30407856013E+02  0.12737534453E+02  0.23796682722E+02  0.50528873106E+02  0.30000040292E+02 0.  0.
         12    1    1    2    0    0 -0.30407856013E+02 -0.12737534453E+02 -0.23796682722E+02  0.40659126894E+02  0.00000000000E+00 0. -1.
         11    1    3    3    0    0  0.22548654107E+00  0.29525839022E+01 -0.51253381217E+01  0.59192640592E+01  0.51100000000E-03 0.  1.
        -11    1    3    3    0    0  0.34587916268E+01 -0.26735302210E+01  0.26102287335E+01  0.50915908774E+01  0.51100000000E-03 0. -1.
        -12    1    3    3    0    0  0.26723577845E+02  0.12458480772E+02  0.26311792110E+02  0.39518018169E+02  0.00000000000E+00 0.  1.
</event>
<event>
 7    1  0.3383281E-011  0.5052884E+02  0.7816164E-02  0.1300439E+00
        -11   -1    0    0    0    0  0.00000000000E+00  0.00000000000E+00  0.45593999997E+02  0.45594000000E+02  0.51100000000E-03 0. -1.
         11   -1    0    0    0    0 -0.00000000000E+00 -0.00000000000E+00 -0.45593999997E+02  0.45594000000E+02  0.51100000000E-03 0.  1.
    9900012    2    1    2    0    0 -0.20428257117E+02 -0.24393325921E+02 -0.25314414812E+02  0.50528835773E+02  0.29999926816E+02 0.  0.
         12    1    1    2    0    0  0.20428257117E+02  0.24393325921E+02  0.25314414812E+02  0.40659164227E+02  0.00000000000E+00 0. -1.
         11    1    3    3    0    0  0.93035266893E-01 -0.14514024592E+02 -0.10158102806E+02  0.17715886043E+02  0.51100000000E-03 0. -1.
        -11    1    3    3    0    0 -0.91877732716E+01 -0.14025266625E+02 -0.65978218338E+01  0.18018172349E+02  0.51100000000E-03 0.  1.
        -12    1    3    3    0    0 -0.11333519112E+02  0.41459652959E+01 -0.85584901728E+01  0.14794777381E+02  0.00000000000E+00 0.  1.
</event>
<event>
 7    1  0.3383281E-011  0.5052888E+02  0.7816164E-02  0.1300439E+00
        -11   -1    0    0    0    0  0.00000000000E+00  0.00000000000E+00  0.45593999997E+02  0.45594000000E+02  0.51100000000E-03 0. -1.
         11   -1    0    0    0    0 -0.00000000000E+00 -0.00000000000E+00 -0.45593999997E+02  0.45594000000E+02  0.51100000000E-03 0.  1.
    9900012    2    1    2    0    0 -0.12986787669E+02  0.23025382671E+01 -0.38460438909E+02  0.50528884202E+02  0.30000074019E+02 0.  0.
         12    1    1    2    0    0  0.12986787669E+02 -0.23025382671E+01  0.38460438909E+02  0.40659115798E+02  0.00000000000E+00 0. -1.
         11    1    3    3    0    0 -0.15100049404E+01  0.34178807241E+01 -0.24101853490E+01  0.44464612044E+01  0.51100000000E-03 0. -1.
        -11    1    3    3    0    0 -0.16982398556E+02  0.74277218925E+01 -0.23720119137E+02  0.30103437767E+02  0.51100000000E-03 0.  1.
         12    1    3    3    0    0  0.55056158272E+01 -0.85430643495E+01 -0.12330134423E+02  0.15978985231E+02  0.00000000000E+00 0. -1.
</event>
<event>
 7    1  0.3383281E-011  0.5052886E+02  0.7816164E-02  0.1300439E+00
        -11   -1    0    0    0    0  0.00000000000E+00  0.00000000000E+00  0.45593999997E+02  0.45594000000E+02  0.51100000000E-03 0.  1.
         11   -1    0    0    0    0 -0.00000000000E+00 -0.00000000000E+00 -0.45593999997E+02  0.45594000000E+02  0.51100000000E-03 0. -1.
    9900012    2    1    2    0    0 -0.57903782127E+01  0.22421661896E+02  0.33420150567E+02  0.50528857536E+02  0.29999992965E+02 0.  0.
         12    1    1    2    0    0  0.57903782127E+01 -0.22421661896E+02 -0.33420150567E+02  0.40659142464E+02  0.00000000000E+00 0. -1.
         11    1    3    3    0    0 -0.21871750018E+01  0.10133923366E+02  0.88927700613E+01  0.13658751659E+02  0.51100000000E-03 0.  1.
        -11    1    3    3    0    0 -0.10034770534E+02  0.15203481262E+02  0.10153141015E+02  0.20854945095E+02  0.51100000000E-03 0. -1.
         12    1    3    3    0    0  0.64315673235E+01 -0.29157427319E+01  0.14374239491E+02  0.16015160782E+02  0.00000000000E+00 0. -1.
</event>
<event>
 7    1  0.3385339E-011  0.5052886E+02  0.7816164E-02  0.1300439E+00
        -11   -1    0    0    0    0  0.00000000000E+00  0.00000000000E+00  0.45593999997E+02  0.45594000000E+02  0.51100000000E-03 0.  1.
         11   -1    0    0    0    0 -0.00000000000E+00 -0.00000000000E+00 -0.45593999997E+02  0.45594000000E+02  0.51100000000E-03 0. -1.
    9900012    2    1    2    0    0  0.17081023330E+02 -0.34265318161E+02  0.13685464539E+02  0.50528864172E+02  0.30000013137E+02 0.  0.
         12    1    1    2    0    0 -0.17081023330E+02  0.34265318161E+02 -0.13685464539E+02  0.40659135828E+02  0.00000000000E+00 0. -1.
         11    1    3    3    0    0  0.29546583491E+01 -0.12189916975E+02  0.15585238124E+02  0.20005592455E+02  0.51100000000E-03 0. -1.
        -11    1    3    3    0    0  0.14116781709E+02 -0.10055557432E+02  0.29141653978E+01  0.17575270163E+02  0.51100000000E-03 0.  1.
         12    1    3    3    0    0  0.95832717283E-02 -0.12019843754E+02 -0.48139389834E+01  0.12948001554E+02  0.00000000000E+00 0. -1.
</event>
<event>
 7    1  0.3383281E-011  0.5052887E+02  0.7816164E-02  0.1300439E+00
        -11   -1    0    0    0    0  0.00000000000E+00  0.00000000000E+00  0.45593999997E+02  0.45594000000E+02  0.51100000000E-03 0.  1.
         11   -1    0    0    0    0 -0.00000000000E+00 -0.00000000000E+00 -0.45593999997E+02  0.45594000000E+02  0.51100000000E-03 0. -1.
    9900012    2    1    2    0    0 -0.49779708037E+01 -0.21754718338E+02  0.33987011878E+02  0.50528868926E+02  0.30000027588E+02 0.  0.
         12    1    1    2    0    0  0.49779708037E+01  0.21754718338E+02 -0.33987011878E+02  0.40659131074E+02  0.00000000000E+00 0. -1.
         11    1    3    3    0    0  0.66846938749E+01 -0.85848152536E+01  0.35746886026E+01  0.11452623455E+02  0.51100000000E-03 0. -1.
        -11    1    3    3    0    0  0.12394244629E+01 -0.22319899618E+01 -0.14980822759E+01  0.29601018488E+01  0.51100000000E-03 0.  1.
        -12    1    3    3    0    0 -0.12902089141E+02 -0.10937913122E+02  0.31910405551E+02  0.36116143622E+02  0.00000000000E+00 0.  1.
</event>
<event>
 7    1  0.3383281E-011  0.5052887E+02  0.7816164E-02  0.1300439E+00
        -11   -1    0    0    0    0  0.00000000000E+00  0.00000000000E+00  0.45593999997E+02  0.45594000000E+02  0.51100000000E-03 0.  1.
         11   -1    0    0    0    0 -0.00000000000E+00 -0.00000000000E+00 -0.45593999997E+02  0.45594000000E+02  0.51100000000E-03 0. -1.
    9900012    2    1    2    0    0  0.26283319292E+02 -0.24544648780E+02  0.18971348749E+02  0.50528871504E+02  0.30000035423E+02 0.  0.
         12    1    1    2    0    0 -0.26283319292E+02  0.24544648780E+02 -0.18971348749E+02  0.40659128496E+02  0.00000000000E+00 0. -1.
         11    1    3    3    0    0  0.24990119739E+01  0.51233907788E+01  0.28093000545E+01  0.63550264339E+01  0.51100000000E-03 0. -1.
        -11    1    3    3    0    0  0.74749571189E+01 -0.10986952273E+02 -0.19963780021E+01  0.13437768772E+02  0.51100000000E-03 0.  1.
        -12    1    3    3    0    0  0.16309350199E+02 -0.18681087286E+02  0.18158426697E+02  0.30736076298E+02  0.00000000000E+00 0.  1.
</event>
<event>
 7    1  0.3383281E-011  0.5052887E+02  0.7816164E-02  0.1300439E+00
        -11   -1    0    0    0    0  0.00000000000E+00  0.00000000000E+00  0.45593999997E+02  0.45594000000E+02  0.51100000000E-03 0.  1.
         11   -1    0    0    0    0 -0.00000000000E+00 -0.00000000000E+00 -0.45593999997E+02  0.45594000000E+02  0.51100000000E-03 0. -1.
    9900012    2    1    2    0    0 -0.26491242475E+02 -0.19573038156E+02  0.23838521673E+02  0.50528869831E+02  0.30000030338E+02 0.  0.
         12    1    1    2    0    0  0.26491242475E+02  0.19573038156E+02 -0.23838521673E+02  0.40659130169E+02  0.00000000000E+00 0. -1.
         11    1    3    3    0    0 -0.10190296293E+02 -0.28418560440E+01  0.26692176805E+01  0.10910683187E+02  0.51100000000E-03 0.  1.
        -11    1    3    3    0    0 -0.20464579020E+02 -0.75529703859E+01  0.84580844673E+01  0.23396272123E+02  0.51100000000E-03 0. -1.
         12    1    3    3    0    0  0.41636328382E+01 -0.91782117260E+01  0.12711219526E+02  0.16221914521E+02  0.00000000000E+00 0. -1.
</event>
<event>
 7    1  0.3383281E-011  0.5052886E+02  0.7816164E-02  0.1300439E+00
        -11   -1    0    0    0    0  0.00000000000E+00  0.00000000000E+00  0.45593999997E+02  0.45594000000E+02  0.51100000000E-03 0.  1.
         11   -1    0    0    0    0 -0.00000000000E+00 -0.00000000000E+00 -0.45593999997E+02  0.45594000000E+02  0.51100000000E-03 0. -1.
    9900012    2    1    2    0    0  0.91544427553E+01 -0.17742115845E+02  0.35420033720E+02  0.50528864673E+02  0.30000014661E+02 0.  0.
         12    1    1    2    0    0 -0.91544427553E+01  0.17742115845E+02 -0.35420033720E+02  0.40659135327E+02  0.00000000000E+00 0. -1.
         11    1    3    3    0    0  0.50336354256E+01  0.36310391741E+01  0.16206030674E+01  0.64146929502E+01  0.51100000000E-03 0.  1.
        -11    1    3    3    0    0  0.29857104028E+01 -0.13720811956E+02  0.33554570291E+02  0.36374226247E+02  0.51100000000E-03 0. -1.
         12    1    3    3    0    0  0.11350969269E+01 -0.76523430628E+01  0.24486036100E+00  0.77399454766E+01  0.00000000000E+00 0. -1.
</event>
<event>
 7    1  0.3383281E-011  0.5052886E+02  0.7816164E-02  0.1300439E+00
        -11   -1    0    0    0    0  0.00000000000E+00  0.00000000000E+00  0.45593999997E+02  0.45594000000E+02  0.51100000000E-03 0. -1.
         11   -1    0    0    0    0 -0.00000000000E+00 -0.00000000000E+00 -0.45593999997E+02  0.45594000000E+02  0.51100000000E-03 0.  1.
    9900012    2    1    2    0    0 -0.28306753359E+01  0.37744084256E+02 -0.14850486283E+02  0.50528861273E+02  0.30000004326E+02 0.  0.
         12    1    1    2    0    0  0.28306753359E+01 -0.37744084256E+02  0.14850486283E+02  0.40659138727E+02  0.00000000000E+00 0. -1.
         11    1    3    3    0    0 -0.88658816187E+01  0.13760620725E+02  0.20723131656E+01  0.16500091567E+02  0.51100000000E-03 0. -1.
        -11    1    3    3    0    0  0.38668413880E+01  0.25239476470E+02 -0.11398397321E+02  0.27962601749E+02  0.51100000000E-03 0.  1.
         12    1    3    3    0    0  0.21683648949E+01 -0.12560129392E+01 -0.55244021277E+01  0.60661679576E+01  0.00000000000E+00 0. -1.
</event>
<event>
 7    1  0.3383281E-011  0.5052886E+02  0.7816164E-02  0.1300439E+00
        -11   -1    0    0    0    0  0.00000000000E+00  0.00000000000E+00  0.45593999997E+02  0.45594000000E+02  0.51100000000E-03 0.  1.
         11   -1    0    0    0    0 -0.00000000000E+00 -0.00000000000E+00 -0.45593999997E+02  0.45594000000E+02  0.51100000000E-03 0. -1.
    9900012    2    1    2    0    0  0.13508048447E+02 -0.20709454493E+02  0.32277187596E+02  0.50528859363E+02  0.29999998520E+02 0.  0.
         12    1    1    2    0    0 -0.13508048447E+02  0.20709454493E+02 -0.32277187596E+02  0.40659140637E+02  0.00000000000E+00 0. -1.
         11    1    3    3    0    0  0.65135722457E+01 -0.13905233051E+02  0.12694258332E+02  0.19923009925E+02  0.51100000000E-03 0.  1.
        -11    1    3    3    0    0  0.56466964976E+01 -0.10528642570E+02  0.14378258542E+01  0.12033488237E+02  0.51100000000E-03 0. -1.
        -12    1    3    3    0    0  0.13477797034E+01  0.37244211276E+01  0.18145103410E+02  0.18572361202E+02  0.00000000000E+00 0.  1.
</event>
<event>
 7    1  0.3383281E-011  0.5052886E+02  0.7816164E-02  0.1300439E+00
        -11   -1    0    0    0    0  0.00000000000E+00  0.00000000000E+00  0.45593999997E+02  0.45594000000E+02  0.51100000000E-03 0.  1.
         11   -1    0    0    0    0 -0.00000000000E+00 -0.00000000000E+00 -0.45593999997E+02  0.45594000000E+02  0.51100000000E-03 0. -1.
    9900012    2    1    2    0    0  0.80052083474E+01  0.29085373023E+02  0.27260293833E+02  0.50528857062E+02  0.29999991526E+02 0.  0.
         12    1    1    2    0    0 -0.80052083474E+01 -0.29085373023E+02 -0.27260293833E+02  0.40659142938E+02  0.00000000000E+00 0. -1.
         11    1    3    3    0    0  0.58447164853E+01  0.14485201189E+02  0.21927342928E+01  0.15773073519E+02  0.51100000000E-03 0. -1.
        -11    1    3    3    0    0 -0.14965235181E+01  0.18571292051E+02  0.18527811109E+02  0.26275697057E+02  0.51100000000E-03 0.  1.
        -12    1    3    3    0    0  0.36570153803E+01 -0.39711202174E+01  0.65397484311E+01  0.84800864863E+01  0.00000000000E+00 0.  1.
</event>
<event>
 7    1  0.3383281E-011  0.5052885E+02  0.7816164E-02  0.1300439E+00
        -11   -1    0    0    0    0  0.00000000000E+00  0.00000000000E+00  0.45593999997E+02  0.45594000000E+02  0.51100000000E-03 0. -1.
         11   -1    0    0    0    0 -0.00000000000E+00 -0.00000000000E+00 -0.45593999997E+02  0.45594000000E+02  0.51100000000E-03 0.  1.
    9900012    2    1    2    0    0 -0.29183317339E+02 -0.25325923724E+02 -0.12652970826E+02  0.50528854730E+02  0.29999984436E+02 0.  0.
         12    1    1    2    0    0  0.29183317339E+02  0.25325923724E+02  0.12652970826E+02  0.40659145270E+02  0.00000000000E+00 0. -1.
         11    1    3    3    0    0  0.36260420887E+01  0.10081497443E+01  0.21042993446E+00  0.37694599287E+01  0.51100000000E-03 0. -1.
        -11    1    3    3    0    0 -0.40487624189E+01  0.15027233779E+01 -0.37262182641E+01  0.57039773394E+01  0.51100000000E-03 0.  1.
         12    1    3    3    0    0 -0.28760597009E+02 -0.27836796846E+02 -0.91371824961E+01  0.41055417462E+02  0.00000000000E+00 0. -1.
</event>
<event>
 7    1  0.3383281E-011  0.5052887E+02  0.7816164E-02  0.1300439E+00
        -11   -1    0    0    0    0  0.00000000000E+00  0.00000000000E+00  0.45593999997E+02  0.45594000000E+02  0.51100000000E-03 0. -1.
         11   -1    0    0    0    0 -0.00000000000E+00 -0.00000000000E+00 -0.45593999997E+02  0.45594000000E+02  0.51100000000E-03 0.  1.
    9900012    2    1    2    0    0  0.20076852451E+02  0.34627409804E+02  0.71433329347E+01  0.50528871634E+02  0.30000035818E+02 0.  0.
         12    1    1    2    0    0 -0.20076852451E+02 -0.34627409804E+02 -0.71433329347E+01  0.40659128366E+02  0.00000000000E+00 0. -1.
         11    1    3    3    0    0  0.34433084129E+01 -0.45644255589E+01  0.26332068336E+01  0.62947702101E+01  0.51100000000E-03 0. -1.
        -11    1    3    3    0    0  0.65036023266E+01  0.11964746737E+02  0.65513771078E+01  0.15112000197E+02  0.51100000000E-03 0.  1.
        -12    1    3    3    0    0  0.10129941712E+02  0.27227088627E+02 -0.20412510067E+01  0.29122101226E+02  0.00000000000E+00 0.  1.
</event>
<event>
 7    1  0.3383281E-011  0.5052886E+02  0.7816164E-02  0.1300439E+00
        -11   -1    0    0    0    0  0.00000000000E+00  0.00000000000E+00  0.45593999997E+02  0.45594000000E+02  0.51100000000E-03 0.  1.
         11   -1    0    0    0    0 -0.00000000000E+00 -0.00000000000E+00 -0.45593999997E+02  0.45594000000E+02  0.51100000000E-03 0. -1.
    9900012    2    1    2    0    0 -0.31657445139E+02 -0.22013236728E+02 -0.12899188850E+02  0.50528862073E+02  0.30000006757E+02 0.  0.
         12    1    1    2    0    0  0.31657445139E+02  0.22013236728E+02  0.12899188850E+02  0.40659137927E+02  0.00000000000E+00 0. -1.
         11    1    3    3    0    0 -0.15513961787E+02 -0.12202990586E+02 -0.43133853301E+00  0.19742898540E+02  0.51100000000E-03 0. -1.
        -11    1    3    3    0    0 -0.11913545873E+02  0.47543225824E+01 -0.41122546112E+01  0.13470218882E+02  0.51100000000E-03 0.  1.
         12    1    3    3    0    0 -0.42299374789E+01 -0.14564568725E+02 -0.83555957059E+01  0.17315744651E+02  0.00000000000E+00 0. -1.
</event>
<event>
 7    1  0.3383281E-011  0.5052888E+02  0.7816164E-02  0.1300439E+00
        -11   -1    0    0    0    0  0.00000000000E+00  0.00000000000E+00  0.45593999997E+02  0.45594000000E+02  0.51100000000E-03 0.  1.
         11   -1    0    0    0    0 -0.00000000000E+00 -0.00000000000E+00 -0.45593999997E+02  0.45594000000E+02  0.51100000000E-03 0. -1.
    9900012    2    1    2    0    0  0.31697087321E+01  0.19616798690E+01  0.40487885587E+02  0.50528878998E+02  0.30000058201E+02 0.  0.
         12    1    1    2    0    0 -0.31697087321E+01 -0.19616798690E+01 -0.40487885587E+02  0.40659121002E+02  0.00000000000E+00 0. -1.
         11    1    3    3    0    0 -0.38943075628E+01  0.12880247844E+01  0.98916855560E+01  0.10708411770E+02  0.51100000000E-03 0. -1.
        -11    1    3    3    0    0 -0.10838333928E+01 -0.76913471617E+01  0.26226137387E+02  0.27352180873E+02  0.51100000000E-03 0.  1.
        -12    1    3    3    0    0  0.81478496877E+01  0.83650022462E+01  0.43700626444E+01  0.12468286355E+02  0.00000000000E+00 0.  1.
</event>
<event>
 7    1  0.3383281E-011  0.5052888E+02  0.7816164E-02  0.1300439E+00
        -11   -1    0    0    0    0  0.00000000000E+00  0.00000000000E+00  0.45593999997E+02  0.45594000000E+02  0.51100000000E-03 0. -1.
         11   -1    0    0    0    0 -0.00000000000E+00 -0.00000000000E+00 -0.45593999997E+02  0.45594000000E+02  0.51100000000E-03 0.  1.
    9900012    2    1    2    0    0 -0.93299413981E+01 -0.54513670545E+01 -0.39196921934E+02  0.50528881732E+02  0.30000066513E+02 0.  0.
         12    1    1    2    0    0  0.93299413981E+01  0.54513670545E+01  0.39196921934E+02  0.40659118268E+02  0.00000000000E+00 0. -1.
         11    1    3    3    0    0 -0.69749669361E+01  0.10398656255E+02 -0.83094561825E+01  0.15027617176E+02  0.51100000000E-03 0. -1.
        -11    1    3    3    0    0 -0.61055177591E+00  0.65993405361E+00 -0.15205285074E+01  0.17664352887E+01  0.51100000000E-03 0.  1.
        -12    1    3    3    0    0 -0.17444226860E+01 -0.16509957363E+02 -0.29366937244E+02  0.33734829268E+02  0.00000000000E+00 0.  1.
</event>
<event>
 7    1  0.3383281E-011  0.5052886E+02  0.7816164E-02  0.1300439E+00
        -11   -1    0    0    0    0  0.00000000000E+00  0.00000000000E+00  0.45593999997E+02  0.45594000000E+02  0.51100000000E-03 0.  1.
         11   -1    0    0    0    0 -0.00000000000E+00 -0.00000000000E+00 -0.45593999997E+02  0.45594000000E+02  0.51100000000E-03 0. -1.
    9900012    2    1    2    0    0  0.98103289852E+01 -0.10151034905E+02  0.38129769138E+02  0.50528863770E+02  0.30000011916E+02 0.  0.
         12    1    1    2    0    0 -0.98103289852E+01  0.10151034905E+02 -0.38129769138E+02  0.40659136230E+02  0.00000000000E+00 0. -1.
         11    1    3    3    0    0  0.41593657495E+01 -0.70882892319E+01  0.64044038576E+01  0.10419239737E+02  0.51100000000E-03 0.  1.
        -11    1    3    3    0    0 -0.66839008225E+01 -0.19265378627E+01  0.25132410494E+02  0.26077272401E+02  0.51100000000E-03 0. -1.
         12    1    3    3    0    0  0.12334864058E+02 -0.11362078102E+01  0.65929547858E+01  0.14032351632E+02  0.00000000000E+00 0. -1.
</event>
<event>
 7    1  0.3383281E-011  0.5052888E+02  0.7816164E-02  0.1300439E+00
        -11   -1    0    0    0    0  0.00000000000E+00  0.00000000000E+00  0.45593999997E+02  0.45594000000E+02  0.51100000000E-03 0.  1.
         11   -1    0    0    0    0 -0.00000000000E+00 -0.00000000000E+00 -0.45593999997E+02  0.45594000000E+02  0.51100000000E-03 0. -1.
    9900012    2    1    2    0    0 -0.38445782203E+02 -0.79974617904E+01  0.10541665265E+02  0.50528877151E+02  0.30000052588E+02 0.  0.
         12    1    1    2    0    0  0.38445782203E+02  0.79974617904E+01 -0.10541665265E+02  0.40659122849E+02  0.00000000000E+00 0. -1.
         11    1    3    3    0    0  0.11179684344E+01  0.31988541430E+01  0.41563294071E+01  0.53626108987E+01  0.51100000000E-03 0. -1.
        -11    1    3    3    0    0 -0.65991476740E+01  0.24992032594E+01 -0.38406709914E+01  0.80340227085E+01  0.51100000000E-03 0.  1.
        -12    1    3    3    0    0 -0.32964602964E+02 -0.13695519193E+02  0.10226006849E+02  0.37132243544E+02  0.00000000000E+00 0.  1.
</event>
<event>
 7    1  0.3383281E-011  0.5052886E+02  0.7816164E-02  0.1300439E+00
        -11   -1    0    0    0    0  0.00000000000E+00  0.00000000000E+00  0.45593999997E+02  0.45594000000E+02  0.51100000000E-03 0. -1.
         11   -1    0    0    0    0 -0.00000000000E+00 -0.00000000000E+00 -0.45593999997E+02  0.45594000000E+02  0.51100000000E-03 0.  1.
    9900012    2    1    2    0    0  0.29724425427E+02 -0.56700496759E+01 -0.27156489583E+02  0.50528857649E+02  0.29999993310E+02 0.  0.
         12    1    1    2    0    0 -0.29724425427E+02  0.56700496759E+01  0.27156489583E+02  0.40659142351E+02  0.00000000000E+00 0. -1.
         11    1    3    3    0    0  0.83139020776E+01 -0.55159469397E+01 -0.91115465632E+01  0.13511732658E+02  0.51100000000E-03 0. -1.
        -11    1    3    3    0    0  0.17605622418E+02 -0.98064006264E+01 -0.58057534658E+01  0.20972129304E+02  0.51100000000E-03 0.  1.
         12    1    3    3    0    0  0.38049009313E+01  0.96522978902E+01 -0.12239189553E+02  0.16044995687E+02  0.00000000000E+00 0. -1.
</event>
<event>
 7    1  0.3383281E-011  0.5052885E+02  0.7816164E-02  0.1300439E+00
        -11   -1    0    0    0    0  0.00000000000E+00  0.00000000000E+00  0.45593999997E+02  0.45594000000E+02  0.51100000000E-03 0. -1.
         11   -1    0    0    0    0 -0.00000000000E+00 -0.00000000000E+00 -0.45593999997E+02  0.45594000000E+02  0.51100000000E-03 0.  1.
    9900012    2    1    2    0    0  0.10255359400E+02 -0.35160278817E+02 -0.17656403392E+02  0.50528853629E+02  0.29999981090E+02 0.  0.
         12    1    1    2    0    0 -0.10255359400E+02  0.35160278817E+02  0.17656403392E+02  0.40659146371E+02  0.00000000000E+00 0. -1.
         11    1    3    3    0    0  0.55832491190E+01 -0.16836030751E+02 -0.12834266079E+02  0.21893902992E+02  0.51100000000E-03 0. -1.
        -11    1    3    3    0    0  0.41864886813E+01 -0.10187693096E+02 -0.13033962610E+02  0.17064582025E+02  0.51100000000E-03 0.  1.
         12    1    3    3    0    0  0.48562159918E+00 -0.81365549694E+01  0.82118252971E+01  0.11570368612E+02  0.00000000000E+00 0. -1.
</event>
<event>
 7    1  0.3383281E-011  0.5052889E+02  0.7816164E-02  0.1300439E+00
        -11   -1    0    0    0    0  0.00000000000E+00  0.00000000000E+00  0.45593999997E+02  0.45594000000E+02  0.51100000000E-03 0.  1.
         11   -1    0    0    0    0 -0.00000000000E+00 -0.00000000000E+00 -0.45593999997E+02  0.45594000000E+02  0.51100000000E-03 0. -1.
    9900012    2    1    2    0    0 -0.20975736927E+01 -0.80819028231E+01  0.39792537483E+02  0.50528892681E+02  0.30000099794E+02 0.  0.
         12    1    1    2    0    0  0.20975736927E+01  0.80819028231E+01 -0.39792537483E+02  0.40659107319E+02  0.00000000000E+00 0. -1.
         11    1    3    3    0    0  0.48568677815E+01 -0.91615320611E+01  0.47926269770E+01  0.11423314228E+02  0.51100000000E-03 0. -1.
        -11    1    3    3    0    0  0.42676051188E+01  0.14121361924E+01  0.19224350709E+02  0.19742903599E+02  0.51100000000E-03 0.  1.
        -12    1    3    3    0    0 -0.11222046593E+02 -0.33250695449E+00  0.15775559796E+02  0.19362674854E+02  0.00000000000E+00 0.  1.
</event>
<event>
 7    1  0.3383281E-011  0.5052887E+02  0.7816164E-02  0.1300439E+00
        -11   -1    0    0    0    0  0.00000000000E+00  0.00000000000E+00  0.45593999997E+02  0.45594000000E+02  0.51100000000E-03 0.  1.
         11   -1    0    0    0    0 -0.00000000000E+00 -0.00000000000E+00 -0.45593999997E+02  0.45594000000E+02  0.51100000000E-03 0. -1.
    9900012    2    1    2    0    0 -0.83448347638E+01 -0.13609534854E+02  0.37393977416E+02  0.50528865071E+02  0.30000015870E+02 0.  0.
         12    1    1    2    0    0  0.83448347638E+01  0.13609534854E+02 -0.37393977416E+02  0.40659134929E+02  0.00000000000E+00 0. -1.
         11    1    3    3    0    0 -0.80860609813E+01 -0.19006432265E+02  0.36809182156E+02  0.42208349185E+02  0.51100000000E-03 0.  1.
        -11    1    3    3    0    0  0.38681792980E+00  0.41873088784E+01  0.32557608934E+01  0.53181917049E+01  0.51100000000E-03 0. -1.
        -12    1    3    3    0    0 -0.64559171233E+00  0.12095885324E+01 -0.26709656335E+01  0.30023241817E+01  0.00000000000E+00 0.  1.
</event>
<event>
 7    1  0.3383281E-011  0.5052886E+02  0.7816164E-02  0.1300439E+00
        -11   -1    0    0    0    0  0.00000000000E+00  0.00000000000E+00  0.45593999997E+02  0.45594000000E+02  0.51100000000E-03 0. -1.
         11   -1    0    0    0    0 -0.00000000000E+00 -0.00000000000E+00 -0.45593999997E+02  0.45594000000E+02  0.51100000000E-03 0.  1.
    9900012    2    1    2    0    0  0.38799786082E+02  0.10094886603E+02 -0.67701991398E+01  0.50528859183E+02  0.29999997973E+02 0.  0.
         12    1    1    2    0    0 -0.38799786082E+02 -0.10094886603E+02  0.67701991398E+01  0.40659140817E+02  0.00000000000E+00 0. -1.
         11    1    3    3    0    0  0.13750925426E+00  0.20005015783E+01  0.35526407920E+01  0.40794818566E+01  0.51100000000E-03 0. -1.
        -11    1    3    3    0    0  0.31034067308E+02 -0.21366110680E+01 -0.12459520185E+02  0.33509969920E+02  0.51100000000E-03 0.  1.
         12    1    3    3    0    0  0.76282095200E+01  0.10230996093E+02  0.21366802528E+01  0.12939407407E+02  0.00000000000E+00 0. -1.
</event>
<event>
 7    1  0.3383281E-011  0.5052886E+02  0.7816164E-02  0.1300439E+00
        -11   -1    0    0    0    0  0.00000000000E+00  0.00000000000E+00  0.45593999997E+02  0.45594000000E+02  0.51100000000E-03 0.  1.
         11   -1    0    0    0    0 -0.00000000000E+00 -0.00000000000E+00 -0.45593999997E+02  0.45594000000E+02  0.51100000000E-03 0. -1.
    9900012    2    1    2    0    0 -0.16079506449E+02  0.36853922261E+02  0.60335319506E+01  0.50528860542E+02  0.30000002105E+02 0.  0.
         12    1    1    2    0    0  0.16079506449E+02 -0.36853922261E+02 -0.60335319506E+01  0.40659139458E+02  0.00000000000E+00 0. -1.
         11    1    3    3    0    0 -0.27534247940E+00  0.25655834934E+02  0.72107586353E+01  0.26651317416E+02  0.51100000000E-03 0. -1.
        -11    1    3    3    0    0 -0.26377499646E+01  0.71570066937E+01 -0.55436507621E+01  0.94293442891E+01  0.51100000000E-03 0.  1.
        -12    1    3    3    0    0 -0.13166414005E+02  0.40410806329E+01  0.43664240774E+01  0.14448198837E+02  0.00000000000E+00 0.  1.
</event>
<event>
 7    1  0.3383281E-011  0.5052892E+02  0.7816164E-02  0.1300439E+00
        -11   -1    0    0    0    0  0.00000000000E+00  0.00000000000E+00  0.45593999997E+02  0.45594000000E+02  0.51100000000E-03 0.  1.
         11   -1    0    0    0    0 -0.00000000000E+00 -0.00000000000E+00 -0.45593999997E+02  0.45594000000E+02  0.51100000000E-03 0. -1.
    9900012    2    1    2    0    0  0.12188843848E+02 -0.38543611307E+02 -0.43569370112E+01  0.50528919992E+02  0.30000182808E+02 0.  0.
         12    1    1    2    0    0 -0.12188843848E+02  0.38543611307E+02  0.43569370112E+01  0.40659080008E+02  0.00000000000E+00 0. -1.
         11    1    3    3    0    0 -0.48971666850E+01  0.77397646384E+00  0.14805068879E+01  0.51742808209E+01  0.51100000000E-03 0. -1.
        -11    1    3    3    0    0 -0.22524603904E+01 -0.48953660101E+01  0.30445416904E+00  0.53973029177E+01  0.51100000000E-03 0.  1.
         12    1    3    3    0    0  0.19338470923E+02 -0.34422221761E+02 -0.61418980682E+01  0.39957336254E+02  0.00000000000E+00 0. -1.
</event>
<event>
 7    1  0.3383281E-011  0.5052885E+02  0.7816164E-02  0.1300439E+00
        -11   -1    0    0    0    0  0.00000000000E+00  0.00000000000E+00  0.45593999997E+02  0.45594000000E+02  0.51100000000E-03 0.  1.
         11   -1    0    0    0    0 -0.00000000000E+00 -0.00000000000E+00 -0.45593999997E+02  0.45594000000E+02  0.51100000000E-03 0. -1.
    9900012    2    1    2    0    0 -0.25414776676E+02  0.23100795827E+02  0.21762556444E+02  0.50528849685E+02  0.29999969104E+02 0.  0.
         12    1    1    2    0    0  0.25414776676E+02 -0.23100795827E+02 -0.21762556444E+02  0.40659150315E+02  0.00000000000E+00 0. -1.
         11    1    3    3    0    0 -0.61970643445E+01  0.53482243806E+01 -0.18515117730E+01  0.83925685354E+01  0.51100000000E-03 0. -1.
        -11    1    3    3    0    0  0.52635136228E+01  0.50555576911E+01  0.43488089826E+01  0.84956093986E+01  0.51100000000E-03 0.  1.
        -12    1    3    3    0    0 -0.24481225954E+02  0.12697013755E+02  0.19265259235E+02  0.33640671751E+02  0.00000000000E+00 0.  1.
</event>
<event>
 7    1  0.3383281E-011  0.5052886E+02  0.7816164E-02  0.1300439E+00
        -11   -1    0    0    0    0  0.00000000000E+00  0.00000000000E+00  0.45593999997E+02  0.45594000000E+02  0.51100000000E-03 0. -1.
         11   -1    0    0    0    0 -0.00000000000E+00 -0.00000000000E+00 -0.45593999997E+02  0.45594000000E+02  0.51100000000E-03 0.  1.
    9900012    2    1    2    0    0  0.19799123270E+02  0.23933412353E+02 -0.26236460503E+02  0.50528863649E+02  0.30000011546E+02 0.  0.
         12    1    1    2    0    0 -0.19799123270E+02 -0.23933412353E+02  0.26236460503E+02  0.40659136351E+02  0.00000000000E+00 0. -1.
         11    1    3    3    0    0 -0.23280825555E+01 -0.15644859087E+01 -0.42626112171E+01  0.51026894079E+01  0.51100000000E-03 0. -1.
        -11    1    3    3    0    0 -0.32715730855E+01  0.13045009209E+01 -0.58319564578E+01  0.68129750838E+01  0.51100000000E-03 0.  1.
        -12    1    3    3    0    0  0.25398778911E+02  0.24193397341E+02 -0.16141892828E+02  0.38613199157E+02  0.00000000000E+00 0.  1.
</event>
<event>
 7    1  0.3383281E-011  0.5052887E+02  0.7816164E-02  0.1300439E+00
        -11   -1    0    0    0    0  0.00000000000E+00  0.00000000000E+00  0.45593999997E+02  0.45594000000E+02  0.51100000000E-03 0. -1.
         11   -1    0    0    0    0 -0.00000000000E+00 -0.00000000000E+00 -0.45593999997E+02  0.45594000000E+02  0.51100000000E-03 0.  1.
    9900012    2    1    2    0    0  0.20083277404E+02 -0.32061571963E+02 -0.14895730499E+02  0.50528865540E+02  0.30000017294E+02 0.  0.
         12    1    1    2    0    0 -0.20083277404E+02  0.32061571963E+02  0.14895730499E+02  0.40659134460E+02  0.00000000000E+00 0. -1.
         11    1    3    3    0    0 -0.33369683018E+01 -0.11876107448E+02 -0.98411400024E+01  0.15780536187E+02  0.51100000000E-03 0. -1.
        -11    1    3    3    0    0  0.22787839163E+01 -0.11138268041E+02 -0.12094936558E+01  0.11433142449E+02  0.51100000000E-03 0.  1.
        -12    1    3    3    0    0  0.21141461789E+02 -0.90471964738E+01 -0.38450968405E+01  0.23315186903E+02  0.00000000000E+00 0.  1.
</event>
<event>
 7    1  0.4612261E-011  0.5052886E+02  0.7816164E-02  0.1300439E+00
        -11   -1    0    0    0    0  0.00000000000E+00  0.00000000000E+00  0.45593999997E+02  0.45594000000E+02  0.51100000000E-03 0.  1.
         11   -1    0    0    0    0 -0.00000000000E+00 -0.00000000000E+00 -0.45593999997E+02  0.45594000000E+02  0.51100000000E-03 0. -1.
    9900012    2    1    2    0    0  0.17351823932E+02  0.15327090454E+02  0.33423947946E+02  0.50528858447E+02  0.29999995734E+02 0.  0.
         12    1    1    2    0    0 -0.17351823932E+02 -0.15327090454E+02 -0.33423947946E+02  0.40659141553E+02  0.00000000000E+00 0. -1.
         11    1    3    3    0    0  0.15797341912E+01  0.78465204587E+01  0.43948318191E+00  0.80160207804E+01  0.51100000000E-03 0. -1.
        -11    1    3    3    0    0  0.35845809564E+01  0.11387839203E+02  0.24215089254E+02  0.26998197165E+02  0.51100000000E-03 0.  1.
         12    1    3    3    0    0  0.12187508785E+02 -0.39072692076E+01  0.87693755106E+01  0.15514640501E+02  0.00000000000E+00 0. -1.
</event>
<event>
 7    1  0.3383281E-011  0.5052886E+02  0.7816164E-02  0.1300439E+00
        -11   -1    0    0    0    0  0.00000000000E+00  0.00000000000E+00  0.45593999997E+02  0.45594000000E+02  0.51100000000E-03 0.  1.
         11   -1    0    0    0    0 -0.00000000000E+00 -0.00000000000E+00 -0.45593999997E+02  0.45594000000E+02  0.51100000000E-03 0. -1.
    9900012    2    1    2    0    0 -0.36310237349E+02 -0.18249398652E+02 -0.13007640801E+01  0.50528857428E+02  0.29999992638E+02 0.  0.
         12    1    1    2    0    0  0.36310237349E+02  0.18249398652E+02  0.13007640801E+01  0.40659142572E+02  0.00000000000E+00 0. -1.
         11    1    3    3    0    0 -0.21214545657E+02 -0.14777266037E+02 -0.78265135229E+01  0.27012568430E+02  0.51100000000E-03 0. -1.
        -11    1    3    3    0    0 -0.18197871857E+02 -0.32508244307E+01  0.79161221522E+01  0.20109584526E+02  0.51100000000E-03 0.  1.
         12    1    3    3    0    0  0.31021801655E+01 -0.22130818399E+00 -0.13903727095E+01  0.34067044725E+01  0.00000000000E+00 0. -1.
</event>
<event>
 7    1  0.3383281E-011  0.5052886E+02  0.7816164E-02  0.1300439E+00
        -11   -1    0    0    0    0  0.00000000000E+00  0.00000000000E+00  0.45593999997E+02  0.45594000000E+02  0.51100000000E-03 0.  1.
         11   -1    0    0    0    0 -0.00000000000E+00 -0.00000000000E+00 -0.45593999997E+02  0.45594000000E+02  0.51100000000E-03 0. -1.
    9900012    2    1    2    0    0 -0.11255676362E+02 -0.14879294522E+02  0.36125917680E+02  0.50528861002E+02  0.30000003502E+02 0.  0.
         12    1    1    2    0    0  0.11255676362E+02  0.14879294522E+02 -0.36125917680E+02  0.40659138998E+02  0.00000000000E+00 0. -1.
         11    1    3    3    0    0 -0.78091909256E+01 -0.47031894434E+01  0.19413961092E+01  0.93205403796E+01  0.51100000000E-03 0. -1.
        -11    1    3    3    0    0  0.46038168155E+01 -0.11709164896E+02  0.11338523605E+02  0.16936994704E+02  0.51100000000E-03 0.  1.
        -12    1    3    3    0    0 -0.80503022523E+01  0.15330598174E+01  0.22845997966E+02  0.24271325918E+02  0.00000000000E+00 0.  1.
</event>
<event>
 7    1  0.3383281E-011  0.5052887E+02  0.7816164E-02  0.1300439E+00
        -11   -1    0    0    0    0  0.00000000000E+00  0.00000000000E+00  0.45593999997E+02  0.45594000000E+02  0.51100000000E-03 0.  1.
         11   -1    0    0    0    0 -0.00000000000E+00 -0.00000000000E+00 -0.45593999997E+02  0.45594000000E+02  0.51100000000E-03 0. -1.
    9900012    2    1    2    0    0 -0.38912997914E+02  0.39824170775E+01  0.11094302273E+02  0.50528873160E+02  0.30000040457E+02 0.  0.
         12    1    1    2    0    0  0.38912997914E+02 -0.39824170775E+01 -0.11094302273E+02  0.40659126840E+02  0.00000000000E+00 0. -1.
         11    1    3    3    0    0 -0.37134662420E+01 -0.24831344396E+01  0.23270752209E+01  0.50369700734E+01  0.51100000000E-03 0. -1.
        -11    1    3    3    0    0 -0.30022152018E+02  0.76173445576E+01  0.17275785399E+02  0.35465565149E+02  0.51100000000E-03 0.  1.
         12    1    3    3    0    0 -0.51773796542E+01 -0.11517930405E+01 -0.85085583471E+01  0.10026337938E+02  0.00000000000E+00 0. -1.
</event>
<event>
 7    1  0.3383281E-011  0.5052884E+02  0.7816164E-02  0.1300439E+00
        -11   -1    0    0    0    0  0.00000000000E+00  0.00000000000E+00  0.45593999997E+02  0.45594000000E+02  0.51100000000E-03 0.  1.
         11   -1    0    0    0    0 -0.00000000000E+00 -0.00000000000E+00 -0.45593999997E+02  0.45594000000E+02  0.51100000000E-03 0. -1.
    9900012    2    1    2    0    0 -0.15757703169E+02 -0.22453558802E+02  0.30011655628E+02  0.50528843767E+02  0.29999951115E+02 0.  0.
         12    1    1    2    0    0  0.15757703169E+02  0.22453558802E+02 -0.30011655628E+02  0.40659156233E+02  0.00000000000E+00 0. -1.
         11    1    3    3    0    0 -0.31052614738E+01 -0.30703316193E+01 -0.55783343982E+01  0.70843065992E+01  0.51100000000E-03 0. -1.
        -11    1    3    3    0    0 -0.73539872175E+01 -0.66629596884E+01  0.85622112994E+01  0.13106777728E+02  0.51100000000E-03 0.  1.
        -12    1    3    3    0    0 -0.52984544777E+01 -0.12720267494E+02  0.27027778727E+02  0.30337759441E+02  0.00000000000E+00 0.  1.
</event>
<event>
 7    1  0.3383281E-011  0.5052886E+02  0.7816164E-02  0.1300439E+00
        -11   -1    0    0    0    0  0.00000000000E+00  0.00000000000E+00  0.45593999997E+02  0.45594000000E+02  0.51100000000E-03 0. -1.
         11   -1    0    0    0    0 -0.00000000000E+00 -0.00000000000E+00 -0.45593999997E+02  0.45594000000E+02  0.51100000000E-03 0.  1.
    9900012    2    1    2    0    0 -0.38554755470E+02 -0.24410115682E+01  0.12678232945E+02  0.50528864526E+02  0.30000014214E+02 0.  0.
         12    1    1    2    0    0  0.38554755470E+02  0.24410115682E+01 -0.12678232945E+02  0.40659135474E+02  0.00000000000E+00 0. -1.
         11    1    3    3    0    0  0.27062280793E+00 -0.35179612690E+01 -0.23076508339E+00  0.35358932364E+01  0.51100000000E-03 0. -1.
        -11    1    3    3    0    0 -0.21233120237E+02 -0.10925512640E+02  0.63450755769E+01  0.24707735748E+02  0.51100000000E-03 0.  1.
         12    1    3    3    0    0 -0.17592258042E+02  0.12002462341E+02  0.65639224511E+01  0.22285235542E+02  0.00000000000E+00 0. -1.
</event>
<event>
 7    1  0.3383281E-011  0.5052885E+02  0.7816164E-02  0.1300439E+00
        -11   -1    0    0    0    0  0.00000000000E+00  0.00000000000E+00  0.45593999997E+02  0.45594000000E+02  0.51100000000E-03 0.  1.
         11   -1    0    0    0    0 -0.00000000000E+00 -0.00000000000E+00 -0.45593999997E+02  0.45594000000E+02  0.51100000000E-03 0. -1.
    9900012    2    1    2    0    0 -0.85935121115E+01  0.13313859868E+02  0.37444080971E+02  0.50528849557E+02  0.29999968713E+02 0.  0.
         12    1    1    2    0    0  0.85935121115E+01 -0.13313859868E+02 -0.37444080971E+02  0.40659150443E+02  0.00000000000E+00 0. -1.
         11    1    3    3    0    0 -0.60491810324E+01  0.24876679356E+01  0.13181166349E+02  0.14714762298E+02  0.51100000000E-03 0. -1.
        -11    1    3    3    0    0  0.10177584496E+01 -0.79883296346E+00  0.23602189053E+02  0.23637624557E+02  0.51100000000E-03 0.  1.
        -12    1    3    3    0    0 -0.35620895287E+01  0.11625024896E+02  0.66072556956E+00  0.12176462702E+02  0.00000000000E+00 0.  1.
</event>
<event>
 7    1  0.3383281E-011  0.5052886E+02  0.7816164E-02  0.1300439E+00
        -11   -1    0    0    0    0  0.00000000000E+00  0.00000000000E+00  0.45593999997E+02  0.45594000000E+02  0.51100000000E-03 0. -1.
         11   -1    0    0    0    0 -0.00000000000E+00 -0.00000000000E+00 -0.45593999997E+02  0.45594000000E+02  0.51100000000E-03 0.  1.
    9900012    2    1    2    0    0 -0.22519028072E+02 -0.18062504009E+02 -0.28632232952E+02  0.50528862771E+02  0.30000008880E+02 0.  0.
         12    1    1    2    0    0  0.22519028072E+02  0.18062504009E+02  0.28632232952E+02  0.40659137229E+02  0.00000000000E+00 0. -1.
         11    1    3    3    0    0 -0.74874396930E+01 -0.11467495494E+02 -0.17877004277E+02  0.22520046364E+02  0.51100000000E-03 0. -1.
        -11    1    3    3    0    0 -0.11033153946E+02 -0.13514730538E+02 -0.96599389724E+01  0.19942237807E+02  0.51100000000E-03 0.  1.
         12    1    3    3    0    0 -0.39984344322E+01  0.69197220233E+01 -0.10952897029E+01  0.80665786007E+01  0.00000000000E+00 0. -1.
</event>
<event>
 7    1  0.3383281E-011  0.5052886E+02  0.7816164E-02  0.1300439E+00
        -11   -1    0    0    0    0  0.00000000000E+00  0.00000000000E+00  0.45593999997E+02  0.45594000000E+02  0.51100000000E-03 0.  1.
         11   -1    0    0    0    0 -0.00000000000E+00 -0.00000000000E+00 -0.45593999997E+02  0.45594000000E+02  0.51100000000E-03 0. -1.
    9900012    2    1    2    0    0  0.18493754220E+02  0.24157733588E+02  0.26973152314E+02  0.50528856096E+02  0.29999988589E+02 0.  0.
         12    1    1    2    0    0 -0.18493754220E+02 -0.24157733588E+02 -0.26973152314E+02  0.40659143904E+02  0.00000000000E+00 0. -1.
         11    1    3    3    0    0  0.97549108331E+01  0.11957871162E+02  0.38715267196E+01  0.15910301301E+02  0.51100000000E-03 0. -1.
        -11    1    3    3    0    0  0.88604999097E+00  0.12436072039E+02  0.27001153681E+01  0.12756629476E+02  0.51100000000E-03 0.  1.
        -12    1    3    3    0    0  0.78527933959E+01 -0.23620961301E+00  0.20401510226E+02  0.21861925318E+02  0.00000000000E+00 0.  1.
</event>
<event>
 7    1  0.3383281E-011  0.5052886E+02  0.7816164E-02  0.1300439E+00
        -11   -1    0    0    0    0  0.00000000000E+00  0.00000000000E+00  0.45593999997E+02  0.45594000000E+02  0.51100000000E-03 0.  1.
         11   -1    0    0    0    0 -0.00000000000E+00 -0.00000000000E+00 -0.45593999997E+02  0.45594000000E+02  0.51100000000E-03 0. -1.
    9900012    2    1    2    0    0 -0.14920025245E+01 -0.39593080586E+02  0.91284081803E+01  0.50528856653E+02  0.29999990282E+02 0.  0.
         12    1    1    2    0    0  0.14920025245E+01  0.39593080586E+02 -0.91284081803E+01  0.40659143347E+02  0.00000000000E+00 0. -1.
         11    1    3    3    0    0 -0.75379370039E+01 -0.14514857983E+02  0.14001735206E+02  0.21530215642E+02  0.51100000000E-03 0. -1.
        -11    1    3    3    0    0 -0.17338116710E+01 -0.85135718315E+01  0.28374725876E+01  0.91399266511E+01  0.51100000000E-03 0.  1.
         12    1    3    3    0    0  0.77797461504E+01 -0.16564650772E+02 -0.77107996135E+01  0.19858714360E+02  0.00000000000E+00 0. -1.
</event>
<event>
 7    1  0.3383281E-011  0.5052887E+02  0.7816164E-02  0.1300439E+00
        -11   -1    0    0    0    0  0.00000000000E+00  0.00000000000E+00  0.45593999997E+02  0.45594000000E+02  0.51100000000E-03 0.  1.
         11   -1    0    0    0    0 -0.00000000000E+00 -0.00000000000E+00 -0.45593999997E+02  0.45594000000E+02  0.51100000000E-03 0. -1.
    9900012    2    1    2    0    0 -0.23739486363E+02  0.25064575065E+02  0.21479500497E+02  0.50528867230E+02  0.30000022433E+02 0.  0.
         12    1    1    2    0    0  0.23739486363E+02 -0.25064575065E+02 -0.21479500497E+02  0.40659132770E+02  0.00000000000E+00 0. -1.
         11    1    3    3    0    0 -0.70104117219E+01  0.63922320515E+01  0.20074988798E+01  0.96972447182E+01  0.51100000000E-03 0. -1.
        -11    1    3    3    0    0 -0.13545130992E+02  0.24361974218E+02  0.10600440520E+02  0.29821899686E+02  0.51100000000E-03 0.  1.
         12    1    3    3    0    0 -0.31839436499E+01 -0.56896312045E+01  0.88715610972E+01  0.11009722826E+02  0.00000000000E+00 0. -1.
</event>
<event>
 7    1  0.3383281E-011  0.5052885E+02  0.7816164E-02  0.1300439E+00
        -11   -1    0    0    0    0  0.00000000000E+00  0.00000000000E+00  0.45593999997E+02  0.45594000000E+02  0.51100000000E-03 0. -1.
         11   -1    0    0    0    0 -0.00000000000E+00 -0.00000000000E+00 -0.45593999997E+02  0.45594000000E+02  0.51100000000E-03 0.  1.
    9900012    2    1    2    0    0  0.32593307128E+02  0.21160862053E+02  0.11960809025E+02  0.50528847219E+02  0.29999961608E+02 0.  0.
         12    1    1    2    0    0 -0.32593307128E+02 -0.21160862053E+02 -0.11960809025E+02  0.40659152781E+02  0.00000000000E+00 0. -1.
         11    1    3    3    0    0 -0.17660798509E+00  0.89524691936E+00  0.40727759389E+01  0.41737467025E+01  0.51100000000E-03 0. -1.
        -11    1    3    3    0    0  0.14690236401E+02 -0.41697669791E+01  0.31337285600E+01  0.15588786262E+02  0.51100000000E-03 0.  1.
         12    1    3    3    0    0  0.18079678712E+02  0.24435382112E+02  0.47543045260E+01  0.30766314255E+02  0.00000000000E+00 0. -1.
</event>
<event>
 7    1  0.3383281E-011  0.5052886E+02  0.7816164E-02  0.1300439E+00
        -11   -1    0    0    0    0  0.00000000000E+00  0.00000000000E+00  0.45593999997E+02  0.45594000000E+02  0.51100000000E-03 0.  1.
         11   -1    0    0    0    0 -0.00000000000E+00 -0.00000000000E+00 -0.45593999997E+02  0.45594000000E+02  0.51100000000E-03 0. -1.
    9900012    2    1    2    0    0  0.34088094081E+02 -0.10783312123E+02  0.19362020535E+02  0.50528858131E+02  0.29999994774E+02 0.  0.
         12    1    1    2    0    0 -0.34088094081E+02  0.10783312123E+02 -0.19362020535E+02  0.40659141869E+02  0.00000000000E+00 0. -1.
         11    1    3    3    0    0  0.12111746481E+02  0.48162996550E+01 -0.33288157796E+01  0.13452589340E+02  0.51100000000E-03 0. -1.
        -11    1    3    3    0    0  0.56757891095E+01 -0.23638510079E+01 -0.16878711289E-01  0.61483866790E+01  0.51100000000E-03 0.  1.
        -12    1    3    3    0    0  0.16300558490E+02 -0.13235760770E+02  0.22707715025E+02  0.30927882112E+02  0.00000000000E+00 0.  1.
</event>
<event>
 7    1  0.3383281E-011  0.5052886E+02  0.7816164E-02  0.1300439E+00
        -11   -1    0    0    0    0  0.00000000000E+00  0.00000000000E+00  0.45593999997E+02  0.45594000000E+02  0.51100000000E-03 0.  1.
         11   -1    0    0    0    0 -0.00000000000E+00 -0.00000000000E+00 -0.45593999997E+02  0.45594000000E+02  0.51100000000E-03 0. -1.
    9900012    2    1    2    0    0  0.13071983069E+02 -0.37877751859E+02 -0.68967013041E+01  0.50528864297E+02  0.30000013518E+02 0.  0.
         12    1    1    2    0    0 -0.13071983069E+02  0.37877751859E+02  0.68967013041E+01  0.40659135703E+02  0.00000000000E+00 0. -1.
         11    1    3    3    0    0  0.23830157165E+01  0.20560041635E+01  0.24945628890E+01  0.40160629096E+01  0.51100000000E-03 0. -1.
        -11    1    3    3    0    0 -0.34485684035E+01 -0.18662309312E+01  0.19099822222E+01  0.43615907961E+01  0.51100000000E-03 0.  1.
        -12    1    3    3    0    0  0.14137535756E+02 -0.38067525091E+02 -0.11301246415E+02  0.42151210592E+02  0.00000000000E+00 0.  1.
</event>
<event>
 7    1  0.3383281E-011  0.5052887E+02  0.7816164E-02  0.1300439E+00
        -11   -1    0    0    0    0  0.00000000000E+00  0.00000000000E+00  0.45593999997E+02  0.45594000000E+02  0.51100000000E-03 0. -1.
         11   -1    0    0    0    0 -0.00000000000E+00 -0.00000000000E+00 -0.45593999997E+02  0.45594000000E+02  0.51100000000E-03 0.  1.
    9900012    2    1    2    0    0 -0.26109838315E+02  0.30757428135E+02 -0.50419941514E+01  0.50528871291E+02  0.30000034778E+02 0.  0.
         12    1    1    2    0    0  0.26109838315E+02 -0.30757428135E+02  0.50419941514E+01  0.40659128709E+02  0.00000000000E+00 0. -1.
         11    1    3    3    0    0  0.79881162698E+00 -0.17764446614E-01  0.10350169489E+01  0.13075457685E+01  0.51100000000E-03 0. -1.
        -11    1    3    3    0    0  0.46161411029E+01  0.27899062633E+00 -0.23886582602E+01  0.52050247835E+01  0.51100000000E-03 0.  1.
        -12    1    3    3    0    0 -0.31524791045E+02  0.30496201955E+02 -0.36883528401E+01  0.44016300740E+02  0.00000000000E+00 0.  1.
</event>
<event>
 7    1  0.3383281E-011  0.5052888E+02  0.7816164E-02  0.1300439E+00
        -11   -1    0    0    0    0  0.00000000000E+00  0.00000000000E+00  0.45593999997E+02  0.45594000000E+02  0.51100000000E-03 0.  1.
         11   -1    0    0    0    0 -0.00000000000E+00 -0.00000000000E+00 -0.45593999997E+02  0.45594000000E+02  0.51100000000E-03 0. -1.
    9900012    2    1    2    0    0 -0.25098916097E+02  0.16822534571E+02  0.27206820191E+02  0.50528876503E+02  0.30000050618E+02 0.  0.
         12    1    1    2    0    0  0.25098916097E+02 -0.16822534571E+02 -0.27206820191E+02  0.40659123497E+02  0.00000000000E+00 0. -1.
         11    1    3    3    0    0 -0.97981788300E+00  0.70902420874E+01  0.66390993151E+01  0.97626439001E+01  0.51100000000E-03 0. -1.
        -11    1    3    3    0    0  0.38737440108E+01  0.20978349915E+00 -0.11873985687E+01  0.40570700511E+01  0.51100000000E-03 0.  1.
        -12    1    3    3    0    0 -0.27992842225E+02  0.95225089847E+01  0.21755119444E+02  0.36709162552E+02  0.00000000000E+00 0.  1.
</event>
<event>
 7    1  0.3383281E-011  0.5052887E+02  0.7816164E-02  0.1300439E+00
        -11   -1    0    0    0    0  0.00000000000E+00  0.00000000000E+00  0.45593999997E+02  0.45594000000E+02  0.51100000000E-03 0.  1.
         11   -1    0    0    0    0 -0.00000000000E+00 -0.00000000000E+00 -0.45593999997E+02  0.45594000000E+02  0.51100000000E-03 0. -1.
    9900012    2    1    2    0    0  0.94290547229E-01 -0.30446395276E+02  0.26947599657E+02  0.50528868144E+02  0.30000025210E+02 0.  0.
         12    1    1    2    0    0 -0.94290547229E-01  0.30446395276E+02 -0.26947599657E+02  0.40659131856E+02  0.00000000000E+00 0. -1.
         11    1    3    3    0    0  0.81696151439E+00 -0.90949170500E+00 -0.59128670639E+01  0.60379299809E+01  0.51100000000E-03 0. -1.
        -11    1    3    3    0    0  0.37336809181E+00 -0.12996209525E+01  0.34458470635E+01  0.37016591683E+01  0.51100000000E-03 0.  1.
         12    1    3    3    0    0 -0.10960390590E+01 -0.28237282618E+02  0.29414619658E+02  0.40789278995E+02  0.00000000000E+00 0. -1.
</event>
<event>
 7    1  0.3383281E-011  0.5052885E+02  0.7816164E-02  0.1300439E+00
        -11   -1    0    0    0    0  0.00000000000E+00  0.00000000000E+00  0.45593999997E+02  0.45594000000E+02  0.51100000000E-03 0.  1.
         11   -1    0    0    0    0 -0.00000000000E+00 -0.00000000000E+00 -0.45593999997E+02  0.45594000000E+02  0.51100000000E-03 0. -1.
    9900012    2    1    2    0    0  0.19128555303E+02 -0.24794580394E+02  0.25932480695E+02  0.50528850970E+02  0.29999973008E+02 0.  0.
         12    1    1    2    0    0 -0.19128555303E+02  0.24794580394E+02 -0.25932480695E+02  0.40659149030E+02  0.00000000000E+00 0. -1.
         11    1    3    3    0    0 -0.53184669730E+01 -0.21593187209E+01 -0.66695082733E+00  0.57787171542E+01  0.51100000000E-03 0. -1.
        -11    1    3    3    0    0  0.18127109505E+01 -0.41892798083E+01 -0.88626440961E+00  0.46498872209E+01  0.51100000000E-03 0.  1.
        -12    1    3    3    0    0  0.22634311325E+02 -0.18445981865E+02  0.27485695931E+02  0.40100246595E+02  0.00000000000E+00 0.  1.
</event>
<event>
 7    1  0.3383281E-011  0.5052887E+02  0.7816164E-02  0.1300439E+00
        -11   -1    0    0    0    0  0.00000000000E+00  0.00000000000E+00  0.45593999997E+02  0.45594000000E+02  0.51100000000E-03 0. -1.
         11   -1    0    0    0    0 -0.00000000000E+00 -0.00000000000E+00 -0.45593999997E+02  0.45594000000E+02  0.51100000000E-03 0.  1.
    9900012    2    1    2    0    0 -0.23940748884E+02  0.22376123149E+02 -0.24068952484E+02  0.50528870423E+02  0.30000032137E+02 0.  0.
         12    1    1    2    0    0  0.23940748884E+02 -0.22376123149E+02  0.24068952484E+02  0.40659129577E+02  0.00000000000E+00 0. -1.
         11    1    3    3    0    0  0.44004612706E+00 -0.25449235869E+01 -0.16631928497E+01  0.30718866147E+01  0.51100000000E-03 0. -1.
        -11    1    3    3    0    0 -0.62007707544E+01  0.36884790005E+01 -0.17696429273E+02  0.19110678810E+02  0.51100000000E-03 0.  1.
         12    1    3    3    0    0 -0.18180024256E+02  0.21232567735E+02 -0.47093303614E+01  0.28346304998E+02  0.00000000000E+00 0. -1.
</event>
<event>
 7    1  0.3383281E-011  0.5052886E+02  0.7816164E-02  0.1300439E+00
        -11   -1    0    0    0    0  0.00000000000E+00  0.00000000000E+00  0.45593999997E+02  0.45594000000E+02  0.51100000000E-03 0. -1.
         11   -1    0    0    0    0 -0.00000000000E+00 -0.00000000000E+00 -0.45593999997E+02  0.45594000000E+02  0.51100000000E-03 0.  1.
    9900012    2    1    2    0    0 -0.36907638991E+02  0.15348344414E+02  0.74444886239E+01  0.50528857080E+02  0.29999991581E+02 0.  0.
         12    1    1    2    0    0  0.36907638991E+02 -0.15348344414E+02 -0.74444886239E+01  0.40659142920E+02  0.00000000000E+00 0. -1.
         11    1    3    3    0    0 -0.74715706592E+01  0.69089971437E+01  0.11590851748E+02  0.15424216484E+02  0.51100000000E-03 0. -1.
        -11    1    3    3    0    0 -0.43393706669E+01 -0.43660510192E+01 -0.31436424038E+01  0.69119481415E+01  0.51100000000E-03 0.  1.
        -12    1    3    3    0    0 -0.25096697664E+02  0.12805398289E+02 -0.10027207203E+01  0.28192692455E+02  0.00000000000E+00 0.  1.
</event>
<event>
 7    1  0.3383281E-011  0.5052887E+02  0.7816164E-02  0.1300439E+00
        -11   -1    0    0    0    0  0.00000000000E+00  0.00000000000E+00  0.45593999997E+02  0.45594000000E+02  0.51100000000E-03 0.  1.
         11   -1    0    0    0    0 -0.00000000000E+00 -0.00000000000E+00 -0.45593999997E+02  0.45594000000E+02  0.51100000000E-03 0. -1.
    9900012    2    1    2    0    0 -0.29248779116E+02  0.25912305817E+02  0.11235055154E+02  0.50528866502E+02  0.30000020219E+02 0.  0.
         12    1    1    2    0    0  0.29248779116E+02 -0.25912305817E+02 -0.11235055154E+02  0.40659133498E+02  0.00000000000E+00 0. -1.
         11    1    3    3    0    0  0.20049548852E+00  0.27684744745E+01  0.61905139832E+01  0.67843284851E+01  0.51100000000E-03 0. -1.
        -11    1    3    3    0    0 -0.12744179970E+01 -0.38609205130E+01  0.21788153719E+01  0.46128174823E+01  0.51100000000E-03 0.  1.
        -12    1    3    3    0    0 -0.28174856607E+02  0.27004751855E+02  0.28657257988E+01  0.39131720534E+02  0.00000000000E+00 0.  1.
</event>
<event>
 7    1  0.3383281E-011  0.5052886E+02  0.7816164E-02  0.1300439E+00
        -11   -1    0    0    0    0  0.00000000000E+00  0.00000000000E+00  0.45593999997E+02  0.45594000000E+02  0.51100000000E-03 0. -1.
         11   -1    0    0    0    0 -0.00000000000E+00 -0.00000000000E+00 -0.45593999997E+02  0.45594000000E+02  0.51100000000E-03 0.  1.
    9900012    2    1    2    0    0 -0.36827493648E+01  0.39204666703E+02 -0.10129017485E+02  0.50528861674E+02  0.30000005545E+02 0.  0.
         12    1    1    2    0    0  0.36827493648E+01 -0.39204666703E+02  0.10129017485E+02  0.40659138326E+02  0.00000000000E+00 0. -1.
         11    1    3    3    0    0  0.37430734257E+01  0.17177504894E+01  0.19813428349E+01  0.45702281239E+01  0.51100000000E-03 0. -1.
        -11    1    3    3    0    0  0.43789579939E+01  0.61471678848E+00 -0.48585770297E+01  0.65695449505E+01  0.51100000000E-03 0.  1.
        -12    1    3    3    0    0 -0.11804780784E+02  0.36872199425E+02 -0.72517832902E+01  0.39389088600E+02  0.00000000000E+00 0.  1.
</event>
<event>
 7    1  0.3383281E-011  0.5052886E+02  0.7816164E-02  0.1300439E+00
        -11   -1    0    0    0    0  0.00000000000E+00  0.00000000000E+00  0.45593999997E+02  0.45594000000E+02  0.51100000000E-03 0. -1.
         11   -1    0    0    0    0 -0.00000000000E+00 -0.00000000000E+00 -0.45593999997E+02  0.45594000000E+02  0.51100000000E-03 0.  1.
    9900012    2    1    2    0    0 -0.51817885462E+01 -0.18706839183E+02 -0.35726302811E+02  0.50528862315E+02  0.30000007492E+02 0.  0.
         12    1    1    2    0    0  0.51817885462E+01  0.18706839183E+02  0.35726302811E+02  0.40659137685E+02  0.00000000000E+00 0. -1.
         11    1    3    3    0    0 -0.18527331668E+01 -0.12735106669E+01  0.11323255689E+01  0.25172626127E+01  0.51100000000E-03 0. -1.
        -11    1    3    3    0    0  0.68129480952E+01 -0.14480910071E+02 -0.93268853714E+01  0.18523061551E+02  0.51100000000E-03 0.  1.
        -12    1    3    3    0    0 -0.10142003475E+02 -0.29524184445E+01 -0.27531743009E+02  0.29488538151E+02  0.00000000000E+00 0.  1.
</event>
<event>
 7    1  0.3383281E-011  0.5052888E+02  0.7816164E-02  0.1300439E+00
        -11   -1    0    0    0    0  0.00000000000E+00  0.00000000000E+00  0.45593999997E+02  0.45594000000E+02  0.51100000000E-03 0. -1.
         11   -1    0    0    0    0 -0.00000000000E+00 -0.00000000000E+00 -0.45593999997E+02  0.45594000000E+02  0.51100000000E-03 0.  1.
    9900012    2    1    2    0    0  0.29184941844E+02 -0.23855567788E+02  0.15241898481E+02  0.50528875388E+02  0.30000047228E+02 0.  0.
         12    1    1    2    0    0 -0.29184941844E+02  0.23855567788E+02 -0.15241898481E+02  0.40659124612E+02  0.00000000000E+00 0. -1.
         11    1    3    3    0    0 -0.98131172187E+00 -0.32847925534E+01 -0.48824443724E+01  0.59658275306E+01  0.51100000000E-03 0. -1.
        -11    1    3    3    0    0  0.79930835022E+01  0.16931203659E+01  0.25430979688E+01  0.85570665526E+01  0.51100000000E-03 0.  1.
         12    1    3    3    0    0  0.22173170064E+02 -0.22263895601E+02  0.17581244884E+02  0.36005981304E+02  0.00000000000E+00 0. -1.
</event>
<event>
 7    1  0.3383281E-011  0.5052886E+02  0.7816164E-02  0.1300439E+00
        -11   -1    0    0    0    0  0.00000000000E+00  0.00000000000E+00  0.45593999997E+02  0.45594000000E+02  0.51100000000E-03 0.  1.
         11   -1    0    0    0    0 -0.00000000000E+00 -0.00000000000E+00 -0.45593999997E+02  0.45594000000E+02  0.51100000000E-03 0. -1.
    9900012    2    1    2    0    0  0.29098286325E+02 -0.24478742298E+02  0.14396066553E+02  0.50528858055E+02  0.29999994544E+02 0.  0.
         12    1    1    2    0    0 -0.29098286325E+02  0.24478742298E+02 -0.14396066553E+02  0.40659141945E+02  0.00000000000E+00 0. -1.
         11    1    3    3    0    0  0.19855228338E+02 -0.16141674253E+02  0.15028424275E+02  0.29675533298E+02  0.51100000000E-03 0. -1.
        -11    1    3    3    0    0  0.97144660606E+01 -0.10922174204E+02  0.43240458514E+01  0.15243428518E+02  0.51100000000E-03 0.  1.
         12    1    3    3    0    0 -0.47140807419E+00  0.25851061595E+01 -0.49564035742E+01  0.56098962396E+01  0.00000000000E+00 0. -1.
</event>
<event>
 7    1  0.3383281E-011  0.5052886E+02  0.7816164E-02  0.1300439E+00
        -11   -1    0    0    0    0  0.00000000000E+00  0.00000000000E+00  0.45593999997E+02  0.45594000000E+02  0.51100000000E-03 0. -1.
         11   -1    0    0    0    0 -0.00000000000E+00 -0.00000000000E+00 -0.45593999997E+02  0.45594000000E+02  0.51100000000E-03 0.  1.
    9900012    2    1    2    0    0  0.75468349612E+01 -0.28945631177E+02 -0.27538363179E+02  0.50528859223E+02  0.29999998095E+02 0.  0.
         12    1    1    2    0    0 -0.75468349612E+01  0.28945631177E+02  0.27538363179E+02  0.40659140777E+02  0.00000000000E+00 0. -1.
         11    1    3    3    0    0  0.53552397690E+01 -0.33450219265E+01  0.41216502275E+01  0.75402762238E+01  0.51100000000E-03 0. -1.
        -11    1    3    3    0    0  0.47870130665E+01 -0.18024077367E+01 -0.62828568214E+01  0.81017564668E+01  0.51100000000E-03 0.  1.
        -12    1    3    3    0    0 -0.25954178743E+01 -0.23798201513E+02 -0.25377156585E+02  0.34886826533E+02  0.00000000000E+00 0.  1.
</event>
<event>
 7    1  0.3383281E-011  0.5052884E+02  0.7816164E-02  0.1300439E+00
        -11   -1    0    0    0    0  0.00000000000E+00  0.00000000000E+00  0.45593999997E+02  0.45594000000E+02  0.51100000000E-03 0.  1.
         11   -1    0    0    0    0 -0.00000000000E+00 -0.00000000000E+00 -0.45593999997E+02  0.45594000000E+02  0.51100000000E-03 0. -1.
    9900012    2    1    2    0    0 -0.29712532228E+02 -0.10411398523E+02 -0.25728100332E+02  0.50528844361E+02  0.29999952919E+02 0.  0.
         12    1    1    2    0    0  0.29712532228E+02  0.10411398523E+02  0.25728100332E+02  0.40659155639E+02  0.00000000000E+00 0. -1.
         11    1    3    3    0    0 -0.71366748428E+01 -0.47342867424E+01 -0.41031065685E+01  0.94963720728E+01  0.51100000000E-03 0. -1.
        -11    1    3    3    0    0 -0.26577653666E+02 -0.49856767797E+01 -0.10189557528E+02  0.28897330849E+02  0.51100000000E-03 0.  1.
         12    1    3    3    0    0  0.40017962806E+01 -0.69143500058E+00 -0.11435436236E+02  0.12135141439E+02  0.00000000000E+00 0. -1.
</event>
<event>
 7    1  0.3383281E-011  0.5052886E+02  0.7816164E-02  0.1300439E+00
        -11   -1    0    0    0    0  0.00000000000E+00  0.00000000000E+00  0.45593999997E+02  0.45594000000E+02  0.51100000000E-03 0.  1.
         11   -1    0    0    0    0 -0.00000000000E+00 -0.00000000000E+00 -0.45593999997E+02  0.45594000000E+02  0.51100000000E-03 0. -1.
    9900012    2    1    2    0    0 -0.21354133459E+02  0.17099157504E+02  0.30079655250E+02  0.50528857571E+02  0.29999993072E+02 0.  0.
         12    1    1    2    0    0  0.21354133459E+02 -0.17099157504E+02 -0.30079655250E+02  0.40659142429E+02  0.00000000000E+00 0. -1.
         11    1    3    3    0    0 -0.14189580632E+02  0.13764397146E+02  0.23216576563E+02  0.30492823006E+02  0.51100000000E-03 0. -1.
        -11    1    3    3    0    0 -0.49108446072E+01  0.29550957133E+00  0.12394007654E+02  0.13334734592E+02  0.51100000000E-03 0.  1.
         12    1    3    3    0    0 -0.22537082203E+01  0.30392507860E+01 -0.55309289672E+01  0.67012999726E+01  0.00000000000E+00 0. -1.
</event>
<event>
 7    1  0.4874604E-011  0.5052886E+02  0.7816164E-02  0.1300439E+00
        -11   -1    0    0    0    0  0.00000000000E+00  0.00000000000E+00  0.45593999997E+02  0.45594000000E+02  0.51100000000E-03 0. -1.
         11   -1    0    0    0    0 -0.00000000000E+00 -0.00000000000E+00 -0.45593999997E+02  0.45594000000E+02  0.51100000000E-03 0.  1.
    9900012    2    1    2    0    0  0.23604661558E+02 -0.17261837988E+02 -0.28249146763E+02  0.50528863379E+02  0.30000010726E+02 0.  0.
         12    1    1    2    0    0 -0.23604661558E+02  0.17261837988E+02  0.28249146763E+02  0.40659136621E+02  0.00000000000E+00 0. -1.
         11    1    3    3    0    0  0.33753005536E+01 -0.10321232533E+02 -0.46046901795E+01  0.11795069595E+02  0.51100000000E-03 0. -1.
        -11    1    3    3    0    0  0.22150801364E+02 -0.35154331067E+01 -0.10037990051E+02  0.24571884656E+02  0.51100000000E-03 0.  1.
         12    1    3    3    0    0 -0.19214403602E+01 -0.34251723479E+01 -0.13606466532E+02  0.14161909128E+02  0.00000000000E+00 0. -1.
</event>
<event>
 7    1  0.3383281E-011  0.5052886E+02  0.7816164E-02  0.1300439E+00
        -11   -1    0    0    0    0  0.00000000000E+00  0.00000000000E+00  0.45593999997E+02  0.45594000000E+02  0.51100000000E-03 0.  1.
         11   -1    0    0    0    0 -0.00000000000E+00 -0.00000000000E+00 -0.45593999997E+02  0.45594000000E+02  0.51100000000E-03 0. -1.
    9900012    2    1    2    0    0 -0.91462690422E+01 -0.37004760720E+02  0.14147763382E+02  0.50528858813E+02  0.29999996848E+02 0.  0.
         12    1    1    2    0    0  0.91462690422E+01  0.37004760720E+02 -0.14147763382E+02  0.40659141187E+02  0.00000000000E+00 0. -1.
         11    1    3    3    0    0  0.96302375593E+00 -0.71344348630E+01 -0.78635358266E+01  0.10661274386E+02  0.51100000000E-03 0. -1.
        -11    1    3    3    0    0  0.18104751868E+01 -0.16349585014E+01  0.27184656844E+01  0.36525286640E+01  0.51100000000E-03 0.  1.
        -12    1    3    3    0    0 -0.11919767985E+02 -0.28235367356E+02  0.19292833525E+02  0.36215055763E+02  0.00000000000E+00 0.  1.
</event>
<event>
 7    1  0.3383281E-011  0.5052886E+02  0.7816164E-02  0.1300439E+00
        -11   -1    0    0    0    0  0.00000000000E+00  0.00000000000E+00  0.45593999997E+02  0.45594000000E+02  0.51100000000E-03 0.  1.
         11   -1    0    0    0    0 -0.00000000000E+00 -0.00000000000E+00 -0.45593999997E+02  0.45594000000E+02  0.51100000000E-03 0. -1.
    9900012    2    1    2    0    0  0.29259684977E+02 -0.26357123306E+02  0.10116246982E+02  0.50528861213E+02  0.30000004143E+02 0.  0.
         12    1    1    2    0    0 -0.29259684977E+02  0.26357123306E+02 -0.10116246982E+02  0.40659138787E+02  0.00000000000E+00 0. -1.
         11    1    3    3    0    0  0.94232785972E+01 -0.88863103542E+01  0.47041194195E+01  0.13780182546E+02  0.51100000000E-03 0. -1.
        -11    1    3    3    0    0  0.19230095647E+01 -0.16683954883E+02  0.80516839267E+01  0.18624766593E+02  0.51100000000E-03 0.  1.
         12    1    3    3    0    0  0.17913396815E+02 -0.78685806864E+00 -0.26395563637E+01  0.18123912074E+02  0.00000000000E+00 0. -1.
</event>
<event>
 7    1  0.3383281E-011  0.5052888E+02  0.7816164E-02  0.1300439E+00
        -11   -1    0    0    0    0  0.00000000000E+00  0.00000000000E+00  0.45593999997E+02  0.45594000000E+02  0.51100000000E-03 0.  1.
         11   -1    0    0    0    0 -0.00000000000E+00 -0.00000000000E+00 -0.45593999997E+02  0.45594000000E+02  0.51100000000E-03 0. -1.
    9900012    2    1    2    0    0 -0.15102617722E+02 -0.25518646551E+02  0.27818590133E+02  0.50528876290E+02  0.30000049971E+02 0.  0.
         12    1    1    2    0    0  0.15102617722E+02  0.25518646551E+02 -0.27818590133E+02  0.40659123710E+02  0.00000000000E+00 0. -1.
         11    1    3    3    0    0 -0.41951245562E+01 -0.10857285952E+02  0.20874619640E+02  0.23900407395E+02  0.51100000000E-03 0. -1.
        -11    1    3    3    0    0 -0.51117003922E+01  0.34160598314E+00  0.90581720990E+01  0.10406568002E+02  0.51100000000E-03 0.  1.
         12    1    3    3    0    0 -0.57957927732E+01 -0.15002966582E+02 -0.21142016053E+01  0.16221900893E+02  0.00000000000E+00 0. -1.
</event>
<event>
 7    1  0.3383281E-011  0.5052886E+02  0.7816164E-02  0.1300439E+00
        -11   -1    0    0    0    0  0.00000000000E+00  0.00000000000E+00  0.45593999997E+02  0.45594000000E+02  0.51100000000E-03 0.  1.
         11   -1    0    0    0    0 -0.00000000000E+00 -0.00000000000E+00 -0.45593999997E+02  0.45594000000E+02  0.51100000000E-03 0. -1.
    9900012    2    1    2    0    0 -0.24791369897E+02 -0.29241930802E+02  0.13544863308E+02  0.50528857604E+02  0.29999993172E+02 0.  0.
         12    1    1    2    0    0  0.24791369897E+02  0.29241930802E+02 -0.13544863308E+02  0.40659142396E+02  0.00000000000E+00 0. -1.
         11    1    3    3    0    0  0.16645661544E+01 -0.48859931827E+00 -0.53474904111E+01  0.56218470038E+01  0.51100000000E-03 0. -1.
        -11    1    3    3    0    0 -0.15152597191E+01 -0.51718452864E+01 -0.61978373907E+00  0.54247698410E+01  0.51100000000E-03 0.  1.
        -12    1    3    3    0    0 -0.24940676332E+02 -0.23581486197E+02  0.19512137458E+02  0.39482240759E+02  0.00000000000E+00 0.  1.
</event>
<event>
 7    1  0.3383281E-011  0.5052885E+02  0.7816164E-02  0.1300439E+00
        -11   -1    0    0    0    0  0.00000000000E+00  0.00000000000E+00  0.45593999997E+02  0.45594000000E+02  0.51100000000E-03 0. -1.
         11   -1    0    0    0    0 -0.00000000000E+00 -0.00000000000E+00 -0.45593999997E+02  0.45594000000E+02  0.51100000000E-03 0.  1.
    9900012    2    1    2    0    0 -0.76701887936E+01  0.29213179567E+02  0.27219940248E+02  0.50528846004E+02  0.29999957915E+02 0.  0.
         12    1    1    2    0    0  0.76701887936E+01 -0.29213179567E+02 -0.27219940248E+02  0.40659153996E+02  0.00000000000E+00 0. -1.
         11    1    3    3    0    0 -0.76543862469E+01  0.12115228255E+02  0.36580424489E+01  0.14790187940E+02  0.51100000000E-03 0. -1.
        -11    1    3    3    0    0  0.12466368058E-01  0.17004477993E+02  0.57851419191E+01  0.17961633960E+02  0.51100000000E-03 0.  1.
         12    1    3    3    0    0 -0.28268914744E-01  0.93473319284E-01  0.17776755880E+02  0.17777024104E+02  0.00000000000E+00 0. -1.
</event>
<event>
 7    1  0.3383281E-011  0.5052886E+02  0.7816164E-02  0.1300439E+00
        -11   -1    0    0    0    0  0.00000000000E+00  0.00000000000E+00  0.45593999997E+02  0.45594000000E+02  0.51100000000E-03 0. -1.
         11   -1    0    0    0    0 -0.00000000000E+00 -0.00000000000E+00 -0.45593999997E+02  0.45594000000E+02  0.51100000000E-03 0.  1.
    9900012    2    1    2    0    0  0.13161726876E+02 -0.34950853296E+02 -0.16073962417E+02  0.50528862427E+02  0.30000007832E+02 0.  0.
         12    1    1    2    0    0 -0.13161726876E+02  0.34950853296E+02  0.16073962417E+02  0.40659137573E+02  0.00000000000E+00 0. -1.
         11    1    3    3    0    0  0.57982537443E+01  0.12561676822E+01  0.32425894100E+01  0.67610716659E+01  0.51100000000E-03 0. -1.
        -11    1    3    3    0    0 -0.14467857106E+01 -0.31689079114E+01  0.14385443006E+01  0.37688958873E+01  0.51100000000E-03 0.  1.
         12    1    3    3    0    0  0.88102588419E+01 -0.33038113066E+02 -0.20755096127E+02  0.39998894873E+02  0.00000000000E+00 0. -1.
</event>
<event>
 7    1  0.3383281E-011  0.5052887E+02  0.7816164E-02  0.1300439E+00
        -11   -1    0    0    0    0  0.00000000000E+00  0.00000000000E+00  0.45593999997E+02  0.45594000000E+02  0.51100000000E-03 0.  1.
         11   -1    0    0    0    0 -0.00000000000E+00 -0.00000000000E+00 -0.45593999997E+02  0.45594000000E+02  0.51100000000E-03 0. -1.
    9900012    2    1    2    0    0 -0.76734190275E+01 -0.71659456382E+01  0.39280185924E+02  0.50528866430E+02  0.30000020000E+02 0.  0.
         12    1    1    2    0    0  0.76734190275E+01  0.71659456382E+01 -0.39280185924E+02  0.40659133570E+02  0.00000000000E+00 0. -1.
         11    1    3    3    0    0 -0.81501057942E+01 -0.14242256640E+02  0.15507108313E+02  0.22577344997E+02  0.51100000000E-03 0. -1.
        -11    1    3    3    0    0  0.18434515760E+01 -0.30714619125E+01  0.25803140634E+01  0.44147721254E+01  0.51100000000E-03 0.  1.
         12    1    3    3    0    0 -0.13667648092E+01  0.10147772914E+02  0.21192763548E+02  0.23536749307E+02  0.00000000000E+00 0. -1.
</event>
<event>
 7    1  0.3383281E-011  0.5052884E+02  0.7816164E-02  0.1300439E+00
        -11   -1    0    0    0    0  0.00000000000E+00  0.00000000000E+00  0.45593999997E+02  0.45594000000E+02  0.51100000000E-03 0.  1.
         11   -1    0    0    0    0 -0.00000000000E+00 -0.00000000000E+00 -0.45593999997E+02  0.45594000000E+02  0.51100000000E-03 0. -1.
    9900012    2    1    2    0    0 -0.18457921070E+02 -0.34130452798E+02  0.12148452551E+02  0.50528836730E+02  0.29999929724E+02 0.  0.
         12    1    1    2    0    0  0.18457921070E+02  0.34130452798E+02 -0.12148452551E+02  0.40659163270E+02  0.00000000000E+00 0. -1.
         11    1    3    3    0    0 -0.40370740272E+01 -0.80738034084E+01  0.11412796657E+02  0.14551157891E+02  0.51100000000E-03 0. -1.
        -11    1    3    3    0    0  0.14213374089E+01 -0.13177826888E+02  0.65008611173E+01  0.14762673100E+02  0.51100000000E-03 0.  1.
         12    1    3    3    0    0 -0.15842184452E+02 -0.12878822502E+02 -0.57652052230E+01  0.21215005739E+02  0.00000000000E+00 0. -1.
</event>
<event>
 7    1  0.3383281E-011  0.5052885E+02  0.7816164E-02  0.1300439E+00
        -11   -1    0    0    0    0  0.00000000000E+00  0.00000000000E+00  0.45593999997E+02  0.45594000000E+02  0.51100000000E-03 0. -1.
         11   -1    0    0    0    0 -0.00000000000E+00 -0.00000000000E+00 -0.45593999997E+02  0.45594000000E+02  0.51100000000E-03 0.  1.
    9900012    2    1    2    0    0  0.26307798637E+02 -0.17782052104E+02 -0.25394183806E+02  0.50528853215E+02  0.29999979831E+02 0.  0.
         12    1    1    2    0    0 -0.26307798637E+02  0.17782052104E+02  0.25394183806E+02  0.40659146785E+02  0.00000000000E+00 0. -1.
         11    1    3    3    0    0  0.12661521191E+01 -0.60636446595E+00  0.37859421675E+01  0.40378431632E+01  0.51100000000E-03 0.  1.
        -11    1    3    3    0    0  0.14529528381E+02 -0.48542118565E+01 -0.28553414627E+01  0.15582796375E+02  0.51100000000E-03 0. -1.
        -12    1    3    3    0    0  0.10512118136E+02 -0.12321475781E+02 -0.26324784511E+02  0.30908213677E+02  0.00000000000E+00 0.  1.
</event>
<event>
 7    1  0.3383281E-011  0.5052885E+02  0.7816164E-02  0.1300439E+00
        -11   -1    0    0    0    0  0.00000000000E+00  0.00000000000E+00  0.45593999997E+02  0.45594000000E+02  0.51100000000E-03 0.  1.
         11   -1    0    0    0    0 -0.00000000000E+00 -0.00000000000E+00 -0.45593999997E+02  0.45594000000E+02  0.51100000000E-03 0. -1.
    9900012    2    1    2    0    0 -0.31800184521E+02  0.22202767725E+02 -0.12204570603E+02  0.50528853750E+02  0.29999981459E+02 0.  0.
         12    1    1    2    0    0  0.31800184521E+02 -0.22202767725E+02  0.12204570603E+02  0.40659146250E+02  0.00000000000E+00 0. -1.
         11    1    3    3    0    0 -0.47948112270E+01  0.44119725466E+01 -0.43799845565E+01  0.78511133880E+01  0.51100000000E-03 0. -1.
        -11    1    3    3    0    0 -0.42566868492E+01  0.18361256125E+02 -0.81125079609E+00  0.18865662923E+02  0.51100000000E-03 0.  1.
        -12    1    3    3    0    0 -0.22748686444E+02 -0.57046094698E+00 -0.70133352500E+01  0.23812077439E+02  0.00000000000E+00 0.  1.
</event>
<event>
 7    1  0.3383281E-011  0.5052886E+02  0.7816164E-02  0.1300439E+00
        -11   -1    0    0    0    0  0.00000000000E+00  0.00000000000E+00  0.45593999997E+02  0.45594000000E+02  0.51100000000E-03 0.  1.
         11   -1    0    0    0    0 -0.00000000000E+00 -0.00000000000E+00 -0.45593999997E+02  0.45594000000E+02  0.51100000000E-03 0. -1.
    9900012    2    1    2    0    0 -0.96988596208E+01  0.98895649341E+01  0.38226881921E+02  0.50528857437E+02  0.29999992665E+02 0.  0.
         12    1    1    2    0    0  0.96988596208E+01 -0.98895649341E+01 -0.38226881921E+02  0.40659142563E+02  0.00000000000E+00 0. -1.
         11    1    3    3    0    0  0.13342130686E-01  0.11467726441E+02  0.86097875506E+01  0.14340061704E+02  0.51100000000E-03 0. -1.
        -11    1    3    3    0    0  0.15643028754E+01 -0.76311909559E+01  0.88038504768E+01  0.11755420127E+02  0.51100000000E-03 0.  1.
        -12    1    3    3    0    0 -0.11276504627E+02  0.60530294491E+01  0.20813243894E+02  0.24433375606E+02  0.00000000000E+00 0.  1.
</event>
<event>
 7    1  0.3383281E-011  0.5052888E+02  0.7816164E-02  0.1300439E+00
        -11   -1    0    0    0    0  0.00000000000E+00  0.00000000000E+00  0.45593999997E+02  0.45594000000E+02  0.51100000000E-03 0.  1.
         11   -1    0    0    0    0 -0.00000000000E+00 -0.00000000000E+00 -0.45593999997E+02  0.45594000000E+02  0.51100000000E-03 0. -1.
    9900012    2    1    2    0    0 -0.29314471508E+02  0.27088185955E+02 -0.77496036357E+01  0.50528875382E+02  0.30000047212E+02 0.  0.
         12    1    1    2    0    0  0.29314471508E+02 -0.27088185955E+02  0.77496036357E+01  0.40659124618E+02  0.00000000000E+00 0. -1.
         11    1    3    3    0    0 -0.19057213450E+02  0.14082541230E+02 -0.16350803825E+02  0.28789653314E+02  0.51100000000E-03 0. -1.
        -11    1    3    3    0    0  0.73610437951E-01 -0.67682038514E+00 -0.16351769964E+01  0.17712448732E+01  0.51100000000E-03 0.  1.
        -12    1    3    3    0    0 -0.10330868496E+02  0.13682465110E+02  0.10236377185E+02  0.19967977195E+02  0.00000000000E+00 0.  1.
</event>
<event>
 7    1  0.3383281E-011  0.5052886E+02  0.7816164E-02  0.1300439E+00
        -11   -1    0    0    0    0  0.00000000000E+00  0.00000000000E+00  0.45593999997E+02  0.45594000000E+02  0.51100000000E-03 0.  1.
         11   -1    0    0    0    0 -0.00000000000E+00 -0.00000000000E+00 -0.45593999997E+02  0.45594000000E+02  0.51100000000E-03 0. -1.
    9900012    2    1    2    0    0 -0.17153706302E+02 -0.14066371852E+02  0.34074226501E+02  0.50528863651E+02  0.30000011554E+02 0.  0.
         12    1    1    2    0    0  0.17153706302E+02  0.14066371852E+02 -0.34074226501E+02  0.40659136349E+02  0.00000000000E+00 0. -1.
         11    1    3    3    0    0 -0.91933662585E+01 -0.63617528257E+01 -0.21274790045E+01  0.11380511823E+02  0.51100000000E-03 0. -1.
        -11    1    3    3    0    0 -0.51767626297E+01 -0.28338166608E+01  0.59484970664E+01  0.83793797982E+01  0.51100000000E-03 0.  1.
        -12    1    3    3    0    0 -0.27835774141E+01 -0.48708023659E+01  0.30253208439E+02  0.30768972030E+02  0.00000000000E+00 0.  1.
</event>
<event>
 7    1  0.3383281E-011  0.5052886E+02  0.7816164E-02  0.1300439E+00
        -11   -1    0    0    0    0  0.00000000000E+00  0.00000000000E+00  0.45593999997E+02  0.45594000000E+02  0.51100000000E-03 0.  1.
         11   -1    0    0    0    0 -0.00000000000E+00 -0.00000000000E+00 -0.45593999997E+02  0.45594000000E+02  0.51100000000E-03 0. -1.
    9900012    2    1    2    0    0 -0.13587064555E+02  0.38268615540E+02  0.20175616240E+01  0.50528858181E+02  0.29999994927E+02 0.  0.
         12    1    1    2    0    0  0.13587064555E+02 -0.38268615540E+02 -0.20175616240E+01  0.40659141819E+02  0.00000000000E+00 0. -1.
         11    1    3    3    0    0 -0.22920510389E+01  0.26115645047E+02  0.90684451110E+01  0.27740171434E+02  0.51100000000E-03 0. -1.
        -11    1    3    3    0    0 -0.99869162474E+01  0.13694023150E+02 -0.16584404635E+01  0.17029832389E+02  0.51100000000E-03 0.  1.
         12    1    3    3    0    0 -0.13080972684E+01 -0.15410526574E+01 -0.53924430235E+01  0.57588543581E+01  0.00000000000E+00 0. -1.
</event>
<event>
 7    1  0.3383281E-011  0.5052886E+02  0.7816164E-02  0.1300439E+00
        -11   -1    0    0    0    0  0.00000000000E+00  0.00000000000E+00  0.45593999997E+02  0.45594000000E+02  0.51100000000E-03 0. -1.
         11   -1    0    0    0    0 -0.00000000000E+00 -0.00000000000E+00 -0.45593999997E+02  0.45594000000E+02  0.51100000000E-03 0.  1.
    9900012    2    1    2    0    0 -0.31291344700E+02 -0.25400101586E+02 -0.53714511617E+01  0.50528857101E+02  0.29999991645E+02 0.  0.
         12    1    1    2    0    0  0.31291344700E+02  0.25400101586E+02  0.53714511617E+01  0.40659142899E+02  0.00000000000E+00 0. -1.
         11    1    3    3    0    0 -0.13923851927E+02 -0.58565805241E+01  0.16763961636E+01  0.15198141079E+02  0.51100000000E-03 0. -1.
        -11    1    3    3    0    0 -0.18376499985E+02 -0.13457849676E+02 -0.13440346159E+02  0.26447161941E+02  0.51100000000E-03 0.  1.
        -12    1    3    3    0    0  0.10090072117E+01 -0.60856713857E+01  0.63924988339E+01  0.88835540810E+01  0.00000000000E+00 0.  1.
</event>
<event>
 7    1  0.3383281E-011  0.5052886E+02  0.7816164E-02  0.1300439E+00
        -11   -1    0    0    0    0  0.00000000000E+00  0.00000000000E+00  0.45593999997E+02  0.45594000000E+02  0.51100000000E-03 0.  1.
         11   -1    0    0    0    0 -0.00000000000E+00 -0.00000000000E+00 -0.45593999997E+02  0.45594000000E+02  0.51100000000E-03 0. -1.
    9900012    2    1    2    0    0  0.19599908499E+02  0.35101895031E+02 -0.60717623819E+01  0.50528859006E+02  0.29999997435E+02 0.  0.
         12    1    1    2    0    0 -0.19599908499E+02 -0.35101895031E+02  0.60717623819E+01  0.40659140994E+02  0.00000000000E+00 0. -1.
         11    1    3    3    0    0  0.21713647420E+01  0.13278500358E+02  0.81245343645E+01  0.15717552465E+02  0.51100000000E-03 0. -1.
        -11    1    3    3    0    0  0.51540626282E+01  0.13454291000E+02 -0.21282265813E+00  0.14409288728E+02  0.51100000000E-03 0.  1.
        -12    1    3    3    0    0  0.12274481128E+02  0.83691036727E+01 -0.13983474088E+02  0.20402017813E+02  0.00000000000E+00 0.  1.
</event>
<event>
 7    1  0.3383281E-011  0.5052888E+02  0.7816164E-02  0.1300439E+00
        -11   -1    0    0    0    0  0.00000000000E+00  0.00000000000E+00  0.45593999997E+02  0.45594000000E+02  0.51100000000E-03 0.  1.
         11   -1    0    0    0    0 -0.00000000000E+00 -0.00000000000E+00 -0.45593999997E+02  0.45594000000E+02  0.51100000000E-03 0. -1.
    9900012    2    1    2    0    0  0.17880753932E+02  0.35500834717E+02 -0.85518050367E+01  0.50528880529E+02  0.30000062857E+02 0.  0.
         12    1    1    2    0    0 -0.17880753932E+02 -0.35500834717E+02  0.85518050367E+01  0.40659119471E+02  0.00000000000E+00 0. -1.
         11    1    3    3    0    0  0.32618772820E+01 -0.22882976153E+01  0.59693559768E+00  0.40289554165E+01  0.51100000000E-03 0. -1.
        -11    1    3    3    0    0  0.61015544436E+01  0.18024177932E+02 -0.14961959022E+02  0.24206614278E+02  0.51100000000E-03 0.  1.
         12    1    3    3    0    0  0.85173222059E+01  0.19764954400E+02  0.58132183873E+01  0.22293310835E+02  0.00000000000E+00 0. -1.
</event>
<event>
 7    1  0.3383281E-011  0.5052886E+02  0.7816164E-02  0.1300439E+00
        -11   -1    0    0    0    0  0.00000000000E+00  0.00000000000E+00  0.45593999997E+02  0.45594000000E+02  0.51100000000E-03 0. -1.
         11   -1    0    0    0    0 -0.00000000000E+00 -0.00000000000E+00 -0.45593999997E+02  0.45594000000E+02  0.51100000000E-03 0.  1.
    9900012    2    1    2    0    0 -0.28985354278E+02  0.27665196760E+02 -0.69030117098E+01  0.50528862711E+02  0.30000008697E+02 0.  0.
         12    1    1    2    0    0  0.28985354278E+02 -0.27665196760E+02  0.69030117098E+01  0.40659137289E+02  0.00000000000E+00 0. -1.
         11    1    3    3    0    0  0.21047733928E+01  0.59343951679E+01  0.35098605994E+01  0.72087612481E+01  0.51100000000E-03 0. -1.
        -11    1    3    3    0    0 -0.11796024076E+02  0.19003017275E+02 -0.76534418627E+01  0.23639712818E+02  0.51100000000E-03 0.  1.
        -12    1    3    3    0    0 -0.19294103595E+02  0.27277843178E+01 -0.27594304465E+01  0.19680388645E+02  0.00000000000E+00 0.  1.
</event>
<event>
 7    1  0.3383281E-011  0.5052885E+02  0.7816164E-02  0.1300439E+00
        -11   -1    0    0    0    0  0.00000000000E+00  0.00000000000E+00  0.45593999997E+02  0.45594000000E+02  0.51100000000E-03 0.  1.
         11   -1    0    0    0    0 -0.00000000000E+00 -0.00000000000E+00 -0.45593999997E+02  0.45594000000E+02  0.51100000000E-03 0. -1.
    9900012    2    1    2    0    0 -0.27962912259E+02  0.12725273647E+02  0.26632870112E+02  0.50528845781E+02  0.29999957236E+02 0.  0.
         12    1    1    2    0    0  0.27962912259E+02 -0.12725273647E+02 -0.26632870112E+02  0.40659154219E+02  0.00000000000E+00 0. -1.
         11    1    3    3    0    0  0.20716420183E+01  0.10339452056E+01  0.10388953451E+02  0.10643829076E+02  0.51100000000E-03 0. -1.
        -11    1    3    3    0    0 -0.75977013685E+00  0.42955510099E+01  0.71058495405E+01  0.83379917901E+01  0.51100000000E-03 0.  1.
         12    1    3    3    0    0 -0.29274784140E+02  0.73957774311E+01  0.91380671211E+01  0.31547024915E+02  0.00000000000E+00 0. -1.
</event>
<event>
 7    1  0.3383281E-011  0.5052887E+02  0.7816164E-02  0.1300439E+00
        -11   -1    0    0    0    0  0.00000000000E+00  0.00000000000E+00  0.45593999997E+02  0.45594000000E+02  0.51100000000E-03 0. -1.
         11   -1    0    0    0    0 -0.00000000000E+00 -0.00000000000E+00 -0.45593999997E+02  0.45594000000E+02  0.51100000000E-03 0.  1.
    9900012    2    1    2    0    0  0.13337878593E+02  0.17079016793E+02 -0.34403090616E+02  0.50528874778E+02  0.30000045374E+02 0.  0.
         12    1    1    2    0    0 -0.13337878593E+02 -0.17079016793E+02  0.34403090616E+02  0.40659125222E+02  0.00000000000E+00 0. -1.
         11    1    3    3    0    0  0.13330746808E+02  0.13562369033E+02 -0.18893382302E+02  0.26806837921E+02  0.51100000000E-03 0. -1.
        -11    1    3    3    0    0 -0.80498019843E+01  0.53756257488E+01 -0.82296733013E+01  0.12705281858E+02  0.51100000000E-03 0.  1.
         12    1    3    3    0    0  0.80569337687E+01 -0.18589779895E+01 -0.72800350125E+01  0.11016754999E+02  0.00000000000E+00 0. -1.
</event>
<event>
 7    1  0.3383281E-011  0.5052883E+02  0.7816164E-02  0.1300439E+00
        -11   -1    0    0    0    0  0.00000000000E+00  0.00000000000E+00  0.45593999997E+02  0.45594000000E+02  0.51100000000E-03 0.  1.
         11   -1    0    0    0    0 -0.00000000000E+00 -0.00000000000E+00 -0.45593999997E+02  0.45594000000E+02  0.51100000000E-03 0. -1.
    9900012    2    1    2    0    0 -0.75356736178E+01 -0.34173463419E+02 -0.20701589653E+02  0.50528833837E+02  0.29999920931E+02 0.  0.
         12    1    1    2    0    0  0.75356736178E+01  0.34173463419E+02  0.20701589653E+02  0.40659166163E+02  0.00000000000E+00 0. -1.
         11    1    3    3    0    0  0.37160011195E+01 -0.50718823240E+01  0.28212831989E+01  0.68914652853E+01  0.51100000000E-03 0. -1.
        -11    1    3    3    0    0  0.53298263048E+01 -0.54234702602E+01 -0.70341620036E+01  0.10358596114E+02  0.51100000000E-03 0.  1.
        -12    1    3    3    0    0 -0.16581501042E+02 -0.23678110835E+02 -0.16488710849E+02  0.33278772438E+02  0.00000000000E+00 0.  1.
</event>
<event>
 7    1  0.3383281E-011  0.5052886E+02  0.7816164E-02  0.1300439E+00
        -11   -1    0    0    0    0  0.00000000000E+00  0.00000000000E+00  0.45593999997E+02  0.45594000000E+02  0.51100000000E-03 0.  1.
         11   -1    0    0    0    0 -0.00000000000E+00 -0.00000000000E+00 -0.45593999997E+02  0.45594000000E+02  0.51100000000E-03 0. -1.
    9900012    2    1    2    0    0  0.92642843046E+01 -0.15336753010E+02  0.36498251886E+02  0.50528863914E+02  0.30000012352E+02 0.  0.
         12    1    1    2    0    0 -0.92642843046E+01  0.15336753010E+02 -0.36498251886E+02  0.40659136086E+02  0.00000000000E+00 0. -1.
         11    1    3    3    0    0 -0.28672903171E+01 -0.32045827826E+01  0.46670135324E+01  0.63460003266E+01  0.51100000000E-03 0. -1.
        -11    1    3    3    0    0 -0.49935015885E+00 -0.15424261207E+02  0.89486549298E+01  0.17839159444E+02  0.51100000000E-03 0.  1.
         12    1    3    3    0    0  0.12630924781E+02  0.32920909798E+01  0.22882583424E+02  0.26343704143E+02  0.00000000000E+00 0. -1.
</event>
<event>
 7    1  0.3692012E-011  0.5052886E+02  0.7816164E-02  0.1300439E+00
        -11   -1    0    0    0    0  0.00000000000E+00  0.00000000000E+00  0.45593999997E+02  0.45594000000E+02  0.51100000000E-03 0. -1.
         11   -1    0    0    0    0 -0.00000000000E+00 -0.00000000000E+00 -0.45593999997E+02  0.45594000000E+02  0.51100000000E-03 0.  1.
    9900012    2    1    2    0    0 -0.11168876991E+02 -0.20697065410E+02 -0.33167050611E+02  0.50528861100E+02  0.30000003799E+02 0.  0.
         12    1    1    2    0    0  0.11168876991E+02  0.20697065410E+02  0.33167050611E+02  0.40659138900E+02  0.00000000000E+00 0. -1.
         11    1    3    3    0    0  0.68429432506E+01 -0.46462598968E+01 -0.10464963683E+02  0.13339005529E+02  0.51100000000E-03 0. -1.
        -11    1    3    3    0    0 -0.16499380400E+02 -0.52758402326E+01 -0.18965141421E+02  0.25685416740E+02  0.51100000000E-03 0.  1.
         12    1    3    3    0    0 -0.15124398416E+01 -0.10774965281E+02 -0.37369455075E+01  0.11504438830E+02  0.00000000000E+00 0. -1.
</event>
<event>
 7    1  0.3383281E-011  0.5052886E+02  0.7816164E-02  0.1300439E+00
        -11   -1    0    0    0    0  0.00000000000E+00  0.00000000000E+00  0.45593999997E+02  0.45594000000E+02  0.51100000000E-03 0. -1.
         11   -1    0    0    0    0 -0.00000000000E+00 -0.00000000000E+00 -0.45593999997E+02  0.45594000000E+02  0.51100000000E-03 0.  1.
    9900012    2    1    2    0    0  0.14003496707E+02 -0.37932855449E+02 -0.42622008138E+01  0.50528858367E+02  0.29999995492E+02 0.  0.
         12    1    1    2    0    0 -0.14003496707E+02  0.37932855449E+02  0.42622008138E+01  0.40659141633E+02  0.00000000000E+00 0. -1.
         11    1    3    3    0    0 -0.13178658031E+01 -0.15129715492E+02 -0.61951830379E+01  0.16401992387E+02  0.51100000000E-03 0.  1.
        -11    1    3    3    0    0  0.15580127638E+01 -0.91705214004E+01  0.95311354929E+01  0.13317973216E+02  0.51100000000E-03 0. -1.
         12    1    3    3    0    0  0.13763349746E+02 -0.13632618557E+02 -0.75981532687E+01  0.20808892764E+02  0.00000000000E+00 0. -1.
</event>
<event>
 7    1  0.3383281E-011  0.5052886E+02  0.7816164E-02  0.1300439E+00
        -11   -1    0    0    0    0  0.00000000000E+00  0.00000000000E+00  0.45593999997E+02  0.45594000000E+02  0.51100000000E-03 0. -1.
         11   -1    0    0    0    0 -0.00000000000E+00 -0.00000000000E+00 -0.45593999997E+02  0.45594000000E+02  0.51100000000E-03 0.  1.
    9900012    2    1    2    0    0  0.20959649825E+02  0.60134798952E+01 -0.34317590976E+02  0.50528856974E+02  0.29999991257E+02 0.  0.
         12    1    1    2    0    0 -0.20959649825E+02 -0.60134798952E+01  0.34317590976E+02  0.40659143026E+02  0.00000000000E+00 0. -1.
         11    1    3    3    0    0  0.55469915714E+01 -0.22666545577E+01 -0.13583240101E+02  0.14846253746E+02  0.51100000000E-03 0. -1.
        -11    1    3    3    0    0  0.20873843942E+02  0.90210378149E+01 -0.19676171760E+02  0.30070720303E+02  0.51100000000E-03 0.  1.
         12    1    3    3    0    0 -0.54611856886E+01 -0.74090336200E+00 -0.10581791148E+01  0.56118829244E+01  0.00000000000E+00 0. -1.
</event>
<event>
 7    1  0.3383281E-011  0.5052885E+02  0.7816164E-02  0.1300439E+00
        -11   -1    0    0    0    0  0.00000000000E+00  0.00000000000E+00  0.45593999997E+02  0.45594000000E+02  0.51100000000E-03 0.  1.
         11   -1    0    0    0    0 -0.00000000000E+00 -0.00000000000E+00 -0.45593999997E+02  0.45594000000E+02  0.51100000000E-03 0. -1.
    9900012    2    1    2    0    0  0.18189461520E+02  0.16680839583E+02  0.32311904352E+02  0.50528854873E+02  0.29999984871E+02 0.  0.
         12    1    1    2    0    0 -0.18189461520E+02 -0.16680839583E+02 -0.32311904352E+02  0.40659145127E+02  0.00000000000E+00 0. -1.
         11    1    3    3    0    0  0.22854050040E+02  0.80268640177E+01  0.12541860261E+02  0.27277030781E+02  0.51100000000E-03 0. -1.
        -11    1    3    3    0    0 -0.52822912868E+00  0.13807962869E+01 -0.29910018326E+00  0.15083386818E+01  0.51100000000E-03 0.  1.
        -12    1    3    3    0    0 -0.41363593907E+01  0.72731792786E+01  0.20069144275E+02  0.21743485410E+02  0.00000000000E+00 0.  1.
</event>
<event>
 7    1  0.3383281E-011  0.5052886E+02  0.7816164E-02  0.1300439E+00
        -11   -1    0    0    0    0  0.00000000000E+00  0.00000000000E+00  0.45593999997E+02  0.45594000000E+02  0.51100000000E-03 0.  1.
         11   -1    0    0    0    0 -0.00000000000E+00 -0.00000000000E+00 -0.45593999997E+02  0.45594000000E+02  0.51100000000E-03 0. -1.
    9900012    2    1    2    0    0 -0.17018281612E+02 -0.13987034975E+02  0.34174650765E+02  0.50528858207E+02  0.29999995005E+02 0.  0.
         12    1    1    2    0    0  0.17018281612E+02  0.13987034975E+02 -0.34174650765E+02  0.40659141793E+02  0.00000000000E+00 0. -1.
         11    1    3    3    0    0 -0.43670787998E+01 -0.15430459146E+02  0.12935364806E+02  0.20603254831E+02  0.51100000000E-03 0. -1.
        -11    1    3    3    0    0  0.28046176194E+01 -0.34685154886E+01  0.72288348001E+01  0.84942646835E+01  0.51100000000E-03 0.  1.
        -12    1    3    3    0    0 -0.15455820432E+02  0.49119396596E+01  0.14010451159E+02  0.21431338692E+02  0.00000000000E+00 0.  1.
</event>
<event>
 7    1  0.3383281E-011  0.5052885E+02  0.7816164E-02  0.1300439E+00
        -11   -1    0    0    0    0  0.00000000000E+00  0.00000000000E+00  0.45593999997E+02  0.45594000000E+02  0.51100000000E-03 0.  1.
         11   -1    0    0    0    0 -0.00000000000E+00 -0.00000000000E+00 -0.45593999997E+02  0.45594000000E+02  0.51100000000E-03 0. -1.
    9900012    2    1    2    0    0  0.12743009785E+02  0.32351843803E+02  0.21074638583E+02  0.50528849896E+02  0.29999969743E+02 0.  0.
         12    1    1    2    0    0 -0.12743009785E+02 -0.32351843803E+02 -0.21074638583E+02  0.40659150104E+02  0.00000000000E+00 0. -1.
         11    1    3    3    0    0 -0.23263528517E+01  0.92900331323E+01  0.27079479574E+01  0.99523673361E+01  0.51100000000E-03 0. -1.
        -11    1    3    3    0    0  0.35381851868E+01  0.23670106523E+02  0.16001326490E+02  0.28789497164E+02  0.51100000000E-03 0.  1.
        -12    1    3    3    0    0  0.11531177450E+02 -0.60829585264E+00  0.23653641352E+01  0.11786985396E+02  0.00000000000E+00 0.  1.
</event>
<event>
 7    1  0.3383281E-011  0.5052886E+02  0.7816164E-02  0.1300439E+00
        -11   -1    0    0    0    0  0.00000000000E+00  0.00000000000E+00  0.45593999997E+02  0.45594000000E+02  0.51100000000E-03 0. -1.
         11   -1    0    0    0    0 -0.00000000000E+00 -0.00000000000E+00 -0.45593999997E+02  0.45594000000E+02  0.51100000000E-03 0.  1.
    9900012    2    1    2    0    0 -0.30326809507E+02  0.26901488192E+02  0.31241144861E+01  0.50528861628E+02  0.30000005405E+02 0.  0.
         12    1    1    2    0    0  0.30326809507E+02 -0.26901488192E+02 -0.31241144861E+01  0.40659138372E+02  0.00000000000E+00 0. -1.
         11    1    3    3    0    0 -0.12681793086E+02 -0.20967271566E+01  0.51608802771E+01  0.13851311351E+02  0.51100000000E-03 0. -1.
        -11    1    3    3    0    0 -0.12020059701E+02  0.70174941913E+01 -0.29414574260E+00  0.13921694650E+02  0.51100000000E-03 0.  1.
        -12    1    3    3    0    0 -0.56249567202E+01  0.21980721158E+02 -0.17426200485E+01  0.22755855628E+02  0.00000000000E+00 0.  1.
</event>
<event>
 7    1  0.3383281E-011  0.5052885E+02  0.7816164E-02  0.1300439E+00
        -11   -1    0    0    0    0  0.00000000000E+00  0.00000000000E+00  0.45593999997E+02  0.45594000000E+02  0.51100000000E-03 0.  1.
         11   -1    0    0    0    0 -0.00000000000E+00 -0.00000000000E+00 -0.45593999997E+02  0.45594000000E+02  0.51100000000E-03 0. -1.
    9900012    2    1    2    0    0 -0.19198025256E+02  0.91314294537E+01  0.34658607932E+02  0.50528852427E+02  0.29999977436E+02 0.  0.
         12    1    1    2    0    0  0.19198025256E+02 -0.91314294537E+01 -0.34658607932E+02  0.40659147573E+02  0.00000000000E+00 0. -1.
         11    1    3    3    0    0 -0.48925053388E+00 -0.25742232130E+01 -0.24304550901E+01  0.35739478789E+01  0.51100000000E-03 0. -1.
        -11    1    3    3    0    0  0.37531943089E+01  0.10902404890E+01  0.59604741828E+01  0.71275763475E+01  0.51100000000E-03 0.  1.
        -12    1    3    3    0    0 -0.22461969031E+02  0.10615412178E+02  0.31128588839E+02  0.39827328200E+02  0.00000000000E+00 0.  1.
</event>
<event>
 7    1  0.3383281E-011  0.5052886E+02  0.7816164E-02  0.1300439E+00
        -11   -1    0    0    0    0  0.00000000000E+00  0.00000000000E+00  0.45593999997E+02  0.45594000000E+02  0.51100000000E-03 0.  1.
         11   -1    0    0    0    0 -0.00000000000E+00 -0.00000000000E+00 -0.45593999997E+02  0.45594000000E+02  0.51100000000E-03 0. -1.
    9900012    2    1    2    0    0  0.23904886955E+02 -0.32732262049E+02 -0.32126068742E+01  0.50528862748E+02  0.30000008808E+02 0.  0.
         12    1    1    2    0    0 -0.23904886955E+02  0.32732262049E+02  0.32126068742E+01  0.40659137252E+02  0.00000000000E+00 0. -1.
         11    1    3    3    0    0 -0.34774405431E+01 -0.18610869460E+02 -0.46626166262E+01  0.19498642231E+02  0.51100000000E-03 0. -1.
        -11    1    3    3    0    0  0.23603312912E+01 -0.23954397312E+01  0.13139777831E+00  0.33654956466E+01  0.51100000000E-03 0.  1.
         12    1    3    3    0    0  0.25021996206E+02 -0.11725952858E+02  0.13186119737E+01  0.27664724870E+02  0.00000000000E+00 0. -1.
</event>
<event>
 7    1  0.3383281E-011  0.5052886E+02  0.7816164E-02  0.1300439E+00
        -11   -1    0    0    0    0  0.00000000000E+00  0.00000000000E+00  0.45593999997E+02  0.45594000000E+02  0.51100000000E-03 0.  1.
         11   -1    0    0    0    0 -0.00000000000E+00 -0.00000000000E+00 -0.45593999997E+02  0.45594000000E+02  0.51100000000E-03 0. -1.
    9900012    2    1    2    0    0 -0.19321830256E+02 -0.16701541227E+02  0.31636859033E+02  0.50528862611E+02  0.30000008391E+02 0.  0.
         12    1    1    2    0    0  0.19321830256E+02  0.16701541227E+02 -0.31636859033E+02  0.40659137389E+02  0.00000000000E+00 0. -1.
         11    1    3    3    0    0 -0.12370552791E+02  0.49585989774E+01  0.15413687118E+02  0.20376457764E+02  0.51100000000E-03 0. -1.
        -11    1    3    3    0    0 -0.17296350098E+01 -0.27417033545E+00  0.52908214377E+01  0.55731138860E+01  0.51100000000E-03 0.  1.
        -12    1    3    3    0    0 -0.52216424551E+01 -0.21385969869E+02  0.10932350477E+02  0.24579290961E+02  0.00000000000E+00 0.  1.
</event>
<event>
 7    1  0.3383281E-011  0.5052886E+02  0.7816164E-02  0.1300439E+00
        -11   -1    0    0    0    0  0.00000000000E+00  0.00000000000E+00  0.45593999997E+02  0.45594000000E+02  0.51100000000E-03 0.  1.
         11   -1    0    0    0    0 -0.00000000000E+00 -0.00000000000E+00 -0.45593999997E+02  0.45594000000E+02  0.51100000000E-03 0. -1.
    9900012    2    1    2    0    0  0.14969529092E+02 -0.27076648720E+01  0.37706063884E+02  0.50528861987E+02  0.30000006497E+02 0.  0.
         12    1    1    2    0    0 -0.14969529092E+02  0.27076648720E+01 -0.37706063884E+02  0.40659138013E+02  0.00000000000E+00 0. -1.
         11    1    3    3    0    0  0.33444844115E+01  0.41087416829E+01  0.22148521842E+01  0.57422038151E+01  0.51100000000E-03 0. -1.
        -11    1    3    3    0    0  0.14128330977E+02  0.46570087233E+01  0.24723969554E+02  0.28854326144E+02  0.51100000000E-03 0.  1.
        -12    1    3    3    0    0 -0.25032862966E+01 -0.11473415278E+02  0.10767242146E+02  0.15932332028E+02  0.00000000000E+00 0.  1.
</event>
<event>
 7    1  0.3383281E-011  0.5052886E+02  0.7816164E-02  0.1300439E+00
        -11   -1    0    0    0    0  0.00000000000E+00  0.00000000000E+00  0.45593999997E+02  0.45594000000E+02  0.51100000000E-03 0.  1.
         11   -1    0    0    0    0 -0.00000000000E+00 -0.00000000000E+00 -0.45593999997E+02  0.45594000000E+02  0.51100000000E-03 0. -1.
    9900012    2    1    2    0    0  0.30462589546E+02 -0.15231688166E+02  0.22207924742E+02  0.50528860713E+02  0.30000002623E+02 0.  0.
         12    1    1    2    0    0 -0.30462589546E+02  0.15231688166E+02 -0.22207924742E+02  0.40659139287E+02  0.00000000000E+00 0. -1.
         11    1    3    3    0    0  0.12104069099E+02 -0.79916759043E+01 -0.46542259344E+01  0.15232767044E+02  0.51100000000E-03 0. -1.
        -11    1    3    3    0    0  0.34012965966E+01  0.23437220060E+01  0.99307432620E+01  0.10755534081E+02  0.51100000000E-03 0.  1.
        -12    1    3    3    0    0  0.14957223851E+02 -0.95837342682E+01  0.16931407414E+02  0.24540559587E+02  0.00000000000E+00 0.  1.
</event>
<event>
 7    1  0.3383281E-011  0.5052886E+02  0.7816164E-02  0.1300439E+00
        -11   -1    0    0    0    0  0.00000000000E+00  0.00000000000E+00  0.45593999997E+02  0.45594000000E+02  0.51100000000E-03 0. -1.
         11   -1    0    0    0    0 -0.00000000000E+00 -0.00000000000E+00 -0.45593999997E+02  0.45594000000E+02  0.51100000000E-03 0.  1.
    9900012    2    1    2    0    0  0.36248577161E+02 -0.13676046858E+02 -0.12335804313E+02  0.50528859922E+02  0.30000000218E+02 0.  0.
         12    1    1    2    0    0 -0.36248577161E+02  0.13676046858E+02  0.12335804313E+02  0.40659140078E+02  0.00000000000E+00 0. -1.
         11    1    3    3    0    0  0.50921843251E+01  0.57419064170E+01 -0.25278450222E+01  0.80802123252E+01  0.51100000000E-03 0. -1.
        -11    1    3    3    0    0  0.37948520698E+01 -0.12518774277E+02 -0.29865721907E+01  0.13417906891E+02  0.51100000000E-03 0.  1.
        -12    1    3    3    0    0  0.27361540766E+02 -0.68991789977E+01 -0.68213871001E+01  0.29030740705E+02  0.00000000000E+00 0.  1.
</event>
<event>
 7    1  0.3383281E-011  0.5052888E+02  0.7816164E-02  0.1300439E+00
        -11   -1    0    0    0    0  0.00000000000E+00  0.00000000000E+00  0.45593999997E+02  0.45594000000E+02  0.51100000000E-03 0.  1.
         11   -1    0    0    0    0 -0.00000000000E+00 -0.00000000000E+00 -0.45593999997E+02  0.45594000000E+02  0.51100000000E-03 0. -1.
    9900012    2    1    2    0    0 -0.17323213012E+02 -0.29329455192E+02  0.22200308653E+02  0.50528876113E+02  0.30000049434E+02 0.  0.
         12    1    1    2    0    0  0.17323213012E+02  0.29329455192E+02 -0.22200308653E+02  0.40659123887E+02  0.00000000000E+00 0. -1.
         11    1    3    3    0    0  0.44116372742E+01 -0.78505670366E+00 -0.19362296299E+00  0.44851251465E+01  0.51100000000E-03 0. -1.
        -11    1    3    3    0    0  0.23622844287E+01  0.20714560747E+00  0.34744444051E-01  0.23716037743E+01  0.51100000000E-03 0.  1.
        -12    1    3    3    0    0 -0.24097134715E+02 -0.28751544096E+02  0.22359187172E+02  0.43672147192E+02  0.00000000000E+00 0.  1.
</event>
<event>
 7    1  0.3383281E-011  0.5052887E+02  0.7816164E-02  0.1300439E+00
        -11   -1    0    0    0    0  0.00000000000E+00  0.00000000000E+00  0.45593999997E+02  0.45594000000E+02  0.51100000000E-03 0.  1.
         11   -1    0    0    0    0 -0.00000000000E+00 -0.00000000000E+00 -0.45593999997E+02  0.45594000000E+02  0.51100000000E-03 0. -1.
    9900012    2    1    2    0    0  0.15334944798E+02  0.20472213681E+02  0.31605270957E+02  0.50528865513E+02  0.30000017214E+02 0.  0.
         12    1    1    2    0    0 -0.15334944798E+02 -0.20472213681E+02 -0.31605270957E+02  0.40659134487E+02  0.00000000000E+00 0. -1.
         11    1    3    3    0    0  0.54626188856E+01  0.24579256732E+01 -0.19887135018E+01  0.63116230367E+01  0.51100000000E-03 0. -1.
        -11    1    3    3    0    0 -0.54151885535E+01  0.15775854762E+01  0.11035600561E+02  0.12393446776E+02  0.51100000000E-03 0.  1.
        -12    1    3    3    0    0  0.15287514466E+02  0.16436702531E+02  0.22558383898E+02  0.31823795700E+02  0.00000000000E+00 0.  1.
</event>
<event>
 7    1  0.3383281E-011  0.5052886E+02  0.7816164E-02  0.1300439E+00
        -11   -1    0    0    0    0  0.00000000000E+00  0.00000000000E+00  0.45593999997E+02  0.45594000000E+02  0.51100000000E-03 0. -1.
         11   -1    0    0    0    0 -0.00000000000E+00 -0.00000000000E+00 -0.45593999997E+02  0.45594000000E+02  0.51100000000E-03 0.  1.
    9900012    2    1    2    0    0 -0.21287005114E+02  0.22968596235E+02 -0.25932072153E+02  0.50528863685E+02  0.30000011657E+02 0.  0.
         12    1    1    2    0    0  0.21287005114E+02 -0.22968596235E+02  0.25932072153E+02  0.40659136315E+02  0.00000000000E+00 0. -1.
         11    1    3    3    0    0 -0.11405583582E+02 -0.93991601969E-01 -0.22975129992E+01  0.11635064998E+02  0.51100000000E-03 0. -1.
        -11    1    3    3    0    0 -0.95465659466E+01  0.21501943993E+01 -0.95853961167E+01  0.13698177846E+02  0.51100000000E-03 0.  1.
        -12    1    3    3    0    0 -0.33485558628E+00  0.20912393437E+02 -0.14049163037E+02  0.25195620841E+02  0.00000000000E+00 0.  1.
</event>
<event>
 7    1  0.3383281E-011  0.5052886E+02  0.7816164E-02  0.1300439E+00
        -11   -1    0    0    0    0  0.00000000000E+00  0.00000000000E+00  0.45593999997E+02  0.45594000000E+02  0.51100000000E-03 0.  1.
         11   -1    0    0    0    0 -0.00000000000E+00 -0.00000000000E+00 -0.45593999997E+02  0.45594000000E+02  0.51100000000E-03 0. -1.
    9900012    2    1    2    0    0 -0.38404975937E+02  0.70081953551E+01  0.11362611763E+02  0.50528856810E+02  0.29999990761E+02 0.  0.
         12    1    1    2    0    0  0.38404975937E+02 -0.70081953551E+01 -0.11362611763E+02  0.40659143190E+02  0.00000000000E+00 0. -1.
         11    1    3    3    0    0 -0.11829203328E+02 -0.33880709499E+01 -0.58414503473E+01  0.13620999176E+02  0.51100000000E-03 0. -1.
        -11    1    3    3    0    0 -0.15527573418E+02 -0.11692271685E+01  0.13215491132E+02  0.20423560771E+02  0.51100000000E-03 0.  1.
        -12    1    3    3    0    0 -0.11048199191E+02  0.11565493474E+02  0.39885709780E+01  0.16484296864E+02  0.00000000000E+00 0.  1.
</event>
<event>
 7    1  0.3383281E-011  0.5052887E+02  0.7816164E-02  0.1300439E+00
        -11   -1    0    0    0    0  0.00000000000E+00  0.00000000000E+00  0.45593999997E+02  0.45594000000E+02  0.51100000000E-03 0. -1.
         11   -1    0    0    0    0 -0.00000000000E+00 -0.00000000000E+00 -0.45593999997E+02  0.45594000000E+02  0.51100000000E-03 0.  1.
    9900012    2    1    2    0    0  0.27888241115E+02  0.10705698945E+02 -0.27582588713E+02  0.50528865940E+02  0.30000018511E+02 0.  0.
         12    1    1    2    0    0 -0.27888241115E+02 -0.10705698945E+02  0.27582588713E+02  0.40659134060E+02  0.00000000000E+00 0. -1.
         11    1    3    3    0    0  0.94347664979E+01  0.24170748299E+01 -0.75516621794E+01  0.12324149932E+02  0.51100000000E-03 0. -1.
        -11    1    3    3    0    0  0.23842190317E+02  0.16212904988E+01 -0.13680181080E+02  0.27535903410E+02  0.51100000000E-03 0.  1.
         12    1    3    3    0    0 -0.53887156994E+01  0.66673336159E+01 -0.63507454540E+01  0.10668812598E+02  0.00000000000E+00 0. -1.
</event>
<event>
 7    1  0.3383281E-011  0.5052886E+02  0.7816164E-02  0.1300439E+00
        -11   -1    0    0    0    0  0.00000000000E+00  0.00000000000E+00  0.45593999997E+02  0.45594000000E+02  0.51100000000E-03 0.  1.
         11   -1    0    0    0    0 -0.00000000000E+00 -0.00000000000E+00 -0.45593999997E+02  0.45594000000E+02  0.51100000000E-03 0. -1.
    9900012    2    1    2    0    0  0.24655747608E+02  0.32191339080E+02 -0.29962299079E+01  0.50528860861E+02  0.30000003073E+02 0.  0.
         12    1    1    2    0    0 -0.24655747608E+02 -0.32191339080E+02  0.29962299079E+01  0.40659139139E+02  0.00000000000E+00 0. -1.
         11    1    3    3    0    0  0.30784262109E+01 -0.39149831067E+01 -0.22454772135E+01  0.54631464230E+01  0.51100000000E-03 0. -1.
        -11    1    3    3    0    0 -0.25128583108E-01  0.13229808742E+01 -0.37831898465E+01  0.40079215954E+01  0.51100000000E-03 0.  1.
        -12    1    3    3    0    0  0.21602449980E+02  0.34783341313E+02  0.30324371522E+01  0.41057792842E+02  0.00000000000E+00 0.  1.
</event>
<event>
 7    1  0.3383281E-011  0.5052886E+02  0.7816164E-02  0.1300439E+00
        -11   -1    0    0    0    0  0.00000000000E+00  0.00000000000E+00  0.45593999997E+02  0.45594000000E+02  0.51100000000E-03 0. -1.
         11   -1    0    0    0    0 -0.00000000000E+00 -0.00000000000E+00 -0.45593999997E+02  0.45594000000E+02  0.51100000000E-03 0.  1.
    9900012    2    1    2    0    0 -0.27862734957E+02  0.18647054523E+02 -0.23002624205E+02  0.50528863733E+02  0.30000011802E+02 0.  0.
         12    1    1    2    0    0  0.27862734957E+02 -0.18647054523E+02  0.23002624205E+02  0.40659136267E+02  0.00000000000E+00 0. -1.
         11    1    3    3    0    0 -0.47461664762E+01 -0.27559770611E+01  0.14756221880E+01  0.56832180043E+01  0.51100000000E-03 0. -1.
        -11    1    3    3    0    0 -0.80553502080E+00 -0.38067218607E+01 -0.20986639189E+01  0.44209058461E+01  0.51100000000E-03 0.  1.
        -12    1    3    3    0    0 -0.22311033460E+02  0.25209753445E+02 -0.22379582474E+02  0.40424739882E+02  0.00000000000E+00 0.  1.
</event>
<event>
 7    1  0.3383281E-011  0.5052886E+02  0.7816164E-02  0.1300439E+00
        -11   -1    0    0    0    0  0.00000000000E+00  0.00000000000E+00  0.45593999997E+02  0.45594000000E+02  0.51100000000E-03 0.  1.
         11   -1    0    0    0    0 -0.00000000000E+00 -0.00000000000E+00 -0.45593999997E+02  0.45594000000E+02  0.51100000000E-03 0. -1.
    9900012    2    1    2    0    0  0.17287380327E+02  0.35144315514E+02  0.10917377263E+02  0.50528861325E+02  0.30000004482E+02 0.  0.
         12    1    1    2    0    0 -0.17287380327E+02 -0.35144315514E+02 -0.10917377263E+02  0.40659138675E+02  0.00000000000E+00 0. -1.
         11    1    3    3    0    0  0.26407253050E+01  0.92450885305E+01 -0.79805741733E+01  0.12495385407E+02  0.51100000000E-03 0. -1.
        -11    1    3    3    0    0  0.54015511335E+00 -0.15358441811E+01 -0.35902459126E+00  0.16671783988E+01  0.51100000000E-03 0.  1.
        -12    1    3    3    0    0  0.14106499909E+02  0.27435071164E+02  0.19256976028E+02  0.36366297519E+02  0.00000000000E+00 0.  1.
</event>
<event>
 7    1  0.3383281E-011  0.5052886E+02  0.7816164E-02  0.1300439E+00
        -11   -1    0    0    0    0  0.00000000000E+00  0.00000000000E+00  0.45593999997E+02  0.45594000000E+02  0.51100000000E-03 0. -1.
         11   -1    0    0    0    0 -0.00000000000E+00 -0.00000000000E+00 -0.45593999997E+02  0.45594000000E+02  0.51100000000E-03 0.  1.
    9900012    2    1    2    0    0 -0.20115182885E+02 -0.34221524720E+02  0.87995570996E+01  0.50528861522E+02  0.30000005082E+02 0.  0.
         12    1    1    2    0    0  0.20115182885E+02  0.34221524720E+02 -0.87995570996E+01  0.40659138478E+02  0.00000000000E+00 0. -1.
         11    1    3    3    0    0  0.14801283383E+01  0.16854704239E+00 -0.64521298443E+00  0.16234186336E+01  0.51100000000E-03 0. -1.
        -11    1    3    3    0    0 -0.43226310724E+01 -0.11365988988E+02  0.15289030952E+02  0.19535232601E+02  0.51100000000E-03 0.  1.
         12    1    3    3    0    0 -0.17272680151E+02 -0.23024082774E+02 -0.58442608685E+01  0.29370210287E+02  0.00000000000E+00 0. -1.
</event>
<event>
 7    1  0.3383281E-011  0.5052889E+02  0.7816164E-02  0.1300439E+00
        -11   -1    0    0    0    0  0.00000000000E+00  0.00000000000E+00  0.45593999997E+02  0.45594000000E+02  0.51100000000E-03 0.  1.
         11   -1    0    0    0    0 -0.00000000000E+00 -0.00000000000E+00 -0.45593999997E+02  0.45594000000E+02  0.51100000000E-03 0. -1.
    9900012    2    1    2    0    0 -0.33060112214E+02 -0.33873258730E+01  0.23424737213E+02  0.50528888971E+02  0.30000088516E+02 0.  0.
         12    1    1    2    0    0  0.33060112214E+02  0.33873258730E+01 -0.23424737213E+02  0.40659111029E+02  0.00000000000E+00 0. -1.
         11    1    3    3    0    0 -0.25902548093E+01 -0.17222769423E+01 -0.33018137598E+01  0.45362575113E+01  0.51100000000E-03 0. -1.
        -11    1    3    3    0    0  0.65900845670E+00 -0.56232963278E+01  0.18748468267E+01  0.59641264760E+01  0.51100000000E-03 0.  1.
        -12    1    3    3    0    0 -0.31128865862E+02  0.39582473971E+01  0.24851704146E+02  0.40028504984E+02  0.00000000000E+00 0.  1.
</event>
<event>
 7    1  0.3383281E-011  0.5052878E+02  0.7816164E-02  0.1300439E+00
        -11   -1    0    0    0    0  0.00000000000E+00  0.00000000000E+00  0.45593999997E+02  0.45594000000E+02  0.51100000000E-03 0. -1.
         11   -1    0    0    0    0 -0.00000000000E+00 -0.00000000000E+00 -0.45593999997E+02  0.45594000000E+02  0.51100000000E-03 0.  1.
    9900012    2    1    2    0    0 -0.37529436963E+02 -0.14800228472E+02 -0.50661985747E+01  0.50528784936E+02  0.29999772291E+02 0.  0.
         12    1    1    2    0    0  0.37529436963E+02  0.14800228472E+02  0.50661985747E+01  0.40659215064E+02  0.00000000000E+00 0. -1.
         11    1    3    3    0    0 -0.12638240773E+02 -0.58474919827E+01  0.55543772166E+01  0.14992311325E+02  0.51100000000E-03 0. -1.
        -11    1    3    3    0    0 -0.16613323289E+02 -0.30370456001E+01  0.43461697624E+01  0.17438903307E+02  0.51100000000E-03 0.  1.
         12    1    3    3    0    0 -0.82778729007E+01 -0.59156908897E+01 -0.14966745554E+02  0.18097570305E+02  0.00000000000E+00 0. -1.
</event>
<event>
 7    1  0.3383281E-011  0.5052883E+02  0.7816164E-02  0.1300439E+00
        -11   -1    0    0    0    0  0.00000000000E+00  0.00000000000E+00  0.45593999997E+02  0.45594000000E+02  0.51100000000E-03 0. -1.
         11   -1    0    0    0    0 -0.00000000000E+00 -0.00000000000E+00 -0.45593999997E+02  0.45594000000E+02  0.51100000000E-03 0.  1.
    9900012    2    1    2    0    0 -0.20659908240E+02  0.13894895883E+01 -0.34991512850E+02  0.50528825619E+02  0.29999895951E+02 0.  0.
         12    1    1    2    0    0  0.20659908240E+02 -0.13894895883E+01  0.34991512850E+02  0.40659174381E+02  0.00000000000E+00 0. -1.
         11    1    3    3    0    0 -0.59817981564E+01 -0.10248694029E+02 -0.23819403331E+02  0.26611681904E+02  0.51100000000E-03 0. -1.
        -11    1    3    3    0    0 -0.54296621287E+01  0.66944265133E+00 -0.71762121336E+01  0.90237134896E+01  0.51100000000E-03 0.  1.
         12    1    3    3    0    0 -0.92484479551E+01  0.10968740966E+02 -0.39958973857E+01  0.14893430225E+02  0.00000000000E+00 0. -1.
</event>
<event>
 7    1  0.3383281E-011  0.5052896E+02  0.7816164E-02  0.1300438E+00
        -11   -1    0    0    0    0  0.00000000000E+00  0.00000000000E+00  0.45593999997E+02  0.45594000000E+02  0.51100000000E-03 0. -1.
         11   -1    0    0    0    0 -0.00000000000E+00 -0.00000000000E+00 -0.45593999997E+02  0.45594000000E+02  0.51100000000E-03 0.  1.
    9900012    2    1    2    0    0  0.23389998336E+02  0.21638358403E+01 -0.33187092525E+02  0.50528962653E+02  0.30000312478E+02 0.  0.
         12    1    1    2    0    0 -0.23389998336E+02 -0.21638358403E+01  0.33187092525E+02  0.40659037347E+02  0.00000000000E+00 0. -1.
         11    1    3    3    0    0  0.81382639293E+01  0.49034616693E+01 -0.93780661494E+01  0.13350033749E+02  0.51100000000E-03 0. -1.
        -11    1    3    3    0    0  0.17451246556E+02  0.29735034320E+01 -0.25299663715E+02  0.30878159164E+02  0.51100000000E-03 0.  1.
         12    1    3    3    0    0 -0.21995121485E+01 -0.57131292610E+01  0.14906373394E+01  0.63007697404E+01  0.00000000000E+00 0. -1.
</event>
<event>
 7    1  0.3383281E-011  0.5052887E+02  0.7816164E-02  0.1300439E+00
        -11   -1    0    0    0    0  0.00000000000E+00  0.00000000000E+00  0.45593999997E+02  0.45594000000E+02  0.51100000000E-03 0. -1.
         11   -1    0    0    0    0 -0.00000000000E+00 -0.00000000000E+00 -0.45593999997E+02  0.45594000000E+02  0.51100000000E-03 0.  1.
    9900012    2    1    2    0    0 -0.96619896646E+01 -0.18112062376E+02 -0.35096496909E+02  0.50528868885E+02  0.30000027462E+02 0.  0.
         12    1    1    2    0    0  0.96619896646E+01  0.18112062376E+02  0.35096496909E+02  0.40659131115E+02  0.00000000000E+00 0. -1.
         11    1    3    3    0    0  0.85508681100E+01 -0.79000248126E+01 -0.75681819890E+01  0.13885428202E+02  0.51100000000E-03 0. -1.
        -11    1    3    3    0    0 -0.88832452696E+01 -0.11420969902E+02 -0.19461824785E+02  0.24251045838E+02  0.51100000000E-03 0.  1.
        -12    1    3    3    0    0 -0.93296125050E+01  0.12089323389E+01 -0.80664901345E+01  0.12392394845E+02  0.00000000000E+00 0.  1.
</event>
<event>
 7    1  0.3383281E-011  0.5052886E+02  0.7816164E-02  0.1300439E+00
        -11   -1    0    0    0    0  0.00000000000E+00  0.00000000000E+00  0.45593999997E+02  0.45594000000E+02  0.51100000000E-03 0. -1.
         11   -1    0    0    0    0 -0.00000000000E+00 -0.00000000000E+00 -0.45593999997E+02  0.45594000000E+02  0.51100000000E-03 0.  1.
    9900012    2    1    2    0    0 -0.35467845453E+02  0.10718754331E+02  0.16742328079E+02  0.50528864434E+02  0.30000013933E+02 0.  0.
         12    1    1    2    0    0  0.35467845453E+02 -0.10718754331E+02 -0.16742328079E+02  0.40659135566E+02  0.00000000000E+00 0. -1.
         11    1    3    3    0    0 -0.19119714132E+02  0.26755713816E+01  0.21057483160E+02  0.28568159688E+02  0.51100000000E-03 0. -1.
        -11    1    3    3    0    0 -0.52208468621E+00  0.33907833310E+01  0.23615953132E+01  0.41649869990E+01  0.51100000000E-03 0.  1.
        -12    1    3    3    0    0 -0.15826046635E+02  0.46523996180E+01 -0.66767503938E+01  0.17795717747E+02  0.00000000000E+00 0.  1.
</event>
<event>
 7    1  0.3383281E-011  0.5052884E+02  0.7816164E-02  0.1300439E+00
        -11   -1    0    0    0    0  0.00000000000E+00  0.00000000000E+00  0.45593999997E+02  0.45594000000E+02  0.51100000000E-03 0.  1.
         11   -1    0    0    0    0 -0.00000000000E+00 -0.00000000000E+00 -0.45593999997E+02  0.45594000000E+02  0.51100000000E-03 0. -1.
    9900012    2    1    2    0    0 -0.15809852097E+01  0.59254113106E+01  0.40193990875E+02  0.50528844624E+02  0.29999953720E+02 0.  0.
         12    1    1    2    0    0  0.15809852097E+01 -0.59254113106E+01 -0.40193990875E+02  0.40659155376E+02  0.00000000000E+00 0. -1.
         11    1    3    3    0    0 -0.13990209480E+01  0.94197298254E+00 -0.16875443904E+01  0.23858707097E+01  0.51100000000E-03 0. -1.
        -11    1    3    3    0    0 -0.15652554981E+01  0.76019902022E+01  0.43885918394E+02  0.44566962129E+02  0.51100000000E-03 0.  1.
         12    1    3    3    0    0  0.13832912365E+01 -0.26185518741E+01 -0.20043831292E+01  0.35760117856E+01  0.00000000000E+00 0. -1.
</event>
<event>
 7    1  0.3383281E-011  0.5052886E+02  0.7816164E-02  0.1300439E+00
        -11   -1    0    0    0    0  0.00000000000E+00  0.00000000000E+00  0.45593999997E+02  0.45594000000E+02  0.51100000000E-03 0.  1.
         11   -1    0    0    0    0 -0.00000000000E+00 -0.00000000000E+00 -0.45593999997E+02  0.45594000000E+02  0.51100000000E-03 0. -1.
    9900012    2    1    2    0    0  0.31339575690E+02  0.48871573318E+01  0.25438396477E+02  0.50528864169E+02  0.30000013129E+02 0.  0.
         12    1    1    2    0    0 -0.31339575690E+02 -0.48871573318E+01 -0.25438396477E+02  0.40659135831E+02  0.00000000000E+00 0. -1.
         11    1    3    3    0    0  0.11472917758E+02  0.55795488640E+01  0.10423182578E+02  0.16474281251E+02  0.51100000000E-03 0. -1.
        -11    1    3    3    0    0  0.10206154690E+02  0.10741791871E+02  0.36504166791E+01  0.15260315473E+02  0.51100000000E-03 0.  1.
         12    1    3    3    0    0  0.96605032418E+01 -0.11434183403E+02  0.11364797219E+02  0.18794267445E+02  0.00000000000E+00 0. -1.
</event>
<event>
 7    1  0.3383281E-011  0.5052886E+02  0.7816164E-02  0.1300439E+00
        -11   -1    0    0    0    0  0.00000000000E+00  0.00000000000E+00  0.45593999997E+02  0.45594000000E+02  0.51100000000E-03 0.  1.
         11   -1    0    0    0    0 -0.00000000000E+00 -0.00000000000E+00 -0.45593999997E+02  0.45594000000E+02  0.51100000000E-03 0. -1.
    9900012    2    1    2    0    0  0.62308526302E+01 -0.40089176156E+02  0.26832876820E+01  0.50528860779E+02  0.30000002824E+02 0.  0.
         12    1    1    2    0    0 -0.62308526302E+01  0.40089176156E+02 -0.26832876820E+01  0.40659139221E+02  0.00000000000E+00 0. -1.
         11    1    3    3    0    0 -0.94492511516E+00 -0.15788696594E+02 -0.75927953065E+01  0.17544981175E+02  0.51100000000E-03 0. -1.
        -11    1    3    3    0    0 -0.58761614640E+01 -0.74117546218E+01  0.40415628678E+00  0.94671390974E+01  0.51100000000E-03 0.  1.
        -12    1    3    3    0    0  0.13051939209E+02 -0.16888724940E+02  0.98719267017E+01  0.23516740506E+02  0.00000000000E+00 0.  1.
</event>
<event>
 7    1  0.3383281E-011  0.5052885E+02  0.7816164E-02  0.1300439E+00
        -11   -1    0    0    0    0  0.00000000000E+00  0.00000000000E+00  0.45593999997E+02  0.45594000000E+02  0.51100000000E-03 0. -1.
         11   -1    0    0    0    0 -0.00000000000E+00 -0.00000000000E+00 -0.45593999997E+02  0.45594000000E+02  0.51100000000E-03 0.  1.
    9900012    2    1    2    0    0 -0.27426674799E+02  0.14038808512E+02 -0.26530281774E+02  0.50528849911E+02  0.29999969789E+02 0.  0.
         12    1    1    2    0    0  0.27426674799E+02 -0.14038808512E+02  0.26530281774E+02  0.40659150089E+02  0.00000000000E+00 0. -1.
         11    1    3    3    0    0  0.54669183433E+01  0.39681380905E+01 -0.41602377911E+01  0.79335297830E+01  0.51100000000E-03 0. -1.
        -11    1    3    3    0    0 -0.17146546946E+02 -0.71404677231E+00 -0.10447592441E+02  0.20091444026E+02  0.51100000000E-03 0.  1.
        -12    1    3    3    0    0 -0.15747046196E+02  0.10784717194E+02 -0.11922451541E+02  0.22503876102E+02  0.00000000000E+00 0.  1.
</event>
<event>
 7    1  0.3383281E-011  0.5052886E+02  0.7816164E-02  0.1300439E+00
        -11   -1    0    0    0    0  0.00000000000E+00  0.00000000000E+00  0.45593999997E+02  0.45594000000E+02  0.51100000000E-03 0.  1.
         11   -1    0    0    0    0 -0.00000000000E+00 -0.00000000000E+00 -0.45593999997E+02  0.45594000000E+02  0.51100000000E-03 0. -1.
    9900012    2    1    2    0    0  0.24616732358E+01  0.38645658302E+02  0.12394300119E+02  0.50528863067E+02  0.30000009777E+02 0.  0.
         12    1    1    2    0    0 -0.24616732358E+01 -0.38645658302E+02 -0.12394300119E+02  0.40659136933E+02  0.00000000000E+00 0. -1.
         11    1    3    3    0    0 -0.60790144408E+01  0.28230469742E+01 -0.10343315970E+01  0.67818767981E+01  0.51100000000E-03 0. -1.
        -11    1    3    3    0    0 -0.50501403981E+01  0.12646213010E+02 -0.20406225405E+00  0.13618820184E+02  0.51100000000E-03 0.  1.
        -12    1    3    3    0    0  0.13590828075E+02  0.23176398318E+02  0.13632693970E+02  0.30128166084E+02  0.00000000000E+00 0.  1.
</event>
<event>
 7    1  0.3383281E-011  0.5052886E+02  0.7816164E-02  0.1300439E+00
        -11   -1    0    0    0    0  0.00000000000E+00  0.00000000000E+00  0.45593999997E+02  0.45594000000E+02  0.51100000000E-03 0.  1.
         11   -1    0    0    0    0 -0.00000000000E+00 -0.00000000000E+00 -0.45593999997E+02  0.45594000000E+02  0.51100000000E-03 0. -1.
    9900012    2    1    2    0    0 -0.34547775010E+01  0.29650355705E+02 -0.27605922488E+02  0.50528855427E+02  0.29999986554E+02 0.  0.
         12    1    1    2    0    0  0.34547775010E+01 -0.29650355705E+02  0.27605922488E+02  0.40659144573E+02  0.00000000000E+00 0. -1.
         11    1    3    3    0    0 -0.93822470245E+01  0.17637912715E+01 -0.74559593469E+01  0.12113168410E+02  0.51100000000E-03 0. -1.
        -11    1    3    3    0    0 -0.15127266256E+01  0.20689458176E+00 -0.64857278795E+01  0.66630183550E+01  0.51100000000E-03 0.  1.
        -12    1    3    3    0    0  0.74401961491E+01  0.27679669852E+02 -0.13664235262E+02  0.31752668662E+02  0.00000000000E+00 0.  1.
</event>
<event>
 7    1  0.3383281E-011  0.5052886E+02  0.7816164E-02  0.1300439E+00
        -11   -1    0    0    0    0  0.00000000000E+00  0.00000000000E+00  0.45593999997E+02  0.45594000000E+02  0.51100000000E-03 0.  1.
         11   -1    0    0    0    0 -0.00000000000E+00 -0.00000000000E+00 -0.45593999997E+02  0.45594000000E+02  0.51100000000E-03 0. -1.
    9900012    2    1    2    0    0  0.20980056425E+02  0.15993858779E+02  0.30938638727E+02  0.50528860160E+02  0.30000000943E+02 0.  0.
         12    1    1    2    0    0 -0.20980056425E+02 -0.15993858779E+02 -0.30938638727E+02  0.40659139840E+02  0.00000000000E+00 0. -1.
         11    1    3    3    0    0  0.26567284534E+01  0.20000638808E+01  0.28452998049E+01  0.43765503359E+01  0.51100000000E-03 0. -1.
        -11    1    3    3    0    0  0.24981288149E+02  0.99298359282E+01  0.27296533507E+02  0.38311449214E+02  0.51100000000E-03 0.  1.
         12    1    3    3    0    0 -0.66579601772E+01  0.40639589703E+01  0.79680541496E+00  0.78408606099E+01  0.00000000000E+00 0. -1.
</event>
<event>
 7    1  0.3383281E-011  0.5052886E+02  0.7816164E-02  0.1300439E+00
        -11   -1    0    0    0    0  0.00000000000E+00  0.00000000000E+00  0.45593999997E+02  0.45594000000E+02  0.51100000000E-03 0. -1.
         11   -1    0    0    0    0 -0.00000000000E+00 -0.00000000000E+00 -0.45593999997E+02  0.45594000000E+02  0.51100000000E-03 0.  1.
    9900012    2    1    2    0    0  0.15927934010E+02 -0.37391081945E+02 -0.11721595003E+01  0.50528855287E+02  0.29999986131E+02 0.  0.
         12    1    1    2    0    0 -0.15927934010E+02  0.37391081945E+02  0.11721595003E+01  0.40659144713E+02  0.00000000000E+00 0. -1.
         11    1    3    3    0    0 -0.40818308057E+01 -0.12158366206E+02  0.21567148345E+01  0.13005330856E+02  0.51100000000E-03 0. -1.
        -11    1    3    3    0    0  0.34421347032E+01 -0.19038777619E+02  0.78670094431E+00  0.19363425399E+02  0.51100000000E-03 0.  1.
        -12    1    3    3    0    0  0.16567630113E+02 -0.61939381201E+01 -0.41155752791E+01  0.18160099032E+02  0.00000000000E+00 0.  1.
</event>
<event>
 7    1  0.3383281E-011  0.5052885E+02  0.7816164E-02  0.1300439E+00
        -11   -1    0    0    0    0  0.00000000000E+00  0.00000000000E+00  0.45593999997E+02  0.45594000000E+02  0.51100000000E-03 0.  1.
         11   -1    0    0    0    0 -0.00000000000E+00 -0.00000000000E+00 -0.45593999997E+02  0.45594000000E+02  0.51100000000E-03 0. -1.
    9900012    2    1    2    0    0 -0.62155107010E+01  0.27497768558E+02  0.29298580543E+02  0.50528847638E+02  0.29999962880E+02 0.  0.
         12    1    1    2    0    0  0.62155107010E+01 -0.27497768558E+02 -0.29298580543E+02  0.40659152362E+02  0.00000000000E+00 0. -1.
         11    1    3    3    0    0 -0.16106285223E+01  0.67003961204E-01  0.50416561498E+01  0.52931002977E+01  0.51100000000E-03 0. -1.
        -11    1    3    3    0    0  0.41463811307E+00  0.18144019895E+02  0.28557818257E+02  0.33836760580E+02  0.51100000000E-03 0.  1.
        -12    1    3    3    0    0 -0.50195202917E+01  0.92867447026E+01 -0.43008938634E+01  0.11398986760E+02  0.00000000000E+00 0.  1.
</event>
<event>
 7    1  0.3383281E-011  0.5052885E+02  0.7816164E-02  0.1300439E+00
        -11   -1    0    0    0    0  0.00000000000E+00  0.00000000000E+00  0.45593999997E+02  0.45594000000E+02  0.51100000000E-03 0.  1.
         11   -1    0    0    0    0 -0.00000000000E+00 -0.00000000000E+00 -0.45593999997E+02  0.45594000000E+02  0.51100000000E-03 0. -1.
    9900012    2    1    2    0    0 -0.10940855213E+01 -0.37483415618E+02  0.15715046096E+02  0.50528854124E+02  0.29999982596E+02 0.  0.
         12    1    1    2    0    0  0.10940855213E+01  0.37483415618E+02 -0.15715046096E+02  0.40659145876E+02  0.00000000000E+00 0. -1.
         11    1    3    3    0    0  0.32041265990E+01 -0.16888526664E+02  0.37217867505E+01  0.17588077127E+02  0.51100000000E-03 0. -1.
        -11    1    3    3    0    0 -0.28958397378E+01 -0.18940364875E+02 -0.15517729013E+01  0.19223197153E+02  0.51100000000E-03 0.  1.
        -12    1    3    3    0    0 -0.14023723824E+01 -0.16545240798E+01  0.13545032247E+02  0.13717579845E+02  0.00000000000E+00 0.  1.
</event>
<event>
 7    1  0.3383281E-011  0.5052886E+02  0.7816164E-02  0.1300439E+00
        -11   -1    0    0    0    0  0.00000000000E+00  0.00000000000E+00  0.45593999997E+02  0.45594000000E+02  0.51100000000E-03 0.  1.
         11   -1    0    0    0    0 -0.00000000000E+00 -0.00000000000E+00 -0.45593999997E+02  0.45594000000E+02  0.51100000000E-03 0. -1.
    9900012    2    1    2    0    0 -0.39639325458E+02  0.90037101692E+01  0.90690407899E+00  0.50528863332E+02  0.30000010583E+02 0.  0.
         12    1    1    2    0    0  0.39639325458E+02 -0.90037101692E+01 -0.90690407899E+00  0.40659136668E+02  0.00000000000E+00 0. -1.
         11    1    3    3    0    0  0.31624785532E+01  0.47001796990E+00  0.47071913987E+01  0.56903285157E+01  0.51100000000E-03 0. -1.
        -11    1    3    3    0    0  0.42277633126E+00  0.59212805188E+00 -0.10947516155E+00  0.73575847138E+00  0.51100000000E-03 0.  1.
        -12    1    3    3    0    0 -0.43224580343E+02  0.79415641475E+01 -0.36908121582E+01  0.44102776345E+02  0.00000000000E+00 0.  1.
</event>
<event>
 7    1  0.3383281E-011  0.5052884E+02  0.7816164E-02  0.1300439E+00
        -11   -1    0    0    0    0  0.00000000000E+00  0.00000000000E+00  0.45593999997E+02  0.45594000000E+02  0.51100000000E-03 0.  1.
         11   -1    0    0    0    0 -0.00000000000E+00 -0.00000000000E+00 -0.45593999997E+02  0.45594000000E+02  0.51100000000E-03 0. -1.
    9900012    2    1    2    0    0 -0.30116159907E+01 -0.80690636242E+01  0.39736473262E+02  0.50528844500E+02  0.29999953343E+02 0.  0.
         12    1    1    2    0    0  0.30116159907E+01  0.80690636242E+01 -0.39736473262E+02  0.40659155500E+02  0.00000000000E+00 0. -1.
         11    1    3    3    0    0 -0.79331495875E+01 -0.36487134591E+01  0.19092892367E+02  0.20994916325E+02  0.51100000000E-03 0. -1.
        -11    1    3    3    0    0 -0.44162691955E+01  0.14631999237E+01  0.17427951017E+02  0.18038233410E+02  0.51100000000E-03 0.  1.
        -12    1    3    3    0    0  0.93378027923E+01 -0.58835500889E+01  0.32156298778E+01  0.11495694766E+02  0.00000000000E+00 0.  1.
</event>
<event>
 7    1  0.3383281E-011  0.5052887E+02  0.7816164E-02  0.1300439E+00
        -11   -1    0    0    0    0  0.00000000000E+00  0.00000000000E+00  0.45593999997E+02  0.45594000000E+02  0.51100000000E-03 0. -1.
         11   -1    0    0    0    0 -0.00000000000E+00 -0.00000000000E+00 -0.45593999997E+02  0.45594000000E+02  0.51100000000E-03 0.  1.
    9900012    2    1    2    0    0  0.10660110273E+02  0.31010850819E+02 -0.24038593186E+02  0.50528870866E+02  0.30000033484E+02 0.  0.
         12    1    1    2    0    0 -0.10660110273E+02 -0.31010850819E+02  0.24038593186E+02  0.40659129134E+02  0.00000000000E+00 0. -1.
         11    1    3    3    0    0 -0.37170934501E+01  0.22371695591E+01 -0.28134087488E+00  0.43475124269E+01  0.51100000000E-03 0. -1.
        -11    1    3    3    0    0  0.35567989526E+01  0.13757423275E+02  0.21191714118E+01  0.14366920397E+02  0.51100000000E-03 0.  1.
        -12    1    3    3    0    0  0.10820404771E+02  0.15016257986E+02 -0.25876423722E+02  0.31814438043E+02  0.00000000000E+00 0.  1.
</event>
<event>
 7    1  0.3383281E-011  0.5052886E+02  0.7816164E-02  0.1300439E+00
        -11   -1    0    0    0    0  0.00000000000E+00  0.00000000000E+00  0.45593999997E+02  0.45594000000E+02  0.51100000000E-03 0.  1.
         11   -1    0    0    0    0 -0.00000000000E+00 -0.00000000000E+00 -0.45593999997E+02  0.45594000000E+02  0.51100000000E-03 0. -1.
    9900012    2    1    2    0    0 -0.13495501887E+02 -0.31990830319E+02  0.21157122344E+02  0.50528860541E+02  0.30000002099E+02 0.  0.
         12    1    1    2    0    0  0.13495501887E+02  0.31990830319E+02 -0.21157122344E+02  0.40659139459E+02  0.00000000000E+00 0. -1.
         11    1    3    3    0    0  0.97799970581E+00 -0.27466036104E+00  0.10742153447E+02  0.10790077974E+02  0.51100000000E-03 0. -1.
        -11    1    3    3    0    0  0.31149559207E-01 -0.83048928322E+01 -0.33437640469E+01  0.89528193052E+01  0.51100000000E-03 0.  1.
        -12    1    3    3    0    0 -0.14504651152E+02 -0.23411277126E+02  0.13758732943E+02  0.30785963262E+02  0.00000000000E+00 0.  1.
</event>
<event>
 7    1  0.3383281E-011  0.5052887E+02  0.7816164E-02  0.1300439E+00
        -11   -1    0    0    0    0  0.00000000000E+00  0.00000000000E+00  0.45593999997E+02  0.45594000000E+02  0.51100000000E-03 0.  1.
         11   -1    0    0    0    0 -0.00000000000E+00 -0.00000000000E+00 -0.45593999997E+02  0.45594000000E+02  0.51100000000E-03 0. -1.
    9900012    2    1    2    0    0  0.23154492694E+02  0.45515190633E+01  0.33110693811E+02  0.50528869386E+02  0.30000028984E+02 0.  0.
         12    1    1    2    0    0 -0.23154492694E+02 -0.45515190633E+01 -0.33110693811E+02  0.40659130614E+02  0.00000000000E+00 0. -1.
         11    1    3    3    0    0  0.56232613744E+01 -0.65691097120E+01  0.23204032925E+01  0.89531303237E+01  0.51100000000E-03 0. -1.
        -11    1    3    3    0    0  0.25265445123E+01 -0.41536237707E+01  0.12513132187E+02  0.13424399242E+02  0.51100000000E-03 0.  1.
        -12    1    3    3    0    0  0.15004686807E+02  0.15274252546E+02  0.18277158331E+02  0.28151339820E+02  0.00000000000E+00 0.  1.
</event>
<event>
 7    1  0.3595998E-011  0.5052885E+02  0.7816164E-02  0.1300439E+00
        -11   -1    0    0    0    0  0.00000000000E+00  0.00000000000E+00  0.45593999997E+02  0.45594000000E+02  0.51100000000E-03 0.  1.
         11   -1    0    0    0    0 -0.00000000000E+00 -0.00000000000E+00 -0.45593999997E+02  0.45594000000E+02  0.51100000000E-03 0. -1.
    9900012    2    1    2    0    0  0.11618905660E+02 -0.25538792714E+02  0.29426821070E+02  0.50528847275E+02  0.29999961777E+02 0.  0.
         12    1    1    2    0    0 -0.11618905660E+02  0.25538792714E+02 -0.29426821070E+02  0.40659152725E+02  0.00000000000E+00 0. -1.
         11    1    3    3    0    0 -0.21305171606E+01 -0.65227276777E+01  0.16114805696E+02  0.17514909153E+02  0.51100000000E-03 0. -1.
        -11    1    3    3    0    0  0.49182057712E+01 -0.14887800338E+02  0.16496069136E+02  0.22758638890E+02  0.51100000000E-03 0.  1.
         12    1    3    3    0    0  0.88312170498E+01 -0.41282646979E+01 -0.31840537618E+01  0.10255299233E+02  0.00000000000E+00 0. -1.
</event>
<event>
 7    1  0.3383281E-011  0.5052886E+02  0.7816164E-02  0.1300439E+00
        -11   -1    0    0    0    0  0.00000000000E+00  0.00000000000E+00  0.45593999997E+02  0.45594000000E+02  0.51100000000E-03 0.  1.
         11   -1    0    0    0    0 -0.00000000000E+00 -0.00000000000E+00 -0.45593999997E+02  0.45594000000E+02  0.51100000000E-03 0. -1.
    9900012    2    1    2    0    0 -0.24972017551E+02  0.31050805679E+02  0.80877187682E+01  0.50528863404E+02  0.30000010802E+02 0.  0.
         12    1    1    2    0    0  0.24972017551E+02 -0.31050805679E+02 -0.80877187682E+01  0.40659136596E+02  0.00000000000E+00 0. -1.
         11    1    3    3    0    0 -0.32234182888E+01  0.20408867596E+01  0.13253447835E+02  0.13791646892E+02  0.51100000000E-03 0.  1.
        -11    1    3    3    0    0 -0.85992779890E+01  0.11201477798E+02 -0.34305179111E+01  0.14532348062E+02  0.51100000000E-03 0. -1.
        -12    1    3    3    0    0 -0.13149321273E+02  0.17808441122E+02 -0.17352111552E+01  0.22204868450E+02  0.00000000000E+00 0.  1.
</event>
<event>
 7    1  0.3383281E-011  0.5052886E+02  0.7816164E-02  0.1300439E+00
        -11   -1    0    0    0    0  0.00000000000E+00  0.00000000000E+00  0.45593999997E+02  0.45594000000E+02  0.51100000000E-03 0.  1.
         11   -1    0    0    0    0 -0.00000000000E+00 -0.00000000000E+00 -0.45593999997E+02  0.45594000000E+02  0.51100000000E-03 0. -1.
    9900012    2    1    2    0    0  0.21996972446E+02  0.22474237972E+02  0.25772225222E+02  0.50528858813E+02  0.29999996847E+02 0.  0.
         12    1    1    2    0    0 -0.21996972446E+02 -0.22474237972E+02 -0.25772225222E+02  0.40659141187E+02  0.00000000000E+00 0. -1.
         11    1    3    3    0    0 -0.26029008384E+01  0.34959491003E+01  0.67939779641E+01  0.80718578855E+01  0.51100000000E-03 0.  1.
        -11    1    3    3    0    0  0.11076629051E+02 -0.32464468680E+01  0.88271668373E+01  0.14531001446E+02  0.51100000000E-03 0. -1.
        -12    1    3    3    0    0  0.13523244233E+02  0.22224735740E+02  0.10151080420E+02  0.27925999481E+02  0.00000000000E+00 0.  1.
</event>
<event>
 7    1  0.3383281E-011  0.5052886E+02  0.7816164E-02  0.1300439E+00
        -11   -1    0    0    0    0  0.00000000000E+00  0.00000000000E+00  0.45593999997E+02  0.45594000000E+02  0.51100000000E-03 0.  1.
         11   -1    0    0    0    0 -0.00000000000E+00 -0.00000000000E+00 -0.45593999997E+02  0.45594000000E+02  0.51100000000E-03 0. -1.
    9900012    2    1    2    0    0  0.21290888101E+02 -0.12867828442E+02  0.32160265179E+02  0.50528861035E+02  0.30000003603E+02 0.  0.
         12    1    1    2    0    0 -0.21290888101E+02  0.12867828442E+02 -0.32160265179E+02  0.40659138965E+02  0.00000000000E+00 0. -1.
         11    1    3    3    0    0  0.15515363594E+02 -0.10778694522E+02  0.21303119809E+02  0.28473315172E+02  0.51100000000E-03 0. -1.
        -11    1    3    3    0    0 -0.18258373083E+01 -0.41258232910E+01  0.13114340979E+02  0.13868743248E+02  0.51100000000E-03 0.  1.
        -12    1    3    3    0    0  0.76013618153E+01  0.20366893709E+01 -0.22571956087E+01  0.81868026150E+01  0.00000000000E+00 0.  1.
</event>
<event>
 7    1  0.3383281E-011  0.5052886E+02  0.7816164E-02  0.1300439E+00
        -11   -1    0    0    0    0  0.00000000000E+00  0.00000000000E+00  0.45593999997E+02  0.45594000000E+02  0.51100000000E-03 0.  1.
         11   -1    0    0    0    0 -0.00000000000E+00 -0.00000000000E+00 -0.45593999997E+02  0.45594000000E+02  0.51100000000E-03 0. -1.
    9900012    2    1    2    0    0  0.26128089441E+02 -0.22595464944E+02  0.21446070714E+02  0.50528855359E+02  0.29999986349E+02 0.  0.
         12    1    1    2    0    0 -0.26128089441E+02  0.22595464944E+02 -0.21446070714E+02  0.40659144641E+02  0.00000000000E+00 0. -1.
         11    1    3    3    0    0  0.24647708524E+02 -0.12170894984E+02  0.19472052402E+02  0.33686808177E+02  0.51100000000E-03 0. -1.
        -11    1    3    3    0    0  0.50891523285E+00  0.20726581880E+01  0.36171894346E+01  0.41998769441E+01  0.51100000000E-03 0.  1.
         12    1    3    3    0    0  0.97146568481E+00 -0.12497228148E+02 -0.16431711229E+01  0.12642170237E+02  0.00000000000E+00 0. -1.
</event>
<event>
 7    1  0.3383281E-011  0.5052886E+02  0.7816164E-02  0.1300439E+00
        -11   -1    0    0    0    0  0.00000000000E+00  0.00000000000E+00  0.45593999997E+02  0.45594000000E+02  0.51100000000E-03 0.  1.
         11   -1    0    0    0    0 -0.00000000000E+00 -0.00000000000E+00 -0.45593999997E+02  0.45594000000E+02  0.51100000000E-03 0. -1.
    9900012    2    1    2    0    0 -0.32756933772E+02  0.23844687013E+02  0.34029218043E+01  0.50528859752E+02  0.29999999703E+02 0.  0.
         12    1    1    2    0    0  0.32756933772E+02 -0.23844687013E+02 -0.34029218043E+01  0.40659140248E+02  0.00000000000E+00 0. -1.
         11    1    3    3    0    0 -0.20682350281E+02  0.15959781284E+02 -0.22059195284E+01  0.26217175916E+02  0.51100000000E-03 0. -1.
        -11    1    3    3    0    0 -0.14209562051E+02  0.56646784442E+00 -0.95347106577E+00  0.14252776812E+02  0.51100000000E-03 0.  1.
         12    1    3    3    0    0  0.21349785601E+01  0.73184378839E+01  0.65623123986E+01  0.10058907025E+02  0.00000000000E+00 0. -1.
</event>
<event>
 7    1  0.3383281E-011  0.5052886E+02  0.7816164E-02  0.1300439E+00
        -11   -1    0    0    0    0  0.00000000000E+00  0.00000000000E+00  0.45593999997E+02  0.45594000000E+02  0.51100000000E-03 0. -1.
         11   -1    0    0    0    0 -0.00000000000E+00 -0.00000000000E+00 -0.45593999997E+02  0.45594000000E+02  0.51100000000E-03 0.  1.
    9900012    2    1    2    0    0 -0.25237026701E+02  0.19472985828E+02 -0.25240064517E+02  0.50528861413E+02  0.30000004752E+02 0.  0.
         12    1    1    2    0    0  0.25237026701E+02 -0.19472985828E+02  0.25240064517E+02  0.40659138587E+02  0.00000000000E+00 0. -1.
         11    1    3    3    0    0 -0.26696840743E+01  0.12749873699E+02 -0.12843890878E+01  0.13089543460E+02  0.51100000000E-03 0. -1.
        -11    1    3    3    0    0 -0.25930635234E+01 -0.73563377295E+00 -0.13361933670E+02  0.13631082391E+02  0.51100000000E-03 0.  1.
        -12    1    3    3    0    0 -0.19974279103E+02  0.74587459021E+01 -0.10593741759E+02  0.23808235562E+02  0.00000000000E+00 0.  1.
</event>
<event>
 7    1  0.3383281E-011  0.5052887E+02  0.7816164E-02  0.1300439E+00
        -11   -1    0    0    0    0  0.00000000000E+00  0.00000000000E+00  0.45593999997E+02  0.45594000000E+02  0.51100000000E-03 0.  1.
         11   -1    0    0    0    0 -0.00000000000E+00 -0.00000000000E+00 -0.45593999997E+02  0.45594000000E+02  0.51100000000E-03 0. -1.
    9900012    2    1    2    0    0 -0.23737915198E+02 -0.19837808625E+02  0.26384424334E+02  0.50528866752E+02  0.30000020980E+02 0.  0.
         12    1    1    2    0    0  0.23737915198E+02  0.19837808625E+02 -0.26384424334E+02  0.40659133248E+02  0.00000000000E+00 0. -1.
         11    1    3    3    0    0 -0.89515791333E+01 -0.51856166370E+01  0.23571462842E+00  0.10347799309E+02  0.51100000000E-03 0. -1.
        -11    1    3    3    0    0 -0.13425999203E+02  0.14057306680E+01  0.71770542523E+01  0.15288676899E+02  0.51100000000E-03 0.  1.
        -12    1    3    3    0    0 -0.13603368622E+01 -0.16057922656E+02  0.18971655453E+02  0.24892390545E+02  0.00000000000E+00 0.  1.
</event>
<event>
 7    1  0.3383281E-011  0.5052886E+02  0.7816164E-02  0.1300439E+00
        -11   -1    0    0    0    0  0.00000000000E+00  0.00000000000E+00  0.45593999997E+02  0.45594000000E+02  0.51100000000E-03 0.  1.
         11   -1    0    0    0    0 -0.00000000000E+00 -0.00000000000E+00 -0.45593999997E+02  0.45594000000E+02  0.51100000000E-03 0. -1.
    9900012    2    1    2    0    0  0.23716892890E+02 -0.90808228612E+01  0.31752377290E+02  0.50528858152E+02  0.29999994840E+02 0.  0.
         12    1    1    2    0    0 -0.23716892890E+02  0.90808228612E+01 -0.31752377290E+02  0.40659141848E+02  0.00000000000E+00 0. -1.
         11    1    3    3    0    0 -0.49271251508E+01 -0.37336146645E+01  0.43148528382E+01  0.75388590643E+01  0.51100000000E-03 0. -1.
        -11    1    3    3    0    0  0.14587181778E+02 -0.10245792101E+02  0.11671962953E+02  0.21307201774E+02  0.51100000000E-03 0.  1.
        -12    1    3    3    0    0  0.14056836263E+02  0.48985839042E+01  0.15765561499E+02  0.21682797314E+02  0.00000000000E+00 0.  1.
</event>
<event>
 7    1  0.3383281E-011  0.5052886E+02  0.7816164E-02  0.1300439E+00
        -11   -1    0    0    0    0  0.00000000000E+00  0.00000000000E+00  0.45593999997E+02  0.45594000000E+02  0.51100000000E-03 0.  1.
         11   -1    0    0    0    0 -0.00000000000E+00 -0.00000000000E+00 -0.45593999997E+02  0.45594000000E+02  0.51100000000E-03 0. -1.
    9900012    2    1    2    0    0 -0.36057952639E+02 -0.18785612444E+02 -0.30138720541E+00  0.50528855670E+02  0.29999987293E+02 0.  0.
         12    1    1    2    0    0  0.36057952639E+02  0.18785612444E+02  0.30138720541E+00  0.40659144330E+02  0.00000000000E+00 0. -1.
         11    1    3    3    0    0 -0.82801416726E+01 -0.30130620691E+01  0.74259408024E+01  0.11523189064E+02  0.51100000000E-03 0. -1.
        -11    1    3    3    0    0 -0.24119305133E+02 -0.12864210927E+02  0.28088604546E+01  0.27479419575E+02  0.51100000000E-03 0.  1.
         12    1    3    3    0    0 -0.36585058335E+01 -0.29083394482E+01 -0.10536188462E+02  0.11526247030E+02  0.00000000000E+00 0. -1.
</event>
<event>
 7    1  0.3383281E-011  0.5052886E+02  0.7816164E-02  0.1300439E+00
        -11   -1    0    0    0    0  0.00000000000E+00  0.00000000000E+00  0.45593999997E+02  0.45594000000E+02  0.51100000000E-03 0.  1.
         11   -1    0    0    0    0 -0.00000000000E+00 -0.00000000000E+00 -0.45593999997E+02  0.45594000000E+02  0.51100000000E-03 0. -1.
    9900012    2    1    2    0    0  0.28861409257E+02 -0.21514309402E+02  0.18902887477E+02  0.50528860704E+02  0.30000002596E+02 0.  0.
         12    1    1    2    0    0 -0.28861409257E+02  0.21514309402E+02 -0.18902887477E+02  0.40659139296E+02  0.00000000000E+00 0. -1.
         11    1    3    3    0    0  0.15219124814E+02 -0.21933832343E+02  0.17450746867E+01  0.26753692217E+02  0.51100000000E-03 0. -1.
        -11    1    3    3    0    0 -0.86420838760E+00 -0.43518405355E+00  0.41848856055E+01  0.42952891742E+01  0.51100000000E-03 0.  1.
        -12    1    3    3    0    0  0.14506492831E+02  0.85470699467E+00  0.12972927185E+02  0.19479879313E+02  0.00000000000E+00 0.  1.
</event>
<event>
 7    1  0.3383281E-011  0.5052886E+02  0.7816164E-02  0.1300439E+00
        -11   -1    0    0    0    0  0.00000000000E+00  0.00000000000E+00  0.45593999997E+02  0.45594000000E+02  0.51100000000E-03 0.  1.
         11   -1    0    0    0    0 -0.00000000000E+00 -0.00000000000E+00 -0.45593999997E+02  0.45594000000E+02  0.51100000000E-03 0. -1.
    9900012    2    1    2    0    0  0.23740153766E+02 -0.19999010357E+02  0.26260438204E+02  0.50528856739E+02  0.29999990543E+02 0.  0.
         12    1    1    2    0    0 -0.23740153766E+02  0.19999010357E+02 -0.26260438204E+02  0.40659143261E+02  0.00000000000E+00 0. -1.
         11    1    3    3    0    0 -0.67976152105E+00 -0.13519036829E+01 -0.89144997447E+00  0.17562467399E+01  0.51100000000E-03 0. -1.
        -11    1    3    3    0    0  0.95392710137E+01 -0.20511726442E+02  0.70534254644E+01  0.23695557055E+02  0.51100000000E-03 0.  1.
        -12    1    3    3    0    0  0.14880644273E+02  0.18646197684E+01  0.20098462714E+02  0.25077052944E+02  0.00000000000E+00 0.  1.
</event>
<event>
 7    1  0.3383281E-011  0.5052886E+02  0.7816164E-02  0.1300439E+00
        -11   -1    0    0    0    0  0.00000000000E+00  0.00000000000E+00  0.45593999997E+02  0.45594000000E+02  0.51100000000E-03 0.  1.
         11   -1    0    0    0    0 -0.00000000000E+00 -0.00000000000E+00 -0.45593999997E+02  0.45594000000E+02  0.51100000000E-03 0. -1.
    9900012    2    1    2    0    0  0.12772677888E+02 -0.11842035754E+02  0.36739490861E+02  0.50528864496E+02  0.30000014121E+02 0.  0.
         12    1    1    2    0    0 -0.12772677888E+02  0.11842035754E+02 -0.36739490861E+02  0.40659135504E+02  0.00000000000E+00 0. -1.
         11    1    3    3    0    0 -0.41526680614E+01  0.44167556530E+00  0.15868256307E+01  0.44674092242E+01  0.51100000000E-03 0. -1.
        -11    1    3    3    0    0 -0.25575732424E+01 -0.92422591070E+01  0.15464415834E+02  0.18196392270E+02  0.51100000000E-03 0.  1.
        -12    1    3    3    0    0  0.19482919192E+02 -0.30414522127E+01  0.19688249396E+02  0.27865063002E+02  0.00000000000E+00 0.  1.
</event>
<event>
 7    1  0.3383281E-011  0.5052885E+02  0.7816164E-02  0.1300439E+00
        -11   -1    0    0    0    0  0.00000000000E+00  0.00000000000E+00  0.45593999997E+02  0.45594000000E+02  0.51100000000E-03 0. -1.
         11   -1    0    0    0    0 -0.00000000000E+00 -0.00000000000E+00 -0.45593999997E+02  0.45594000000E+02  0.51100000000E-03 0.  1.
    9900012    2    1    2    0    0  0.75919402928E+01  0.33124213645E+02  0.22322981671E+02  0.50528848537E+02  0.29999965613E+02 0.  0.
         12    1    1    2    0    0 -0.75919402928E+01 -0.33124213645E+02 -0.22322981671E+02  0.40659151463E+02  0.00000000000E+00 0. -1.
         11    1    3    3    0    0  0.28422816748E+01  0.57858595488E+01  0.59126577863E+01  0.87472428911E+01  0.51100000000E-03 0. -1.
        -11    1    3    3    0    0 -0.49029337257E+01  0.23592543570E+02  0.19476131691E+02  0.30983327405E+02  0.51100000000E-03 0.  1.
        -12    1    3    3    0    0  0.96525923437E+01  0.37458105263E+01 -0.30658078059E+01  0.10798278240E+02  0.00000000000E+00 0.  1.
</event>
<event>
 7    1  0.3383281E-011  0.5052886E+02  0.7816164E-02  0.1300439E+00
        -11   -1    0    0    0    0  0.00000000000E+00  0.00000000000E+00  0.45593999997E+02  0.45594000000E+02  0.51100000000E-03 0. -1.
         11   -1    0    0    0    0 -0.00000000000E+00 -0.00000000000E+00 -0.45593999997E+02  0.45594000000E+02  0.51100000000E-03 0.  1.
    9900012    2    1    2    0    0 -0.10143875632E+02  0.38915016256E+02  0.59907519922E+01  0.50528858193E+02  0.29999994963E+02 0.  0.
         12    1    1    2    0    0  0.10143875632E+02 -0.38915016256E+02 -0.59907519922E+01  0.40659141807E+02  0.00000000000E+00 0. -1.
         11    1    3    3    0    0 -0.13114494605E+02  0.12327298520E+02  0.72753355591E+01  0.19413468657E+02  0.51100000000E-03 0.  1.
        -11    1    3    3    0    0  0.60916362327E+01  0.87198903911E+01  0.52164545894E+01  0.11847190349E+02  0.51100000000E-03 0. -1.
        -12    1    3    3    0    0 -0.31210172593E+01  0.17867827346E+02 -0.65010381562E+01  0.19268199187E+02  0.00000000000E+00 0.  1.
</event>
<event>
 7    1  0.3383281E-011  0.5052887E+02  0.7816164E-02  0.1300439E+00
        -11   -1    0    0    0    0  0.00000000000E+00  0.00000000000E+00  0.45593999997E+02  0.45594000000E+02  0.51100000000E-03 0. -1.
         11   -1    0    0    0    0 -0.00000000000E+00 -0.00000000000E+00 -0.45593999997E+02  0.45594000000E+02  0.51100000000E-03 0.  1.
    9900012    2    1    2    0    0 -0.48136485374E+01 -0.34669140018E+02 -0.20689242674E+02  0.50528865180E+02  0.30000016202E+02 0.  0.
         12    1    1    2    0    0  0.48136485374E+01  0.34669140018E+02  0.20689242674E+02  0.40659134820E+02  0.00000000000E+00 0. -1.
         11    1    3    3    0    0 -0.67723561853E+01 -0.90785524885E+01 -0.83298425870E+01  0.14059559075E+02  0.51100000000E-03 0. -1.
        -11    1    3    3    0    0 -0.16135524375E+01 -0.22391893862E+01 -0.12545507271E+02  0.12845515697E+02  0.51100000000E-03 0.  1.
        -12    1    3    3    0    0  0.35722600854E+01 -0.23351398144E+02  0.18610718354E+00  0.23623790409E+02  0.00000000000E+00 0.  1.
</event>
<event>
 7    1  0.3383281E-011  0.5052886E+02  0.7816164E-02  0.1300439E+00
        -11   -1    0    0    0    0  0.00000000000E+00  0.00000000000E+00  0.45593999997E+02  0.45594000000E+02  0.51100000000E-03 0. -1.
         11   -1    0    0    0    0 -0.00000000000E+00 -0.00000000000E+00 -0.45593999997E+02  0.45594000000E+02  0.51100000000E-03 0.  1.
    9900012    2    1    2    0    0  0.31206700592E+02  0.20798256761E+02 -0.15707950111E+02  0.50528863969E+02  0.30000012519E+02 0.  0.
         12    1    1    2    0    0 -0.31206700592E+02 -0.20798256761E+02  0.15707950111E+02  0.40659136031E+02  0.00000000000E+00 0. -1.
         11    1    3    3    0    0  0.10138044490E+02  0.20329113153E+01 -0.57963141219E+01  0.11853688546E+02  0.51100000000E-03 0. -1.
        -11    1    3    3    0    0  0.15584108078E+02  0.47474922997E+00 -0.11704837075E+02  0.19495974524E+02  0.51100000000E-03 0.  1.
         12    1    3    3    0    0  0.54845480238E+01  0.18290596216E+02  0.17932010860E+01  0.19179200898E+02  0.00000000000E+00 0. -1.
</event>
<event>
 7    1  0.3647318E-011  0.5052886E+02  0.7816164E-02  0.1300439E+00
        -11   -1    0    0    0    0  0.00000000000E+00  0.00000000000E+00  0.45593999997E+02  0.45594000000E+02  0.51100000000E-03 0. -1.
         11   -1    0    0    0    0 -0.00000000000E+00 -0.00000000000E+00 -0.45593999997E+02  0.45594000000E+02  0.51100000000E-03 0.  1.
    9900012    2    1    2    0    0 -0.12263131632E+02 -0.29309724939E+02 -0.25371671053E+02  0.50528855082E+02  0.29999985507E+02 0.  0.
         12    1    1    2    0    0  0.12263131632E+02  0.29309724939E+02  0.25371671053E+02  0.40659144918E+02  0.00000000000E+00 0. -1.
         11    1    3    3    0    0 -0.66750487403E+01 -0.10809834659E+02 -0.10451826430E+02  0.16451427811E+02  0.51100000000E-03 0. -1.
        -11    1    3    3    0    0 -0.41653522407E+01 -0.10485292135E+02 -0.21053015587E+02  0.23885580923E+02  0.51100000000E-03 0.  1.
         12    1    3    3    0    0 -0.14227306511E+01 -0.80145981447E+01  0.61331709633E+01  0.10191846349E+02  0.00000000000E+00 0. -1.
</event>
<event>
 7    1  0.3383281E-011  0.5052886E+02  0.7816164E-02  0.1300439E+00
        -11   -1    0    0    0    0  0.00000000000E+00  0.00000000000E+00  0.45593999997E+02  0.45594000000E+02  0.51100000000E-03 0. -1.
         11   -1    0    0    0    0 -0.00000000000E+00 -0.00000000000E+00 -0.45593999997E+02  0.45594000000E+02  0.51100000000E-03 0.  1.
    9900012    2    1    2    0    0  0.20532758029E+01  0.35840826814E+02 -0.19088873041E+02  0.50528857336E+02  0.29999992357E+02 0.  0.
         12    1    1    2    0    0 -0.20532758029E+01 -0.35840826814E+02  0.19088873041E+02  0.40659142664E+02  0.00000000000E+00 0. -1.
         11    1    3    3    0    0  0.96799658414E+01  0.19720640790E+02  0.51391225331E+00  0.21974292205E+02  0.51100000000E-03 0. -1.
        -11    1    3    3    0    0 -0.44702946696E+00 -0.15854106943E+01 -0.13278122350E+01  0.21157618028E+01  0.51100000000E-03 0.  1.
        -12    1    3    3    0    0 -0.71796605715E+01  0.17705596718E+02 -0.18274973059E+02  0.26438803327E+02  0.00000000000E+00 0.  1.
</event>
<event>
 7    1  0.3383281E-011  0.5052886E+02  0.7816164E-02  0.1300439E+00
        -11   -1    0    0    0    0  0.00000000000E+00  0.00000000000E+00  0.45593999997E+02  0.45594000000E+02  0.51100000000E-03 0. -1.
         11   -1    0    0    0    0 -0.00000000000E+00 -0.00000000000E+00 -0.45593999997E+02  0.45594000000E+02  0.51100000000E-03 0.  1.
    9900012    2    1    2    0    0 -0.31349400779E+02  0.12473321860E+02 -0.22689134238E+02  0.50528862037E+02  0.30000006648E+02 0.  0.
         12    1    1    2    0    0  0.31349400779E+02 -0.12473321860E+02  0.22689134238E+02  0.40659137963E+02  0.00000000000E+00 0. -1.
         11    1    3    3    0    0 -0.46048939725E+01  0.93230840885E+01  0.17193454606E+01  0.10539501625E+02  0.51100000000E-03 0. -1.
        -11    1    3    3    0    0 -0.76329886851E+01  0.40394694715E+01  0.41812909675E+00  0.86460778437E+01  0.51100000000E-03 0.  1.
        -12    1    3    3    0    0 -0.19111518121E+02 -0.88923170041E+00 -0.24826608795E+02  0.31343282569E+02  0.00000000000E+00 0.  1.
</event>
<event>
 7    1  0.3383281E-011  0.5052886E+02  0.7816164E-02  0.1300439E+00
        -11   -1    0    0    0    0  0.00000000000E+00  0.00000000000E+00  0.45593999997E+02  0.45594000000E+02  0.51100000000E-03 0. -1.
         11   -1    0    0    0    0 -0.00000000000E+00 -0.00000000000E+00 -0.45593999997E+02  0.45594000000E+02  0.51100000000E-03 0.  1.
    9900012    2    1    2    0    0 -0.40639193416E+02 -0.61121476659E+00  0.11171916002E+01  0.50528859059E+02  0.29999997595E+02 0.  0.
         12    1    1    2    0    0  0.40639193416E+02  0.61121476659E+00 -0.11171916002E+01  0.40659140941E+02  0.00000000000E+00 0. -1.
         11    1    3    3    0    0 -0.14338707398E+02  0.67830800194E+01  0.52251911719E+01  0.16700638534E+02  0.51100000000E-03 0. -1.
        -11    1    3    3    0    0 -0.17054995037E+02  0.52884363185E+01 -0.15114602832E+01  0.17919958896E+02  0.51100000000E-03 0.  1.
        -12    1    3    3    0    0 -0.92454909814E+01 -0.12682731104E+02 -0.25965392886E+01  0.15908261628E+02  0.00000000000E+00 0.  1.
</event>
<event>
 7    1  0.3383281E-011  0.5052886E+02  0.7816164E-02  0.1300439E+00
        -11   -1    0    0    0    0  0.00000000000E+00  0.00000000000E+00  0.45593999997E+02  0.45594000000E+02  0.51100000000E-03 0.  1.
         11   -1    0    0    0    0 -0.00000000000E+00 -0.00000000000E+00 -0.45593999997E+02  0.45594000000E+02  0.51100000000E-03 0. -1.
    9900012    2    1    2    0    0 -0.22172520426E+01 -0.38473805242E+02  0.12962093351E+02  0.50528858833E+02  0.29999996908E+02 0.  0.
         12    1    1    2    0    0  0.22172520426E+01  0.38473805242E+02 -0.12962093351E+02  0.40659141167E+02  0.00000000000E+00 0. -1.
         11    1    3    3    0    0  0.41365420003E+01 -0.38241741991E+01  0.59115450082E+01  0.81658834593E+01  0.51100000000E-03 0. -1.
        -11    1    3    3    0    0  0.64406931417E+01 -0.12805090064E+02  0.90775612797E+01  0.16966289481E+02  0.51100000000E-03 0.  1.
         12    1    3    3    0    0 -0.12794487185E+02 -0.21844540979E+02 -0.20270129369E+01  0.25396685893E+02  0.00000000000E+00 0. -1.
</event>
<event>
 7    1  0.3383281E-011  0.5052886E+02  0.7816164E-02  0.1300439E+00
        -11   -1    0    0    0    0  0.00000000000E+00  0.00000000000E+00  0.45593999997E+02  0.45594000000E+02  0.51100000000E-03 0.  1.
         11   -1    0    0    0    0 -0.00000000000E+00 -0.00000000000E+00 -0.45593999997E+02  0.45594000000E+02  0.51100000000E-03 0. -1.
    9900012    2    1    2    0    0  0.15365913212E+02  0.18546963017E+02  0.32757661247E+02  0.50528862080E+02  0.30000006779E+02 0.  0.
         12    1    1    2    0    0 -0.15365913212E+02 -0.18546963017E+02 -0.32757661247E+02  0.40659137920E+02  0.00000000000E+00 0. -1.
         11    1    3    3    0    0  0.79072743084E+01  0.78926634073E+01  0.62767129293E+01  0.12814688764E+02  0.51100000000E-03 0. -1.
        -11    1    3    3    0    0  0.71265639521E+01  0.42737887341E+00 -0.20302641612E+01  0.74224348626E+01  0.51100000000E-03 0.  1.
        -12    1    3    3    0    0  0.33207495181E+00  0.10226920736E+02  0.28511212479E+02  0.30291738454E+02  0.00000000000E+00 0.  1.
</event>
<event>
 7    1  0.3383281E-011  0.5052886E+02  0.7816164E-02  0.1300439E+00
        -11   -1    0    0    0    0  0.00000000000E+00  0.00000000000E+00  0.45593999997E+02  0.45594000000E+02  0.51100000000E-03 0.  1.
         11   -1    0    0    0    0 -0.00000000000E+00 -0.00000000000E+00 -0.45593999997E+02  0.45594000000E+02  0.51100000000E-03 0. -1.
    9900012    2    1    2    0    0 -0.19677810899E+02 -0.28528873737E+02 -0.21261533854E+02  0.50528859572E+02  0.29999999155E+02 0.  0.
         12    1    1    2    0    0  0.19677810899E+02  0.28528873737E+02  0.21261533854E+02  0.40659140428E+02  0.00000000000E+00 0. -1.
         11    1    3    3    0    0 -0.15143697005E+02 -0.95163531394E+01 -0.86348266410E+01  0.19860835014E+02  0.51100000000E-03 0.  1.
        -11    1    3    3    0    0  0.51164940673E+01 -0.16868901122E+02 -0.54471607862E+01  0.18450200473E+02  0.51100000000E-03 0. -1.
         12    1    3    3    0    0 -0.96506079613E+01 -0.21436194759E+01 -0.71795464270E+01  0.12217824085E+02  0.00000000000E+00 0. -1.
</event>
<event>
 7    1  0.3383281E-011  0.5052886E+02  0.7816164E-02  0.1300439E+00
        -11   -1    0    0    0    0  0.00000000000E+00  0.00000000000E+00  0.45593999997E+02  0.45594000000E+02  0.51100000000E-03 0. -1.
         11   -1    0    0    0    0 -0.00000000000E+00 -0.00000000000E+00 -0.45593999997E+02  0.45594000000E+02  0.51100000000E-03 0.  1.
    9900012    2    1    2    0    0 -0.21019300092E+02  0.34568069182E+02 -0.40501173281E+01  0.50528857932E+02  0.29999994170E+02 0.  0.
         12    1    1    2    0    0  0.21019300092E+02 -0.34568069182E+02  0.40501173281E+01  0.40659142068E+02  0.00000000000E+00 0. -1.
         11    1    3    3    0    0 -0.47363573647E+00  0.51356381273E+01 -0.96314195675E+01  0.10925353675E+02  0.51100000000E-03 0. -1.
        -11    1    3    3    0    0 -0.22498613334E+01  0.84784037670E+01 -0.46942332589E+01  0.99489211780E+01  0.51100000000E-03 0.  1.
        -12    1    3    3    0    0 -0.18295803022E+02  0.20954027288E+02  0.10275535498E+02  0.29654583079E+02  0.00000000000E+00 0.  1.
</event>
<event>
 7    1  0.3618061E-011  0.5052886E+02  0.7816164E-02  0.1300439E+00
        -11   -1    0    0    0    0  0.00000000000E+00  0.00000000000E+00  0.45593999997E+02  0.45594000000E+02  0.51100000000E-03 0.  1.
         11   -1    0    0    0    0 -0.00000000000E+00 -0.00000000000E+00 -0.45593999997E+02  0.45594000000E+02  0.51100000000E-03 0. -1.
    9900012    2    1    2    0    0 -0.31626469439E+01 -0.29391912448E+02  0.27915565499E+02  0.50528860189E+02  0.30000001032E+02 0.  0.
         12    1    1    2    0    0  0.31626469439E+01  0.29391912448E+02 -0.27915565499E+02  0.40659139811E+02  0.00000000000E+00 0. -1.
         11    1    3    3    0    0  0.20993895791E+01 -0.16363966842E+02  0.33877498264E+01  0.16842318622E+02  0.51100000000E-03 0. -1.
        -11    1    3    3    0    0 -0.82994408031E+01 -0.16496256149E+02  0.19153645842E+02  0.26605813911E+02  0.51100000000E-03 0.  1.
         12    1    3    3    0    0  0.30374042801E+01  0.34683105428E+01  0.53741698297E+01  0.70807276562E+01  0.00000000000E+00 0. -1.
</event>
<event>
 7    1  0.3383281E-011  0.5052887E+02  0.7816164E-02  0.1300439E+00
        -11   -1    0    0    0    0  0.00000000000E+00  0.00000000000E+00  0.45593999997E+02  0.45594000000E+02  0.51100000000E-03 0.  1.
         11   -1    0    0    0    0 -0.00000000000E+00 -0.00000000000E+00 -0.45593999997E+02  0.45594000000E+02  0.51100000000E-03 0. -1.
    9900012    2    1    2    0    0  0.32329940173E+01  0.21134726266E+02  0.34583754296E+02  0.50528868604E+02  0.30000026609E+02 0.  0.
         12    1    1    2    0    0 -0.32329940173E+01 -0.21134726266E+02 -0.34583754296E+02  0.40659131396E+02  0.00000000000E+00 0. -1.
         11    1    3    3    0    0 -0.47254918980E+01  0.30765137023E+01 -0.15957665717E+01  0.58601775955E+01  0.51100000000E-03 0. -1.
        -11    1    3    3    0    0 -0.19627630444E+01 -0.19137571780E+01  0.81471401726E+00  0.28598364456E+01  0.51100000000E-03 0.  1.
        -12    1    3    3    0    0  0.99212489597E+01  0.19971969742E+02  0.35364806851E+02  0.41808854563E+02  0.00000000000E+00 0.  1.
</event>
<event>
 7    1  0.3383281E-011  0.5052886E+02  0.7816164E-02  0.1300439E+00
        -11   -1    0    0    0    0  0.00000000000E+00  0.00000000000E+00  0.45593999997E+02  0.45594000000E+02  0.51100000000E-03 0. -1.
         11   -1    0    0    0    0 -0.00000000000E+00 -0.00000000000E+00 -0.45593999997E+02  0.45594000000E+02  0.51100000000E-03 0.  1.
    9900012    2    1    2    0    0 -0.13236549862E+02  0.26727059715E+02 -0.27633740444E+02  0.50528861000E+02  0.30000003495E+02 0.  0.
         12    1    1    2    0    0  0.13236549862E+02 -0.26727059715E+02  0.27633740444E+02  0.40659139000E+02  0.00000000000E+00 0. -1.
         11    1    3    3    0    0  0.30154748329E+01  0.12261093652E+02 -0.10282394631E+02  0.16283585159E+02  0.51100000000E-03 0. -1.
        -11    1    3    3    0    0  0.22684358519E+01  0.10191754736E+02 -0.49928417162E+01  0.11573510033E+02  0.51100000000E-03 0.  1.
        -12    1    3    3    0    0 -0.18520460547E+02  0.42742113271E+01 -0.12358504097E+02  0.22671765808E+02  0.00000000000E+00 0.  1.
</event>
<event>
 7    1  0.3383281E-011  0.5052889E+02  0.7816164E-02  0.1300439E+00
        -11   -1    0    0    0    0  0.00000000000E+00  0.00000000000E+00  0.45593999997E+02  0.45594000000E+02  0.51100000000E-03 0.  1.
         11   -1    0    0    0    0 -0.00000000000E+00 -0.00000000000E+00 -0.45593999997E+02  0.45594000000E+02  0.51100000000E-03 0. -1.
    9900012    2    1    2    0    0  0.12947625603E+02  0.12438555074E+02  0.36480198003E+02  0.50528886539E+02  0.30000081123E+02 0.  0.
         12    1    1    2    0    0 -0.12947625603E+02 -0.12438555074E+02 -0.36480198003E+02  0.40659113461E+02  0.00000000000E+00 0. -1.
         11    1    3    3    0    0 -0.51630799710E+01  0.38044607453E+01  0.16641042196E+02  0.17834113434E+02  0.51100000000E-03 0. -1.
        -11    1    3    3    0    0  0.66259469129E+01  0.11727744690E+02  0.14059267037E+02  0.19470648625E+02  0.51100000000E-03 0.  1.
         12    1    3    3    0    0  0.11484758661E+02 -0.30936503607E+01  0.57798887706E+01  0.13224124480E+02  0.00000000000E+00 0. -1.
</event>
<event>
 7    1  0.3383281E-011  0.5052884E+02  0.7816164E-02  0.1300439E+00
        -11   -1    0    0    0    0  0.00000000000E+00  0.00000000000E+00  0.45593999997E+02  0.45594000000E+02  0.51100000000E-03 0.  1.
         11   -1    0    0    0    0 -0.00000000000E+00 -0.00000000000E+00 -0.45593999997E+02  0.45594000000E+02  0.51100000000E-03 0. -1.
    9900012    2    1    2    0    0  0.30982228996E+02 -0.19786836497E+02  0.17370954894E+02  0.50528837612E+02  0.29999932405E+02 0.  0.
         12    1    1    2    0    0 -0.30982228996E+02  0.19786836497E+02 -0.17370954894E+02  0.40659162388E+02  0.00000000000E+00 0. -1.
         11    1    3    3    0    0  0.16182744976E+02 -0.93796727242E+01  0.67340051588E+01  0.19879796808E+02  0.51100000000E-03 0. -1.
        -11    1    3    3    0    0  0.13259408200E+02 -0.17210352503E+02  0.73249069350E+01  0.22927328692E+02  0.51100000000E-03 0.  1.
         12    1    3    3    0    0  0.15400758202E+01  0.68031887298E+01  0.33120428005E+01  0.77217121118E+01  0.00000000000E+00 0. -1.
</event>
<event>
 7    1  0.3383281E-011  0.5052887E+02  0.7816164E-02  0.1300439E+00
        -11   -1    0    0    0    0  0.00000000000E+00  0.00000000000E+00  0.45593999997E+02  0.45594000000E+02  0.51100000000E-03 0. -1.
         11   -1    0    0    0    0 -0.00000000000E+00 -0.00000000000E+00 -0.45593999997E+02  0.45594000000E+02  0.51100000000E-03 0.  1.
    9900012    2    1    2    0    0 -0.21956105401E+02 -0.21798440183E+02 -0.26380336309E+02  0.50528871842E+02  0.30000036450E+02 0.  0.
         12    1    1    2    0    0  0.21956105401E+02  0.21798440183E+02  0.26380336309E+02  0.40659128158E+02  0.00000000000E+00 0. -1.
         11    1    3    3    0    0 -0.68135492261E+01  0.74416482569E+00 -0.20948000117E+01  0.71670371629E+01  0.51100000000E-03 0. -1.
        -11    1    3    3    0    0 -0.17722299749E+02 -0.10025944353E+02 -0.63304773072E+01  0.21323095736E+02  0.51100000000E-03 0.  1.
        -12    1    3    3    0    0  0.25797435734E+01 -0.12516660655E+02 -0.17955058990E+02  0.22038738943E+02  0.00000000000E+00 0.  1.
</event>
<event>
 7    1  0.3383281E-011  0.5052885E+02  0.7816164E-02  0.1300439E+00
        -11   -1    0    0    0    0  0.00000000000E+00  0.00000000000E+00  0.45593999997E+02  0.45594000000E+02  0.51100000000E-03 0.  1.
         11   -1    0    0    0    0 -0.00000000000E+00 -0.00000000000E+00 -0.45593999997E+02  0.45594000000E+02  0.51100000000E-03 0. -1.
    9900012    2    1    2    0    0 -0.64266034246E+01 -0.21619075727E+02  0.33830174945E+02  0.50528850923E+02  0.29999972866E+02 0.  0.
         12    1    1    2    0    0  0.64266034246E+01  0.21619075727E+02 -0.33830174945E+02  0.40659149077E+02  0.00000000000E+00 0. -1.
         11    1    3    3    0    0  0.92241393713E+00 -0.16977354167E+02  0.36579088499E+02  0.40337465435E+02  0.51100000000E-03 0. -1.
        -11    1    3    3    0    0 -0.15083627295E+01 -0.21623507139E+01  0.10020667933E+01  0.28204710339E+01  0.51100000000E-03 0.  1.
         12    1    3    3    0    0 -0.58406546323E+01 -0.24793708464E+01 -0.37509803481E+01  0.73709144548E+01  0.00000000000E+00 0. -1.
</event>
<event>
 7    1  0.3383281E-011  0.5052882E+02  0.7816164E-02  0.1300439E+00
        -11   -1    0    0    0    0  0.00000000000E+00  0.00000000000E+00  0.45593999997E+02  0.45594000000E+02  0.51100000000E-03 0.  1.
         11   -1    0    0    0    0 -0.00000000000E+00 -0.00000000000E+00 -0.45593999997E+02  0.45594000000E+02  0.51100000000E-03 0. -1.
    9900012    2    1    2    0    0  0.18312399425E+02  0.11152288647E+02  0.34546367121E+02  0.50528819044E+02  0.29999875967E+02 0.  0.
         12    1    1    2    0    0 -0.18312399425E+02 -0.11152288647E+02 -0.34546367121E+02  0.40659180956E+02  0.00000000000E+00 0. -1.
         11    1    3    3    0    0  0.14010177486E+02 -0.25205102011E+01  0.15126801649E+02  0.20771571275E+02  0.51100000000E-03 0. -1.
        -11    1    3    3    0    0  0.11055237103E+02  0.72048234653E+01  0.11471112995E+02  0.17484684217E+02  0.51100000000E-03 0.  1.
         12    1    3    3    0    0 -0.67530151643E+01  0.64679753825E+01  0.79484524772E+01  0.12272563552E+02  0.00000000000E+00 0. -1.
</event>
<event>
 7    1  0.3383281E-011  0.5052886E+02  0.7816164E-02  0.1300439E+00
        -11   -1    0    0    0    0  0.00000000000E+00  0.00000000000E+00  0.45593999997E+02  0.45594000000E+02  0.51100000000E-03 0.  1.
         11   -1    0    0    0    0 -0.00000000000E+00 -0.00000000000E+00 -0.45593999997E+02  0.45594000000E+02  0.51100000000E-03 0. -1.
    9900012    2    1    2    0    0  0.13333034408E+02 -0.16432356173E+02  0.34718489315E+02  0.50528860361E+02  0.30000001552E+02 0.  0.
         12    1    1    2    0    0 -0.13333034408E+02  0.16432356173E+02 -0.34718489315E+02  0.40659139639E+02  0.00000000000E+00 0. -1.
         11    1    3    3    0    0  0.14637424141E+02 -0.10954998173E+02  0.24538776417E+02  0.30600943102E+02  0.51100000000E-03 0. -1.
        -11    1    3    3    0    0  0.32541562800E+01 -0.33413333858E+01  0.13239339393E+02  0.14036885328E+02  0.51100000000E-03 0.  1.
         12    1    3    3    0    0 -0.45585460137E+01 -0.21360246149E+01 -0.30596264951E+01  0.58910319303E+01  0.00000000000E+00 0. -1.
</event>
<event>
 7    1  0.3383281E-011  0.5052883E+02  0.7816164E-02  0.1300439E+00
        -11   -1    0    0    0    0  0.00000000000E+00  0.00000000000E+00  0.45593999997E+02  0.45594000000E+02  0.51100000000E-03 0. -1.
         11   -1    0    0    0    0 -0.00000000000E+00 -0.00000000000E+00 -0.45593999997E+02  0.45594000000E+02  0.51100000000E-03 0.  1.
    9900012    2    1    2    0    0 -0.34445311364E+02 -0.20552466654E+02 -0.66546491993E+01  0.50528834778E+02  0.29999923792E+02 0.  0.
         12    1    1    2    0    0  0.34445311364E+02  0.20552466654E+02  0.66546491993E+01  0.40659165222E+02  0.00000000000E+00 0. -1.
         11    1    3    3    0    0  0.17568303392E+01 -0.52184526015E+01 -0.41470515048E+01  0.68932384871E+01  0.51100000000E-03 0. -1.
        -11    1    3    3    0    0 -0.28930125954E+02 -0.17427934479E+02 -0.74646461399E+01  0.34589102766E+02  0.51100000000E-03 0.  1.
         12    1    3    3    0    0 -0.72720157492E+01  0.20939204260E+01  0.49570484454E+01  0.90464935250E+01  0.00000000000E+00 0. -1.
</event>
<event>
 7    1  0.3383281E-011  0.5052885E+02  0.7816164E-02  0.1300439E+00
        -11   -1    0    0    0    0  0.00000000000E+00  0.00000000000E+00  0.45593999997E+02  0.45594000000E+02  0.51100000000E-03 0. -1.
         11   -1    0    0    0    0 -0.00000000000E+00 -0.00000000000E+00 -0.45593999997E+02  0.45594000000E+02  0.51100000000E-03 0.  1.
    9900012    2    1    2    0    0 -0.11987749161E+02  0.38648377654E+02 -0.39702617082E+01  0.50528853387E+02  0.29999980355E+02 0.  0.
         12    1    1    2    0    0  0.11987749161E+02 -0.38648377654E+02  0.39702617082E+01  0.40659146613E+02  0.00000000000E+00 0. -1.
         11    1    3    3    0    0 -0.25566223116E+01 -0.15526928441E+01  0.24102818923E+01  0.38414361603E+01  0.51100000000E-03 0. -1.
        -11    1    3    3    0    0 -0.15587934450E+02  0.22535568981E+02 -0.20034239610E+01  0.27474520515E+02  0.51100000000E-03 0.  1.
        -12    1    3    3    0    0  0.61568076011E+01  0.17665501518E+02 -0.43771196395E+01  0.19212896712E+02  0.00000000000E+00 0.  1.
</event>
<event>
 7    1  0.3383281E-011  0.5052887E+02  0.7816164E-02  0.1300439E+00
        -11   -1    0    0    0    0  0.00000000000E+00  0.00000000000E+00  0.45593999997E+02  0.45594000000E+02  0.51100000000E-03 0.  1.
         11   -1    0    0    0    0 -0.00000000000E+00 -0.00000000000E+00 -0.45593999997E+02  0.45594000000E+02  0.51100000000E-03 0. -1.
    9900012    2    1    2    0    0  0.31259635739E+02  0.86607627581E+01  0.24515129116E+02  0.50528865802E+02  0.30000018093E+02 0.  0.
         12    1    1    2    0    0 -0.31259635739E+02 -0.86607627581E+01 -0.24515129116E+02  0.40659134198E+02  0.00000000000E+00 0. -1.
         11    1    3    3    0    0 -0.26147874580E+01  0.15715453133E+01  0.30041181065E+01  0.42815410755E+01  0.51100000000E-03 0. -1.
        -11    1    3    3    0    0  0.32395023609E+01 -0.64144351598E+01  0.59452781394E+01  0.93266117311E+01  0.51100000000E-03 0.  1.
         12    1    3    3    0    0  0.30634920836E+02  0.13503652605E+02  0.15565732870E+02  0.36920712996E+02  0.00000000000E+00 0. -1.
</event>
<event>
 7    1  0.3383281E-011  0.5052888E+02  0.7816164E-02  0.1300439E+00
        -11   -1    0    0    0    0  0.00000000000E+00  0.00000000000E+00  0.45593999997E+02  0.45594000000E+02  0.51100000000E-03 0. -1.
         11   -1    0    0    0    0 -0.00000000000E+00 -0.00000000000E+00 -0.45593999997E+02  0.45594000000E+02  0.51100000000E-03 0.  1.
    9900012    2    1    2    0    0 -0.23509381761E+01  0.40504475314E+02  0.26504591278E+01  0.50528876001E+02  0.30000049093E+02 0.  0.
         12    1    1    2    0    0  0.23509381761E+01 -0.40504475314E+02 -0.26504591278E+01  0.40659123999E+02  0.00000000000E+00 0. -1.
         11    1    3    3    0    0 -0.98201577278E+00  0.13406518206E+02  0.14068345263E+01  0.13515852509E+02  0.51100000000E-03 0. -1.
        -11    1    3    3    0    0  0.34547068757E+01  0.28836076305E+02  0.64024721950E+01  0.29739635955E+02  0.51100000000E-03 0.  1.
         12    1    3    3    0    0 -0.48236292790E+01 -0.17381191981E+01 -0.51588475936E+01  0.72733875369E+01  0.00000000000E+00 0. -1.
</event>
<event>
 7    1  0.3383281E-011  0.5052886E+02  0.7816164E-02  0.1300439E+00
        -11   -1    0    0    0    0  0.00000000000E+00  0.00000000000E+00  0.45593999997E+02  0.45594000000E+02  0.51100000000E-03 0.  1.
         11   -1    0    0    0    0 -0.00000000000E+00 -0.00000000000E+00 -0.45593999997E+02  0.45594000000E+02  0.51100000000E-03 0. -1.
    9900012    2    1    2    0    0  0.94703961939E+00  0.40280623286E+02  0.54534837937E+01  0.50528856110E+02  0.29999988632E+02 0.  0.
         12    1    1    2    0    0 -0.94703961939E+00 -0.40280623286E+02 -0.54534837937E+01  0.40659143890E+02  0.00000000000E+00 0. -1.
         11    1    3    3    0    0 -0.18160521810E+01 -0.12047791148E+01 -0.85156458222E+00  0.23398078421E+01  0.51100000000E-03 0.  1.
        -11    1    3    3    0    0 -0.46697938199E+01  0.27136599145E+01 -0.47499904425E+01  0.71925888188E+01  0.51100000000E-03 0. -1.
        -12    1    3    3    0    0  0.74328856202E+01  0.38771742487E+02  0.11055038818E+02  0.40996459449E+02  0.00000000000E+00 0.  1.
</event>
<event>
 7    1  0.3383281E-011  0.5052883E+02  0.7816164E-02  0.1300439E+00
        -11   -1    0    0    0    0  0.00000000000E+00  0.00000000000E+00  0.45593999997E+02  0.45594000000E+02  0.51100000000E-03 0.  1.
         11   -1    0    0    0    0 -0.00000000000E+00 -0.00000000000E+00 -0.45593999997E+02  0.45594000000E+02  0.51100000000E-03 0. -1.
    9900012    2    1    2    0    0 -0.15615986394E+02  0.18815959027E+02  0.32484898871E+02  0.50528831294E+02  0.29999913202E+02 0.  0.
         12    1    1    2    0    0  0.15615986394E+02 -0.18815959027E+02 -0.32484898871E+02  0.40659168706E+02  0.00000000000E+00 0. -1.
         11    1    3    3    0    0 -0.39425707286E+01  0.40076914061E+01 -0.18982158675E+01  0.59336900911E+01  0.51100000000E-03 0. -1.
        -11    1    3    3    0    0 -0.80395045716E+01  0.11860641284E+01  0.79165763427E+00  0.81649925870E+01  0.51100000000E-03 0.  1.
        -12    1    3    3    0    0 -0.36339110940E+01  0.13622203493E+02  0.33591457104E+02  0.36430148616E+02  0.00000000000E+00 0.  1.
</event>
<event>
 7    1  0.3383281E-011  0.5052887E+02  0.7816164E-02  0.1300439E+00
        -11   -1    0    0    0    0  0.00000000000E+00  0.00000000000E+00  0.45593999997E+02  0.45594000000E+02  0.51100000000E-03 0.  1.
         11   -1    0    0    0    0 -0.00000000000E+00 -0.00000000000E+00 -0.45593999997E+02  0.45594000000E+02  0.51100000000E-03 0. -1.
    9900012    2    1    2    0    0 -0.13570159279E+02 -0.28446671058E+02  0.25686624525E+02  0.50528868226E+02  0.30000025459E+02 0.  0.
         12    1    1    2    0    0  0.13570159279E+02  0.28446671058E+02 -0.25686624525E+02  0.40659131774E+02  0.00000000000E+00 0. -1.
         11    1    3    3    0    0 -0.71707847104E+01 -0.25055612018E+02  0.42956156943E+01  0.26413181584E+02  0.51100000000E-03 0. -1.
        -11    1    3    3    0    0  0.47733577932E+00 -0.41306066595E+01  0.92783818393E+01  0.10167503658E+02  0.51100000000E-03 0.  1.
        -12    1    3    3    0    0 -0.68767103477E+01  0.73954761965E+00  0.12112626992E+02  0.13948182983E+02  0.00000000000E+00 0.  1.
</event>
<event>
 7    1  0.3383281E-011  0.5052886E+02  0.7816164E-02  0.1300439E+00
        -11   -1    0    0    0    0  0.00000000000E+00  0.00000000000E+00  0.45593999997E+02  0.45594000000E+02  0.51100000000E-03 0.  1.
         11   -1    0    0    0    0 -0.00000000000E+00 -0.00000000000E+00 -0.45593999997E+02  0.45594000000E+02  0.51100000000E-03 0. -1.
    9900012    2    1    2    0    0 -0.14930180801E+01  0.98391398853E+00  0.40619799872E+02  0.50528864110E+02  0.30000012948E+02 0.  0.
         12    1    1    2    0    0  0.14930180801E+01 -0.98391398853E+00 -0.40619799872E+02  0.40659135890E+02  0.00000000000E+00 0. -1.
         11    1    3    3    0    0 -0.75631790688E+01  0.23916267867E+01  0.85905349805E+00  0.79786922166E+01  0.51100000000E-03 0. -1.
        -11    1    3    3    0    0  0.63546250567E+00  0.44522216378E+01  0.43792753351E+01  0.62772719258E+01  0.51100000000E-03 0.  1.
         12    1    3    3    0    0  0.54346984830E+01 -0.58599344359E+01  0.35381471039E+02  0.36272899967E+02  0.00000000000E+00 0. -1.
</event>
<event>
 7    1  0.3383281E-011  0.5052887E+02  0.7816164E-02  0.1300439E+00
        -11   -1    0    0    0    0  0.00000000000E+00  0.00000000000E+00  0.45593999997E+02  0.45594000000E+02  0.51100000000E-03 0. -1.
         11   -1    0    0    0    0 -0.00000000000E+00 -0.00000000000E+00 -0.45593999997E+02  0.45594000000E+02  0.51100000000E-03 0.  1.
    9900012    2    1    2    0    0 -0.24482939734E+02  0.32458094014E+02  0.47166456808E+00  0.50528872212E+02  0.30000037574E+02 0.  0.
         12    1    1    2    0    0  0.24482939734E+02 -0.32458094014E+02 -0.47166456808E+00  0.40659127788E+02  0.00000000000E+00 0. -1.
         11    1    3    3    0    0 -0.16829780600E+02  0.24066650243E+02  0.10925880754E+02  0.31334007715E+02  0.51100000000E-03 0. -1.
        -11    1    3    3    0    0 -0.10175036152E+01  0.70457736204E+01 -0.47389985661E+00  0.71346212831E+01  0.51100000000E-03 0.  1.
         12    1    3    3    0    0 -0.66356555190E+01  0.13456701505E+01 -0.99803163298E+01  0.12060243213E+02  0.00000000000E+00 0. -1.
</event>
<event>
 7    1  0.3383281E-011  0.5052886E+02  0.7816164E-02  0.1300439E+00
        -11   -1    0    0    0    0  0.00000000000E+00  0.00000000000E+00  0.45593999997E+02  0.45594000000E+02  0.51100000000E-03 0. -1.
         11   -1    0    0    0    0 -0.00000000000E+00 -0.00000000000E+00 -0.45593999997E+02  0.45594000000E+02  0.51100000000E-03 0.  1.
    9900012    2    1    2    0    0  0.28414070917E+02  0.25298554856E+02 -0.14345358408E+02  0.50528860661E+02  0.30000002466E+02 0.  0.
         12    1    1    2    0    0 -0.28414070917E+02 -0.25298554856E+02  0.14345358408E+02  0.40659139339E+02  0.00000000000E+00 0. -1.
         11    1    3    3    0    0 -0.25059047734E+01  0.17360787469E+01  0.87464102922E+00  0.31715178290E+01  0.51100000000E-03 0. -1.
        -11    1    3    3    0    0  0.33639344256E+01  0.37493436632E+01  0.56067025433E+01  0.75371577132E+01  0.51100000000E-03 0.  1.
        -12    1    3    3    0    0  0.27556041265E+02  0.19813132446E+02 -0.20826701980E+02  0.39820185119E+02  0.00000000000E+00 0.  1.
</event>
<event>
 7    1  0.3383281E-011  0.5052885E+02  0.7816164E-02  0.1300439E+00
        -11   -1    0    0    0    0  0.00000000000E+00  0.00000000000E+00  0.45593999997E+02  0.45594000000E+02  0.51100000000E-03 0.  1.
         11   -1    0    0    0    0 -0.00000000000E+00 -0.00000000000E+00 -0.45593999997E+02  0.45594000000E+02  0.51100000000E-03 0. -1.
    9900012    2    1    2    0    0 -0.16162868005E+02 -0.36602627544E+02  0.72232584380E+01  0.50528854563E+02  0.29999983928E+02 0.  0.
         12    1    1    2    0    0  0.16162868005E+02  0.36602627544E+02 -0.72232584380E+01  0.40659145437E+02  0.00000000000E+00 0. -1.
         11    1    3    3    0    0  0.17580574505E+01  0.32060175994E+01  0.42453790402E-01  0.36566538573E+01  0.51100000000E-03 0. -1.
        -11    1    3    3    0    0 -0.82067066946E+00 -0.18623367390E+02  0.61403668114E+01  0.19626701662E+02  0.51100000000E-03 0.  1.
        -12    1    3    3    0    0 -0.17100254786E+02 -0.21185277753E+02  0.10404378361E+01  0.27245499043E+02  0.00000000000E+00 0.  1.
</event>
<event>
 7    1  0.4429846E-011  0.5052887E+02  0.7816164E-02  0.1300439E+00
        -11   -1    0    0    0    0  0.00000000000E+00  0.00000000000E+00  0.45593999997E+02  0.45594000000E+02  0.51100000000E-03 0. -1.
         11   -1    0    0    0    0 -0.00000000000E+00 -0.00000000000E+00 -0.45593999997E+02  0.45594000000E+02  0.51100000000E-03 0.  1.
    9900012    2    1    2    0    0  0.30848853498E+02 -0.88122124353E+01 -0.24977150518E+02  0.50528869437E+02  0.30000029141E+02 0.  0.
         12    1    1    2    0    0 -0.30848853498E+02  0.88122124353E+01  0.24977150518E+02  0.40659130563E+02  0.00000000000E+00 0. -1.
         11    1    3    3    0    0  0.15044997057E+02  0.27733248603E+01 -0.44557253958E+01  0.15934138078E+02  0.51100000000E-03 0. -1.
        -11    1    3    3    0    0  0.16922025342E+02 -0.78034686438E+00 -0.11506274949E+02  0.20478238361E+02  0.51100000000E-03 0.  1.
         12    1    3    3    0    0 -0.11181689005E+01 -0.10805190431E+02 -0.90151501729E+01  0.14116492999E+02  0.00000000000E+00 0. -1.
</event>
<event>
 7    1  0.3383281E-011  0.5052886E+02  0.7816164E-02  0.1300439E+00
        -11   -1    0    0    0    0  0.00000000000E+00  0.00000000000E+00  0.45593999997E+02  0.45594000000E+02  0.51100000000E-03 0.  1.
         11   -1    0    0    0    0 -0.00000000000E+00 -0.00000000000E+00 -0.45593999997E+02  0.45594000000E+02  0.51100000000E-03 0. -1.
    9900012    2    1    2    0    0 -0.32039706705E+02  0.23187257178E+02  0.94326174058E+01  0.50528856227E+02  0.29999988988E+02 0.  0.
         12    1    1    2    0    0  0.32039706705E+02 -0.23187257178E+02 -0.94326174058E+01  0.40659143773E+02  0.00000000000E+00 0. -1.
         11    1    3    3    0    0 -0.16489428349E+02  0.98884349894E+01 -0.69432774893E+01  0.20442394585E+02  0.51100000000E-03 0. -1.
        -11    1    3    3    0    0  0.19960761824E+01  0.58135977640E+01  0.44616667578E+01  0.75953083944E+01  0.51100000000E-03 0.  1.
        -12    1    3    3    0    0 -0.17546354538E+02  0.74852244250E+01  0.11914228137E+02  0.22491153247E+02  0.00000000000E+00 0.  1.
</event>
<event>
 7    1  0.3383281E-011  0.5052887E+02  0.7816164E-02  0.1300439E+00
        -11   -1    0    0    0    0  0.00000000000E+00  0.00000000000E+00  0.45593999997E+02  0.45594000000E+02  0.51100000000E-03 0. -1.
         11   -1    0    0    0    0 -0.00000000000E+00 -0.00000000000E+00 -0.45593999997E+02  0.45594000000E+02  0.51100000000E-03 0.  1.
    9900012    2    1    2    0    0 -0.12404133361E+02 -0.93553413893E+01 -0.37573661211E+02  0.50528868753E+02  0.30000027062E+02 0.  0.
         12    1    1    2    0    0  0.12404133361E+02  0.93553413893E+01  0.37573661211E+02  0.40659131247E+02  0.00000000000E+00 0. -1.
         11    1    3    3    0    0 -0.98348417074E+00  0.24248329238E+01  0.15960523936E+01  0.30650349633E+01  0.51100000000E-03 0. -1.
        -11    1    3    3    0    0  0.53551487061E+01 -0.78862378656E+01 -0.15384651584E+02  0.18098559887E+02  0.51100000000E-03 0.  1.
        -12    1    3    3    0    0 -0.16775797896E+02 -0.38939364475E+01 -0.23785062020E+02  0.29365273903E+02  0.00000000000E+00 0.  1.
</event>
<event>
 7    1  0.3383281E-011  0.5052887E+02  0.7816164E-02  0.1300439E+00
        -11   -1    0    0    0    0  0.00000000000E+00  0.00000000000E+00  0.45593999997E+02  0.45594000000E+02  0.51100000000E-03 0. -1.
         11   -1    0    0    0    0 -0.00000000000E+00 -0.00000000000E+00 -0.45593999997E+02  0.45594000000E+02  0.51100000000E-03 0.  1.
    9900012    2    1    2    0    0  0.29668086888E+02  0.26408347350E+02 -0.86930154424E+01  0.50528871789E+02  0.30000036290E+02 0.  0.
         12    1    1    2    0    0 -0.29668086888E+02 -0.26408347350E+02  0.86930154424E+01  0.40659128211E+02  0.00000000000E+00 0. -1.
         11    1    3    3    0    0  0.11216763298E+02  0.13498064140E+02 -0.65387182648E-01  0.17550435612E+02  0.51100000000E-03 0. -1.
        -11    1    3    3    0    0  0.52629721105E+01  0.17165394417E+02 -0.54182594796E+01  0.18753857656E+02  0.51100000000E-03 0.  1.
        -12    1    3    3    0    0  0.13188351479E+02 -0.42551112071E+01 -0.32093687802E+01  0.14224578521E+02  0.00000000000E+00 0.  1.
</event>
<event>
 7    1  0.3383281E-011  0.5052886E+02  0.7816164E-02  0.1300439E+00
        -11   -1    0    0    0    0  0.00000000000E+00  0.00000000000E+00  0.45593999997E+02  0.45594000000E+02  0.51100000000E-03 0. -1.
         11   -1    0    0    0    0 -0.00000000000E+00 -0.00000000000E+00 -0.45593999997E+02  0.45594000000E+02  0.51100000000E-03 0.  1.
    9900012    2    1    2    0    0  0.22723238759E+02 -0.15757473107E+02 -0.29808090872E+02  0.50528858102E+02  0.29999994688E+02 0.  0.
         12    1    1    2    0    0 -0.22723238759E+02  0.15757473107E+02  0.29808090872E+02  0.40659141898E+02  0.00000000000E+00 0. -1.
         11    1    3    3    0    0  0.35828422286E+01 -0.69629783517E+01 -0.13933598982E+02  0.15983272719E+02  0.51100000000E-03 0. -1.
        -11    1    3    3    0    0  0.16823531768E+02 -0.15636541097E+02 -0.93049193743E+01  0.24781326911E+02  0.51100000000E-03 0.  1.
         12    1    3    3    0    0  0.23168647632E+01  0.68420463425E+01 -0.65695725157E+01  0.97642584727E+01  0.00000000000E+00 0. -1.
</event>
<event>
 7    1  0.3383281E-011  0.5052885E+02  0.7816164E-02  0.1300439E+00
        -11   -1    0    0    0    0  0.00000000000E+00  0.00000000000E+00  0.45593999997E+02  0.45594000000E+02  0.51100000000E-03 0.  1.
         11   -1    0    0    0    0 -0.00000000000E+00 -0.00000000000E+00 -0.45593999997E+02  0.45594000000E+02  0.51100000000E-03 0. -1.
    9900012    2    1    2    0    0 -0.39799239143E+02  0.13170351721E+01  0.82129228911E+01  0.50528854406E+02  0.29999983452E+02 0.  0.
         12    1    1    2    0    0  0.39799239143E+02 -0.13170351721E+01 -0.82129228911E+01  0.40659145594E+02  0.00000000000E+00 0. -1.
         11    1    3    3    0    0 -0.28317446792E+02  0.69683440051E+01  0.18112416537E+01  0.29218422401E+02  0.51100000000E-03 0. -1.
        -11    1    3    3    0    0 -0.12796599598E+01  0.52220510703E+01  0.22883270952E+01  0.58432686187E+01  0.51100000000E-03 0.  1.
        -12    1    3    3    0    0 -0.10202132392E+02 -0.10873359903E+02  0.41133541423E+01  0.15467163386E+02  0.00000000000E+00 0.  1.
</event>
<event>
 7    1  0.3383281E-011  0.5052886E+02  0.7816164E-02  0.1300439E+00
        -11   -1    0    0    0    0  0.00000000000E+00  0.00000000000E+00  0.45593999997E+02  0.45594000000E+02  0.51100000000E-03 0. -1.
         11   -1    0    0    0    0 -0.00000000000E+00 -0.00000000000E+00 -0.45593999997E+02  0.45594000000E+02  0.51100000000E-03 0.  1.
    9900012    2    1    2    0    0 -0.37026855239E+02  0.97874952593E+00 -0.16769595425E+02  0.50528864616E+02  0.30000014485E+02 0.  0.
         12    1    1    2    0    0  0.37026855239E+02 -0.97874952593E+00  0.16769595425E+02  0.40659135384E+02  0.00000000000E+00 0. -1.
         11    1    3    3    0    0 -0.13857881564E+02 -0.56994487257E+01 -0.11428191004E+02  0.18844844045E+02  0.51100000000E-03 0. -1.
        -11    1    3    3    0    0 -0.18472348929E+02  0.24874190839E+01 -0.12276148404E+02  0.22318574070E+02  0.51100000000E-03 0.  1.
         12    1    3    3    0    0 -0.46966247464E+01  0.41907791677E+01  0.69347439826E+01  0.93654465001E+01  0.00000000000E+00 0. -1.
</event>
<event>
 7    1  0.3383281E-011  0.5052886E+02  0.7816164E-02  0.1300439E+00
        -11   -1    0    0    0    0  0.00000000000E+00  0.00000000000E+00  0.45593999997E+02  0.45594000000E+02  0.51100000000E-03 0. -1.
         11   -1    0    0    0    0 -0.00000000000E+00 -0.00000000000E+00 -0.45593999997E+02  0.45594000000E+02  0.51100000000E-03 0.  1.
    9900012    2    1    2    0    0  0.23547604351E+01  0.32478344813E+02  0.24347026947E+02  0.50528862039E+02  0.30000006655E+02 0.  0.
         12    1    1    2    0    0 -0.23547604351E+01 -0.32478344813E+02 -0.24347026947E+02  0.40659137961E+02  0.00000000000E+00 0. -1.
         11    1    3    3    0    0 -0.73550264909E+01  0.95833589097E+01  0.35008030179E+01  0.12577472111E+02  0.51100000000E-03 0. -1.
        -11    1    3    3    0    0  0.16940136605E+01  0.13001542768E+02 -0.47204184893E+00  0.13119932180E+02  0.51100000000E-03 0.  1.
         12    1    3    3    0    0  0.80157732655E+01  0.98934431353E+01  0.21318265778E+02  0.24831457748E+02  0.00000000000E+00 0. -1.
</event>
<event>
 7    1  0.3383281E-011  0.5052886E+02  0.7816164E-02  0.1300439E+00
        -11   -1    0    0    0    0  0.00000000000E+00  0.00000000000E+00  0.45593999997E+02  0.45594000000E+02  0.51100000000E-03 0.  1.
         11   -1    0    0    0    0 -0.00000000000E+00 -0.00000000000E+00 -0.45593999997E+02  0.45594000000E+02  0.51100000000E-03 0. -1.
    9900012    2    1    2    0    0 -0.73771480919E+01 -0.34347749891E+02  0.20468892414E+02  0.50528858430E+02  0.29999995685E+02 0.  0.
         12    1    1    2    0    0  0.73771480919E+01  0.34347749891E+02 -0.20468892414E+02  0.40659141570E+02  0.00000000000E+00 0. -1.
         11    1    3    3    0    0  0.76403704718E+00 -0.10114057787E+02 -0.43683410096E+01  0.11043564686E+02  0.51100000000E-03 0. -1.
        -11    1    3    3    0    0 -0.30916807056E+01 -0.32779682863E+01 -0.21115889954E+01  0.49761806657E+01  0.51100000000E-03 0.  1.
        -12    1    3    3    0    0 -0.50495044334E+01 -0.20955723817E+02  0.26948822419E+02  0.34509113079E+02  0.00000000000E+00 0.  1.
</event>
<event>
 7    1  0.3383281E-011  0.5052887E+02  0.7816164E-02  0.1300439E+00
        -11   -1    0    0    0    0  0.00000000000E+00  0.00000000000E+00  0.45593999997E+02  0.45594000000E+02  0.51100000000E-03 0.  1.
         11   -1    0    0    0    0 -0.00000000000E+00 -0.00000000000E+00 -0.45593999997E+02  0.45594000000E+02  0.51100000000E-03 0. -1.
    9900012    2    1    2    0    0 -0.76092695203E+01 -0.79583142445E+01  0.39139862489E+02  0.50528873301E+02  0.30000040885E+02 0.  0.
         12    1    1    2    0    0  0.76092695203E+01  0.79583142445E+01 -0.39139862489E+02  0.40659126699E+02  0.00000000000E+00 0. -1.
         11    1    3    3    0    0 -0.41406651236E+01 -0.97045832621E+00 -0.15719517319E+01  0.45340853032E+01  0.51100000000E-03 0. -1.
        -11    1    3    3    0    0  0.47925995361E+01  0.49332523012E+01  0.12162856477E+02  0.13972868944E+02  0.51100000000E-03 0.  1.
        -12    1    3    3    0    0 -0.82612039328E+01 -0.11921108219E+02  0.28548957744E+02  0.32021919054E+02  0.00000000000E+00 0.  1.
</event>
<event>
 7    1  0.3383281E-011  0.5052886E+02  0.7816164E-02  0.1300439E+00
        -11   -1    0    0    0    0  0.00000000000E+00  0.00000000000E+00  0.45593999997E+02  0.45594000000E+02  0.51100000000E-03 0.  1.
         11   -1    0    0    0    0 -0.00000000000E+00 -0.00000000000E+00 -0.45593999997E+02  0.45594000000E+02  0.51100000000E-03 0. -1.
    9900012    2    1    2    0    0 -0.33898664385E+02 -0.16047010298E+02  0.15701576342E+02  0.50528862205E+02  0.30000007159E+02 0.  0.
         12    1    1    2    0    0  0.33898664385E+02  0.16047010298E+02 -0.15701576342E+02  0.40659137795E+02  0.00000000000E+00 0. -1.
         11    1    3    3    0    0 -0.28062742882E+00 -0.30457633264E+01  0.33184116625E+01  0.45130125434E+01  0.51100000000E-03 0.  1.
        -11    1    3    3    0    0 -0.14664397218E+02 -0.35440527452E+01  0.18591614725E+02  0.23942702311E+02  0.51100000000E-03 0. -1.
         12    1    3    3    0    0 -0.18953639739E+02 -0.94571942263E+01 -0.62084500460E+01  0.22073147350E+02  0.00000000000E+00 0. -1.
</event>
<event>
 7    1  0.3383281E-011  0.5052885E+02  0.7816164E-02  0.1300439E+00
        -11   -1    0    0    0    0  0.00000000000E+00  0.00000000000E+00  0.45593999997E+02  0.45594000000E+02  0.51100000000E-03 0.  1.
         11   -1    0    0    0    0 -0.00000000000E+00 -0.00000000000E+00 -0.45593999997E+02  0.45594000000E+02  0.51100000000E-03 0. -1.
    9900012    2    1    2    0    0 -0.12558853257E+02 -0.28883207624E+02  0.25713849110E+02  0.50528849568E+02  0.29999968748E+02 0.  0.
         12    1    1    2    0    0  0.12558853257E+02  0.28883207624E+02 -0.25713849110E+02  0.40659150432E+02  0.00000000000E+00 0. -1.
         11    1    3    3    0    0 -0.10186301168E+01  0.12332214328E+01 -0.22607035925E+01  0.27693362763E+01  0.51100000000E-03 0. -1.
        -11    1    3    3    0    0 -0.25754273338E+01 -0.56931230805E+00 -0.30199063872E+01  0.40095856774E+01  0.51100000000E-03 0.  1.
        -12    1    3    3    0    0 -0.89647958066E+01 -0.29547116749E+02  0.30994459089E+02  0.43749927614E+02  0.00000000000E+00 0.  1.
</event>
<event>
 7    1  0.3383281E-011  0.5052885E+02  0.7816164E-02  0.1300439E+00
        -11   -1    0    0    0    0  0.00000000000E+00  0.00000000000E+00  0.45593999997E+02  0.45594000000E+02  0.51100000000E-03 0. -1.
         11   -1    0    0    0    0 -0.00000000000E+00 -0.00000000000E+00 -0.45593999997E+02  0.45594000000E+02  0.51100000000E-03 0.  1.
    9900012    2    1    2    0    0 -0.23148037195E+02  0.26275741937E+02 -0.20662041652E+02  0.50528853360E+02  0.29999980272E+02 0.  0.
         12    1    1    2    0    0  0.23148037195E+02 -0.26275741937E+02  0.20662041652E+02  0.40659146640E+02  0.00000000000E+00 0. -1.
         11    1    3    3    0    0 -0.45752602598E+01 -0.74537243201E-01 -0.22218341477E+00  0.45812583399E+01  0.51100000000E-03 0. -1.
        -11    1    3    3    0    0 -0.16509115709E+02  0.40896775228E+01 -0.23101945259E+01  0.17164304901E+02  0.51100000000E-03 0.  1.
        -12    1    3    3    0    0 -0.20636612263E+01  0.22260601657E+02 -0.18129663711E+02  0.28783290119E+02  0.00000000000E+00 0.  1.
</event>
<event>
 7    1  0.3383281E-011  0.5052886E+02  0.7816164E-02  0.1300439E+00
        -11   -1    0    0    0    0  0.00000000000E+00  0.00000000000E+00  0.45593999997E+02  0.45594000000E+02  0.51100000000E-03 0.  1.
         11   -1    0    0    0    0 -0.00000000000E+00 -0.00000000000E+00 -0.45593999997E+02  0.45594000000E+02  0.51100000000E-03 0. -1.
    9900012    2    1    2    0    0 -0.16711065647E+02  0.10797412193E+02  0.35458739187E+02  0.50528855766E+02  0.29999987585E+02 0.  0.
         12    1    1    2    0    0  0.16711065647E+02 -0.10797412193E+02 -0.35458739187E+02  0.40659144234E+02  0.00000000000E+00 0. -1.
         11    1    3    3    0    0  0.41740259632E+01 -0.17470334665E+01  0.38226046552E+01  0.59234217548E+01  0.51100000000E-03 0. -1.
        -11    1    3    3    0    0 -0.18648768637E+01 -0.51142855980E+01  0.64473080512E+01  0.84380960093E+01  0.51100000000E-03 0.  1.
        -12    1    3    3    0    0 -0.19020214747E+02  0.17658731257E+02  0.25188826481E+02  0.36167338001E+02  0.00000000000E+00 0.  1.
</event>
<event>
 7    1  0.3383281E-011  0.5052886E+02  0.7816164E-02  0.1300439E+00
        -11   -1    0    0    0    0  0.00000000000E+00  0.00000000000E+00  0.45593999997E+02  0.45594000000E+02  0.51100000000E-03 0.  1.
         11   -1    0    0    0    0 -0.00000000000E+00 -0.00000000000E+00 -0.45593999997E+02  0.45594000000E+02  0.51100000000E-03 0. -1.
    9900012    2    1    2    0    0 -0.26008416591E+02  0.10738004558E+02  0.29350015784E+02  0.50528857093E+02  0.29999991619E+02 0.  0.
         12    1    1    2    0    0  0.26008416591E+02 -0.10738004558E+02 -0.29350015784E+02  0.40659142907E+02  0.00000000000E+00 0. -1.
         11    1    3    3    0    0  0.15427053319E+01  0.65247938001E+01  0.10178232206E+02  0.12188079627E+02  0.51100000000E-03 0. -1.
        -11    1    3    3    0    0 -0.18230375478E+02  0.11276614634E+02  0.11182983824E+02  0.24177836031E+02  0.51100000000E-03 0.  1.
         12    1    3    3    0    0 -0.93207464445E+01 -0.70634038760E+01  0.79887997535E+01  0.14162941435E+02  0.00000000000E+00 0. -1.
</event>
<event>
 7    1  0.3383281E-011  0.5052886E+02  0.7816164E-02  0.1300439E+00
        -11   -1    0    0    0    0  0.00000000000E+00  0.00000000000E+00  0.45593999997E+02  0.45594000000E+02  0.51100000000E-03 0. -1.
         11   -1    0    0    0    0 -0.00000000000E+00 -0.00000000000E+00 -0.45593999997E+02  0.45594000000E+02  0.51100000000E-03 0.  1.
    9900012    2    1    2    0    0 -0.31155354167E+02 -0.16864573928E+02 -0.19952338639E+02  0.50528858787E+02  0.29999996767E+02 0.  0.
         12    1    1    2    0    0  0.31155354167E+02  0.16864573928E+02  0.19952338639E+02  0.40659141213E+02  0.00000000000E+00 0. -1.
         11    1    3    3    0    0 -0.68547899673E+01 -0.10719113927E+02 -0.45599896024E+01  0.13515955545E+02  0.51100000000E-03 0. -1.
        -11    1    3    3    0    0 -0.21278441430E+02 -0.13656193944E+02 -0.13644608867E+02  0.28730455167E+02  0.51100000000E-03 0.  1.
        -12    1    3    3    0    0 -0.30221227704E+01  0.75107339430E+01 -0.17477401699E+01  0.82824480743E+01  0.00000000000E+00 0.  1.
</event>
<event>
 7    1  0.3383281E-011  0.5052886E+02  0.7816164E-02  0.1300439E+00
        -11   -1    0    0    0    0  0.00000000000E+00  0.00000000000E+00  0.45593999997E+02  0.45594000000E+02  0.51100000000E-03 0.  1.
         11   -1    0    0    0    0 -0.00000000000E+00 -0.00000000000E+00 -0.45593999997E+02  0.45594000000E+02  0.51100000000E-03 0. -1.
    9900012    2    1    2    0    0 -0.24732122187E+02 -0.12468719501E+02  0.29766073276E+02  0.50528856476E+02  0.29999989745E+02 0.  0.
         12    1    1    2    0    0  0.24732122187E+02  0.12468719501E+02 -0.29766073276E+02  0.40659143524E+02  0.00000000000E+00 0. -1.
         11    1    3    3    0    0 -0.35318895340E+01  0.84161035108E+00  0.51821734686E+01  0.63275171895E+01  0.51100000000E-03 0.  1.
        -11    1    3    3    0    0 -0.25675799034E+02 -0.46146801282E+01  0.13342716273E+02  0.29301365267E+02  0.51100000000E-03 0. -1.
         12    1    3    3    0    0  0.44755663810E+01 -0.86956497235E+01  0.11241183534E+02  0.14899974020E+02  0.00000000000E+00 0. -1.
</event>
<event>
 7    1  0.3383281E-011  0.5052886E+02  0.7816164E-02  0.1300439E+00
        -11   -1    0    0    0    0  0.00000000000E+00  0.00000000000E+00  0.45593999997E+02  0.45594000000E+02  0.51100000000E-03 0. -1.
         11   -1    0    0    0    0 -0.00000000000E+00 -0.00000000000E+00 -0.45593999997E+02  0.45594000000E+02  0.51100000000E-03 0.  1.
    9900012    2    1    2    0    0 -0.21188301103E+02  0.25190501596E+02 -0.23867548476E+02  0.50528863947E+02  0.30000012454E+02 0.  0.
         12    1    1    2    0    0  0.21188301103E+02 -0.25190501596E+02  0.23867548476E+02  0.40659136053E+02  0.00000000000E+00 0. -1.
         11    1    3    3    0    0 -0.13580461819E+01  0.36889146478E+01 -0.75018838314E+01  0.84693944289E+01  0.51100000000E-03 0. -1.
        -11    1    3    3    0    0 -0.75645516689E+01  0.20643534919E+01 -0.17365748246E+02  0.19053955224E+02  0.51100000000E-03 0.  1.
         12    1    3    3    0    0 -0.12265703252E+02  0.19437233457E+02  0.10000836011E+01  0.23005514294E+02  0.00000000000E+00 0. -1.
</event>
<event>
 7    1  0.3383281E-011  0.5052886E+02  0.7816164E-02  0.1300439E+00
        -11   -1    0    0    0    0  0.00000000000E+00  0.00000000000E+00  0.45593999997E+02  0.45594000000E+02  0.51100000000E-03 0.  1.
         11   -1    0    0    0    0 -0.00000000000E+00 -0.00000000000E+00 -0.45593999997E+02  0.45594000000E+02  0.51100000000E-03 0. -1.
    9900012    2    1    2    0    0 -0.30727977124E+02 -0.33483080584E+01  0.26414885294E+02  0.50528856993E+02  0.29999991315E+02 0.  0.
         12    1    1    2    0    0  0.30727977124E+02  0.33483080584E+01 -0.26414885294E+02  0.40659143007E+02  0.00000000000E+00 0. -1.
         11    1    3    3    0    0 -0.11722648979E+01 -0.35042100155E+01  0.89158681480E+00  0.38011340588E+01  0.51100000000E-03 0. -1.
        -11    1    3    3    0    0 -0.14984390250E+01  0.53621867841E+01 -0.30473806610E+01  0.63470383467E+01  0.51100000000E-03 0.  1.
        -12    1    3    3    0    0 -0.28057273201E+02 -0.52062848270E+01  0.28570679140E+02  0.40380684587E+02  0.00000000000E+00 0.  1.
</event>
<event>
 7    1  0.3383281E-011  0.5052885E+02  0.7816164E-02  0.1300439E+00
        -11   -1    0    0    0    0  0.00000000000E+00  0.00000000000E+00  0.45593999997E+02  0.45594000000E+02  0.51100000000E-03 0.  1.
         11   -1    0    0    0    0 -0.00000000000E+00 -0.00000000000E+00 -0.45593999997E+02  0.45594000000E+02  0.51100000000E-03 0. -1.
    9900012    2    1    2    0    0 -0.10775245318E+02  0.35689413466E+02  0.16227325833E+02  0.50528852826E+02  0.29999978651E+02 0.  0.
         12    1    1    2    0    0  0.10775245318E+02 -0.35689413466E+02 -0.16227325833E+02  0.40659147174E+02  0.00000000000E+00 0. -1.
         11    1    3    3    0    0 -0.24556121696E+01  0.16502945145E+02  0.21230824402E+02  0.27002317208E+02  0.51100000000E-03 0.  1.
        -11    1    3    3    0    0  0.96191249929E+00 -0.16207208548E+00  0.83813190084E+00  0.12860825640E+01  0.51100000000E-03 0. -1.
        -12    1    3    3    0    0 -0.92815456481E+01  0.19348540407E+02 -0.58416304702E+01  0.22240453054E+02  0.00000000000E+00 0.  1.
</event>
<event>
 7    1  0.3383281E-011  0.5052885E+02  0.7816164E-02  0.1300439E+00
        -11   -1    0    0    0    0  0.00000000000E+00  0.00000000000E+00  0.45593999997E+02  0.45594000000E+02  0.51100000000E-03 0.  1.
         11   -1    0    0    0    0 -0.00000000000E+00 -0.00000000000E+00 -0.45593999997E+02  0.45594000000E+02  0.51100000000E-03 0. -1.
    9900012    2    1    2    0    0  0.85904017977E+01  0.10739928748E+02  0.38262586749E+02  0.50528848296E+02  0.29999964882E+02 0.  0.
         12    1    1    2    0    0 -0.85904017977E+01 -0.10739928748E+02 -0.38262586749E+02  0.40659151704E+02  0.00000000000E+00 0. -1.
         11    1    3    3    0    0  0.60158004544E+00  0.22357624658E+01  0.28630616406E+01  0.36820720490E+01  0.51100000000E-03 0. -1.
        -11    1    3    3    0    0 -0.28340008999E+01  0.16070298107E+02  0.25774831709E+02  0.30506195965E+02  0.51100000000E-03 0.  1.
         12    1    3    3    0    0  0.10822822652E+02 -0.75661318249E+01  0.96246933986E+01  0.16340580282E+02  0.00000000000E+00 0. -1.
</event>
<event>
 7    1  0.3383281E-011  0.5052885E+02  0.7816164E-02  0.1300439E+00
        -11   -1    0    0    0    0  0.00000000000E+00  0.00000000000E+00  0.45593999997E+02  0.45594000000E+02  0.51100000000E-03 0.  1.
         11   -1    0    0    0    0 -0.00000000000E+00 -0.00000000000E+00 -0.45593999997E+02  0.45594000000E+02  0.51100000000E-03 0. -1.
    9900012    2    1    2    0    0  0.28258876714E+02 -0.28932377382E+02  0.41856755311E+01  0.50528850307E+02  0.29999970992E+02 0.  0.
         12    1    1    2    0    0 -0.28258876714E+02  0.28932377382E+02 -0.41856755311E+01  0.40659149693E+02  0.00000000000E+00 0. -1.
         11    1    3    3    0    0  0.28676236622E+01  0.55046374817E+01 -0.72520368762E+00  0.62490175166E+01  0.51100000000E-03 0. -1.
        -11    1    3    3    0    0  0.10504163322E+02 -0.10665514174E+02 -0.27136896597E+01  0.15213637025E+02  0.51100000000E-03 0.  1.
        -12    1    3    3    0    0  0.14887089730E+02 -0.23771500690E+02  0.76245688784E+01  0.29066195765E+02  0.00000000000E+00 0.  1.
</event>
<event>
 7    1  0.4090878E-011  0.5052885E+02  0.7816164E-02  0.1300439E+00
        -11   -1    0    0    0    0  0.00000000000E+00  0.00000000000E+00  0.45593999997E+02  0.45594000000E+02  0.51100000000E-03 0.  1.
         11   -1    0    0    0    0 -0.00000000000E+00 -0.00000000000E+00 -0.45593999997E+02  0.45594000000E+02  0.51100000000E-03 0. -1.
    9900012    2    1    2    0    0 -0.90342821436E+01 -0.36501301344E+02  0.15466204441E+02  0.50528846867E+02  0.29999960538E+02 0.  0.
         12    1    1    2    0    0  0.90342821436E+01  0.36501301344E+02 -0.15466204441E+02  0.40659153133E+02  0.00000000000E+00 0. -1.
         11    1    3    3    0    0 -0.11724845588E+02 -0.15624836439E+02  0.46889073692E+01  0.20089633406E+02  0.51100000000E-03 0. -1.
        -11    1    3    3    0    0 -0.54185276035E+01 -0.18827436919E+02  0.10115921143E+02  0.22049142459E+02  0.51100000000E-03 0.  1.
         12    1    3    3    0    0  0.81090910479E+01 -0.20490279860E+01  0.66137592929E+00  0.83900710027E+01  0.00000000000E+00 0. -1.
</event>
<event>
 7    1  0.3383281E-011  0.5052886E+02  0.7816164E-02  0.1300439E+00
        -11   -1    0    0    0    0  0.00000000000E+00  0.00000000000E+00  0.45593999997E+02  0.45594000000E+02  0.51100000000E-03 0.  1.
         11   -1    0    0    0    0 -0.00000000000E+00 -0.00000000000E+00 -0.45593999997E+02  0.45594000000E+02  0.51100000000E-03 0. -1.
    9900012    2    1    2    0    0 -0.38957077777E+02  0.98018898163E+01 -0.62797174634E+01  0.50528858293E+02  0.29999995268E+02 0.  0.
         12    1    1    2    0    0  0.38957077777E+02 -0.98018898163E+01  0.62797174634E+01  0.40659141707E+02  0.00000000000E+00 0. -1.
         11    1    3    3    0    0 -0.91761826654E+01 -0.80864960388E+00 -0.86492017843E+01  0.12635859063E+02  0.51100000000E-03 0. -1.
        -11    1    3    3    0    0 -0.62284534213E+01  0.81083183125E+01 -0.70332385063E+01  0.12409871153E+02  0.51100000000E-03 0.  1.
        -12    1    3    3    0    0 -0.23552441691E+02  0.25022211077E+01  0.94027228272E+01  0.25483128078E+02  0.00000000000E+00 0.  1.
</event>
<event>
 7    1  0.3383281E-011  0.5052885E+02  0.7816164E-02  0.1300439E+00
        -11   -1    0    0    0    0  0.00000000000E+00  0.00000000000E+00  0.45593999997E+02  0.45594000000E+02  0.51100000000E-03 0. -1.
         11   -1    0    0    0    0 -0.00000000000E+00 -0.00000000000E+00 -0.45593999997E+02  0.45594000000E+02  0.51100000000E-03 0.  1.
    9900012    2    1    2    0    0  0.14618578263E+02  0.36308832919E+02 -0.11006005069E+02  0.50528851879E+02  0.29999975771E+02 0.  0.
         12    1    1    2    0    0 -0.14618578263E+02 -0.36308832919E+02  0.11006005069E+02  0.40659148121E+02  0.00000000000E+00 0. -1.
         11    1    3    3    0    0  0.15306387492E+02  0.23559903391E+02 -0.70107728150E+01  0.28956959122E+02  0.51100000000E-03 0. -1.
        -11    1    3    3    0    0  0.79901638844E+01  0.43023071249E+01 -0.13261003345E+01  0.91712108173E+01  0.51100000000E-03 0.  1.
        -12    1    3    3    0    0 -0.86779731133E+01  0.84466224026E+01 -0.26691319200E+01  0.12400681940E+02  0.00000000000E+00 0.  1.
</event>
<event>
 7    1  0.3383281E-011  0.5052886E+02  0.7816164E-02  0.1300439E+00
        -11   -1    0    0    0    0  0.00000000000E+00  0.00000000000E+00  0.45593999997E+02  0.45594000000E+02  0.51100000000E-03 0.  1.
         11   -1    0    0    0    0 -0.00000000000E+00 -0.00000000000E+00 -0.45593999997E+02  0.45594000000E+02  0.51100000000E-03 0. -1.
    9900012    2    1    2    0    0 -0.99061955649E+01 -0.25599872520E+02  0.29994660760E+02  0.50528857637E+02  0.29999993272E+02 0.  0.
         12    1    1    2    0    0  0.99061955649E+01  0.25599872520E+02 -0.29994660760E+02  0.40659142363E+02  0.00000000000E+00 0. -1.
         11    1    3    3    0    0 -0.84098557187E+01 -0.20134939694E+02  0.24327682351E+02  0.32679926538E+02  0.51100000000E-03 0. -1.
        -11    1    3    3    0    0 -0.51645063488E+01 -0.38377921566E+01  0.10032960084E+02  0.11918937150E+02  0.51100000000E-03 0.  1.
         12    1    3    3    0    0  0.36681665026E+01 -0.16271406690E+01 -0.43659816750E+01  0.59299939489E+01  0.00000000000E+00 0. -1.
</event>
<event>
 7    1  0.3383281E-011  0.5052886E+02  0.7816164E-02  0.1300439E+00
        -11   -1    0    0    0    0  0.00000000000E+00  0.00000000000E+00  0.45593999997E+02  0.45594000000E+02  0.51100000000E-03 0.  1.
         11   -1    0    0    0    0 -0.00000000000E+00 -0.00000000000E+00 -0.45593999997E+02  0.45594000000E+02  0.51100000000E-03 0. -1.
    9900012    2    1    2    0    0  0.40221400458E+02  0.35599508120E+01 -0.47677328964E+01  0.50528861033E+02  0.30000003596E+02 0.  0.
         12    1    1    2    0    0 -0.40221400458E+02 -0.35599508120E+01  0.47677328964E+01  0.40659138967E+02  0.00000000000E+00 0. -1.
         11    1    3    3    0    0  0.28006207195E+01  0.34448586119E-01 -0.54608419863E+01  0.61372191243E+01  0.51100000000E-03 0. -1.
        -11    1    3    3    0    0 -0.19315970505E+01 -0.21994600037E+01 -0.33162943675E+01  0.44234036744E+01  0.51100000000E-03 0.  1.
        -12    1    3    3    0    0  0.39352376789E+02  0.57249622295E+01  0.40094034575E+01  0.39968238234E+02  0.00000000000E+00 0.  1.
</event>
<event>
 7    1  0.3383281E-011  0.5052885E+02  0.7816164E-02  0.1300439E+00
        -11   -1    0    0    0    0  0.00000000000E+00  0.00000000000E+00  0.45593999997E+02  0.45594000000E+02  0.51100000000E-03 0.  1.
         11   -1    0    0    0    0 -0.00000000000E+00 -0.00000000000E+00 -0.45593999997E+02  0.45594000000E+02  0.51100000000E-03 0. -1.
    9900012    2    1    2    0    0 -0.30287277160E+02  0.20308515374E+02  0.17983644243E+02  0.50528850787E+02  0.29999972453E+02 0.  0.
         12    1    1    2    0    0  0.30287277160E+02 -0.20308515374E+02 -0.17983644243E+02  0.40659149213E+02  0.00000000000E+00 0. -1.
         11    1    3    3    0    0  0.26628834612E+01 -0.12968068814E+01 -0.36371563308E+00  0.29841155705E+01  0.51100000000E-03 0. -1.
        -11    1    3    3    0    0 -0.82192589727E+01  0.13696657718E+01 -0.32846377401E+01  0.89566203297E+01  0.51100000000E-03 0.  1.
        -12    1    3    3    0    0 -0.24730901649E+02  0.20235656483E+02  0.21631997616E+02  0.38588114887E+02  0.00000000000E+00 0.  1.
</event>
<event>
 7    1  0.3383281E-011  0.5052887E+02  0.7816164E-02  0.1300439E+00
        -11   -1    0    0    0    0  0.00000000000E+00  0.00000000000E+00  0.45593999997E+02  0.45594000000E+02  0.51100000000E-03 0.  1.
         11   -1    0    0    0    0 -0.00000000000E+00 -0.00000000000E+00 -0.45593999997E+02  0.45594000000E+02  0.51100000000E-03 0. -1.
    9900012    2    1    2    0    0 -0.19752309224E+02 -0.32386538265E+02 -0.14632960111E+02  0.50528866929E+02  0.30000021518E+02 0.  0.
         12    1    1    2    0    0  0.19752309224E+02  0.32386538265E+02  0.14632960111E+02  0.40659133071E+02  0.00000000000E+00 0. -1.
         11    1    3    3    0    0  0.25563660951E+01  0.16539987284E+01 -0.46345337664E+01  0.55452342510E+01  0.51100000000E-03 0. -1.
        -11    1    3    3    0    0 -0.41645608141E+01 -0.50280178584E+01 -0.85186120651E+01  0.10732720165E+02  0.51100000000E-03 0.  1.
        -12    1    3    3    0    0 -0.18144114505E+02 -0.29012519135E+02 -0.14798142793E+01  0.34250912514E+02  0.00000000000E+00 0.  1.
</event>
<event>
 7    1  0.3383281E-011  0.5052886E+02  0.7816164E-02  0.1300439E+00
        -11   -1    0    0    0    0  0.00000000000E+00  0.00000000000E+00  0.45593999997E+02  0.45594000000E+02  0.51100000000E-03 0. -1.
         11   -1    0    0    0    0 -0.00000000000E+00 -0.00000000000E+00 -0.45593999997E+02  0.45594000000E+02  0.51100000000E-03 0.  1.
    9900012    2    1    2    0    0 -0.23732910290E+02 -0.20142304810E+01 -0.32952357788E+02  0.50528855407E+02  0.29999986494E+02 0.  0.
         12    1    1    2    0    0  0.23732910290E+02  0.20142304810E+01  0.32952357788E+02  0.40659144593E+02  0.00000000000E+00 0. -1.
         11    1    3    3    0    0 -0.15208090039E+02 -0.10168871120E+02 -0.16603014259E+02  0.24705303585E+02  0.51100000000E-03 0. -1.
        -11    1    3    3    0    0 -0.81903897162E+01  0.67092543414E+01 -0.19585208258E+02  0.22263803815E+02  0.51100000000E-03 0.  1.
         12    1    3    3    0    0 -0.33443053497E+00  0.14453862975E+01  0.32358647287E+01  0.35597480071E+01  0.00000000000E+00 0. -1.
</event>
<event>
 7    1  0.3383281E-011  0.5052885E+02  0.7816164E-02  0.1300439E+00
        -11   -1    0    0    0    0  0.00000000000E+00  0.00000000000E+00  0.45593999997E+02  0.45594000000E+02  0.51100000000E-03 0. -1.
         11   -1    0    0    0    0 -0.00000000000E+00 -0.00000000000E+00 -0.45593999997E+02  0.45594000000E+02  0.51100000000E-03 0.  1.
    9900012    2    1    2    0    0  0.35399924902E+02 -0.10514831753E+02 -0.17013225644E+02  0.50528853222E+02  0.29999979854E+02 0.  0.
         12    1    1    2    0    0 -0.35399924902E+02  0.10514831753E+02  0.17013225644E+02  0.40659146778E+02  0.00000000000E+00 0. -1.
         11    1    3    3    0    0  0.19129701377E+02  0.11373087802E+01 -0.23841944584E+01  0.19311222890E+02  0.51100000000E-03 0. -1.
        -11    1    3    3    0    0  0.15089412143E+02  0.75477530801E+00 -0.76790470269E+01  0.16947796555E+02  0.51100000000E-03 0.  1.
         12    1    3    3    0    0  0.11808113830E+01 -0.12406915841E+02 -0.69499841587E+01  0.14269833777E+02  0.00000000000E+00 0. -1.
</event>
<event>
 7    1  0.3383281E-011  0.5052889E+02  0.7816164E-02  0.1300439E+00
        -11   -1    0    0    0    0  0.00000000000E+00  0.00000000000E+00  0.45593999997E+02  0.45594000000E+02  0.51100000000E-03 0.  1.
         11   -1    0    0    0    0 -0.00000000000E+00 -0.00000000000E+00 -0.45593999997E+02  0.45594000000E+02  0.51100000000E-03 0. -1.
    9900012    2    1    2    0    0  0.35331630499E+02  0.46436373706E+01  0.19577420168E+02  0.50528894474E+02  0.30000105243E+02 0.  0.
         12    1    1    2    0    0 -0.35331630499E+02 -0.46436373706E+01 -0.19577420168E+02  0.40659105526E+02  0.00000000000E+00 0. -1.
         11    1    3    3    0    0  0.28910661921E+02  0.68217048659E+01  0.12388357022E+02  0.32184366080E+02  0.51100000000E-03 0. -1.
        -11    1    3    3    0    0  0.65131654139E+01  0.52013794881E+01  0.44484665654E+00  0.83470690124E+01  0.51100000000E-03 0.  1.
        -12    1    3    3    0    0 -0.92196836190E-01 -0.73794469835E+01  0.67442164892E+01  0.99974593819E+01  0.00000000000E+00 0.  1.
</event>
<event>
 7    1  0.3383281E-011  0.5052886E+02  0.7816164E-02  0.1300439E+00
        -11   -1    0    0    0    0  0.00000000000E+00  0.00000000000E+00  0.45593999997E+02  0.45594000000E+02  0.51100000000E-03 0.  1.
         11   -1    0    0    0    0 -0.00000000000E+00 -0.00000000000E+00 -0.45593999997E+02  0.45594000000E+02  0.51100000000E-03 0. -1.
    9900012    2    1    2    0    0 -0.84533982249E+01 -0.42352188571E+01  0.39544516353E+02  0.50528858421E+02  0.29999995656E+02 0.  0.
         12    1    1    2    0    0  0.84533982249E+01  0.42352188571E+01 -0.39544516353E+02  0.40659141579E+02  0.00000000000E+00 0. -1.
         11    1    3    3    0    0 -0.77896971968E+01  0.22536064231E+01  0.50279210031E+01  0.95413895321E+01  0.51100000000E-03 0. -1.
        -11    1    3    3    0    0 -0.65583869816E+01  0.93915003725E+00  0.17163827667E+01  0.68440056003E+01  0.51100000000E-03 0.  1.
        -12    1    3    3    0    0  0.58946859536E+01 -0.74279753174E+01  0.32800212584E+02  0.34143463289E+02  0.00000000000E+00 0.  1.
</event>
<event>
 7    1  0.3383281E-011  0.5052886E+02  0.7816164E-02  0.1300439E+00
        -11   -1    0    0    0    0  0.00000000000E+00  0.00000000000E+00  0.45593999997E+02  0.45594000000E+02  0.51100000000E-03 0.  1.
         11   -1    0    0    0    0 -0.00000000000E+00 -0.00000000000E+00 -0.45593999997E+02  0.45594000000E+02  0.51100000000E-03 0. -1.
    9900012    2    1    2    0    0 -0.18518166784E+02  0.77022417132E+01  0.35368328882E+02  0.50528859376E+02  0.29999998558E+02 0.  0.
         12    1    1    2    0    0  0.18518166784E+02 -0.77022417132E+01 -0.35368328882E+02  0.40659140624E+02  0.00000000000E+00 0. -1.
         11    1    3    3    0    0 -0.46558916068E+01  0.10119741635E+02  0.31265739462E+02  0.33190856599E+02  0.51100000000E-03 0. -1.
        -11    1    3    3    0    0  0.81923052002E+00 -0.81882669600E+00 -0.11798770552E+01  0.16533982973E+01  0.51100000000E-03 0.  1.
        -12    1    3    3    0    0 -0.14681505697E+02 -0.15986732255E+01  0.52824664748E+01  0.15684604479E+02  0.00000000000E+00 0.  1.
</event>
<event>
 7    1  0.3383281E-011  0.5052886E+02  0.7816164E-02  0.1300439E+00
        -11   -1    0    0    0    0  0.00000000000E+00  0.00000000000E+00  0.45593999997E+02  0.45594000000E+02  0.51100000000E-03 0. -1.
         11   -1    0    0    0    0 -0.00000000000E+00 -0.00000000000E+00 -0.45593999997E+02  0.45594000000E+02  0.51100000000E-03 0.  1.
    9900012    2    1    2    0    0 -0.20126889274E+02 -0.21865471340E+02 -0.27748427856E+02  0.50528858872E+02  0.29999997027E+02 0.  0.
         12    1    1    2    0    0  0.20126889274E+02  0.21865471340E+02  0.27748427856E+02  0.40659141128E+02  0.00000000000E+00 0. -1.
         11    1    3    3    0    0  0.36606354671E+00  0.39206622386E+01 -0.12971231980E+02  0.13555753548E+02  0.51100000000E-03 0. -1.
        -11    1    3    3    0    0 -0.70096708025E+01 -0.35846609591E+01 -0.42391042490E+01  0.89417718628E+01  0.51100000000E-03 0.  1.
         12    1    3    3    0    0 -0.13483282018E+02 -0.22201472620E+02 -0.10538091628E+02  0.28031333461E+02  0.00000000000E+00 0. -1.
</event>
<event>
 7    1  0.3383281E-011  0.5052886E+02  0.7816164E-02  0.1300439E+00
        -11   -1    0    0    0    0  0.00000000000E+00  0.00000000000E+00  0.45593999997E+02  0.45594000000E+02  0.51100000000E-03 0.  1.
         11   -1    0    0    0    0 -0.00000000000E+00 -0.00000000000E+00 -0.45593999997E+02  0.45594000000E+02  0.51100000000E-03 0. -1.
    9900012    2    1    2    0    0  0.34030178078E+02  0.17645336005E+02  0.13555623787E+02  0.50528857866E+02  0.29999993971E+02 0.  0.
         12    1    1    2    0    0 -0.34030178078E+02 -0.17645336005E+02 -0.13555623787E+02  0.40659142134E+02  0.00000000000E+00 0. -1.
         11    1    3    3    0    0  0.77109123663E+01  0.60049156808E+01  0.68946100129E+01  0.11960469445E+02  0.51100000000E-03 0. -1.
        -11    1    3    3    0    0  0.14672208008E+02  0.19131254931E+02  0.49809763257E+01  0.24618869358E+02  0.51100000000E-03 0.  1.
         12    1    3    3    0    0  0.11647057704E+02 -0.74908346068E+01  0.16800374487E+01  0.13949519063E+02  0.00000000000E+00 0. -1.
</event>
<event>
 7    1  0.3383281E-011  0.5052886E+02  0.7816164E-02  0.1300439E+00
        -11   -1    0    0    0    0  0.00000000000E+00  0.00000000000E+00  0.45593999997E+02  0.45594000000E+02  0.51100000000E-03 0.  1.
         11   -1    0    0    0    0 -0.00000000000E+00 -0.00000000000E+00 -0.45593999997E+02  0.45594000000E+02  0.51100000000E-03 0. -1.
    9900012    2    1    2    0    0  0.21801560419E+02 -0.33551743033E+02  0.72206679942E+01  0.50528861500E+02  0.30000005017E+02 0.  0.
         12    1    1    2    0    0 -0.21801560419E+02  0.33551743033E+02 -0.72206679942E+01  0.40659138500E+02  0.00000000000E+00 0. -1.
         11    1    3    3    0    0  0.15606442027E+02 -0.16706707434E+02  0.73920295237E+01  0.24027426137E+02  0.51100000000E-03 0. -1.
        -11    1    3    3    0    0  0.12658570854E+02 -0.13506416437E+02  0.26476714282E+01  0.18699541847E+02  0.51100000000E-03 0.  1.
         12    1    3    3    0    0 -0.64634524616E+01 -0.33386191626E+01 -0.28190329577E+01  0.78018935171E+01  0.00000000000E+00 0. -1.
</event>
<event>
 7    1  0.3383281E-011  0.5052886E+02  0.7816164E-02  0.1300439E+00
        -11   -1    0    0    0    0  0.00000000000E+00  0.00000000000E+00  0.45593999997E+02  0.45594000000E+02  0.51100000000E-03 0.  1.
         11   -1    0    0    0    0 -0.00000000000E+00 -0.00000000000E+00 -0.45593999997E+02  0.45594000000E+02  0.51100000000E-03 0. -1.
    9900012    2    1    2    0    0  0.20588284916E+02  0.31925949165E+02  0.14492132562E+02  0.50528860657E+02  0.30000002453E+02 0.  0.
         12    1    1    2    0    0 -0.20588284916E+02 -0.31925949165E+02 -0.14492132562E+02  0.40659139343E+02  0.00000000000E+00 0. -1.
         11    1    3    3    0    0  0.14908772192E+02  0.77281904276E+01  0.10913607445E+01  0.16828175305E+02  0.51100000000E-03 0. -1.
        -11    1    3    3    0    0 -0.10359154584E+01  0.16102683314E+02 -0.65027983292E+00  0.16149067926E+02  0.51100000000E-03 0.  1.
        -12    1    3    3    0    0  0.67154281830E+01  0.80950754238E+01  0.14051051651E+02  0.17551617427E+02  0.00000000000E+00 0.  1.
</event>
<event>
 7    1  0.3383281E-011  0.5052885E+02  0.7816164E-02  0.1300439E+00
        -11   -1    0    0    0    0  0.00000000000E+00  0.00000000000E+00  0.45593999997E+02  0.45594000000E+02  0.51100000000E-03 0.  1.
         11   -1    0    0    0    0 -0.00000000000E+00 -0.00000000000E+00 -0.45593999997E+02  0.45594000000E+02  0.51100000000E-03 0. -1.
    9900012    2    1    2    0    0 -0.37039969457E+02  0.50467930406E+01  0.15991792423E+02  0.50528845037E+02  0.29999954974E+02 0.  0.
         12    1    1    2    0    0  0.37039969457E+02 -0.50467930406E+01 -0.15991792423E+02  0.40659154963E+02  0.00000000000E+00 0. -1.
         11    1    3    3    0    0 -0.12332004978E+02  0.48637071920E+01 -0.67502604273E+01  0.14876155771E+02  0.51100000000E-03 0. -1.
        -11    1    3    3    0    0 -0.20213124819E+02 -0.11146718626E+01  0.11058746062E+02  0.23067483023E+02  0.51100000000E-03 0.  1.
        -12    1    3    3    0    0 -0.44948396606E+01  0.12977577112E+01  0.11683306789E+02  0.12585206243E+02  0.00000000000E+00 0.  1.
</event>
<event>
 7    1  0.3383281E-011  0.5052885E+02  0.7816164E-02  0.1300439E+00
        -11   -1    0    0    0    0  0.00000000000E+00  0.00000000000E+00  0.45593999997E+02  0.45594000000E+02  0.51100000000E-03 0.  1.
         11   -1    0    0    0    0 -0.00000000000E+00 -0.00000000000E+00 -0.45593999997E+02  0.45594000000E+02  0.51100000000E-03 0. -1.
    9900012    2    1    2    0    0 -0.11844690161E+01  0.37787454430E+02  0.14962334916E+02  0.50528854100E+02  0.29999982523E+02 0.  0.
         12    1    1    2    0    0  0.11844690161E+01 -0.37787454430E+02 -0.14962334916E+02  0.40659145900E+02  0.00000000000E+00 0. -1.
         11    1    3    3    0    0  0.77270027844E-01 -0.75896273754E+00 -0.26948797966E+01  0.28007806899E+01  0.51100000000E-03 0. -1.
        -11    1    3    3    0    0 -0.75211562951E+00 -0.25460295232E+01 -0.65919093956E+00  0.27354117074E+01  0.51100000000E-03 0.  1.
        -12    1    3    3    0    0 -0.50962341439E+00  0.41092446691E+02  0.18316405652E+02  0.44992661703E+02  0.00000000000E+00 0.  1.
</event>
<event>
 7    1  0.3383281E-011  0.5052885E+02  0.7816164E-02  0.1300439E+00
        -11   -1    0    0    0    0  0.00000000000E+00  0.00000000000E+00  0.45593999997E+02  0.45594000000E+02  0.51100000000E-03 0.  1.
         11   -1    0    0    0    0 -0.00000000000E+00 -0.00000000000E+00 -0.45593999997E+02  0.45594000000E+02  0.51100000000E-03 0. -1.
    9900012    2    1    2    0    0  0.16080771131E+02  0.78108825791E+01  0.36518010601E+02  0.50528853611E+02  0.29999981036E+02 0.  0.
         12    1    1    2    0    0 -0.16080771131E+02 -0.78108825791E+01 -0.36518010601E+02  0.40659146389E+02  0.00000000000E+00 0. -1.
         11    1    3    3    0    0  0.17997857821E+02  0.88809080078E+01  0.25317417130E+02  0.32307352469E+02  0.51100000000E-03 0.  1.
        -11    1    3    3    0    0  0.29004941918E+01  0.54653489954E+01  0.57158332975E+01  0.84233993580E+01  0.51100000000E-03 0. -1.
         12    1    3    3    0    0 -0.48175808811E+01 -0.65353744241E+01  0.54847601733E+01  0.97981017839E+01  0.00000000000E+00 0. -1.
</event>
<event>
 7    1  0.3383281E-011  0.5052886E+02  0.7816164E-02  0.1300439E+00
        -11   -1    0    0    0    0  0.00000000000E+00  0.00000000000E+00  0.45593999997E+02  0.45594000000E+02  0.51100000000E-03 0.  1.
         11   -1    0    0    0    0 -0.00000000000E+00 -0.00000000000E+00 -0.45593999997E+02  0.45594000000E+02  0.51100000000E-03 0. -1.
    9900012    2    1    2    0    0  0.18209672188E+02 -0.19082687155E+02  0.30942274877E+02  0.50528862223E+02  0.30000007212E+02 0.  0.
         12    1    1    2    0    0 -0.18209672188E+02  0.19082687155E+02 -0.30942274877E+02  0.40659137777E+02  0.00000000000E+00 0. -1.
         11    1    3    3    0    0  0.18795148512E+02 -0.41713864198E+01  0.49209605993E+01  0.19871434919E+02  0.51100000000E-03 0. -1.
        -11    1    3    3    0    0  0.23943387493E+01 -0.25633038959E+01  0.55907580665E+01  0.65999970400E+01  0.51100000000E-03 0.  1.
        -12    1    3    3    0    0 -0.29798150733E+01 -0.12347996839E+02  0.20430556211E+02  0.24057430264E+02  0.00000000000E+00 0.  1.
</event>
<event>
 7    1  0.3383281E-011  0.5052886E+02  0.7816164E-02  0.1300439E+00
        -11   -1    0    0    0    0  0.00000000000E+00  0.00000000000E+00  0.45593999997E+02  0.45594000000E+02  0.51100000000E-03 0.  1.
         11   -1    0    0    0    0 -0.00000000000E+00 -0.00000000000E+00 -0.45593999997E+02  0.45594000000E+02  0.51100000000E-03 0. -1.
    9900012    2    1    2    0    0 -0.26123106842E+02 -0.22902220155E+02  0.21124328968E+02  0.50528859903E+02  0.30000000160E+02 0.  0.
         12    1    1    2    0    0  0.26123106842E+02  0.22902220155E+02 -0.21124328968E+02  0.40659140097E+02  0.00000000000E+00 0. -1.
         11    1    3    3    0    0  0.95072288743E+00  0.41426334239E+01  0.34696963703E+01  0.54867184051E+01  0.51100000000E-03 0. -1.
        -11    1    3    3    0    0 -0.22261826061E+01  0.20650293277E+01  0.22787228336E+01  0.37964210954E+01  0.51100000000E-03 0.  1.
        -12    1    3    3    0    0 -0.24847647123E+02 -0.29109882907E+02  0.15375909764E+02  0.41245720402E+02  0.00000000000E+00 0.  1.
</event>
<event>
 7    1  0.3383281E-011  0.5052887E+02  0.7816164E-02  0.1300439E+00
        -11   -1    0    0    0    0  0.00000000000E+00  0.00000000000E+00  0.45593999997E+02  0.45594000000E+02  0.51100000000E-03 0.  1.
         11   -1    0    0    0    0 -0.00000000000E+00 -0.00000000000E+00 -0.45593999997E+02  0.45594000000E+02  0.51100000000E-03 0. -1.
    9900012    2    1    2    0    0  0.25171503871E+02 -0.26128700402E+02  0.18353519121E+02  0.50528865037E+02  0.30000015765E+02 0.  0.
         12    1    1    2    0    0 -0.25171503871E+02  0.26128700402E+02 -0.18353519121E+02  0.40659134963E+02  0.00000000000E+00 0. -1.
         11    1    3    3    0    0  0.15677410936E+00 -0.48471144623E+01 -0.19050470487E+01  0.52104031754E+01  0.51100000000E-03 0.  1.
        -11    1    3    3    0    0  0.11994016562E+01 -0.46341368705E+01 -0.49242290224E+01  0.68674464391E+01  0.51100000000E-03 0. -1.
        -12    1    3    3    0    0  0.23815328105E+02 -0.16647449070E+02  0.25182795192E+02  0.38451015422E+02  0.00000000000E+00 0.  1.
</event>
<event>
 7    1  0.3383281E-011  0.5052890E+02  0.7816164E-02  0.1300439E+00
        -11   -1    0    0    0    0  0.00000000000E+00  0.00000000000E+00  0.45593999997E+02  0.45594000000E+02  0.51100000000E-03 0. -1.
         11   -1    0    0    0    0 -0.00000000000E+00 -0.00000000000E+00 -0.45593999997E+02  0.45594000000E+02  0.51100000000E-03 0.  1.
    9900012    2    1    2    0    0 -0.33918891825E+02 -0.22100632514E+02 -0.37727091153E+01  0.50528898753E+02  0.30000118249E+02 0.  0.
         12    1    1    2    0    0  0.33918891825E+02  0.22100632514E+02  0.37727091153E+01  0.40659101247E+02  0.00000000000E+00 0. -1.
         11    1    3    3    0    0 -0.10401496068E+02 -0.88422106218E+01  0.76131629022E+01  0.15631252629E+02  0.51100000000E-03 0. -1.
        -11    1    3    3    0    0 -0.53653512384E+01 -0.80672470651E+01  0.40598068461E+01  0.10504737075E+02  0.51100000000E-03 0.  1.
         12    1    3    3    0    0 -0.18152044519E+02 -0.51911748275E+01 -0.15445678864E+02  0.24392909049E+02  0.00000000000E+00 0. -1.
</event>
<event>
 7    1  0.3383281E-011  0.5052886E+02  0.7816164E-02  0.1300439E+00
        -11   -1    0    0    0    0  0.00000000000E+00  0.00000000000E+00  0.45593999997E+02  0.45594000000E+02  0.51100000000E-03 0.  1.
         11   -1    0    0    0    0 -0.00000000000E+00 -0.00000000000E+00 -0.45593999997E+02  0.45594000000E+02  0.51100000000E-03 0. -1.
    9900012    2    1    2    0    0  0.28208893014E+02  0.92680126027E+01  0.27776385980E+02  0.50528864239E+02  0.30000013341E+02 0.  0.
         12    1    1    2    0    0 -0.28208893014E+02 -0.92680126027E+01 -0.27776385980E+02  0.40659135761E+02  0.00000000000E+00 0. -1.
         11    1    3    3    0    0 -0.90934399260E+00  0.49250186847E+01 -0.33937626905E+01  0.60498215678E+01  0.51100000000E-03 0.  1.
        -11    1    3    3    0    0  0.58320824949E-01 -0.15767881756E+01  0.38323789386E+01  0.41444892157E+01  0.51100000000E-03 0. -1.
        -12    1    3    3    0    0  0.29059916182E+02  0.59197820935E+01  0.27337769732E+02  0.40334553456E+02  0.00000000000E+00 0.  1.
</event>
<event>
 7    1  0.3383281E-011  0.5052886E+02  0.7816164E-02  0.1300439E+00
        -11   -1    0    0    0    0  0.00000000000E+00  0.00000000000E+00  0.45593999997E+02  0.45594000000E+02  0.51100000000E-03 0.  1.
         11   -1    0    0    0    0 -0.00000000000E+00 -0.00000000000E+00 -0.45593999997E+02  0.45594000000E+02  0.51100000000E-03 0. -1.
    9900012    2    1    2    0    0 -0.35183171506E+01 -0.11273315161E+02  0.38906287658E+02  0.50528863147E+02  0.30000010023E+02 0.  0.
         12    1    1    2    0    0  0.35183171506E+01  0.11273315161E+02 -0.38906287658E+02  0.40659136853E+02  0.00000000000E+00 0. -1.
         11    1    3    3    0    0  0.10219662767E+01 -0.88848016056E+01  0.31025734769E+02  0.32289012571E+02  0.51100000000E-03 0. -1.
        -11    1    3    3    0    0 -0.45874177193E+01 -0.23792542588E+00  0.12406022291E+02  0.13229149602E+02  0.51100000000E-03 0.  1.
         12    1    3    3    0    0  0.47134292037E-01 -0.21505881296E+01 -0.45254694020E+01  0.50107009742E+01  0.00000000000E+00 0. -1.
</event>
<event>
 7    1  0.3383281E-011  0.5052888E+02  0.7816164E-02  0.1300439E+00
        -11   -1    0    0    0    0  0.00000000000E+00  0.00000000000E+00  0.45593999997E+02  0.45594000000E+02  0.51100000000E-03 0.  1.
         11   -1    0    0    0    0 -0.00000000000E+00 -0.00000000000E+00 -0.45593999997E+02  0.45594000000E+02  0.51100000000E-03 0. -1.
    9900012    2    1    2    0    0 -0.36199617544E+02  0.17889288537E+02 -0.47670419696E+01  0.50528884861E+02  0.30000076025E+02 0.  0.
         12    1    1    2    0    0  0.36199617544E+02 -0.17889288537E+02  0.47670419696E+01  0.40659115139E+02  0.00000000000E+00 0. -1.
         11    1    3    3    0    0 -0.97694701949E+01  0.15799008965E+02 -0.57412362549E+01  0.19442557089E+02  0.51100000000E-03 0. -1.
        -11    1    3    3    0    0 -0.12826841148E+02  0.82820951366E+01  0.41162829881E+01  0.15813435414E+02  0.51100000000E-03 0.  1.
        -12    1    3    3    0    0 -0.13603306202E+02 -0.61918155643E+01 -0.31420887029E+01  0.15272892359E+02  0.00000000000E+00 0.  1.
</event>
<event>
 7    1  0.3383281E-011  0.5052885E+02  0.7816164E-02  0.1300439E+00
        -11   -1    0    0    0    0  0.00000000000E+00  0.00000000000E+00  0.45593999997E+02  0.45594000000E+02  0.51100000000E-03 0.  1.
         11   -1    0    0    0    0 -0.00000000000E+00 -0.00000000000E+00 -0.45593999997E+02  0.45594000000E+02  0.51100000000E-03 0. -1.
    9900012    2    1    2    0    0 -0.15716341918E+02 -0.91968428066E+01  0.36353554722E+02  0.50528852667E+02  0.29999978167E+02 0.  0.
         12    1    1    2    0    0  0.15716341918E+02  0.91968428066E+01 -0.36353554722E+02  0.40659147333E+02  0.00000000000E+00 0. -1.
         11    1    3    3    0    0 -0.72424625939E+01 -0.30313087699E+01  0.54233803503E+01  0.95422823249E+01  0.51100000000E-03 0.  1.
        -11    1    3    3    0    0 -0.17179597534E+02 -0.26704805856E+01  0.21936993140E+02  0.27991100483E+02  0.51100000000E-03 0. -1.
        -12    1    3    3    0    0  0.87057182101E+01 -0.34950534511E+01  0.89931812322E+01  0.12995469859E+02  0.00000000000E+00 0.  1.
</event>
<event>
 7    1  0.3383281E-011  0.5052886E+02  0.7816164E-02  0.1300439E+00
        -11   -1    0    0    0    0  0.00000000000E+00  0.00000000000E+00  0.45593999997E+02  0.45594000000E+02  0.51100000000E-03 0.  1.
         11   -1    0    0    0    0 -0.00000000000E+00 -0.00000000000E+00 -0.45593999997E+02  0.45594000000E+02  0.51100000000E-03 0. -1.
    9900012    2    1    2    0    0  0.35695436272E+02 -0.16636272487E+02  0.10111194633E+02  0.50528856012E+02  0.29999988335E+02 0.  0.
         12    1    1    2    0    0 -0.35695436272E+02  0.16636272487E+02 -0.10111194633E+02  0.40659143988E+02  0.00000000000E+00 0. -1.
         11    1    3    3    0    0  0.88326660247E+01  0.16272472671E+01 -0.47376230637E+01  0.10154259960E+02  0.51100000000E-03 0. -1.
        -11    1    3    3    0    0  0.90633114970E+01 -0.66752039199E+01 -0.40318332770E+01  0.11956489556E+02  0.51100000000E-03 0.  1.
        -12    1    3    3    0    0  0.17799458750E+02 -0.11588315835E+02  0.18880650974E+02  0.28418106497E+02  0.00000000000E+00 0.  1.
</event>
<event>
 7    1  0.3383281E-011  0.5052886E+02  0.7816164E-02  0.1300439E+00
        -11   -1    0    0    0    0  0.00000000000E+00  0.00000000000E+00  0.45593999997E+02  0.45594000000E+02  0.51100000000E-03 0.  1.
         11   -1    0    0    0    0 -0.00000000000E+00 -0.00000000000E+00 -0.45593999997E+02  0.45594000000E+02  0.51100000000E-03 0. -1.
    9900012    2    1    2    0    0  0.18995537525E+02  0.25663087156E+02 -0.25174219493E+02  0.50528858158E+02  0.29999994857E+02 0.  0.
         12    1    1    2    0    0 -0.18995537525E+02 -0.25663087156E+02  0.25174219493E+02  0.40659141842E+02  0.00000000000E+00 0. -1.
         11    1    3    3    0    0  0.38645506075E+00  0.40785654457E+00 -0.14923688577E+02  0.14934261799E+02  0.51100000000E-03 0. -1.
        -11    1    3    3    0    0  0.13034476731E+02  0.14449326065E+02 -0.12637832123E+02  0.23203349078E+02  0.51100000000E-03 0.  1.
        -12    1    3    3    0    0  0.55746057327E+01  0.10805904546E+02  0.23873012068E+01  0.12391247282E+02  0.00000000000E+00 0.  1.
</event>
<event>
 7    1  0.3383281E-011  0.5052886E+02  0.7816164E-02  0.1300439E+00
        -11   -1    0    0    0    0  0.00000000000E+00  0.00000000000E+00  0.45593999997E+02  0.45594000000E+02  0.51100000000E-03 0. -1.
         11   -1    0    0    0    0 -0.00000000000E+00 -0.00000000000E+00 -0.45593999997E+02  0.45594000000E+02  0.51100000000E-03 0.  1.
    9900012    2    1    2    0    0 -0.12385616422E+02 -0.38643136598E+02  0.25436622359E+01  0.50528859357E+02  0.29999998502E+02 0.  0.
         12    1    1    2    0    0  0.12385616422E+02  0.38643136598E+02 -0.25436622359E+01  0.40659140643E+02  0.00000000000E+00 0. -1.
         11    1    3    3    0    0  0.11626209284E+01  0.16474196437E+01  0.29753845547E+01  0.35942443455E+01  0.51100000000E-03 0. -1.
        -11    1    3    3    0    0 -0.80382674366E+01 -0.25347583791E+01 -0.22888782803E+01  0.87337109791E+01  0.51100000000E-03 0.  1.
        -12    1    3    3    0    0 -0.55099699135E+01 -0.37755797862E+02  0.18571559615E+01  0.38200904033E+02  0.00000000000E+00 0.  1.
</event>
<event>
 7    1  0.3383281E-011  0.5052886E+02  0.7816164E-02  0.1300439E+00
        -11   -1    0    0    0    0  0.00000000000E+00  0.00000000000E+00  0.45593999997E+02  0.45594000000E+02  0.51100000000E-03 0.  1.
         11   -1    0    0    0    0 -0.00000000000E+00 -0.00000000000E+00 -0.45593999997E+02  0.45594000000E+02  0.51100000000E-03 0. -1.
    9900012    2    1    2    0    0  0.18698219501E+02  0.35879578207E+02 -0.40247381617E+01  0.50528855123E+02  0.29999985632E+02 0.  0.
         12    1    1    2    0    0 -0.18698219501E+02 -0.35879578207E+02  0.40247381617E+01  0.40659144877E+02  0.00000000000E+00 0. -1.
         11    1    3    3    0    0 -0.16499300997E+01  0.31765714954E+01  0.54392316956E+00  0.36205978063E+01  0.51100000000E-03 0. -1.
        -11    1    3    3    0    0  0.12420543324E+02  0.32607921407E+02  0.41320641258E+01  0.35137165355E+02  0.51100000000E-03 0.  1.
        -12    1    3    3    0    0  0.79276062774E+01  0.95085304656E-01 -0.87007254571E+01  0.11771091962E+02  0.00000000000E+00 0.  1.
</event>
<event>
 7    1  0.4435761E-011  0.5052886E+02  0.7816164E-02  0.1300439E+00
        -11   -1    0    0    0    0  0.00000000000E+00  0.00000000000E+00  0.45593999997E+02  0.45594000000E+02  0.51100000000E-03 0. -1.
         11   -1    0    0    0    0 -0.00000000000E+00 -0.00000000000E+00 -0.45593999997E+02  0.45594000000E+02  0.51100000000E-03 0.  1.
    9900012    2    1    2    0    0 -0.13119001995E+02 -0.28333812474E+00 -0.38483464421E+02  0.50528861695E+02  0.30000005609E+02 0.  0.
         12    1    1    2    0    0  0.13119001995E+02  0.28333812474E+00  0.38483464421E+02  0.40659138305E+02  0.00000000000E+00 0. -1.
         11    1    3    3    0    0 -0.11615444050E+01 -0.91068862030E+01 -0.10043445910E+02  0.13607180741E+02  0.51100000000E-03 0. -1.
        -11    1    3    3    0    0 -0.12379453940E+02  0.21103363988E+00 -0.24480122517E+02  0.27433042371E+02  0.51100000000E-03 0.  1.
         12    1    3    3    0    0  0.42199635008E+00  0.86125144383E+01 -0.39598959939E+01  0.94886385827E+01  0.00000000000E+00 0. -1.
</event>
<event>
 7    1  0.3383281E-011  0.5052886E+02  0.7816164E-02  0.1300439E+00
        -11   -1    0    0    0    0  0.00000000000E+00  0.00000000000E+00  0.45593999997E+02  0.45594000000E+02  0.51100000000E-03 0.  1.
         11   -1    0    0    0    0 -0.00000000000E+00 -0.00000000000E+00 -0.45593999997E+02  0.45594000000E+02  0.51100000000E-03 0. -1.
    9900012    2    1    2    0    0 -0.28916030046E+02  0.11729656787E+02  0.26066145789E+02  0.50528860827E+02  0.30000002971E+02 0.  0.
         12    1    1    2    0    0  0.28916030046E+02 -0.11729656787E+02 -0.26066145789E+02  0.40659139173E+02  0.00000000000E+00 0. -1.
         11    1    3    3    0    0  0.26556256424E+01 -0.11203130779E+01  0.11311243880E+02  0.11672689807E+02  0.51100000000E-03 0. -1.
        -11    1    3    3    0    0 -0.19556409494E+02  0.97456596620E+01  0.14897539685E+02  0.26445561508E+02  0.51100000000E-03 0.  1.
        -12    1    3    3    0    0 -0.12015246194E+02  0.31043102032E+01 -0.14263777605E+00  0.12410609513E+02  0.00000000000E+00 0.  1.
</event>
<event>
 7    1  0.3383281E-011  0.5052886E+02  0.7816164E-02  0.1300439E+00
        -11   -1    0    0    0    0  0.00000000000E+00  0.00000000000E+00  0.45593999997E+02  0.45594000000E+02  0.51100000000E-03 0. -1.
         11   -1    0    0    0    0 -0.00000000000E+00 -0.00000000000E+00 -0.45593999997E+02  0.45594000000E+02  0.51100000000E-03 0.  1.
    9900012    2    1    2    0    0  0.14773831473E+02 -0.22511362336E+02 -0.30465358790E+02  0.50528860599E+02  0.30000002277E+02 0.  0.
         12    1    1    2    0    0 -0.14773831473E+02  0.22511362336E+02  0.30465358790E+02  0.40659139401E+02  0.00000000000E+00 0. -1.
         11    1    3    3    0    0  0.95539527493E+01 -0.70775189882E+01 -0.17548240131E+01  0.12018681115E+02  0.51100000000E-03 0. -1.
        -11    1    3    3    0    0  0.45528170731E+01 -0.12869942443E+02 -0.48263952361E+01  0.14479559835E+02  0.51100000000E-03 0.  1.
        -12    1    3    3    0    0  0.66706165014E+00 -0.25639009051E+01 -0.23884139541E+02  0.24030619649E+02  0.00000000000E+00 0.  1.
</event>
<event>
 7    1  0.3383281E-011  0.5052887E+02  0.7816164E-02  0.1300439E+00
        -11   -1    0    0    0    0  0.00000000000E+00  0.00000000000E+00  0.45593999997E+02  0.45594000000E+02  0.51100000000E-03 0.  1.
         11   -1    0    0    0    0 -0.00000000000E+00 -0.00000000000E+00 -0.45593999997E+02  0.45594000000E+02  0.51100000000E-03 0. -1.
    9900012    2    1    2    0    0  0.50543717396E+01  0.98297225675E+01  0.39127929036E+02  0.50528868798E+02  0.30000027200E+02 0.  0.
         12    1    1    2    0    0 -0.50543717396E+01 -0.98297225675E+01 -0.39127929036E+02  0.40659131202E+02  0.00000000000E+00 0. -1.
         11    1    3    3    0    0 -0.36680725219E+00 -0.61138581096E+01  0.62403743333E+01  0.87439167783E+01  0.51100000000E-03 0. -1.
        -11    1    3    3    0    0  0.31694062209E+01 -0.41509829229E+01  0.97212048152E+01  0.11035289681E+02  0.51100000000E-03 0.  1.
        -12    1    3    3    0    0  0.22517727709E+01  0.20094563600E+02  0.23166349887E+02  0.30749662339E+02  0.00000000000E+00 0.  1.
</event>
<event>
 7    1  0.3383281E-011  0.5052887E+02  0.7816164E-02  0.1300439E+00
        -11   -1    0    0    0    0  0.00000000000E+00  0.00000000000E+00  0.45593999997E+02  0.45594000000E+02  0.51100000000E-03 0.  1.
         11   -1    0    0    0    0 -0.00000000000E+00 -0.00000000000E+00 -0.45593999997E+02  0.45594000000E+02  0.51100000000E-03 0. -1.
    9900012    2    1    2    0    0 -0.42716001621E+01  0.27276454240E+02  0.29848175960E+02  0.50528866561E+02  0.30000020400E+02 0.  0.
         12    1    1    2    0    0  0.42716001621E+01 -0.27276454240E+02 -0.29848175960E+02  0.40659133439E+02  0.00000000000E+00 0. -1.
         11    1    3    3    0    0 -0.12848538523E+01  0.60621459376E+01  0.21070945761E+02  0.21963269755E+02  0.51100000000E-03 0. -1.
        -11    1    3    3    0    0 -0.61998987813E+01  0.20983938133E+01  0.61915122659E+01  0.90098183053E+01  0.51100000000E-03 0.  1.
         12    1    3    3    0    0  0.32131524715E+01  0.19115914489E+02  0.25857179326E+01  0.19555778501E+02  0.00000000000E+00 0. -1.
</event>
<event>
 7    1  0.3383281E-011  0.5052886E+02  0.7816164E-02  0.1300439E+00
        -11   -1    0    0    0    0  0.00000000000E+00  0.00000000000E+00  0.45593999997E+02  0.45594000000E+02  0.51100000000E-03 0. -1.
         11   -1    0    0    0    0 -0.00000000000E+00 -0.00000000000E+00 -0.45593999997E+02  0.45594000000E+02  0.51100000000E-03 0.  1.
    9900012    2    1    2    0    0 -0.18120411194E+02  0.33448988514E+02 -0.14352064403E+02  0.50528857276E+02  0.29999992175E+02 0.  0.
         12    1    1    2    0    0  0.18120411194E+02 -0.33448988514E+02  0.14352064403E+02  0.40659142724E+02  0.00000000000E+00 0. -1.
         11    1    3    3    0    0 -0.42381381577E+01 -0.23116232036E+01 -0.12183283417E+01  0.49789297131E+01  0.51100000000E-03 0. -1.
        -11    1    3    3    0    0 -0.14879993034E+02  0.36606210330E+02 -0.80837169965E+01  0.40333302718E+02  0.51100000000E-03 0.  1.
         12    1    3    3    0    0  0.99771999702E+00 -0.84559861289E+00 -0.50500190653E+01  0.52166248443E+01  0.00000000000E+00 0. -1.
</event>
<event>
 7    1  0.3383281E-011  0.5052886E+02  0.7816164E-02  0.1300439E+00
        -11   -1    0    0    0    0  0.00000000000E+00  0.00000000000E+00  0.45593999997E+02  0.45594000000E+02  0.51100000000E-03 0.  1.
         11   -1    0    0    0    0 -0.00000000000E+00 -0.00000000000E+00 -0.45593999997E+02  0.45594000000E+02  0.51100000000E-03 0. -1.
    9900012    2    1    2    0    0  0.23650881162E+02 -0.28418207616E+02  0.16917653903E+02  0.50528859362E+02  0.29999998517E+02 0.  0.
         12    1    1    2    0    0 -0.23650881162E+02  0.28418207616E+02 -0.16917653903E+02  0.40659140638E+02  0.00000000000E+00 0. -1.
         11    1    3    3    0    0 -0.43091785276E+00 -0.28008402697E+00 -0.63489139230E+00  0.81683817193E+00  0.51100000000E-03 0. -1.
        -11    1    3    3    0    0  0.29101611123E+02 -0.27453230331E+02  0.11120075840E+02  0.41523965520E+02  0.51100000000E-03 0.  1.
        -12    1    3    3    0    0 -0.50198121081E+01 -0.68489325817E+00  0.64324694547E+01  0.81880556704E+01  0.00000000000E+00 0.  1.
</event>
<event>
 7    1  0.3383281E-011  0.5052886E+02  0.7816164E-02  0.1300439E+00
        -11   -1    0    0    0    0  0.00000000000E+00  0.00000000000E+00  0.45593999997E+02  0.45594000000E+02  0.51100000000E-03 0.  1.
         11   -1    0    0    0    0 -0.00000000000E+00 -0.00000000000E+00 -0.45593999997E+02  0.45594000000E+02  0.51100000000E-03 0. -1.
    9900012    2    1    2    0    0  0.36900725120E+02  0.17036411824E+02  0.11239316803E+01  0.50528855092E+02  0.29999985538E+02 0.  0.
         12    1    1    2    0    0 -0.36900725120E+02 -0.17036411824E+02 -0.11239316803E+01  0.40659144908E+02  0.00000000000E+00 0. -1.
         11    1    3    3    0    0  0.10049852161E+02 -0.33492483198E+01  0.31164744708E+01  0.11042164921E+02  0.51100000000E-03 0. -1.
        -11    1    3    3    0    0  0.18889227535E+02  0.18349038991E+01  0.13442578867E+01  0.19025688390E+02  0.51100000000E-03 0.  1.
         12    1    3    3    0    0  0.79616454241E+01  0.18550756245E+02 -0.33368006772E+01  0.20461001781E+02  0.00000000000E+00 0. -1.
</event>
<event>
 7    1  0.3383281E-011  0.5052887E+02  0.7816164E-02  0.1300439E+00
        -11   -1    0    0    0    0  0.00000000000E+00  0.00000000000E+00  0.45593999997E+02  0.45594000000E+02  0.51100000000E-03 0.  1.
         11   -1    0    0    0    0 -0.00000000000E+00 -0.00000000000E+00 -0.45593999997E+02  0.45594000000E+02  0.51100000000E-03 0. -1.
    9900012    2    1    2    0    0  0.13544581040E+02  0.38335871171E+02  0.26447635704E+00  0.50528872590E+02  0.30000038724E+02 0.  0.
         12    1    1    2    0    0 -0.13544581040E+02 -0.38335871171E+02 -0.26447635704E+00  0.40659127410E+02  0.00000000000E+00 0. -1.
         11    1    3    3    0    0  0.59974897059E+01  0.32850204548E+02 -0.67743244464E+00  0.33400070907E+02  0.51100000000E-03 0. -1.
        -11    1    3    3    0    0  0.19465035138E+01  0.97174748933E+01 -0.64704985293E+00  0.99316095375E+01  0.51100000000E-03 0.  1.
         12    1    3    3    0    0  0.56005878202E+01 -0.42318082702E+01  0.15889586546E+01  0.71971921452E+01  0.00000000000E+00 0. -1.
</event>
<event>
 7    1  0.3383281E-011  0.5052885E+02  0.7816164E-02  0.1300439E+00
        -11   -1    0    0    0    0  0.00000000000E+00  0.00000000000E+00  0.45593999997E+02  0.45594000000E+02  0.51100000000E-03 0.  1.
         11   -1    0    0    0    0 -0.00000000000E+00 -0.00000000000E+00 -0.45593999997E+02  0.45594000000E+02  0.51100000000E-03 0. -1.
    9900012    2    1    2    0    0 -0.14819328604E+02 -0.12260514119E+00  0.37862099646E+02  0.50528854388E+02  0.29999983399E+02 0.  0.
         12    1    1    2    0    0  0.14819328604E+02  0.12260514119E+00 -0.37862099646E+02  0.40659145612E+02  0.00000000000E+00 0. -1.
         11    1    3    3    0    0 -0.30132871331E+01 -0.12992250696E+02  0.21460526620E+02  0.25267225423E+02  0.51100000000E-03 0. -1.
        -11    1    3    3    0    0 -0.53115465200E+01  0.20974022940E+01  0.90240487185E+01  0.10679189031E+02  0.51100000000E-03 0.  1.
        -12    1    3    3    0    0 -0.64944949508E+01  0.10772243261E+02  0.73775243073E+01  0.14582439935E+02  0.00000000000E+00 0.  1.
</event>
<event>
 7    1  0.3383281E-011  0.5052886E+02  0.7816164E-02  0.1300439E+00
        -11   -1    0    0    0    0  0.00000000000E+00  0.00000000000E+00  0.45593999997E+02  0.45594000000E+02  0.51100000000E-03 0.  1.
         11   -1    0    0    0    0 -0.00000000000E+00 -0.00000000000E+00 -0.45593999997E+02  0.45594000000E+02  0.51100000000E-03 0. -1.
    9900012    2    1    2    0    0 -0.74576919409E+01  0.29386348814E+02  0.27092272281E+02  0.50528857325E+02  0.29999992325E+02 0.  0.
         12    1    1    2    0    0  0.74576919409E+01 -0.29386348814E+02 -0.27092272281E+02  0.40659142675E+02  0.00000000000E+00 0. -1.
         11    1    3    3    0    0 -0.39344159379E+01  0.11449414464E+01  0.13944308394E+01  0.43283896907E+01  0.51100000000E-03 0. -1.
        -11    1    3    3    0    0 -0.26414869458E+01  0.18640161562E+01  0.18588537283E+02  0.18867584056E+02  0.51100000000E-03 0.  1.
         12    1    3    3    0    0 -0.88178905722E+00  0.26377391212E+02  0.71093041581E+01  0.27332883578E+02  0.00000000000E+00 0. -1.
</event>
<event>
 7    1  0.3383281E-011  0.5052893E+02  0.7816164E-02  0.1300439E+00
        -11   -1    0    0    0    0  0.00000000000E+00  0.00000000000E+00  0.45593999997E+02  0.45594000000E+02  0.51100000000E-03 0.  1.
         11   -1    0    0    0    0 -0.00000000000E+00 -0.00000000000E+00 -0.45593999997E+02  0.45594000000E+02  0.51100000000E-03 0. -1.
    9900012    2    1    2    0    0  0.33727710956E+02  0.22672949731E+02  0.12404634367E+01  0.50528931081E+02  0.30000216513E+02 0.  0.
         12    1    1    2    0    0 -0.33727710956E+02 -0.22672949731E+02 -0.12404634367E+01  0.40659068919E+02  0.00000000000E+00 0. -1.
         11    1    3    3    0    0  0.10233269456E+01  0.26053973607E+01  0.82361034336E+00  0.29178121433E+01  0.51100000000E-03 0.  1.
        -11    1    3    3    0    0 -0.34938343598E+01  0.17426108401E+01  0.54751885711E+01  0.67246755479E+01  0.51100000000E-03 0. -1.
         12    1    3    3    0    0  0.36198218370E+02  0.18324941530E+02 -0.50583354778E+01  0.40886443390E+02  0.00000000000E+00 0. -1.
</event>
<event>
 7    1  0.3383281E-011  0.5052886E+02  0.7816164E-02  0.1300439E+00
        -11   -1    0    0    0    0  0.00000000000E+00  0.00000000000E+00  0.45593999997E+02  0.45594000000E+02  0.51100000000E-03 0.  1.
         11   -1    0    0    0    0 -0.00000000000E+00 -0.00000000000E+00 -0.45593999997E+02  0.45594000000E+02  0.51100000000E-03 0. -1.
    9900012    2    1    2    0    0 -0.35930642547E+02  0.66659097449E+01  0.17824703053E+02  0.50528862460E+02  0.30000007934E+02 0.  0.
         12    1    1    2    0    0  0.35930642547E+02 -0.66659097449E+01 -0.17824703053E+02  0.40659137540E+02  0.00000000000E+00 0. -1.
         11    1    3    3    0    0  0.21973020866E+01 -0.32241424380E+01  0.57542867249E+00  0.39439002699E+01  0.51100000000E-03 0. -1.
        -11    1    3    3    0    0 -0.59750992237E+01 -0.41669415835E+01  0.68142577718E+01  0.99749346933E+01  0.51100000000E-03 0.  1.
         12    1    3    3    0    0 -0.32152845410E+02  0.14056993766E+02  0.10435016609E+02  0.36610027497E+02  0.00000000000E+00 0. -1.
</event>
<event>
 7    1  0.3383281E-011  0.5052886E+02  0.7816164E-02  0.1300439E+00
        -11   -1    0    0    0    0  0.00000000000E+00  0.00000000000E+00  0.45593999997E+02  0.45594000000E+02  0.51100000000E-03 0.  1.
         11   -1    0    0    0    0 -0.00000000000E+00 -0.00000000000E+00 -0.45593999997E+02  0.45594000000E+02  0.51100000000E-03 0. -1.
    9900012    2    1    2    0    0  0.42199406081E+00 -0.17034409787E+02  0.36916340585E+02  0.50528863291E+02  0.30000010459E+02 0.  0.
         12    1    1    2    0    0 -0.42199406081E+00  0.17034409787E+02 -0.36916340585E+02  0.40659136709E+02  0.00000000000E+00 0. -1.
         11    1    3    3    0    0 -0.61644318492E-01 -0.21775278653E+02  0.18310469159E+02  0.28450656258E+02  0.51100000000E-03 0. -1.
        -11    1    3    3    0    0  0.42105163494E+01 -0.97384062904E+00  0.37156571352E+01  0.56993790633E+01  0.51100000000E-03 0.  1.
         12    1    3    3    0    0 -0.37268779701E+01  0.57147094958E+01  0.14890214291E+02  0.16378827969E+02  0.00000000000E+00 0. -1.
</event>
<event>
 7    1  0.3383281E-011  0.5052885E+02  0.7816164E-02  0.1300439E+00
        -11   -1    0    0    0    0  0.00000000000E+00  0.00000000000E+00  0.45593999997E+02  0.45594000000E+02  0.51100000000E-03 0.  1.
         11   -1    0    0    0    0 -0.00000000000E+00 -0.00000000000E+00 -0.45593999997E+02  0.45594000000E+02  0.51100000000E-03 0. -1.
    9900012    2    1    2    0    0 -0.17551771953E+01  0.18028538817E+02  0.36401335971E+02  0.50528854419E+02  0.29999983493E+02 0.  0.
         12    1    1    2    0    0  0.17551771953E+01 -0.18028538817E+02 -0.36401335971E+02  0.40659145581E+02  0.00000000000E+00 0. -1.
         11    1    3    3    0    0 -0.18629028089E+01  0.31340878308E+01  0.19862343404E+02  0.20194197166E+02  0.51100000000E-03 0. -1.
        -11    1    3    3    0    0 -0.12525446590E+01  0.20887009392E+01  0.17265460321E+02  0.17436388964E+02  0.51100000000E-03 0.  1.
         12    1    3    3    0    0  0.13602702726E+01  0.12805750047E+02 -0.72646775371E+00  0.12898268290E+02  0.00000000000E+00 0. -1.
</event>
<event>
 7    1  0.3383281E-011  0.5052887E+02  0.7816164E-02  0.1300439E+00
        -11   -1    0    0    0    0  0.00000000000E+00  0.00000000000E+00  0.45593999997E+02  0.45594000000E+02  0.51100000000E-03 0.  1.
         11   -1    0    0    0    0 -0.00000000000E+00 -0.00000000000E+00 -0.45593999997E+02  0.45594000000E+02  0.51100000000E-03 0. -1.
    9900012    2    1    2    0    0  0.29133079150E+02  0.24791634600E+02  0.13776925369E+02  0.50528866714E+02  0.30000020864E+02 0.  0.
         12    1    1    2    0    0 -0.29133079150E+02 -0.24791634600E+02 -0.13776925369E+02  0.40659133286E+02  0.00000000000E+00 0. -1.
         11    1    3    3    0    0 -0.26109126686E+01  0.68218838359E+01  0.15943455285E+01  0.74764230725E+01  0.51100000000E-03 0. -1.
        -11    1    3    3    0    0  0.84861957674E+01 -0.36271986736E+01  0.50570593445E+01  0.10523589611E+02  0.51100000000E-03 0.  1.
        -12    1    3    3    0    0  0.23257796052E+02  0.21596949438E+02  0.71255204959E+01  0.32528854031E+02  0.00000000000E+00 0.  1.
</event>
<event>
 7    1  0.3761078E-011  0.5052886E+02  0.7816164E-02  0.1300439E+00
        -11   -1    0    0    0    0  0.00000000000E+00  0.00000000000E+00  0.45593999997E+02  0.45594000000E+02  0.51100000000E-03 0. -1.
         11   -1    0    0    0    0 -0.00000000000E+00 -0.00000000000E+00 -0.45593999997E+02  0.45594000000E+02  0.51100000000E-03 0.  1.
    9900012    2    1    2    0    0  0.22481695810E+02 -0.18451171301E+02 -0.28412909392E+02  0.50528858482E+02  0.29999995841E+02 0.  0.
         12    1    1    2    0    0 -0.22481695810E+02  0.18451171301E+02  0.28412909392E+02  0.40659141518E+02  0.00000000000E+00 0. -1.
         11    1    3    3    0    0 -0.36923277335E+00 -0.50256315864E+01 -0.36474322666E+01  0.62206967523E+01  0.51100000000E-03 0. -1.
        -11    1    3    3    0    0  0.87635752241E+01 -0.17458777931E+02 -0.21955225492E+02  0.29387771338E+02  0.51100000000E-03 0.  1.
         12    1    3    3    0    0  0.14087353360E+02  0.40332382165E+01 -0.28102516341E+01  0.14920390392E+02  0.00000000000E+00 0. -1.
</event>
<event>
 7    1  0.3383281E-011  0.5052886E+02  0.7816164E-02  0.1300439E+00
        -11   -1    0    0    0    0  0.00000000000E+00  0.00000000000E+00  0.45593999997E+02  0.45594000000E+02  0.51100000000E-03 0. -1.
         11   -1    0    0    0    0 -0.00000000000E+00 -0.00000000000E+00 -0.45593999997E+02  0.45594000000E+02  0.51100000000E-03 0.  1.
    9900012    2    1    2    0    0 -0.14906358961E+02 -0.36605987646E+02 -0.95377101434E+01  0.50528858545E+02  0.29999996035E+02 0.  0.
         12    1    1    2    0    0  0.14906358961E+02  0.36605987646E+02  0.95377101434E+01  0.40659141455E+02  0.00000000000E+00 0. -1.
         11    1    3    3    0    0 -0.77476890516E+01 -0.23143052234E+02 -0.97543180164E+01  0.26282584967E+02  0.51100000000E-03 0. -1.
        -11    1    3    3    0    0 -0.40380290958E+01 -0.16659574562E+02 -0.45275883301E+01  0.17729809924E+02  0.51100000000E-03 0.  1.
         12    1    3    3    0    0 -0.31206408139E+01  0.31966391501E+01  0.47441962031E+01  0.65164636544E+01  0.00000000000E+00 0. -1.
</event>
<event>
 7    1  0.3383281E-011  0.5052886E+02  0.7816164E-02  0.1300439E+00
        -11   -1    0    0    0    0  0.00000000000E+00  0.00000000000E+00  0.45593999997E+02  0.45594000000E+02  0.51100000000E-03 0.  1.
         11   -1    0    0    0    0 -0.00000000000E+00 -0.00000000000E+00 -0.45593999997E+02  0.45594000000E+02  0.51100000000E-03 0. -1.
    9900012    2    1    2    0    0 -0.21930049771E+02  0.34174345469E+02 -0.20863009859E+01  0.50528860523E+02  0.30000002047E+02 0.  0.
         12    1    1    2    0    0  0.21930049771E+02 -0.34174345469E+02  0.20863009859E+01  0.40659139477E+02  0.00000000000E+00 0. -1.
         11    1    3    3    0    0 -0.79628119106E+01  0.14369223382E+01 -0.99687512587E+01  0.12839280402E+02  0.51100000000E-03 0. -1.
        -11    1    3    3    0    0  0.79449081767E+00  0.70771024379E+01  0.28042690433E+01  0.76537911981E+01  0.51100000000E-03 0.  1.
        -12    1    3    3    0    0 -0.14761728678E+02  0.25660320693E+02  0.50781812295E+01  0.30035788923E+02  0.00000000000E+00 0.  1.
</event>
<event>
 7    1  0.3383281E-011  0.5052890E+02  0.7816164E-02  0.1300439E+00
        -11   -1    0    0    0    0  0.00000000000E+00  0.00000000000E+00  0.45593999997E+02  0.45594000000E+02  0.51100000000E-03 0. -1.
         11   -1    0    0    0    0 -0.00000000000E+00 -0.00000000000E+00 -0.45593999997E+02  0.45594000000E+02  0.51100000000E-03 0.  1.
    9900012    2    1    2    0    0 -0.21350176632E+02 -0.27109886888E+02 -0.21503171765E+02  0.50528900093E+02  0.30000122321E+02 0.  0.
         12    1    1    2    0    0  0.21350176632E+02  0.27109886888E+02  0.21503171765E+02  0.40659099907E+02  0.00000000000E+00 0. -1.
         11    1    3    3    0    0 -0.81658295089E+01 -0.38728923774E+01  0.24023354544E+01  0.93515390622E+01  0.51100000000E-03 0. -1.
        -11    1    3    3    0    0 -0.16283027981E+02 -0.12926452780E+02 -0.86786105340E+01  0.22528836249E+02  0.51100000000E-03 0.  1.
        -12    1    3    3    0    0  0.30986808574E+01 -0.10310541731E+02 -0.15226896685E+02  0.18648524781E+02  0.00000000000E+00 0.  1.
</event>
<event>
 7    1  0.3383281E-011  0.5052886E+02  0.7816164E-02  0.1300439E+00
        -11   -1    0    0    0    0  0.00000000000E+00  0.00000000000E+00  0.45593999997E+02  0.45594000000E+02  0.51100000000E-03 0.  1.
         11   -1    0    0    0    0 -0.00000000000E+00 -0.00000000000E+00 -0.45593999997E+02  0.45594000000E+02  0.51100000000E-03 0. -1.
    9900012    2    1    2    0    0 -0.30445056274E+01 -0.58327731681E+01  0.40123255242E+02  0.50528857504E+02  0.29999992868E+02 0.  0.
         12    1    1    2    0    0  0.30445056274E+01  0.58327731681E+01 -0.40123255242E+02  0.40659142496E+02  0.00000000000E+00 0. -1.
         11    1    3    3    0    0 -0.43453556638E+01 -0.12676897529E+01  0.18577500668E+02  0.19121001137E+02  0.51100000000E-03 0. -1.
        -11    1    3    3    0    0  0.38096151324E+01  0.85506162816E+01  0.72049650148E+01  0.11812608830E+02  0.51100000000E-03 0.  1.
         12    1    3    3    0    0 -0.25087650960E+01 -0.13115699697E+02  0.14340789559E+02  0.19595247537E+02  0.00000000000E+00 0. -1.
</event>
<event>
 7    1  0.3383281E-011  0.5052886E+02  0.7816164E-02  0.1300439E+00
        -11   -1    0    0    0    0  0.00000000000E+00  0.00000000000E+00  0.45593999997E+02  0.45594000000E+02  0.51100000000E-03 0.  1.
         11   -1    0    0    0    0 -0.00000000000E+00 -0.00000000000E+00 -0.45593999997E+02  0.45594000000E+02  0.51100000000E-03 0. -1.
    9900012    2    1    2    0    0 -0.15535596400E+02  0.19259917299E+02  0.32262465032E+02  0.50528858102E+02  0.29999994688E+02 0.  0.
         12    1    1    2    0    0  0.15535596400E+02 -0.19259917299E+02 -0.32262465032E+02  0.40659141898E+02  0.00000000000E+00 0. -1.
         11    1    3    3    0    0 -0.31551704311E+01 -0.74619528954E+00  0.51011800002E+01  0.60443316847E+01  0.51100000000E-03 0. -1.
        -11    1    3    3    0    0 -0.98131952657E+01  0.61979362286E+01  0.28105757328E+02  0.30408005690E+02  0.51100000000E-03 0.  1.
         12    1    3    3    0    0 -0.25672307036E+01  0.13808176360E+02 -0.94447229575E+00  0.14076520728E+02  0.00000000000E+00 0. -1.
</event>
<event>
 7    1  0.3383281E-011  0.5052886E+02  0.7816164E-02  0.1300439E+00
        -11   -1    0    0    0    0  0.00000000000E+00  0.00000000000E+00  0.45593999997E+02  0.45594000000E+02  0.51100000000E-03 0. -1.
         11   -1    0    0    0    0 -0.00000000000E+00 -0.00000000000E+00 -0.45593999997E+02  0.45594000000E+02  0.51100000000E-03 0.  1.
    9900012    2    1    2    0    0  0.18252344727E+02 -0.22236695930E+02 -0.28732338581E+02  0.50528855712E+02  0.29999987422E+02 0.  0.
         12    1    1    2    0    0 -0.18252344727E+02  0.22236695930E+02  0.28732338581E+02  0.40659144288E+02  0.00000000000E+00 0. -1.
         11    1    3    3    0    0 -0.14915372714E+01  0.10356282526E+01  0.77214733976E-01  0.18174629806E+01  0.51100000000E-03 0. -1.
        -11    1    3    3    0    0  0.12360656807E+02  0.15845260089E+01 -0.47432729386E+01  0.13333986569E+02  0.51100000000E-03 0.  1.
        -12    1    3    3    0    0  0.73832251916E+01 -0.24856850191E+02 -0.24066280376E+02  0.35377406163E+02  0.00000000000E+00 0.  1.
</event>
<event>
 7    1  0.3383281E-011  0.5052887E+02  0.7816164E-02  0.1300439E+00
        -11   -1    0    0    0    0  0.00000000000E+00  0.00000000000E+00  0.45593999997E+02  0.45594000000E+02  0.51100000000E-03 0.  1.
         11   -1    0    0    0    0 -0.00000000000E+00 -0.00000000000E+00 -0.45593999997E+02  0.45594000000E+02  0.51100000000E-03 0. -1.
    9900012    2    1    2    0    0  0.29945306280E+02 -0.24203125412E+02  0.13063396710E+02  0.50528868412E+02  0.30000026025E+02 0.  0.
         12    1    1    2    0    0 -0.29945306280E+02  0.24203125412E+02 -0.13063396710E+02  0.40659131588E+02  0.00000000000E+00 0. -1.
         11    1    3    3    0    0 -0.14556032176E+00  0.31926524204E+00 -0.19676530026E+01  0.19986937489E+01  0.51100000000E-03 0. -1.
        -11    1    3    3    0    0 -0.21197790873E+01 -0.10944206762E+02  0.45125846593E+01  0.12026327186E+02  0.51100000000E-03 0.  1.
        -12    1    3    3    0    0  0.32210645689E+02 -0.13578183892E+02  0.10518465053E+02  0.36503847477E+02  0.00000000000E+00 0.  1.
</event>
<event>
 7    1  0.3383281E-011  0.5052880E+02  0.7816164E-02  0.1300439E+00
        -11   -1    0    0    0    0  0.00000000000E+00  0.00000000000E+00  0.45593999997E+02  0.45594000000E+02  0.51100000000E-03 0.  1.
         11   -1    0    0    0    0 -0.00000000000E+00 -0.00000000000E+00 -0.45593999997E+02  0.45594000000E+02  0.51100000000E-03 0. -1.
    9900012    2    1    2    0    0 -0.16130714383E+02 -0.22735207879E+02  0.29598659006E+02  0.50528803761E+02  0.29999829511E+02 0.  0.
         12    1    1    2    0    0  0.16130714383E+02  0.22735207879E+02 -0.29598659006E+02  0.40659196239E+02  0.00000000000E+00 0. -1.
         11    1    3    3    0    0  0.42211031061E+00  0.28622561683E+01  0.38084739413E+01  0.47827985019E+01  0.51100000000E-03 0. -1.
        -11    1    3    3    0    0 -0.88487766927E+01  0.15938783434E+01  0.96951552955E+01  0.13222606914E+02  0.51100000000E-03 0.  1.
        -12    1    3    3    0    0 -0.77040480012E+01 -0.27191342391E+02  0.16095029770E+02  0.32523398345E+02  0.00000000000E+00 0.  1.
</event>
<event>
 7    1  0.3383281E-011  0.5052886E+02  0.7816164E-02  0.1300439E+00
        -11   -1    0    0    0    0  0.00000000000E+00  0.00000000000E+00  0.45593999997E+02  0.45594000000E+02  0.51100000000E-03 0.  1.
         11   -1    0    0    0    0 -0.00000000000E+00 -0.00000000000E+00 -0.45593999997E+02  0.45594000000E+02  0.51100000000E-03 0. -1.
    9900012    2    1    2    0    0 -0.64870057531E+01  0.40076799627E+02  0.22213512438E+01  0.50528861872E+02  0.30000006145E+02 0.  0.
         12    1    1    2    0    0  0.64870057531E+01 -0.40076799627E+02 -0.22213512438E+01  0.40659138128E+02  0.00000000000E+00 0. -1.
         11    1    3    3    0    0  0.16202709318E+01 -0.19439535235E+01 -0.12658791815E+01  0.28296083752E+01  0.51100000000E-03 0. -1.
        -11    1    3    3    0    0  0.62589710847E+01  0.20769457007E+02  0.39228899900E+01  0.22043913662E+02  0.51100000000E-03 0.  1.
        -12    1    3    3    0    0 -0.14366247770E+02  0.21251296143E+02 -0.43565956469E+00  0.25655339834E+02  0.00000000000E+00 0.  1.
</event>
<event>
 7    1  0.3383281E-011  0.5052886E+02  0.7816164E-02  0.1300439E+00
        -11   -1    0    0    0    0  0.00000000000E+00  0.00000000000E+00  0.45593999997E+02  0.45594000000E+02  0.51100000000E-03 0.  1.
         11   -1    0    0    0    0 -0.00000000000E+00 -0.00000000000E+00 -0.45593999997E+02  0.45594000000E+02  0.51100000000E-03 0. -1.
    9900012    2    1    2    0    0 -0.29943587247E+02 -0.25908389711E+02  0.92359572786E+01  0.50528856115E+02  0.29999988646E+02 0.  0.
         12    1    1    2    0    0  0.29943587247E+02  0.25908389711E+02 -0.92359572786E+01  0.40659143885E+02  0.00000000000E+00 0. -1.
         11    1    3    3    0    0  0.88638738883E-01 -0.16502180105E+02  0.47784884140E+01  0.17180330521E+02  0.51100000000E-03 0. -1.
        -11    1    3    3    0    0 -0.55618514181E+01 -0.42769053384E+01  0.45204043478E+01  0.83462666025E+01  0.51100000000E-03 0.  1.
         12    1    3    3    0    0 -0.24470374568E+02 -0.51293042673E+01 -0.62935483205E-01  0.25002258991E+02  0.00000000000E+00 0. -1.
</event>
<event>
 7    1  0.3383281E-011  0.5052885E+02  0.7816164E-02  0.1300439E+00
        -11   -1    0    0    0    0  0.00000000000E+00  0.00000000000E+00  0.45593999997E+02  0.45594000000E+02  0.51100000000E-03 0.  1.
         11   -1    0    0    0    0 -0.00000000000E+00 -0.00000000000E+00 -0.45593999997E+02  0.45594000000E+02  0.51100000000E-03 0. -1.
    9900012    2    1    2    0    0  0.31366359387E+02 -0.19380988928E+02  0.17137530192E+02  0.50528853746E+02  0.29999981446E+02 0.  0.
         12    1    1    2    0    0 -0.31366359387E+02  0.19380988928E+02 -0.17137530192E+02  0.40659146254E+02  0.00000000000E+00 0. -1.
         11    1    3    3    0    0 -0.29622353232E+00 -0.19785618118E+01  0.12526848750E+01  0.23604395525E+01  0.51100000000E-03 0.  1.
        -11    1    3    3    0    0  0.10888255052E+01 -0.12880477561E+02  0.10804614398E+02  0.16847312418E+02  0.51100000000E-03 0. -1.
         12    1    3    3    0    0  0.30573757414E+02 -0.45219495552E+01  0.50802309193E+01  0.31321101775E+02  0.00000000000E+00 0. -1.
</event>
<event>
 7    1  0.3383281E-011  0.5052885E+02  0.7816164E-02  0.1300439E+00
        -11   -1    0    0    0    0  0.00000000000E+00  0.00000000000E+00  0.45593999997E+02  0.45594000000E+02  0.51100000000E-03 0.  1.
         11   -1    0    0    0    0 -0.00000000000E+00 -0.00000000000E+00 -0.45593999997E+02  0.45594000000E+02  0.51100000000E-03 0. -1.
    9900012    2    1    2    0    0 -0.27591806631E+02  0.29114225730E+02 -0.66498823309E+01  0.50528845213E+02  0.29999955508E+02 0.  0.
         12    1    1    2    0    0  0.27591806631E+02 -0.29114225730E+02  0.66498823309E+01  0.40659154787E+02  0.00000000000E+00 0. -1.
         11    1    3    3    0    0  0.19037306439E+01  0.36789418557E+01  0.29145162702E+00  0.41525591933E+01  0.51100000000E-03 0. -1.
        -11    1    3    3    0    0 -0.10813319728E+02 -0.33203467395E+01 -0.38362273848E+01  0.11944422414E+02  0.51100000000E-03 0.  1.
         12    1    3    3    0    0 -0.18682217547E+02  0.28755630614E+02 -0.31051065732E+01  0.34431863605E+02  0.00000000000E+00 0. -1.
</event>
<event>
 7    1  0.3383281E-011  0.5052886E+02  0.7816164E-02  0.1300439E+00
        -11   -1    0    0    0    0  0.00000000000E+00  0.00000000000E+00  0.45593999997E+02  0.45594000000E+02  0.51100000000E-03 0. -1.
         11   -1    0    0    0    0 -0.00000000000E+00 -0.00000000000E+00 -0.45593999997E+02  0.45594000000E+02  0.51100000000E-03 0.  1.
    9900012    2    1    2    0    0  0.10119185809E+02 -0.70642588040E+01 -0.38740986762E+02  0.50528859217E+02  0.29999998076E+02 0.  0.
         12    1    1    2    0    0 -0.10119185809E+02  0.70642588040E+01  0.38740986762E+02  0.40659140783E+02  0.00000000000E+00 0. -1.
         11    1    3    3    0    0  0.76632142011E+01 -0.33750332499E+01 -0.18903067472E+02  0.20674662306E+02  0.51100000000E-03 0. -1.
        -11    1    3    3    0    0 -0.25548555468E+01  0.68686371931E+01 -0.15924373451E+02  0.17529721442E+02  0.51100000000E-03 0.  1.
         12    1    3    3    0    0  0.50108271547E+01 -0.10557862747E+02 -0.39135458385E+01  0.12324475469E+02  0.00000000000E+00 0. -1.
</event>
<event>
 7    1  0.3383281E-011  0.5052883E+02  0.7816164E-02  0.1300439E+00
        -11   -1    0    0    0    0  0.00000000000E+00  0.00000000000E+00  0.45593999997E+02  0.45594000000E+02  0.51100000000E-03 0. -1.
         11   -1    0    0    0    0 -0.00000000000E+00 -0.00000000000E+00 -0.45593999997E+02  0.45594000000E+02  0.51100000000E-03 0.  1.
    9900012    2    1    2    0    0 -0.21737275907E+02 -0.24161060877E+02 -0.24431575453E+02  0.50528832452E+02  0.29999916722E+02 0.  0.
         12    1    1    2    0    0  0.21737275907E+02  0.24161060877E+02  0.24431575453E+02  0.40659167548E+02  0.00000000000E+00 0. -1.
         11    1    3    3    0    0 -0.30881647918E+01 -0.13466722617E+02  0.20268127718E+01  0.13964145162E+02  0.51100000000E-03 0. -1.
        -11    1    3    3    0    0 -0.16297681324E+02 -0.50603765293E+01 -0.11976142911E+02  0.20848257155E+02  0.51100000000E-03 0.  1.
        -12    1    3    3    0    0 -0.23514297919E+01 -0.56339617300E+01 -0.14482245314E+02  0.15716430135E+02  0.00000000000E+00 0.  1.
</event>
<event>
 7    1  0.3383281E-011  0.5052886E+02  0.7816164E-02  0.1300439E+00
        -11   -1    0    0    0    0  0.00000000000E+00  0.00000000000E+00  0.45593999997E+02  0.45594000000E+02  0.51100000000E-03 0.  1.
         11   -1    0    0    0    0 -0.00000000000E+00 -0.00000000000E+00 -0.45593999997E+02  0.45594000000E+02  0.51100000000E-03 0. -1.
    9900012    2    1    2    0    0 -0.51533255340E+01  0.36859376223E+02  0.16370565687E+02  0.50528858340E+02  0.29999995411E+02 0.  0.
         12    1    1    2    0    0  0.51533255340E+01 -0.36859376223E+02 -0.16370565687E+02  0.40659141660E+02  0.00000000000E+00 0. -1.
         11    1    3    3    0    0  0.18955160097E+01  0.15861956919E+02  0.15880912735E+02  0.22525497726E+02  0.51100000000E-03 0. -1.
        -11    1    3    3    0    0 -0.30764902541E+01  0.71732775311E+01  0.84997862594E+01  0.11539803705E+02  0.51100000000E-03 0.  1.
         12    1    3    3    0    0 -0.39723512895E+01  0.13824141772E+02 -0.80101333074E+01  0.16463556909E+02  0.00000000000E+00 0. -1.
</event>
<event>
 7    1  0.3383281E-011  0.5052886E+02  0.7816164E-02  0.1300439E+00
        -11   -1    0    0    0    0  0.00000000000E+00  0.00000000000E+00  0.45593999997E+02  0.45594000000E+02  0.51100000000E-03 0.  1.
         11   -1    0    0    0    0 -0.00000000000E+00 -0.00000000000E+00 -0.45593999997E+02  0.45594000000E+02  0.51100000000E-03 0. -1.
    9900012    2    1    2    0    0 -0.17349686442E+00 -0.20718173109E+02  0.34984183172E+02  0.50528857482E+02  0.29999992801E+02 0.  0.
         12    1    1    2    0    0  0.17349686442E+00  0.20718173109E+02 -0.34984183172E+02  0.40659142518E+02  0.00000000000E+00 0. -1.
         11    1    3    3    0    0 -0.16701160428E+01 -0.44765600237E+01 -0.34007052405E+01  0.58646119766E+01  0.51100000000E-03 0. -1.
        -11    1    3    3    0    0 -0.63256534798E+01 -0.20995828720E+01  0.11817668714E+02  0.13567587637E+02  0.51100000000E-03 0.  1.
         12    1    3    3    0    0  0.78222726581E+01 -0.14142030213E+02  0.26567219698E+02  0.31096657868E+02  0.00000000000E+00 0. -1.
</event>
<event>
 7    1  0.3383281E-011  0.5052886E+02  0.7816164E-02  0.1300439E+00
        -11   -1    0    0    0    0  0.00000000000E+00  0.00000000000E+00  0.45593999997E+02  0.45594000000E+02  0.51100000000E-03 0.  1.
         11   -1    0    0    0    0 -0.00000000000E+00 -0.00000000000E+00 -0.45593999997E+02  0.45594000000E+02  0.51100000000E-03 0. -1.
    9900012    2    1    2    0    0  0.27008222608E+02 -0.30019819858E+02  0.47468016486E+01  0.50528858364E+02  0.29999995482E+02 0.  0.
         12    1    1    2    0    0 -0.27008222608E+02  0.30019819858E+02 -0.47468016486E+01  0.40659141636E+02  0.00000000000E+00 0. -1.
         11    1    3    3    0    0  0.69423994104E+00 -0.12116389172E+02  0.64221561576E+01  0.13730729975E+02  0.51100000000E-03 0. -1.
        -11    1    3    3    0    0  0.18812679547E+01 -0.10270105114E+02  0.28059427437E+01  0.10811454255E+02  0.51100000000E-03 0.  1.
         12    1    3    3    0    0  0.24432714712E+02 -0.76333255718E+01 -0.44812972526E+01  0.25986674134E+02  0.00000000000E+00 0. -1.
</event>
<event>
 7    1  0.3383281E-011  0.5052886E+02  0.7816164E-02  0.1300439E+00
        -11   -1    0    0    0    0  0.00000000000E+00  0.00000000000E+00  0.45593999997E+02  0.45594000000E+02  0.51100000000E-03 0. -1.
         11   -1    0    0    0    0 -0.00000000000E+00 -0.00000000000E+00 -0.45593999997E+02  0.45594000000E+02  0.51100000000E-03 0.  1.
    9900012    2    1    2    0    0 -0.20467234933E+02  0.37617058817E+01 -0.34930039785E+02  0.50528858146E+02  0.29999994820E+02 0.  0.
         12    1    1    2    0    0  0.20467234933E+02 -0.37617058817E+01  0.34930039785E+02  0.40659141854E+02  0.00000000000E+00 0. -1.
         11    1    3    3    0    0  0.10483976526E+00 -0.68300666089E+01 -0.91547562297E+01  0.11422362415E+02  0.51100000000E-03 0. -1.
        -11    1    3    3    0    0 -0.57768788614E+01 -0.17473918675E+01 -0.16803565596E+02  0.17854565935E+02  0.51100000000E-03 0.  1.
         12    1    3    3    0    0 -0.14795195837E+02  0.12339164358E+02 -0.89717179592E+01  0.21251929796E+02  0.00000000000E+00 0. -1.
</event>
<event>
 7    1  0.3666904E-011  0.5052899E+02  0.7816164E-02  0.1300438E+00
        -11   -1    0    0    0    0  0.00000000000E+00  0.00000000000E+00  0.45593999997E+02  0.45594000000E+02  0.51100000000E-03 0.  1.
         11   -1    0    0    0    0 -0.00000000000E+00 -0.00000000000E+00 -0.45593999997E+02  0.45594000000E+02  0.51100000000E-03 0. -1.
    9900012    2    1    2    0    0  0.12204543597E+01 -0.34748224661E+02  0.21076678454E+02  0.50528991151E+02  0.30000399100E+02 0.  0.
         12    1    1    2    0    0 -0.12204543597E+01  0.34748224661E+02 -0.21076678454E+02  0.40659008849E+02  0.00000000000E+00 0. -1.
         11    1    3    3    0    0 -0.78890749290E+01 -0.18842826405E+02  0.66775843696E+01  0.21491387657E+02  0.51100000000E-03 0. -1.
        -11    1    3    3    0    0  0.45088889941E+01 -0.18758610928E+02  0.13506801439E+02  0.23550992533E+02  0.51100000000E-03 0.  1.
         12    1    3    3    0    0  0.46006402946E+01  0.28532126721E+01  0.89229264546E+00  0.54866109611E+01  0.00000000000E+00 0. -1.
</event>
<event>
 7    1  0.3383281E-011  0.5052884E+02  0.7816164E-02  0.1300439E+00
        -11   -1    0    0    0    0  0.00000000000E+00  0.00000000000E+00  0.45593999997E+02  0.45594000000E+02  0.51100000000E-03 0.  1.
         11   -1    0    0    0    0 -0.00000000000E+00 -0.00000000000E+00 -0.45593999997E+02  0.45594000000E+02  0.51100000000E-03 0. -1.
    9900012    2    1    2    0    0  0.34583888021E+02  0.16600918035E+02  0.13473348726E+02  0.50528844621E+02  0.29999953710E+02 0.  0.
         12    1    1    2    0    0 -0.34583888021E+02 -0.16600918035E+02 -0.13473348726E+02  0.40659155379E+02  0.00000000000E+00 0. -1.
         11    1    3    3    0    0  0.41068464826E+01  0.51214287183E+01 -0.32531700098E+01  0.73265500423E+01  0.51100000000E-03 0. -1.
        -11    1    3    3    0    0 -0.17300606579E+00 -0.34632901948E+01 -0.22938219225E+01  0.41576350664E+01  0.51100000000E-03 0.  1.
        -12    1    3    3    0    0  0.30650047605E+02  0.14942779511E+02  0.19020340658E+02  0.39044659512E+02  0.00000000000E+00 0.  1.
</event>
<event>
 7    1  0.3383281E-011  0.5052886E+02  0.7816164E-02  0.1300439E+00
        -11   -1    0    0    0    0  0.00000000000E+00  0.00000000000E+00  0.45593999997E+02  0.45594000000E+02  0.51100000000E-03 0.  1.
         11   -1    0    0    0    0 -0.00000000000E+00 -0.00000000000E+00 -0.45593999997E+02  0.45594000000E+02  0.51100000000E-03 0. -1.
    9900012    2    1    2    0    0 -0.29872252386E+02 -0.26323634152E+02 -0.82389758333E+01  0.50528857112E+02  0.29999991679E+02 0.  0.
         12    1    1    2    0    0  0.29872252386E+02  0.26323634152E+02  0.82389758333E+01  0.40659142888E+02  0.00000000000E+00 0. -1.
         11    1    3    3    0    0 -0.10590586679E+02  0.23045915814E+01  0.19029345098E+01  0.11004218672E+02  0.51100000000E-03 0. -1.
        -11    1    3    3    0    0 -0.21236374862E+01  0.16189237521E+01 -0.30140760517E+01  0.40268356056E+01  0.51100000000E-03 0.  1.
        -12    1    3    3    0    0 -0.17158028220E+02 -0.30247149485E+02 -0.71278342914E+01  0.35497802835E+02  0.00000000000E+00 0.  1.
</event>
<event>
 7    1  0.3383281E-011  0.5052886E+02  0.7816164E-02  0.1300439E+00
        -11   -1    0    0    0    0  0.00000000000E+00  0.00000000000E+00  0.45593999997E+02  0.45594000000E+02  0.51100000000E-03 0.  1.
         11   -1    0    0    0    0 -0.00000000000E+00 -0.00000000000E+00 -0.45593999997E+02  0.45594000000E+02  0.51100000000E-03 0. -1.
    9900012    2    1    2    0    0 -0.15022420153E+02 -0.12353167734E+02  0.35705630519E+02  0.50528856980E+02  0.29999991277E+02 0.  0.
         12    1    1    2    0    0  0.15022420153E+02  0.12353167734E+02 -0.35705630519E+02  0.40659143020E+02  0.00000000000E+00 0. -1.
         11    1    3    3    0    0 -0.31718169492E+01 -0.11099088230E+02  0.17666448023E+02  0.21103401818E+02  0.51100000000E-03 0. -1.
        -11    1    3    3    0    0  0.19733470434E+01 -0.19612337771E+01  0.14997236919E+02  0.15253119417E+02  0.51100000000E-03 0.  1.
         12    1    3    3    0    0 -0.13823950247E+02  0.70715427234E+00  0.30419455781E+01  0.14172335746E+02  0.00000000000E+00 0. -1.
</event>
<event>
 7    1  0.3383281E-011  0.5052885E+02  0.7816164E-02  0.1300439E+00
        -11   -1    0    0    0    0  0.00000000000E+00  0.00000000000E+00  0.45593999997E+02  0.45594000000E+02  0.51100000000E-03 0.  1.
         11   -1    0    0    0    0 -0.00000000000E+00 -0.00000000000E+00 -0.45593999997E+02  0.45594000000E+02  0.51100000000E-03 0. -1.
    9900012    2    1    2    0    0  0.49383681931E+01 -0.33306743447E+02  0.22791218279E+02  0.50528852566E+02  0.29999977859E+02 0.  0.
         12    1    1    2    0    0 -0.49383681931E+01  0.33306743447E+02 -0.22791218279E+02  0.40659147434E+02  0.00000000000E+00 0. -1.
         11    1    3    3    0    0  0.20829774968E+01 -0.83272897659E+01  0.15778933773E+02  0.17962664095E+02  0.51100000000E-03 0.  1.
        -11    1    3    3    0    0  0.43035937292E+01  0.84893693113E+00  0.49518280248E+01  0.66153015008E+01  0.51100000000E-03 0. -1.
         12    1    3    3    0    0 -0.14482030329E+01 -0.25828390612E+02  0.20604564807E+01  0.25950886970E+02  0.00000000000E+00 0. -1.
</event>
<event>
 7    1  0.3383281E-011  0.5052886E+02  0.7816164E-02  0.1300439E+00
        -11   -1    0    0    0    0  0.00000000000E+00  0.00000000000E+00  0.45593999997E+02  0.45594000000E+02  0.51100000000E-03 0. -1.
         11   -1    0    0    0    0 -0.00000000000E+00 -0.00000000000E+00 -0.45593999997E+02  0.45594000000E+02  0.51100000000E-03 0.  1.
    9900012    2    1    2    0    0 -0.35932069298E+01 -0.31796421384E+02  0.25084691102E+02  0.50528864784E+02  0.30000014997E+02 0.  0.
         12    1    1    2    0    0  0.35932069298E+01  0.31796421384E+02 -0.25084691102E+02  0.40659135216E+02  0.00000000000E+00 0. -1.
         11    1    3    3    0    0 -0.42879156992E+01 -0.34947057275E+02  0.26262005108E+02  0.43924662159E+02  0.51100000000E-03 0.  1.
        -11    1    3    3    0    0  0.23548009727E+01 -0.13046219155E+00 -0.16761376060E+01  0.28933623243E+01  0.51100000000E-03 0. -1.
        -12    1    3    3    0    0 -0.16600922033E+01  0.32810980828E+01  0.49882359959E+00  0.37108403005E+01  0.00000000000E+00 0.  1.
</event>
<event>
 7    1  0.3383281E-011  0.5052885E+02  0.7816164E-02  0.1300439E+00
        -11   -1    0    0    0    0  0.00000000000E+00  0.00000000000E+00  0.45593999997E+02  0.45594000000E+02  0.51100000000E-03 0. -1.
         11   -1    0    0    0    0 -0.00000000000E+00 -0.00000000000E+00 -0.45593999997E+02  0.45594000000E+02  0.51100000000E-03 0.  1.
    9900012    2    1    2    0    0  0.35124529654E+02  0.83659304662E+01  0.18693448110E+02  0.50528851236E+02  0.29999973816E+02 0.  0.
         12    1    1    2    0    0 -0.35124529654E+02 -0.83659304662E+01 -0.18693448110E+02  0.40659148764E+02  0.00000000000E+00 0. -1.
         11    1    3    3    0    0  0.60777177577E+01  0.76695858155E+00 -0.92250041121E+00  0.61949887715E+01  0.51100000000E-03 0. -1.
        -11    1    3    3    0    0  0.25044296800E+02  0.35649180339E+01  0.14929212027E+01  0.25340762750E+02  0.51100000000E-03 0.  1.
         12    1    3    3    0    0  0.40025150967E+01  0.40340538508E+01  0.18123027318E+02  0.18993099714E+02  0.00000000000E+00 0. -1.
</event>
<event>
 7    1  0.3383281E-011  0.5052886E+02  0.7816164E-02  0.1300439E+00
        -11   -1    0    0    0    0  0.00000000000E+00  0.00000000000E+00  0.45593999997E+02  0.45594000000E+02  0.51100000000E-03 0.  1.
         11   -1    0    0    0    0 -0.00000000000E+00 -0.00000000000E+00 -0.45593999997E+02  0.45594000000E+02  0.51100000000E-03 0. -1.
    9900012    2    1    2    0    0  0.39988286261E+01  0.35283941911E+02  0.19804500151E+02  0.50528863101E+02  0.30000009882E+02 0.  0.
         12    1    1    2    0    0 -0.39988286261E+01 -0.35283941911E+02 -0.19804500151E+02  0.40659136899E+02  0.00000000000E+00 0. -1.
         11    1    3    3    0    0  0.48183750531E+01  0.11235198964E+02  0.18612990556E+02  0.22268584409E+02  0.51100000000E-03 0. -1.
        -11    1    3    3    0    0  0.85942219852E+00  0.14250850314E+02  0.78529339356E+01  0.16293983947E+02  0.51100000000E-03 0.  1.
         12    1    3    3    0    0 -0.16789686255E+01  0.97978926329E+01 -0.66614243404E+01  0.11966294745E+02  0.00000000000E+00 0. -1.
</event>
<event>
 7    1  0.3383281E-011  0.5052885E+02  0.7816164E-02  0.1300439E+00
        -11   -1    0    0    0    0  0.00000000000E+00  0.00000000000E+00  0.45593999997E+02  0.45594000000E+02  0.51100000000E-03 0.  1.
         11   -1    0    0    0    0 -0.00000000000E+00 -0.00000000000E+00 -0.45593999997E+02  0.45594000000E+02  0.51100000000E-03 0. -1.
    9900012    2    1    2    0    0 -0.28503619596E+02  0.22136077984E+02  0.18727091907E+02  0.50528852814E+02  0.29999978615E+02 0.  0.
         12    1    1    2    0    0  0.28503619596E+02 -0.22136077984E+02 -0.18727091907E+02  0.40659147186E+02  0.00000000000E+00 0. -1.
         11    1    3    3    0    0  0.39877284427E+01  0.58235407298E+01  0.49166437680E+01  0.86016853562E+01  0.51100000000E-03 0. -1.
        -11    1    3    3    0    0 -0.20438814026E+02  0.12897063437E+02  0.16305632891E+02  0.29153953906E+02  0.51100000000E-03 0.  1.
        -12    1    3    3    0    0 -0.12052534012E+02  0.34154738168E+01 -0.24951847522E+01  0.12773213552E+02  0.00000000000E+00 0.  1.
</event>
<event>
 7    1  0.3383281E-011  0.5052886E+02  0.7816164E-02  0.1300439E+00
        -11   -1    0    0    0    0  0.00000000000E+00  0.00000000000E+00  0.45593999997E+02  0.45594000000E+02  0.51100000000E-03 0. -1.
         11   -1    0    0    0    0 -0.00000000000E+00 -0.00000000000E+00 -0.45593999997E+02  0.45594000000E+02  0.51100000000E-03 0.  1.
    9900012    2    1    2    0    0  0.20144690394E+02 -0.30391232514E+02 -0.17992502890E+02  0.50528859268E+02  0.29999998232E+02 0.  0.
         12    1    1    2    0    0 -0.20144690394E+02  0.30391232514E+02  0.17992502890E+02  0.40659140732E+02  0.00000000000E+00 0. -1.
         11    1    3    3    0    0  0.42447453600E+01 -0.99576884258E+01 -0.18662575054E+02  0.21574640898E+02  0.51100000000E-03 0. -1.
        -11    1    3    3    0    0  0.20448098754E+00  0.15599064823E+01  0.11194355066E+01  0.19308694472E+01  0.51100000000E-03 0.  1.
        -12    1    3    3    0    0  0.15695464046E+02 -0.21993450570E+02 -0.44936334269E+00  0.27023348923E+02  0.00000000000E+00 0.  1.
</event>
<event>
 7    1  0.3383281E-011  0.5052886E+02  0.7816164E-02  0.1300439E+00
        -11   -1    0    0    0    0  0.00000000000E+00  0.00000000000E+00  0.45593999997E+02  0.45594000000E+02  0.51100000000E-03 0.  1.
         11   -1    0    0    0    0 -0.00000000000E+00 -0.00000000000E+00 -0.45593999997E+02  0.45594000000E+02  0.51100000000E-03 0. -1.
    9900012    2    1    2    0    0 -0.40329344508E+02  0.44402760116E+01  0.26446054644E+01  0.50528855671E+02  0.29999987297E+02 0.  0.
         12    1    1    2    0    0  0.40329344508E+02 -0.44402760116E+01 -0.26446054644E+01  0.40659144329E+02  0.00000000000E+00 0. -1.
         11    1    3    3    0    0  0.17543801029E+00  0.10669592791E+01 -0.35625808417E+01  0.37230583012E+01  0.51100000000E-03 0. -1.
        -11    1    3    3    0    0 -0.33779114996E+01 -0.63219226831E+01 -0.22506771402E+01  0.75128250586E+01  0.51100000000E-03 0.  1.
        -12    1    3    3    0    0 -0.37126871019E+02  0.96952394155E+01  0.84578634464E+01  0.39292972311E+02  0.00000000000E+00 0.  1.
</event>
<event>
 7    1  0.3383281E-011  0.5052886E+02  0.7816164E-02  0.1300439E+00
        -11   -1    0    0    0    0  0.00000000000E+00  0.00000000000E+00  0.45593999997E+02  0.45594000000E+02  0.51100000000E-03 0.  1.
         11   -1    0    0    0    0 -0.00000000000E+00 -0.00000000000E+00 -0.45593999997E+02  0.45594000000E+02  0.51100000000E-03 0. -1.
    9900012    2    1    2    0    0 -0.21536060965E+01  0.40597100414E+02 -0.63511805741E+00  0.50528856425E+02  0.29999989591E+02 0.  0.
         12    1    1    2    0    0  0.21536060965E+01 -0.40597100414E+02  0.63511805741E+00  0.40659143575E+02  0.00000000000E+00 0. -1.
         11    1    3    3    0    0  0.37265065476E+01  0.94134511599E+01 -0.44712171588E+01  0.11067596710E+02  0.51100000000E-03 0. -1.
        -11    1    3    3    0    0 -0.26542961347E+01  0.12001723398E+01 -0.68689085142E+01  0.74610727147E+01  0.51100000000E-03 0.  1.
        -12    1    3    3    0    0 -0.32258165094E+01  0.29983476915E+02  0.10705007616E+02  0.32000187001E+02  0.00000000000E+00 0.  1.
</event>
<event>
 7    1  0.3383281E-011  0.5052885E+02  0.7816164E-02  0.1300439E+00
        -11   -1    0    0    0    0  0.00000000000E+00  0.00000000000E+00  0.45593999997E+02  0.45594000000E+02  0.51100000000E-03 0.  1.
         11   -1    0    0    0    0 -0.00000000000E+00 -0.00000000000E+00 -0.45593999997E+02  0.45594000000E+02  0.51100000000E-03 0. -1.
    9900012    2    1    2    0    0 -0.17311430101E+02  0.98245991679E+01  0.35453600159E+02  0.50528854348E+02  0.29999983276E+02 0.  0.
         12    1    1    2    0    0  0.17311430101E+02 -0.98245991679E+01 -0.35453600159E+02  0.40659145652E+02  0.00000000000E+00 0. -1.
         11    1    3    3    0    0 -0.13317038579E+02  0.10108695693E+02  0.28181403881E+02  0.32767678742E+02  0.51100000000E-03 0.  1.
        -11    1    3    3    0    0 -0.36916535849E+01 -0.70429711008E+01  0.75836838027E+01  0.10988357857E+02  0.51100000000E-03 0. -1.
         12    1    3    3    0    0 -0.30273793720E+00  0.67588745752E+01 -0.31148752536E+00  0.67728177489E+01  0.00000000000E+00 0. -1.
</event>
<event>
 7    1  0.3383281E-011  0.5052886E+02  0.7816164E-02  0.1300439E+00
        -11   -1    0    0    0    0  0.00000000000E+00  0.00000000000E+00  0.45593999997E+02  0.45594000000E+02  0.51100000000E-03 0. -1.
         11   -1    0    0    0    0 -0.00000000000E+00 -0.00000000000E+00 -0.45593999997E+02  0.45594000000E+02  0.51100000000E-03 0.  1.
    9900012    2    1    2    0    0  0.21964797321E+02 -0.34175927199E+02  0.16489609573E+01  0.50528863345E+02  0.30000010624E+02 0.  0.
         12    1    1    2    0    0 -0.21964797321E+02  0.34175927199E+02 -0.16489609573E+01  0.40659136655E+02  0.00000000000E+00 0. -1.
         11    1    3    3    0    0  0.64660219297E+01  0.87108589765E+00 -0.61718033632E+01  0.89810571344E+01  0.51100000000E-03 0. -1.
        -11    1    3    3    0    0  0.27544909723E+01 -0.16869199371E+02 -0.21199911269E+01  0.17223573107E+02  0.51100000000E-03 0.  1.
        -12    1    3    3    0    0  0.12744284419E+02 -0.18177813726E+02  0.99407554475E+01  0.24324233104E+02  0.00000000000E+00 0.  1.
</event>
<event>
 7    1  0.3383281E-011  0.5052887E+02  0.7816164E-02  0.1300439E+00
        -11   -1    0    0    0    0  0.00000000000E+00  0.00000000000E+00  0.45593999997E+02  0.45594000000E+02  0.51100000000E-03 0.  1.
         11   -1    0    0    0    0 -0.00000000000E+00 -0.00000000000E+00 -0.45593999997E+02  0.45594000000E+02  0.51100000000E-03 0. -1.
    9900012    2    1    2    0    0  0.20607415218E+02  0.13672082830E+02  0.32273421147E+02  0.50528866666E+02  0.30000020719E+02 0.  0.
         12    1    1    2    0    0 -0.20607415218E+02 -0.13672082830E+02 -0.32273421147E+02  0.40659133334E+02  0.00000000000E+00 0. -1.
         11    1    3    3    0    0  0.17257900315E+02  0.26671795658E+01  0.89675685572E+01  0.19630747724E+02  0.51100000000E-03 0. -1.
        -11    1    3    3    0    0  0.97238806337E+01  0.32613862454E+01  0.11866961804E+02  0.15684874164E+02  0.51100000000E-03 0.  1.
        -12    1    3    3    0    0 -0.63743657298E+01  0.77435170189E+01  0.11438890787E+02  0.15213244779E+02  0.00000000000E+00 0.  1.
</event>
<event>
 7    1  0.3383281E-011  0.5052882E+02  0.7816164E-02  0.1300439E+00
        -11   -1    0    0    0    0  0.00000000000E+00  0.00000000000E+00  0.45593999997E+02  0.45594000000E+02  0.51100000000E-03 0.  1.
         11   -1    0    0    0    0 -0.00000000000E+00 -0.00000000000E+00 -0.45593999997E+02  0.45594000000E+02  0.51100000000E-03 0. -1.
    9900012    2    1    2    0    0 -0.24573965157E+02 -0.28750552507E+02  0.14922975964E+02  0.50528815987E+02  0.29999866673E+02 0.  0.
         12    1    1    2    0    0  0.24573965157E+02  0.28750552507E+02 -0.14922975964E+02  0.40659184013E+02  0.00000000000E+00 0. -1.
         11    1    3    3    0    0 -0.86020174679E+01 -0.11083238594E+02 -0.53513487709E+01  0.15015652373E+02  0.51100000000E-03 0. -1.
        -11    1    3    3    0    0 -0.13914396793E+01 -0.88621987872E+01 -0.81457883027E-01  0.89711374626E+01  0.51100000000E-03 0.  1.
         12    1    3    3    0    0 -0.14580508010E+02 -0.88051151256E+01  0.20355782618E+02  0.26542026151E+02  0.00000000000E+00 0. -1.
</event>
<event>
 7    1  0.3383281E-011  0.5052887E+02  0.7816164E-02  0.1300439E+00
        -11   -1    0    0    0    0  0.00000000000E+00  0.00000000000E+00  0.45593999997E+02  0.45594000000E+02  0.51100000000E-03 0.  1.
         11   -1    0    0    0    0 -0.00000000000E+00 -0.00000000000E+00 -0.45593999997E+02  0.45594000000E+02  0.51100000000E-03 0. -1.
    9900012    2    1    2    0    0  0.16957873574E+02 -0.33201002250E+02  0.16226185230E+02  0.50528866787E+02  0.30000021085E+02 0.  0.
         12    1    1    2    0    0 -0.16957873574E+02  0.33201002250E+02 -0.16226185230E+02  0.40659133213E+02  0.00000000000E+00 0. -1.
         11    1    3    3    0    0  0.38553091488E+01 -0.11358052401E+02 -0.29127717411E+01  0.12343135844E+02  0.51100000000E-03 0.  1.
        -11    1    3    3    0    0 -0.16406535608E+01 -0.61745794431E+01 -0.32221971439E+01  0.71553986682E+01  0.51100000000E-03 0. -1.
         12    1    3    3    0    0  0.14743217986E+02 -0.15668370405E+02  0.22361154115E+02  0.31030332275E+02  0.00000000000E+00 0. -1.
</event>
<event>
 7    1  0.3383281E-011  0.5052886E+02  0.7816164E-02  0.1300439E+00
        -11   -1    0    0    0    0  0.00000000000E+00  0.00000000000E+00  0.45593999997E+02  0.45594000000E+02  0.51100000000E-03 0.  1.
         11   -1    0    0    0    0 -0.00000000000E+00 -0.00000000000E+00 -0.45593999997E+02  0.45594000000E+02  0.51100000000E-03 0. -1.
    9900012    2    1    2    0    0 -0.10989030168E+02  0.21262137023E+02  0.32868344247E+02  0.50528864393E+02  0.30000013808E+02 0.  0.
         12    1    1    2    0    0  0.10989030168E+02 -0.21262137023E+02 -0.32868344247E+02  0.40659135607E+02  0.00000000000E+00 0. -1.
         11    1    3    3    0    0  0.51693374056E+01  0.61715333798E+01  0.13043466876E+01  0.81554395353E+01  0.51100000000E-03 0. -1.
        -11    1    3    3    0    0 -0.15897345052E+02  0.11040900434E+02  0.12868936685E+02  0.23242990207E+02  0.51100000000E-03 0.  1.
         12    1    3    3    0    0 -0.26102252157E+00  0.40497032093E+01  0.18695060874E+02  0.19130434651E+02  0.00000000000E+00 0. -1.
</event>
<event>
 7    1  0.3383281E-011  0.5052886E+02  0.7816164E-02  0.1300439E+00
        -11   -1    0    0    0    0  0.00000000000E+00  0.00000000000E+00  0.45593999997E+02  0.45594000000E+02  0.51100000000E-03 0. -1.
         11   -1    0    0    0    0 -0.00000000000E+00 -0.00000000000E+00 -0.45593999997E+02  0.45594000000E+02  0.51100000000E-03 0.  1.
    9900012    2    1    2    0    0  0.15734404905E+02 -0.25085642061E+02 -0.27862243635E+02  0.50528861351E+02  0.30000004562E+02 0.  0.
         12    1    1    2    0    0 -0.15734404905E+02  0.25085642061E+02  0.27862243635E+02  0.40659138649E+02  0.00000000000E+00 0. -1.
         11    1    3    3    0    0  0.10668470377E+02 -0.79699672601E+01 -0.11966935853E+02  0.17903747995E+02  0.51100000000E-03 0. -1.
        -11    1    3    3    0    0  0.13818296908E+02 -0.11401445269E+02 -0.85549079278E+01  0.19852574986E+02  0.51100000000E-03 0.  1.
         12    1    3    3    0    0 -0.87523623805E+01 -0.57142295321E+01 -0.73403998536E+01  0.12772538369E+02  0.00000000000E+00 0. -1.
</event>
<event>
 7    1  0.3383281E-011  0.5052899E+02  0.7816164E-02  0.1300438E+00
        -11   -1    0    0    0    0  0.00000000000E+00  0.00000000000E+00  0.45593999997E+02  0.45594000000E+02  0.51100000000E-03 0. -1.
         11   -1    0    0    0    0 -0.00000000000E+00 -0.00000000000E+00 -0.45593999997E+02  0.45594000000E+02  0.51100000000E-03 0.  1.
    9900012    2    1    2    0    0 -0.39004494813E+01  0.71271982012E+01 -0.39838988603E+02  0.50528985339E+02  0.30000381433E+02 0.  0.
         12    1    1    2    0    0  0.39004494813E+01 -0.71271982012E+01  0.39838988603E+02  0.40659014661E+02  0.00000000000E+00 0. -1.
         11    1    3    3    0    0  0.58258055522E+01 -0.58967656146E+01 -0.68102339884E+01  0.10728053984E+02  0.51100000000E-03 0. -1.
        -11    1    3    3    0    0 -0.21583785079E+01 -0.27434657133E+01 -0.16140036043E+01  0.38458041811E+01  0.51100000000E-03 0.  1.
        -12    1    3    3    0    0 -0.75678765256E+01  0.15767429529E+02 -0.31414751010E+02  0.35955127174E+02  0.00000000000E+00 0.  1.
</event>
<event>
 7    1  0.3383281E-011  0.5052886E+02  0.7816164E-02  0.1300439E+00
        -11   -1    0    0    0    0  0.00000000000E+00  0.00000000000E+00  0.45593999997E+02  0.45594000000E+02  0.51100000000E-03 0. -1.
         11   -1    0    0    0    0 -0.00000000000E+00 -0.00000000000E+00 -0.45593999997E+02  0.45594000000E+02  0.51100000000E-03 0.  1.
    9900012    2    1    2    0    0  0.39516114014E+02  0.94805435638E+01  0.13273909357E+01  0.50528856628E+02  0.29999990207E+02 0.  0.
         12    1    1    2    0    0 -0.39516114014E+02 -0.94805435638E+01 -0.13273909357E+01  0.40659143372E+02  0.00000000000E+00 0. -1.
         11    1    3    3    0    0  0.46056591366E+01 -0.90115378798E-01  0.29313108771E+01  0.54601099424E+01  0.51100000000E-03 0. -1.
        -11    1    3    3    0    0  0.38763575068E+02  0.51737247555E+01 -0.45152336689E+00  0.39109922699E+02  0.51100000000E-03 0.  1.
         12    1    3    3    0    0 -0.38531201903E+01  0.43969341871E+01 -0.11523965745E+01  0.59588239873E+01  0.00000000000E+00 0. -1.
</event>
<event>
 7    1  0.3383281E-011  0.5052886E+02  0.7816164E-02  0.1300439E+00
        -11   -1    0    0    0    0  0.00000000000E+00  0.00000000000E+00  0.45593999997E+02  0.45594000000E+02  0.51100000000E-03 0.  1.
         11   -1    0    0    0    0 -0.00000000000E+00 -0.00000000000E+00 -0.45593999997E+02  0.45594000000E+02  0.51100000000E-03 0. -1.
    9900012    2    1    2    0    0  0.54324587178E+00 -0.93625998907E+01  0.39562760568E+02  0.50528863062E+02  0.30000009764E+02 0.  0.
         12    1    1    2    0    0 -0.54324587178E+00  0.93625998907E+01 -0.39562760568E+02  0.40659136938E+02  0.00000000000E+00 0. -1.
         11    1    3    3    0    0  0.41826144524E+01 -0.32119356746E+01  0.51797950241E+01  0.73919599017E+01  0.51100000000E-03 0. -1.
        -11    1    3    3    0    0  0.85801161754E+01 -0.17769687661E+01  0.31440713323E+01  0.93091995565E+01  0.51100000000E-03 0.  1.
         12    1    3    3    0    0 -0.12219484756E+02 -0.43736954500E+01  0.31238894211E+02  0.33827703604E+02  0.00000000000E+00 0. -1.
</event>
<event>
 7    1  0.3383281E-011  0.5052884E+02  0.7816164E-02  0.1300439E+00
        -11   -1    0    0    0    0  0.00000000000E+00  0.00000000000E+00  0.45593999997E+02  0.45594000000E+02  0.51100000000E-03 0. -1.
         11   -1    0    0    0    0 -0.00000000000E+00 -0.00000000000E+00 -0.45593999997E+02  0.45594000000E+02  0.51100000000E-03 0.  1.
    9900012    2    1    2    0    0  0.23497568289E+01 -0.39089663638E+02 -0.10938187419E+02  0.50528842304E+02  0.29999946667E+02 0.  0.
         12    1    1    2    0    0 -0.23497568289E+01  0.39089663638E+02  0.10938187419E+02  0.40659157696E+02  0.00000000000E+00 0. -1.
         11    1    3    3    0    0 -0.16170300869E+01  0.75006005104E+00  0.19309856070E+01  0.26279425522E+01  0.51100000000E-03 0. -1.
        -11    1    3    3    0    0 -0.21551073729E+01 -0.38547636770E+01 -0.10419523379E+02  0.11316808672E+02  0.51100000000E-03 0.  1.
        -12    1    3    3    0    0  0.61218942888E+01 -0.35984960012E+02 -0.24496496471E+01  0.36584091080E+02  0.00000000000E+00 0.  1.
</event>
<event>
 7    1  0.3383281E-011  0.5052886E+02  0.7816164E-02  0.1300439E+00
        -11   -1    0    0    0    0  0.00000000000E+00  0.00000000000E+00  0.45593999997E+02  0.45594000000E+02  0.51100000000E-03 0. -1.
         11   -1    0    0    0    0 -0.00000000000E+00 -0.00000000000E+00 -0.45593999997E+02  0.45594000000E+02  0.51100000000E-03 0.  1.
    9900012    2    1    2    0    0 -0.52172491107E+01 -0.31732007432E+02 -0.24880223315E+02  0.50528862083E+02  0.30000006787E+02 0.  0.
         12    1    1    2    0    0  0.52172491107E+01  0.31732007432E+02  0.24880223315E+02  0.40659137917E+02  0.00000000000E+00 0. -1.
         11    1    3    3    0    0 -0.34265740368E+01  0.54247522450E-01 -0.13160760701E+02  0.13599631425E+02  0.51100000000E-03 0. -1.
        -11    1    3    3    0    0 -0.37838674519E+01 -0.40125816836E+01 -0.66278157548E+01  0.86224362336E+01  0.51100000000E-03 0.  1.
         12    1    3    3    0    0  0.19931923780E+01 -0.27773673271E+02 -0.50916468597E+01  0.28306794424E+02  0.00000000000E+00 0. -1.
</event>
<event>
 7    1  0.3383281E-011  0.5052885E+02  0.7816164E-02  0.1300439E+00
        -11   -1    0    0    0    0  0.00000000000E+00  0.00000000000E+00  0.45593999997E+02  0.45594000000E+02  0.51100000000E-03 0. -1.
         11   -1    0    0    0    0 -0.00000000000E+00 -0.00000000000E+00 -0.45593999997E+02  0.45594000000E+02  0.51100000000E-03 0.  1.
    9900012    2    1    2    0    0  0.27334551166E+02  0.92605826572E+00 -0.30085404765E+02  0.50528845418E+02  0.29999956134E+02 0.  0.
         12    1    1    2    0    0 -0.27334551166E+02 -0.92605826572E+00  0.30085404765E+02  0.40659154582E+02  0.00000000000E+00 0. -1.
         11    1    3    3    0    0  0.11276003004E+02  0.96624599181E+01 -0.18315372905E+02  0.23578894383E+02  0.51100000000E-03 0. -1.
        -11    1    3    3    0    0  0.16685628704E+02 -0.14112967925E+01 -0.95162764251E+01  0.19260360359E+02  0.51100000000E-03 0.  1.
         12    1    3    3    0    0 -0.62708054161E+00 -0.73251048598E+01 -0.22537554351E+01  0.76895906766E+01  0.00000000000E+00 0. -1.
</event>
<event>
 7    1  0.3383281E-011  0.5052886E+02  0.7816164E-02  0.1300439E+00
        -11   -1    0    0    0    0  0.00000000000E+00  0.00000000000E+00  0.45593999997E+02  0.45594000000E+02  0.51100000000E-03 0.  1.
         11   -1    0    0    0    0 -0.00000000000E+00 -0.00000000000E+00 -0.45593999997E+02  0.45594000000E+02  0.51100000000E-03 0. -1.
    9900012    2    1    2    0    0  0.89597766627E+01  0.36391792313E+02  0.15764693152E+02  0.50528859629E+02  0.29999999327E+02 0.  0.
         12    1    1    2    0    0 -0.89597766627E+01 -0.36391792313E+02 -0.15764693152E+02  0.40659140371E+02  0.00000000000E+00 0. -1.
         11    1    3    3    0    0  0.28569890825E+01  0.19397636052E+01  0.11036046352E+01  0.36253293524E+01  0.51100000000E-03 0. -1.
        -11    1    3    3    0    0  0.98710915178E+01  0.34380896432E+02  0.19523773416E+02  0.40751223489E+02  0.51100000000E-03 0.  1.
         12    1    3    3    0    0 -0.37683039376E+01  0.71132275595E-01 -0.48626848996E+01  0.61523067868E+01  0.00000000000E+00 0. -1.
</event>
<event>
 7    1  0.3383281E-011  0.5052900E+02  0.7816164E-02  0.1300438E+00
        -11   -1    0    0    0    0  0.00000000000E+00  0.00000000000E+00  0.45593999997E+02  0.45594000000E+02  0.51100000000E-03 0.  1.
         11   -1    0    0    0    0 -0.00000000000E+00 -0.00000000000E+00 -0.45593999997E+02  0.45594000000E+02  0.51100000000E-03 0. -1.
    9900012    2    1    2    0    0 -0.37282980535E+02 -0.15964489865E+02  0.28755031086E+01  0.50529002320E+02  0.30000433048E+02 0.  0.
         12    1    1    2    0    0  0.37282980535E+02  0.15964489865E+02 -0.28755031086E+01  0.40658997680E+02  0.00000000000E+00 0. -1.
         11    1    3    3    0    0  0.19624422293E+01  0.28269855172E+01  0.18833703669E+01  0.39230231733E+01  0.51100000000E-03 0. -1.
        -11    1    3    3    0    0 -0.16807929267E+02 -0.17158713465E+02 -0.84573956638E+00  0.24034209155E+02  0.51100000000E-03 0.  1.
        -12    1    3    3    0    0 -0.22437493497E+02 -0.16327619166E+01  0.18378723081E+01  0.22571769991E+02  0.00000000000E+00 0.  1.
</event>
<event>
 7    1  0.3383281E-011  0.5052887E+02  0.7816164E-02  0.1300439E+00
        -11   -1    0    0    0    0  0.00000000000E+00  0.00000000000E+00  0.45593999997E+02  0.45594000000E+02  0.51100000000E-03 0.  1.
         11   -1    0    0    0    0 -0.00000000000E+00 -0.00000000000E+00 -0.45593999997E+02  0.45594000000E+02  0.51100000000E-03 0. -1.
    9900012    2    1    2    0    0 -0.33254810926E+02 -0.14604310172E+02  0.18275576045E+02  0.50528868122E+02  0.30000025142E+02 0.  0.
         12    1    1    2    0    0  0.33254810926E+02  0.14604310172E+02 -0.18275576045E+02  0.40659131878E+02  0.00000000000E+00 0. -1.
         11    1    3    3    0    0 -0.31508079279E+02 -0.50414624710E+01  0.17760444330E+02  0.36518608774E+02  0.51100000000E-03 0. -1.
        -11    1    3    3    0    0 -0.14833293801E+01 -0.21533920402E+01 -0.43975461035E+01  0.51162266684E+01  0.51100000000E-03 0.  1.
        -12    1    3    3    0    0 -0.26340226617E+00 -0.74094556611E+01  0.49126778191E+01  0.88940326794E+01  0.00000000000E+00 0.  1.
</event>
<event>
 7    1  0.3383281E-011  0.5052885E+02  0.7816164E-02  0.1300439E+00
        -11   -1    0    0    0    0  0.00000000000E+00  0.00000000000E+00  0.45593999997E+02  0.45594000000E+02  0.51100000000E-03 0. -1.
         11   -1    0    0    0    0 -0.00000000000E+00 -0.00000000000E+00 -0.45593999997E+02  0.45594000000E+02  0.51100000000E-03 0.  1.
    9900012    2    1    2    0    0  0.24682021443E+02  0.12509656999E+02 -0.29790476667E+02  0.50528853418E+02  0.29999980448E+02 0.  0.
         12    1    1    2    0    0 -0.24682021443E+02 -0.12509656999E+02  0.29790476667E+02  0.40659146582E+02  0.00000000000E+00 0. -1.
         11    1    3    3    0    0 -0.97414727618E+00 -0.31716457978E+00 -0.83031122279E+01  0.83660760943E+01  0.51100000000E-03 0. -1.
        -11    1    3    3    0    0  0.32255510851E+01  0.11582716500E+02 -0.15434159503E+01  0.12122113445E+02  0.51100000000E-03 0.  1.
        -12    1    3    3    0    0  0.22430617634E+02  0.12441050788E+01 -0.19943948489E+02  0.30040663878E+02  0.00000000000E+00 0.  1.
</event>
<event>
 7    1  0.3383281E-011  0.5052882E+02  0.7816164E-02  0.1300439E+00
        -11   -1    0    0    0    0  0.00000000000E+00  0.00000000000E+00  0.45593999997E+02  0.45594000000E+02  0.51100000000E-03 0.  1.
         11   -1    0    0    0    0 -0.00000000000E+00 -0.00000000000E+00 -0.45593999997E+02  0.45594000000E+02  0.51100000000E-03 0. -1.
    9900012    2    1    2    0    0 -0.39912932743E+02  0.75323063172E+01  0.18415274127E+01  0.50528818234E+02  0.29999873505E+02 0.  0.
         12    1    1    2    0    0  0.39912932743E+02 -0.75323063172E+01 -0.18415274127E+01  0.40659181766E+02  0.00000000000E+00 0. -1.
         11    1    3    3    0    0 -0.11022210446E+02  0.87859839112E+01 -0.45945959152E+01  0.14825415619E+02  0.51100000000E-03 0. -1.
        -11    1    3    3    0    0 -0.69717538643E+01  0.18599839539E+01 -0.67954194081E+01  0.99117413932E+01  0.51100000000E-03 0.  1.
        -12    1    3    3    0    0 -0.21918968433E+02 -0.31136615479E+01  0.13231542736E+02  0.25791661222E+02  0.00000000000E+00 0.  1.
</event>
<event>
 7    1  0.3383281E-011  0.5052886E+02  0.7816164E-02  0.1300439E+00
        -11   -1    0    0    0    0  0.00000000000E+00  0.00000000000E+00  0.45593999997E+02  0.45594000000E+02  0.51100000000E-03 0.  1.
         11   -1    0    0    0    0 -0.00000000000E+00 -0.00000000000E+00 -0.45593999997E+02  0.45594000000E+02  0.51100000000E-03 0. -1.
    9900012    2    1    2    0    0  0.29079999864E+02  0.14079139078E+02  0.24683947199E+02  0.50528858364E+02  0.29999995482E+02 0.  0.
         12    1    1    2    0    0 -0.29079999864E+02 -0.14079139078E+02 -0.24683947199E+02  0.40659141636E+02  0.00000000000E+00 0. -1.
         11    1    3    3    0    0  0.13364084404E+02 -0.65414820208E+01  0.80042111038E+01  0.16895476751E+02  0.51100000000E-03 0.  1.
        -11    1    3    3    0    0 -0.15211783246E+01  0.52480861591E+01  0.61276085806E+00  0.54983513855E+01  0.51100000000E-03 0. -1.
        -12    1    3    3    0    0  0.17237093785E+02  0.15372534940E+02  0.16066975237E+02  0.28135030228E+02  0.00000000000E+00 0.  1.
</event>
<event>
 7    1  0.3383281E-011  0.5052890E+02  0.7816164E-02  0.1300439E+00
        -11   -1    0    0    0    0  0.00000000000E+00  0.00000000000E+00  0.45593999997E+02  0.45594000000E+02  0.51100000000E-03 0.  1.
         11   -1    0    0    0    0 -0.00000000000E+00 -0.00000000000E+00 -0.45593999997E+02  0.45594000000E+02  0.51100000000E-03 0. -1.
    9900012    2    1    2    0    0 -0.18546148374E+02  0.23084667438E+02  0.27862181830E+02  0.50528896880E+02  0.30000112556E+02 0.  0.
         12    1    1    2    0    0  0.18546148374E+02 -0.23084667438E+02 -0.27862181830E+02  0.40659103120E+02  0.00000000000E+00 0. -1.
         11    1    3    3    0    0  0.31488384305E+00  0.15062774773E+01 -0.92111503471E+00  0.17934538861E+01  0.51100000000E-03 0. -1.
        -11    1    3    3    0    0  0.48096196772E+01  0.12182378873E+02  0.14486755004E+02  0.19529691940E+02  0.51100000000E-03 0.  1.
        -12    1    3    3    0    0 -0.23670651894E+02  0.93960110875E+01  0.14296541860E+02  0.29205751054E+02  0.00000000000E+00 0.  1.
</event>
<event>
 7    1  0.3383281E-011  0.5052886E+02  0.7816164E-02  0.1300439E+00
        -11   -1    0    0    0    0  0.00000000000E+00  0.00000000000E+00  0.45593999997E+02  0.45594000000E+02  0.51100000000E-03 0. -1.
         11   -1    0    0    0    0 -0.00000000000E+00 -0.00000000000E+00 -0.45593999997E+02  0.45594000000E+02  0.51100000000E-03 0.  1.
    9900012    2    1    2    0    0  0.14943104651E+02  0.37802850372E+02 -0.90203125734E+00  0.50528861626E+02  0.30000005399E+02 0.  0.
         12    1    1    2    0    0 -0.14943104651E+02 -0.37802850372E+02  0.90203125734E+00  0.40659138374E+02  0.00000000000E+00 0. -1.
         11    1    3    3    0    0 -0.30232707222E+00 -0.24873810495E+01  0.93782259102E-01  0.25074412291E+01  0.51100000000E-03 0. -1.
        -11    1    3    3    0    0  0.16179168788E+02  0.18031826385E+02 -0.64808282281E+01  0.25078145869E+02  0.51100000000E-03 0.  1.
         12    1    3    3    0    0 -0.93373706462E+00  0.22258405037E+02  0.54850147116E+01  0.22943274528E+02  0.00000000000E+00 0. -1.
</event>
<event>
 7    1  0.3383281E-011  0.5052886E+02  0.7816164E-02  0.1300439E+00
        -11   -1    0    0    0    0  0.00000000000E+00  0.00000000000E+00  0.45593999997E+02  0.45594000000E+02  0.51100000000E-03 0.  1.
         11   -1    0    0    0    0 -0.00000000000E+00 -0.00000000000E+00 -0.45593999997E+02  0.45594000000E+02  0.51100000000E-03 0. -1.
    9900012    2    1    2    0    0 -0.24015521178E+01  0.15677491725E+02  0.37438146263E+02  0.50528855949E+02  0.29999988142E+02 0.  0.
         12    1    1    2    0    0  0.24015521178E+01 -0.15677491725E+02 -0.37438146263E+02  0.40659144051E+02  0.00000000000E+00 0. -1.
         11    1    3    3    0    0 -0.32642297367E+01  0.13388449893E+02  0.11444970168E+02  0.17913490132E+02  0.51100000000E-03 0. -1.
        -11    1    3    3    0    0  0.72649629719E+01  0.40770974731E+01  0.24395566018E+02  0.25778790748E+02  0.51100000000E-03 0.  1.
         12    1    3    3    0    0 -0.64022853530E+01 -0.17880556410E+01  0.15976100762E+01  0.68365750688E+01  0.00000000000E+00 0. -1.
</event>
<event>
 7    1  0.3383281E-011  0.5052886E+02  0.7816164E-02  0.1300439E+00
        -11   -1    0    0    0    0  0.00000000000E+00  0.00000000000E+00  0.45593999997E+02  0.45594000000E+02  0.51100000000E-03 0. -1.
         11   -1    0    0    0    0 -0.00000000000E+00 -0.00000000000E+00 -0.45593999997E+02  0.45594000000E+02  0.51100000000E-03 0.  1.
    9900012    2    1    2    0    0 -0.86098005158E+01 -0.38705539012E+02  0.89954637752E+01  0.50528858547E+02  0.29999996040E+02 0.  0.
         12    1    1    2    0    0  0.86098005158E+01  0.38705539012E+02 -0.89954637752E+01  0.40659141453E+02  0.00000000000E+00 0. -1.
         11    1    3    3    0    0 -0.10575051039E+02 -0.28304888696E+01  0.20068425945E+01  0.11129725477E+02  0.51100000000E-03 0. -1.
        -11    1    3    3    0    0 -0.14395179662E+01  0.58272353171E+00 -0.10960517565E+01  0.19008178250E+01  0.51100000000E-03 0.  1.
         12    1    3    3    0    0  0.34047684896E+01 -0.36457773674E+02  0.80846729372E+01  0.37498315246E+02  0.00000000000E+00 0. -1.
</event>
<event>
 7    1  0.3383281E-011  0.5052881E+02  0.7816164E-02  0.1300439E+00
        -11   -1    0    0    0    0  0.00000000000E+00  0.00000000000E+00  0.45593999997E+02  0.45594000000E+02  0.51100000000E-03 0. -1.
         11   -1    0    0    0    0 -0.00000000000E+00 -0.00000000000E+00 -0.45593999997E+02  0.45594000000E+02  0.51100000000E-03 0.  1.
    9900012    2    1    2    0    0  0.27040690477E+01  0.36665143555E+02 -0.17364478524E+02  0.50528808472E+02  0.29999843831E+02 0.  0.
         12    1    1    2    0    0 -0.27040690477E+01 -0.36665143555E+02  0.17364478524E+02  0.40659191528E+02  0.00000000000E+00 0. -1.
         11    1    3    3    0    0  0.16509665352E+01  0.51802320813E+01  0.66742825022E+01  0.86085156733E+01  0.51100000000E-03 0. -1.
        -11    1    3    3    0    0  0.17611932884E+01 -0.75669406184E+00 -0.46202798398E+00  0.19717651538E+01  0.51100000000E-03 0.  1.
        -12    1    3    3    0    0 -0.70809077599E+00  0.32241605535E+02 -0.23576733042E+02  0.39948527645E+02  0.00000000000E+00 0.  1.
</event>
<event>
 7    1  0.3383281E-011  0.5052886E+02  0.7816164E-02  0.1300439E+00
        -11   -1    0    0    0    0  0.00000000000E+00  0.00000000000E+00  0.45593999997E+02  0.45594000000E+02  0.51100000000E-03 0.  1.
         11   -1    0    0    0    0 -0.00000000000E+00 -0.00000000000E+00 -0.45593999997E+02  0.45594000000E+02  0.51100000000E-03 0. -1.
    9900012    2    1    2    0    0  0.19388545876E+01 -0.19734251799E+02  0.35495996277E+02  0.50528860770E+02  0.30000002798E+02 0.  0.
         12    1    1    2    0    0 -0.19388545876E+01  0.19734251799E+02 -0.35495996277E+02  0.40659139230E+02  0.00000000000E+00 0. -1.
         11    1    3    3    0    0  0.32041005363E+01  0.16813280746E+01  0.11082635422E+02  0.11658384644E+02  0.51100000000E-03 0. -1.
        -11    1    3    3    0    0  0.58190990255E+01  0.47731053972E-01  0.11375131313E+02  0.12777237744E+02  0.51100000000E-03 0.  1.
        -12    1    3    3    0    0 -0.70843449742E+01 -0.21463310928E+02  0.13038229542E+02  0.26093238383E+02  0.00000000000E+00 0.  1.
</event>
<event>
 7    1  0.3383281E-011  0.5052886E+02  0.7816164E-02  0.1300439E+00
        -11   -1    0    0    0    0  0.00000000000E+00  0.00000000000E+00  0.45593999997E+02  0.45594000000E+02  0.51100000000E-03 0.  1.
         11   -1    0    0    0    0 -0.00000000000E+00 -0.00000000000E+00 -0.45593999997E+02  0.45594000000E+02  0.51100000000E-03 0. -1.
    9900012    2    1    2    0    0 -0.14388993688E+02 -0.35130593053E+02  0.14558974456E+02  0.50528862714E+02  0.30000008707E+02 0.  0.
         12    1    1    2    0    0  0.14388993688E+02  0.35130593053E+02 -0.14558974456E+02  0.40659137286E+02  0.00000000000E+00 0. -1.
         11    1    3    3    0    0 -0.35488141942E+01 -0.64155669234E+01 -0.52731446527E+01  0.90310373669E+01  0.51100000000E-03 0. -1.
        -11    1    3    3    0    0 -0.47301802655E+01 -0.92142197803E+01 -0.30709727140E+01  0.10803116457E+02  0.51100000000E-03 0.  1.
        -12    1    3    3    0    0 -0.61099992283E+01 -0.19500806349E+02  0.22903091823E+02  0.30694708891E+02  0.00000000000E+00 0.  1.
</event>
<event>
 7    1  0.3383281E-011  0.5052886E+02  0.7816164E-02  0.1300439E+00
        -11   -1    0    0    0    0  0.00000000000E+00  0.00000000000E+00  0.45593999997E+02  0.45594000000E+02  0.51100000000E-03 0.  1.
         11   -1    0    0    0    0 -0.00000000000E+00 -0.00000000000E+00 -0.45593999997E+02  0.45594000000E+02  0.51100000000E-03 0. -1.
    9900012    2    1    2    0    0 -0.86472679087E+00 -0.40350084973E+02 -0.49283383973E+01  0.50528860448E+02  0.30000001817E+02 0.  0.
         12    1    1    2    0    0  0.86472679087E+00  0.40350084973E+02  0.49283383973E+01  0.40659139552E+02  0.00000000000E+00 0. -1.
         11    1    3    3    0    0  0.39573544896E+01 -0.15848857631E+00  0.10967673882E+01  0.41095829654E+01  0.51100000000E-03 0. -1.
        -11    1    3    3    0    0 -0.41457700503E+00  0.26975833184E+00  0.43814134215E+01  0.44092434138E+01  0.51100000000E-03 0.  1.
         12    1    3    3    0    0 -0.44075042754E+01 -0.40461354729E+02 -0.10406519207E+02  0.42010034068E+02  0.00000000000E+00 0. -1.
</event>
<event>
 7    1  0.3383281E-011  0.5052886E+02  0.7816164E-02  0.1300439E+00
        -11   -1    0    0    0    0  0.00000000000E+00  0.00000000000E+00  0.45593999997E+02  0.45594000000E+02  0.51100000000E-03 0. -1.
         11   -1    0    0    0    0 -0.00000000000E+00 -0.00000000000E+00 -0.45593999997E+02  0.45594000000E+02  0.51100000000E-03 0.  1.
    9900012    2    1    2    0    0 -0.24650626162E+02 -0.17211715405E+02 -0.27372788567E+02  0.50528855010E+02  0.29999985288E+02 0.  0.
         12    1    1    2    0    0  0.24650626162E+02  0.17211715405E+02  0.27372788567E+02  0.40659144990E+02  0.00000000000E+00 0. -1.
         11    1    3    3    0    0 -0.13879782016E+02 -0.11615461265E+02 -0.38010161702E+01  0.18493647920E+02  0.51100000000E-03 0. -1.
        -11    1    3    3    0    0 -0.11133689964E+02 -0.10537088733E+02 -0.12066717399E+02  0.19508843129E+02  0.51100000000E-03 0.  1.
        -12    1    3    3    0    0  0.36284581791E+00  0.49408345927E+01 -0.11505054998E+02  0.12526363960E+02  0.00000000000E+00 0.  1.
</event>
<event>
 7    1  0.3383281E-011  0.5052887E+02  0.7816164E-02  0.1300439E+00
        -11   -1    0    0    0    0  0.00000000000E+00  0.00000000000E+00  0.45593999997E+02  0.45594000000E+02  0.51100000000E-03 0.  1.
         11   -1    0    0    0    0 -0.00000000000E+00 -0.00000000000E+00 -0.45593999997E+02  0.45594000000E+02  0.51100000000E-03 0. -1.
    9900012    2    1    2    0    0 -0.23507795962E+02  0.25915409074E+02 -0.20710865375E+02  0.50528870115E+02  0.30000031201E+02 0.  0.
         12    1    1    2    0    0  0.23507795962E+02 -0.25915409074E+02  0.20710865375E+02  0.40659129885E+02  0.00000000000E+00 0. -1.
         11    1    3    3    0    0 -0.46931854282E+01  0.15569577041E+02 -0.91863958017E+01  0.18676926589E+02  0.51100000000E-03 0. -1.
        -11    1    3    3    0    0 -0.12420773869E+02  0.96148814439E+01 -0.17184541159E+02  0.23281538261E+02  0.51100000000E-03 0.  1.
        -12    1    3    3    0    0 -0.63938366645E+01  0.73095058882E+00  0.56600715860E+01  0.85704052655E+01  0.00000000000E+00 0.  1.
</event>
<event>
 7    1  0.3383281E-011  0.5052887E+02  0.7816164E-02  0.1300439E+00
        -11   -1    0    0    0    0  0.00000000000E+00  0.00000000000E+00  0.45593999997E+02  0.45594000000E+02  0.51100000000E-03 0. -1.
         11   -1    0    0    0    0 -0.00000000000E+00 -0.00000000000E+00 -0.45593999997E+02  0.45594000000E+02  0.51100000000E-03 0.  1.
    9900012    2    1    2    0    0  0.13327429858E+02  0.19042667619E+01 -0.38365590953E+02  0.50528865876E+02  0.30000018316E+02 0.  0.
         12    1    1    2    0    0 -0.13327429858E+02 -0.19042667619E+01  0.38365590953E+02  0.40659134124E+02  0.00000000000E+00 0. -1.
         11    1    3    3    0    0 -0.14030209259E+01 -0.44092131142E+01 -0.14696595027E+02  0.15407775104E+02  0.51100000000E-03 0. -1.
        -11    1    3    3    0    0  0.12618227336E+02  0.14572497165E+00 -0.25411993509E+02  0.28372703629E+02  0.51100000000E-03 0.  1.
         12    1    3    3    0    0  0.21122234480E+01  0.61677549044E+01  0.17429975825E+01  0.67483871427E+01  0.00000000000E+00 0. -1.
</event>
<event>
 7    1  0.3383281E-011  0.5052887E+02  0.7816164E-02  0.1300439E+00
        -11   -1    0    0    0    0  0.00000000000E+00  0.00000000000E+00  0.45593999997E+02  0.45594000000E+02  0.51100000000E-03 0.  1.
         11   -1    0    0    0    0 -0.00000000000E+00 -0.00000000000E+00 -0.45593999997E+02  0.45594000000E+02  0.51100000000E-03 0. -1.
    9900012    2    1    2    0    0  0.11139820194E+02  0.18693112285E+02  0.34345837424E+02  0.50528873236E+02  0.30000040688E+02 0.  0.
         12    1    1    2    0    0 -0.11139820194E+02 -0.18693112285E+02 -0.34345837424E+02  0.40659126764E+02  0.00000000000E+00 0. -1.
         11    1    3    3    0    0  0.13161648184E+01 -0.67789831078E+01  0.61596106681E+01  0.92535239584E+01  0.51100000000E-03 0. -1.
        -11    1    3    3    0    0 -0.26935187628E+01  0.14851906057E+01  0.33537308577E+01  0.45506423049E+01  0.51100000000E-03 0.  1.
        -12    1    3    3    0    0  0.12517174139E+02  0.23986904788E+02  0.24832495898E+02  0.36724706973E+02  0.00000000000E+00 0.  1.
</event>
<event>
 7    1  0.3383281E-011  0.5052887E+02  0.7816164E-02  0.1300439E+00
        -11   -1    0    0    0    0  0.00000000000E+00  0.00000000000E+00  0.45593999997E+02  0.45594000000E+02  0.51100000000E-03 0. -1.
         11   -1    0    0    0    0 -0.00000000000E+00 -0.00000000000E+00 -0.45593999997E+02  0.45594000000E+02  0.51100000000E-03 0.  1.
    9900012    2    1    2    0    0  0.32020942106E+01  0.39882956758E+02  0.72292023574E+01  0.50528868015E+02  0.30000024818E+02 0.  0.
         12    1    1    2    0    0 -0.32020942106E+01 -0.39882956758E+02 -0.72292023574E+01  0.40659131985E+02  0.00000000000E+00 0. -1.
         11    1    3    3    0    0 -0.31266509651E+01  0.32842522262E+01  0.48351940606E+01  0.66288280116E+01  0.51100000000E-03 0. -1.
        -11    1    3    3    0    0  0.96747536627E+01  0.22439535482E+02  0.11213629871E+02  0.26886411182E+02  0.51100000000E-03 0.  1.
         12    1    3    3    0    0 -0.33460084869E+01  0.14159169049E+02 -0.88196215744E+01  0.17013628822E+02  0.00000000000E+00 0. -1.
</event>
<event>
 7    1  0.3383281E-011  0.5052886E+02  0.7816164E-02  0.1300439E+00
        -11   -1    0    0    0    0  0.00000000000E+00  0.00000000000E+00  0.45593999997E+02  0.45594000000E+02  0.51100000000E-03 0. -1.
         11   -1    0    0    0    0 -0.00000000000E+00 -0.00000000000E+00 -0.45593999997E+02  0.45594000000E+02  0.51100000000E-03 0.  1.
    9900012    2    1    2    0    0  0.14327172620E+02 -0.30582958233E+02 -0.22640247507E+02  0.50528855681E+02  0.29999987327E+02 0.  0.
         12    1    1    2    0    0 -0.14327172620E+02  0.30582958233E+02  0.22640247507E+02  0.40659144319E+02  0.00000000000E+00 0. -1.
         11    1    3    3    0    0  0.42597612740E+01  0.11254883348E+01 -0.89148107343E+01  0.99441510846E+01  0.51100000000E-03 0. -1.
        -11    1    3    3    0    0  0.73284179691E+01 -0.80465268260E+01 -0.12724019971E+02  0.16743744754E+02  0.51100000000E-03 0.  1.
         12    1    3    3    0    0  0.27389933765E+01 -0.23661919742E+02 -0.10014168018E+01  0.23840959843E+02  0.00000000000E+00 0. -1.
</event>
<event>
 7    1  0.3383281E-011  0.5052886E+02  0.7816164E-02  0.1300439E+00
        -11   -1    0    0    0    0  0.00000000000E+00  0.00000000000E+00  0.45593999997E+02  0.45594000000E+02  0.51100000000E-03 0.  1.
         11   -1    0    0    0    0 -0.00000000000E+00 -0.00000000000E+00 -0.45593999997E+02  0.45594000000E+02  0.51100000000E-03 0. -1.
    9900012    2    1    2    0    0  0.35633133591E+02 -0.91438291719E+01  0.17315772576E+02  0.50528858330E+02  0.29999995379E+02 0.  0.
         12    1    1    2    0    0 -0.35633133591E+02  0.91438291719E+01 -0.17315772576E+02  0.40659141670E+02  0.00000000000E+00 0. -1.
         11    1    3    3    0    0 -0.56466772566E-01  0.92084703897E+00  0.35751742274E+01  0.36922918063E+01  0.51100000000E-03 0. -1.
        -11    1    3    3    0    0  0.15643228688E+02 -0.56498307027E+01  0.19390465227E+02  0.25546454406E+02  0.51100000000E-03 0.  1.
         12    1    3    3    0    0  0.20046371676E+02 -0.44148455081E+01 -0.56498668783E+01  0.21290112117E+02  0.00000000000E+00 0. -1.
</event>
<event>
 7    1  0.3383281E-011  0.5052883E+02  0.7816164E-02  0.1300439E+00
        -11   -1    0    0    0    0  0.00000000000E+00  0.00000000000E+00  0.45593999997E+02  0.45594000000E+02  0.51100000000E-03 0.  1.
         11   -1    0    0    0    0 -0.00000000000E+00 -0.00000000000E+00 -0.45593999997E+02  0.45594000000E+02  0.51100000000E-03 0. -1.
    9900012    2    1    2    0    0 -0.36273135039E+01 -0.29174218493E+01  0.40391820412E+02  0.50528832403E+02  0.29999916572E+02 0.  0.
         12    1    1    2    0    0  0.36273135039E+01  0.29174218493E+01 -0.40391820412E+02  0.40659167597E+02  0.00000000000E+00 0. -1.
         11    1    3    3    0    0 -0.33629562388E+01  0.96974346215E+00  0.93444671538E+01  0.99784239084E+01  0.51100000000E-03 0.  1.
        -11    1    3    3    0    0 -0.53349242377E+01  0.64747420345E+01  0.11041382082E+01  0.84618450990E+01  0.51100000000E-03 0. -1.
         12    1    3    3    0    0  0.50705669726E+01 -0.10361907346E+02  0.29943215050E+02  0.32088563396E+02  0.00000000000E+00 0. -1.
</event>
<event>
 7    1  0.3383281E-011  0.5052886E+02  0.7816164E-02  0.1300439E+00
        -11   -1    0    0    0    0  0.00000000000E+00  0.00000000000E+00  0.45593999997E+02  0.45594000000E+02  0.51100000000E-03 0.  1.
         11   -1    0    0    0    0 -0.00000000000E+00 -0.00000000000E+00 -0.45593999997E+02  0.45594000000E+02  0.51100000000E-03 0. -1.
    9900012    2    1    2    0    0  0.23098601097E+02  0.30005494469E+02  0.14808464099E+02  0.50528859823E+02  0.29999999918E+02 0.  0.
         12    1    1    2    0    0 -0.23098601097E+02 -0.30005494469E+02 -0.14808464099E+02  0.40659140177E+02  0.00000000000E+00 0. -1.
         11    1    3    3    0    0  0.13805399868E+02  0.15536925197E+02 -0.11640841409E+01  0.20816824980E+02  0.51100000000E-03 0. -1.
        -11    1    3    3    0    0  0.13593324509E+02  0.11715435420E+02  0.67544117112E+01  0.19174252948E+02  0.51100000000E-03 0.  1.
         12    1    3    3    0    0 -0.43001232796E+01  0.27531338522E+01  0.92181365283E+01  0.10537781896E+02  0.00000000000E+00 0. -1.
</event>
<event>
 7    1  0.3383281E-011  0.5052885E+02  0.7816164E-02  0.1300439E+00
        -11   -1    0    0    0    0  0.00000000000E+00  0.00000000000E+00  0.45593999997E+02  0.45594000000E+02  0.51100000000E-03 0. -1.
         11   -1    0    0    0    0 -0.00000000000E+00 -0.00000000000E+00 -0.45593999997E+02  0.45594000000E+02  0.51100000000E-03 0.  1.
    9900012    2    1    2    0    0  0.31568962252E+01 -0.39153164867E+02 -0.10499040373E+02  0.50528853899E+02  0.29999981913E+02 0.  0.
         12    1    1    2    0    0 -0.31568962252E+01  0.39153164867E+02  0.10499040373E+02  0.40659146101E+02  0.00000000000E+00 0. -1.
         11    1    3    3    0    0  0.64335390379E+01 -0.12058814061E+02 -0.88363476028E+01  0.16275332879E+02  0.51100000000E-03 0. -1.
        -11    1    3    3    0    0 -0.10223891131E+02 -0.13359250909E+02 -0.66268129367E+01  0.18080713058E+02  0.51100000000E-03 0.  1.
         12    1    3    3    0    0  0.69472483184E+01 -0.13735099897E+02  0.49641201661E+01  0.16172807963E+02  0.00000000000E+00 0. -1.
</event>
<event>
 7    1  0.3383281E-011  0.5052891E+02  0.7816164E-02  0.1300439E+00
        -11   -1    0    0    0    0  0.00000000000E+00  0.00000000000E+00  0.45593999997E+02  0.45594000000E+02  0.51100000000E-03 0.  1.
         11   -1    0    0    0    0 -0.00000000000E+00 -0.00000000000E+00 -0.45593999997E+02  0.45594000000E+02  0.51100000000E-03 0. -1.
    9900012    2    1    2    0    0 -0.17142907109E+02  0.18603245397E+02  0.31830834113E+02  0.50528905029E+02  0.30000137327E+02 0.  0.
         12    1    1    2    0    0  0.17142907109E+02 -0.18603245397E+02 -0.31830834113E+02  0.40659094971E+02  0.00000000000E+00 0. -1.
         11    1    3    3    0    0  0.10234132528E+01 -0.31966971118E+01  0.26285800072E+00  0.33667999198E+01  0.51100000000E-03 0. -1.
        -11    1    3    3    0    0  0.27481750146E+01  0.10946017493E+02  0.12580367352E+02  0.16900692526E+02  0.51100000000E-03 0.  1.
        -12    1    3    3    0    0 -0.20914495377E+02  0.10853925016E+02  0.18987608761E+02  0.30261412584E+02  0.00000000000E+00 0.  1.
</event>
<event>
 7    1  0.3383281E-011  0.5052886E+02  0.7816164E-02  0.1300439E+00
        -11   -1    0    0    0    0  0.00000000000E+00  0.00000000000E+00  0.45593999997E+02  0.45594000000E+02  0.51100000000E-03 0.  1.
         11   -1    0    0    0    0 -0.00000000000E+00 -0.00000000000E+00 -0.45593999997E+02  0.45594000000E+02  0.51100000000E-03 0. -1.
    9900012    2    1    2    0    0 -0.60092550596E+01  0.18058613960E+02  0.35929664091E+02  0.50528862697E+02  0.30000008655E+02 0.  0.
         12    1    1    2    0    0  0.60092550596E+01 -0.18058613960E+02 -0.35929664091E+02  0.40659137303E+02  0.00000000000E+00 0. -1.
         11    1    3    3    0    0 -0.52646236600E+01  0.10044831185E+02  0.65001154244E+01  0.13071587379E+02  0.51100000000E-03 0. -1.
        -11    1    3    3    0    0  0.77968201508E+01  0.10457460665E+02  0.11259236020E+02  0.17231345973E+02  0.51100000000E-03 0.  1.
         12    1    3    3    0    0 -0.85414515505E+01 -0.24436778898E+01  0.18170312647E+02  0.20225929346E+02  0.00000000000E+00 0. -1.
</event>
<event>
 7    1  0.3383281E-011  0.5052885E+02  0.7816164E-02  0.1300439E+00
        -11   -1    0    0    0    0  0.00000000000E+00  0.00000000000E+00  0.45593999997E+02  0.45594000000E+02  0.51100000000E-03 0. -1.
         11   -1    0    0    0    0 -0.00000000000E+00 -0.00000000000E+00 -0.45593999997E+02  0.45594000000E+02  0.51100000000E-03 0.  1.
    9900012    2    1    2    0    0 -0.17663559973E+02  0.20042608248E+02 -0.30650597940E+02  0.50528847889E+02  0.29999963644E+02 0.  0.
         12    1    1    2    0    0  0.17663559973E+02 -0.20042608248E+02  0.30650597940E+02  0.40659152111E+02  0.00000000000E+00 0. -1.
         11    1    3    3    0    0  0.65931270331E+01  0.44811238761E+01 -0.34132381462E+01  0.86717927888E+01  0.51100000000E-03 0. -1.
        -11    1    3    3    0    0 -0.32234493137E+01  0.69563251024E+01 -0.20568830665E+01  0.79380005429E+01  0.51100000000E-03 0.  1.
        -12    1    3    3    0    0 -0.21033237693E+02  0.86051592696E+01 -0.25180476727E+02  0.33919054557E+02  0.00000000000E+00 0.  1.
</event>
<event>
 7    1  0.3383281E-011  0.5052886E+02  0.7816164E-02  0.1300439E+00
        -11   -1    0    0    0    0  0.00000000000E+00  0.00000000000E+00  0.45593999997E+02  0.45594000000E+02  0.51100000000E-03 0.  1.
         11   -1    0    0    0    0 -0.00000000000E+00 -0.00000000000E+00 -0.45593999997E+02  0.45594000000E+02  0.51100000000E-03 0. -1.
    9900012    2    1    2    0    0  0.76298433224E+01 -0.13730832621E+02  0.37502210494E+02  0.50528855081E+02  0.29999985505E+02 0.  0.
         12    1    1    2    0    0 -0.76298433224E+01  0.13730832621E+02 -0.37502210494E+02  0.40659144919E+02  0.00000000000E+00 0. -1.
         11    1    3    3    0    0  0.53437521487E+01 -0.98267032145E+01  0.10325394422E+02  0.15222797158E+02  0.51100000000E-03 0. -1.
        -11    1    3    3    0    0  0.24627349313E+01 -0.29071126261E+01  0.31060114075E+02  0.31292923381E+02  0.51100000000E-03 0.  1.
        -12    1    3    3    0    0 -0.17664375758E+00 -0.99701678041E+00 -0.38832980023E+01  0.40131345420E+01  0.00000000000E+00 0.  1.
</event>
<event>
 7    1  0.3383281E-011  0.5052886E+02  0.7816164E-02  0.1300439E+00
        -11   -1    0    0    0    0  0.00000000000E+00  0.00000000000E+00  0.45593999997E+02  0.45594000000E+02  0.51100000000E-03 0.  1.
         11   -1    0    0    0    0 -0.00000000000E+00 -0.00000000000E+00 -0.45593999997E+02  0.45594000000E+02  0.51100000000E-03 0. -1.
    9900012    2    1    2    0    0  0.18048997780E+02  0.70294204174E+01  0.35748936451E+02  0.50528861671E+02  0.30000005536E+02 0.  0.
         12    1    1    2    0    0 -0.18048997780E+02 -0.70294204174E+01 -0.35748936451E+02  0.40659138329E+02  0.00000000000E+00 0. -1.
         11    1    3    3    0    0  0.13842816909E+02  0.91017923097E+00  0.35306345583E+01  0.14314935796E+02  0.51100000000E-03 0. -1.
        -11    1    3    3    0    0  0.73464833585E+00 -0.42216997936E+00 -0.14833170018E+01  0.17082638139E+01  0.51100000000E-03 0.  1.
        -12    1    3    3    0    0  0.34715325356E+01  0.65414111658E+01  0.33701618894E+02  0.34505662061E+02  0.00000000000E+00 0.  1.
</event>
<event>
 7    1  0.3383281E-011  0.5052885E+02  0.7816164E-02  0.1300439E+00
        -11   -1    0    0    0    0  0.00000000000E+00  0.00000000000E+00  0.45593999997E+02  0.45594000000E+02  0.51100000000E-03 0.  1.
         11   -1    0    0    0    0 -0.00000000000E+00 -0.00000000000E+00 -0.45593999997E+02  0.45594000000E+02  0.51100000000E-03 0. -1.
    9900012    2    1    2    0    0  0.39955420119E+02 -0.43513656338E+01  0.61478644838E+01  0.50528853213E+02  0.29999979826E+02 0.  0.
         12    1    1    2    0    0 -0.39955420119E+02  0.43513656338E+01 -0.61478644838E+01  0.40659146787E+02  0.00000000000E+00 0. -1.
         11    1    3    3    0    0  0.19319120157E+02 -0.45393744959E+01 -0.89065232241E+01  0.21752252312E+02  0.51100000000E-03 0.  1.
        -11    1    3    3    0    0  0.57672348202E+00  0.33118313173E+00 -0.22114790827E+01  0.23093142349E+01  0.51100000000E-03 0. -1.
        -12    1    3    3    0    0  0.20059576480E+02 -0.14317426962E+00  0.17265866791E+02  0.26467286666E+02  0.00000000000E+00 0.  1.
</event>
<event>
 7    1  0.3383281E-011  0.5052886E+02  0.7816164E-02  0.1300439E+00
        -11   -1    0    0    0    0  0.00000000000E+00  0.00000000000E+00  0.45593999997E+02  0.45594000000E+02  0.51100000000E-03 0.  1.
         11   -1    0    0    0    0 -0.00000000000E+00 -0.00000000000E+00 -0.45593999997E+02  0.45594000000E+02  0.51100000000E-03 0. -1.
    9900012    2    1    2    0    0  0.31734145021E+02 -0.24177152606E+02 -0.78469891014E+01  0.50528857039E+02  0.29999991456E+02 0.  0.
         12    1    1    2    0    0 -0.31734145021E+02  0.24177152606E+02  0.78469891014E+01  0.40659142961E+02  0.00000000000E+00 0. -1.
         11    1    3    3    0    0  0.16251552862E+02 -0.20475845735E+02  0.21872859761E+01  0.26232755273E+02  0.51100000000E-03 0. -1.
        -11    1    3    3    0    0  0.73447761080E+01 -0.84246422656E+01 -0.94982024309E+00  0.11217062545E+02  0.51100000000E-03 0.  1.
         12    1    3    3    0    0  0.81378160505E+01  0.47233353941E+01 -0.90844548343E+01  0.13079039221E+02  0.00000000000E+00 0. -1.
</event>
<event>
 7    1  0.3383281E-011  0.5052887E+02  0.7816164E-02  0.1300439E+00
        -11   -1    0    0    0    0  0.00000000000E+00  0.00000000000E+00  0.45593999997E+02  0.45594000000E+02  0.51100000000E-03 0.  1.
         11   -1    0    0    0    0 -0.00000000000E+00 -0.00000000000E+00 -0.45593999997E+02  0.45594000000E+02  0.51100000000E-03 0. -1.
    9900012    2    1    2    0    0  0.20702179249E+02 -0.23325634995E+02  0.26086388058E+02  0.50528866765E+02  0.30000021018E+02 0.  0.
         12    1    1    2    0    0 -0.20702179249E+02  0.23325634995E+02 -0.26086388058E+02  0.40659133235E+02  0.00000000000E+00 0. -1.
         11    1    3    3    0    0 -0.18021037453E+01 -0.53604041013E+01  0.24959735331E+01  0.61815365547E+01  0.51100000000E-03 0. -1.
        -11    1    3    3    0    0  0.23550293518E+01 -0.15246994029E+02  0.17039808969E+02  0.22986345515E+02  0.51100000000E-03 0.  1.
         12    1    3    3    0    0  0.20149253642E+02 -0.27182368640E+01  0.65506055556E+01  0.21360984695E+02  0.00000000000E+00 0. -1.
</event>
<event>
 7    1  0.5115603E-011  0.5052886E+02  0.7816164E-02  0.1300439E+00
        -11   -1    0    0    0    0  0.00000000000E+00  0.00000000000E+00  0.45593999997E+02  0.45594000000E+02  0.51100000000E-03 0.  1.
         11   -1    0    0    0    0 -0.00000000000E+00 -0.00000000000E+00 -0.45593999997E+02  0.45594000000E+02  0.51100000000E-03 0. -1.
    9900012    2    1    2    0    0 -0.20365521883E+02 -0.34393803979E+02  0.74483096364E+01  0.50528861419E+02  0.30000004769E+02 0.  0.
         12    1    1    2    0    0  0.20365521883E+02  0.34393803979E+02 -0.74483096364E+01  0.40659138581E+02  0.00000000000E+00 0. -1.
         11    1    3    3    0    0 -0.93593518904E+01  0.92913935538E-01  0.23610398030E+01  0.96530104123E+01  0.51100000000E-03 0. -1.
        -11    1    3    3    0    0 -0.13210714553E+02 -0.11646230770E+02  0.22580272448E+01  0.17755459933E+02  0.51100000000E-03 0.  1.
         12    1    3    3    0    0  0.22045445608E+01 -0.22840487145E+02  0.28292425886E+01  0.23120391073E+02  0.00000000000E+00 0. -1.
</event>
<event>
 7    1  0.3383281E-011  0.5052883E+02  0.7816164E-02  0.1300439E+00
        -11   -1    0    0    0    0  0.00000000000E+00  0.00000000000E+00  0.45593999997E+02  0.45594000000E+02  0.51100000000E-03 0.  1.
         11   -1    0    0    0    0 -0.00000000000E+00 -0.00000000000E+00 -0.45593999997E+02  0.45594000000E+02  0.51100000000E-03 0. -1.
    9900012    2    1    2    0    0 -0.25457848164E+02  0.27551438945E+02  0.15683893352E+02  0.50528827213E+02  0.29999900797E+02 0.  0.
         12    1    1    2    0    0  0.25457848164E+02 -0.27551438945E+02 -0.15683893352E+02  0.40659172787E+02  0.00000000000E+00 0. -1.
         11    1    3    3    0    0 -0.10594238112E+02  0.12651234458E+01  0.63696734079E+01  0.12426228635E+02  0.51100000000E-03 0. -1.
        -11    1    3    3    0    0  0.44980653117E+01  0.10304881912E+02  0.61010509322E+01  0.12792419845E+02  0.51100000000E-03 0.  1.
         12    1    3    3    0    0 -0.19361675363E+02  0.15981433587E+02  0.32131690118E+01  0.25310178733E+02  0.00000000000E+00 0. -1.
</event>
<event>
 7    1  0.3383281E-011  0.5052884E+02  0.7816164E-02  0.1300439E+00
        -11   -1    0    0    0    0  0.00000000000E+00  0.00000000000E+00  0.45593999997E+02  0.45594000000E+02  0.51100000000E-03 0.  1.
         11   -1    0    0    0    0 -0.00000000000E+00 -0.00000000000E+00 -0.45593999997E+02  0.45594000000E+02  0.51100000000E-03 0. -1.
    9900012    2    1    2    0    0  0.69406579174E+01 -0.49998374551E+01  0.39749168510E+02  0.50528837391E+02  0.29999931732E+02 0.  0.
         12    1    1    2    0    0 -0.69406579174E+01  0.49998374551E+01 -0.39749168510E+02  0.40659162609E+02  0.00000000000E+00 0. -1.
         11    1    3    3    0    0  0.13240989298E+00  0.36632885508E+01  0.10037780953E+02  0.10686171536E+02  0.51100000000E-03 0. -1.
        -11    1    3    3    0    0  0.42732593851E+01 -0.49383883208E+01  0.33392161180E+02  0.34024768236E+02  0.51100000000E-03 0.  1.
         12    1    3    3    0    0  0.25349886393E+01 -0.37247376852E+01 -0.36807736235E+01  0.58178976179E+01  0.00000000000E+00 0. -1.
</event>
<event>
 7    1  0.3383281E-011  0.5052886E+02  0.7816164E-02  0.1300439E+00
        -11   -1    0    0    0    0  0.00000000000E+00  0.00000000000E+00  0.45593999997E+02  0.45594000000E+02  0.51100000000E-03 0. -1.
         11   -1    0    0    0    0 -0.00000000000E+00 -0.00000000000E+00 -0.45593999997E+02  0.45594000000E+02  0.51100000000E-03 0.  1.
    9900012    2    1    2    0    0 -0.28523296143E+02  0.26216556201E+02  0.12340162693E+02  0.50528857643E+02  0.29999993292E+02 0.  0.
         12    1    1    2    0    0  0.28523296143E+02 -0.26216556201E+02 -0.12340162693E+02  0.40659142357E+02  0.00000000000E+00 0. -1.
         11    1    3    3    0    0 -0.31383232682E-01  0.20871825818E+01  0.56606914535E+01  0.60333029121E+01  0.51100000000E-03 0. -1.
        -11    1    3    3    0    0 -0.76121448947E+01  0.46699114218E+01 -0.83608298683E+01  0.12233409130E+02  0.51100000000E-03 0.  1.
        -12    1    3    3    0    0 -0.20879768016E+02  0.19459462197E+02  0.15040301108E+02  0.32262145601E+02  0.00000000000E+00 0.  1.
</event>
<event>
 7    1  0.3383281E-011  0.5052887E+02  0.7816164E-02  0.1300439E+00
        -11   -1    0    0    0    0  0.00000000000E+00  0.00000000000E+00  0.45593999997E+02  0.45594000000E+02  0.51100000000E-03 0.  1.
         11   -1    0    0    0    0 -0.00000000000E+00 -0.00000000000E+00 -0.45593999997E+02  0.45594000000E+02  0.51100000000E-03 0. -1.
    9900012    2    1    2    0    0  0.88437892464E+01  0.13383816897E+02  0.37360752901E+02  0.50528867935E+02  0.30000024574E+02 0.  0.
         12    1    1    2    0    0 -0.88437892464E+01 -0.13383816897E+02 -0.37360752901E+02  0.40659132065E+02  0.00000000000E+00 0. -1.
         11    1    3    3    0    0  0.97302780734E+01  0.10551868710E+02  0.11169657330E+02  0.18187399203E+02  0.51100000000E-03 0. -1.
        -11    1    3    3    0    0  0.84944937316E+00  0.10668839935E+02  0.12358695398E+02  0.16348793900E+02  0.51100000000E-03 0.  1.
        -12    1    3    3    0    0 -0.17359382002E+01 -0.78368917474E+01  0.13832400173E+02  0.15992674831E+02  0.00000000000E+00 0.  1.
</event>
<event>
 7    1  0.3383281E-011  0.5052886E+02  0.7816164E-02  0.1300439E+00
        -11   -1    0    0    0    0  0.00000000000E+00  0.00000000000E+00  0.45593999997E+02  0.45594000000E+02  0.51100000000E-03 0.  1.
         11   -1    0    0    0    0 -0.00000000000E+00 -0.00000000000E+00 -0.45593999997E+02  0.45594000000E+02  0.51100000000E-03 0. -1.
    9900012    2    1    2    0    0  0.20066828611E+01  0.30166411623E+02  0.27186881755E+02  0.50528859504E+02  0.29999998948E+02 0.  0.
         12    1    1    2    0    0 -0.20066828611E+01 -0.30166411623E+02 -0.27186881755E+02  0.40659140496E+02  0.00000000000E+00 0. -1.
         11    1    3    3    0    0  0.55904067615E+01  0.87545668387E+01  0.18943747889E+02  0.21604644701E+02  0.51100000000E-03 0. -1.
        -11    1    3    3    0    0 -0.49183096232E+01  0.14152369431E+02  0.13253348882E+02  0.20003264406E+02  0.51100000000E-03 0.  1.
         12    1    3    3    0    0  0.13345857228E+01  0.72594753536E+01 -0.50102150169E+01  0.89209503965E+01  0.00000000000E+00 0. -1.
</event>
<event>
 7    1  0.3383281E-011  0.5052886E+02  0.7816164E-02  0.1300439E+00
        -11   -1    0    0    0    0  0.00000000000E+00  0.00000000000E+00  0.45593999997E+02  0.45594000000E+02  0.51100000000E-03 0.  1.
         11   -1    0    0    0    0 -0.00000000000E+00 -0.00000000000E+00 -0.45593999997E+02  0.45594000000E+02  0.51100000000E-03 0. -1.
    9900012    2    1    2    0    0 -0.26303028902E+02  0.30600221944E+02  0.49942853305E+01  0.50528858366E+02  0.29999995489E+02 0.  0.
         12    1    1    2    0    0  0.26303028902E+02 -0.30600221944E+02 -0.49942853305E+01  0.40659141634E+02  0.00000000000E+00 0. -1.
         11    1    3    3    0    0 -0.30503364217E+01  0.87638538373E+01  0.11253957060E+02  0.14586337311E+02  0.51100000000E-03 0. -1.
        -11    1    3    3    0    0 -0.49175310273E+01  0.12949633753E+02  0.19245922347E+01  0.13984962684E+02  0.51100000000E-03 0.  1.
         12    1    3    3    0    0 -0.18335161453E+02  0.88867343542E+01 -0.81842639643E+01  0.21957558371E+02  0.00000000000E+00 0. -1.
</event>
<event>
 7    1  0.3383281E-011  0.5052886E+02  0.7816164E-02  0.1300439E+00
        -11   -1    0    0    0    0  0.00000000000E+00  0.00000000000E+00  0.45593999997E+02  0.45594000000E+02  0.51100000000E-03 0. -1.
         11   -1    0    0    0    0 -0.00000000000E+00 -0.00000000000E+00 -0.45593999997E+02  0.45594000000E+02  0.51100000000E-03 0.  1.
    9900012    2    1    2    0    0 -0.20395274724E+02  0.32615470398E+02  0.13169263475E+02  0.50528860304E+02  0.30000001379E+02 0.  0.
         12    1    1    2    0    0  0.20395274724E+02 -0.32615470398E+02 -0.13169263475E+02  0.40659139696E+02  0.00000000000E+00 0. -1.
         11    1    3    3    0    0 -0.82218976631E+01  0.22180299208E+02  0.14315435347E+02  0.27649538216E+02  0.51100000000E-03 0.  1.
        -11    1    3    3    0    0  0.22086241351E+01 -0.25852246023E+01  0.36763705932E+00  0.34200239887E+01  0.51100000000E-03 0. -1.
         12    1    3    3    0    0 -0.14382001197E+02  0.13020395793E+02 -0.15138089314E+01  0.19459298099E+02  0.00000000000E+00 0. -1.
</event>
<event>
 7    1  0.3383281E-011  0.5052886E+02  0.7816164E-02  0.1300439E+00
        -11   -1    0    0    0    0  0.00000000000E+00  0.00000000000E+00  0.45593999997E+02  0.45594000000E+02  0.51100000000E-03 0.  1.
         11   -1    0    0    0    0 -0.00000000000E+00 -0.00000000000E+00 -0.45593999997E+02  0.45594000000E+02  0.51100000000E-03 0. -1.
    9900012    2    1    2    0    0  0.17976248121E+02  0.34627220516E+02  0.11444465502E+02  0.50528859726E+02  0.29999999623E+02 0.  0.
         12    1    1    2    0    0 -0.17976248121E+02 -0.34627220516E+02 -0.11444465502E+02  0.40659140274E+02  0.00000000000E+00 0. -1.
         11    1    3    3    0    0 -0.14753461232E+01  0.40205676285E+01  0.42330196277E+01  0.60216331396E+01  0.51100000000E-03 0. -1.
        -11    1    3    3    0    0  0.24883531954E+02  0.24967833739E+02  0.91959912931E+01  0.36430058197E+02  0.51100000000E-03 0.  1.
        -12    1    3    3    0    0 -0.54319377091E+01  0.56388191493E+01 -0.19845454193E+01  0.80771683896E+01  0.00000000000E+00 0.  1.
</event>
<event>
 7    1  0.3383281E-011  0.5052886E+02  0.7816164E-02  0.1300439E+00
        -11   -1    0    0    0    0  0.00000000000E+00  0.00000000000E+00  0.45593999997E+02  0.45594000000E+02  0.51100000000E-03 0.  1.
         11   -1    0    0    0    0 -0.00000000000E+00 -0.00000000000E+00 -0.45593999997E+02  0.45594000000E+02  0.51100000000E-03 0. -1.
    9900012    2    1    2    0    0  0.11730384283E+02 -0.35491843924E+02  0.15996639100E+02  0.50528863720E+02  0.30000011764E+02 0.  0.
         12    1    1    2    0    0 -0.11730384283E+02  0.35491843924E+02 -0.15996639100E+02  0.40659136280E+02  0.00000000000E+00 0. -1.
         11    1    3    3    0    0  0.69000753417E+01  0.11435518765E+00  0.11839133312E+01  0.70018403200E+01  0.51100000000E-03 0. -1.
        -11    1    3    3    0    0  0.77124637167E+01 -0.96319409256E+01  0.12051226474E+02  0.17247853269E+02  0.51100000000E-03 0.  1.
        -12    1    3    3    0    0 -0.28821547757E+01 -0.25974258186E+02  0.27614992945E+01  0.26279170132E+02  0.00000000000E+00 0.  1.
</event>
<event>
 7    1  0.3383281E-011  0.5052885E+02  0.7816164E-02  0.1300439E+00
        -11   -1    0    0    0    0  0.00000000000E+00  0.00000000000E+00  0.45593999997E+02  0.45594000000E+02  0.51100000000E-03 0.  1.
         11   -1    0    0    0    0 -0.00000000000E+00 -0.00000000000E+00 -0.45593999997E+02  0.45594000000E+02  0.51100000000E-03 0. -1.
    9900012    2    1    2    0    0 -0.32243714578E+02 -0.24349301199E+02  0.45410126719E+01  0.50528851032E+02  0.29999973197E+02 0.  0.
         12    1    1    2    0    0  0.32243714578E+02  0.24349301199E+02 -0.45410126719E+01  0.40659148968E+02  0.00000000000E+00 0. -1.
         11    1    3    3    0    0 -0.79099087051E+01  0.50244819001E+01 -0.30258760945E+01  0.98472331387E+01  0.51100000000E-03 0. -1.
        -11    1    3    3    0    0 -0.10064826309E+02 -0.40513896563E+01  0.11023096595E+01  0.10905483649E+02  0.51100000000E-03 0.  1.
        -12    1    3    3    0    0 -0.14268979564E+02 -0.25322393443E+02  0.64645791069E+01  0.29776134244E+02  0.00000000000E+00 0.  1.
</event>
<event>
 7    1  0.3383281E-011  0.5052886E+02  0.7816164E-02  0.1300439E+00
        -11   -1    0    0    0    0  0.00000000000E+00  0.00000000000E+00  0.45593999997E+02  0.45594000000E+02  0.51100000000E-03 0.  1.
         11   -1    0    0    0    0 -0.00000000000E+00 -0.00000000000E+00 -0.45593999997E+02  0.45594000000E+02  0.51100000000E-03 0. -1.
    9900012    2    1    2    0    0 -0.69404408831E+01  0.13601607434E+02  0.37682789348E+02  0.50528855180E+02  0.29999985805E+02 0.  0.
         12    1    1    2    0    0  0.69404408831E+01 -0.13601607434E+02 -0.37682789348E+02  0.40659144820E+02  0.00000000000E+00 0. -1.
         11    1    3    3    0    0  0.16373856121E+00  0.59087585869E+00  0.14904417050E+02  0.14917023579E+02  0.51100000000E-03 0.  1.
        -11    1    3    3    0    0 -0.95788861795E+01  0.32057149365E+01  0.23393015769E+02  0.25480676124E+02  0.51100000000E-03 0. -1.
         12    1    3    3    0    0  0.24747067352E+01  0.98050166387E+01 -0.61464347067E+00  0.10131155477E+02  0.00000000000E+00 0. -1.
</event>
<event>
 7    1  0.3383281E-011  0.5052884E+02  0.7816164E-02  0.1300439E+00
        -11   -1    0    0    0    0  0.00000000000E+00  0.00000000000E+00  0.45593999997E+02  0.45594000000E+02  0.51100000000E-03 0.  1.
         11   -1    0    0    0    0 -0.00000000000E+00 -0.00000000000E+00 -0.45593999997E+02  0.45594000000E+02  0.51100000000E-03 0. -1.
    9900012    2    1    2    0    0 -0.40573709017E+02  0.16043570908E+01  0.20897545509E+01  0.50528844830E+02  0.29999954346E+02 0.  0.
         12    1    1    2    0    0  0.40573709017E+02 -0.16043570908E+01 -0.20897545509E+01  0.40659155170E+02  0.00000000000E+00 0. -1.
         11    1    3    3    0    0 -0.66362947314E+00  0.67410802535E+01 -0.35095462425E+00  0.67827528682E+01  0.51100000000E-03 0. -1.
        -11    1    3    3    0    0 -0.15385292843E+02 -0.47789017499E+01  0.88689586740E+01  0.18390311744E+02  0.51100000000E-03 0.  1.
         12    1    3    3    0    0 -0.24524786700E+02 -0.35782141282E+00 -0.64282494989E+01  0.25355780218E+02  0.00000000000E+00 0. -1.
</event>
<event>
 7    1  0.3383281E-011  0.5052886E+02  0.7816164E-02  0.1300439E+00
        -11   -1    0    0    0    0  0.00000000000E+00  0.00000000000E+00  0.45593999997E+02  0.45594000000E+02  0.51100000000E-03 0.  1.
         11   -1    0    0    0    0 -0.00000000000E+00 -0.00000000000E+00 -0.45593999997E+02  0.45594000000E+02  0.51100000000E-03 0. -1.
    9900012    2    1    2    0    0 -0.22260174267E+02 -0.33986410738E+02 -0.16043529434E+01  0.50528863000E+02  0.30000009574E+02 0.  0.
         12    1    1    2    0    0  0.22260174267E+02  0.33986410738E+02  0.16043529434E+01  0.40659137000E+02  0.00000000000E+00 0. -1.
         11    1    3    3    0    0 -0.29220481898E+01  0.17870382547E+01 -0.68631020676E+01  0.76703351686E+01  0.51100000000E-03 0. -1.
        -11    1    3    3    0    0 -0.37705990655E+01 -0.52189115414E+01 -0.36864966384E+01  0.74192124054E+01  0.51100000000E-03 0.  1.
        -12    1    3    3    0    0 -0.15567527011E+02 -0.30554537451E+02  0.89452457626E+01  0.35439315426E+02  0.00000000000E+00 0.  1.
</event>
<event>
 7    1  0.3383281E-011  0.5052884E+02  0.7816164E-02  0.1300439E+00
        -11   -1    0    0    0    0  0.00000000000E+00  0.00000000000E+00  0.45593999997E+02  0.45594000000E+02  0.51100000000E-03 0.  1.
         11   -1    0    0    0    0 -0.00000000000E+00 -0.00000000000E+00 -0.45593999997E+02  0.45594000000E+02  0.51100000000E-03 0. -1.
    9900012    2    1    2    0    0 -0.24467827596E+02  0.77224571332E+01  0.31541338926E+02  0.50528843680E+02  0.29999950848E+02 0.  0.
         12    1    1    2    0    0  0.24467827596E+02 -0.77224571332E+01 -0.31541338926E+02  0.40659156320E+02  0.00000000000E+00 0. -1.
         11    1    3    3    0    0 -0.10891977529E+02  0.43400113176E+01  0.88149453847E+01  0.14668815055E+02  0.51100000000E-03 0. -1.
        -11    1    3    3    0    0 -0.18228542138E+02  0.87697458456E+01  0.14009755747E+02  0.24606126210E+02  0.51100000000E-03 0.  1.
         12    1    3    3    0    0  0.46526920715E+01 -0.53873000299E+01  0.87166377942E+01  0.11253902415E+02  0.00000000000E+00 0. -1.
</event>
<event>
 7    1  0.3383281E-011  0.5052885E+02  0.7816164E-02  0.1300439E+00
        -11   -1    0    0    0    0  0.00000000000E+00  0.00000000000E+00  0.45593999997E+02  0.45594000000E+02  0.51100000000E-03 0.  1.
         11   -1    0    0    0    0 -0.00000000000E+00 -0.00000000000E+00 -0.45593999997E+02  0.45594000000E+02  0.51100000000E-03 0. -1.
    9900012    2    1    2    0    0  0.12913064729E+02 -0.21461666138E+02  0.32028359240E+02  0.50528854046E+02  0.29999982358E+02 0.  0.
         12    1    1    2    0    0 -0.12913064729E+02  0.21461666138E+02 -0.32028359240E+02  0.40659145954E+02  0.00000000000E+00 0. -1.
         11    1    3    3    0    0  0.94916238745E+01 -0.17022067265E+02  0.16681024898E+02  0.25653426470E+02  0.51100000000E-03 0. -1.
        -11    1    3    3    0    0  0.55979493955E+01 -0.63068495721E+01  0.18670126128E+02  0.20486263662E+02  0.51100000000E-03 0.  1.
         12    1    3    3    0    0 -0.21765085412E+01  0.18672506997E+01 -0.33227917856E+01  0.43891639131E+01  0.00000000000E+00 0. -1.
</event>
<event>
 7    1  0.3383281E-011  0.5052887E+02  0.7816164E-02  0.1300439E+00
        -11   -1    0    0    0    0  0.00000000000E+00  0.00000000000E+00  0.45593999997E+02  0.45594000000E+02  0.51100000000E-03 0.  1.
         11   -1    0    0    0    0 -0.00000000000E+00 -0.00000000000E+00 -0.45593999997E+02  0.45594000000E+02  0.51100000000E-03 0. -1.
    9900012    2    1    2    0    0  0.22094331978E+02 -0.24096561192E+02  0.24173569241E+02  0.50528865520E+02  0.30000017233E+02 0.  0.
         12    1    1    2    0    0 -0.22094331978E+02  0.24096561192E+02 -0.24173569241E+02  0.40659134480E+02  0.00000000000E+00 0. -1.
         11    1    3    3    0    0  0.34678936975E+01 -0.36659601986E+01  0.16839415545E+02  0.17579290857E+02  0.51100000000E-03 0. -1.
        -11    1    3    3    0    0 -0.13466584848E+01 -0.56387065523E+01  0.55595156644E+01  0.80322297864E+01  0.51100000000E-03 0.  1.
         12    1    3    3    0    0  0.19973096765E+02 -0.14791894441E+02  0.17746380324E+01  0.24917344877E+02  0.00000000000E+00 0. -1.
</event>
<event>
 7    1  0.3383281E-011  0.5052887E+02  0.7816164E-02  0.1300439E+00
        -11   -1    0    0    0    0  0.00000000000E+00  0.00000000000E+00  0.45593999997E+02  0.45594000000E+02  0.51100000000E-03 0.  1.
         11   -1    0    0    0    0 -0.00000000000E+00 -0.00000000000E+00 -0.45593999997E+02  0.45594000000E+02  0.51100000000E-03 0. -1.
    9900012    2    1    2    0    0  0.27227281817E+02 -0.10943916682E+02  0.28143755278E+02  0.50528866357E+02  0.30000019777E+02 0.  0.
         12    1    1    2    0    0 -0.27227281817E+02  0.10943916682E+02 -0.28143755278E+02  0.40659133643E+02  0.00000000000E+00 0. -1.
         11    1    3    3    0    0  0.26699162870E+02 -0.62188481698E+01  0.21648835181E+02  0.34931238676E+02  0.51100000000E-03 0.  1.
        -11    1    3    3    0    0  0.31287317571E+01 -0.52047997492E+01 -0.22387898733E+01  0.64723321295E+01  0.51100000000E-03 0. -1.
         12    1    3    3    0    0 -0.26006128097E+01  0.47973123700E+00  0.87337099699E+01  0.91252955506E+01  0.00000000000E+00 0. -1.
</event>
<event>
 7    1  0.3383281E-011  0.5052891E+02  0.7816164E-02  0.1300439E+00
        -11   -1    0    0    0    0  0.00000000000E+00  0.00000000000E+00  0.45593999997E+02  0.45594000000E+02  0.51100000000E-03 0. -1.
         11   -1    0    0    0    0 -0.00000000000E+00 -0.00000000000E+00 -0.45593999997E+02  0.45594000000E+02  0.51100000000E-03 0.  1.
    9900012    2    1    2    0    0 -0.78474487249E+01  0.19869142026E+02 -0.34594739718E+02  0.50528914023E+02  0.30000164663E+02 0.  0.
         12    1    1    2    0    0  0.78474487249E+01 -0.19869142026E+02  0.34594739718E+02  0.40659085977E+02  0.00000000000E+00 0. -1.
         11    1    3    3    0    0 -0.67043008554E+01  0.16375539478E+02 -0.31370168039E+02  0.36016570995E+02  0.51100000000E-03 0. -1.
        -11    1    3    3    0    0  0.94810804116E-01  0.31338088162E+01 -0.85114617982E+01  0.90705418244E+01  0.51100000000E-03 0.  1.
         12    1    3    3    0    0 -0.12379586736E+01  0.35979373135E+00  0.52868901191E+01  0.54418012035E+01  0.00000000000E+00 0. -1.
</event>
<event>
 7    1  0.3383281E-011  0.5052876E+02  0.7816164E-02  0.1300439E+00
        -11   -1    0    0    0    0  0.00000000000E+00  0.00000000000E+00  0.45593999997E+02  0.45594000000E+02  0.51100000000E-03 0.  1.
         11   -1    0    0    0    0 -0.00000000000E+00 -0.00000000000E+00 -0.45593999997E+02  0.45594000000E+02  0.51100000000E-03 0. -1.
    9900012    2    1    2    0    0 -0.20950609909E+02 -0.15815461135E+02  0.31050237264E+02  0.50528756271E+02  0.29999685160E+02 0.  0.
         12    1    1    2    0    0  0.20950609909E+02  0.15815461135E+02 -0.31050237264E+02  0.40659243729E+02  0.00000000000E+00 0. -1.
         11    1    3    3    0    0 -0.22838285175E+00 -0.59146880546E+01  0.30295953736E+01  0.66493715416E+01  0.51100000000E-03 0. -1.
        -11    1    3    3    0    0 -0.17932495148E+02 -0.17809395538E+02  0.22511356759E+02  0.33845385728E+02  0.51100000000E-03 0.  1.
         12    1    3    3    0    0 -0.27897319088E+01  0.79086224579E+01  0.55092851310E+01  0.10033999001E+02  0.00000000000E+00 0. -1.
</event>
<event>
 7    1  0.3383281E-011  0.5052885E+02  0.7816164E-02  0.1300439E+00
        -11   -1    0    0    0    0  0.00000000000E+00  0.00000000000E+00  0.45593999997E+02  0.45594000000E+02  0.51100000000E-03 0.  1.
         11   -1    0    0    0    0 -0.00000000000E+00 -0.00000000000E+00 -0.45593999997E+02  0.45594000000E+02  0.51100000000E-03 0. -1.
    9900012    2    1    2    0    0 -0.18306621954E+02 -0.14942964241E+02  0.33086884810E+02  0.50528849319E+02  0.29999967989E+02 0.  0.
         12    1    1    2    0    0  0.18306621954E+02  0.14942964241E+02 -0.33086884810E+02  0.40659150681E+02  0.00000000000E+00 0. -1.
         11    1    3    3    0    0  0.25324909916E+01  0.73741973077E+00  0.66193633275E+01  0.71255364433E+01  0.51100000000E-03 0. -1.
        -11    1    3    3    0    0  0.10797098923E+01 -0.11352085749E+02  0.13098454595E+02  0.17366782585E+02  0.51100000000E-03 0.  1.
         12    1    3    3    0    0 -0.21918822838E+02 -0.43282982226E+01  0.13369066888E+02  0.26036530290E+02  0.00000000000E+00 0. -1.
</event>
<event>
 7    1  0.3383281E-011  0.5052889E+02  0.7816164E-02  0.1300439E+00
        -11   -1    0    0    0    0  0.00000000000E+00  0.00000000000E+00  0.45593999997E+02  0.45594000000E+02  0.51100000000E-03 0. -1.
         11   -1    0    0    0    0 -0.00000000000E+00 -0.00000000000E+00 -0.45593999997E+02  0.45594000000E+02  0.51100000000E-03 0.  1.
    9900012    2    1    2    0    0  0.24216738056E+02  0.29817001784E+02  0.13328899253E+02  0.50528885982E+02  0.30000079431E+02 0.  0.
         12    1    1    2    0    0 -0.24216738056E+02 -0.29817001784E+02 -0.13328899253E+02  0.40659114018E+02  0.00000000000E+00 0. -1.
         11    1    3    3    0    0  0.51633925786E+01  0.10438930353E+01  0.15270966323E+00  0.52700717350E+01  0.51100000000E-03 0. -1.
        -11    1    3    3    0    0  0.17422214145E+02  0.37407662296E+01  0.24912191572E+01  0.17992583218E+02  0.51100000000E-03 0.  1.
        -12    1    3    3    0    0  0.16311313321E+01  0.25032342519E+02  0.10684970432E+02  0.27266231029E+02  0.00000000000E+00 0.  1.
</event>
<event>
 7    1  0.3554131E-011  0.5052886E+02  0.7816164E-02  0.1300439E+00
        -11   -1    0    0    0    0  0.00000000000E+00  0.00000000000E+00  0.45593999997E+02  0.45594000000E+02  0.51100000000E-03 0. -1.
         11   -1    0    0    0    0 -0.00000000000E+00 -0.00000000000E+00 -0.45593999997E+02  0.45594000000E+02  0.51100000000E-03 0.  1.
    9900012    2    1    2    0    0  0.96880167905E+01  0.38138233133E+02  0.10236349119E+02  0.50528864014E+02  0.30000012656E+02 0.  0.
         12    1    1    2    0    0 -0.96880167905E+01 -0.38138233133E+02 -0.10236349119E+02  0.40659135986E+02  0.00000000000E+00 0. -1.
         11    1    3    3    0    0  0.81500387960E+01  0.11028505515E+02 -0.11422765825E+01  0.13760663586E+02  0.51100000000E-03 0. -1.
        -11    1    3    3    0    0  0.36233886412E+01  0.28768967969E+02  0.14700223705E+02  0.32509676105E+02  0.51100000000E-03 0.  1.
         12    1    3    3    0    0 -0.20854106466E+01 -0.16592403505E+01 -0.33215980037E+01  0.42585243223E+01  0.00000000000E+00 0. -1.
</event>
<event>
 7    1  0.3383281E-011  0.5052886E+02  0.7816164E-02  0.1300439E+00
        -11   -1    0    0    0    0  0.00000000000E+00  0.00000000000E+00  0.45593999997E+02  0.45594000000E+02  0.51100000000E-03 0.  1.
         11   -1    0    0    0    0 -0.00000000000E+00 -0.00000000000E+00 -0.45593999997E+02  0.45594000000E+02  0.51100000000E-03 0. -1.
    9900012    2    1    2    0    0  0.30785668234E+02 -0.17423402782E+02  0.20045779674E+02  0.50528860610E+02  0.30000002312E+02 0.  0.
         12    1    1    2    0    0 -0.30785668234E+02  0.17423402782E+02 -0.20045779674E+02  0.40659139390E+02  0.00000000000E+00 0. -1.
         11    1    3    3    0    0  0.13701198646E+02  0.51867203041E+01  0.15305143904E+02  0.21186607610E+02  0.51100000000E-03 0.  1.
        -11    1    3    3    0    0  0.87194433788E+01 -0.68636981749E+01  0.24641467577E+01  0.11367104512E+02  0.51100000000E-03 0. -1.
        -12    1    3    3    0    0  0.83650262098E+01 -0.15746424911E+02  0.22764890132E+01  0.17975148489E+02  0.00000000000E+00 0.  1.
</event>
<event>
 7    1  0.3383281E-011  0.5052883E+02  0.7816164E-02  0.1300439E+00
        -11   -1    0    0    0    0  0.00000000000E+00  0.00000000000E+00  0.45593999997E+02  0.45594000000E+02  0.51100000000E-03 0. -1.
         11   -1    0    0    0    0 -0.00000000000E+00 -0.00000000000E+00 -0.45593999997E+02  0.45594000000E+02  0.51100000000E-03 0.  1.
    9900012    2    1    2    0    0  0.17479730441E+02 -0.36647666295E+02 -0.21390333693E+01  0.50528832708E+02  0.29999917499E+02 0.  0.
         12    1    1    2    0    0 -0.17479730441E+02  0.36647666295E+02  0.21390333693E+01  0.40659167292E+02  0.00000000000E+00 0. -1.
         11    1    3    3    0    0 -0.49935892376E+01 -0.67981223189E+01  0.51982482538E+01  0.99081878114E+01  0.51100000000E-03 0. -1.
        -11    1    3    3    0    0  0.28713757479E+01 -0.10040006315E+02  0.30506866360E+01  0.10879026368E+02  0.51100000000E-03 0.  1.
        -12    1    3    3    0    0  0.19601943931E+02 -0.19809537660E+02 -0.10387968259E+02  0.29741618529E+02  0.00000000000E+00 0.  1.
</event>
<event>
 7    1  0.3383281E-011  0.5052886E+02  0.7816164E-02  0.1300439E+00
        -11   -1    0    0    0    0  0.00000000000E+00  0.00000000000E+00  0.45593999997E+02  0.45594000000E+02  0.51100000000E-03 0.  1.
         11   -1    0    0    0    0 -0.00000000000E+00 -0.00000000000E+00 -0.45593999997E+02  0.45594000000E+02  0.51100000000E-03 0. -1.
    9900012    2    1    2    0    0  0.30386278109E+01 -0.40527439420E+02 -0.12078398499E+01  0.50528862257E+02  0.30000007316E+02 0.  0.
         12    1    1    2    0    0 -0.30386278109E+01  0.40527439420E+02  0.12078398499E+01  0.40659137743E+02  0.00000000000E+00 0. -1.
         11    1    3    3    0    0 -0.53891899706E+01 -0.18518634866E+01  0.69111792549E+01  0.89575200735E+01  0.51100000000E-03 0. -1.
        -11    1    3    3    0    0  0.11619437782E+01 -0.14305827712E+02 -0.73604140765E+01  0.16130174069E+02  0.51100000000E-03 0.  1.
        -12    1    3    3    0    0  0.72658740033E+01 -0.24369748222E+02 -0.75860502831E+00  0.25441168114E+02  0.00000000000E+00 0.  1.
</event>
<event>
 7    1  0.3383281E-011  0.5052887E+02  0.7816164E-02  0.1300439E+00
        -11   -1    0    0    0    0  0.00000000000E+00  0.00000000000E+00  0.45593999997E+02  0.45594000000E+02  0.51100000000E-03 0. -1.
         11   -1    0    0    0    0 -0.00000000000E+00 -0.00000000000E+00 -0.45593999997E+02  0.45594000000E+02  0.51100000000E-03 0.  1.
    9900012    2    1    2    0    0  0.24773730144E+02  0.27231409234E+02 -0.17259125667E+02  0.50528870977E+02  0.30000033823E+02 0.  0.
         12    1    1    2    0    0 -0.24773730144E+02 -0.27231409234E+02  0.17259125667E+02  0.40659129023E+02  0.00000000000E+00 0. -1.
         11    1    3    3    0    0 -0.40899506424E+01  0.18301295995E+01  0.13285232938E+01  0.46735473691E+01  0.51100000000E-03 0. -1.
        -11    1    3    3    0    0  0.41168064502E+01  0.12735842249E+02 -0.10167184777E+02  0.16808373499E+02  0.51100000000E-03 0.  1.
        -12    1    3    3    0    0  0.24746874336E+02  0.12665437385E+02 -0.84204641837E+01  0.29046950109E+02  0.00000000000E+00 0.  1.
</event>
<event>
 7    1  0.3383281E-011  0.5052886E+02  0.7816164E-02  0.1300439E+00
        -11   -1    0    0    0    0  0.00000000000E+00  0.00000000000E+00  0.45593999997E+02  0.45594000000E+02  0.51100000000E-03 0.  1.
         11   -1    0    0    0    0 -0.00000000000E+00 -0.00000000000E+00 -0.45593999997E+02  0.45594000000E+02  0.51100000000E-03 0. -1.
    9900012    2    1    2    0    0  0.38635401832E+02  0.10974201113E+02  0.63275720494E+01  0.50528861632E+02  0.30000005418E+02 0.  0.
         12    1    1    2    0    0 -0.38635401832E+02 -0.10974201113E+02 -0.63275720494E+01  0.40659138368E+02  0.00000000000E+00 0. -1.
         11    1    3    3    0    0  0.23660764246E+02  0.84496707807E+01  0.81285160372E+01  0.26406466523E+02  0.51100000000E-03 0. -1.
        -11    1    3    3    0    0  0.15031932338E+02  0.24971109956E+01  0.59593822792E+01  0.16361808902E+02  0.51100000000E-03 0.  1.
         12    1    3    3    0    0 -0.57294752345E-01  0.27419336641E-01 -0.77603262669E+01  0.77605862071E+01  0.00000000000E+00 0. -1.
</event>
<event>
 7    1  0.3383281E-011  0.5052889E+02  0.7816164E-02  0.1300439E+00
        -11   -1    0    0    0    0  0.00000000000E+00  0.00000000000E+00  0.45593999997E+02  0.45594000000E+02  0.51100000000E-03 0.  1.
         11   -1    0    0    0    0 -0.00000000000E+00 -0.00000000000E+00 -0.45593999997E+02  0.45594000000E+02  0.51100000000E-03 0. -1.
    9900012    2    1    2    0    0 -0.14379327678E+02 -0.37557142785E+02  0.59882621550E+01  0.50528888816E+02  0.30000088044E+02 0.  0.
         12    1    1    2    0    0  0.14379327678E+02  0.37557142785E+02 -0.59882621550E+01  0.40659111184E+02  0.00000000000E+00 0. -1.
         11    1    3    3    0    0 -0.23648995032E+00 -0.81358743974E+01 -0.89386717245E+01  0.12089178308E+02  0.51100000000E-03 0. -1.
        -11    1    3    3    0    0  0.10993300485E+01 -0.12858407439E+02  0.58547523730E+01  0.14171284135E+02  0.51100000000E-03 0.  1.
         12    1    3    3    0    0 -0.15242167776E+02 -0.16562860949E+02  0.90721815065E+01  0.24268426373E+02  0.00000000000E+00 0. -1.
</event>
<event>
 7    1  0.3383281E-011  0.5052885E+02  0.7816164E-02  0.1300439E+00
        -11   -1    0    0    0    0  0.00000000000E+00  0.00000000000E+00  0.45593999997E+02  0.45594000000E+02  0.51100000000E-03 0.  1.
         11   -1    0    0    0    0 -0.00000000000E+00 -0.00000000000E+00 -0.45593999997E+02  0.45594000000E+02  0.51100000000E-03 0. -1.
    9900012    2    1    2    0    0  0.17978512398E+01  0.35744632641E+02  0.19293920556E+02  0.50528850942E+02  0.29999972923E+02 0.  0.
         12    1    1    2    0    0 -0.17978512398E+01 -0.35744632641E+02 -0.19293920556E+02  0.40659149058E+02  0.00000000000E+00 0. -1.
         11    1    3    3    0    0 -0.97278909300E+01  0.10476241838E+02 -0.21182269804E+01  0.14452348972E+02  0.51100000000E-03 0. -1.
        -11    1    3    3    0    0  0.38145277199E+01  0.16962764560E+01  0.23069295211E+01  0.47696854841E+01  0.51100000000E-03 0.  1.
        -12    1    3    3    0    0  0.77112144499E+01  0.23572114346E+02  0.19105218016E+02  0.31306816486E+02  0.00000000000E+00 0.  1.
</event>
<event>
 7    1  0.3383281E-011  0.5052886E+02  0.7816164E-02  0.1300439E+00
        -11   -1    0    0    0    0  0.00000000000E+00  0.00000000000E+00  0.45593999997E+02  0.45594000000E+02  0.51100000000E-03 0.  1.
         11   -1    0    0    0    0 -0.00000000000E+00 -0.00000000000E+00 -0.45593999997E+02  0.45594000000E+02  0.51100000000E-03 0. -1.
    9900012    2    1    2    0    0 -0.43810490653E+01 -0.50923971955E+01  0.40100367430E+02  0.50528861198E+02  0.30000004096E+02 0.  0.
         12    1    1    2    0    0  0.43810490653E+01  0.50923971955E+01 -0.40100367430E+02  0.40659138802E+02  0.00000000000E+00 0. -1.
         11    1    3    3    0    0 -0.62773395780E+01 -0.41983409494E+01  0.51061527564E+01  0.91161315884E+01  0.51100000000E-03 0. -1.
        -11    1    3    3    0    0  0.11186083402E+02  0.28725134373E+01  0.14005749403E+02  0.18153258989E+02  0.51100000000E-03 0.  1.
         12    1    3    3    0    0 -0.92897928890E+01 -0.37665696834E+01  0.20988465271E+02  0.23259470620E+02  0.00000000000E+00 0. -1.
</event>
<event>
 7    1  0.3383281E-011  0.5052885E+02  0.7816164E-02  0.1300439E+00
        -11   -1    0    0    0    0  0.00000000000E+00  0.00000000000E+00  0.45593999997E+02  0.45594000000E+02  0.51100000000E-03 0.  1.
         11   -1    0    0    0    0 -0.00000000000E+00 -0.00000000000E+00 -0.45593999997E+02  0.45594000000E+02  0.51100000000E-03 0. -1.
    9900012    2    1    2    0    0  0.17785665409E+02 -0.22141812088E+02  0.29095989167E+02  0.50528851925E+02  0.29999975911E+02 0.  0.
         12    1    1    2    0    0 -0.17785665409E+02  0.22141812088E+02 -0.29095989167E+02  0.40659148075E+02  0.00000000000E+00 0. -1.
         11    1    3    3    0    0  0.46714286613E+01  0.48967282224E+01  0.44383010039E+01  0.80931272747E+01  0.51100000000E-03 0. -1.
        -11    1    3    3    0    0  0.78519261586E+01 -0.12321798970E+02  0.17657805635E+01  0.14717250270E+02  0.51100000000E-03 0.  1.
        -12    1    3    3    0    0  0.52623105888E+01 -0.14716741340E+02  0.22891907600E+02  0.27718474380E+02  0.00000000000E+00 0.  1.
</event>
<event>
 7    1  0.3383281E-011  0.5052885E+02  0.7816164E-02  0.1300439E+00
        -11   -1    0    0    0    0  0.00000000000E+00  0.00000000000E+00  0.45593999997E+02  0.45594000000E+02  0.51100000000E-03 0.  1.
         11   -1    0    0    0    0 -0.00000000000E+00 -0.00000000000E+00 -0.45593999997E+02  0.45594000000E+02  0.51100000000E-03 0. -1.
    9900012    2    1    2    0    0  0.22718559239E+02 -0.16731115657E+02  0.29276321549E+02  0.50528853815E+02  0.29999981657E+02 0.  0.
         12    1    1    2    0    0 -0.22718559239E+02  0.16731115657E+02 -0.29276321549E+02  0.40659146185E+02  0.00000000000E+00 0. -1.
         11    1    3    3    0    0 -0.49768968583E+01 -0.10023692564E+02  0.46209023930E+01  0.12107710524E+02  0.51100000000E-03 0. -1.
        -11    1    3    3    0    0  0.19722602813E+01 -0.21334832531E+01  0.47801338693E+01  0.55938574775E+01  0.51100000000E-03 0.  1.
        -12    1    3    3    0    0  0.25723195816E+02 -0.45739398398E+01  0.19875285287E+02  0.32827285814E+02  0.00000000000E+00 0.  1.
</event>
<event>
 7    1  0.3383281E-011  0.5052886E+02  0.7816164E-02  0.1300439E+00
        -11   -1    0    0    0    0  0.00000000000E+00  0.00000000000E+00  0.45593999997E+02  0.45594000000E+02  0.51100000000E-03 0.  1.
         11   -1    0    0    0    0 -0.00000000000E+00 -0.00000000000E+00 -0.45593999997E+02  0.45594000000E+02  0.51100000000E-03 0. -1.
    9900012    2    1    2    0    0 -0.31191203025E+02  0.12290032011E+02 -0.23004990728E+02  0.50528860420E+02  0.30000001733E+02 0.  0.
         12    1    1    2    0    0  0.31191203025E+02 -0.12290032011E+02  0.23004990728E+02  0.40659139580E+02  0.00000000000E+00 0. -1.
         11    1    3    3    0    0  0.30357783512E+01 -0.45791704815E+01 -0.23679472427E+01  0.59826354479E+01  0.51100000000E-03 0. -1.
        -11    1    3    3    0    0 -0.14555325567E+02  0.20545450921E+01 -0.96225302983E+01  0.17569056534E+02  0.51100000000E-03 0.  1.
        -12    1    3    3    0    0 -0.19671655809E+02  0.14814657401E+02 -0.11014513187E+02  0.26977168438E+02  0.00000000000E+00 0.  1.
</event>
<event>
 7    1  0.3383281E-011  0.5052886E+02  0.7816164E-02  0.1300439E+00
        -11   -1    0    0    0    0  0.00000000000E+00  0.00000000000E+00  0.45593999997E+02  0.45594000000E+02  0.51100000000E-03 0.  1.
         11   -1    0    0    0    0 -0.00000000000E+00 -0.00000000000E+00 -0.45593999997E+02  0.45594000000E+02  0.51100000000E-03 0. -1.
    9900012    2    1    2    0    0 -0.21111461452E+02 -0.69176611443E+01  0.34053166366E+02  0.50528856134E+02  0.29999988706E+02 0.  0.
         12    1    1    2    0    0  0.21111461452E+02  0.69176611443E+01 -0.34053166366E+02  0.40659143866E+02  0.00000000000E+00 0. -1.
         11    1    3    3    0    0 -0.12122149518E+02 -0.69113326726E+00  0.41981995753E+01  0.12847141864E+02  0.51100000000E-03 0. -1.
        -11    1    3    3    0    0 -0.15094797600E+02 -0.57132625199E+01  0.17000199767E+02  0.23441439281E+02  0.51100000000E-03 0.  1.
         12    1    3    3    0    0  0.61054856659E+01 -0.51326535723E+00  0.12854767023E+02  0.14240274989E+02  0.00000000000E+00 0. -1.
</event>
<event>
 7    1  0.5099463E-011  0.5052886E+02  0.7816164E-02  0.1300439E+00
        -11   -1    0    0    0    0  0.00000000000E+00  0.00000000000E+00  0.45593999997E+02  0.45594000000E+02  0.51100000000E-03 0. -1.
         11   -1    0    0    0    0 -0.00000000000E+00 -0.00000000000E+00 -0.45593999997E+02  0.45594000000E+02  0.51100000000E-03 0.  1.
    9900012    2    1    2    0    0  0.17837008277E+02 -0.23963190864E+02 -0.27582100372E+02  0.50528860294E+02  0.30000001351E+02 0.  0.
         12    1    1    2    0    0 -0.17837008277E+02  0.23963190864E+02  0.27582100372E+02  0.40659139706E+02  0.00000000000E+00 0. -1.
         11    1    3    3    0    0  0.61661811683E+00 -0.11314186763E+02 -0.46479566708E+01  0.12247225869E+02  0.51100000000E-03 0. -1.
        -11    1    3    3    0    0  0.51264658933E+01 -0.15994887689E+02 -0.18464673800E+02  0.24961195155E+02  0.51100000000E-03 0.  1.
         12    1    3    3    0    0  0.12093924267E+02  0.33458835885E+01 -0.44694699009E+01  0.13320439270E+02  0.00000000000E+00 0. -1.
</event>
<event>
 7    1  0.3924148E-011  0.5052884E+02  0.7816164E-02  0.1300439E+00
        -11   -1    0    0    0    0  0.00000000000E+00  0.00000000000E+00  0.45593999997E+02  0.45594000000E+02  0.51100000000E-03 0.  1.
         11   -1    0    0    0    0 -0.00000000000E+00 -0.00000000000E+00 -0.45593999997E+02  0.45594000000E+02  0.51100000000E-03 0. -1.
    9900012    2    1    2    0    0 -0.24060962242E+02 -0.23315324804E+02 -0.23035474314E+02  0.50528839266E+02  0.29999937432E+02 0.  0.
         12    1    1    2    0    0  0.24060962242E+02  0.23315324804E+02  0.23035474314E+02  0.40659160734E+02  0.00000000000E+00 0. -1.
         11    1    3    3    0    0 -0.12326042566E+01  0.34694332452E+01  0.13844924499E+01  0.39335861376E+01  0.51100000000E-03 0. -1.
        -11    1    3    3    0    0 -0.23929017535E+02 -0.16442677937E+02 -0.15605153575E+02  0.32961801473E+02  0.51100000000E-03 0.  1.
         12    1    3    3    0    0  0.11006595495E+01 -0.10342080112E+02 -0.88148131889E+01  0.13633451655E+02  0.00000000000E+00 0. -1.
</event>
<event>
 7    1  0.3383281E-011  0.5052886E+02  0.7816164E-02  0.1300439E+00
        -11   -1    0    0    0    0  0.00000000000E+00  0.00000000000E+00  0.45593999997E+02  0.45594000000E+02  0.51100000000E-03 0. -1.
         11   -1    0    0    0    0 -0.00000000000E+00 -0.00000000000E+00 -0.45593999997E+02  0.45594000000E+02  0.51100000000E-03 0.  1.
    9900012    2    1    2    0    0 -0.34019271508E+02  0.18885269247E+02 -0.11798355232E+02  0.50528863085E+02  0.30000009833E+02 0.  0.
         12    1    1    2    0    0  0.34019271508E+02 -0.18885269247E+02  0.11798355232E+02  0.40659136915E+02  0.00000000000E+00 0. -1.
         11    1    3    3    0    0 -0.36724988099E+01  0.13238598045E+02 -0.73156171427E+00  0.13758012521E+02  0.51100000000E-03 0.  1.
        -11    1    3    3    0    0 -0.19669618012E+01 -0.39662828850E+01 -0.40417292794E+01  0.59946571612E+01  0.51100000000E-03 0. -1.
        -12    1    3    3    0    0 -0.28379810897E+02  0.96129540864E+01 -0.70250642386E+01  0.30776193403E+02  0.00000000000E+00 0.  1.
</event>
<event>
 7    1  0.3383281E-011  0.5052888E+02  0.7816164E-02  0.1300439E+00
        -11   -1    0    0    0    0  0.00000000000E+00  0.00000000000E+00  0.45593999997E+02  0.45594000000E+02  0.51100000000E-03 0. -1.
         11   -1    0    0    0    0 -0.00000000000E+00 -0.00000000000E+00 -0.45593999997E+02  0.45594000000E+02  0.51100000000E-03 0.  1.
    9900012    2    1    2    0    0 -0.27627118324E+02 -0.29063281026E+02  0.67254912166E+01  0.50528877985E+02  0.30000055123E+02 0.  0.
         12    1    1    2    0    0  0.27627118324E+02  0.29063281026E+02 -0.67254912166E+01  0.40659122015E+02  0.00000000000E+00 0. -1.
         11    1    3    3    0    0 -0.61007729561E+00 -0.23494751404E+01  0.38642268746E+01  0.45633844175E+01  0.51100000000E-03 0. -1.
        -11    1    3    3    0    0 -0.11634001667E+02  0.28445367623E+01  0.39924808048E+01  0.12624630190E+02  0.51100000000E-03 0.  1.
        -12    1    3    3    0    0 -0.15383039361E+02 -0.29558342648E+02 -0.11312164628E+01  0.33340863378E+02  0.00000000000E+00 0.  1.
</event>
<event>
 7    1  0.3383281E-011  0.5052886E+02  0.7816164E-02  0.1300439E+00
        -11   -1    0    0    0    0  0.00000000000E+00  0.00000000000E+00  0.45593999997E+02  0.45594000000E+02  0.51100000000E-03 0. -1.
         11   -1    0    0    0    0 -0.00000000000E+00 -0.00000000000E+00 -0.45593999997E+02  0.45594000000E+02  0.51100000000E-03 0.  1.
    9900012    2    1    2    0    0 -0.13954536737E+02 -0.15054181546E+02 -0.35097121920E+02  0.50528862716E+02  0.30000008712E+02 0.  0.
         12    1    1    2    0    0  0.13954536737E+02  0.15054181546E+02  0.35097121920E+02  0.40659137284E+02  0.00000000000E+00 0. -1.
         11    1    3    3    0    0 -0.30648240670E+01 -0.12423536732E+02 -0.76990059501E+01  0.14933589802E+02  0.51100000000E-03 0. -1.
        -11    1    3    3    0    0 -0.31584949947E+01 -0.10311805716E+02 -0.83092401784E+01  0.13614437203E+02  0.51100000000E-03 0.  1.
        -12    1    3    3    0    0 -0.77312176749E+01  0.76811609021E+01 -0.19088875792E+02  0.21980835711E+02  0.00000000000E+00 0.  1.
</event>
<event>
 7    1  0.3383281E-011  0.5052886E+02  0.7816164E-02  0.1300439E+00
        -11   -1    0    0    0    0  0.00000000000E+00  0.00000000000E+00  0.45593999997E+02  0.45594000000E+02  0.51100000000E-03 0.  1.
         11   -1    0    0    0    0 -0.00000000000E+00 -0.00000000000E+00 -0.45593999997E+02  0.45594000000E+02  0.51100000000E-03 0. -1.
    9900012    2    1    2    0    0 -0.32369368364E+02  0.19373975953E+02  0.15167036253E+02  0.50528856609E+02  0.29999990150E+02 0.  0.
         12    1    1    2    0    0  0.32369368364E+02 -0.19373975953E+02 -0.15167036253E+02  0.40659143391E+02  0.00000000000E+00 0. -1.
         11    1    3    3    0    0 -0.23876874789E+02  0.20661840867E+02  0.10081821206E+02  0.33146039535E+02  0.51100000000E-03 0.  1.
        -11    1    3    3    0    0 -0.11571490016E+01  0.54512205477E+01  0.48991857214E+01  0.74200283197E+01  0.51100000000E-03 0. -1.
         12    1    3    3    0    0 -0.73353445736E+01 -0.67390854615E+01  0.18602932518E+00  0.99627887552E+01  0.00000000000E+00 0. -1.
</event>
<event>
 7    1  0.3383281E-011  0.5052887E+02  0.7816164E-02  0.1300439E+00
        -11   -1    0    0    0    0  0.00000000000E+00  0.00000000000E+00  0.45593999997E+02  0.45594000000E+02  0.51100000000E-03 0.  1.
         11   -1    0    0    0    0 -0.00000000000E+00 -0.00000000000E+00 -0.45593999997E+02  0.45594000000E+02  0.51100000000E-03 0. -1.
    9900012    2    1    2    0    0 -0.34159057549E+02  0.96238748880E+01  0.19841996774E+02  0.50528867981E+02  0.30000024716E+02 0.  0.
         12    1    1    2    0    0  0.34159057549E+02 -0.96238748880E+01 -0.19841996774E+02  0.40659132019E+02  0.00000000000E+00 0. -1.
         11    1    3    3    0    0  0.17544446668E+01 -0.83827042308E+00 -0.34842825267E+01  0.39901125771E+01  0.51100000000E-03 0. -1.
        -11    1    3    3    0    0 -0.20665817417E+01  0.14588763537E+01 -0.20762409584E+01  0.32725918000E+01  0.51100000000E-03 0.  1.
        -12    1    3    3    0    0 -0.33846920474E+02  0.90032689573E+01  0.25402520259E+02  0.43266163604E+02  0.00000000000E+00 0.  1.
</event>
<event>
 7    1  0.3383281E-011  0.5052887E+02  0.7816164E-02  0.1300439E+00
        -11   -1    0    0    0    0  0.00000000000E+00  0.00000000000E+00  0.45593999997E+02  0.45594000000E+02  0.51100000000E-03 0.  1.
         11   -1    0    0    0    0 -0.00000000000E+00 -0.00000000000E+00 -0.45593999997E+02  0.45594000000E+02  0.51100000000E-03 0. -1.
    9900012    2    1    2    0    0  0.14683559085E+02  0.18768342172E+02  0.32944003312E+02  0.50528869051E+02  0.30000027968E+02 0.  0.
         12    1    1    2    0    0 -0.14683559085E+02 -0.18768342172E+02 -0.32944003312E+02  0.40659130949E+02  0.00000000000E+00 0. -1.
         11    1    3    3    0    0  0.76467758034E+01  0.74422069569E+01 -0.91131583342E+00  0.10709347384E+02  0.51100000000E-03 0. -1.
        -11    1    3    3    0    0  0.19551931776E+01 -0.40716414279E+01  0.51404716083E+01  0.68429155260E+01  0.51100000000E-03 0.  1.
        -12    1    3    3    0    0  0.50815901040E+01  0.15397776643E+02  0.28714847537E+02  0.32976606142E+02  0.00000000000E+00 0.  1.
</event>
<event>
 7    1  0.3383281E-011  0.5052886E+02  0.7816164E-02  0.1300439E+00
        -11   -1    0    0    0    0  0.00000000000E+00  0.00000000000E+00  0.45593999997E+02  0.45594000000E+02  0.51100000000E-03 0. -1.
         11   -1    0    0    0    0 -0.00000000000E+00 -0.00000000000E+00 -0.45593999997E+02  0.45594000000E+02  0.51100000000E-03 0.  1.
    9900012    2    1    2    0    0  0.30665970908E+01  0.20972504638E+02 -0.34697483642E+02  0.50528864008E+02  0.30000012640E+02 0.  0.
         12    1    1    2    0    0 -0.30665970908E+01 -0.20972504638E+02  0.34697483642E+02  0.40659135992E+02  0.00000000000E+00 0. -1.
         11    1    3    3    0    0  0.52549736075E+01  0.45594945925E+01 -0.13015756425E+02  0.14758511244E+02  0.51100000000E-03 0.  1.
        -11    1    3    3    0    0 -0.12406246062E+02  0.58920799222E+01 -0.11544590516E+02  0.17941825927E+02  0.51100000000E-03 0. -1.
         12    1    3    3    0    0  0.10217869545E+02  0.10520930123E+02 -0.10137136701E+02  0.17828526838E+02  0.00000000000E+00 0. -1.
</event>
<event>
 7    1  0.3383281E-011  0.5052884E+02  0.7816164E-02  0.1300439E+00
        -11   -1    0    0    0    0  0.00000000000E+00  0.00000000000E+00  0.45593999997E+02  0.45594000000E+02  0.51100000000E-03 0. -1.
         11   -1    0    0    0    0 -0.00000000000E+00 -0.00000000000E+00 -0.45593999997E+02  0.45594000000E+02  0.51100000000E-03 0.  1.
    9900012    2    1    2    0    0 -0.17108604537E+02 -0.28448628258E+02 -0.23476347058E+02  0.50528835348E+02  0.29999925524E+02 0.  0.
         12    1    1    2    0    0  0.17108604537E+02  0.28448628258E+02  0.23476347058E+02  0.40659164652E+02  0.00000000000E+00 0. -1.
         11    1    3    3    0    0 -0.28059416308E+01 -0.20428808877E+01  0.32277065953E+01  0.47397005057E+01  0.51100000000E-03 0. -1.
        -11    1    3    3    0    0 -0.42187714341E+01  0.75599162680E-02  0.26911364164E+01  0.50040288806E+01  0.51100000000E-03 0.  1.
        -12    1    3    3    0    0 -0.10083891472E+02 -0.26413307287E+02 -0.29395190070E+02  0.40785105962E+02  0.00000000000E+00 0.  1.
</event>
<event>
 7    1  0.7828614E-011  0.5052887E+02  0.7816164E-02  0.1300439E+00
        -11   -1    0    0    0    0  0.00000000000E+00  0.00000000000E+00  0.45593999997E+02  0.45594000000E+02  0.51100000000E-03 0.  1.
         11   -1    0    0    0    0 -0.00000000000E+00 -0.00000000000E+00 -0.45593999997E+02  0.45594000000E+02  0.51100000000E-03 0. -1.
    9900012    2    1    2    0    0 -0.60414920602E+01 -0.32317222316E+02  0.23922012989E+02  0.50528865848E+02  0.30000018231E+02 0.  0.
         12    1    1    2    0    0  0.60414920602E+01  0.32317222316E+02 -0.23922012989E+02  0.40659134152E+02  0.00000000000E+00 0. -1.
         11    1    3    3    0    0 -0.77463283779E+01 -0.45655981316E+01  0.88816054038E+01  0.12638560220E+02  0.51100000000E-03 0. -1.
        -11    1    3    3    0    0 -0.22810422730E+01 -0.29606238139E+02  0.15453854974E+02  0.33474678854E+02  0.51100000000E-03 0.  1.
         12    1    3    3    0    0  0.39858785907E+01  0.18546139537E+01 -0.41344738924E+00  0.44156267733E+01  0.00000000000E+00 0. -1.
</event>
<event>
 7    1  0.3383281E-011  0.5052887E+02  0.7816164E-02  0.1300439E+00
        -11   -1    0    0    0    0  0.00000000000E+00  0.00000000000E+00  0.45593999997E+02  0.45594000000E+02  0.51100000000E-03 0.  1.
         11   -1    0    0    0    0 -0.00000000000E+00 -0.00000000000E+00 -0.45593999997E+02  0.45594000000E+02  0.51100000000E-03 0. -1.
    9900012    2    1    2    0    0  0.23743490438E+02  0.12588097608E+02  0.30511495484E+02  0.50528869460E+02  0.30000029211E+02 0.  0.
         12    1    1    2    0    0 -0.23743490438E+02 -0.12588097608E+02 -0.30511495484E+02  0.40659130540E+02  0.00000000000E+00 0. -1.
         11    1    3    3    0    0 -0.27062857743E+01 -0.24099330511E+01  0.19046365030E+01  0.40938246754E+01  0.51100000000E-03 0. -1.
        -11    1    3    3    0    0  0.22750318542E+02  0.14277617317E+02  0.31707414268E+02  0.41554632351E+02  0.51100000000E-03 0.  1.
         12    1    3    3    0    0  0.36994576704E+01  0.72041334221E+00 -0.31005552864E+01  0.48804124337E+01  0.00000000000E+00 0. -1.
</event>
<event>
 7    1  0.3383281E-011  0.5052885E+02  0.7816164E-02  0.1300439E+00
        -11   -1    0    0    0    0  0.00000000000E+00  0.00000000000E+00  0.45593999997E+02  0.45594000000E+02  0.51100000000E-03 0. -1.
         11   -1    0    0    0    0 -0.00000000000E+00 -0.00000000000E+00 -0.45593999997E+02  0.45594000000E+02  0.51100000000E-03 0.  1.
    9900012    2    1    2    0    0  0.36416788408E+02  0.55264600815E+01 -0.17217492480E+02  0.50528852367E+02  0.29999977254E+02 0.  0.
         12    1    1    2    0    0 -0.36416788408E+02 -0.55264600815E+01  0.17217492480E+02  0.40659147633E+02  0.00000000000E+00 0. -1.
         11    1    3    3    0    0  0.74528048056E+01  0.12432925324E+02 -0.73534403285E+01  0.16254076919E+02  0.51100000000E-03 0. -1.
        -11    1    3    3    0    0  0.12311957784E+02 -0.98156999605E+01 -0.29948479735E+01  0.16028143524E+02  0.51100000000E-03 0.  1.
         12    1    3    3    0    0  0.16652025818E+02  0.29092347184E+01 -0.68692041785E+01  0.18246631923E+02  0.00000000000E+00 0. -1.
</event>
<event>
 7    1  0.3383281E-011  0.5052893E+02  0.7816164E-02  0.1300439E+00
        -11   -1    0    0    0    0  0.00000000000E+00  0.00000000000E+00  0.45593999997E+02  0.45594000000E+02  0.51100000000E-03 0.  1.
         11   -1    0    0    0    0 -0.00000000000E+00 -0.00000000000E+00 -0.45593999997E+02  0.45594000000E+02  0.51100000000E-03 0. -1.
    9900012    2    1    2    0    0  0.10360439011E+02 -0.26531039985E+02  0.29015941827E+02  0.50528933861E+02  0.30000224963E+02 0.  0.
         12    1    1    2    0    0 -0.10360439011E+02  0.26531039985E+02 -0.29015941827E+02  0.40659066139E+02  0.00000000000E+00 0. -1.
         11    1    3    3    0    0  0.91654438786E+01 -0.65925003052E+01  0.36677690397E+01  0.11870928850E+02  0.51100000000E-03 0. -1.
        -11    1    3    3    0    0  0.92966768339E+01 -0.33290233867E+01  0.46637044840E+01  0.10920656420E+02  0.51100000000E-03 0.  1.
        -12    1    3    3    0    0 -0.81016817020E+01 -0.16609516294E+02  0.20684468303E+02  0.27737348592E+02  0.00000000000E+00 0.  1.
</event>
<event>
 7    1  0.3383281E-011  0.5052886E+02  0.7816164E-02  0.1300439E+00
        -11   -1    0    0    0    0  0.00000000000E+00  0.00000000000E+00  0.45593999997E+02  0.45594000000E+02  0.51100000000E-03 0.  1.
         11   -1    0    0    0    0 -0.00000000000E+00 -0.00000000000E+00 -0.45593999997E+02  0.45594000000E+02  0.51100000000E-03 0. -1.
    9900012    2    1    2    0    0  0.27242030470E+02 -0.30156525066E+02  0.12734101451E+01  0.50528858327E+02  0.29999995371E+02 0.  0.
         12    1    1    2    0    0 -0.27242030470E+02  0.30156525066E+02 -0.12734101451E+01  0.40659141673E+02  0.00000000000E+00 0. -1.
         11    1    3    3    0    0  0.52462168930E+01 -0.10213995885E+02 -0.50692447679E+01  0.12551722846E+02  0.51100000000E-03 0. -1.
        -11    1    3    3    0    0  0.72956623639E+01 -0.50810515480E+00 -0.70613608942E+01  0.10166006006E+02  0.51100000000E-03 0.  1.
        -12    1    3    3    0    0  0.14700151214E+02 -0.19434424026E+02  0.13404015807E+02  0.27811129475E+02  0.00000000000E+00 0.  1.
</event>
<event>
 7    1  0.3383281E-011  0.5052885E+02  0.7816164E-02  0.1300439E+00
        -11   -1    0    0    0    0  0.00000000000E+00  0.00000000000E+00  0.45593999997E+02  0.45594000000E+02  0.51100000000E-03 0. -1.
         11   -1    0    0    0    0 -0.00000000000E+00 -0.00000000000E+00 -0.45593999997E+02  0.45594000000E+02  0.51100000000E-03 0.  1.
    9900012    2    1    2    0    0  0.35588473215E+01 -0.39418264087E+02 -0.93113714261E+01  0.50528848807E+02  0.29999966433E+02 0.  0.
         12    1    1    2    0    0 -0.35588473215E+01  0.39418264087E+02  0.93113714261E+01  0.40659151193E+02  0.00000000000E+00 0. -1.
         11    1    3    3    0    0  0.93117175770E+01 -0.98796303572E+01 -0.19977636477E+01  0.13722472083E+02  0.51100000000E-03 0. -1.
        -11    1    3    3    0    0  0.51495012548E+01 -0.13890936707E+01 -0.34999240191E+01  0.63793740131E+01  0.51100000000E-03 0.  1.
        -12    1    3    3    0    0 -0.10902371510E+02 -0.28149540060E+02 -0.38136837594E+01  0.30427002710E+02  0.00000000000E+00 0.  1.
</event>
<event>
 7    1  0.3383281E-011  0.5052886E+02  0.7816164E-02  0.1300439E+00
        -11   -1    0    0    0    0  0.00000000000E+00  0.00000000000E+00  0.45593999997E+02  0.45594000000E+02  0.51100000000E-03 0.  1.
         11   -1    0    0    0    0 -0.00000000000E+00 -0.00000000000E+00 -0.45593999997E+02  0.45594000000E+02  0.51100000000E-03 0. -1.
    9900012    2    1    2    0    0 -0.59988407503E+01  0.98598628747E+01  0.38986701363E+02  0.50528857493E+02  0.29999992836E+02 0.  0.
         12    1    1    2    0    0  0.59988407503E+01 -0.98598628747E+01 -0.38986701363E+02  0.40659142507E+02  0.00000000000E+00 0. -1.
         11    1    3    3    0    0 -0.83372883926E+01  0.19230600048E+01  0.69287125387E+01  0.11009795422E+02  0.51100000000E-03 0.  1.
        -11    1    3    3    0    0 -0.64705928805E+01  0.10443344140E+02  0.10744370958E+02  0.16320953299E+02  0.51100000000E-03 0. -1.
        -12    1    3    3    0    0  0.88090405228E+01 -0.25065412699E+01  0.21313617866E+02  0.23198108772E+02  0.00000000000E+00 0.  1.
</event>
<event>
 7    1  0.3383281E-011  0.5052888E+02  0.7816164E-02  0.1300439E+00
        -11   -1    0    0    0    0  0.00000000000E+00  0.00000000000E+00  0.45593999997E+02  0.45594000000E+02  0.51100000000E-03 0.  1.
         11   -1    0    0    0    0 -0.00000000000E+00 -0.00000000000E+00 -0.45593999997E+02  0.45594000000E+02  0.51100000000E-03 0. -1.
    9900012    2    1    2    0    0  0.34169942215E+02  0.12115154634E+02  0.18406580379E+02  0.50528878957E+02  0.30000058077E+02 0.  0.
         12    1    1    2    0    0 -0.34169942215E+02 -0.12115154634E+02 -0.18406580379E+02  0.40659121043E+02  0.00000000000E+00 0. -1.
         11    1    3    3    0    0  0.18478138593E+02 -0.51280343595E+00 -0.59866572002E+00  0.18494944556E+02  0.51100000000E-03 0. -1.
        -11    1    3    3    0    0  0.14451905160E+02  0.53260322457E+01  0.50042742706E+01  0.16194657868E+02  0.51100000000E-03 0.  1.
        -12    1    3    3    0    0  0.12398984620E+01  0.73019258247E+01  0.14000971828E+02  0.15839276533E+02  0.00000000000E+00 0.  1.
</event>
<event>
 7    1  0.3383281E-011  0.5052886E+02  0.7816164E-02  0.1300439E+00
        -11   -1    0    0    0    0  0.00000000000E+00  0.00000000000E+00  0.45593999997E+02  0.45594000000E+02  0.51100000000E-03 0.  1.
         11   -1    0    0    0    0 -0.00000000000E+00 -0.00000000000E+00 -0.45593999997E+02  0.45594000000E+02  0.51100000000E-03 0. -1.
    9900012    2    1    2    0    0  0.30302566751E+02  0.22565704606E+02  0.15023629606E+02  0.50528855609E+02  0.29999987109E+02 0.  0.
         12    1    1    2    0    0 -0.30302566751E+02 -0.22565704606E+02 -0.15023629606E+02  0.40659144391E+02  0.00000000000E+00 0. -1.
         11    1    3    3    0    0  0.12347013199E+02  0.21416771946E+02  0.11909519550E+02  0.27440180606E+02  0.51100000000E-03 0. -1.
        -11    1    3    3    0    0  0.87868334315E+01  0.75488820998E+01  0.27252649834E+01  0.11900467730E+02  0.51100000000E-03 0.  1.
         12    1    3    3    0    0  0.91687201214E+01 -0.63999494398E+01  0.38884507199E+00  0.11188207273E+02  0.00000000000E+00 0. -1.
</event>
<event>
 7    1  0.3383281E-011  0.5052886E+02  0.7816164E-02  0.1300439E+00
        -11   -1    0    0    0    0  0.00000000000E+00  0.00000000000E+00  0.45593999997E+02  0.45594000000E+02  0.51100000000E-03 0. -1.
         11   -1    0    0    0    0 -0.00000000000E+00 -0.00000000000E+00 -0.45593999997E+02  0.45594000000E+02  0.51100000000E-03 0.  1.
    9900012    2    1    2    0    0  0.74433721472E+00  0.24383731205E+02 -0.32527607473E+02  0.50528860397E+02  0.30000001662E+02 0.  0.
         12    1    1    2    0    0 -0.74433721472E+00 -0.24383731205E+02  0.32527607473E+02  0.40659139603E+02  0.00000000000E+00 0. -1.
         11    1    3    3    0    0 -0.49877400424E+01  0.13572302717E+02 -0.88578272047E+01  0.16957182986E+02  0.51100000000E-03 0. -1.
        -11    1    3    3    0    0 -0.36058692053E+01  0.12020585453E+02 -0.68547106347E+01  0.14299784107E+02  0.51100000000E-03 0.  1.
         12    1    3    3    0    0  0.93379464624E+01 -0.12091569660E+01 -0.16815069634E+02  0.19271893303E+02  0.00000000000E+00 0. -1.
</event>
<event>
 7    1  0.3383281E-011  0.5052886E+02  0.7816164E-02  0.1300439E+00
        -11   -1    0    0    0    0  0.00000000000E+00  0.00000000000E+00  0.45593999997E+02  0.45594000000E+02  0.51100000000E-03 0.  1.
         11   -1    0    0    0    0 -0.00000000000E+00 -0.00000000000E+00 -0.45593999997E+02  0.45594000000E+02  0.51100000000E-03 0. -1.
    9900012    2    1    2    0    0  0.17530485361E+02  0.36405562183E+02  0.45258333997E+01  0.50528855361E+02  0.29999986355E+02 0.  0.
         12    1    1    2    0    0 -0.17530485361E+02 -0.36405562183E+02 -0.45258333997E+01  0.40659144639E+02  0.00000000000E+00 0. -1.
         11    1    3    3    0    0  0.68919957778E+01  0.72162557582E+01  0.62491883725E+00  0.99982236814E+01  0.51100000000E-03 0. -1.
        -11    1    3    3    0    0  0.16685016402E+02  0.10467829131E+02 -0.24700186461E+01  0.19851101013E+02  0.51100000000E-03 0.  1.
        -12    1    3    3    0    0 -0.60465268193E+01  0.18721477294E+02  0.63709332086E+01  0.20679530666E+02  0.00000000000E+00 0.  1.
</event>
<event>
 7    1  0.3383281E-011  0.5052880E+02  0.7816164E-02  0.1300439E+00
        -11   -1    0    0    0    0  0.00000000000E+00  0.00000000000E+00  0.45593999997E+02  0.45594000000E+02  0.51100000000E-03 0. -1.
         11   -1    0    0    0    0 -0.00000000000E+00 -0.00000000000E+00 -0.45593999997E+02  0.45594000000E+02  0.51100000000E-03 0.  1.
    9900012    2    1    2    0    0  0.21343470939E+02  0.33401837864E+02 -0.90522922202E+01  0.50528800317E+02  0.29999819042E+02 0.  0.
         12    1    1    2    0    0 -0.21343470939E+02 -0.33401837864E+02  0.90522922202E+01  0.40659199683E+02  0.00000000000E+00 0. -1.
         11    1    3    3    0    0  0.76313880660E+01  0.43347432506E+01  0.73476409382E+00  0.88072675330E+01  0.51100000000E-03 0. -1.
        -11    1    3    3    0    0  0.68568734076E+01 -0.18388086794E+01 -0.69545907417E+01  0.99380210773E+01  0.51100000000E-03 0.  1.
         12    1    3    3    0    0  0.68552094653E+01  0.30905903293E+02 -0.28324655723E+01  0.31783511707E+02  0.00000000000E+00 0. -1.
</event>
<event>
 7    1  0.3383281E-011  0.5052886E+02  0.7816164E-02  0.1300439E+00
        -11   -1    0    0    0    0  0.00000000000E+00  0.00000000000E+00  0.45593999997E+02  0.45594000000E+02  0.51100000000E-03 0.  1.
         11   -1    0    0    0    0 -0.00000000000E+00 -0.00000000000E+00 -0.45593999997E+02  0.45594000000E+02  0.51100000000E-03 0. -1.
    9900012    2    1    2    0    0 -0.14487732782E+02  0.23694091295E+02  0.29696154852E+02  0.50528856177E+02  0.29999988835E+02 0.  0.
         12    1    1    2    0    0  0.14487732782E+02 -0.23694091295E+02 -0.29696154852E+02  0.40659143823E+02  0.00000000000E+00 0. -1.
         11    1    3    3    0    0 -0.28120129945E+01 -0.34960903393E+01  0.39218270425E+01  0.59590932493E+01  0.51100000000E-03 0.  1.
        -11    1    3    3    0    0 -0.12631409296E+02  0.53556169789E+01  0.55744462259E+01  0.14809104801E+02  0.51100000000E-03 0. -1.
        -12    1    3    3    0    0  0.95568950846E+00  0.21834564655E+02  0.20199881584E+02  0.29760658126E+02  0.00000000000E+00 0.  1.
</event>
<event>
 7    1  0.3383281E-011  0.5052886E+02  0.7816164E-02  0.1300439E+00
        -11   -1    0    0    0    0  0.00000000000E+00  0.00000000000E+00  0.45593999997E+02  0.45594000000E+02  0.51100000000E-03 0. -1.
         11   -1    0    0    0    0 -0.00000000000E+00 -0.00000000000E+00 -0.45593999997E+02  0.45594000000E+02  0.51100000000E-03 0.  1.
    9900012    2    1    2    0    0 -0.10504577291E+02 -0.67808797587E+01 -0.38689009763E+02  0.50528856492E+02  0.29999989792E+02 0.  0.
         12    1    1    2    0    0  0.10504577291E+02  0.67808797587E+01  0.38689009763E+02  0.40659143508E+02  0.00000000000E+00 0. -1.
         11    1    3    3    0    0 -0.53465185305E+01 -0.37507182081E+01 -0.18202052352E+01  0.67798447499E+01  0.51100000000E-03 0. -1.
        -11    1    3    3    0    0 -0.91382579307E+01 -0.92292520147E+01 -0.32922415130E+02  0.35391697742E+02  0.51100000000E-03 0.  1.
         12    1    3    3    0    0  0.39801991704E+01  0.61990904641E+01 -0.39463893980E+01  0.83573140003E+01  0.00000000000E+00 0. -1.
</event>
<event>
 7    1  0.3383281E-011  0.5052885E+02  0.7816164E-02  0.1300439E+00
        -11   -1    0    0    0    0  0.00000000000E+00  0.00000000000E+00  0.45593999997E+02  0.45594000000E+02  0.51100000000E-03 0.  1.
         11   -1    0    0    0    0 -0.00000000000E+00 -0.00000000000E+00 -0.45593999997E+02  0.45594000000E+02  0.51100000000E-03 0. -1.
    9900012    2    1    2    0    0 -0.11408163654E+02 -0.24011013438E+02  0.30765102395E+02  0.50528849865E+02  0.29999969651E+02 0.  0.
         12    1    1    2    0    0  0.11408163654E+02  0.24011013438E+02 -0.30765102395E+02  0.40659150135E+02  0.00000000000E+00 0. -1.
         11    1    3    3    0    0 -0.66087715013E+00  0.10758976566E+01  0.35370677905E+00  0.13112677537E+01  0.51100000000E-03 0. -1.
        -11    1    3    3    0    0  0.66858925977E+01 -0.14103474882E+02  0.21972405354E+02  0.26951730202E+02  0.51100000000E-03 0.  1.
         12    1    3    3    0    0 -0.17433179101E+02 -0.10983436212E+02  0.84389902619E+01  0.22265851909E+02  0.00000000000E+00 0. -1.
</event>
<event>
 7    1  0.3383281E-011  0.5052888E+02  0.7816164E-02  0.1300439E+00
        -11   -1    0    0    0    0  0.00000000000E+00  0.00000000000E+00  0.45593999997E+02  0.45594000000E+02  0.51100000000E-03 0.  1.
         11   -1    0    0    0    0 -0.00000000000E+00 -0.00000000000E+00 -0.45593999997E+02  0.45594000000E+02  0.51100000000E-03 0. -1.
    9900012    2    1    2    0    0  0.21088900986E+01  0.38399284876E+02 -0.13198934990E+02  0.50528875792E+02  0.30000048459E+02 0.  0.
         12    1    1    2    0    0 -0.21088900986E+01 -0.38399284876E+02  0.13198934990E+02  0.40659124208E+02  0.00000000000E+00 0. -1.
         11    1    3    3    0    0  0.23128062680E+01  0.22902512183E+01 -0.72814566535E+01  0.79758344225E+01  0.51100000000E-03 0. -1.
        -11    1    3    3    0    0  0.64412118846E-01  0.27450671976E+02 -0.13903579019E+02  0.30770977408E+02  0.51100000000E-03 0.  1.
         12    1    3    3    0    0 -0.26832828825E+00  0.86583616823E+01  0.79861006827E+01  0.11782063962E+02  0.00000000000E+00 0. -1.
</event>
<event>
 7    1  0.3383281E-011  0.5052885E+02  0.7816164E-02  0.1300439E+00
        -11   -1    0    0    0    0  0.00000000000E+00  0.00000000000E+00  0.45593999997E+02  0.45594000000E+02  0.51100000000E-03 0.  1.
         11   -1    0    0    0    0 -0.00000000000E+00 -0.00000000000E+00 -0.45593999997E+02  0.45594000000E+02  0.51100000000E-03 0. -1.
    9900012    2    1    2    0    0 -0.81380057400E+01 -0.28284286751E+02  0.28052419756E+02  0.50528852584E+02  0.29999977913E+02 0.  0.
         12    1    1    2    0    0  0.81380057400E+01  0.28284286751E+02 -0.28052419756E+02  0.40659147416E+02  0.00000000000E+00 0. -1.
         11    1    3    3    0    0  0.31279977843E+00 -0.68687632397E+00 -0.89511815996E+00  0.11708456633E+01  0.51100000000E-03 0. -1.
        -11    1    3    3    0    0  0.92320726625E+00 -0.66810432786E+01 -0.50008952898E+01  0.83962851850E+01  0.51100000000E-03 0.  1.
        -12    1    3    3    0    0 -0.93740127847E+01 -0.20916367149E+02  0.33948433206E+02  0.40961721735E+02  0.00000000000E+00 0.  1.
</event>
<event>
 7    1  0.3383281E-011  0.5052886E+02  0.7816164E-02  0.1300439E+00
        -11   -1    0    0    0    0  0.00000000000E+00  0.00000000000E+00  0.45593999997E+02  0.45594000000E+02  0.51100000000E-03 0.  1.
         11   -1    0    0    0    0 -0.00000000000E+00 -0.00000000000E+00 -0.45593999997E+02  0.45594000000E+02  0.51100000000E-03 0. -1.
    9900012    2    1    2    0    0  0.12421766787E+02  0.21743535640E+02  0.32032549078E+02  0.50528857944E+02  0.29999994208E+02 0.  0.
         12    1    1    2    0    0 -0.12421766787E+02 -0.21743535640E+02 -0.32032549078E+02  0.40659142056E+02  0.00000000000E+00 0. -1.
         11    1    3    3    0    0  0.15614813958E+01  0.94336252136E+01 -0.12403293108E+01  0.96420913645E+01  0.51100000000E-03 0. -1.
        -11    1    3    3    0    0  0.73678639240E+01  0.16639008856E+02  0.25743098458E+02  0.31525373162E+02  0.51100000000E-03 0.  1.
        -12    1    3    3    0    0  0.34924214677E+01 -0.43290984294E+01  0.75297799308E+01  0.93613934180E+01  0.00000000000E+00 0.  1.
</event>
<event>
 7    1  0.3383281E-011  0.5052886E+02  0.7816164E-02  0.1300439E+00
        -11   -1    0    0    0    0  0.00000000000E+00  0.00000000000E+00  0.45593999997E+02  0.45594000000E+02  0.51100000000E-03 0.  1.
         11   -1    0    0    0    0 -0.00000000000E+00 -0.00000000000E+00 -0.45593999997E+02  0.45594000000E+02  0.51100000000E-03 0. -1.
    9900012    2    1    2    0    0  0.93534421909E+01 -0.28583068696E+02  0.27362144342E+02  0.50528860316E+02  0.30000001416E+02 0.  0.
         12    1    1    2    0    0 -0.93534421909E+01  0.28583068696E+02 -0.27362144342E+02  0.40659139684E+02  0.00000000000E+00 0. -1.
         11    1    3    3    0    0 -0.66601277150E+01 -0.14032425618E+02  0.27911474612E+01  0.15781532698E+02  0.51100000000E-03 0.  1.
        -11    1    3    3    0    0 -0.73513199463E+00 -0.41777148042E+01  0.17224804777E+01  0.45782812596E+01  0.51100000000E-03 0. -1.
         12    1    3    3    0    0  0.16748701901E+02 -0.10372928274E+02  0.22848516403E+02  0.30169046358E+02  0.00000000000E+00 0. -1.
</event>
<event>
 7    1  0.3383281E-011  0.5052886E+02  0.7816164E-02  0.1300439E+00
        -11   -1    0    0    0    0  0.00000000000E+00  0.00000000000E+00  0.45593999997E+02  0.45594000000E+02  0.51100000000E-03 0.  1.
         11   -1    0    0    0    0 -0.00000000000E+00 -0.00000000000E+00 -0.45593999997E+02  0.45594000000E+02  0.51100000000E-03 0. -1.
    9900012    2    1    2    0    0  0.18761427433E+02 -0.35791632502E+02  0.44870787464E+01  0.50528855983E+02  0.29999988247E+02 0.  0.
         12    1    1    2    0    0 -0.18761427433E+02  0.35791632502E+02 -0.44870787464E+01  0.40659144017E+02  0.00000000000E+00 0. -1.
         11    1    3    3    0    0  0.15212048234E+02 -0.21671851468E+02  0.11800424748E+02  0.28988369772E+02  0.51100000000E-03 0. -1.
        -11    1    3    3    0    0  0.30603585532E+01 -0.10551170396E+02  0.23439728474E+01  0.11233307624E+02  0.51100000000E-03 0.  1.
         12    1    3    3    0    0  0.48902064496E+00 -0.35686106375E+01 -0.96573188489E+01  0.10307178587E+02  0.00000000000E+00 0. -1.
</event>
<event>
 7    1  0.3383281E-011  0.5052885E+02  0.7816164E-02  0.1300439E+00
        -11   -1    0    0    0    0  0.00000000000E+00  0.00000000000E+00  0.45593999997E+02  0.45594000000E+02  0.51100000000E-03 0.  1.
         11   -1    0    0    0    0 -0.00000000000E+00 -0.00000000000E+00 -0.45593999997E+02  0.45594000000E+02  0.51100000000E-03 0. -1.
    9900012    2    1    2    0    0  0.46339194601E+01  0.92323918088E+01  0.39325004001E+02  0.50528853332E+02  0.29999980188E+02 0.  0.
         12    1    1    2    0    0 -0.46339194601E+01 -0.92323918088E+01 -0.39325004001E+02  0.40659146668E+02  0.00000000000E+00 0. -1.
         11    1    3    3    0    0 -0.80077232681E+01  0.52873086836E+00  0.52846113695E+01  0.96088660027E+01  0.51100000000E-03 0. -1.
        -11    1    3    3    0    0  0.86363705312E+01  0.82308606464E+01  0.75374834734E+01  0.14111967273E+02  0.51100000000E-03 0.  1.
        -12    1    3    3    0    0  0.40052721970E+01  0.47280029410E+00  0.26502909159E+02  0.26808020057E+02  0.00000000000E+00 0.  1.
</event>
<event>
 7    1  0.3383281E-011  0.5052886E+02  0.7816164E-02  0.1300439E+00
        -11   -1    0    0    0    0  0.00000000000E+00  0.00000000000E+00  0.45593999997E+02  0.45594000000E+02  0.51100000000E-03 0. -1.
         11   -1    0    0    0    0 -0.00000000000E+00 -0.00000000000E+00 -0.45593999997E+02  0.45594000000E+02  0.51100000000E-03 0.  1.
    9900012    2    1    2    0    0 -0.34845540810E+02 -0.20926406786E+02 -0.10195968557E+01  0.50528858432E+02  0.29999995691E+02 0.  0.
         12    1    1    2    0    0  0.34845540810E+02  0.20926406786E+02  0.10195968557E+01  0.40659141568E+02  0.00000000000E+00 0. -1.
         11    1    3    3    0    0 -0.13645089991E+02 -0.14603313913E+02 -0.33351871800E+01  0.20262495698E+02  0.51100000000E-03 0. -1.
        -11    1    3    3    0    0 -0.44921862619E+01 -0.10159550961E+02 -0.42714900124E+01  0.11901337754E+02  0.51100000000E-03 0.  1.
         12    1    3    3    0    0 -0.16708264557E+02  0.38364580892E+01  0.65870803367E+01  0.18365024980E+02  0.00000000000E+00 0. -1.
</event>
<event>
 7    1  0.3383281E-011  0.5052886E+02  0.7816164E-02  0.1300439E+00
        -11   -1    0    0    0    0  0.00000000000E+00  0.00000000000E+00  0.45593999997E+02  0.45594000000E+02  0.51100000000E-03 0.  1.
         11   -1    0    0    0    0 -0.00000000000E+00 -0.00000000000E+00 -0.45593999997E+02  0.45594000000E+02  0.51100000000E-03 0. -1.
    9900012    2    1    2    0    0  0.38845160992E+02 -0.83666518539E+01 -0.86149833339E+01  0.50528864082E+02  0.30000012864E+02 0.  0.
         12    1    1    2    0    0 -0.38845160992E+02  0.83666518539E+01  0.86149833339E+01  0.40659135918E+02  0.00000000000E+00 0. -1.
         11    1    3    3    0    0  0.11494312153E+01 -0.28002910123E+01 -0.38468647376E+00  0.30513613054E+01  0.51100000000E-03 0. -1.
        -11    1    3    3    0    0  0.22333025195E+02 -0.16330202068E+02 -0.76733031411E+01  0.28710957756E+02  0.51100000000E-03 0.  1.
         12    1    3    3    0    0  0.15362704582E+02  0.10763841226E+02 -0.55699371908E+00  0.18766545020E+02  0.00000000000E+00 0. -1.
</event>
<event>
 7    1  0.3383281E-011  0.5052886E+02  0.7816164E-02  0.1300439E+00
        -11   -1    0    0    0    0  0.00000000000E+00  0.00000000000E+00  0.45593999997E+02  0.45594000000E+02  0.51100000000E-03 0.  1.
         11   -1    0    0    0    0 -0.00000000000E+00 -0.00000000000E+00 -0.45593999997E+02  0.45594000000E+02  0.51100000000E-03 0. -1.
    9900012    2    1    2    0    0  0.38874862947E+02 -0.54058130572E+01  0.10615456551E+02  0.50528859554E+02  0.29999999102E+02 0.  0.
         12    1    1    2    0    0 -0.38874862947E+02  0.54058130572E+01 -0.10615456551E+02  0.40659140446E+02  0.00000000000E+00 0. -1.
         11    1    3    3    0    0  0.30149888560E+01 -0.30056617935E+01  0.30025691965E+01  0.52095664560E+01  0.51100000000E-03 0. -1.
        -11    1    3    3    0    0  0.19485296162E+02  0.82162179171E+01  0.13313628424E+02  0.24988711560E+02  0.51100000000E-03 0.  1.
         12    1    3    3    0    0  0.16374577930E+02 -0.10616369181E+02 -0.57007410688E+01  0.20330581538E+02  0.00000000000E+00 0. -1.
</event>
<event>
 7    1  0.3383281E-011  0.5052887E+02  0.7816164E-02  0.1300439E+00
        -11   -1    0    0    0    0  0.00000000000E+00  0.00000000000E+00  0.45593999997E+02  0.45594000000E+02  0.51100000000E-03 0.  1.
         11   -1    0    0    0    0 -0.00000000000E+00 -0.00000000000E+00 -0.45593999997E+02  0.45594000000E+02  0.51100000000E-03 0. -1.
    9900012    2    1    2    0    0  0.10793397982E+02  0.86406525604E+01  0.38236196627E+02  0.50528867580E+02  0.30000023497E+02 0.  0.
         12    1    1    2    0    0 -0.10793397982E+02 -0.86406525604E+01 -0.38236196627E+02  0.40659132420E+02  0.00000000000E+00 0. -1.
         11    1    3    3    0    0  0.55151608852E+01  0.60917493840E+01  0.66540890314E+01  0.10573708491E+02  0.51100000000E-03 0. -1.
        -11    1    3    3    0    0  0.12765557228E+02  0.73331650065E+01  0.14305498057E+02  0.20527592048E+02  0.51100000000E-03 0.  1.
        -12    1    3    3    0    0 -0.74873201320E+01 -0.47842618301E+01  0.17276609538E+02  0.19427567041E+02  0.00000000000E+00 0.  1.
</event>
<event>
 7    1  0.3383281E-011  0.5052885E+02  0.7816164E-02  0.1300439E+00
        -11   -1    0    0    0    0  0.00000000000E+00  0.00000000000E+00  0.45593999997E+02  0.45594000000E+02  0.51100000000E-03 0.  1.
         11   -1    0    0    0    0 -0.00000000000E+00 -0.00000000000E+00 -0.45593999997E+02  0.45594000000E+02  0.51100000000E-03 0. -1.
    9900012    2    1    2    0    0 -0.39042772412E+02 -0.10942514556E+02  0.30149433391E+01  0.50528848684E+02  0.29999966060E+02 0.  0.
         12    1    1    2    0    0  0.39042772412E+02  0.10942514556E+02 -0.30149433391E+01  0.40659151316E+02  0.00000000000E+00 0. -1.
         11    1    3    3    0    0 -0.14157355587E+02  0.48762256225E+01 -0.16615697276E+01  0.15065493943E+02  0.51100000000E-03 0. -1.
        -11    1    3    3    0    0 -0.10756577153E+02 -0.96516047678E+01 -0.70636744733E+01  0.16085798829E+02  0.51100000000E-03 0.  1.
         12    1    3    3    0    0 -0.14128839672E+02 -0.61671354103E+01  0.11740187540E+02  0.19377555912E+02  0.00000000000E+00 0. -1.
</event>
<event>
 7    1  0.3383281E-011  0.5052889E+02  0.7816164E-02  0.1300439E+00
        -11   -1    0    0    0    0  0.00000000000E+00  0.00000000000E+00  0.45593999997E+02  0.45594000000E+02  0.51100000000E-03 0.  1.
         11   -1    0    0    0    0 -0.00000000000E+00 -0.00000000000E+00 -0.45593999997E+02  0.45594000000E+02  0.51100000000E-03 0. -1.
    9900012    2    1    2    0    0  0.16526465499E+02 -0.42255586556E+01  0.36907778611E+02  0.50528886263E+02  0.30000080286E+02 0.  0.
         12    1    1    2    0    0 -0.16526465499E+02  0.42255586556E+01 -0.36907778611E+02  0.40659113737E+02  0.00000000000E+00 0. -1.
         11    1    3    3    0    0  0.65403917601E+01  0.77771440250E+01  0.36512355057E+01  0.10797787484E+02  0.51100000000E-03 0. -1.
        -11    1    3    3    0    0 -0.33514591637E+01 -0.50721172666E+01  0.56577870947E+01  0.83047701451E+01  0.51100000000E-03 0.  1.
        -12    1    3    3    0    0  0.13337532903E+02 -0.69305854140E+01  0.27598756011E+02  0.31426328635E+02  0.00000000000E+00 0.  1.
</event>
<event>
 7    1  0.3383281E-011  0.5052885E+02  0.7816164E-02  0.1300439E+00
        -11   -1    0    0    0    0  0.00000000000E+00  0.00000000000E+00  0.45593999997E+02  0.45594000000E+02  0.51100000000E-03 0.  1.
         11   -1    0    0    0    0 -0.00000000000E+00 -0.00000000000E+00 -0.45593999997E+02  0.45594000000E+02  0.51100000000E-03 0. -1.
    9900012    2    1    2    0    0 -0.11715234189E+01 -0.26342365793E+02  0.30949533152E+02  0.50528852136E+02  0.29999976554E+02 0.  0.
         12    1    1    2    0    0  0.11715234189E+01  0.26342365793E+02 -0.30949533152E+02  0.40659147864E+02  0.00000000000E+00 0. -1.
         11    1    3    3    0    0  0.78655756527E+01 -0.53136774418E+01  0.10694653161E+02  0.14299582329E+02  0.51100000000E-03 0. -1.
        -11    1    3    3    0    0 -0.10852710487E+02 -0.10900629966E+02  0.20864566641E+02  0.25921712906E+02  0.51100000000E-03 0.  1.
         12    1    3    3    0    0  0.18156114156E+01 -0.10128058385E+02 -0.60968665051E+00  0.10307556901E+02  0.00000000000E+00 0. -1.
</event>
<event>
 7    1  0.3383281E-011  0.5052886E+02  0.7816164E-02  0.1300439E+00
        -11   -1    0    0    0    0  0.00000000000E+00  0.00000000000E+00  0.45593999997E+02  0.45594000000E+02  0.51100000000E-03 0. -1.
         11   -1    0    0    0    0 -0.00000000000E+00 -0.00000000000E+00 -0.45593999997E+02  0.45594000000E+02  0.51100000000E-03 0.  1.
    9900012    2    1    2    0    0 -0.59220153938E+01 -0.36287973376E+02 -0.17357366748E+02  0.50528862546E+02  0.30000008194E+02 0.  0.
         12    1    1    2    0    0  0.59220153938E+01  0.36287973376E+02  0.17357366748E+02  0.40659137454E+02  0.00000000000E+00 0. -1.
         11    1    3    3    0    0 -0.53593012259E+01 -0.37687083941E+01  0.51908239680E+01  0.83588232615E+01  0.51100000000E-03 0. -1.
        -11    1    3    3    0    0 -0.60775406942E+01 -0.13008529627E+02 -0.45584596276E+01  0.15064458118E+02  0.51100000000E-03 0.  1.
         12    1    3    3    0    0  0.55148265263E+01 -0.19510735355E+02 -0.17989731089E+02  0.27105581166E+02  0.00000000000E+00 0. -1.
</event>
<event>
 7    1  0.3383281E-011  0.5052886E+02  0.7816164E-02  0.1300439E+00
        -11   -1    0    0    0    0  0.00000000000E+00  0.00000000000E+00  0.45593999997E+02  0.45594000000E+02  0.51100000000E-03 0.  1.
         11   -1    0    0    0    0 -0.00000000000E+00 -0.00000000000E+00 -0.45593999997E+02  0.45594000000E+02  0.51100000000E-03 0. -1.
    9900012    2    1    2    0    0  0.27775681151E+02 -0.19125989042E+02  0.22712847595E+02  0.50528863682E+02  0.30000011648E+02 0.  0.
         12    1    1    2    0    0 -0.27775681151E+02  0.19125989042E+02 -0.22712847595E+02  0.40659136318E+02  0.00000000000E+00 0. -1.
         11    1    3    3    0    0  0.77042582859E+01 -0.32736219568E+01 -0.24930470058E+01  0.87342704381E+01  0.51100000000E-03 0. -1.
        -11    1    3    3    0    0  0.15585564269E+00  0.25856523045E+01  0.10723879534E+02  0.11032292660E+02  0.51100000000E-03 0.  1.
        -12    1    3    3    0    0  0.19915567223E+02 -0.18438019389E+02  0.14482015067E+02  0.30762300584E+02  0.00000000000E+00 0.  1.
</event>
<event>
 7    1  0.3383281E-011  0.5052894E+02  0.7816164E-02  0.1300439E+00
        -11   -1    0    0    0    0  0.00000000000E+00  0.00000000000E+00  0.45593999997E+02  0.45594000000E+02  0.51100000000E-03 0.  1.
         11   -1    0    0    0    0 -0.00000000000E+00 -0.00000000000E+00 -0.45593999997E+02  0.45594000000E+02  0.51100000000E-03 0. -1.
    9900012    2    1    2    0    0 -0.24053021941E+02 -0.15027170927E+02  0.29134095795E+02  0.50528938669E+02  0.30000239577E+02 0.  0.
         12    1    1    2    0    0  0.24053021941E+02  0.15027170927E+02 -0.29134095795E+02  0.40659061331E+02  0.00000000000E+00 0. -1.
         11    1    3    3    0    0 -0.10863391885E+02 -0.11507360650E+02  0.67577193591E+01  0.17207539150E+02  0.51100000000E-03 0. -1.
        -11    1    3    3    0    0 -0.60121574162E+01 -0.89845508840E+01  0.19409728679E+01  0.10983422386E+02  0.51100000000E-03 0.  1.
         12    1    3    3    0    0 -0.71774726395E+01  0.54647406075E+01  0.20435403568E+02  0.22337977133E+02  0.00000000000E+00 0. -1.
</event>
<event>
 7    1  0.3383281E-011  0.5052886E+02  0.7816164E-02  0.1300439E+00
        -11   -1    0    0    0    0  0.00000000000E+00  0.00000000000E+00  0.45593999997E+02  0.45594000000E+02  0.51100000000E-03 0.  1.
         11   -1    0    0    0    0 -0.00000000000E+00 -0.00000000000E+00 -0.45593999997E+02  0.45594000000E+02  0.51100000000E-03 0. -1.
    9900012    2    1    2    0    0  0.13067118637E+02  0.10741507047E+02  0.36973455939E+02  0.50528855799E+02  0.29999987685E+02 0.  0.
         12    1    1    2    0    0 -0.13067118637E+02 -0.10741507047E+02 -0.36973455939E+02  0.40659144201E+02  0.00000000000E+00 0. -1.
         11    1    3    3    0    0  0.16203383741E+01 -0.22158890883E+01 -0.26167333362E+00  0.27575594450E+01  0.51100000000E-03 0. -1.
        -11    1    3    3    0    0  0.81428440598E+01  0.81557997052E+01  0.15679820061E+01  0.11631059541E+02  0.51100000000E-03 0.  1.
         12    1    3    3    0    0  0.33039362028E+01  0.48015964299E+01  0.35667147267E+02  0.36140236812E+02  0.00000000000E+00 0. -1.
</event>
<event>
 7    1  0.3383281E-011  0.5052885E+02  0.7816164E-02  0.1300439E+00
        -11   -1    0    0    0    0  0.00000000000E+00  0.00000000000E+00  0.45593999997E+02  0.45594000000E+02  0.51100000000E-03 0.  1.
         11   -1    0    0    0    0 -0.00000000000E+00 -0.00000000000E+00 -0.45593999997E+02  0.45594000000E+02  0.51100000000E-03 0. -1.
    9900012    2    1    2    0    0  0.16473316637E+02  0.94652333273E+01  0.35947258115E+02  0.50528853809E+02  0.29999981638E+02 0.  0.
         12    1    1    2    0    0 -0.16473316637E+02 -0.94652333273E+01 -0.35947258115E+02  0.40659146191E+02  0.00000000000E+00 0. -1.
         11    1    3    3    0    0  0.71461332850E+00  0.82437817229E-01 -0.29690936349E+01  0.30549935314E+01  0.51100000000E-03 0. -1.
        -11    1    3    3    0    0  0.40595921601E+01 -0.47499935505E+01  0.25638382100E+01  0.67539613461E+01  0.51100000000E-03 0.  1.
        -12    1    3    3    0    0  0.11699111149E+02  0.14132789061E+02  0.36352513540E+02  0.40719898931E+02  0.00000000000E+00 0.  1.
</event>
<event>
 7    1  0.3383281E-011  0.5052887E+02  0.7816164E-02  0.1300439E+00
        -11   -1    0    0    0    0  0.00000000000E+00  0.00000000000E+00  0.45593999997E+02  0.45594000000E+02  0.51100000000E-03 0. -1.
         11   -1    0    0    0    0 -0.00000000000E+00 -0.00000000000E+00 -0.45593999997E+02  0.45594000000E+02  0.51100000000E-03 0.  1.
    9900012    2    1    2    0    0 -0.28263286951E+02 -0.27396802345E+02  0.10186580469E+02  0.50528873231E+02  0.30000040672E+02 0.  0.
         12    1    1    2    0    0  0.28263286951E+02  0.27396802345E+02 -0.10186580469E+02  0.40659126769E+02  0.00000000000E+00 0. -1.
         11    1    3    3    0    0 -0.14176706702E+00  0.25739975154E+01  0.14559997696E+01  0.29606581533E+01  0.51100000000E-03 0.  1.
        -11    1    3    3    0    0  0.29034027995E+01 -0.21181439008E+01  0.43545186274E+01  0.56460706813E+01  0.51100000000E-03 0. -1.
        -12    1    3    3    0    0 -0.31024922683E+02 -0.27852655960E+02  0.43760620717E+01  0.41922144396E+02  0.00000000000E+00 0.  1.
</event>
<event>
 7    1  0.3383281E-011  0.5052886E+02  0.7816164E-02  0.1300439E+00
        -11   -1    0    0    0    0  0.00000000000E+00  0.00000000000E+00  0.45593999997E+02  0.45594000000E+02  0.51100000000E-03 0.  1.
         11   -1    0    0    0    0 -0.00000000000E+00 -0.00000000000E+00 -0.45593999997E+02  0.45594000000E+02  0.51100000000E-03 0. -1.
    9900012    2    1    2    0    0  0.84168614389E+01 -0.19693814164E+02  0.34561189753E+02  0.50528859454E+02  0.29999998796E+02 0.  0.
         12    1    1    2    0    0 -0.84168614389E+01  0.19693814164E+02 -0.34561189753E+02  0.40659140546E+02  0.00000000000E+00 0. -1.
         11    1    3    3    0    0  0.11304794962E+01 -0.13436292368E+02  0.16034192121E+02  0.20950113454E+02  0.51100000000E-03 0. -1.
        -11    1    3    3    0    0 -0.31206683054E+01 -0.10692302549E+02  0.12565402969E+02  0.16791463799E+02  0.51100000000E-03 0.  1.
         12    1    3    3    0    0  0.10407050248E+02  0.44347807520E+01  0.59615946621E+01  0.12787282201E+02  0.00000000000E+00 0. -1.
</event>
<event>
 7    1  0.3383281E-011  0.5052888E+02  0.7816164E-02  0.1300439E+00
        -11   -1    0    0    0    0  0.00000000000E+00  0.00000000000E+00  0.45593999997E+02  0.45594000000E+02  0.51100000000E-03 0. -1.
         11   -1    0    0    0    0 -0.00000000000E+00 -0.00000000000E+00 -0.45593999997E+02  0.45594000000E+02  0.51100000000E-03 0.  1.
    9900012    2    1    2    0    0 -0.23259928963E+02  0.33239381007E+02 -0.26986870897E+01  0.50528884698E+02  0.30000075528E+02 0.  0.
         12    1    1    2    0    0  0.23259928963E+02 -0.33239381007E+02  0.26986870897E+01  0.40659115302E+02  0.00000000000E+00 0. -1.
         11    1    3    3    0    0  0.28818670825E+01  0.30025469944E+01 -0.33570398731E+01  0.53469770249E+01  0.51100000000E-03 0. -1.
        -11    1    3    3    0    0 -0.20268688763E+01  0.30875715096E+01 -0.71423349751E+01  0.80407863065E+01  0.51100000000E-03 0.  1.
        -12    1    3    3    0    0 -0.24114927170E+02  0.27149262503E+02  0.78006877586E+01  0.37141121367E+02  0.00000000000E+00 0.  1.
</event>
<event>
 7    1  0.3383281E-011  0.5052887E+02  0.7816164E-02  0.1300439E+00
        -11   -1    0    0    0    0  0.00000000000E+00  0.00000000000E+00  0.45593999997E+02  0.45594000000E+02  0.51100000000E-03 0. -1.
         11   -1    0    0    0    0 -0.00000000000E+00 -0.00000000000E+00 -0.45593999997E+02  0.45594000000E+02  0.51100000000E-03 0.  1.
    9900012    2    1    2    0    0  0.33564819463E+01  0.22288363272E+02 -0.33839740648E+02  0.50528866272E+02  0.30000019520E+02 0.  0.
         12    1    1    2    0    0 -0.33564819463E+01 -0.22288363272E+02  0.33839740648E+02  0.40659133728E+02  0.00000000000E+00 0. -1.
         11    1    3    3    0    0 -0.69603228924E+00  0.46852593046E+01 -0.99895138460E+01  0.11055609564E+02  0.51100000000E-03 0. -1.
        -11    1    3    3    0    0 -0.59016491413E+01  0.46705649505E+01 -0.21754309242E+02  0.23019418116E+02  0.51100000000E-03 0.  1.
         12    1    3    3    0    0  0.99541633769E+01  0.12932539017E+02 -0.20959175594E+01  0.16453838591E+02  0.00000000000E+00 0. -1.
</event>
<event>
 7    1  0.3383281E-011  0.5052883E+02  0.7816164E-02  0.1300439E+00
        -11   -1    0    0    0    0  0.00000000000E+00  0.00000000000E+00  0.45593999997E+02  0.45594000000E+02  0.51100000000E-03 0.  1.
         11   -1    0    0    0    0 -0.00000000000E+00 -0.00000000000E+00 -0.45593999997E+02  0.45594000000E+02  0.51100000000E-03 0. -1.
    9900012    2    1    2    0    0 -0.22214174792E+02 -0.29675410565E+02  0.16705337251E+02  0.50528833180E+02  0.29999918932E+02 0.  0.
         12    1    1    2    0    0  0.22214174792E+02  0.29675410565E+02 -0.16705337251E+02  0.40659166820E+02  0.00000000000E+00 0. -1.
         11    1    3    3    0    0 -0.79702193549E+01 -0.11495262621E+02  0.21630529201E+02  0.25759372140E+02  0.51100000000E-03 0. -1.
        -11    1    3    3    0    0 -0.22983591998E+01 -0.57151134803E+01  0.15133854651E+01  0.63431311614E+01  0.51100000000E-03 0.  1.
        -12    1    3    3    0    0 -0.11945596237E+02 -0.12465034464E+02 -0.64385774151E+01  0.18426329878E+02  0.00000000000E+00 0.  1.
</event>
<event>
 7    1  0.3383281E-011  0.5052886E+02  0.7816164E-02  0.1300439E+00
        -11   -1    0    0    0    0  0.00000000000E+00  0.00000000000E+00  0.45593999997E+02  0.45594000000E+02  0.51100000000E-03 0. -1.
         11   -1    0    0    0    0 -0.00000000000E+00 -0.00000000000E+00 -0.45593999997E+02  0.45594000000E+02  0.51100000000E-03 0.  1.
    9900012    2    1    2    0    0  0.35533195385E+02  0.26615127596E+01  0.19582485177E+02  0.50528863879E+02  0.30000012246E+02 0.  0.
         12    1    1    2    0    0 -0.35533195385E+02 -0.26615127596E+01 -0.19582485177E+02  0.40659136121E+02  0.00000000000E+00 0. -1.
         11    1    3    3    0    0  0.71579146594E+01  0.71250720286E+00  0.11027790510E+02  0.13166456341E+02  0.51100000000E-03 0. -1.
        -11    1    3    3    0    0  0.20780006977E+02 -0.36287001592E+01  0.15053922141E+02  0.25915183328E+02  0.51100000000E-03 0.  1.
         12    1    3    3    0    0  0.75952737481E+01  0.55777057159E+01 -0.64992274738E+01  0.11447224210E+02  0.00000000000E+00 0. -1.
</event>
<event>
 7    1  0.3383281E-011  0.5052885E+02  0.7816164E-02  0.1300439E+00
        -11   -1    0    0    0    0  0.00000000000E+00  0.00000000000E+00  0.45593999997E+02  0.45594000000E+02  0.51100000000E-03 0. -1.
         11   -1    0    0    0    0 -0.00000000000E+00 -0.00000000000E+00 -0.45593999997E+02  0.45594000000E+02  0.51100000000E-03 0.  1.
    9900012    2    1    2    0    0  0.11164713212E+02 -0.10058368491E+02 -0.37780213838E+02  0.50528853975E+02  0.29999982144E+02 0.  0.
         12    1    1    2    0    0 -0.11164713212E+02  0.10058368491E+02  0.37780213838E+02  0.40659146025E+02  0.00000000000E+00 0. -1.
         11    1    3    3    0    0 -0.63047972201E+01  0.57786211343E+01 -0.99412590968E+01  0.13113792849E+02  0.51100000000E-03 0. -1.
        -11    1    3    3    0    0  0.20002506714E+00 -0.31630886325E+00 -0.44229931134E+01  0.44387982233E+01  0.51100000000E-03 0.  1.
        -12    1    3    3    0    0  0.17269485365E+02 -0.15520680762E+02 -0.23415961628E+02  0.32976262903E+02  0.00000000000E+00 0.  1.
</event>
<event>
 7    1  0.3383281E-011  0.5052886E+02  0.7816164E-02  0.1300439E+00
        -11   -1    0    0    0    0  0.00000000000E+00  0.00000000000E+00  0.45593999997E+02  0.45594000000E+02  0.51100000000E-03 0.  1.
         11   -1    0    0    0    0 -0.00000000000E+00 -0.00000000000E+00 -0.45593999997E+02  0.45594000000E+02  0.51100000000E-03 0. -1.
    9900012    2    1    2    0    0  0.25144096136E+00  0.99859987226E+01  0.39412969043E+02  0.50528861767E+02  0.30000005827E+02 0.  0.
         12    1    1    2    0    0 -0.25144096136E+00 -0.99859987226E+01 -0.39412969043E+02  0.40659138233E+02  0.00000000000E+00 0. -1.
         11    1    3    3    0    0 -0.30638888504E+01  0.10550218174E+02  0.30963997682E+01  0.11414123278E+02  0.51100000000E-03 0. -1.
        -11    1    3    3    0    0 -0.36597012171E+01 -0.42369095697E+01  0.83106865964E+01  0.10020595175E+02  0.51100000000E-03 0.  1.
        -12    1    3    3    0    0  0.69750310289E+01  0.36726901179E+01  0.28005882679E+02  0.29094143314E+02  0.00000000000E+00 0.  1.
</event>
<event>
 7    1  0.3383281E-011  0.5052886E+02  0.7816164E-02  0.1300439E+00
        -11   -1    0    0    0    0  0.00000000000E+00  0.00000000000E+00  0.45593999997E+02  0.45594000000E+02  0.51100000000E-03 0.  1.
         11   -1    0    0    0    0 -0.00000000000E+00 -0.00000000000E+00 -0.45593999997E+02  0.45594000000E+02  0.51100000000E-03 0. -1.
    9900012    2    1    2    0    0 -0.95848956001E+00  0.38885900743E+02  0.11837800204E+02  0.50528862128E+02  0.30000006924E+02 0.  0.
         12    1    1    2    0    0  0.95848956001E+00 -0.38885900743E+02 -0.11837800204E+02  0.40659137872E+02  0.00000000000E+00 0. -1.
         11    1    3    3    0    0 -0.61307165517E+01  0.11679422753E+02  0.53536103546E+01  0.14235720754E+02  0.51100000000E-03 0. -1.
        -11    1    3    3    0    0  0.12956203213E+02  0.24033523483E+02  0.49418044709E+01  0.27746979735E+02  0.51100000000E-03 0.  1.
         12    1    3    3    0    0 -0.77839762211E+01  0.31729545065E+01  0.15423853783E+01  0.85461616394E+01  0.00000000000E+00 0. -1.
</event>
<event>
 7    1  0.3383281E-011  0.5052886E+02  0.7816164E-02  0.1300439E+00
        -11   -1    0    0    0    0  0.00000000000E+00  0.00000000000E+00  0.45593999997E+02  0.45594000000E+02  0.51100000000E-03 0.  1.
         11   -1    0    0    0    0 -0.00000000000E+00 -0.00000000000E+00 -0.45593999997E+02  0.45594000000E+02  0.51100000000E-03 0. -1.
    9900012    2    1    2    0    0  0.99881300477E+01  0.12841037091E+02  0.37262727767E+02  0.50528857658E+02  0.29999993336E+02 0.  0.
         12    1    1    2    0    0 -0.99881300477E+01 -0.12841037091E+02 -0.37262727767E+02  0.40659142342E+02  0.00000000000E+00 0. -1.
         11    1    3    3    0    0 -0.38801015984E+01  0.22701221533E+01  0.21095406305E-01  0.44954519552E+01  0.51100000000E-03 0. -1.
        -11    1    3    3    0    0  0.38043851727E+01  0.97295000264E+01  0.38265943778E+01  0.11125616482E+02  0.51100000000E-03 0.  1.
        -12    1    3    3    0    0  0.10063846473E+02  0.84141491118E+00  0.33415037982E+02  0.34907789221E+02  0.00000000000E+00 0.  1.
</event>
<event>
 7    1  0.3383281E-011  0.5052885E+02  0.7816164E-02  0.1300439E+00
        -11   -1    0    0    0    0  0.00000000000E+00  0.00000000000E+00  0.45593999997E+02  0.45594000000E+02  0.51100000000E-03 0.  1.
         11   -1    0    0    0    0 -0.00000000000E+00 -0.00000000000E+00 -0.45593999997E+02  0.45594000000E+02  0.51100000000E-03 0. -1.
    9900012    2    1    2    0    0 -0.34506991523E+02 -0.64967982285E+01  0.20499403849E+02  0.50528850853E+02  0.29999972653E+02 0.  0.
         12    1    1    2    0    0  0.34506991523E+02  0.64967982285E+01 -0.20499403849E+02  0.40659149147E+02  0.00000000000E+00 0. -1.
         11    1    3    3    0    0 -0.49263733371E+01 -0.94277683849E+00 -0.26602250354E+01  0.56775681346E+01  0.51100000000E-03 0. -1.
        -11    1    3    3    0    0 -0.29797686652E+02 -0.45812894404E-01  0.25147791799E+02  0.38991225439E+02  0.51100000000E-03 0.  1.
        -12    1    3    3    0    0  0.21706846565E+00 -0.55082084956E+01 -0.19881629145E+01  0.58600572799E+01  0.00000000000E+00 0.  1.
</event>
<event>
 7    1  0.3383281E-011  0.5052888E+02  0.7816164E-02  0.1300439E+00
        -11   -1    0    0    0    0  0.00000000000E+00  0.00000000000E+00  0.45593999997E+02  0.45594000000E+02  0.51100000000E-03 0.  1.
         11   -1    0    0    0    0 -0.00000000000E+00 -0.00000000000E+00 -0.45593999997E+02  0.45594000000E+02  0.51100000000E-03 0. -1.
    9900012    2    1    2    0    0 -0.90949150869E+01 -0.36904584206E+02  0.14439463602E+02  0.50528881404E+02  0.30000065516E+02 0.  0.
         12    1    1    2    0    0  0.90949150869E+01  0.36904584206E+02 -0.14439463602E+02  0.40659118596E+02  0.00000000000E+00 0. -1.
         11    1    3    3    0    0  0.14994073793E+00 -0.21469585233E+02  0.95730207778E+01  0.23507622154E+02  0.51100000000E-03 0. -1.
        -11    1    3    3    0    0  0.39136349770E+01 -0.11679173725E+02  0.51093170998E+01  0.13335095018E+02  0.51100000000E-03 0.  1.
         12    1    3    3    0    0 -0.13158490802E+02 -0.37558252483E+01 -0.24287427571E+00  0.13686164232E+02  0.00000000000E+00 0. -1.
</event>
<event>
 7    1  0.3383281E-011  0.5052888E+02  0.7816164E-02  0.1300439E+00
        -11   -1    0    0    0    0  0.00000000000E+00  0.00000000000E+00  0.45593999997E+02  0.45594000000E+02  0.51100000000E-03 0.  1.
         11   -1    0    0    0    0 -0.00000000000E+00 -0.00000000000E+00 -0.45593999997E+02  0.45594000000E+02  0.51100000000E-03 0. -1.
    9900012    2    1    2    0    0 -0.30140429315E+01 -0.55846143457E+01  0.40160818421E+02  0.50528884067E+02  0.30000073611E+02 0.  0.
         12    1    1    2    0    0  0.30140429315E+01  0.55846143457E+01 -0.40160818421E+02  0.40659115933E+02  0.00000000000E+00 0. -1.
         11    1    3    3    0    0  0.19253098924E+01 -0.98442907526E+01  0.14333911506E+02  0.17495082107E+02  0.51100000000E-03 0. -1.
        -11    1    3    3    0    0  0.66489711471E+01 -0.24711824700E+01  0.74183186306E+01  0.10263869235E+02  0.51100000000E-03 0.  1.
         12    1    3    3    0    0 -0.11588323971E+02  0.67308588769E+01  0.18408588285E+02  0.22769932725E+02  0.00000000000E+00 0. -1.
</event>
<event>
 7    1  0.3383281E-011  0.5052887E+02  0.7816164E-02  0.1300439E+00
        -11   -1    0    0    0    0  0.00000000000E+00  0.00000000000E+00  0.45593999997E+02  0.45594000000E+02  0.51100000000E-03 0.  1.
         11   -1    0    0    0    0 -0.00000000000E+00 -0.00000000000E+00 -0.45593999997E+02  0.45594000000E+02  0.51100000000E-03 0. -1.
    9900012    2    1    2    0    0  0.22604630015E+02  0.20100716578E+02  0.27169045884E+02  0.50528866225E+02  0.30000019378E+02 0.  0.
         12    1    1    2    0    0 -0.22604630015E+02 -0.20100716578E+02 -0.27169045884E+02  0.40659133775E+02  0.00000000000E+00 0. -1.
         11    1    3    3    0    0  0.13605723819E+02  0.73557279309E+01  0.97074521059E+00  0.15497251387E+02  0.51100000000E-03 0.  1.
        -11    1    3    3    0    0  0.75257437003E+00  0.51232036597E+01 -0.12914799907E+01  0.53368066058E+01  0.51100000000E-03 0. -1.
        -12    1    3    3    0    0  0.82463318255E+01  0.76217849876E+01  0.27489780664E+02  0.29694808232E+02  0.00000000000E+00 0.  1.
</event>
<event>
 7    1  0.3383281E-011  0.5052886E+02  0.7816164E-02  0.1300439E+00
        -11   -1    0    0    0    0  0.00000000000E+00  0.00000000000E+00  0.45593999997E+02  0.45594000000E+02  0.51100000000E-03 0. -1.
         11   -1    0    0    0    0 -0.00000000000E+00 -0.00000000000E+00 -0.45593999997E+02  0.45594000000E+02  0.51100000000E-03 0.  1.
    9900012    2    1    2    0    0 -0.97159500793E+01 -0.25285371378E+02  0.30321876651E+02  0.50528857175E+02  0.29999991869E+02 0.  0.
         12    1    1    2    0    0  0.97159500793E+01  0.25285371378E+02 -0.30321876651E+02  0.40659142825E+02  0.00000000000E+00 0. -1.
         11    1    3    3    0    0  0.48194518188E+00  0.94608168393E+00 -0.18911171840E+01  0.21687937144E+01  0.51100000000E-03 0. -1.
        -11    1    3    3    0    0  0.16446066948E+01 -0.23869858477E+02  0.19991771787E+02  0.31179252947E+02  0.51100000000E-03 0.  1.
         12    1    3    3    0    0 -0.11842501956E+02 -0.23615945845E+01  0.12221222048E+02  0.17180810514E+02  0.00000000000E+00 0. -1.
</event>
<event>
 7    1  0.3383281E-011  0.5052886E+02  0.7816164E-02  0.1300439E+00
        -11   -1    0    0    0    0  0.00000000000E+00  0.00000000000E+00  0.45593999997E+02  0.45594000000E+02  0.51100000000E-03 0.  1.
         11   -1    0    0    0    0 -0.00000000000E+00 -0.00000000000E+00 -0.45593999997E+02  0.45594000000E+02  0.51100000000E-03 0. -1.
    9900012    2    1    2    0    0  0.29528830421E+02  0.26408019297E+02  0.91558923736E+01  0.50528859891E+02  0.30000000125E+02 0.  0.
         12    1    1    2    0    0 -0.29528830421E+02 -0.26408019297E+02 -0.91558923736E+01  0.40659140109E+02  0.00000000000E+00 0. -1.
         11    1    3    3    0    0  0.34656849992E+01 -0.29620850688E+01 -0.36961575637E+01  0.58691141977E+01  0.51100000000E-03 0. -1.
        -11    1    3    3    0    0  0.77146931814E+01 -0.14109225452E+00  0.44537446959E+01  0.89091099435E+01  0.51100000000E-03 0.  1.
         12    1    3    3    0    0  0.18348452241E+02  0.29511196620E+02  0.83983052414E+01  0.35750635750E+02  0.00000000000E+00 0. -1.
</event>
<event>
 7    1  0.3383281E-011  0.5052886E+02  0.7816164E-02  0.1300439E+00
        -11   -1    0    0    0    0  0.00000000000E+00  0.00000000000E+00  0.45593999997E+02  0.45594000000E+02  0.51100000000E-03 0.  1.
         11   -1    0    0    0    0 -0.00000000000E+00 -0.00000000000E+00 -0.45593999997E+02  0.45594000000E+02  0.51100000000E-03 0. -1.
    9900012    2    1    2    0    0  0.29148201622E+02 -0.15209870127E+02  0.23920869887E+02  0.50528858061E+02  0.29999994562E+02 0.  0.
         12    1    1    2    0    0 -0.29148201622E+02  0.15209870127E+02 -0.23920869887E+02  0.40659141939E+02  0.00000000000E+00 0. -1.
         11    1    3    3    0    0 -0.16963272613E+01 -0.21847238556E+01 -0.33321242008E+01  0.43305422816E+01  0.51100000000E-03 0. -1.
        -11    1    3    3    0    0  0.24945676366E+02 -0.15758850077E+02  0.16987178985E+02  0.34046914328E+02  0.51100000000E-03 0.  1.
         12    1    3    3    0    0  0.58988525169E+01  0.27337038056E+01  0.10265815103E+02  0.12151401452E+02  0.00000000000E+00 0. -1.
</event>
<event>
 7    1  0.3383281E-011  0.5052886E+02  0.7816164E-02  0.1300439E+00
        -11   -1    0    0    0    0  0.00000000000E+00  0.00000000000E+00  0.45593999997E+02  0.45594000000E+02  0.51100000000E-03 0.  1.
         11   -1    0    0    0    0 -0.00000000000E+00 -0.00000000000E+00 -0.45593999997E+02  0.45594000000E+02  0.51100000000E-03 0. -1.
    9900012    2    1    2    0    0 -0.17572922844E+02  0.29858276045E+02  0.21280078944E+02  0.50528855573E+02  0.29999987001E+02 0.  0.
         12    1    1    2    0    0  0.17572922844E+02 -0.29858276045E+02 -0.21280078944E+02  0.40659144427E+02  0.00000000000E+00 0. -1.
         11    1    3    3    0    0 -0.18215352885E+02  0.22767221347E+02  0.29812925597E+01  0.29309274201E+02  0.51100000000E-03 0.  1.
        -11    1    3    3    0    0  0.37457904240E+01  0.26126415432E+01  0.46230714472E+01  0.64984330112E+01  0.51100000000E-03 0. -1.
        -12    1    3    3    0    0 -0.31033603832E+01  0.44784131546E+01  0.13675714937E+02  0.14721148362E+02  0.00000000000E+00 0.  1.
</event>
<event>
 7    1  0.3383281E-011  0.5052878E+02  0.7816164E-02  0.1300439E+00
        -11   -1    0    0    0    0  0.00000000000E+00  0.00000000000E+00  0.45593999997E+02  0.45594000000E+02  0.51100000000E-03 0. -1.
         11   -1    0    0    0    0 -0.00000000000E+00 -0.00000000000E+00 -0.45593999997E+02  0.45594000000E+02  0.51100000000E-03 0.  1.
    9900012    2    1    2    0    0 -0.31418213984E+02 -0.23679025213E+02  0.10265076242E+02  0.50528779702E+02  0.29999756383E+02 0.  0.
         12    1    1    2    0    0  0.31418213984E+02  0.23679025213E+02 -0.10265076242E+02  0.40659220298E+02  0.00000000000E+00 0. -1.
         11    1    3    3    0    0 -0.16703759605E+02 -0.26791172498E+02  0.17930365657E+01  0.31622736902E+02  0.51100000000E-03 0.  1.
        -11    1    3    3    0    0 -0.34547293632E+01  0.33905325159E+01  0.47504418854E-01  0.48407770704E+01  0.51100000000E-03 0. -1.
        -12    1    3    3    0    0 -0.11259725015E+02 -0.27838523054E+00  0.84245352574E+01  0.14065265730E+02  0.00000000000E+00 0.  1.
</event>
<event>
 7    1  0.3383281E-011  0.5052886E+02  0.7816164E-02  0.1300439E+00
        -11   -1    0    0    0    0  0.00000000000E+00  0.00000000000E+00  0.45593999997E+02  0.45594000000E+02  0.51100000000E-03 0.  1.
         11   -1    0    0    0    0 -0.00000000000E+00 -0.00000000000E+00 -0.45593999997E+02  0.45594000000E+02  0.51100000000E-03 0. -1.
    9900012    2    1    2    0    0  0.28539415146E+02  0.54483853822E+01  0.28442619892E+02  0.50528859005E+02  0.29999997431E+02 0.  0.
         12    1    1    2    0    0 -0.28539415146E+02 -0.54483853822E+01 -0.28442619892E+02  0.40659140995E+02  0.00000000000E+00 0. -1.
         11    1    3    3    0    0  0.72432739795E+01 -0.10777312991E+00 -0.17171287096E+01  0.74448078724E+01  0.51100000000E-03 0. -1.
        -11    1    3    3    0    0  0.22649143205E+02  0.75282341867E+01  0.16024511523E+02  0.28747921103E+02  0.51100000000E-03 0.  1.
        -12    1    3    3    0    0 -0.13530020386E+01 -0.19720756746E+01  0.14135237078E+02  0.14336130030E+02  0.00000000000E+00 0.  1.
</event>
<event>
 7    1  0.3383281E-011  0.5052884E+02  0.7816164E-02  0.1300439E+00
        -11   -1    0    0    0    0  0.00000000000E+00  0.00000000000E+00  0.45593999997E+02  0.45594000000E+02  0.51100000000E-03 0. -1.
         11   -1    0    0    0    0 -0.00000000000E+00 -0.00000000000E+00 -0.45593999997E+02  0.45594000000E+02  0.51100000000E-03 0.  1.
    9900012    2    1    2    0    0  0.23983962085E+02 -0.27230778764E+02 -0.18341788078E+02  0.50528844336E+02  0.29999952845E+02 0.  0.
         12    1    1    2    0    0 -0.23983962085E+02  0.27230778764E+02  0.18341788078E+02  0.40659155664E+02  0.00000000000E+00 0. -1.
         11    1    3    3    0    0  0.65740104777E+01  0.98674286429E+00 -0.51957662796E+01  0.84372544548E+01  0.51100000000E-03 0. -1.
        -11    1    3    3    0    0  0.18596448275E+02 -0.89010241207E+01 -0.61809494969E+01  0.21523481498E+02  0.51100000000E-03 0.  1.
         12    1    3    3    0    0 -0.11864966681E+01 -0.19316497508E+02 -0.69650723012E+01  0.20568108384E+02  0.00000000000E+00 0. -1.
</event>
<event>
 7    1  0.3383281E-011  0.5052886E+02  0.7816164E-02  0.1300439E+00
        -11   -1    0    0    0    0  0.00000000000E+00  0.00000000000E+00  0.45593999997E+02  0.45594000000E+02  0.51100000000E-03 0. -1.
         11   -1    0    0    0    0 -0.00000000000E+00 -0.00000000000E+00 -0.45593999997E+02  0.45594000000E+02  0.51100000000E-03 0.  1.
    9900012    2    1    2    0    0  0.10390333825E+02 -0.35222159872E+02 -0.17452966064E+02  0.50528860714E+02  0.30000002626E+02 0.  0.
         12    1    1    2    0    0 -0.10390333825E+02  0.35222159872E+02  0.17452966064E+02  0.40659139286E+02  0.00000000000E+00 0. -1.
         11    1    3    3    0    0  0.12559691798E+02 -0.24940087564E+02 -0.87269063943E+01  0.29255986075E+02  0.51100000000E-03 0. -1.
        -11    1    3    3    0    0  0.27255657751E+01 -0.13326153643E+02 -0.67026430795E+01  0.15163789243E+02  0.51100000000E-03 0.  1.
         12    1    3    3    0    0 -0.48949237484E+01  0.30440813340E+01 -0.20234165899E+01  0.61090853953E+01  0.00000000000E+00 0. -1.
</event>
<event>
 7    1  0.3383281E-011  0.5052886E+02  0.7816164E-02  0.1300439E+00
        -11   -1    0    0    0    0  0.00000000000E+00  0.00000000000E+00  0.45593999997E+02  0.45594000000E+02  0.51100000000E-03 0.  1.
         11   -1    0    0    0    0 -0.00000000000E+00 -0.00000000000E+00 -0.45593999997E+02  0.45594000000E+02  0.51100000000E-03 0. -1.
    9900012    2    1    2    0    0 -0.20193832607E+02  0.20658244978E+02  0.28611389021E+02  0.50528861512E+02  0.30000005051E+02 0.  0.
         12    1    1    2    0    0  0.20193832607E+02 -0.20658244978E+02 -0.28611389021E+02  0.40659138488E+02  0.00000000000E+00 0. -1.
         11    1    3    3    0    0 -0.23034828465E+01  0.16632317824E+01  0.23706044963E+01  0.37002890597E+01  0.51100000000E-03 0. -1.
        -11    1    3    3    0    0 -0.24013977925E+02  0.10426262400E+02  0.25042756144E+02  0.36228686410E+02  0.51100000000E-03 0.  1.
         12    1    3    3    0    0  0.61236281649E+01  0.85687507959E+01  0.11980283799E+01  0.10599886042E+02  0.00000000000E+00 0. -1.
</event>
<event>
 7    1  0.3383281E-011  0.5052886E+02  0.7816164E-02  0.1300439E+00
        -11   -1    0    0    0    0  0.00000000000E+00  0.00000000000E+00  0.45593999997E+02  0.45594000000E+02  0.51100000000E-03 0.  1.
         11   -1    0    0    0    0 -0.00000000000E+00 -0.00000000000E+00 -0.45593999997E+02  0.45594000000E+02  0.51100000000E-03 0. -1.
    9900012    2    1    2    0    0  0.25507787082E+02 -0.27457652060E+02  0.15766918955E+02  0.50528860907E+02  0.30000003212E+02 0.  0.
         12    1    1    2    0    0 -0.25507787082E+02  0.27457652060E+02 -0.15766918955E+02  0.40659139093E+02  0.00000000000E+00 0. -1.
         11    1    3    3    0    0  0.92267204325E+01 -0.29728453930E+01 -0.77127642916E+01  0.12387772719E+02  0.51100000000E-03 0. -1.
        -11    1    3    3    0    0  0.34895030192E+01 -0.34061694273E+01  0.14775826791E+01  0.50952794156E+01  0.51100000000E-03 0.  1.
         12    1    3    3    0    0  0.12791563630E+02 -0.21078637240E+02  0.22002100568E+02  0.33045808772E+02  0.00000000000E+00 0. -1.
</event>
<event>
 7    1  0.3383281E-011  0.5052887E+02  0.7816164E-02  0.1300439E+00
        -11   -1    0    0    0    0  0.00000000000E+00  0.00000000000E+00  0.45593999997E+02  0.45594000000E+02  0.51100000000E-03 0.  1.
         11   -1    0    0    0    0 -0.00000000000E+00 -0.00000000000E+00 -0.45593999997E+02  0.45594000000E+02  0.51100000000E-03 0. -1.
    9900012    2    1    2    0    0  0.30990528768E+02  0.17939803006E+02  0.19259174741E+02  0.50528865517E+02  0.30000017226E+02 0.  0.
         12    1    1    2    0    0 -0.30990528768E+02 -0.17939803006E+02 -0.19259174741E+02  0.40659134483E+02  0.00000000000E+00 0. -1.
         11    1    3    3    0    0  0.18029307671E+02  0.55294610903E+01  0.21073819844E+02  0.28279617362E+02  0.51100000000E-03 0. -1.
        -11    1    3    3    0    0  0.81962060631E+01  0.11033992436E+02  0.42757812261E+01  0.14394759055E+02  0.51100000000E-03 0.  1.
         12    1    3    3    0    0  0.47650150334E+01  0.13763494796E+01 -0.60904263292E+01  0.78544891005E+01  0.00000000000E+00 0. -1.
</event>
<event>
 7    1  0.3383281E-011  0.5052886E+02  0.7816164E-02  0.1300439E+00
        -11   -1    0    0    0    0  0.00000000000E+00  0.00000000000E+00  0.45593999997E+02  0.45594000000E+02  0.51100000000E-03 0.  1.
         11   -1    0    0    0    0 -0.00000000000E+00 -0.00000000000E+00 -0.45593999997E+02  0.45594000000E+02  0.51100000000E-03 0. -1.
    9900012    2    1    2    0    0  0.23327590851E+02  0.26323609260E+01  0.33197291881E+02  0.50528855799E+02  0.29999987687E+02 0.  0.
         12    1    1    2    0    0 -0.23327590851E+02 -0.26323609260E+01 -0.33197291881E+02  0.40659144201E+02  0.00000000000E+00 0. -1.
         11    1    3    3    0    0 -0.39701335158E+01  0.26155656995E+01 -0.44051315557E+00  0.47746409460E+01  0.51100000000E-03 0. -1.
        -11    1    3    3    0    0  0.16420823390E+02 -0.27597421068E+01  0.95899541527E+01  0.19215276168E+02  0.51100000000E-03 0.  1.
        -12    1    3    3    0    0  0.10876900977E+02  0.27765373333E+01  0.24047850883E+02  0.26538938685E+02  0.00000000000E+00 0.  1.
</event>
<event>
 7    1  0.3383281E-011  0.5052888E+02  0.7816164E-02  0.1300439E+00
        -11   -1    0    0    0    0  0.00000000000E+00  0.00000000000E+00  0.45593999997E+02  0.45594000000E+02  0.51100000000E-03 0. -1.
         11   -1    0    0    0    0 -0.00000000000E+00 -0.00000000000E+00 -0.45593999997E+02  0.45594000000E+02  0.51100000000E-03 0.  1.
    9900012    2    1    2    0    0 -0.20784274920E+02  0.34768431196E+02  0.35120024580E+01  0.50528879830E+02  0.30000060730E+02 0.  0.
         12    1    1    2    0    0  0.20784274920E+02 -0.34768431196E+02 -0.35120024580E+01  0.40659120170E+02  0.00000000000E+00 0. -1.
         11    1    3    3    0    0  0.72735162553E+00  0.49171125453E+00  0.44938486378E+01  0.45788094725E+01  0.51100000000E-03 0. -1.
        -11    1    3    3    0    0 -0.10192454382E+02  0.14830048031E+02  0.10347469549E+02  0.20757807622E+02  0.51100000000E-03 0.  1.
        -12    1    3    3    0    0 -0.11319172164E+02  0.19446671910E+02 -0.11329315729E+02  0.25192262735E+02  0.00000000000E+00 0.  1.
</event>
<event>
 7    1  0.3383281E-011  0.5052887E+02  0.7816164E-02  0.1300439E+00
        -11   -1    0    0    0    0  0.00000000000E+00  0.00000000000E+00  0.45593999997E+02  0.45594000000E+02  0.51100000000E-03 0.  1.
         11   -1    0    0    0    0 -0.00000000000E+00 -0.00000000000E+00 -0.45593999997E+02  0.45594000000E+02  0.51100000000E-03 0. -1.
    9900012    2    1    2    0    0 -0.13938098483E+01  0.33305574301E+02  0.23280055471E+02  0.50528868576E+02  0.30000026524E+02 0.  0.
         12    1    1    2    0    0  0.13938098483E+01 -0.33305574301E+02 -0.23280055471E+02  0.40659131424E+02  0.00000000000E+00 0. -1.
         11    1    3    3    0    0  0.60857759629E+01  0.17459075298E+02  0.44004896806E+01  0.19005796196E+02  0.51100000000E-03 0. -1.
        -11    1    3    3    0    0  0.53750887850E+01  0.76853877697E+01  0.38800934948E+01  0.10149477346E+02  0.51100000000E-03 0.  1.
        -12    1    3    3    0    0 -0.12854674596E+02  0.81611112328E+01  0.14999472296E+02  0.21373595034E+02  0.00000000000E+00 0.  1.
</event>
<event>
 7    1  0.3383281E-011  0.5052886E+02  0.7816164E-02  0.1300439E+00
        -11   -1    0    0    0    0  0.00000000000E+00  0.00000000000E+00  0.45593999997E+02  0.45594000000E+02  0.51100000000E-03 0. -1.
         11   -1    0    0    0    0 -0.00000000000E+00 -0.00000000000E+00 -0.45593999997E+02  0.45594000000E+02  0.51100000000E-03 0.  1.
    9900012    2    1    2    0    0  0.35081967423E+02 -0.19053579546E+02 -0.77060177083E+01  0.50528855386E+02  0.29999986432E+02 0.  0.
         12    1    1    2    0    0 -0.35081967423E+02  0.19053579546E+02  0.77060177083E+01  0.40659144614E+02  0.00000000000E+00 0. -1.
         11    1    3    3    0    0  0.21154330970E+00 -0.19320401727E+01  0.61863211892E+00  0.20396656002E+01  0.51100000000E-03 0. -1.
        -11    1    3    3    0    0  0.26764075388E+02 -0.77797945846E+01 -0.17657680455E+02  0.32994463391E+02  0.51100000000E-03 0.  1.
         12    1    3    3    0    0  0.81063487255E+01 -0.93417447884E+01  0.93330306279E+01  0.15494726395E+02  0.00000000000E+00 0. -1.
</event>
<event>
 7    1  0.3383281E-011  0.5052887E+02  0.7816164E-02  0.1300439E+00
        -11   -1    0    0    0    0  0.00000000000E+00  0.00000000000E+00  0.45593999997E+02  0.45594000000E+02  0.51100000000E-03 0.  1.
         11   -1    0    0    0    0 -0.00000000000E+00 -0.00000000000E+00 -0.45593999997E+02  0.45594000000E+02  0.51100000000E-03 0. -1.
    9900012    2    1    2    0    0 -0.25004882601E+02 -0.18372363716E+02  0.26275028169E+02  0.50528868090E+02  0.30000025045E+02 0.  0.
         12    1    1    2    0    0  0.25004882601E+02  0.18372363716E+02 -0.26275028169E+02  0.40659131910E+02  0.00000000000E+00 0. -1.
         11    1    3    3    0    0 -0.20017128802E+01 -0.61092335061E+01  0.12676237290E+01  0.65525917518E+01  0.51100000000E-03 0. -1.
        -11    1    3    3    0    0 -0.20976901063E+02 -0.11940782431E+02  0.60178973010E+01  0.24876248742E+02  0.51100000000E-03 0.  1.
         12    1    3    3    0    0 -0.20262686580E+01 -0.32234777871E+00  0.18989507139E+02  0.19100027596E+02  0.00000000000E+00 0. -1.
</event>
<event>
 7    1  0.3383281E-011  0.5052886E+02  0.7816164E-02  0.1300439E+00
        -11   -1    0    0    0    0  0.00000000000E+00  0.00000000000E+00  0.45593999997E+02  0.45594000000E+02  0.51100000000E-03 0.  1.
         11   -1    0    0    0    0 -0.00000000000E+00 -0.00000000000E+00 -0.45593999997E+02  0.45594000000E+02  0.51100000000E-03 0. -1.
    9900012    2    1    2    0    0 -0.28042275842E+02 -0.11083551375E+02  0.27275474244E+02  0.50528857846E+02  0.29999993909E+02 0.  0.
         12    1    1    2    0    0  0.28042275842E+02  0.11083551375E+02 -0.27275474244E+02  0.40659142154E+02  0.00000000000E+00 0. -1.
         11    1    3    3    0    0 -0.21826099309E+01 -0.87397873713E+01  0.41656810951E+01  0.99247452689E+01  0.51100000000E-03 0. -1.
        -11    1    3    3    0    0 -0.24687029228E+01 -0.84908760333E+01  0.36668042455E+01  0.95726132049E+01  0.51100000000E-03 0.  1.
        -12    1    3    3    0    0 -0.23390962988E+02  0.61471120297E+01  0.19442988903E+02  0.31031499372E+02  0.00000000000E+00 0.  1.
</event>
<event>
 7    1  0.3383281E-011  0.5052890E+02  0.7816164E-02  0.1300439E+00
        -11   -1    0    0    0    0  0.00000000000E+00  0.00000000000E+00  0.45593999997E+02  0.45594000000E+02  0.51100000000E-03 0. -1.
         11   -1    0    0    0    0 -0.00000000000E+00 -0.00000000000E+00 -0.45593999997E+02  0.45594000000E+02  0.51100000000E-03 0.  1.
    9900012    2    1    2    0    0 -0.27766721294E+02 -0.29447968166E+02 -0.38714834543E+01  0.50528904773E+02  0.30000136547E+02 0.  0.
         12    1    1    2    0    0  0.27766721294E+02  0.29447968166E+02  0.38714834543E+01  0.40659095227E+02  0.00000000000E+00 0. -1.
         11    1    3    3    0    0  0.33345002286E+01 -0.33940273367E+01  0.49655849296E+01  0.68771612814E+01  0.51100000000E-03 0. -1.
        -11    1    3    3    0    0 -0.64726017021E+01 -0.13786216770E+02 -0.33963807048E+01  0.15604158028E+02  0.51100000000E-03 0.  1.
        -12    1    3    3    0    0 -0.24628619821E+02 -0.12267724060E+02 -0.54406876791E+01  0.28047585463E+02  0.00000000000E+00 0.  1.
</event>
<event>
 7    1  0.3383281E-011  0.5052886E+02  0.7816164E-02  0.1300439E+00
        -11   -1    0    0    0    0  0.00000000000E+00  0.00000000000E+00  0.45593999997E+02  0.45594000000E+02  0.51100000000E-03 0. -1.
         11   -1    0    0    0    0 -0.00000000000E+00 -0.00000000000E+00 -0.45593999997E+02  0.45594000000E+02  0.51100000000E-03 0.  1.
    9900012    2    1    2    0    0  0.17955717560E+02 -0.24951030630E+02 -0.26612096402E+02  0.50528863296E+02  0.30000010475E+02 0.  0.
         12    1    1    2    0    0 -0.17955717560E+02  0.24951030630E+02  0.26612096402E+02  0.40659136704E+02  0.00000000000E+00 0. -1.
         11    1    3    3    0    0  0.85480660427E+01 -0.60643961594E+01  0.77364715947E+00  0.10509275143E+02  0.51100000000E-03 0. -1.
        -11    1    3    3    0    0  0.11857780532E+02 -0.24422597472E+01 -0.81490091148E+01  0.14593763793E+02  0.51100000000E-03 0.  1.
        -12    1    3    3    0    0 -0.24501290151E+01 -0.16444374723E+02 -0.19236734446E+02  0.25425824360E+02  0.00000000000E+00 0.  1.
</event>
<event>
 7    1  0.3383281E-011  0.5052886E+02  0.7816164E-02  0.1300439E+00
        -11   -1    0    0    0    0  0.00000000000E+00  0.00000000000E+00  0.45593999997E+02  0.45594000000E+02  0.51100000000E-03 0.  1.
         11   -1    0    0    0    0 -0.00000000000E+00 -0.00000000000E+00 -0.45593999997E+02  0.45594000000E+02  0.51100000000E-03 0. -1.
    9900012    2    1    2    0    0  0.29764053851E+01  0.25848052861E+01  0.40467588556E+02  0.50528856737E+02  0.29999990536E+02 0.  0.
         12    1    1    2    0    0 -0.29764053851E+01 -0.25848052861E+01 -0.40467588556E+02  0.40659143263E+02  0.00000000000E+00 0. -1.
         11    1    3    3    0    0  0.89085746395E+01 -0.23225388992E+01  0.28611640015E+01  0.96407027104E+01  0.51100000000E-03 0. -1.
        -11    1    3    3    0    0  0.39511908430E+01  0.37246699897E+00  0.43000155024E+01  0.58515616997E+01  0.51100000000E-03 0.  1.
        -12    1    3    3    0    0 -0.98833600974E+01  0.45348771864E+01  0.33306409052E+02  0.35036592327E+02  0.00000000000E+00 0.  1.
</event>
<event>
 7    1  0.3383281E-011  0.5052888E+02  0.7816164E-02  0.1300439E+00
        -11   -1    0    0    0    0  0.00000000000E+00  0.00000000000E+00  0.45593999997E+02  0.45594000000E+02  0.51100000000E-03 0.  1.
         11   -1    0    0    0    0 -0.00000000000E+00 -0.00000000000E+00 -0.45593999997E+02  0.45594000000E+02  0.51100000000E-03 0. -1.
    9900012    2    1    2    0    0  0.23441308803E+02  0.71812071347E+01  0.32436079267E+02  0.50528881311E+02  0.30000065233E+02 0.  0.
         12    1    1    2    0    0 -0.23441308803E+02 -0.71812071347E+01 -0.32436079267E+02  0.40659118689E+02  0.00000000000E+00 0. -1.
         11    1    3    3    0    0  0.56815125495E+01  0.10490483367E+02  0.96837226717E+01  0.15365686160E+02  0.51100000000E-03 0. -1.
        -11    1    3    3    0    0  0.19646996052E+02  0.32662463900E+01  0.15953977527E+02  0.25518664122E+02  0.51100000000E-03 0.  1.
         12    1    3    3    0    0 -0.18871997982E+01 -0.65755226220E+01  0.67983790682E+01  0.96445310298E+01  0.00000000000E+00 0. -1.
</event>
<event>
 7    1  0.3383281E-011  0.5052885E+02  0.7816164E-02  0.1300439E+00
        -11   -1    0    0    0    0  0.00000000000E+00  0.00000000000E+00  0.45593999997E+02  0.45594000000E+02  0.51100000000E-03 0.  1.
         11   -1    0    0    0    0 -0.00000000000E+00 -0.00000000000E+00 -0.45593999997E+02  0.45594000000E+02  0.51100000000E-03 0. -1.
    9900012    2    1    2    0    0 -0.36333766426E+02 -0.17183040003E+02  0.61455046883E+01  0.50528847595E+02  0.29999962748E+02 0.  0.
         12    1    1    2    0    0  0.36333766426E+02  0.17183040003E+02 -0.61455046883E+01  0.40659152405E+02  0.00000000000E+00 0. -1.
         11    1    3    3    0    0 -0.10332643438E+02 -0.13166856189E+02 -0.80700923259E+00  0.16756517731E+02  0.51100000000E-03 0. -1.
        -11    1    3    3    0    0 -0.19411383037E+02 -0.10858489017E+02  0.42471447691E+00  0.22246099834E+02  0.51100000000E-03 0.  1.
         12    1    3    3    0    0 -0.65897399511E+01  0.68423052033E+01  0.65277994440E+01  0.11526230030E+02  0.00000000000E+00 0. -1.
</event>
<event>
 7    1  0.3383281E-011  0.5052887E+02  0.7816164E-02  0.1300439E+00
        -11   -1    0    0    0    0  0.00000000000E+00  0.00000000000E+00  0.45593999997E+02  0.45594000000E+02  0.51100000000E-03 0. -1.
         11   -1    0    0    0    0 -0.00000000000E+00 -0.00000000000E+00 -0.45593999997E+02  0.45594000000E+02  0.51100000000E-03 0.  1.
    9900012    2    1    2    0    0  0.13686782764E+02  0.31187540317E+02 -0.22207532288E+02  0.50528865924E+02  0.30000018462E+02 0.  0.
         12    1    1    2    0    0 -0.13686782764E+02 -0.31187540317E+02  0.22207532288E+02  0.40659134076E+02  0.00000000000E+00 0. -1.
         11    1    3    3    0    0 -0.40556484337E+01  0.61603302590E+01 -0.88594544820E+00  0.74285161854E+01  0.51100000000E-03 0. -1.
        -11    1    3    3    0    0  0.46269009075E+00 -0.21158115124E+01  0.23187693239E+01  0.31729216685E+01  0.51100000000E-03 0.  1.
        -12    1    3    3    0    0  0.17279741107E+02  0.27143021571E+02 -0.23640356164E+02  0.39927428070E+02  0.00000000000E+00 0.  1.
</event>
<event>
 7    1  0.3383281E-011  0.5052880E+02  0.7816164E-02  0.1300439E+00
        -11   -1    0    0    0    0  0.00000000000E+00  0.00000000000E+00  0.45593999997E+02  0.45594000000E+02  0.51100000000E-03 0.  1.
         11   -1    0    0    0    0 -0.00000000000E+00 -0.00000000000E+00 -0.45593999997E+02  0.45594000000E+02  0.51100000000E-03 0. -1.
    9900012    2    1    2    0    0 -0.31378746003E+02 -0.23743066569E+02 -0.10237766498E+02  0.50528797183E+02  0.29999809518E+02 0.  0.
         12    1    1    2    0    0  0.31378746003E+02  0.23743066569E+02  0.10237766498E+02  0.40659202817E+02  0.00000000000E+00 0. -1.
         11    1    3    3    0    0 -0.16852930141E+02 -0.20545373721E+02 -0.74931410672E+01  0.27609433152E+02  0.51100000000E-03 0. -1.
        -11    1    3    3    0    0 -0.11459074980E+02 -0.80750282408E+01 -0.70839643360E+01  0.15706655642E+02  0.51100000000E-03 0.  1.
        -12    1    3    3    0    0 -0.30667408825E+01  0.48773353930E+01  0.43393389048E+01  0.72127083892E+01  0.00000000000E+00 0.  1.
</event>
<event>
 7    1  0.3383281E-011  0.5052886E+02  0.7816164E-02  0.1300439E+00
        -11   -1    0    0    0    0  0.00000000000E+00  0.00000000000E+00  0.45593999997E+02  0.45594000000E+02  0.51100000000E-03 0.  1.
         11   -1    0    0    0    0 -0.00000000000E+00 -0.00000000000E+00 -0.45593999997E+02  0.45594000000E+02  0.51100000000E-03 0. -1.
    9900012    2    1    2    0    0 -0.13060569578E+02  0.35241322299E+01  0.38342764317E+02  0.50528861284E+02  0.30000004358E+02 0.  0.
         12    1    1    2    0    0  0.13060569578E+02 -0.35241322299E+01 -0.38342764317E+02  0.40659138716E+02  0.00000000000E+00 0. -1.
         11    1    3    3    0    0  0.29211548316E+01  0.52565996435E-01  0.89675507758E+01  0.94314832297E+01  0.51100000000E-03 0. -1.
        -11    1    3    3    0    0  0.18161301089E+01  0.96920228881E+01  0.10950133011E+02  0.14735638753E+02  0.51100000000E-03 0.  1.
        -12    1    3    3    0    0 -0.17797854518E+02 -0.62204566547E+01  0.18425080531E+02  0.26361739301E+02  0.00000000000E+00 0.  1.
</event>
<event>
 7    1  0.3383281E-011  0.5052885E+02  0.7816164E-02  0.1300439E+00
        -11   -1    0    0    0    0  0.00000000000E+00  0.00000000000E+00  0.45593999997E+02  0.45594000000E+02  0.51100000000E-03 0. -1.
         11   -1    0    0    0    0 -0.00000000000E+00 -0.00000000000E+00 -0.45593999997E+02  0.45594000000E+02  0.51100000000E-03 0.  1.
    9900012    2    1    2    0    0  0.20178884624E+02 -0.16461283239E+00 -0.35298042211E+02  0.50528852616E+02  0.29999978012E+02 0.  0.
         12    1    1    2    0    0 -0.20178884624E+02  0.16461283239E+00  0.35298042211E+02  0.40659147384E+02  0.00000000000E+00 0. -1.
         11    1    3    3    0    0  0.16247153924E+02 -0.42611958323E+01 -0.75809857351E+01  0.18428216015E+02  0.51100000000E-03 0. -1.
        -11    1    3    3    0    0  0.56584896080E+01  0.61663145141E+01 -0.62001507881E+01  0.10415556125E+02  0.51100000000E-03 0.  1.
        -12    1    3    3    0    0 -0.17267589078E+01 -0.20697315142E+01 -0.21516905688E+02  0.21685080476E+02  0.00000000000E+00 0.  1.
</event>
<event>
 7    1  0.3383281E-011  0.5052886E+02  0.7816164E-02  0.1300439E+00
        -11   -1    0    0    0    0  0.00000000000E+00  0.00000000000E+00  0.45593999997E+02  0.45594000000E+02  0.51100000000E-03 0.  1.
         11   -1    0    0    0    0 -0.00000000000E+00 -0.00000000000E+00 -0.45593999997E+02  0.45594000000E+02  0.51100000000E-03 0. -1.
    9900012    2    1    2    0    0  0.32414528875E+02  0.77969377562E-01  0.24545012261E+02  0.50528863409E+02  0.30000010819E+02 0.  0.
         12    1    1    2    0    0 -0.32414528875E+02 -0.77969377562E-01 -0.24545012261E+02  0.40659136591E+02  0.00000000000E+00 0. -1.
         11    1    3    3    0    0  0.69290733199E+00  0.20732192425E+01  0.78306509673E+01  0.81300340363E+01  0.51100000000E-03 0. -1.
        -11    1    3    3    0    0  0.20115211123E+02  0.83894211936E+00  0.21566931187E+02  0.29503526290E+02  0.51100000000E-03 0.  1.
         12    1    3    3    0    0  0.11606410420E+02 -0.28341919843E+01 -0.48525698938E+01  0.12895303083E+02  0.00000000000E+00 0. -1.
</event>
<event>
 7    1  0.3383281E-011  0.5052898E+02  0.7816164E-02  0.1300438E+00
        -11   -1    0    0    0    0  0.00000000000E+00  0.00000000000E+00  0.45593999997E+02  0.45594000000E+02  0.51100000000E-03 0.  1.
         11   -1    0    0    0    0 -0.00000000000E+00 -0.00000000000E+00 -0.45593999997E+02  0.45594000000E+02  0.51100000000E-03 0. -1.
    9900012    2    1    2    0    0 -0.16265841559E+02 -0.19939027080E+02  0.31480370157E+02  0.50528977536E+02  0.30000357716E+02 0.  0.
         12    1    1    2    0    0  0.16265841559E+02  0.19939027080E+02 -0.31480370157E+02  0.40659022464E+02  0.00000000000E+00 0. -1.
         11    1    3    3    0    0 -0.61933569192E+01 -0.10817363307E+02  0.21276631082E+02  0.24659035856E+02  0.51100000000E-03 0. -1.
        -11    1    3    3    0    0 -0.59430015156E+01 -0.92264937670E+01  0.15600234684E+02  0.19073929242E+02  0.51100000000E-03 0.  1.
         12    1    3    3    0    0 -0.41294831241E+01  0.10482999438E+00 -0.53964956099E+01  0.67960124387E+01  0.00000000000E+00 0. -1.
</event>
<event>
 7    1  0.3383281E-011  0.5052885E+02  0.7816164E-02  0.1300439E+00
        -11   -1    0    0    0    0  0.00000000000E+00  0.00000000000E+00  0.45593999997E+02  0.45594000000E+02  0.51100000000E-03 0.  1.
         11   -1    0    0    0    0 -0.00000000000E+00 -0.00000000000E+00 -0.45593999997E+02  0.45594000000E+02  0.51100000000E-03 0. -1.
    9900012    2    1    2    0    0 -0.32527428418E+02 -0.68308971986E+01  0.23419472170E+02  0.50528850566E+02  0.29999971779E+02 0.  0.
         12    1    1    2    0    0  0.32527428418E+02  0.68308971986E+01 -0.23419472170E+02  0.40659149434E+02  0.00000000000E+00 0. -1.
         11    1    3    3    0    0 -0.90232839796E+01  0.96769842476E-01 -0.47931502060E+01  0.10217793663E+02  0.51100000000E-03 0. -1.
        -11    1    3    3    0    0 -0.37717515688E+01  0.23020266821E+01 -0.30004349285E+00  0.44289347591E+01  0.51100000000E-03 0.  1.
        -12    1    3    3    0    0 -0.19732392869E+02 -0.92296937231E+01  0.28512665869E+02  0.35882122144E+02  0.00000000000E+00 0.  1.
</event>
<event>
 7    1  0.3383281E-011  0.5052886E+02  0.7816164E-02  0.1300439E+00
        -11   -1    0    0    0    0  0.00000000000E+00  0.00000000000E+00  0.45593999997E+02  0.45594000000E+02  0.51100000000E-03 0. -1.
         11   -1    0    0    0    0 -0.00000000000E+00 -0.00000000000E+00 -0.45593999997E+02  0.45594000000E+02  0.51100000000E-03 0.  1.
    9900012    2    1    2    0    0 -0.16158877163E+02 -0.34514490175E+02 -0.14170625769E+02  0.50528856159E+02  0.29999988782E+02 0.  0.
         12    1    1    2    0    0  0.16158877163E+02  0.34514490175E+02  0.14170625769E+02  0.40659143841E+02  0.00000000000E+00 0. -1.
         11    1    3    3    0    0  0.34106495384E+01 -0.11697718834E+02 -0.29595421111E+01  0.12539060809E+02  0.51100000000E-03 0.  1.
        -11    1    3    3    0    0  0.38121484088E+01 -0.56084329198E+01 -0.46604210069E+01  0.82283971422E+01  0.51100000000E-03 0. -1.
         12    1    3    3    0    0 -0.23381675110E+02 -0.17208338421E+02 -0.65506626506E+01  0.29761398208E+02  0.00000000000E+00 0. -1.
</event>
<event>
 7    1  0.3383281E-011  0.5052885E+02  0.7816164E-02  0.1300439E+00
        -11   -1    0    0    0    0  0.00000000000E+00  0.00000000000E+00  0.45593999997E+02  0.45594000000E+02  0.51100000000E-03 0.  1.
         11   -1    0    0    0    0 -0.00000000000E+00 -0.00000000000E+00 -0.45593999997E+02  0.45594000000E+02  0.51100000000E-03 0. -1.
    9900012    2    1    2    0    0  0.28037394165E+02 -0.14195535467E+02  0.25798412036E+02  0.50528846512E+02  0.29999959457E+02 0.  0.
         12    1    1    2    0    0 -0.28037394165E+02  0.14195535467E+02 -0.25798412036E+02  0.40659153488E+02  0.00000000000E+00 0. -1.
         11    1    3    3    0    0  0.18811522923E+02 -0.11228302114E+01  0.27327509480E+02  0.33195284560E+02  0.51100000000E-03 0.  1.
        -11    1    3    3    0    0 -0.46345222504E+00 -0.17702971601E+01 -0.16231779685E+01  0.24461085377E+01  0.51100000000E-03 0. -1.
        -12    1    3    3    0    0  0.96893234671E+01 -0.11302408096E+02  0.94080525004E-01  0.14887453414E+02  0.00000000000E+00 0.  1.
</event>
<event>
 7    1  0.3383281E-011  0.5052886E+02  0.7816164E-02  0.1300439E+00
        -11   -1    0    0    0    0  0.00000000000E+00  0.00000000000E+00  0.45593999997E+02  0.45594000000E+02  0.51100000000E-03 0.  1.
         11   -1    0    0    0    0 -0.00000000000E+00 -0.00000000000E+00 -0.45593999997E+02  0.45594000000E+02  0.51100000000E-03 0. -1.
    9900012    2    1    2    0    0  0.27031122958E+02 -0.30301774579E+02  0.20704297895E+01  0.50528857971E+02  0.29999994287E+02 0.  0.
         12    1    1    2    0    0 -0.27031122958E+02  0.30301774579E+02 -0.20704297895E+01  0.40659142029E+02  0.00000000000E+00 0. -1.
         11    1    3    3    0    0  0.18528470901E+02 -0.52967361685E+01  0.84529984675E+01  0.21043118384E+02  0.51100000000E-03 0. -1.
        -11    1    3    3    0    0  0.44156821983E+01 -0.49731417650E+01  0.26184115221E+01  0.71474797972E+01  0.51100000000E-03 0.  1.
        -12    1    3    3    0    0  0.40869698593E+01 -0.20031896646E+02 -0.90009802001E+01  0.22338259790E+02  0.00000000000E+00 0.  1.
</event>
<event>
 7    1  0.3383281E-011  0.5052883E+02  0.7816164E-02  0.1300439E+00
        -11   -1    0    0    0    0  0.00000000000E+00  0.00000000000E+00  0.45593999997E+02  0.45594000000E+02  0.51100000000E-03 0. -1.
         11   -1    0    0    0    0 -0.00000000000E+00 -0.00000000000E+00 -0.45593999997E+02  0.45594000000E+02  0.51100000000E-03 0.  1.
    9900012    2    1    2    0    0  0.34042112234E+02 -0.13861521130E+02 -0.17382786753E+02  0.50528825775E+02  0.29999896424E+02 0.  0.
         12    1    1    2    0    0 -0.34042112234E+02  0.13861521130E+02  0.17382786753E+02  0.40659174225E+02  0.00000000000E+00 0. -1.
         11    1    3    3    0    0  0.16806600562E+02  0.39475083204E+01 -0.73772711922E+01  0.18774151776E+02  0.51100000000E-03 0.  1.
        -11    1    3    3    0    0 -0.34283567194E+01 -0.32201143370E+01 -0.48900264663E+00  0.47288360078E+01  0.51100000000E-03 0. -1.
         12    1    3    3    0    0  0.20663868391E+02 -0.14588915113E+02 -0.95165129139E+01  0.27025837991E+02  0.00000000000E+00 0. -1.
</event>
<event>
 7    1  0.3383281E-011  0.5052886E+02  0.7816164E-02  0.1300439E+00
        -11   -1    0    0    0    0  0.00000000000E+00  0.00000000000E+00  0.45593999997E+02  0.45594000000E+02  0.51100000000E-03 0.  1.
         11   -1    0    0    0    0 -0.00000000000E+00 -0.00000000000E+00 -0.45593999997E+02  0.45594000000E+02  0.51100000000E-03 0. -1.
    9900012    2    1    2    0    0  0.23365372402E+02 -0.24310457159E+01  0.33186068071E+02  0.50528859271E+02  0.29999998240E+02 0.  0.
         12    1    1    2    0    0 -0.23365372402E+02  0.24310457159E+01 -0.33186068071E+02  0.40659140729E+02  0.00000000000E+00 0. -1.
         11    1    3    3    0    0  0.82656104668E+01 -0.13071323192E+00  0.35502453483E+01  0.89967574511E+01  0.51100000000E-03 0. -1.
        -11    1    3    3    0    0  0.94498055117E+01 -0.98990881169E+01  0.40834318211E+01  0.14281638052E+02  0.51100000000E-03 0.  1.
        -12    1    3    3    0    0  0.56499564239E+01  0.75987556329E+01  0.25552390902E+02  0.27250463768E+02  0.00000000000E+00 0.  1.
</event>
<event>
 7    1  0.3383281E-011  0.5052890E+02  0.7816164E-02  0.1300439E+00
        -11   -1    0    0    0    0  0.00000000000E+00  0.00000000000E+00  0.45593999997E+02  0.45594000000E+02  0.51100000000E-03 0.  1.
         11   -1    0    0    0    0 -0.00000000000E+00 -0.00000000000E+00 -0.45593999997E+02  0.45594000000E+02  0.51100000000E-03 0. -1.
    9900012    2    1    2    0    0 -0.18923069503E+02  0.10831235913E+02  0.34318570343E+02  0.50528898913E+02  0.30000118735E+02 0.  0.
         12    1    1    2    0    0  0.18923069503E+02 -0.10831235913E+02 -0.34318570343E+02  0.40659101087E+02  0.00000000000E+00 0. -1.
         11    1    3    3    0    0 -0.33358084910E+01  0.60766974895E+00  0.98441619177E+00  0.35307161189E+01  0.51100000000E-03 0. -1.
        -11    1    3    3    0    0 -0.21449893124E+02  0.46959805642E+00  0.24674397217E+02  0.32697772335E+02  0.51100000000E-03 0.  1.
         12    1    3    3    0    0  0.58626321119E+01  0.97539681080E+01  0.86597569339E+01  0.14300410459E+02  0.00000000000E+00 0. -1.
</event>
<event>
 7    1  0.3383281E-011  0.5052889E+02  0.7816164E-02  0.1300439E+00
        -11   -1    0    0    0    0  0.00000000000E+00  0.00000000000E+00  0.45593999997E+02  0.45594000000E+02  0.51100000000E-03 0. -1.
         11   -1    0    0    0    0 -0.00000000000E+00 -0.00000000000E+00 -0.45593999997E+02  0.45594000000E+02  0.51100000000E-03 0.  1.
    9900012    2    1    2    0    0  0.12211960451E+02  0.29143830919E+02 -0.25586486167E+02  0.50528891143E+02  0.30000095117E+02 0.  0.
         12    1    1    2    0    0 -0.12211960451E+02 -0.29143830919E+02  0.25586486167E+02  0.40659108857E+02  0.00000000000E+00 0. -1.
         11    1    3    3    0    0 -0.29676180820E+01 -0.24789118022E+01  0.13980800118E+01  0.41117379275E+01  0.51100000000E-03 0. -1.
        -11    1    3    3    0    0  0.88270849956E+00 -0.80835581141E-01 -0.54284979283E+01  0.55003907775E+01  0.51100000000E-03 0.  1.
        -12    1    3    3    0    0  0.14296870034E+02  0.31703578302E+02 -0.21556068251E+02  0.40916762437E+02  0.00000000000E+00 0.  1.
</event>
<event>
 7    1  0.3383281E-011  0.5052885E+02  0.7816164E-02  0.1300439E+00
        -11   -1    0    0    0    0  0.00000000000E+00  0.00000000000E+00  0.45593999997E+02  0.45594000000E+02  0.51100000000E-03 0.  1.
         11   -1    0    0    0    0 -0.00000000000E+00 -0.00000000000E+00 -0.45593999997E+02  0.45594000000E+02  0.51100000000E-03 0. -1.
    9900012    2    1    2    0    0 -0.24113606917E+02  0.11274411146E+02  0.30734153844E+02  0.50528848537E+02  0.29999965612E+02 0.  0.
         12    1    1    2    0    0  0.24113606917E+02 -0.11274411146E+02 -0.30734153844E+02  0.40659151463E+02  0.00000000000E+00 0. -1.
         11    1    3    3    0    0 -0.11357229812E+02 -0.19755227050E+01  0.78599413478E+01  0.13952348807E+02  0.51100000000E-03 0. -1.
        -11    1    3    3    0    0 -0.15830955561E+02  0.12375050442E+01  0.15274722496E+02  0.22033332029E+02  0.51100000000E-03 0.  1.
         12    1    3    3    0    0  0.30745784566E+01  0.12012428806E+02  0.75994900003E+01  0.14543167701E+02  0.00000000000E+00 0. -1.
</event>
<event>
 7    1  0.3383281E-011  0.5052886E+02  0.7816164E-02  0.1300439E+00
        -11   -1    0    0    0    0  0.00000000000E+00  0.00000000000E+00  0.45593999997E+02  0.45594000000E+02  0.51100000000E-03 0.  1.
         11   -1    0    0    0    0 -0.00000000000E+00 -0.00000000000E+00 -0.45593999997E+02  0.45594000000E+02  0.51100000000E-03 0. -1.
    9900012    2    1    2    0    0  0.38683379896E+01 -0.11958310305E+02  0.38667824413E+02  0.50528857498E+02  0.29999992852E+02 0.  0.
         12    1    1    2    0    0 -0.38683379896E+01  0.11958310305E+02 -0.38667824413E+02  0.40659142502E+02  0.00000000000E+00 0. -1.
         11    1    3    3    0    0  0.43086596368E+01  0.62984401008E+00 -0.58796452573E+00  0.43939678979E+01  0.51100000000E-03 0. -1.
        -11    1    3    3    0    0  0.61769147178E+01 -0.13627712805E+02  0.15880446439E+02  0.21818739906E+02  0.51100000000E-03 0.  1.
         12    1    3    3    0    0 -0.66172363650E+01  0.10395584902E+01  0.23375342500E+02  0.24316149695E+02  0.00000000000E+00 0. -1.
</event>
<event>
 7    1  0.3383281E-011  0.5052886E+02  0.7816164E-02  0.1300439E+00
        -11   -1    0    0    0    0  0.00000000000E+00  0.00000000000E+00  0.45593999997E+02  0.45594000000E+02  0.51100000000E-03 0. -1.
         11   -1    0    0    0    0 -0.00000000000E+00 -0.00000000000E+00 -0.45593999997E+02  0.45594000000E+02  0.51100000000E-03 0.  1.
    9900012    2    1    2    0    0 -0.33427693305E+02 -0.11012655813E+02 -0.20358683889E+02  0.50528864773E+02  0.30000014964E+02 0.  0.
         12    1    1    2    0    0  0.33427693305E+02  0.11012655813E+02  0.20358683889E+02  0.40659135227E+02  0.00000000000E+00 0. -1.
         11    1    3    3    0    0 -0.18425969868E+02  0.30364745938E+01 -0.48334395610E+01  0.19289859559E+02  0.51100000000E-03 0. -1.
        -11    1    3    3    0    0 -0.14163492659E+02 -0.17243881173E+01 -0.53620333495E+01  0.15242356793E+02  0.51100000000E-03 0.  1.
        -12    1    3    3    0    0 -0.83823077666E+00 -0.12324742289E+02 -0.10163210978E+02  0.15996648421E+02  0.00000000000E+00 0.  1.
</event>
<event>
 7    1  0.3383281E-011  0.5052886E+02  0.7816164E-02  0.1300439E+00
        -11   -1    0    0    0    0  0.00000000000E+00  0.00000000000E+00  0.45593999997E+02  0.45594000000E+02  0.51100000000E-03 0.  1.
         11   -1    0    0    0    0 -0.00000000000E+00 -0.00000000000E+00 -0.45593999997E+02  0.45594000000E+02  0.51100000000E-03 0. -1.
    9900012    2    1    2    0    0  0.63558818833E+01  0.36760002753E+02  0.16170057653E+02  0.50528858329E+02  0.29999995378E+02 0.  0.
         12    1    1    2    0    0 -0.63558818833E+01 -0.36760002753E+02 -0.16170057653E+02  0.40659141671E+02  0.00000000000E+00 0. -1.
         11    1    3    3    0    0  0.97497972856E+01  0.90389464905E+01 -0.10833886773E+01  0.13339221569E+02  0.51100000000E-03 0. -1.
        -11    1    3    3    0    0  0.46349577902E+01  0.66051242427E+00  0.30840863870E+01  0.56063089001E+01  0.51100000000E-03 0.  1.
         12    1    3    3    0    0 -0.80288731925E+01  0.27060543838E+02  0.14169359944E+02  0.31583327861E+02  0.00000000000E+00 0. -1.
</event>
<event>
 7    1  0.3383281E-011  0.5052886E+02  0.7816164E-02  0.1300439E+00
        -11   -1    0    0    0    0  0.00000000000E+00  0.00000000000E+00  0.45593999997E+02  0.45594000000E+02  0.51100000000E-03 0. -1.
         11   -1    0    0    0    0 -0.00000000000E+00 -0.00000000000E+00 -0.45593999997E+02  0.45594000000E+02  0.51100000000E-03 0.  1.
    9900012    2    1    2    0    0  0.29211555919E+02  0.15698723549E+02 -0.23524473235E+02  0.50528858823E+02  0.29999996878E+02 0.  0.
         12    1    1    2    0    0 -0.29211555919E+02 -0.15698723549E+02  0.23524473235E+02  0.40659141177E+02  0.00000000000E+00 0. -1.
         11    1    3    3    0    0 -0.61181431697E+00  0.74274122110E+00  0.34583573776E+01  0.35897377748E+01  0.51100000000E-03 0. -1.
        -11    1    3    3    0    0  0.77902269898E+01  0.44656244697E+01 -0.19412799684E+02  0.21388927750E+02  0.51100000000E-03 0.  1.
        -12    1    3    3    0    0  0.22033143246E+02  0.10490357858E+02 -0.75700309283E+01  0.25550193298E+02  0.00000000000E+00 0.  1.
</event>
<event>
 7    1  0.3383281E-011  0.5052884E+02  0.7816164E-02  0.1300439E+00
        -11   -1    0    0    0    0  0.00000000000E+00  0.00000000000E+00  0.45593999997E+02  0.45594000000E+02  0.51100000000E-03 0.  1.
         11   -1    0    0    0    0 -0.00000000000E+00 -0.00000000000E+00 -0.45593999997E+02  0.45594000000E+02  0.51100000000E-03 0. -1.
    9900012    2    1    2    0    0 -0.36535272945E+02  0.17357834680E+02  0.41287334585E+01  0.50528843172E+02  0.29999949307E+02 0.  0.
         12    1    1    2    0    0  0.36535272945E+02 -0.17357834680E+02 -0.41287334585E+01  0.40659156828E+02  0.00000000000E+00 0. -1.
         11    1    3    3    0    0 -0.73061608934E+01  0.66824439060E+01  0.73204057626E+01  0.12313544751E+02  0.51100000000E-03 0. -1.
        -11    1    3    3    0    0 -0.11346054826E+01 -0.76270065476E+00  0.62879761208E+01  0.64348804065E+01  0.51100000000E-03 0.  1.
         12    1    3    3    0    0 -0.28094506569E+02  0.11438091429E+02 -0.94796484248E+01  0.31780418014E+02  0.00000000000E+00 0. -1.
</event>
<event>
 7    1  0.3383281E-011  0.5052890E+02  0.7816164E-02  0.1300439E+00
        -11   -1    0    0    0    0  0.00000000000E+00  0.00000000000E+00  0.45593999997E+02  0.45594000000E+02  0.51100000000E-03 0. -1.
         11   -1    0    0    0    0 -0.00000000000E+00 -0.00000000000E+00 -0.45593999997E+02  0.45594000000E+02  0.51100000000E-03 0.  1.
    9900012    2    1    2    0    0  0.39456938035E+02 -0.94677608655E+01  0.25834678689E+01  0.50528895716E+02  0.30000109019E+02 0.  0.
         12    1    1    2    0    0 -0.39456938035E+02  0.94677608655E+01 -0.25834678689E+01  0.40659104284E+02  0.00000000000E+00 0. -1.
         11    1    3    3    0    0  0.21502916640E+02 -0.29942722874E+01  0.10976227446E+02  0.24327323317E+02  0.51100000000E-03 0. -1.
        -11    1    3    3    0    0  0.14664273342E+02 -0.49814333127E+01  0.16059860024E+01  0.15570317332E+02  0.51100000000E-03 0.  1.
        -12    1    3    3    0    0  0.32897480531E+01 -0.14920552653E+01 -0.99987455790E+01  0.10631255068E+02  0.00000000000E+00 0.  1.
</event>
<event>
 7    1  0.3383281E-011  0.5052892E+02  0.7816164E-02  0.1300439E+00
        -11   -1    0    0    0    0  0.00000000000E+00  0.00000000000E+00  0.45593999997E+02  0.45594000000E+02  0.51100000000E-03 0. -1.
         11   -1    0    0    0    0 -0.00000000000E+00 -0.00000000000E+00 -0.45593999997E+02  0.45594000000E+02  0.51100000000E-03 0.  1.
    9900012    2    1    2    0    0 -0.80364734076E+01  0.33151130563E+01 -0.39718831106E+02  0.50528924459E+02  0.30000196384E+02 0.  0.
         12    1    1    2    0    0  0.80364734076E+01 -0.33151130563E+01  0.39718831106E+02  0.40659075541E+02  0.00000000000E+00 0. -1.
         11    1    3    3    0    0 -0.49998730856E+00 -0.19016990510E+01  0.55179478463E+00  0.20422840974E+01  0.51100000000E-03 0. -1.
        -11    1    3    3    0    0 -0.19357925844E+01 -0.65566338278E+01 -0.75767346648E+00  0.68782853550E+01  0.51100000000E-03 0.  1.
         12    1    3    3    0    0 -0.56006935146E+01  0.11773445935E+02 -0.39512952425E+02  0.41608355006E+02  0.00000000000E+00 0. -1.
</event>
<event>
 7    1  0.3383281E-011  0.5052889E+02  0.7816164E-02  0.1300439E+00
        -11   -1    0    0    0    0  0.00000000000E+00  0.00000000000E+00  0.45593999997E+02  0.45594000000E+02  0.51100000000E-03 0. -1.
         11   -1    0    0    0    0 -0.00000000000E+00 -0.00000000000E+00 -0.45593999997E+02  0.45594000000E+02  0.51100000000E-03 0.  1.
    9900012    2    1    2    0    0  0.27558143537E+02  0.50859800156E+01 -0.29459208296E+02  0.50528887598E+02  0.30000084342E+02 0.  0.
         12    1    1    2    0    0 -0.27558143537E+02 -0.50859800156E+01  0.29459208296E+02  0.40659112402E+02  0.00000000000E+00 0. -1.
         11    1    3    3    0    0  0.21599657360E+02  0.47705575680E+01 -0.11499835295E+02  0.24930897088E+02  0.51100000000E-03 0. -1.
        -11    1    3    3    0    0  0.11047528656E+02  0.17039325509E+01 -0.63728937993E+01  0.12867208367E+02  0.51100000000E-03 0.  1.
         12    1    3    3    0    0 -0.50890424782E+01 -0.13885101033E+01 -0.11586479202E+02  0.12730782142E+02  0.00000000000E+00 0. -1.
</event>
<event>
 7    1  0.3383281E-011  0.5052886E+02  0.7816164E-02  0.1300439E+00
        -11   -1    0    0    0    0  0.00000000000E+00  0.00000000000E+00  0.45593999997E+02  0.45594000000E+02  0.51100000000E-03 0.  1.
         11   -1    0    0    0    0 -0.00000000000E+00 -0.00000000000E+00 -0.45593999997E+02  0.45594000000E+02  0.51100000000E-03 0. -1.
    9900012    2    1    2    0    0  0.29188124009E+02 -0.25769346625E+02  0.11711521951E+02  0.50528861359E+02  0.30000004586E+02 0.  0.
         12    1    1    2    0    0 -0.29188124009E+02  0.25769346625E+02 -0.11711521951E+02  0.40659138641E+02  0.00000000000E+00 0. -1.
         11    1    3    3    0    0  0.50682427216E+01  0.11330551772E+01 -0.34379696738E+01  0.62282047220E+01  0.51100000000E-03 0. -1.
        -11    1    3    3    0    0  0.71878450123E+01 -0.10811200184E+02 -0.45371794268E+01  0.13752569315E+02  0.51100000000E-03 0.  1.
         12    1    3    3    0    0  0.16932036275E+02 -0.16091201618E+02  0.19686671052E+02  0.30548087322E+02  0.00000000000E+00 0. -1.
</event>
<event>
 7    1  0.3383281E-011  0.5052887E+02  0.7816164E-02  0.1300439E+00
        -11   -1    0    0    0    0  0.00000000000E+00  0.00000000000E+00  0.45593999997E+02  0.45594000000E+02  0.51100000000E-03 0.  1.
         11   -1    0    0    0    0 -0.00000000000E+00 -0.00000000000E+00 -0.45593999997E+02  0.45594000000E+02  0.51100000000E-03 0. -1.
    9900012    2    1    2    0    0  0.32320204936E+02 -0.23661302848E+02  0.69794111447E+01  0.50528867207E+02  0.30000022361E+02 0.  0.
         12    1    1    2    0    0 -0.32320204936E+02  0.23661302848E+02 -0.69794111447E+01  0.40659132793E+02  0.00000000000E+00 0. -1.
         11    1    3    3    0    0 -0.31918034748E+01 -0.80944847605E+01 -0.28295924642E+01  0.91495839651E+01  0.51100000000E-03 0. -1.
        -11    1    3    3    0    0  0.14259694263E+02 -0.13725906157E+01  0.60377944855E+01  0.15545991380E+02  0.51100000000E-03 0.  1.
        -12    1    3    3    0    0  0.21252314149E+02 -0.14194227471E+02  0.37712091234E+01  0.25833291862E+02  0.00000000000E+00 0.  1.
</event>
<event>
 7    1  0.3383281E-011  0.5052886E+02  0.7816164E-02  0.1300439E+00
        -11   -1    0    0    0    0  0.00000000000E+00  0.00000000000E+00  0.45593999997E+02  0.45594000000E+02  0.51100000000E-03 0.  1.
         11   -1    0    0    0    0 -0.00000000000E+00 -0.00000000000E+00 -0.45593999997E+02  0.45594000000E+02  0.51100000000E-03 0. -1.
    9900012    2    1    2    0    0 -0.24671481038E+02  0.31937141359E+02  0.49500008277E+01  0.50528862245E+02  0.30000007280E+02 0.  0.
         12    1    1    2    0    0  0.24671481038E+02 -0.31937141359E+02 -0.49500008277E+01  0.40659137755E+02  0.00000000000E+00 0. -1.
         11    1    3    3    0    0 -0.25011152479E+02  0.17883371890E+02 -0.59034271422E+01  0.31308516265E+02  0.51100000000E-03 0. -1.
        -11    1    3    3    0    0 -0.18713531805E+01  0.12407395652E+01 -0.58217580367E-01  0.22460603159E+01  0.51100000000E-03 0.  1.
        -12    1    3    3    0    0  0.22110246209E+01  0.12813029904E+02  0.10911645550E+02  0.16974285664E+02  0.00000000000E+00 0.  1.
</event>
<event>
 7    1  0.3383281E-011  0.5052887E+02  0.7816164E-02  0.1300439E+00
        -11   -1    0    0    0    0  0.00000000000E+00  0.00000000000E+00  0.45593999997E+02  0.45594000000E+02  0.51100000000E-03 0.  1.
         11   -1    0    0    0    0 -0.00000000000E+00 -0.00000000000E+00 -0.45593999997E+02  0.45594000000E+02  0.51100000000E-03 0. -1.
    9900012    2    1    2    0    0 -0.30297197753E+02 -0.92412706697E+01  0.25492031510E+02  0.50528868851E+02  0.30000027360E+02 0.  0.
         12    1    1    2    0    0  0.30297197753E+02  0.92412706697E+01 -0.25492031510E+02  0.40659131149E+02  0.00000000000E+00 0. -1.
         11    1    3    3    0    0 -0.10274855301E+01  0.27452510856E+00  0.44504492722E+01  0.45757610881E+01  0.51100000000E-03 0. -1.
        -11    1    3    3    0    0 -0.30387498363E+02 -0.13076483473E+02  0.10402766894E+02  0.34678697152E+02  0.51100000000E-03 0.  1.
        -12    1    3    3    0    0  0.11177861409E+01  0.35606876951E+01  0.10638815344E+02  0.11274410612E+02  0.00000000000E+00 0.  1.
</event>
<event>
 7    1  0.3383281E-011  0.5052886E+02  0.7816164E-02  0.1300439E+00
        -11   -1    0    0    0    0  0.00000000000E+00  0.00000000000E+00  0.45593999997E+02  0.45594000000E+02  0.51100000000E-03 0.  1.
         11   -1    0    0    0    0 -0.00000000000E+00 -0.00000000000E+00 -0.45593999997E+02  0.45594000000E+02  0.51100000000E-03 0. -1.
    9900012    2    1    2    0    0 -0.93493464557E+01  0.28674869788E+02  0.27267333344E+02  0.50528857065E+02  0.29999991536E+02 0.  0.
         12    1    1    2    0    0  0.93493464557E+01 -0.28674869788E+02 -0.27267333344E+02  0.40659142935E+02  0.00000000000E+00 0. -1.
         11    1    3    3    0    0  0.26083421138E+01  0.37665361429E+00 -0.12103998046E+00  0.26381750257E+01  0.51100000000E-03 0. -1.
        -11    1    3    3    0    0  0.44592104529E+01  0.94285790789E+00  0.11248890050E+02  0.12137177041E+02  0.51100000000E-03 0.  1.
        -12    1    3    3    0    0 -0.16416899022E+02  0.27355358266E+02  0.16139483274E+02  0.35753504999E+02  0.00000000000E+00 0.  1.
</event>
<event>
 7    1  0.3383281E-011  0.5052887E+02  0.7816164E-02  0.1300439E+00
        -11   -1    0    0    0    0  0.00000000000E+00  0.00000000000E+00  0.45593999997E+02  0.45594000000E+02  0.51100000000E-03 0.  1.
         11   -1    0    0    0    0 -0.00000000000E+00 -0.00000000000E+00 -0.45593999997E+02  0.45594000000E+02  0.51100000000E-03 0. -1.
    9900012    2    1    2    0    0  0.53590145687E+01 -0.18199324533E+02  0.35961516425E+02  0.50528866780E+02  0.30000021066E+02 0.  0.
         12    1    1    2    0    0 -0.53590145687E+01  0.18199324533E+02 -0.35961516425E+02  0.40659133220E+02  0.00000000000E+00 0. -1.
         11    1    3    3    0    0  0.18188083859E+01 -0.24461549136E+02  0.22328461340E+02  0.33169800062E+02  0.51100000000E-03 0.  1.
        -11    1    3    3    0    0  0.29214914729E+01  0.34859071042E+01  0.13404656975E+01  0.47416779006E+01  0.51100000000E-03 0. -1.
        -12    1    3    3    0    0  0.61871470983E+00  0.27763174986E+01  0.12292589387E+02  0.12617388818E+02  0.00000000000E+00 0.  1.
</event>
<event>
 7    1  0.3383281E-011  0.5052886E+02  0.7816164E-02  0.1300439E+00
        -11   -1    0    0    0    0  0.00000000000E+00  0.00000000000E+00  0.45593999997E+02  0.45594000000E+02  0.51100000000E-03 0. -1.
         11   -1    0    0    0    0 -0.00000000000E+00 -0.00000000000E+00 -0.45593999997E+02  0.45594000000E+02  0.51100000000E-03 0.  1.
    9900012    2    1    2    0    0 -0.14423407566E+02 -0.36047022693E+02 -0.12072414008E+02  0.50528859443E+02  0.29999998763E+02 0.  0.
         12    1    1    2    0    0  0.14423407566E+02  0.36047022693E+02  0.12072414008E+02  0.40659140557E+02  0.00000000000E+00 0. -1.
         11    1    3    3    0    0  0.77521356011E+00  0.69467867197E+00 -0.27678589350E+01  0.29571232416E+01  0.51100000000E-03 0. -1.
        -11    1    3    3    0    0 -0.24126814445E+01 -0.75588801536E+01 -0.13273814830E+02  0.15464535601E+02  0.51100000000E-03 0.  1.
         12    1    3    3    0    0 -0.12785939682E+02 -0.29182821211E+02  0.39692597569E+01  0.32107200601E+02  0.00000000000E+00 0. -1.
</event>
<event>
 7    1  0.3383281E-011  0.5052883E+02  0.7816164E-02  0.1300439E+00
        -11   -1    0    0    0    0  0.00000000000E+00  0.00000000000E+00  0.45593999997E+02  0.45594000000E+02  0.51100000000E-03 0. -1.
         11   -1    0    0    0    0 -0.00000000000E+00 -0.00000000000E+00 -0.45593999997E+02  0.45594000000E+02  0.51100000000E-03 0.  1.
    9900012    2    1    2    0    0 -0.28635144044E+02 -0.24474115736E+02 -0.15304070177E+02  0.50528826626E+02  0.29999899012E+02 0.  0.
         12    1    1    2    0    0  0.28635144044E+02  0.24474115736E+02  0.15304070177E+02  0.40659173374E+02  0.00000000000E+00 0. -1.
         11    1    3    3    0    0 -0.38318312436E+01 -0.72164979808E+01 -0.68725873482E+01  0.10676761255E+02  0.51100000000E-03 0. -1.
        -11    1    3    3    0    0 -0.25649478399E+02 -0.21576738158E+02 -0.10308477225E+02  0.35067307776E+02  0.51100000000E-03 0.  1.
        -12    1    3    3    0    0  0.84616559790E+00  0.43191204032E+01  0.18769943969E+01  0.47847575949E+01  0.00000000000E+00 0.  1.
</event>
<event>
 7    1  0.3383281E-011  0.5052886E+02  0.7816164E-02  0.1300439E+00
        -11   -1    0    0    0    0  0.00000000000E+00  0.00000000000E+00  0.45593999997E+02  0.45594000000E+02  0.51100000000E-03 0.  1.
         11   -1    0    0    0    0 -0.00000000000E+00 -0.00000000000E+00 -0.45593999997E+02  0.45594000000E+02  0.51100000000E-03 0. -1.
    9900012    2    1    2    0    0  0.27073021040E+02 -0.27049670788E+02  0.13730725094E+02  0.50528856261E+02  0.29999989090E+02 0.  0.
         12    1    1    2    0    0 -0.27073021040E+02  0.27049670788E+02 -0.13730725094E+02  0.40659143739E+02  0.00000000000E+00 0. -1.
         11    1    3    3    0    0  0.82131599887E+01 -0.30694671092E+01  0.43242952032E+00  0.87786457318E+01  0.51100000000E-03 0. -1.
        -11    1    3    3    0    0  0.25008618546E+02 -0.19997456821E+02  0.90219026909E+01  0.33267461720E+02  0.51100000000E-03 0.  1.
         12    1    3    3    0    0 -0.61487574943E+01 -0.39827468583E+01  0.42763928828E+01  0.84827488086E+01  0.00000000000E+00 0. -1.
</event>
<event>
 7    1  0.5364816E-011  0.5052886E+02  0.7816164E-02  0.1300439E+00
        -11   -1    0    0    0    0  0.00000000000E+00  0.00000000000E+00  0.45593999997E+02  0.45594000000E+02  0.51100000000E-03 0. -1.
         11   -1    0    0    0    0 -0.00000000000E+00 -0.00000000000E+00 -0.45593999997E+02  0.45594000000E+02  0.51100000000E-03 0.  1.
    9900012    2    1    2    0    0  0.14807405465E+02 -0.11181346346E+02 -0.36178497182E+02  0.50528863006E+02  0.30000009593E+02 0.  0.
         12    1    1    2    0    0 -0.14807405465E+02  0.11181346346E+02  0.36178497182E+02  0.40659136994E+02  0.00000000000E+00 0. -1.
         11    1    3    3    0    0  0.66329584774E+01  0.20467468209E+01 -0.20794784526E+02  0.21922782087E+02  0.51100000000E-03 0. -1.
        -11    1    3    3    0    0  0.12730477220E+02 -0.10682263436E+02 -0.16333288132E+02  0.23301332662E+02  0.51100000000E-03 0.  1.
         12    1    3    3    0    0 -0.45560302319E+01 -0.25458297308E+01  0.94957547488E+00  0.53047482574E+01  0.00000000000E+00 0. -1.
</event>
<event>
 7    1  0.3383281E-011  0.5052886E+02  0.7816164E-02  0.1300439E+00
        -11   -1    0    0    0    0  0.00000000000E+00  0.00000000000E+00  0.45593999997E+02  0.45594000000E+02  0.51100000000E-03 0.  1.
         11   -1    0    0    0    0 -0.00000000000E+00 -0.00000000000E+00 -0.45593999997E+02  0.45594000000E+02  0.51100000000E-03 0. -1.
    9900012    2    1    2    0    0 -0.23087701824E+02 -0.48434516361E+01  0.33115926705E+02  0.50528860796E+02  0.30000002877E+02 0.  0.
         12    1    1    2    0    0  0.23087701824E+02  0.48434516361E+01 -0.33115926705E+02  0.40659139204E+02  0.00000000000E+00 0. -1.
         11    1    3    3    0    0 -0.77514070934E+01 -0.65270932035E+00  0.54602851925E+00  0.77979797890E+01  0.51100000000E-03 0. -1.
        -11    1    3    3    0    0 -0.12489411005E+02  0.41350247043E+01  0.54870829001E+01  0.14254539473E+02  0.51100000000E-03 0.  1.
         12    1    3    3    0    0 -0.28468837253E+01 -0.83257670201E+01  0.27082815285E+02  0.28476341535E+02  0.00000000000E+00 0. -1.
</event>
<event>
 7    1  0.3383281E-011  0.5052887E+02  0.7816164E-02  0.1300439E+00
        -11   -1    0    0    0    0  0.00000000000E+00  0.00000000000E+00  0.45593999997E+02  0.45594000000E+02  0.51100000000E-03 0.  1.
         11   -1    0    0    0    0 -0.00000000000E+00 -0.00000000000E+00 -0.45593999997E+02  0.45594000000E+02  0.51100000000E-03 0. -1.
    9900012    2    1    2    0    0  0.14942423535E+02 -0.15624627724E+02  0.34434867404E+02  0.50528866884E+02  0.30000021380E+02 0.  0.
         12    1    1    2    0    0 -0.14942423535E+02  0.15624627724E+02 -0.34434867404E+02  0.40659133116E+02  0.00000000000E+00 0. -1.
         11    1    3    3    0    0  0.80818997233E+01 -0.89791933608E+00  0.69857096472E+01  0.10720237955E+02  0.51100000000E-03 0.  1.
        -11    1    3    3    0    0  0.63308653616E+01  0.52461942585E+01  0.44720480097E+01  0.93595739266E+01  0.51100000000E-03 0. -1.
         12    1    3    3    0    0  0.52965845004E+00 -0.19972902647E+02  0.22977109747E+02  0.30449055002E+02  0.00000000000E+00 0. -1.
</event>
<event>
 7    1  0.3383281E-011  0.5052886E+02  0.7816164E-02  0.1300439E+00
        -11   -1    0    0    0    0  0.00000000000E+00  0.00000000000E+00  0.45593999997E+02  0.45594000000E+02  0.51100000000E-03 0.  1.
         11   -1    0    0    0    0 -0.00000000000E+00 -0.00000000000E+00 -0.45593999997E+02  0.45594000000E+02  0.51100000000E-03 0. -1.
    9900012    2    1    2    0    0 -0.30575014591E+02  0.85662423734E+01  0.25395929899E+02  0.50528864728E+02  0.30000014826E+02 0.  0.
         12    1    1    2    0    0  0.30575014591E+02 -0.85662423734E+01 -0.25395929899E+02  0.40659135272E+02  0.00000000000E+00 0. -1.
         11    1    3    3    0    0 -0.47943185623E+01 -0.32880773230E+01  0.18751832257E+01  0.61084576900E+01  0.51100000000E-03 0. -1.
        -11    1    3    3    0    0 -0.21520204420E+02  0.39233031898E+01  0.30875054088E+01  0.22091722344E+02  0.51100000000E-03 0.  1.
        -12    1    3    3    0    0 -0.42604916086E+01  0.79310165066E+01  0.20433241265E+02  0.22328684694E+02  0.00000000000E+00 0.  1.
</event>
<event>
 7    1  0.3383281E-011  0.5052886E+02  0.7816164E-02  0.1300439E+00
        -11   -1    0    0    0    0  0.00000000000E+00  0.00000000000E+00  0.45593999997E+02  0.45594000000E+02  0.51100000000E-03 0.  1.
         11   -1    0    0    0    0 -0.00000000000E+00 -0.00000000000E+00 -0.45593999997E+02  0.45594000000E+02  0.51100000000E-03 0. -1.
    9900012    2    1    2    0    0  0.38364239412E+02 -0.11566123376E+02  0.68975242097E+01  0.50528856922E+02  0.29999991100E+02 0.  0.
         12    1    1    2    0    0 -0.38364239412E+02  0.11566123376E+02 -0.68975242097E+01  0.40659143078E+02  0.00000000000E+00 0. -1.
         11    1    3    3    0    0  0.21638613814E+02 -0.20757993116E+01  0.59337288854E+01  0.22533257406E+02  0.51100000000E-03 0. -1.
        -11    1    3    3    0    0  0.17138736635E+02  0.70175707675E+00  0.34498300508E+01  0.17496573496E+02  0.51100000000E-03 0.  1.
         12    1    3    3    0    0 -0.41311103715E+00 -0.10192081141E+02 -0.24860347265E+01  0.10499026021E+02  0.00000000000E+00 0. -1.
</event>
<event>
 7    1  0.3383281E-011  0.5052885E+02  0.7816164E-02  0.1300439E+00
        -11   -1    0    0    0    0  0.00000000000E+00  0.00000000000E+00  0.45593999997E+02  0.45594000000E+02  0.51100000000E-03 0.  1.
         11   -1    0    0    0    0 -0.00000000000E+00 -0.00000000000E+00 -0.45593999997E+02  0.45594000000E+02  0.51100000000E-03 0. -1.
    9900012    2    1    2    0    0 -0.11176052200E+02 -0.99894670013E+01  0.37795145480E+02  0.50528848317E+02  0.29999964944E+02 0.  0.
         12    1    1    2    0    0  0.11176052200E+02  0.99894670013E+01 -0.37795145480E+02  0.40659151683E+02  0.00000000000E+00 0. -1.
         11    1    3    3    0    0 -0.12805492236E+02 -0.11616261464E+02  0.80091266198E+01  0.19054245492E+02  0.51100000000E-03 0.  1.
        -11    1    3    3    0    0 -0.41944096708E+01  0.36231766462E+00  0.12097595808E+02  0.12809222114E+02  0.51100000000E-03 0. -1.
        -12    1    3    3    0    0  0.58238497073E+01  0.12644767980E+01  0.17688423052E+02  0.18665380711E+02  0.00000000000E+00 0.  1.
</event>
<event>
 7    1  0.3383281E-011  0.5052885E+02  0.7816164E-02  0.1300439E+00
        -11   -1    0    0    0    0  0.00000000000E+00  0.00000000000E+00  0.45593999997E+02  0.45594000000E+02  0.51100000000E-03 0.  1.
         11   -1    0    0    0    0 -0.00000000000E+00 -0.00000000000E+00 -0.45593999997E+02  0.45594000000E+02  0.51100000000E-03 0. -1.
    9900012    2    1    2    0    0  0.22626245104E+02 -0.12187814840E+02  0.31506770433E+02  0.50528851199E+02  0.29999973706E+02 0.  0.
         12    1    1    2    0    0 -0.22626245104E+02  0.12187814840E+02 -0.31506770433E+02  0.40659148801E+02  0.00000000000E+00 0. -1.
         11    1    3    3    0    0  0.20145294975E+02 -0.60704782283E+01  0.15708181405E+02  0.26257010090E+02  0.51100000000E-03 0. -1.
        -11    1    3    3    0    0 -0.26995791305E+00  0.36019823915E+01 -0.17577143128E+01  0.40170529359E+01  0.51100000000E-03 0.  1.
         12    1    3    3    0    0  0.27509080411E+01 -0.97193190034E+01  0.17556303341E+02  0.20254788173E+02  0.00000000000E+00 0. -1.
</event>
<event>
 7    1  0.3383281E-011  0.5052886E+02  0.7816164E-02  0.1300439E+00
        -11   -1    0    0    0    0  0.00000000000E+00  0.00000000000E+00  0.45593999997E+02  0.45594000000E+02  0.51100000000E-03 0.  1.
         11   -1    0    0    0    0 -0.00000000000E+00 -0.00000000000E+00 -0.45593999997E+02  0.45594000000E+02  0.51100000000E-03 0. -1.
    9900012    2    1    2    0    0 -0.26759755012E+02  0.21358381801E+02  0.21929444583E+02  0.50528862021E+02  0.30000006599E+02 0.  0.
         12    1    1    2    0    0  0.26759755012E+02 -0.21358381801E+02 -0.21929444583E+02  0.40659137979E+02  0.00000000000E+00 0. -1.
         11    1    3    3    0    0 -0.87020823956E+01 -0.22052948174E+01  0.12439881157E+00  0.89780308853E+01  0.51100000000E-03 0. -1.
        -11    1    3    3    0    0 -0.88409001431E+01 -0.11956225965E+01  0.62456656309E+01  0.10890333703E+02  0.51100000000E-03 0.  1.
         12    1    3    3    0    0 -0.92167724735E+01  0.24759299215E+02  0.15559380141E+02  0.30660497432E+02  0.00000000000E+00 0. -1.
</event>
<event>
 7    1  0.3383281E-011  0.5052886E+02  0.7816164E-02  0.1300439E+00
        -11   -1    0    0    0    0  0.00000000000E+00  0.00000000000E+00  0.45593999997E+02  0.45594000000E+02  0.51100000000E-03 0.  1.
         11   -1    0    0    0    0 -0.00000000000E+00 -0.00000000000E+00 -0.45593999997E+02  0.45594000000E+02  0.51100000000E-03 0. -1.
    9900012    2    1    2    0    0  0.13349373492E+02 -0.12374600367E+02  0.36356969871E+02  0.50528858776E+02  0.29999996735E+02 0.  0.
         12    1    1    2    0    0 -0.13349373492E+02  0.12374600367E+02 -0.36356969871E+02  0.40659141224E+02  0.00000000000E+00 0. -1.
         11    1    3    3    0    0  0.81783158186E+01 -0.12681671995E+02  0.16789938127E+02  0.22574580324E+02  0.51100000000E-03 0. -1.
        -11    1    3    3    0    0  0.12314836665E+02 -0.15458169410E+01  0.10452764453E+02  0.16226676711E+02  0.51100000000E-03 0.  1.
         12    1    3    3    0    0 -0.71437789923E+01  0.18528885694E+01  0.91142672911E+01  0.11727601741E+02  0.00000000000E+00 0. -1.
</event>
<event>
 7    1  0.3383281E-011  0.5052886E+02  0.7816164E-02  0.1300439E+00
        -11   -1    0    0    0    0  0.00000000000E+00  0.00000000000E+00  0.45593999997E+02  0.45594000000E+02  0.51100000000E-03 0.  1.
         11   -1    0    0    0    0 -0.00000000000E+00 -0.00000000000E+00 -0.45593999997E+02  0.45594000000E+02  0.51100000000E-03 0. -1.
    9900012    2    1    2    0    0  0.24919374297E+02 -0.31935613740E+02 -0.35081725924E+01  0.50528856929E+02  0.29999991122E+02 0.  0.
         12    1    1    2    0    0 -0.24919374297E+02  0.31935613740E+02  0.35081725924E+01  0.40659143071E+02  0.00000000000E+00 0. -1.
         11    1    3    3    0    0 -0.38854399585E+01 -0.22516906942E+01 -0.29790064341E+01  0.53889919510E+01  0.51100000000E-03 0. -1.
        -11    1    3    3    0    0  0.23884966960E+02 -0.29268786909E+02 -0.54503495214E+01  0.38168833411E+02  0.51100000000E-03 0.  1.
         12    1    3    3    0    0  0.49198472948E+01 -0.41513613725E+00  0.49211833631E+01  0.69710315671E+01  0.00000000000E+00 0. -1.
</event>
<event>
 7    1  0.3383281E-011  0.5052888E+02  0.7816164E-02  0.1300439E+00
        -11   -1    0    0    0    0  0.00000000000E+00  0.00000000000E+00  0.45593999997E+02  0.45594000000E+02  0.51100000000E-03 0.  1.
         11   -1    0    0    0    0 -0.00000000000E+00 -0.00000000000E+00 -0.45593999997E+02  0.45594000000E+02  0.51100000000E-03 0. -1.
    9900012    2    1    2    0    0  0.34233873857E+02  0.29525260964E+01  0.21736803393E+02  0.50528878621E+02  0.30000057055E+02 0.  0.
         12    1    1    2    0    0 -0.34233873857E+02 -0.29525260964E+01 -0.21736803393E+02  0.40659121379E+02  0.00000000000E+00 0. -1.
         11    1    3    3    0    0  0.12551636147E+02 -0.54118556913E+01  0.11898478541E+02  0.18121963024E+02  0.51100000000E-03 0.  1.
        -11    1    3    3    0    0  0.61693985274E+00 -0.44671386762E+01  0.59043826737E+01  0.74295139648E+01  0.51100000000E-03 0. -1.
         12    1    3    3    0    0  0.21065297857E+02  0.12831520464E+02  0.39339421788E+01  0.24977401632E+02  0.00000000000E+00 0. -1.
</event>
<event>
 7    1  0.3383281E-011  0.5052886E+02  0.7816164E-02  0.1300439E+00
        -11   -1    0    0    0    0  0.00000000000E+00  0.00000000000E+00  0.45593999997E+02  0.45594000000E+02  0.51100000000E-03 0.  1.
         11   -1    0    0    0    0 -0.00000000000E+00 -0.00000000000E+00 -0.45593999997E+02  0.45594000000E+02  0.51100000000E-03 0. -1.
    9900012    2    1    2    0    0 -0.29529371293E+02  0.13085314656E+02  0.24697292245E+02  0.50528862369E+02  0.30000007658E+02 0.  0.
         12    1    1    2    0    0  0.29529371293E+02 -0.13085314656E+02 -0.24697292245E+02  0.40659137631E+02  0.00000000000E+00 0. -1.
         11    1    3    3    0    0  0.28833595616E+01 -0.19818185732E+01 -0.13344101515E+01  0.37445985008E+01  0.51100000000E-03 0. -1.
        -11    1    3    3    0    0 -0.28125138450E+02  0.63783573425E+01  0.16666184670E+02  0.33308686058E+02  0.51100000000E-03 0.  1.
        -12    1    3    3    0    0 -0.42875924053E+01  0.86887758868E+01  0.93655177264E+01  0.13475577811E+02  0.00000000000E+00 0.  1.
</event>
<event>
 7    1  0.3524848E-011  0.5052878E+02  0.7816164E-02  0.1300439E+00
        -11   -1    0    0    0    0  0.00000000000E+00  0.00000000000E+00  0.45593999997E+02  0.45594000000E+02  0.51100000000E-03 0.  1.
         11   -1    0    0    0    0 -0.00000000000E+00 -0.00000000000E+00 -0.45593999997E+02  0.45594000000E+02  0.51100000000E-03 0. -1.
    9900012    2    1    2    0    0 -0.22854131223E+02 -0.33240907438E+02  0.50894637001E+01  0.50528783554E+02  0.29999768090E+02 0.  0.
         12    1    1    2    0    0  0.22854131223E+02  0.33240907438E+02 -0.50894637001E+01  0.40659216446E+02  0.00000000000E+00 0. -1.
         11    1    3    3    0    0  0.45462126621E-02 -0.55116879198E+01 -0.35857597120E+01  0.65754389486E+01  0.51100000000E-03 0. -1.
        -11    1    3    3    0    0 -0.29970967615E+00 -0.18390546814E+02  0.62129110585E+01  0.19413971827E+02  0.51100000000E-03 0.  1.
         12    1    3    3    0    0 -0.22558967759E+02 -0.93386727039E+01  0.24623123536E+01  0.24539372778E+02  0.00000000000E+00 0. -1.
</event>
<event>
 7    1  0.3383281E-011  0.5052887E+02  0.7816164E-02  0.1300439E+00
        -11   -1    0    0    0    0  0.00000000000E+00  0.00000000000E+00  0.45593999997E+02  0.45594000000E+02  0.51100000000E-03 0.  1.
         11   -1    0    0    0    0 -0.00000000000E+00 -0.00000000000E+00 -0.45593999997E+02  0.45594000000E+02  0.51100000000E-03 0. -1.
    9900012    2    1    2    0    0  0.35680404043E+01 -0.40489648747E+02  0.10109944472E+01  0.50528872147E+02  0.30000037377E+02 0.  0.
         12    1    1    2    0    0 -0.35680404043E+01  0.40489648747E+02 -0.10109944472E+01  0.40659127853E+02  0.00000000000E+00 0. -1.
         11    1    3    3    0    0  0.61963125772E+01 -0.63532275173E+01 -0.74796347255E+01  0.11606150323E+02  0.51100000000E-03 0. -1.
        -11    1    3    3    0    0  0.13551594410E+01 -0.27432232780E+01  0.65369241051E+01  0.72175555475E+01  0.51100000000E-03 0.  1.
         12    1    3    3    0    0 -0.39834316140E+01 -0.31393197952E+02  0.19537050675E+01  0.31705166276E+02  0.00000000000E+00 0. -1.
</event>
<event>
 7    1  0.3383281E-011  0.5052887E+02  0.7816164E-02  0.1300439E+00
        -11   -1    0    0    0    0  0.00000000000E+00  0.00000000000E+00  0.45593999997E+02  0.45594000000E+02  0.51100000000E-03 0.  1.
         11   -1    0    0    0    0 -0.00000000000E+00 -0.00000000000E+00 -0.45593999997E+02  0.45594000000E+02  0.51100000000E-03 0. -1.
    9900012    2    1    2    0    0 -0.33121374315E+02  0.10833361629E+02  0.20947027246E+02  0.50528866818E+02  0.30000021179E+02 0.  0.
         12    1    1    2    0    0  0.33121374315E+02 -0.10833361629E+02 -0.20947027246E+02  0.40659133182E+02  0.00000000000E+00 0. -1.
         11    1    3    3    0    0 -0.98229646200E+01 -0.79758267655E+01  0.23461424615E+00  0.12655413491E+02  0.51100000000E-03 0. -1.
        -11    1    3    3    0    0 -0.20167736256E+01  0.36524108256E+01  0.75307398531E+01  0.86092696375E+01  0.51100000000E-03 0.  1.
        -12    1    3    3    0    0 -0.21281636069E+02  0.15156777569E+02  0.13181673146E+02  0.29264183689E+02  0.00000000000E+00 0.  1.
</event>
<event>
 7    1  0.3383281E-011  0.5052885E+02  0.7816164E-02  0.1300439E+00
        -11   -1    0    0    0    0  0.00000000000E+00  0.00000000000E+00  0.45593999997E+02  0.45594000000E+02  0.51100000000E-03 0. -1.
         11   -1    0    0    0    0 -0.00000000000E+00 -0.00000000000E+00 -0.45593999997E+02  0.45594000000E+02  0.51100000000E-03 0.  1.
    9900012    2    1    2    0    0 -0.30863561882E+02  0.19146832491E+02  0.18275818770E+02  0.50528853450E+02  0.29999980546E+02 0.  0.
         12    1    1    2    0    0  0.30863561882E+02 -0.19146832491E+02 -0.18275818770E+02  0.40659146550E+02  0.00000000000E+00 0. -1.
         11    1    3    3    0    0 -0.63600785591E+01  0.61592731714E+01  0.18735555919E+02  0.20722169316E+02  0.51100000000E-03 0. -1.
        -11    1    3    3    0    0 -0.49012574501E+01  0.48717457528E+01  0.41977035916E+01  0.80856012130E+01  0.51100000000E-03 0.  1.
         12    1    3    3    0    0 -0.19602225872E+02  0.81158135672E+01 -0.46574407409E+01  0.21721082921E+02  0.00000000000E+00 0. -1.
</event>
<event>
 7    1  0.3383281E-011  0.5052886E+02  0.7816164E-02  0.1300439E+00
        -11   -1    0    0    0    0  0.00000000000E+00  0.00000000000E+00  0.45593999997E+02  0.45594000000E+02  0.51100000000E-03 0. -1.
         11   -1    0    0    0    0 -0.00000000000E+00 -0.00000000000E+00 -0.45593999997E+02  0.45594000000E+02  0.51100000000E-03 0.  1.
    9900012    2    1    2    0    0 -0.24347624723E+02  0.72065353129E+01 -0.31755699047E+02  0.50528863230E+02  0.30000010275E+02 0.  0.
         12    1    1    2    0    0  0.24347624723E+02 -0.72065353129E+01  0.31755699047E+02  0.40659136770E+02  0.00000000000E+00 0. -1.
         11    1    3    3    0    0  0.13934260505E+00  0.15714639103E+00  0.13514021938E+01  0.13676254971E+01  0.51100000000E-03 0. -1.
        -11    1    3    3    0    0  0.26862071033E+01  0.56494051756E+01 -0.15597024473E+02  0.16804721364E+02  0.51100000000E-03 0.  1.
        -12    1    3    3    0    0 -0.27173174431E+02  0.13999837463E+01 -0.17510076768E+02  0.32356516370E+02  0.00000000000E+00 0.  1.
</event>
<event>
 7    1  0.3383281E-011  0.5052885E+02  0.7816164E-02  0.1300439E+00
        -11   -1    0    0    0    0  0.00000000000E+00  0.00000000000E+00  0.45593999997E+02  0.45594000000E+02  0.51100000000E-03 0.  1.
         11   -1    0    0    0    0 -0.00000000000E+00 -0.00000000000E+00 -0.45593999997E+02  0.45594000000E+02  0.51100000000E-03 0. -1.
    9900012    2    1    2    0    0  0.25995332606E+02 -0.17416386324E+02  0.25963024784E+02  0.50528849913E+02  0.29999969794E+02 0.  0.
         12    1    1    2    0    0 -0.25995332606E+02  0.17416386324E+02 -0.25963024784E+02  0.40659150087E+02  0.00000000000E+00 0. -1.
         11    1    3    3    0    0  0.52665003779E+01  0.56072771437E+01  0.12733413732E+02  0.14876740528E+02  0.51100000000E-03 0. -1.
        -11    1    3    3    0    0  0.68276082322E-01 -0.30601507389E+01  0.48324757332E+01  0.57203152135E+01  0.51100000000E-03 0.  1.
        -12    1    3    3    0    0  0.20660556146E+02 -0.19963512729E+02  0.83971353185E+01  0.29931794171E+02  0.00000000000E+00 0.  1.
</event>
<event>
 7    1  0.3383281E-011  0.5052887E+02  0.7816164E-02  0.1300439E+00
        -11   -1    0    0    0    0  0.00000000000E+00  0.00000000000E+00  0.45593999997E+02  0.45594000000E+02  0.51100000000E-03 0. -1.
         11   -1    0    0    0    0 -0.00000000000E+00 -0.00000000000E+00 -0.45593999997E+02  0.45594000000E+02  0.51100000000E-03 0.  1.
    9900012    2    1    2    0    0  0.18272411963E+01  0.72068644231E+01 -0.39973584825E+02  0.50528865861E+02  0.30000018270E+02 0.  0.
         12    1    1    2    0    0 -0.18272411963E+01 -0.72068644231E+01  0.39973584825E+02  0.40659134139E+02  0.00000000000E+00 0. -1.
         11    1    3    3    0    0 -0.76772327124E+01  0.16060205368E+01 -0.21346904715E+01  0.81287211636E+01  0.51100000000E-03 0. -1.
        -11    1    3    3    0    0 -0.43638003999E+01  0.14357041241E+01 -0.10567976769E+02  0.11523286576E+02  0.51100000000E-03 0.  1.
        -12    1    3    3    0    0  0.13868274309E+02  0.41651397622E+01 -0.27270917584E+02  0.30876858121E+02  0.00000000000E+00 0.  1.
</event>
<event>
 7    1  0.3383281E-011  0.5052886E+02  0.7816164E-02  0.1300439E+00
        -11   -1    0    0    0    0  0.00000000000E+00  0.00000000000E+00  0.45593999997E+02  0.45594000000E+02  0.51100000000E-03 0.  1.
         11   -1    0    0    0    0 -0.00000000000E+00 -0.00000000000E+00 -0.45593999997E+02  0.45594000000E+02  0.51100000000E-03 0. -1.
    9900012    2    1    2    0    0  0.16106594331E+02 -0.14063207648E+02  0.34582792894E+02  0.50528858904E+02  0.29999997126E+02 0.  0.
         12    1    1    2    0    0 -0.16106594331E+02  0.14063207648E+02 -0.34582792894E+02  0.40659141096E+02  0.00000000000E+00 0. -1.
         11    1    3    3    0    0  0.85255255944E+00  0.66191476408E+01  0.43765829975E+01  0.79808796728E+01  0.51100000000E-03 0. -1.
        -11    1    3    3    0    0  0.16649231419E+02 -0.14859977679E+02  0.17019196482E+02  0.28065439469E+02  0.51100000000E-03 0.  1.
         12    1    3    3    0    0 -0.13951896468E+01 -0.58223776104E+01  0.13187013414E+02  0.14482539762E+02  0.00000000000E+00 0. -1.
</event>
<event>
 7    1  0.3383281E-011  0.5052886E+02  0.7816164E-02  0.1300439E+00
        -11   -1    0    0    0    0  0.00000000000E+00  0.00000000000E+00  0.45593999997E+02  0.45594000000E+02  0.51100000000E-03 0. -1.
         11   -1    0    0    0    0 -0.00000000000E+00 -0.00000000000E+00 -0.45593999997E+02  0.45594000000E+02  0.51100000000E-03 0.  1.
    9900012    2    1    2    0    0 -0.19158230573E+02  0.22661468750E+02 -0.27795422447E+02  0.50528862360E+02  0.30000007630E+02 0.  0.
         12    1    1    2    0    0  0.19158230573E+02 -0.22661468750E+02  0.27795422447E+02  0.40659137640E+02  0.00000000000E+00 0. -1.
         11    1    3    3    0    0 -0.50776575556E+01  0.10811506630E+02 -0.60856743004E+01  0.13405473278E+02  0.51100000000E-03 0. -1.
        -11    1    3    3    0    0 -0.92923140102E+01  0.16186641408E+02 -0.23879846102E+02  0.30308439581E+02  0.51100000000E-03 0.  1.
         12    1    3    3    0    0 -0.47882590072E+01 -0.43366792879E+01  0.21700979549E+01  0.68149495009E+01  0.00000000000E+00 0. -1.
</event>
<event>
 7    1  0.3383281E-011  0.5052886E+02  0.7816164E-02  0.1300439E+00
        -11   -1    0    0    0    0  0.00000000000E+00  0.00000000000E+00  0.45593999997E+02  0.45594000000E+02  0.51100000000E-03 0. -1.
         11   -1    0    0    0    0 -0.00000000000E+00 -0.00000000000E+00 -0.45593999997E+02  0.45594000000E+02  0.51100000000E-03 0.  1.
    9900012    2    1    2    0    0 -0.16586495211E+02  0.34273622901E+01 -0.36963589354E+02  0.50528861131E+02  0.30000003894E+02 0.  0.
         12    1    1    2    0    0  0.16586495211E+02 -0.34273622901E+01  0.36963589354E+02  0.40659138869E+02  0.00000000000E+00 0. -1.
         11    1    3    3    0    0  0.16705374465E+01 -0.62756596795E+01 -0.58166364034E+01  0.87182486248E+01  0.51100000000E-03 0. -1.
        -11    1    3    3    0    0 -0.14834424044E+02 -0.19922571284E+01 -0.21842419032E+02  0.26478680002E+02  0.51100000000E-03 0.  1.
         12    1    3    3    0    0 -0.34226086128E+01  0.11695279098E+02 -0.93045339179E+01  0.15331932505E+02  0.00000000000E+00 0. -1.
</event>
<event>
 7    1  0.3383281E-011  0.5052887E+02  0.7816164E-02  0.1300439E+00
        -11   -1    0    0    0    0  0.00000000000E+00  0.00000000000E+00  0.45593999997E+02  0.45594000000E+02  0.51100000000E-03 0.  1.
         11   -1    0    0    0    0 -0.00000000000E+00 -0.00000000000E+00 -0.45593999997E+02  0.45594000000E+02  0.51100000000E-03 0. -1.
    9900012    2    1    2    0    0 -0.13056320759E+01 -0.17673816098E+02  0.36593667759E+02  0.50528868545E+02  0.30000026430E+02 0.  0.
         12    1    1    2    0    0  0.13056320759E+01  0.17673816098E+02 -0.36593667759E+02  0.40659131455E+02  0.00000000000E+00 0. -1.
         11    1    3    3    0    0 -0.69124603326E+00  0.21937247530E+00 -0.17554640510E+01  0.18993682257E+01  0.51100000000E-03 0. -1.
        -11    1    3    3    0    0  0.93334202287E+01 -0.64789019033E+00  0.78774532902E+01  0.12230566850E+02  0.51100000000E-03 0.  1.
        -12    1    3    3    0    0 -0.99478062713E+01 -0.17245298383E+02  0.30471678520E+02  0.36398933470E+02  0.00000000000E+00 0.  1.
</event>
<event>
 7    1  0.3383281E-011  0.5052885E+02  0.7816164E-02  0.1300439E+00
        -11   -1    0    0    0    0  0.00000000000E+00  0.00000000000E+00  0.45593999997E+02  0.45594000000E+02  0.51100000000E-03 0. -1.
         11   -1    0    0    0    0 -0.00000000000E+00 -0.00000000000E+00 -0.45593999997E+02  0.45594000000E+02  0.51100000000E-03 0.  1.
    9900012    2    1    2    0    0 -0.31985606297E+02 -0.18597182190E+02 -0.16859184010E+02  0.50528852431E+02  0.29999977449E+02 0.  0.
         12    1    1    2    0    0  0.31985606297E+02  0.18597182190E+02  0.16859184010E+02  0.40659147569E+02  0.00000000000E+00 0. -1.
         11    1    3    3    0    0 -0.19271589326E+01 -0.43374008437E+01  0.63579213573E+01  0.79341131753E+01  0.51100000000E-03 0. -1.
        -11    1    3    3    0    0 -0.29513745994E+01 -0.67894695262E+01 -0.31225436987E+01  0.80347861132E+01  0.51100000000E-03 0.  1.
         12    1    3    3    0    0 -0.27107072765E+02 -0.74703118200E+01 -0.20094561668E+02  0.34559953142E+02  0.00000000000E+00 0. -1.
</event>
<event>
 7    1  0.3383281E-011  0.5052886E+02  0.7816164E-02  0.1300439E+00
        -11   -1    0    0    0    0  0.00000000000E+00  0.00000000000E+00  0.45593999997E+02  0.45594000000E+02  0.51100000000E-03 0. -1.
         11   -1    0    0    0    0 -0.00000000000E+00 -0.00000000000E+00 -0.45593999997E+02  0.45594000000E+02  0.51100000000E-03 0.  1.
    9900012    2    1    2    0    0 -0.36702807960E+02 -0.16742001297E+02 -0.50768881085E+01  0.50528861883E+02  0.30000006180E+02 0.  0.
         12    1    1    2    0    0  0.36702807960E+02  0.16742001297E+02  0.50768881085E+01  0.40659138117E+02  0.00000000000E+00 0. -1.
         11    1    3    3    0    0 -0.18440473049E+02 -0.23633432793E+01  0.34497553105E+01  0.18908655418E+02  0.51100000000E-03 0. -1.
        -11    1    3    3    0    0 -0.11382220218E+02  0.24714417652E+01 -0.31186066980E+00  0.11651618722E+02  0.51100000000E-03 0.  1.
        -12    1    3    3    0    0 -0.68801146921E+01 -0.16850099783E+02 -0.82147827492E+01  0.19968587744E+02  0.00000000000E+00 0.  1.
</event>
<event>
 7    1  0.3383281E-011  0.5052888E+02  0.7816164E-02  0.1300439E+00
        -11   -1    0    0    0    0  0.00000000000E+00  0.00000000000E+00  0.45593999997E+02  0.45594000000E+02  0.51100000000E-03 0.  1.
         11   -1    0    0    0    0 -0.00000000000E+00 -0.00000000000E+00 -0.45593999997E+02  0.45594000000E+02  0.51100000000E-03 0. -1.
    9900012    2    1    2    0    0 -0.32531161008E+02  0.17350275324E+02  0.17142212725E+02  0.50528881128E+02  0.30000064677E+02 0.  0.
         12    1    1    2    0    0  0.32531161008E+02 -0.17350275324E+02 -0.17142212725E+02  0.40659118872E+02  0.00000000000E+00 0. -1.
         11    1    3    3    0    0 -0.10798326089E+02  0.86205932758E+01 -0.35287979191E+01  0.14260816589E+02  0.51100000000E-03 0. -1.
        -11    1    3    3    0    0 -0.23008232514E+02  0.83144616537E+01  0.11558720145E+02  0.27057587618E+02  0.51100000000E-03 0.  1.
        -12    1    3    3    0    0  0.12753975958E+01  0.41522039498E+00  0.91122904982E+01  0.92104769218E+01  0.00000000000E+00 0.  1.
</event>
<event>
 7    1  0.3383281E-011  0.5052882E+02  0.7816164E-02  0.1300439E+00
        -11   -1    0    0    0    0  0.00000000000E+00  0.00000000000E+00  0.45593999997E+02  0.45594000000E+02  0.51100000000E-03 0. -1.
         11   -1    0    0    0    0 -0.00000000000E+00 -0.00000000000E+00 -0.45593999997E+02  0.45594000000E+02  0.51100000000E-03 0.  1.
    9900012    2    1    2    0    0 -0.34757145120E+02  0.20156385882E+02 -0.62313409474E+01  0.50528823438E+02  0.29999889322E+02 0.  0.
         12    1    1    2    0    0  0.34757145120E+02 -0.20156385882E+02  0.62313409474E+01  0.40659176562E+02  0.00000000000E+00 0. -1.
         11    1    3    3    0    0 -0.22570847937E+02  0.22407747172E+01  0.28275363467E+01  0.22857366645E+02  0.51100000000E-03 0. -1.
        -11    1    3    3    0    0 -0.13423429523E+02  0.75089844864E+01 -0.33652877920E+01  0.15744791849E+02  0.51100000000E-03 0.  1.
        -12    1    3    3    0    0  0.12371323402E+01  0.10406626679E+02 -0.56935895021E+01  0.11926664944E+02  0.00000000000E+00 0.  1.
</event>
<event>
 7    1  0.3383281E-011  0.5052886E+02  0.7816164E-02  0.1300439E+00
        -11   -1    0    0    0    0  0.00000000000E+00  0.00000000000E+00  0.45593999997E+02  0.45594000000E+02  0.51100000000E-03 0. -1.
         11   -1    0    0    0    0 -0.00000000000E+00 -0.00000000000E+00 -0.45593999997E+02  0.45594000000E+02  0.51100000000E-03 0.  1.
    9900012    2    1    2    0    0  0.20379050275E+02  0.62003920580E+01 -0.34632577538E+02  0.50528856149E+02  0.29999988750E+02 0.  0.
         12    1    1    2    0    0 -0.20379050275E+02 -0.62003920580E+01  0.34632577538E+02  0.40659143851E+02  0.00000000000E+00 0. -1.
         11    1    3    3    0    0  0.31071214298E+01 -0.22896092949E+01  0.21866278321E+00  0.38657894377E+01  0.51100000000E-03 0. -1.
        -11    1    3    3    0    0  0.15380234435E+02 -0.53198008325E+01 -0.13400651367E+02  0.21081493056E+02  0.51100000000E-03 0.  1.
         12    1    3    3    0    0  0.18916944098E+01  0.13809802185E+02 -0.21450588955E+02  0.25581573655E+02  0.00000000000E+00 0. -1.
</event>
<event>
 7    1  0.3383281E-011  0.5052886E+02  0.7816164E-02  0.1300439E+00
        -11   -1    0    0    0    0  0.00000000000E+00  0.00000000000E+00  0.45593999997E+02  0.45594000000E+02  0.51100000000E-03 0.  1.
         11   -1    0    0    0    0 -0.00000000000E+00 -0.00000000000E+00 -0.45593999997E+02  0.45594000000E+02  0.51100000000E-03 0. -1.
    9900012    2    1    2    0    0  0.75597767229E+00 -0.25350916720E+01  0.40572987350E+02  0.50528862103E+02  0.30000006849E+02 0.  0.
         12    1    1    2    0    0 -0.75597767229E+00  0.25350916720E+01 -0.40572987350E+02  0.40659137897E+02  0.00000000000E+00 0. -1.
         11    1    3    3    0    0 -0.20674254359E+01  0.45695410148E+01  0.83378707302E+01  0.97301100504E+01  0.51100000000E-03 0. -1.
        -11    1    3    3    0    0 -0.98955061198E+01 -0.32681566561E+01  0.79131982828E+01  0.13085128835E+02  0.51100000000E-03 0.  1.
        -12    1    3    3    0    0  0.12718909228E+02 -0.38364760308E+01  0.24321918337E+02  0.27713623218E+02  0.00000000000E+00 0.  1.
</event>
<event>
 7    1  0.3383281E-011  0.5052887E+02  0.7816164E-02  0.1300439E+00
        -11   -1    0    0    0    0  0.00000000000E+00  0.00000000000E+00  0.45593999997E+02  0.45594000000E+02  0.51100000000E-03 0. -1.
         11   -1    0    0    0    0 -0.00000000000E+00 -0.00000000000E+00 -0.45593999997E+02  0.45594000000E+02  0.51100000000E-03 0.  1.
    9900012    2    1    2    0    0  0.35235020663E+02 -0.47383565194E+01 -0.19728309884E+02  0.50528869235E+02  0.30000028528E+02 0.  0.
         12    1    1    2    0    0 -0.35235020663E+02  0.47383565194E+01  0.19728309884E+02  0.40659130765E+02  0.00000000000E+00 0. -1.
         11    1    3    3    0    0  0.58438039416E+01  0.32625669037E+01  0.41789781086E+01  0.78903894456E+01  0.51100000000E-03 0.  1.
        -11    1    3    3    0    0 -0.17283475889E+01 -0.22986939728E+01 -0.50380263091E+01  0.58011109903E+01  0.51100000000E-03 0. -1.
        -12    1    3    3    0    0  0.31119564311E+02 -0.57022294504E+01 -0.18869261684E+02  0.36837368800E+02  0.00000000000E+00 0.  1.
</event>
<event>
 7    1  0.3383281E-011  0.5052886E+02  0.7816164E-02  0.1300439E+00
        -11   -1    0    0    0    0  0.00000000000E+00  0.00000000000E+00  0.45593999997E+02  0.45594000000E+02  0.51100000000E-03 0. -1.
         11   -1    0    0    0    0 -0.00000000000E+00 -0.00000000000E+00 -0.45593999997E+02  0.45594000000E+02  0.51100000000E-03 0.  1.
    9900012    2    1    2    0    0  0.18171853399E+02  0.11129442412E+02 -0.34627809739E+02  0.50528856482E+02  0.29999989761E+02 0.  0.
         12    1    1    2    0    0 -0.18171853399E+02 -0.11129442412E+02  0.34627809739E+02  0.40659143518E+02  0.00000000000E+00 0. -1.
         11    1    3    3    0    0  0.39480677356E+01  0.27305140027E+01 -0.67003017077E+01  0.82423897505E+01  0.51100000000E-03 0. -1.
        -11    1    3    3    0    0  0.80027197964E+01 -0.39333675226E+01 -0.27009503758E+02  0.28443420992E+02  0.51100000000E-03 0.  1.
         12    1    3    3    0    0  0.62210658668E+01  0.12332295932E+02 -0.91800427243E+00  0.13843045739E+02  0.00000000000E+00 0. -1.
</event>
<event>
 7    1  0.3383281E-011  0.5052887E+02  0.7816164E-02  0.1300439E+00
        -11   -1    0    0    0    0  0.00000000000E+00  0.00000000000E+00  0.45593999997E+02  0.45594000000E+02  0.51100000000E-03 0. -1.
         11   -1    0    0    0    0 -0.00000000000E+00 -0.00000000000E+00 -0.45593999997E+02  0.45594000000E+02  0.51100000000E-03 0.  1.
    9900012    2    1    2    0    0  0.26528073074E+02  0.29555328674E+02 -0.87125794227E+01  0.50528866287E+02  0.30000019567E+02 0.  0.
         12    1    1    2    0    0 -0.26528073074E+02 -0.29555328674E+02  0.87125794227E+01  0.40659133713E+02  0.00000000000E+00 0. -1.
         11    1    3    3    0    0 -0.21836477458E+01  0.37278113906E+01  0.57984330763E+01  0.72309557905E+01  0.51100000000E-03 0. -1.
        -11    1    3    3    0    0  0.17845294983E+02  0.81268245951E+01 -0.39714934945E+01  0.20006813636E+02  0.51100000000E-03 0.  1.
        -12    1    3    3    0    0  0.10866425837E+02  0.17700692688E+02 -0.10539519005E+02  0.23291096861E+02  0.00000000000E+00 0.  1.
</event>
<event>
 7    1  0.3383281E-011  0.5052885E+02  0.7816164E-02  0.1300439E+00
        -11   -1    0    0    0    0  0.00000000000E+00  0.00000000000E+00  0.45593999997E+02  0.45594000000E+02  0.51100000000E-03 0.  1.
         11   -1    0    0    0    0 -0.00000000000E+00 -0.00000000000E+00 -0.45593999997E+02  0.45594000000E+02  0.51100000000E-03 0. -1.
    9900012    2    1    2    0    0  0.15413664160E+02  0.37438296945E+02 -0.37362532665E+01  0.50528847163E+02  0.29999961435E+02 0.  0.
         12    1    1    2    0    0 -0.15413664160E+02 -0.37438296945E+02  0.37362532665E+01  0.40659152837E+02  0.00000000000E+00 0. -1.
         11    1    3    3    0    0  0.25354562743E+01  0.14787150806E+02 -0.62954756868E+01  0.16270260657E+02  0.51100000000E-03 0. -1.
        -11    1    3    3    0    0  0.51893851752E+01  0.19379715650E+02  0.10575580507E+02  0.22679197528E+02  0.51100000000E-03 0.  1.
         12    1    3    3    0    0  0.76888227109E+01  0.32714304889E+01 -0.80163580866E+01  0.11579388978E+02  0.00000000000E+00 0. -1.
</event>
<event>
 7    1  0.3383281E-011  0.5052886E+02  0.7816164E-02  0.1300439E+00
        -11   -1    0    0    0    0  0.00000000000E+00  0.00000000000E+00  0.45593999997E+02  0.45594000000E+02  0.51100000000E-03 0.  1.
         11   -1    0    0    0    0 -0.00000000000E+00 -0.00000000000E+00 -0.45593999997E+02  0.45594000000E+02  0.51100000000E-03 0. -1.
    9900012    2    1    2    0    0  0.13617897621E+02 -0.33820577131E+02  0.17996871771E+02  0.50528856298E+02  0.29999989202E+02 0.  0.
         12    1    1    2    0    0 -0.13617897621E+02  0.33820577131E+02 -0.17996871771E+02  0.40659143702E+02  0.00000000000E+00 0. -1.
         11    1    3    3    0    0  0.20223545864E+01 -0.15118939234E+01 -0.41727147916E+01  0.48772215760E+01  0.51100000000E-03 0. -1.
        -11    1    3    3    0    0  0.16170493621E+02 -0.31020098936E+02  0.20828429010E+02  0.40713079683E+02  0.51100000000E-03 0.  1.
         12    1    3    3    0    0 -0.45749505864E+01 -0.12885842710E+01  0.13411575521E+01  0.49385550387E+01  0.00000000000E+00 0. -1.
</event>
<event>
 7    1  0.3383281E-011  0.5052885E+02  0.7816164E-02  0.1300439E+00
        -11   -1    0    0    0    0  0.00000000000E+00  0.00000000000E+00  0.45593999997E+02  0.45594000000E+02  0.51100000000E-03 0. -1.
         11   -1    0    0    0    0 -0.00000000000E+00 -0.00000000000E+00 -0.45593999997E+02  0.45594000000E+02  0.51100000000E-03 0.  1.
    9900012    2    1    2    0    0 -0.13757186254E+02 -0.31153765688E+02 -0.22211463234E+02  0.50528851101E+02  0.29999973408E+02 0.  0.
         12    1    1    2    0    0  0.13757186254E+02  0.31153765688E+02  0.22211463234E+02  0.40659148899E+02  0.00000000000E+00 0. -1.
         11    1    3    3    0    0  0.88504057971E+01 -0.68157201291E+01 -0.73620430641E+01  0.13378467849E+02  0.51100000000E-03 0. -1.
        -11    1    3    3    0    0 -0.18334407781E+01 -0.56601772595E+01 -0.12485565261E+01  0.60793096117E+01  0.51100000000E-03 0.  1.
         12    1    3    3    0    0 -0.20774151273E+02 -0.18677868299E+02 -0.13600863644E+02  0.31071073641E+02  0.00000000000E+00 0. -1.
</event>
<event>
 7    1  0.3383281E-011  0.5052886E+02  0.7816164E-02  0.1300439E+00
        -11   -1    0    0    0    0  0.00000000000E+00  0.00000000000E+00  0.45593999997E+02  0.45594000000E+02  0.51100000000E-03 0. -1.
         11   -1    0    0    0    0 -0.00000000000E+00 -0.00000000000E+00 -0.45593999997E+02  0.45594000000E+02  0.51100000000E-03 0.  1.
    9900012    2    1    2    0    0  0.29609836364E+02 -0.10892320211E+02 -0.25647235758E+02  0.50528858948E+02  0.29999997258E+02 0.  0.
         12    1    1    2    0    0 -0.29609836364E+02  0.10892320211E+02  0.25647235758E+02  0.40659141052E+02  0.00000000000E+00 0. -1.
         11    1    3    3    0    0  0.13554686836E+02 -0.67774505413E+01 -0.86627174139E+01  0.17455831241E+02  0.51100000000E-03 0. -1.
        -11    1    3    3    0    0  0.21506125211E+02 -0.26146524428E+01 -0.94066923622E+01  0.23618545477E+02  0.51100000000E-03 0.  1.
         12    1    3    3    0    0 -0.54509756831E+01 -0.15002172272E+01 -0.75778259818E+01  0.94544822300E+01  0.00000000000E+00 0. -1.
</event>
<event>
 7    1  0.3383281E-011  0.5052886E+02  0.7816164E-02  0.1300439E+00
        -11   -1    0    0    0    0  0.00000000000E+00  0.00000000000E+00  0.45593999997E+02  0.45594000000E+02  0.51100000000E-03 0.  1.
         11   -1    0    0    0    0 -0.00000000000E+00 -0.00000000000E+00 -0.45593999997E+02  0.45594000000E+02  0.51100000000E-03 0. -1.
    9900012    2    1    2    0    0  0.27469933366E+02 -0.85644561732E+01  0.28726614505E+02  0.50528861672E+02  0.30000005539E+02 0.  0.
         12    1    1    2    0    0 -0.27469933366E+02  0.85644561732E+01 -0.28726614505E+02  0.40659138328E+02  0.00000000000E+00 0. -1.
         11    1    3    3    0    0 -0.28677070407E+01 -0.46413993929E+01 -0.26937913617E+01  0.60846400187E+01  0.51100000000E-03 0. -1.
        -11    1    3    3    0    0  0.18763371541E+01  0.15599584945E+01  0.27232198973E+01  0.36565063230E+01  0.51100000000E-03 0.  1.
        -12    1    3    3    0    0  0.28461303252E+02 -0.54830152749E+01  0.28697185969E+02  0.40787715330E+02  0.00000000000E+00 0.  1.
</event>
<event>
 7    1  0.3383281E-011  0.5052886E+02  0.7816164E-02  0.1300439E+00
        -11   -1    0    0    0    0  0.00000000000E+00  0.00000000000E+00  0.45593999997E+02  0.45594000000E+02  0.51100000000E-03 0.  1.
         11   -1    0    0    0    0 -0.00000000000E+00 -0.00000000000E+00 -0.45593999997E+02  0.45594000000E+02  0.51100000000E-03 0. -1.
    9900012    2    1    2    0    0  0.25593496070E+02 -0.20703469960E+02  0.23864307388E+02  0.50528857405E+02  0.29999992568E+02 0.  0.
         12    1    1    2    0    0 -0.25593496070E+02  0.20703469960E+02 -0.23864307388E+02  0.40659142595E+02  0.00000000000E+00 0. -1.
         11    1    3    3    0    0  0.19549384714E+01 -0.74645571541E+01  0.32658501494E+01  0.83789722158E+01  0.51100000000E-03 0. -1.
        -11    1    3    3    0    0  0.22213951706E+02 -0.19280744894E+02  0.20654992766E+02  0.35942113189E+02  0.51100000000E-03 0.  1.
        -12    1    3    3    0    0  0.14246058923E+01  0.60418320887E+01 -0.56535527216E-01  0.62077719998E+01  0.00000000000E+00 0.  1.
</event>
<event>
 7    1  0.3383281E-011  0.5052885E+02  0.7816164E-02  0.1300439E+00
        -11   -1    0    0    0    0  0.00000000000E+00  0.00000000000E+00  0.45593999997E+02  0.45594000000E+02  0.51100000000E-03 0. -1.
         11   -1    0    0    0    0 -0.00000000000E+00 -0.00000000000E+00 -0.45593999997E+02  0.45594000000E+02  0.51100000000E-03 0.  1.
    9900012    2    1    2    0    0  0.39684887620E+02 -0.25504160638E+01 -0.84717935947E+01  0.50528853253E+02  0.29999979948E+02 0.  0.
         12    1    1    2    0    0 -0.39684887620E+02  0.25504160638E+01  0.84717935947E+01  0.40659146747E+02  0.00000000000E+00 0. -1.
         11    1    3    3    0    0  0.73316455676E+01 -0.87899667996E+01 -0.63153330614E+01  0.13072871720E+02  0.51100000000E-03 0. -1.
        -11    1    3    3    0    0  0.60133197786E+00 -0.12477014869E-01 -0.49385476697E+01  0.49750386099E+01  0.51100000000E-03 0.  1.
         12    1    3    3    0    0  0.31751910074E+02  0.62520277507E+01  0.27820871363E+01  0.32480942923E+02  0.00000000000E+00 0. -1.
</event>
<event>
 7    1  0.3383281E-011  0.5052886E+02  0.7816164E-02  0.1300439E+00
        -11   -1    0    0    0    0  0.00000000000E+00  0.00000000000E+00  0.45593999997E+02  0.45594000000E+02  0.51100000000E-03 0. -1.
         11   -1    0    0    0    0 -0.00000000000E+00 -0.00000000000E+00 -0.45593999997E+02  0.45594000000E+02  0.51100000000E-03 0.  1.
    9900012    2    1    2    0    0  0.33450465813E+02  0.19846443038E+02 -0.11846977820E+02  0.50528857758E+02  0.29999993641E+02 0.  0.
         12    1    1    2    0    0 -0.33450465813E+02 -0.19846443038E+02  0.11846977820E+02  0.40659142242E+02  0.00000000000E+00 0. -1.
         11    1    3    3    0    0  0.35510682632E+01 -0.17056245630E+01  0.37850448291E+01  0.54631314811E+01  0.51100000000E-03 0. -1.
        -11    1    3    3    0    0  0.25578739810E+01  0.94198691335E+00 -0.10001741401E+02  0.10366527382E+02  0.51100000000E-03 0.  1.
         12    1    3    3    0    0  0.27341523569E+02  0.20610080688E+02 -0.56302812480E+01  0.34699198895E+02  0.00000000000E+00 0. -1.
</event>
<event>
 7    1  0.3383281E-011  0.5052886E+02  0.7816164E-02  0.1300439E+00
        -11   -1    0    0    0    0  0.00000000000E+00  0.00000000000E+00  0.45593999997E+02  0.45594000000E+02  0.51100000000E-03 0.  1.
         11   -1    0    0    0    0 -0.00000000000E+00 -0.00000000000E+00 -0.45593999997E+02  0.45594000000E+02  0.51100000000E-03 0. -1.
    9900012    2    1    2    0    0  0.16740009892E+02  0.31901476407E+02  0.18847645934E+02  0.50528857297E+02  0.29999992239E+02 0.  0.
         12    1    1    2    0    0 -0.16740009892E+02 -0.31901476407E+02 -0.18847645934E+02  0.40659142703E+02  0.00000000000E+00 0. -1.
         11    1    3    3    0    0  0.15636188343E+02  0.62671368357E+01 -0.39456394600E+00  0.16850016943E+02  0.51100000000E-03 0. -1.
        -11    1    3    3    0    0  0.46979222198E+01  0.19779822900E+02  0.11615466889E+02  0.23414331902E+02  0.51100000000E-03 0.  1.
        -12    1    3    3    0    0 -0.35941006713E+01  0.58545166718E+01  0.76267429907E+01  0.10264508451E+02  0.00000000000E+00 0.  1.
</event>
<event>
 7    1  0.3383281E-011  0.5052886E+02  0.7816164E-02  0.1300439E+00
        -11   -1    0    0    0    0  0.00000000000E+00  0.00000000000E+00  0.45593999997E+02  0.45594000000E+02  0.51100000000E-03 0.  1.
         11   -1    0    0    0    0 -0.00000000000E+00 -0.00000000000E+00 -0.45593999997E+02  0.45594000000E+02  0.51100000000E-03 0. -1.
    9900012    2    1    2    0    0 -0.12361628294E+02 -0.17998222647E+01  0.38692588035E+02  0.50528861013E+02  0.30000003536E+02 0.  0.
         12    1    1    2    0    0  0.12361628294E+02  0.17998222647E+01 -0.38692588035E+02  0.40659138987E+02  0.00000000000E+00 0. -1.
         11    1    3    3    0    0 -0.27414542536E+01 -0.43929256525E+01  0.13706190152E+02  0.14651723992E+02  0.51100000000E-03 0.  1.
        -11    1    3    3    0    0  0.45421615457E+00  0.11854898260E+02  0.94044452145E+01  0.15138973384E+02  0.51100000000E-03 0. -1.
         12    1    3    3    0    0 -0.10074390195E+02 -0.92617948720E+01  0.15581952669E+02  0.20738163637E+02  0.00000000000E+00 0. -1.
</event>
<event>
 7    1  0.3383281E-011  0.5052886E+02  0.7816164E-02  0.1300439E+00
        -11   -1    0    0    0    0  0.00000000000E+00  0.00000000000E+00  0.45593999997E+02  0.45594000000E+02  0.51100000000E-03 0. -1.
         11   -1    0    0    0    0 -0.00000000000E+00 -0.00000000000E+00 -0.45593999997E+02  0.45594000000E+02  0.51100000000E-03 0.  1.
    9900012    2    1    2    0    0  0.18446557337E+02 -0.35762072157E+02  0.58278878973E+01  0.50528861299E+02  0.30000004405E+02 0.  0.
         12    1    1    2    0    0 -0.18446557337E+02  0.35762072157E+02 -0.58278878973E+01  0.40659138701E+02  0.00000000000E+00 0. -1.
         11    1    3    3    0    0  0.15520123382E+01 -0.10100002848E+02  0.17820143378E+00  0.10220105471E+02  0.51100000000E-03 0. -1.
        -11    1    3    3    0    0  0.10957825210E+00 -0.22574840750E+02  0.55268020764E+01  0.23241793901E+02  0.51100000000E-03 0.  1.
         12    1    3    3    0    0  0.16784966747E+02 -0.30872285592E+01  0.12288438715E+00  0.17066961928E+02  0.00000000000E+00 0. -1.
</event>
<event>
 7    1  0.3383281E-011  0.5052888E+02  0.7816164E-02  0.1300439E+00
        -11   -1    0    0    0    0  0.00000000000E+00  0.00000000000E+00  0.45593999997E+02  0.45594000000E+02  0.51100000000E-03 0. -1.
         11   -1    0    0    0    0 -0.00000000000E+00 -0.00000000000E+00 -0.45593999997E+02  0.45594000000E+02  0.51100000000E-03 0.  1.
    9900012    2    1    2    0    0  0.19750583253E+02  0.35502735365E+02 -0.16231064580E+01  0.50528877631E+02  0.30000054047E+02 0.  0.
         12    1    1    2    0    0 -0.19750583253E+02 -0.35502735365E+02  0.16231064580E+01  0.40659122369E+02  0.00000000000E+00 0. -1.
         11    1    3    3    0    0  0.79744455339E+01  0.98805463439E+01  0.51070108903E+01  0.13685705613E+02  0.51100000000E-03 0. -1.
        -11    1    3    3    0    0 -0.11995943357E+00  0.12476484498E+02  0.71017255026E+01  0.14356585983E+02  0.51100000000E-03 0.  1.
        -12    1    3    3    0    0  0.11896097153E+02  0.13145704523E+02 -0.13831842851E+02  0.22486586035E+02  0.00000000000E+00 0.  1.
</event>
<event>
 7    1  0.3383281E-011  0.5052886E+02  0.7816164E-02  0.1300439E+00
        -11   -1    0    0    0    0  0.00000000000E+00  0.00000000000E+00  0.45593999997E+02  0.45594000000E+02  0.51100000000E-03 0. -1.
         11   -1    0    0    0    0 -0.00000000000E+00 -0.00000000000E+00 -0.45593999997E+02  0.45594000000E+02  0.51100000000E-03 0.  1.
    9900012    2    1    2    0    0 -0.30814364734E+02 -0.23663911660E+02 -0.11985812010E+02  0.50528862300E+02  0.30000007446E+02 0.  0.
         12    1    1    2    0    0  0.30814364734E+02  0.23663911660E+02  0.11985812010E+02  0.40659137700E+02  0.00000000000E+00 0. -1.
         11    1    3    3    0    0 -0.13889460401E+02 -0.98270724293E+01  0.59519284925E+01  0.18025368673E+02  0.51100000000E-03 0. -1.
        -11    1    3    3    0    0  0.98591053156E-01 -0.33961170845E+01  0.22753774823E+01  0.40890921236E+01  0.51100000000E-03 0.  1.
        -12    1    3    3    0    0 -0.17023495386E+02 -0.10440722147E+02 -0.20213117985E+02  0.28414401503E+02  0.00000000000E+00 0.  1.
</event>
<event>
 7    1  0.3752024E-011  0.5052886E+02  0.7816164E-02  0.1300439E+00
        -11   -1    0    0    0    0  0.00000000000E+00  0.00000000000E+00  0.45593999997E+02  0.45594000000E+02  0.51100000000E-03 0.  1.
         11   -1    0    0    0    0 -0.00000000000E+00 -0.00000000000E+00 -0.45593999997E+02  0.45594000000E+02  0.51100000000E-03 0. -1.
    9900012    2    1    2    0    0  0.11407817926E+02  0.31694031807E+02  0.22770936267E+02  0.50528862030E+02  0.30000006626E+02 0.  0.
         12    1    1    2    0    0 -0.11407817926E+02 -0.31694031807E+02 -0.22770936267E+02  0.40659137970E+02  0.00000000000E+00 0. -1.
         11    1    3    3    0    0  0.25538393680E+00 -0.34505298528E+01  0.10403585383E+01  0.36129936853E+01  0.51100000000E-03 0. -1.
        -11    1    3    3    0    0  0.24046062299E+01  0.21401898567E+02  0.21773313206E+02  0.30625162230E+02  0.51100000000E-03 0.  1.
         12    1    3    3    0    0  0.87478277596E+01  0.13742663092E+02 -0.42735477144E-01  0.16290706114E+02  0.00000000000E+00 0. -1.
</event>
<event>
 7    1  0.3383281E-011  0.5052886E+02  0.7816164E-02  0.1300439E+00
        -11   -1    0    0    0    0  0.00000000000E+00  0.00000000000E+00  0.45593999997E+02  0.45594000000E+02  0.51100000000E-03 0. -1.
         11   -1    0    0    0    0 -0.00000000000E+00 -0.00000000000E+00 -0.45593999997E+02  0.45594000000E+02  0.51100000000E-03 0.  1.
    9900012    2    1    2    0    0  0.12834726951E+02  0.17579360535E+02 -0.34342412766E+02  0.50528862684E+02  0.30000008613E+02 0.  0.
         12    1    1    2    0    0 -0.12834726951E+02 -0.17579360535E+02  0.34342412766E+02  0.40659137316E+02  0.00000000000E+00 0. -1.
         11    1    3    3    0    0 -0.35078135958E+01  0.26027088460E+01 -0.45969735609E+01  0.63412156359E+01  0.51100000000E-03 0. -1.
        -11    1    3    3    0    0  0.14144472403E+01 -0.64095372926E+01 -0.52161952009E+01  0.83840039322E+01  0.51100000000E-03 0.  1.
        -12    1    3    3    0    0  0.14928093306E+02  0.21386188981E+02 -0.24529244005E+02  0.35803643115E+02  0.00000000000E+00 0.  1.
</event>
<event>
 7    1  0.3383281E-011  0.5052888E+02  0.7816164E-02  0.1300439E+00
        -11   -1    0    0    0    0  0.00000000000E+00  0.00000000000E+00  0.45593999997E+02  0.45594000000E+02  0.51100000000E-03 0.  1.
         11   -1    0    0    0    0 -0.00000000000E+00 -0.00000000000E+00 -0.45593999997E+02  0.45594000000E+02  0.51100000000E-03 0. -1.
    9900012    2    1    2    0    0 -0.16068792727E+01 -0.27016703643E+02  0.30342701088E+02  0.50528882375E+02  0.30000068468E+02 0.  0.
         12    1    1    2    0    0  0.16068792727E+01  0.27016703643E+02 -0.30342701088E+02  0.40659117625E+02  0.00000000000E+00 0. -1.
         11    1    3    3    0    0  0.10929967078E+02 -0.71244287769E+01  0.50776148225E+01  0.14000137081E+02  0.51100000000E-03 0. -1.
        -11    1    3    3    0    0 -0.22545667772E+01 -0.14058457634E+02  0.16609231379E+02  0.21876696955E+02  0.51100000000E-03 0.  1.
        -12    1    3    3    0    0 -0.10282279574E+02 -0.58338172320E+01  0.86558548865E+01  0.14652048340E+02  0.00000000000E+00 0.  1.
</event>
<event>
 7    1  0.3383281E-011  0.5052886E+02  0.7816164E-02  0.1300439E+00
        -11   -1    0    0    0    0  0.00000000000E+00  0.00000000000E+00  0.45593999997E+02  0.45594000000E+02  0.51100000000E-03 0.  1.
         11   -1    0    0    0    0 -0.00000000000E+00 -0.00000000000E+00 -0.45593999997E+02  0.45594000000E+02  0.51100000000E-03 0. -1.
    9900012    2    1    2    0    0  0.17898336526E+02  0.31693976926E+02  0.18119242666E+02  0.50528861070E+02  0.30000003708E+02 0.  0.
         12    1    1    2    0    0 -0.17898336526E+02 -0.31693976926E+02 -0.18119242666E+02  0.40659138930E+02  0.00000000000E+00 0. -1.
         11    1    3    3    0    0  0.20463945091E+01  0.13972755246E+02 -0.32585293747E+01  0.14492882170E+02  0.51100000000E-03 0. -1.
        -11    1    3    3    0    0  0.17669647975E+02  0.19407900212E+02  0.17918709676E+02  0.31779918296E+02  0.51100000000E-03 0.  1.
        -12    1    3    3    0    0 -0.18177059588E+01 -0.16866785320E+01  0.34590623641E+01  0.42560606036E+01  0.00000000000E+00 0.  1.
</event>
<event>
 7    1  0.3383281E-011  0.5052885E+02  0.7816164E-02  0.1300439E+00
        -11   -1    0    0    0    0  0.00000000000E+00  0.00000000000E+00  0.45593999997E+02  0.45594000000E+02  0.51100000000E-03 0.  1.
         11   -1    0    0    0    0 -0.00000000000E+00 -0.00000000000E+00 -0.45593999997E+02  0.45594000000E+02  0.51100000000E-03 0. -1.
    9900012    2    1    2    0    0 -0.15551015695E+02 -0.19398247043E+02  0.32172039679E+02  0.50528853248E+02  0.29999979934E+02 0.  0.
         12    1    1    2    0    0  0.15551015695E+02  0.19398247043E+02 -0.32172039679E+02  0.40659146752E+02  0.00000000000E+00 0. -1.
         11    1    3    3    0    0 -0.38993898708E+00 -0.84865052051E+01  0.78945472489E+01  0.11597271211E+02  0.51100000000E-03 0. -1.
        -11    1    3    3    0    0  0.20682773957E+01 -0.68779606565E+01  0.19234598028E+02  0.20531777218E+02  0.51100000000E-03 0.  1.
         12    1    3    3    0    0 -0.17229354103E+02 -0.40337811812E+01  0.50428944016E+01  0.18399804819E+02  0.00000000000E+00 0. -1.
</event>
<event>
 7    1  0.3383281E-011  0.5052884E+02  0.7816164E-02  0.1300439E+00
        -11   -1    0    0    0    0  0.00000000000E+00  0.00000000000E+00  0.45593999997E+02  0.45594000000E+02  0.51100000000E-03 0.  1.
         11   -1    0    0    0    0 -0.00000000000E+00 -0.00000000000E+00 -0.45593999997E+02  0.45594000000E+02  0.51100000000E-03 0. -1.
    9900012    2    1    2    0    0 -0.78322462486E+01 -0.28604769025E+02  0.27813487495E+02  0.50528843849E+02  0.29999951363E+02 0.  0.
         12    1    1    2    0    0  0.78322462486E+01  0.28604769025E+02 -0.27813487495E+02  0.40659156151E+02  0.00000000000E+00 0. -1.
         11    1    3    3    0    0 -0.13579337009E+02 -0.11916066973E+02  0.87183190076E+01  0.20059913567E+02  0.51100000000E-03 0. -1.
        -11    1    3    3    0    0 -0.65940826229E+00  0.20558558546E+01  0.68463071174E+01  0.71786686759E+01  0.51100000000E-03 0.  1.
        -12    1    3    3    0    0  0.64064990229E+01 -0.18744557907E+02  0.12248861370E+02  0.23290261606E+02  0.00000000000E+00 0.  1.
</event>
<event>
 7    1  0.3383281E-011  0.5052886E+02  0.7816164E-02  0.1300439E+00
        -11   -1    0    0    0    0  0.00000000000E+00  0.00000000000E+00  0.45593999997E+02  0.45594000000E+02  0.51100000000E-03 0.  1.
         11   -1    0    0    0    0 -0.00000000000E+00 -0.00000000000E+00 -0.45593999997E+02  0.45594000000E+02  0.51100000000E-03 0. -1.
    9900012    2    1    2    0    0 -0.25202921077E+02  0.31745217743E+02 -0.31968052418E+01  0.50528860263E+02  0.30000001257E+02 0.  0.
         12    1    1    2    0    0  0.25202921077E+02 -0.31745217743E+02  0.31968052418E+01  0.40659139737E+02  0.00000000000E+00 0. -1.
         11    1    3    3    0    0 -0.54667732999E+01  0.14541890251E+02 -0.49250227145E+01  0.16297485432E+02  0.51100000000E-03 0.  1.
        -11    1    3    3    0    0 -0.18876757587E+02  0.85639117977E+01  0.92926692955E+01  0.22716211506E+02  0.51100000000E-03 0. -1.
         12    1    3    3    0    0 -0.85939018934E+00  0.86394156944E+01 -0.75644518228E+01  0.11515163326E+02  0.00000000000E+00 0. -1.
</event>
<event>
 7    1  0.3383281E-011  0.5052886E+02  0.7816164E-02  0.1300439E+00
        -11   -1    0    0    0    0  0.00000000000E+00  0.00000000000E+00  0.45593999997E+02  0.45594000000E+02  0.51100000000E-03 0.  1.
         11   -1    0    0    0    0 -0.00000000000E+00 -0.00000000000E+00 -0.45593999997E+02  0.45594000000E+02  0.51100000000E-03 0. -1.
    9900012    2    1    2    0    0  0.38950700265E+02 -0.58197845836E+01  0.10106361044E+02  0.50528862315E+02  0.30000007492E+02 0.  0.
         12    1    1    2    0    0 -0.38950700265E+02  0.58197845836E+01 -0.10106361044E+02  0.40659137685E+02  0.00000000000E+00 0. -1.
         11    1    3    3    0    0  0.15896344388E+01 -0.82150185583E+01  0.93111011472E-01  0.83679231284E+01  0.51100000000E-03 0. -1.
        -11    1    3    3    0    0  0.13717817489E+02 -0.58149346482E+01  0.83450231252E+01  0.17077218534E+02  0.51100000000E-03 0.  1.
        -12    1    3    3    0    0  0.23643248337E+02  0.82101686228E+01  0.16682269077E+01  0.25083720653E+02  0.00000000000E+00 0.  1.
</event>
<event>
 7    1  0.3383281E-011  0.5052886E+02  0.7816164E-02  0.1300439E+00
        -11   -1    0    0    0    0  0.00000000000E+00  0.00000000000E+00  0.45593999997E+02  0.45594000000E+02  0.51100000000E-03 0. -1.
         11   -1    0    0    0    0 -0.00000000000E+00 -0.00000000000E+00 -0.45593999997E+02  0.45594000000E+02  0.51100000000E-03 0.  1.
    9900012    2    1    2    0    0 -0.40635116198E+02 -0.19127447284E+00 -0.13844454641E+01  0.50528856581E+02  0.29999990064E+02 0.  0.
         12    1    1    2    0    0  0.40635116198E+02  0.19127447284E+00  0.13844454641E+01  0.40659143419E+02  0.00000000000E+00 0. -1.
         11    1    3    3    0    0 -0.21876367889E+01  0.63787057027E+00  0.17443190531E+01  0.28697182448E+01  0.51100000000E-03 0. -1.
        -11    1    3    3    0    0 -0.15103996175E+02 -0.33201626814E+01  0.12134890081E+02  0.19657307502E+02  0.51100000000E-03 0.  1.
        -12    1    3    3    0    0 -0.23343483234E+02  0.24910176383E+01 -0.15263654598E+02  0.28001830834E+02  0.00000000000E+00 0.  1.
</event>
<event>
 7    1  0.3383281E-011  0.5052884E+02  0.7816164E-02  0.1300439E+00
        -11   -1    0    0    0    0  0.00000000000E+00  0.00000000000E+00  0.45593999997E+02  0.45594000000E+02  0.51100000000E-03 0.  1.
         11   -1    0    0    0    0 -0.00000000000E+00 -0.00000000000E+00 -0.45593999997E+02  0.45594000000E+02  0.51100000000E-03 0. -1.
    9900012    2    1    2    0    0 -0.26439747516E+02  0.14792741260E+02  0.27116077057E+02  0.50528842635E+02  0.29999947672E+02 0.  0.
         12    1    1    2    0    0  0.26439747516E+02 -0.14792741260E+02 -0.27116077057E+02  0.40659157365E+02  0.00000000000E+00 0. -1.
         11    1    3    3    0    0 -0.12548662342E+02 -0.33706599474E+01  0.14804631817E+01  0.13077539774E+02  0.51100000000E-03 0. -1.
        -11    1    3    3    0    0 -0.13277615457E+02  0.64550998253E+01  0.18713248409E+02  0.23835877417E+02  0.51100000000E-03 0.  1.
         12    1    3    3    0    0 -0.61346971709E+00  0.11708301382E+02  0.69223654665E+01  0.13615425443E+02  0.00000000000E+00 0. -1.
</event>
<event>
 7    1  0.3383281E-011  0.5052893E+02  0.7816164E-02  0.1300439E+00
        -11   -1    0    0    0    0  0.00000000000E+00  0.00000000000E+00  0.45593999997E+02  0.45594000000E+02  0.51100000000E-03 0.  1.
         11   -1    0    0    0    0 -0.00000000000E+00 -0.00000000000E+00 -0.45593999997E+02  0.45594000000E+02  0.51100000000E-03 0. -1.
    9900012    2    1    2    0    0  0.16459844492E+02  0.34639971428E+02  0.13502071932E+02  0.50528929085E+02  0.30000210445E+02 0.  0.
         12    1    1    2    0    0 -0.16459844492E+02 -0.34639971428E+02 -0.13502071932E+02  0.40659070915E+02  0.00000000000E+00 0. -1.
         11    1    3    3    0    0  0.45115979660E+01  0.26213675024E+01  0.52883756187E+01  0.74291991987E+01  0.51100000000E-03 0. -1.
        -11    1    3    3    0    0  0.12658459562E+02  0.22615937586E+02  0.16351262657E+02  0.30644428892E+02  0.51100000000E-03 0.  1.
         12    1    3    3    0    0 -0.71021303639E+00  0.94026663396E+01 -0.81375663436E+01  0.12455300994E+02  0.00000000000E+00 0. -1.
</event>
<event>
 7    1  0.3383281E-011  0.5052885E+02  0.7816164E-02  0.1300439E+00
        -11   -1    0    0    0    0  0.00000000000E+00  0.00000000000E+00  0.45593999997E+02  0.45594000000E+02  0.51100000000E-03 0.  1.
         11   -1    0    0    0    0 -0.00000000000E+00 -0.00000000000E+00 -0.45593999997E+02  0.45594000000E+02  0.51100000000E-03 0. -1.
    9900012    2    1    2    0    0  0.22201420470E+02  0.18347494120E+02  0.28698998099E+02  0.50528854617E+02  0.29999984095E+02 0.  0.
         12    1    1    2    0    0 -0.22201420470E+02 -0.18347494120E+02 -0.28698998099E+02  0.40659145383E+02  0.00000000000E+00 0. -1.
         11    1    3    3    0    0 -0.21793112781E+01  0.27909440754E+01 -0.28722102530E+01  0.45594252354E+01  0.51100000000E-03 0. -1.
        -11    1    3    3    0    0  0.68372669349E+01  0.25605688739E+01 -0.33467206978E+00  0.73086755129E+01  0.51100000000E-03 0.  1.
        -12    1    3    3    0    0  0.17543464814E+02  0.12995981171E+02  0.31905880421E+02  0.38660753869E+02  0.00000000000E+00 0.  1.
</event>
<event>
 7    1  0.3383281E-011  0.5052886E+02  0.7816164E-02  0.1300439E+00
        -11   -1    0    0    0    0  0.00000000000E+00  0.00000000000E+00  0.45593999997E+02  0.45594000000E+02  0.51100000000E-03 0. -1.
         11   -1    0    0    0    0 -0.00000000000E+00 -0.00000000000E+00 -0.45593999997E+02  0.45594000000E+02  0.51100000000E-03 0.  1.
    9900012    2    1    2    0    0 -0.13561399154E+01 -0.86338150038E+01 -0.39708740527E+02  0.50528856487E+02  0.29999989778E+02 0.  0.
         12    1    1    2    0    0  0.13561399154E+01  0.86338150038E+01  0.39708740527E+02  0.40659143513E+02  0.00000000000E+00 0. -1.
         11    1    3    3    0    0  0.86037210541E+01 -0.50066266227E+01 -0.63043186644E+01  0.11782816310E+02  0.51100000000E-03 0. -1.
        -11    1    3    3    0    0 -0.54893523816E+01 -0.96570106661E+01 -0.13557203168E+02  0.17526796701E+02  0.51100000000E-03 0.  1.
        -12    1    3    3    0    0 -0.44705085879E+01  0.60298222849E+01 -0.19847218694E+02  0.21219243476E+02  0.00000000000E+00 0.  1.
</event>
<event>
 7    1  0.3383281E-011  0.5052886E+02  0.7816164E-02  0.1300439E+00
        -11   -1    0    0    0    0  0.00000000000E+00  0.00000000000E+00  0.45593999997E+02  0.45594000000E+02  0.51100000000E-03 0. -1.
         11   -1    0    0    0    0 -0.00000000000E+00 -0.00000000000E+00 -0.45593999997E+02  0.45594000000E+02  0.51100000000E-03 0.  1.
    9900012    2    1    2    0    0 -0.27921155215E+02  0.21741254648E+02 -0.20022293033E+02  0.50528864734E+02  0.30000014847E+02 0.  0.
         12    1    1    2    0    0  0.27921155215E+02 -0.21741254648E+02  0.20022293033E+02  0.40659135266E+02  0.00000000000E+00 0. -1.
         11    1    3    3    0    0 -0.59275496142E+01 -0.55660726979E+01 -0.57663721044E+01  0.99683527835E+01  0.51100000000E-03 0. -1.
        -11    1    3    3    0    0 -0.39099221249E+01  0.54095054900E+00  0.19702253473E+01  0.44115651077E+01  0.51100000000E-03 0.  1.
         12    1    3    3    0    0 -0.18083683476E+02  0.26766376797E+02 -0.16226146276E+02  0.36148946843E+02  0.00000000000E+00 0. -1.
</event>
<event>
 7    1  0.3383281E-011  0.5052885E+02  0.7816164E-02  0.1300439E+00
        -11   -1    0    0    0    0  0.00000000000E+00  0.00000000000E+00  0.45593999997E+02  0.45594000000E+02  0.51100000000E-03 0.  1.
         11   -1    0    0    0    0 -0.00000000000E+00 -0.00000000000E+00 -0.45593999997E+02  0.45594000000E+02  0.51100000000E-03 0. -1.
    9900012    2    1    2    0    0 -0.17027625239E+02 -0.12625499546E+02  0.34696152904E+02  0.50528852365E+02  0.29999977249E+02 0.  0.
         12    1    1    2    0    0  0.17027625239E+02  0.12625499546E+02 -0.34696152904E+02  0.40659147635E+02  0.00000000000E+00 0. -1.
         11    1    3    3    0    0 -0.91541901444E+01 -0.12716036104E+02  0.15033843318E+02  0.21714355081E+02  0.51100000000E-03 0. -1.
        -11    1    3    3    0    0 -0.37084684061E+01 -0.92136278108E+01  0.13964773738E+02  0.17136469332E+02  0.51100000000E-03 0.  1.
         12    1    3    3    0    0 -0.41649666889E+01  0.93041643688E+01  0.56975358479E+01  0.11678027952E+02  0.00000000000E+00 0. -1.
</event>
<event>
 7    1  0.3383281E-011  0.5052887E+02  0.7816164E-02  0.1300439E+00
        -11   -1    0    0    0    0  0.00000000000E+00  0.00000000000E+00  0.45593999997E+02  0.45594000000E+02  0.51100000000E-03 0.  1.
         11   -1    0    0    0    0 -0.00000000000E+00 -0.00000000000E+00 -0.45593999997E+02  0.45594000000E+02  0.51100000000E-03 0. -1.
    9900012    2    1    2    0    0  0.21928614606E+02  0.20407566752E+02  0.27492403665E+02  0.50528865988E+02  0.30000018658E+02 0.  0.
         12    1    1    2    0    0 -0.21928614606E+02 -0.20407566752E+02 -0.27492403665E+02  0.40659134012E+02  0.00000000000E+00 0. -1.
         11    1    3    3    0    0  0.84839302178E+01  0.38793092789E+01  0.98284402161E+00  0.93804101751E+01  0.51100000000E-03 0. -1.
        -11    1    3    3    0    0 -0.20422839435E+00  0.31964317642E+01 -0.40244863154E+01  0.51434789418E+01  0.51100000000E-03 0.  1.
        -12    1    3    3    0    0  0.13648912783E+02  0.13331825709E+02  0.30534045959E+02  0.36004976871E+02  0.00000000000E+00 0.  1.
</event>
<event>
 7    1  0.3383281E-011  0.5052886E+02  0.7816164E-02  0.1300439E+00
        -11   -1    0    0    0    0  0.00000000000E+00  0.00000000000E+00  0.45593999997E+02  0.45594000000E+02  0.51100000000E-03 0. -1.
         11   -1    0    0    0    0 -0.00000000000E+00 -0.00000000000E+00 -0.45593999997E+02  0.45594000000E+02  0.51100000000E-03 0.  1.
    9900012    2    1    2    0    0 -0.38161936597E+02  0.10057580050E+01 -0.13993590695E+02  0.50528861611E+02  0.30000005354E+02 0.  0.
         12    1    1    2    0    0  0.38161936597E+02 -0.10057580050E+01  0.13993590695E+02  0.40659138389E+02  0.00000000000E+00 0. -1.
         11    1    3    3    0    0 -0.99864701914E+01  0.67310210667E+01  0.42724286890E+00  0.12050675011E+02  0.51100000000E-03 0. -1.
        -11    1    3    3    0    0 -0.20811226429E+00 -0.68126311713E+01  0.36231815379E+00  0.68254325062E+01  0.51100000000E-03 0.  1.
        -12    1    3    3    0    0 -0.27967354141E+02  0.10873681096E+01 -0.14783151718E+02  0.31652754094E+02  0.00000000000E+00 0.  1.
</event>
<event>
 7    1  0.3383281E-011  0.5052886E+02  0.7816164E-02  0.1300439E+00
        -11   -1    0    0    0    0  0.00000000000E+00  0.00000000000E+00  0.45593999997E+02  0.45594000000E+02  0.51100000000E-03 0. -1.
         11   -1    0    0    0    0 -0.00000000000E+00 -0.00000000000E+00 -0.45593999997E+02  0.45594000000E+02  0.51100000000E-03 0.  1.
    9900012    2    1    2    0    0 -0.38674063061E+02  0.48696757350E+01  0.11565862022E+02  0.50528855152E+02  0.29999985720E+02 0.  0.
         12    1    1    2    0    0  0.38674063061E+02 -0.48696757350E+01 -0.11565862022E+02  0.40659144848E+02  0.00000000000E+00 0. -1.
         11    1    3    3    0    0 -0.88273859734E+01  0.51323142182E+01  0.91146650457E+00  0.10251544460E+02  0.51100000000E-03 0. -1.
        -11    1    3    3    0    0 -0.29327897303E+02 -0.12563200778E+01 -0.20969605780E+00  0.29355542459E+02  0.51100000000E-03 0.  1.
         12    1    3    3    0    0 -0.51877978460E+00  0.99368159461E+00  0.10864091576E+02  0.10921768233E+02  0.00000000000E+00 0. -1.
</event>
<event>
 7    1  0.3383281E-011  0.5052886E+02  0.7816164E-02  0.1300439E+00
        -11   -1    0    0    0    0  0.00000000000E+00  0.00000000000E+00  0.45593999997E+02  0.45594000000E+02  0.51100000000E-03 0.  1.
         11   -1    0    0    0    0 -0.00000000000E+00 -0.00000000000E+00 -0.45593999997E+02  0.45594000000E+02  0.51100000000E-03 0. -1.
    9900012    2    1    2    0    0 -0.61095962865E+01 -0.33987619670E+02  0.21463465594E+02  0.50528858187E+02  0.29999994946E+02 0.  0.
         12    1    1    2    0    0  0.61095962865E+01  0.33987619670E+02 -0.21463465594E+02  0.40659141813E+02  0.00000000000E+00 0. -1.
         11    1    3    3    0    0  0.57232774973E+01 -0.21264424336E+02  0.13579186275E+02  0.25871334480E+02  0.51100000000E-03 0. -1.
        -11    1    3    3    0    0  0.29507744564E-02 -0.10839323164E+02  0.63828799865E+01  0.12579033847E+02  0.51100000000E-03 0.  1.
         12    1    3    3    0    0 -0.11835824558E+02 -0.18838721710E+01  0.15013993326E+01  0.12078489859E+02  0.00000000000E+00 0. -1.
</event>
<event>
 7    1  0.3383281E-011  0.5052887E+02  0.7816164E-02  0.1300439E+00
        -11   -1    0    0    0    0  0.00000000000E+00  0.00000000000E+00  0.45593999997E+02  0.45594000000E+02  0.51100000000E-03 0.  1.
         11   -1    0    0    0    0 -0.00000000000E+00 -0.00000000000E+00 -0.45593999997E+02  0.45594000000E+02  0.51100000000E-03 0. -1.
    9900012    2    1    2    0    0 -0.16373744641E+02  0.14041100152E+02  0.34466116168E+02  0.50528866085E+02  0.30000018951E+02 0.  0.
         12    1    1    2    0    0  0.16373744641E+02 -0.14041100152E+02 -0.34466116168E+02  0.40659133915E+02  0.00000000000E+00 0. -1.
         11    1    3    3    0    0 -0.13737202943E+02  0.29130423336E+01  0.10045795583E+02  0.17265994599E+02  0.51100000000E-03 0. -1.
        -11    1    3    3    0    0 -0.10975559040E+02  0.43620289693E+01  0.11858778239E+02  0.16736810166E+02  0.51100000000E-03 0.  1.
         12    1    3    3    0    0  0.83390173420E+01  0.67660288490E+01  0.12561542346E+02  0.16526061320E+02  0.00000000000E+00 0. -1.
</event>
<event>
 7    1  0.3383281E-011  0.5052886E+02  0.7816164E-02  0.1300439E+00
        -11   -1    0    0    0    0  0.00000000000E+00  0.00000000000E+00  0.45593999997E+02  0.45594000000E+02  0.51100000000E-03 0.  1.
         11   -1    0    0    0    0 -0.00000000000E+00 -0.00000000000E+00 -0.45593999997E+02  0.45594000000E+02  0.51100000000E-03 0. -1.
    9900012    2    1    2    0    0 -0.10084943214E+02  0.30221803136E+02  0.25260683307E+02  0.50528860984E+02  0.30000003447E+02 0.  0.
         12    1    1    2    0    0  0.10084943214E+02 -0.30221803136E+02 -0.25260683307E+02  0.40659139016E+02  0.00000000000E+00 0. -1.
         11    1    3    3    0    0  0.79842157878E+00  0.22746671501E+01  0.12492159882E+02  0.12722643061E+02  0.51100000000E-03 0. -1.
        -11    1    3    3    0    0 -0.23400699944E+01 -0.25058353713E+01  0.33777066702E+01  0.48129036037E+01  0.51100000000E-03 0.  1.
        -12    1    3    3    0    0 -0.85432947988E+01  0.30452971357E+02  0.93908167541E+01  0.32993314319E+02  0.00000000000E+00 0.  1.
</event>
<event>
 7    1  0.3383281E-011  0.5052887E+02  0.7816164E-02  0.1300439E+00
        -11   -1    0    0    0    0  0.00000000000E+00  0.00000000000E+00  0.45593999997E+02  0.45594000000E+02  0.51100000000E-03 0.  1.
         11   -1    0    0    0    0 -0.00000000000E+00 -0.00000000000E+00 -0.45593999997E+02  0.45594000000E+02  0.51100000000E-03 0. -1.
    9900012    2    1    2    0    0 -0.25112720692E+02  0.28275167232E+02  0.14934231556E+02  0.50528867020E+02  0.30000021794E+02 0.  0.
         12    1    1    2    0    0  0.25112720692E+02 -0.28275167232E+02 -0.14934231556E+02  0.40659132980E+02  0.00000000000E+00 0. -1.
         11    1    3    3    0    0  0.49324972060E+01  0.77047721104E+00  0.22495167691E+01  0.54757181973E+01  0.51100000000E-03 0. -1.
        -11    1    3    3    0    0 -0.12867818620E+02  0.62905480279E+01 -0.13013313721E+01  0.14382114383E+02  0.51100000000E-03 0.  1.
        -12    1    3    3    0    0 -0.17177399278E+02  0.21214141993E+02  0.13986046159E+02  0.30671034440E+02  0.00000000000E+00 0.  1.
</event>
<event>
 7    1  0.3383281E-011  0.5052886E+02  0.7816164E-02  0.1300439E+00
        -11   -1    0    0    0    0  0.00000000000E+00  0.00000000000E+00  0.45593999997E+02  0.45594000000E+02  0.51100000000E-03 0.  1.
         11   -1    0    0    0    0 -0.00000000000E+00 -0.00000000000E+00 -0.45593999997E+02  0.45594000000E+02  0.51100000000E-03 0. -1.
    9900012    2    1    2    0    0  0.25071957679E+02 -0.83996010749E+01  0.30887041537E+02  0.50528859638E+02  0.29999999355E+02 0.  0.
         12    1    1    2    0    0 -0.25071957679E+02  0.83996010749E+01 -0.30887041537E+02  0.40659140362E+02  0.00000000000E+00 0. -1.
         11    1    3    3    0    0  0.55943615524E+01 -0.95624799803E+01  0.15798096101E+02  0.19295536925E+02  0.51100000000E-03 0. -1.
        -11    1    3    3    0    0  0.86071758971E+01  0.38677321549E+01  0.17401400356E+02  0.19795240932E+02  0.51100000000E-03 0.  1.
         12    1    3    3    0    0  0.10870420229E+02 -0.27048532495E+01 -0.23124549197E+01  0.11438081781E+02  0.00000000000E+00 0. -1.
</event>
<event>
 7    1  0.3383281E-011  0.5052886E+02  0.7816164E-02  0.1300439E+00
        -11   -1    0    0    0    0  0.00000000000E+00  0.00000000000E+00  0.45593999997E+02  0.45594000000E+02  0.51100000000E-03 0.  1.
         11   -1    0    0    0    0 -0.00000000000E+00 -0.00000000000E+00 -0.45593999997E+02  0.45594000000E+02  0.51100000000E-03 0. -1.
    9900012    2    1    2    0    0 -0.18766285288E+02  0.27875122112E+02  0.22890380243E+02  0.50528863217E+02  0.30000010234E+02 0.  0.
         12    1    1    2    0    0  0.18766285288E+02 -0.27875122112E+02 -0.22890380243E+02  0.40659136783E+02  0.00000000000E+00 0. -1.
         11    1    3    3    0    0 -0.15811204046E+01  0.13882301870E+02  0.58269519453E+01  0.15138415246E+02  0.51100000000E-03 0. -1.
        -11    1    3    3    0    0 -0.87588677749E+01  0.12172068425E+02 -0.13523640143E+01  0.15056756062E+02  0.51100000000E-03 0.  1.
         12    1    3    3    0    0 -0.84262971084E+01  0.18207518176E+01  0.18415792312E+02  0.20333691908E+02  0.00000000000E+00 0. -1.
</event>
<event>
 7    1  0.3383281E-011  0.5052885E+02  0.7816164E-02  0.1300439E+00
        -11   -1    0    0    0    0  0.00000000000E+00  0.00000000000E+00  0.45593999997E+02  0.45594000000E+02  0.51100000000E-03 0. -1.
         11   -1    0    0    0    0 -0.00000000000E+00 -0.00000000000E+00 -0.45593999997E+02  0.45594000000E+02  0.51100000000E-03 0.  1.
    9900012    2    1    2    0    0  0.26737975896E+01 -0.15434483134E+02 -0.37520579654E+02  0.50528851451E+02  0.29999974469E+02 0.  0.
         12    1    1    2    0    0 -0.26737975896E+01  0.15434483134E+02  0.37520579654E+02  0.40659148549E+02  0.00000000000E+00 0. -1.
         11    1    3    3    0    0 -0.95317494596E+01 -0.26233750235E+01 -0.35056913365E+01  0.10489338219E+02  0.51100000000E-03 0. -1.
        -11    1    3    3    0    0  0.46553780076E+01  0.14402353381E+01 -0.98110083435E+01  0.10954574716E+02  0.51100000000E-03 0.  1.
        -12    1    3    3    0    0  0.75501690417E+01 -0.14251343448E+02 -0.24203879974E+02  0.29084938516E+02  0.00000000000E+00 0.  1.
</event>
<event>
 7    1  0.3383281E-011  0.5052885E+02  0.7816164E-02  0.1300439E+00
        -11   -1    0    0    0    0  0.00000000000E+00  0.00000000000E+00  0.45593999997E+02  0.45594000000E+02  0.51100000000E-03 0.  1.
         11   -1    0    0    0    0 -0.00000000000E+00 -0.00000000000E+00 -0.45593999997E+02  0.45594000000E+02  0.51100000000E-03 0. -1.
    9900012    2    1    2    0    0  0.50733470937E+01 -0.19847715979E+02  0.35121153992E+02  0.50528854190E+02  0.29999982795E+02 0.  0.
         12    1    1    2    0    0 -0.50733470937E+01  0.19847715979E+02 -0.35121153992E+02  0.40659145810E+02  0.00000000000E+00 0. -1.
         11    1    3    3    0    0  0.34860023054E+00 -0.16523849394E+02  0.11440202078E+02  0.20100680207E+02  0.51100000000E-03 0. -1.
        -11    1    3    3    0    0 -0.25537288013E+01 -0.49547124186E+01  0.22114943350E+02  0.22806609252E+02  0.51100000000E-03 0.  1.
         12    1    3    3    0    0  0.72784756645E+01  0.16308458342E+01  0.15660085642E+01  0.76215647315E+01  0.00000000000E+00 0. -1.
</event>
<event>
 7    1  0.3383281E-011  0.5052885E+02  0.7816164E-02  0.1300439E+00
        -11   -1    0    0    0    0  0.00000000000E+00  0.00000000000E+00  0.45593999997E+02  0.45594000000E+02  0.51100000000E-03 0.  1.
         11   -1    0    0    0    0 -0.00000000000E+00 -0.00000000000E+00 -0.45593999997E+02  0.45594000000E+02  0.51100000000E-03 0. -1.
    9900012    2    1    2    0    0 -0.36126526102E+02  0.18589000627E+02 -0.15779426357E+01  0.50528846843E+02  0.29999960464E+02 0.  0.
         12    1    1    2    0    0  0.36126526102E+02 -0.18589000627E+02  0.15779426357E+01  0.40659153157E+02  0.00000000000E+00 0. -1.
         11    1    3    3    0    0 -0.72109798199E+01  0.38179256223E+01  0.52877506441E+01  0.97229158772E+01  0.51100000000E-03 0. -1.
        -11    1    3    3    0    0 -0.18387375181E+02  0.26857066315E+01  0.67549375356E+01  0.19772146255E+02  0.51100000000E-03 0.  1.
         12    1    3    3    0    0 -0.10528171101E+02  0.12085368373E+02 -0.13620630815E+02  0.21033784710E+02  0.00000000000E+00 0. -1.
</event>
<event>
 7    1  0.3383281E-011  0.5052886E+02  0.7816164E-02  0.1300439E+00
        -11   -1    0    0    0    0  0.00000000000E+00  0.00000000000E+00  0.45593999997E+02  0.45594000000E+02  0.51100000000E-03 0.  1.
         11   -1    0    0    0    0 -0.00000000000E+00 -0.00000000000E+00 -0.45593999997E+02  0.45594000000E+02  0.51100000000E-03 0. -1.
    9900012    2    1    2    0    0 -0.77191544372E+01 -0.23162752123E+02  0.32512575769E+02  0.50528855711E+02  0.29999987421E+02 0.  0.
         12    1    1    2    0    0  0.77191544372E+01  0.23162752123E+02 -0.32512575769E+02  0.40659144289E+02  0.00000000000E+00 0. -1.
         11    1    3    3    0    0  0.13521255340E+01  0.11073813195E+01 -0.67460619848E+00  0.18734008195E+01  0.51100000000E-03 0. -1.
        -11    1    3    3    0    0 -0.72270107402E+01  0.19078738757E+01  0.16989827971E+01  0.76652599284E+01  0.51100000000E-03 0.  1.
        -12    1    3    3    0    0 -0.18442692311E+01 -0.26178007318E+02  0.31488199171E+02  0.40990194963E+02  0.00000000000E+00 0.  1.
</event>
<event>
 7    1  0.3383281E-011  0.5052886E+02  0.7816164E-02  0.1300439E+00
        -11   -1    0    0    0    0  0.00000000000E+00  0.00000000000E+00  0.45593999997E+02  0.45594000000E+02  0.51100000000E-03 0.  1.
         11   -1    0    0    0    0 -0.00000000000E+00 -0.00000000000E+00 -0.45593999997E+02  0.45594000000E+02  0.51100000000E-03 0. -1.
    9900012    2    1    2    0    0  0.19413463226E+02 -0.22438746174E+02 -0.27799024798E+02  0.50528860019E+02  0.30000000514E+02 0.  0.
         12    1    1    2    0    0 -0.19413463226E+02  0.22438746174E+02  0.27799024798E+02  0.40659139981E+02  0.00000000000E+00 0. -1.
         11    1    3    3    0    0  0.81685564988E+00  0.46739138640E+01 -0.28541310056E+00  0.47533340783E+01  0.51100000000E-03 0. -1.
        -11    1    3    3    0    0  0.66519847822E+01  0.32416548971E+00 -0.50580514779E+01  0.83628864527E+01  0.51100000000E-03 0.  1.
         12    1    3    3    0    0  0.11944622794E+02 -0.27436825528E+02 -0.22455560219E+02  0.37412639488E+02  0.00000000000E+00 0. -1.
</event>
<event>
 7    1  0.3383281E-011  0.5052885E+02  0.7816164E-02  0.1300439E+00
        -11   -1    0    0    0    0  0.00000000000E+00  0.00000000000E+00  0.45593999997E+02  0.45594000000E+02  0.51100000000E-03 0.  1.
         11   -1    0    0    0    0 -0.00000000000E+00 -0.00000000000E+00 -0.45593999997E+02  0.45594000000E+02  0.51100000000E-03 0. -1.
    9900012    2    1    2    0    0 -0.84576384563E+00  0.17232219252E+02  0.36817136901E+02  0.50528852611E+02  0.29999977995E+02 0.  0.
         12    1    1    2    0    0  0.84576384563E+00 -0.17232219252E+02 -0.36817136901E+02  0.40659147389E+02  0.00000000000E+00 0. -1.
         11    1    3    3    0    0  0.10160122187E+02  0.69735467344E+01  0.10032136094E+02  0.15890317548E+02  0.51100000000E-03 0. -1.
        -11    1    3    3    0    0  0.94645331848E+00 -0.19818935949E+01 -0.66401779000E+00  0.22944707434E+01  0.51100000000E-03 0.  1.
        -12    1    3    3    0    0 -0.11952339351E+02  0.12240566112E+02  0.27449018597E+02  0.32344064319E+02  0.00000000000E+00 0.  1.
</event>
<event>
 7    1  0.3383281E-011  0.5052887E+02  0.7816164E-02  0.1300439E+00
        -11   -1    0    0    0    0  0.00000000000E+00  0.00000000000E+00  0.45593999997E+02  0.45594000000E+02  0.51100000000E-03 0. -1.
         11   -1    0    0    0    0 -0.00000000000E+00 -0.00000000000E+00 -0.45593999997E+02  0.45594000000E+02  0.51100000000E-03 0.  1.
    9900012    2    1    2    0    0 -0.11382516490E+02  0.16287257492E+02 -0.35472930655E+02  0.50528865141E+02  0.30000016081E+02 0.  0.
         12    1    1    2    0    0  0.11382516490E+02 -0.16287257492E+02  0.35472930655E+02  0.40659134859E+02  0.00000000000E+00 0. -1.
         11    1    3    3    0    0 -0.22122625710E+01 -0.71371308417E+00  0.26276455877E+01  0.35082778746E+01  0.51100000000E-03 0. -1.
        -11    1    3    3    0    0  0.20991893162E+00  0.24458661736E+01 -0.25469103263E+02  0.25587136388E+02  0.51100000000E-03 0.  1.
        -12    1    3    3    0    0 -0.93801728501E+01  0.14555104402E+02 -0.12631472981E+02  0.21433450878E+02  0.00000000000E+00 0.  1.
</event>
<event>
 7    1  0.3383281E-011  0.5052886E+02  0.7816164E-02  0.1300439E+00
        -11   -1    0    0    0    0  0.00000000000E+00  0.00000000000E+00  0.45593999997E+02  0.45594000000E+02  0.51100000000E-03 0.  1.
         11   -1    0    0    0    0 -0.00000000000E+00 -0.00000000000E+00 -0.45593999997E+02  0.45594000000E+02  0.51100000000E-03 0. -1.
    9900012    2    1    2    0    0  0.16520039692E+02 -0.10600681966E+02  0.35607297198E+02  0.50528858552E+02  0.29999996055E+02 0.  0.
         12    1    1    2    0    0 -0.16520039692E+02  0.10600681966E+02 -0.35607297198E+02  0.40659141448E+02  0.00000000000E+00 0. -1.
         11    1    3    3    0    0  0.61012350919E+01 -0.85137929768E+01 -0.54609786320E+00  0.10488468126E+02  0.51100000000E-03 0. -1.
        -11    1    3    3    0    0  0.47091737962E+01 -0.29225069007E+01  0.28337305558E+01  0.62247404405E+01  0.51100000000E-03 0.  1.
         12    1    3    3    0    0  0.57096308039E+01  0.83561791147E+00  0.33319664505E+02  0.33815649985E+02  0.00000000000E+00 0. -1.
</event>
<event>
 7    1  0.3383281E-011  0.5052887E+02  0.7816164E-02  0.1300439E+00
        -11   -1    0    0    0    0  0.00000000000E+00  0.00000000000E+00  0.45593999997E+02  0.45594000000E+02  0.51100000000E-03 0.  1.
         11   -1    0    0    0    0 -0.00000000000E+00 -0.00000000000E+00 -0.45593999997E+02  0.45594000000E+02  0.51100000000E-03 0. -1.
    9900012    2    1    2    0    0  0.39723139558E+02 -0.64354372654E+01  0.58157062781E+01  0.50528866848E+02  0.30000021272E+02 0.  0.
         12    1    1    2    0    0 -0.39723139558E+02  0.64354372654E+01 -0.58157062781E+01  0.40659133152E+02  0.00000000000E+00 0. -1.
         11    1    3    3    0    0 -0.23785254929E+01 -0.99783789724E+00  0.13495749478E+01  0.29110851568E+01  0.51100000000E-03 0. -1.
        -11    1    3    3    0    0  0.20091702934E+02  0.52112363324E+01  0.92151184541E+01  0.22710172154E+02  0.51100000000E-03 0.  1.
         12    1    3    3    0    0  0.22009962117E+02 -0.10648835701E+02 -0.47489871238E+01  0.24907609537E+02  0.00000000000E+00 0. -1.
</event>
<event>
 7    1  0.3383281E-011  0.5052884E+02  0.7816164E-02  0.1300439E+00
        -11   -1    0    0    0    0  0.00000000000E+00  0.00000000000E+00  0.45593999997E+02  0.45594000000E+02  0.51100000000E-03 0. -1.
         11   -1    0    0    0    0 -0.00000000000E+00 -0.00000000000E+00 -0.45593999997E+02  0.45594000000E+02  0.51100000000E-03 0.  1.
    9900012    2    1    2    0    0  0.28054066152E+02  0.28363732437E+02  0.78508125663E+01  0.50528841089E+02  0.29999942973E+02 0.  0.
         12    1    1    2    0    0 -0.28054066152E+02 -0.28363732437E+02 -0.78508125663E+01  0.40659158911E+02  0.00000000000E+00 0. -1.
         11    1    3    3    0    0  0.50446223833E+00 -0.10872539408E+01  0.55893033213E+01  0.57163725526E+01  0.51100000000E-03 0. -1.
        -11    1    3    3    0    0 -0.17612657578E+01 -0.10344260785E+01  0.14664693660E+01  0.25144834547E+01  0.51100000000E-03 0.  1.
        -12    1    3    3    0    0  0.29310869671E+02  0.30485412457E+02  0.79503987898E+00  0.42297985081E+02  0.00000000000E+00 0.  1.
</event>
<event>
 7    1  0.3383281E-011  0.5052886E+02  0.7816164E-02  0.1300439E+00
        -11   -1    0    0    0    0  0.00000000000E+00  0.00000000000E+00  0.45593999997E+02  0.45594000000E+02  0.51100000000E-03 0. -1.
         11   -1    0    0    0    0 -0.00000000000E+00 -0.00000000000E+00 -0.45593999997E+02  0.45594000000E+02  0.51100000000E-03 0.  1.
    9900012    2    1    2    0    0 -0.15405973713E+02  0.23957583080E+01 -0.37551054852E+02  0.50528863211E+02  0.30000010217E+02 0.  0.
         12    1    1    2    0    0  0.15405973713E+02 -0.23957583080E+01  0.37551054852E+02  0.40659136789E+02  0.00000000000E+00 0. -1.
         11    1    3    3    0    0  0.29271938870E+01 -0.25484973379E+01  0.13640246392E+01  0.41138626874E+01  0.51100000000E-03 0.  1.
        -11    1    3    3    0    0 -0.30405392563E+01 -0.23759975116E+00  0.11180280420E+01  0.32482794791E+01  0.51100000000E-03 0. -1.
        -12    1    3    3    0    0 -0.15292628344E+02  0.51818553970E+01 -0.40033107533E+02  0.43166721045E+02  0.00000000000E+00 0.  1.
</event>
<event>
 7    1  0.3383281E-011  0.5052888E+02  0.7816164E-02  0.1300439E+00
        -11   -1    0    0    0    0  0.00000000000E+00  0.00000000000E+00  0.45593999997E+02  0.45594000000E+02  0.51100000000E-03 0.  1.
         11   -1    0    0    0    0 -0.00000000000E+00 -0.00000000000E+00 -0.45593999997E+02  0.45594000000E+02  0.51100000000E-03 0. -1.
    9900012    2    1    2    0    0  0.37936057546E+02 -0.50035861842E+01 -0.13747147717E+02  0.50528875475E+02  0.30000047493E+02 0.  0.
         12    1    1    2    0    0 -0.37936057546E+02  0.50035861842E+01  0.13747147717E+02  0.40659124525E+02  0.00000000000E+00 0. -1.
         11    1    3    3    0    0  0.23154797114E+02 -0.26262795861E+01 -0.41026114314E+01  0.23661643955E+02  0.51100000000E-03 0. -1.
        -11    1    3    3    0    0  0.11493259051E+02  0.20323064511E+01  0.38536859975E+01  0.12291304615E+02  0.51100000000E-03 0.  1.
         12    1    3    3    0    0  0.32880013815E+01 -0.44096130492E+01 -0.13498222283E+02  0.14575926904E+02  0.00000000000E+00 0. -1.
</event>
<event>
 7    1  0.3383281E-011  0.5052883E+02  0.7816164E-02  0.1300439E+00
        -11   -1    0    0    0    0  0.00000000000E+00  0.00000000000E+00  0.45593999997E+02  0.45594000000E+02  0.51100000000E-03 0.  1.
         11   -1    0    0    0    0 -0.00000000000E+00 -0.00000000000E+00 -0.45593999997E+02  0.45594000000E+02  0.51100000000E-03 0. -1.
    9900012    2    1    2    0    0  0.12456547447E+02  0.38070739938E+02  0.69729103421E+01  0.50528827697E+02  0.29999902267E+02 0.  0.
         12    1    1    2    0    0 -0.12456547447E+02 -0.38070739938E+02 -0.69729103421E+01  0.40659172303E+02  0.00000000000E+00 0. -1.
         11    1    3    3    0    0  0.12978988670E+02  0.22707777510E+02  0.60272429068E+01  0.26840733292E+02  0.51100000000E-03 0.  1.
        -11    1    3    3    0    0  0.39664421695E+01  0.65148034196E+01 -0.74714857188E+01  0.10677004551E+02  0.51100000000E-03 0. -1.
        -12    1    3    3    0    0 -0.44888833924E+01  0.88481590090E+01  0.84171531540E+01  0.13011089854E+02  0.00000000000E+00 0.  1.
</event>
<event>
 7    1  0.3383281E-011  0.5052886E+02  0.7816164E-02  0.1300439E+00
        -11   -1    0    0    0    0  0.00000000000E+00  0.00000000000E+00  0.45593999997E+02  0.45594000000E+02  0.51100000000E-03 0.  1.
         11   -1    0    0    0    0 -0.00000000000E+00 -0.00000000000E+00 -0.45593999997E+02  0.45594000000E+02  0.51100000000E-03 0. -1.
    9900012    2    1    2    0    0 -0.29580263700E+02  0.37995209725E+01  0.27635803247E+02  0.50528856117E+02  0.29999988652E+02 0.  0.
         12    1    1    2    0    0  0.29580263700E+02 -0.37995209725E+01 -0.27635803247E+02  0.40659143883E+02  0.00000000000E+00 0. -1.
         11    1    3    3    0    0 -0.10743267254E+01 -0.32876816013E+01 -0.64962903211E+00  0.35192394583E+01  0.51100000000E-03 0. -1.
        -11    1    3    3    0    0 -0.11415189536E+02 -0.78600304033E+01  0.16091962847E+02  0.21237652851E+02  0.51100000000E-03 0.  1.
         12    1    3    3    0    0 -0.17090747439E+02  0.14947232977E+02  0.12193469433E+02  0.25771963808E+02  0.00000000000E+00 0. -1.
</event>
<event>
 7    1  0.3383281E-011  0.5052886E+02  0.7816164E-02  0.1300439E+00
        -11   -1    0    0    0    0  0.00000000000E+00  0.00000000000E+00  0.45593999997E+02  0.45594000000E+02  0.51100000000E-03 0. -1.
         11   -1    0    0    0    0 -0.00000000000E+00 -0.00000000000E+00 -0.45593999997E+02  0.45594000000E+02  0.51100000000E-03 0.  1.
    9900012    2    1    2    0    0  0.28424199852E+02 -0.97231298731E+01 -0.27398743895E+02  0.50528861312E+02  0.30000004445E+02 0.  0.
         12    1    1    2    0    0 -0.28424199852E+02  0.97231298731E+01  0.27398743895E+02  0.40659138688E+02  0.00000000000E+00 0. -1.
         11    1    3    3    0    0  0.43308715190E+01 -0.19138130677E+01 -0.12318586845E+01  0.48925049466E+01  0.51100000000E-03 0. -1.
        -11    1    3    3    0    0  0.28806714677E+02 -0.84423482386E+01 -0.15124137533E+02  0.33613086598E+02  0.51100000000E-03 0.  1.
         12    1    3    3    0    0 -0.47133863439E+01  0.63303143320E+00 -0.11042747678E+02  0.12023269768E+02  0.00000000000E+00 0. -1.
</event>
<event>
 7    1  0.3383281E-011  0.5052886E+02  0.7816164E-02  0.1300439E+00
        -11   -1    0    0    0    0  0.00000000000E+00  0.00000000000E+00  0.45593999997E+02  0.45594000000E+02  0.51100000000E-03 0.  1.
         11   -1    0    0    0    0 -0.00000000000E+00 -0.00000000000E+00 -0.45593999997E+02  0.45594000000E+02  0.51100000000E-03 0. -1.
    9900012    2    1    2    0    0  0.68246860223E+01 -0.39639175940E+02  0.59434977344E+01  0.50528858669E+02  0.29999996409E+02 0.  0.
         12    1    1    2    0    0 -0.68246860223E+01  0.39639175940E+02 -0.59434977344E+01  0.40659141331E+02  0.00000000000E+00 0. -1.
         11    1    3    3    0    0  0.11402121370E+02 -0.17687311744E+02 -0.18653808344E+01  0.21126500287E+02  0.51100000000E-03 0. -1.
        -11    1    3    3    0    0  0.66718878384E+01 -0.81933481023E+01  0.25700902097E+01  0.10874300180E+02  0.51100000000E-03 0.  1.
        -12    1    3    3    0    0 -0.11249323187E+02 -0.13758516094E+02  0.52387883591E+01  0.18528058202E+02  0.00000000000E+00 0.  1.
</event>
<event>
 7    1  0.3383281E-011  0.5052886E+02  0.7816164E-02  0.1300439E+00
        -11   -1    0    0    0    0  0.00000000000E+00  0.00000000000E+00  0.45593999997E+02  0.45594000000E+02  0.51100000000E-03 0. -1.
         11   -1    0    0    0    0 -0.00000000000E+00 -0.00000000000E+00 -0.45593999997E+02  0.45594000000E+02  0.51100000000E-03 0.  1.
    9900012    2    1    2    0    0 -0.25822316059E+02  0.30948868830E+02 -0.53423770460E+01  0.50528862269E+02  0.30000007352E+02 0.  0.
         12    1    1    2    0    0  0.25822316059E+02 -0.30948868830E+02  0.53423770460E+01  0.40659137731E+02  0.00000000000E+00 0. -1.
         11    1    3    3    0    0  0.38140895158E+01  0.10386671272E+02  0.72428407015E+00  0.11088498844E+02  0.51100000000E-03 0. -1.
        -11    1    3    3    0    0 -0.16386766490E+02  0.62102038554E+01 -0.89808176068E+01  0.19691313645E+02  0.51100000000E-03 0.  1.
         12    1    3    3    0    0 -0.13249639085E+02  0.14351993703E+02  0.29141564907E+01  0.19749049779E+02  0.00000000000E+00 0. -1.
</event>
<event>
 7    1  0.3383281E-011  0.5052886E+02  0.7816164E-02  0.1300439E+00
        -11   -1    0    0    0    0  0.00000000000E+00  0.00000000000E+00  0.45593999997E+02  0.45594000000E+02  0.51100000000E-03 0. -1.
         11   -1    0    0    0    0 -0.00000000000E+00 -0.00000000000E+00 -0.45593999997E+02  0.45594000000E+02  0.51100000000E-03 0.  1.
    9900012    2    1    2    0    0  0.37951049095E+02 -0.80359337952E+01 -0.12178143353E+02  0.50528861606E+02  0.30000005339E+02 0.  0.
         12    1    1    2    0    0 -0.37951049095E+02  0.80359337952E+01  0.12178143353E+02  0.40659138394E+02  0.00000000000E+00 0. -1.
         11    1    3    3    0    0  0.27247738318E+02 -0.12629990198E+02 -0.16293540893E+01  0.30076746680E+02  0.51100000000E-03 0. -1.
        -11    1    3    3    0    0  0.18859347442E+01 -0.43698685650E+01 -0.16082062013E+01  0.50238260900E+01  0.51100000000E-03 0.  1.
        -12    1    3    3    0    0  0.88173760329E+01  0.89639249676E+01 -0.89405830622E+01  0.15428288836E+02  0.00000000000E+00 0.  1.
</event>
<event>
 7    1  0.3383281E-011  0.5052885E+02  0.7816164E-02  0.1300439E+00
        -11   -1    0    0    0    0  0.00000000000E+00  0.00000000000E+00  0.45593999997E+02  0.45594000000E+02  0.51100000000E-03 0. -1.
         11   -1    0    0    0    0 -0.00000000000E+00 -0.00000000000E+00 -0.45593999997E+02  0.45594000000E+02  0.51100000000E-03 0.  1.
    9900012    2    1    2    0    0 -0.37822218058E+02 -0.11334035423E+02 -0.97049473726E+01  0.50528849230E+02  0.29999967721E+02 0.  0.
         12    1    1    2    0    0  0.37822218058E+02  0.11334035423E+02  0.97049473726E+01  0.40659150770E+02  0.00000000000E+00 0. -1.
         11    1    3    3    0    0  0.11829364777E+01 -0.15888963428E+01  0.23071098837E+01  0.30408364926E+01  0.51100000000E-03 0. -1.
        -11    1    3    3    0    0  0.16358694098E+01  0.24782288224E+01 -0.27552068892E+01  0.40507841321E+01  0.51100000000E-03 0.  1.
        -12    1    3    3    0    0 -0.40641023945E+02 -0.12223367903E+02 -0.92568503671E+01  0.43437228606E+02  0.00000000000E+00 0.  1.
</event>
<event>
 7    1  0.3383281E-011  0.5052886E+02  0.7816164E-02  0.1300439E+00
        -11   -1    0    0    0    0  0.00000000000E+00  0.00000000000E+00  0.45593999997E+02  0.45594000000E+02  0.51100000000E-03 0. -1.
         11   -1    0    0    0    0 -0.00000000000E+00 -0.00000000000E+00 -0.45593999997E+02  0.45594000000E+02  0.51100000000E-03 0.  1.
    9900012    2    1    2    0    0  0.21273557468E+02  0.15135782089E+02 -0.31169049318E+02  0.50528858566E+02  0.29999996097E+02 0.  0.
         12    1    1    2    0    0 -0.21273557468E+02 -0.15135782089E+02  0.31169049318E+02  0.40659141434E+02  0.00000000000E+00 0. -1.
         11    1    3    3    0    0 -0.52879484602E+00  0.91785876755E+01 -0.56001737512E+01  0.10765130840E+02  0.51100000000E-03 0. -1.
        -11    1    3    3    0    0  0.39552493042E+01  0.91927592559E+01 -0.16945914664E+02  0.19680316153E+02  0.51100000000E-03 0.  1.
        -12    1    3    3    0    0  0.17847103010E+02 -0.32355648419E+01 -0.86229609019E+01  0.20083411573E+02  0.00000000000E+00 0.  1.
</event>
<event>
 7    1  0.3383281E-011  0.5052889E+02  0.7816164E-02  0.1300439E+00
        -11   -1    0    0    0    0  0.00000000000E+00  0.00000000000E+00  0.45593999997E+02  0.45594000000E+02  0.51100000000E-03 0. -1.
         11   -1    0    0    0    0 -0.00000000000E+00 -0.00000000000E+00 -0.45593999997E+02  0.45594000000E+02  0.51100000000E-03 0.  1.
    9900012    2    1    2    0    0 -0.34922786446E+02  0.64298803761E+01 -0.19804525988E+02  0.50528885100E+02  0.30000076751E+02 0.  0.
         12    1    1    2    0    0  0.34922786446E+02 -0.64298803761E+01  0.19804525988E+02  0.40659114900E+02  0.00000000000E+00 0. -1.
         11    1    3    3    0    0 -0.35813108625E+01 -0.60475834742E+01  0.23461517824E+01  0.74096883753E+01  0.51100000000E-03 0. -1.
        -11    1    3    3    0    0 -0.13621714521E+02  0.83281174841E+01 -0.18712646254E+02  0.24598206792E+02  0.51100000000E-03 0.  1.
         12    1    3    3    0    0 -0.17719761063E+02  0.41493463662E+01 -0.34380315166E+01  0.18520989933E+02  0.00000000000E+00 0. -1.
</event>
<event>
 7    1  0.3383281E-011  0.5052887E+02  0.7816164E-02  0.1300439E+00
        -11   -1    0    0    0    0  0.00000000000E+00  0.00000000000E+00  0.45593999997E+02  0.45594000000E+02  0.51100000000E-03 0.  1.
         11   -1    0    0    0    0 -0.00000000000E+00 -0.00000000000E+00 -0.45593999997E+02  0.45594000000E+02  0.51100000000E-03 0. -1.
    9900012    2    1    2    0    0  0.13016322097E+00  0.29678541789E+02  0.27790867486E+02  0.50528866944E+02  0.30000021564E+02 0.  0.
         12    1    1    2    0    0 -0.13016322097E+00 -0.29678541789E+02 -0.27790867486E+02  0.40659133056E+02  0.00000000000E+00 0. -1.
         11    1    3    3    0    0 -0.11547632363E+02  0.16192005962E+02  0.17178200393E+02  0.26279639253E+02  0.51100000000E-03 0. -1.
        -11    1    3    3    0    0  0.81159994791E+00  0.89025671699E+01  0.92554330302E+00  0.89872702951E+01  0.51100000000E-03 0.  1.
         12    1    3    3    0    0  0.10866195636E+02  0.45839686570E+01  0.96871237908E+01  0.15261957397E+02  0.00000000000E+00 0. -1.
</event>
<event>
 7    1  0.3383281E-011  0.5052884E+02  0.7816164E-02  0.1300439E+00
        -11   -1    0    0    0    0  0.00000000000E+00  0.00000000000E+00  0.45593999997E+02  0.45594000000E+02  0.51100000000E-03 0. -1.
         11   -1    0    0    0    0 -0.00000000000E+00 -0.00000000000E+00 -0.45593999997E+02  0.45594000000E+02  0.51100000000E-03 0.  1.
    9900012    2    1    2    0    0 -0.38182748335E+02 -0.13878808181E+02 -0.16197937817E+01  0.50528839669E+02  0.29999938657E+02 0.  0.
         12    1    1    2    0    0  0.38182748335E+02  0.13878808181E+02  0.16197937817E+01  0.40659160331E+02  0.00000000000E+00 0. -1.
         11    1    3    3    0    0 -0.24813140001E+02 -0.13450986958E+02 -0.37772131196E+01  0.28476100612E+02  0.51100000000E-03 0. -1.
        -11    1    3    3    0    0 -0.38861933623E+01 -0.70467332493E+01 -0.39608310795E+01  0.89692324888E+01  0.51100000000E-03 0.  1.
         12    1    3    3    0    0 -0.94834149717E+01  0.66189120265E+01  0.61182504174E+01  0.13083506568E+02  0.00000000000E+00 0. -1.
</event>
<event>
 7    1  0.3383281E-011  0.5052886E+02  0.7816164E-02  0.1300439E+00
        -11   -1    0    0    0    0  0.00000000000E+00  0.00000000000E+00  0.45593999997E+02  0.45594000000E+02  0.51100000000E-03 0. -1.
         11   -1    0    0    0    0 -0.00000000000E+00 -0.00000000000E+00 -0.45593999997E+02  0.45594000000E+02  0.51100000000E-03 0.  1.
    9900012    2    1    2    0    0  0.18569512744E+02  0.36162621741E+02  0.77688188540E+00  0.50528861295E+02  0.30000004393E+02 0.  0.
         12    1    1    2    0    0 -0.18569512744E+02 -0.36162621741E+02 -0.77688188540E+00  0.40659138705E+02  0.00000000000E+00 0. -1.
         11    1    3    3    0    0  0.58749146468E+01  0.21381529093E+01  0.89671963747E+01  0.10931465183E+02  0.51100000000E-03 0.  1.
        -11    1    3    3    0    0 -0.14940507517E+01 -0.10461575230E+00  0.58683817465E+00  0.16085743404E+01  0.51100000000E-03 0. -1.
        -12    1    3    3    0    0  0.14188648849E+02  0.34129084584E+02 -0.87771526639E+01  0.37988821772E+02  0.00000000000E+00 0.  1.
</event>
<event>
 7    1  0.3383281E-011  0.5052886E+02  0.7816164E-02  0.1300439E+00
        -11   -1    0    0    0    0  0.00000000000E+00  0.00000000000E+00  0.45593999997E+02  0.45594000000E+02  0.51100000000E-03 0.  1.
         11   -1    0    0    0    0 -0.00000000000E+00 -0.00000000000E+00 -0.45593999997E+02  0.45594000000E+02  0.51100000000E-03 0. -1.
    9900012    2    1    2    0    0 -0.34196388971E+02 -0.20034167018E+02  0.90777113953E+01  0.50528859442E+02  0.29999998760E+02 0.  0.
         12    1    1    2    0    0  0.34196388971E+02  0.20034167018E+02 -0.90777113953E+01  0.40659140558E+02  0.00000000000E+00 0. -1.
         11    1    3    3    0    0  0.76534154484E+00  0.17395979556E+01  0.52394790419E+01  0.55735168089E+01  0.51100000000E-03 0. -1.
        -11    1    3    3    0    0 -0.22968321520E+02 -0.42552926085E+01  0.41366865123E+01  0.23722636536E+02  0.51100000000E-03 0.  1.
         12    1    3    3    0    0 -0.11993408996E+02 -0.17518472365E+02 -0.29845415893E+00  0.21232706097E+02  0.00000000000E+00 0. -1.
</event>
<event>
 7    1  0.3383281E-011  0.5052885E+02  0.7816164E-02  0.1300439E+00
        -11   -1    0    0    0    0  0.00000000000E+00  0.00000000000E+00  0.45593999997E+02  0.45594000000E+02  0.51100000000E-03 0.  1.
         11   -1    0    0    0    0 -0.00000000000E+00 -0.00000000000E+00 -0.45593999997E+02  0.45594000000E+02  0.51100000000E-03 0. -1.
    9900012    2    1    2    0    0 -0.19755736062E+02  0.29287807401E+02  0.20127137336E+02  0.50528850636E+02  0.29999971992E+02 0.  0.
         12    1    1    2    0    0  0.19755736062E+02 -0.29287807401E+02 -0.20127137336E+02  0.40659149364E+02  0.00000000000E+00 0. -1.
         11    1    3    3    0    0  0.23287793630E+01  0.15224343054E+01  0.58444741003E+01  0.64729357563E+01  0.51100000000E-03 0. -1.
        -11    1    3    3    0    0 -0.64052394497E+01 -0.27414832922E+01  0.48275576458E+01  0.84763279865E+01  0.51100000000E-03 0.  1.
        -12    1    3    3    0    0 -0.15679275975E+02  0.30506856387E+02  0.94551055903E+01  0.35579586893E+02  0.00000000000E+00 0.  1.
</event>
<event>
 7    1  0.3383281E-011  0.5052886E+02  0.7816164E-02  0.1300439E+00
        -11   -1    0    0    0    0  0.00000000000E+00  0.00000000000E+00  0.45593999997E+02  0.45594000000E+02  0.51100000000E-03 0.  1.
         11   -1    0    0    0    0 -0.00000000000E+00 -0.00000000000E+00 -0.45593999997E+02  0.45594000000E+02  0.51100000000E-03 0. -1.
    9900012    2    1    2    0    0 -0.32661187262E+02  0.18430411077E+02  0.15707729124E+02  0.50528856378E+02  0.29999989447E+02 0.  0.
         12    1    1    2    0    0  0.32661187262E+02 -0.18430411077E+02 -0.15707729124E+02  0.40659143622E+02  0.00000000000E+00 0. -1.
         11    1    3    3    0    0 -0.53541759146E+01  0.94377803241E+01  0.11324361803E+02  0.15683751710E+02  0.51100000000E-03 0.  1.
        -11    1    3    3    0    0  0.17753852149E+01  0.44425502079E+01 -0.10841091694E+01  0.49054600155E+01  0.51100000000E-03 0. -1.
        -12    1    3    3    0    0 -0.29082396562E+02  0.45500805448E+01  0.54674764899E+01  0.29939644653E+02  0.00000000000E+00 0.  1.
</event>
<event>
 7    1  0.3383281E-011  0.5052884E+02  0.7816164E-02  0.1300439E+00
        -11   -1    0    0    0    0  0.00000000000E+00  0.00000000000E+00  0.45593999997E+02  0.45594000000E+02  0.51100000000E-03 0.  1.
         11   -1    0    0    0    0 -0.00000000000E+00 -0.00000000000E+00 -0.45593999997E+02  0.45594000000E+02  0.51100000000E-03 0. -1.
    9900012    2    1    2    0    0  0.27038668621E+02  0.28544006914E+02 -0.10359390187E+02  0.50528844862E+02  0.29999954442E+02 0.  0.
         12    1    1    2    0    0 -0.27038668621E+02 -0.28544006914E+02  0.10359390187E+02  0.40659155138E+02  0.00000000000E+00 0. -1.
         11    1    3    3    0    0  0.26663884647E+02  0.18044972838E+02 -0.24291864767E+01  0.32287532213E+02  0.51100000000E-03 0. -1.
        -11    1    3    3    0    0  0.43011992348E+01  0.61715480308E+01  0.97991373537E+00  0.75860761362E+01  0.51100000000E-03 0.  1.
         12    1    3    3    0    0 -0.39264152601E+01  0.43274860445E+01 -0.89101174453E+01  0.10655236513E+02  0.00000000000E+00 0. -1.
</event>
<event>
 7    1  0.3383281E-011  0.5052887E+02  0.7816164E-02  0.1300439E+00
        -11   -1    0    0    0    0  0.00000000000E+00  0.00000000000E+00  0.45593999997E+02  0.45594000000E+02  0.51100000000E-03 0.  1.
         11   -1    0    0    0    0 -0.00000000000E+00 -0.00000000000E+00 -0.45593999997E+02  0.45594000000E+02  0.51100000000E-03 0. -1.
    9900012    2    1    2    0    0 -0.27174979009E+01  0.14191216439E+02  0.38005122549E+02  0.50528871150E+02  0.30000034348E+02 0.  0.
         12    1    1    2    0    0  0.27174979009E+01 -0.14191216439E+02 -0.38005122549E+02  0.40659128850E+02  0.00000000000E+00 0. -1.
         11    1    3    3    0    0 -0.64682881209E+01  0.90723467185E+01  0.34463481669E+01  0.11662913107E+02  0.51100000000E-03 0. -1.
        -11    1    3    3    0    0 -0.65048217863E+01  0.20970894689E+01  0.10369444631E+02  0.12419173601E+02  0.51100000000E-03 0.  1.
        -12    1    3    3    0    0  0.10255612006E+02  0.30217802515E+01  0.24189329751E+02  0.26446784442E+02  0.00000000000E+00 0.  1.
</event>
<event>
 7    1  0.3383281E-011  0.5052886E+02  0.7816164E-02  0.1300439E+00
        -11   -1    0    0    0    0  0.00000000000E+00  0.00000000000E+00  0.45593999997E+02  0.45594000000E+02  0.51100000000E-03 0.  1.
         11   -1    0    0    0    0 -0.00000000000E+00 -0.00000000000E+00 -0.45593999997E+02  0.45594000000E+02  0.51100000000E-03 0. -1.
    9900012    2    1    2    0    0 -0.73344507562E+01  0.38385464531E+02  0.11221742904E+02  0.50528861188E+02  0.30000004067E+02 0.  0.
         12    1    1    2    0    0  0.73344507562E+01 -0.38385464531E+02 -0.11221742904E+02  0.40659138812E+02  0.00000000000E+00 0. -1.
         11    1    3    3    0    0 -0.11871081496E+02  0.19854921136E+02  0.74192185361E+01  0.24293729091E+02  0.51100000000E-03 0. -1.
        -11    1    3    3    0    0 -0.66314021660E+01  0.53503122838E+01  0.26412715204E+01  0.89206306799E+01  0.51100000000E-03 0.  1.
         12    1    3    3    0    0  0.11168032906E+02  0.13180231111E+02  0.11612528471E+01  0.17314501417E+02  0.00000000000E+00 0. -1.
</event>
<event>
 7    1  0.3383281E-011  0.5052885E+02  0.7816164E-02  0.1300439E+00
        -11   -1    0    0    0    0  0.00000000000E+00  0.00000000000E+00  0.45593999997E+02  0.45594000000E+02  0.51100000000E-03 0.  1.
         11   -1    0    0    0    0 -0.00000000000E+00 -0.00000000000E+00 -0.45593999997E+02  0.45594000000E+02  0.51100000000E-03 0. -1.
    9900012    2    1    2    0    0  0.39488195446E+02 -0.28188884719E+01  0.92683731320E+01  0.50528850324E+02  0.29999971046E+02 0.  0.
         12    1    1    2    0    0 -0.39488195446E+02  0.28188884719E+01 -0.92683731320E+01  0.40659149676E+02  0.00000000000E+00 0. -1.
         11    1    3    3    0    0  0.14217382440E+02  0.71724912794E+01  0.11248902022E+02  0.19496573841E+02  0.51100000000E-03 0. -1.
        -11    1    3    3    0    0  0.67723250606E+00 -0.57022375753E+01  0.11980020585E+01  0.58659497463E+01  0.51100000000E-03 0.  1.
         12    1    3    3    0    0  0.24593580500E+02 -0.42891421760E+01 -0.31785309480E+01  0.25166326737E+02  0.00000000000E+00 0. -1.
</event>
<event>
 7    1  0.3383281E-011  0.5052886E+02  0.7816164E-02  0.1300439E+00
        -11   -1    0    0    0    0  0.00000000000E+00  0.00000000000E+00  0.45593999997E+02  0.45594000000E+02  0.51100000000E-03 0.  1.
         11   -1    0    0    0    0 -0.00000000000E+00 -0.00000000000E+00 -0.45593999997E+02  0.45594000000E+02  0.51100000000E-03 0. -1.
    9900012    2    1    2    0    0 -0.40174858425E+02  0.26019627412E+01  0.56899932274E+01  0.50528862251E+02  0.30000007299E+02 0.  0.
         12    1    1    2    0    0  0.40174858425E+02 -0.26019627412E+01 -0.56899932274E+01  0.40659137749E+02  0.00000000000E+00 0. -1.
         11    1    3    3    0    0 -0.88704942396E+01  0.22863587837E+01  0.11815818023E+02  0.14950808017E+02  0.51100000000E-03 0. -1.
        -11    1    3    3    0    0 -0.27335323672E+02 -0.80785413784E+00  0.97656363297E+00  0.27364689388E+02  0.51100000000E-03 0.  1.
        -12    1    3    3    0    0 -0.39690405136E+01  0.11234580954E+01 -0.71023884290E+01  0.82133648456E+01  0.00000000000E+00 0.  1.
</event>
<event>
 7    1  0.3383281E-011  0.5052886E+02  0.7816164E-02  0.1300439E+00
        -11   -1    0    0    0    0  0.00000000000E+00  0.00000000000E+00  0.45593999997E+02  0.45594000000E+02  0.51100000000E-03 0. -1.
         11   -1    0    0    0    0 -0.00000000000E+00 -0.00000000000E+00 -0.45593999997E+02  0.45594000000E+02  0.51100000000E-03 0.  1.
    9900012    2    1    2    0    0 -0.25416180731E+02 -0.18002669840E+02 -0.26135935392E+02  0.50528862243E+02  0.30000007274E+02 0.  0.
         12    1    1    2    0    0  0.25416180731E+02  0.18002669840E+02  0.26135935392E+02  0.40659137757E+02  0.00000000000E+00 0. -1.
         11    1    3    3    0    0  0.41499385296E+01 -0.41288393281E+01 -0.11217472462E+01  0.59605051079E+01  0.51100000000E-03 0. -1.
        -11    1    3    3    0    0 -0.59293599296E+01 -0.34702747036E+01 -0.15661206864E+02  0.17101857104E+02  0.51100000000E-03 0.  1.
         12    1    3    3    0    0 -0.23636759331E+02 -0.10403555808E+02 -0.93529812817E+01  0.27466500032E+02  0.00000000000E+00 0. -1.
</event>
<event>
 7    1  0.3383281E-011  0.5052888E+02  0.7816164E-02  0.1300439E+00
        -11   -1    0    0    0    0  0.00000000000E+00  0.00000000000E+00  0.45593999997E+02  0.45594000000E+02  0.51100000000E-03 0. -1.
         11   -1    0    0    0    0 -0.00000000000E+00 -0.00000000000E+00 -0.45593999997E+02  0.45594000000E+02  0.51100000000E-03 0.  1.
    9900012    2    1    2    0    0 -0.33820731897E+02  0.16331525491E+02 -0.15575733187E+02  0.50528879311E+02  0.30000059153E+02 0.  0.
         12    1    1    2    0    0  0.33820731897E+02 -0.16331525491E+02  0.15575733187E+02  0.40659120689E+02  0.00000000000E+00 0. -1.
         11    1    3    3    0    0 -0.36949217996E+01  0.27502483632E+01 -0.87063555952E+01  0.98497178221E+01  0.51100000000E-03 0. -1.
        -11    1    3    3    0    0 -0.17331622741E+02  0.90670698974E+01 -0.15188358206E+02  0.24764553875E+02  0.51100000000E-03 0.  1.
         12    1    3    3    0    0 -0.12794187357E+02  0.45142072306E+01  0.83189806145E+01  0.15914607614E+02  0.00000000000E+00 0. -1.
</event>
<event>
 7    1  0.3383281E-011  0.5052886E+02  0.7816164E-02  0.1300439E+00
        -11   -1    0    0    0    0  0.00000000000E+00  0.00000000000E+00  0.45593999997E+02  0.45594000000E+02  0.51100000000E-03 0. -1.
         11   -1    0    0    0    0 -0.00000000000E+00 -0.00000000000E+00 -0.45593999997E+02  0.45594000000E+02  0.51100000000E-03 0.  1.
    9900012    2    1    2    0    0  0.15387123164E+02 -0.36386989887E+02  0.96119082471E+01  0.50528863604E+02  0.30000011411E+02 0.  0.
         12    1    1    2    0    0 -0.15387123164E+02  0.36386989887E+02 -0.96119082471E+01  0.40659136396E+02  0.00000000000E+00 0. -1.
         11    1    3    3    0    0 -0.48822882118E+01 -0.69334345735E+01  0.32460386420E+01  0.90799790911E+01  0.51100000000E-03 0. -1.
        -11    1    3    3    0    0  0.12760197868E+01  0.18828581173E+01  0.41578079819E+01  0.47392772299E+01  0.51100000000E-03 0.  1.
        -12    1    3    3    0    0  0.18993391589E+02 -0.31336413431E+02  0.22080616232E+01  0.36709607283E+02  0.00000000000E+00 0.  1.
</event>
<event>
 7    1  0.3383281E-011  0.5052886E+02  0.7816164E-02  0.1300439E+00
        -11   -1    0    0    0    0  0.00000000000E+00  0.00000000000E+00  0.45593999997E+02  0.45594000000E+02  0.51100000000E-03 0. -1.
         11   -1    0    0    0    0 -0.00000000000E+00 -0.00000000000E+00 -0.45593999997E+02  0.45594000000E+02  0.51100000000E-03 0.  1.
    9900012    2    1    2    0    0  0.40429341369E+02  0.41339138474E+01  0.12427794559E+01  0.50528863413E+02  0.30000010831E+02 0.  0.
         12    1    1    2    0    0 -0.40429341369E+02 -0.41339138474E+01 -0.12427794559E+01  0.40659136587E+02  0.00000000000E+00 0. -1.
         11    1    3    3    0    0  0.82644518296E+01  0.44668270953E+01  0.18690969116E+01  0.95784775340E+01  0.51100000000E-03 0.  1.
        -11    1    3    3    0    0  0.24974352721E+02  0.10758235205E+02 -0.35183299564E+01  0.27419638300E+02  0.51100000000E-03 0. -1.
         12    1    3    3    0    0  0.71905368183E+01 -0.11091148453E+02  0.28920125008E+01  0.13530747579E+02  0.00000000000E+00 0. -1.
</event>
<event>
 7    1  0.3383281E-011  0.5052888E+02  0.7816164E-02  0.1300439E+00
        -11   -1    0    0    0    0  0.00000000000E+00  0.00000000000E+00  0.45593999997E+02  0.45594000000E+02  0.51100000000E-03 0. -1.
         11   -1    0    0    0    0 -0.00000000000E+00 -0.00000000000E+00 -0.45593999997E+02  0.45594000000E+02  0.51100000000E-03 0.  1.
    9900012    2    1    2    0    0 -0.39832956346E+02  0.35285553627E+01  0.73518068153E+01  0.50528878297E+02  0.30000056070E+02 0.  0.
         12    1    1    2    0    0  0.39832956346E+02 -0.35285553627E+01 -0.73518068153E+01  0.40659121703E+02  0.00000000000E+00 0. -1.
         11    1    3    3    0    0 -0.18627254034E+01 -0.24641955254E+01  0.17433978185E+01  0.35470328065E+01  0.51100000000E-03 0. -1.
        -11    1    3    3    0    0 -0.15302671054E+02  0.38735973924E+01  0.15533122881E+02  0.22146205202E+02  0.51100000000E-03 0.  1.
        -12    1    3    3    0    0 -0.22667559889E+02  0.21191534957E+01 -0.99247138838E+01  0.24835640288E+02  0.00000000000E+00 0.  1.
</event>
<event>
 7    1  0.3383281E-011  0.5052885E+02  0.7816164E-02  0.1300439E+00
        -11   -1    0    0    0    0  0.00000000000E+00  0.00000000000E+00  0.45593999997E+02  0.45594000000E+02  0.51100000000E-03 0. -1.
         11   -1    0    0    0    0 -0.00000000000E+00 -0.00000000000E+00 -0.45593999997E+02  0.45594000000E+02  0.51100000000E-03 0.  1.
    9900012    2    1    2    0    0 -0.24894774761E+02 -0.26145974566E+02 -0.18703056334E+02  0.50528854502E+02  0.29999983743E+02 0.  0.
         12    1    1    2    0    0  0.24894774761E+02  0.26145974566E+02  0.18703056334E+02  0.40659145498E+02  0.00000000000E+00 0. -1.
         11    1    3    3    0    0 -0.94826111949E+00 -0.71598916205E+01 -0.14604458127E+02  0.16292742084E+02  0.51100000000E-03 0. -1.
        -11    1    3    3    0    0  0.14092628662E+01  0.73867654380E+00 -0.11768465891E+01  0.19790485132E+01  0.51100000000E-03 0.  1.
         12    1    3    3    0    0 -0.25355776508E+02 -0.19724759489E+02 -0.29217516182E+01  0.32257063905E+02  0.00000000000E+00 0. -1.
</event>
<event>
 7    1  0.3383281E-011  0.5052889E+02  0.7816164E-02  0.1300439E+00
        -11   -1    0    0    0    0  0.00000000000E+00  0.00000000000E+00  0.45593999997E+02  0.45594000000E+02  0.51100000000E-03 0.  1.
         11   -1    0    0    0    0 -0.00000000000E+00 -0.00000000000E+00 -0.45593999997E+02  0.45594000000E+02  0.51100000000E-03 0. -1.
    9900012    2    1    2    0    0 -0.19625183538E+02 -0.11125888475E+01  0.35591819089E+02  0.50528889472E+02  0.30000090039E+02 0.  0.
         12    1    1    2    0    0  0.19625183538E+02  0.11125888475E+01 -0.35591819089E+02  0.40659110528E+02  0.00000000000E+00 0. -1.
         11    1    3    3    0    0 -0.10586971492E+01  0.74693576431E+00  0.42552792902E+01  0.44481630802E+01  0.51100000000E-03 0.  1.
        -11    1    3    3    0    0  0.29776143026E+01  0.91073474135E+01  0.80474312234E+01  0.12512837944E+02  0.51100000000E-03 0. -1.
         12    1    3    3    0    0 -0.21544100692E+02 -0.10966872025E+02  0.23289108575E+02  0.33567888448E+02  0.00000000000E+00 0. -1.
</event>
<event>
 7    1  0.3383281E-011  0.5052886E+02  0.7816164E-02  0.1300439E+00
        -11   -1    0    0    0    0  0.00000000000E+00  0.00000000000E+00  0.45593999997E+02  0.45594000000E+02  0.51100000000E-03 0. -1.
         11   -1    0    0    0    0 -0.00000000000E+00 -0.00000000000E+00 -0.45593999997E+02  0.45594000000E+02  0.51100000000E-03 0.  1.
    9900012    2    1    2    0    0 -0.39663905927E+02 -0.29424994327E+01 -0.84428489493E+01  0.50528862839E+02  0.30000009084E+02 0.  0.
         12    1    1    2    0    0  0.39663905927E+02  0.29424994327E+01  0.84428489493E+01  0.40659137161E+02  0.00000000000E+00 0. -1.
         11    1    3    3    0    0 -0.40335951025E+01  0.56340574866E+01  0.18741854082E+01  0.71780961556E+01  0.51100000000E-03 0. -1.
        -11    1    3    3    0    0 -0.49473356504E+01 -0.80398269630E+01 -0.83450651556E+01  0.12599803980E+02  0.51100000000E-03 0.  1.
         12    1    3    3    0    0 -0.30682975174E+02 -0.53672995635E+00 -0.19719692018E+01  0.30750962703E+02  0.00000000000E+00 0. -1.
</event>
<event>
 7    1  0.3383281E-011  0.5052897E+02  0.7816164E-02  0.1300438E+00
        -11   -1    0    0    0    0  0.00000000000E+00  0.00000000000E+00  0.45593999997E+02  0.45594000000E+02  0.51100000000E-03 0.  1.
         11   -1    0    0    0    0 -0.00000000000E+00 -0.00000000000E+00 -0.45593999997E+02  0.45594000000E+02  0.51100000000E-03 0. -1.
    9900012    2    1    2    0    0  0.85170296786E+01 -0.17009165864E+02  0.35934734174E+02  0.50528971014E+02  0.30000337892E+02 0.  0.
         12    1    1    2    0    0 -0.85170296786E+01  0.17009165864E+02 -0.35934734174E+02  0.40659028986E+02  0.00000000000E+00 0. -1.
         11    1    3    3    0    0  0.22825651302E+01 -0.45117304924E+01 -0.31600523452E+01  0.59625285488E+01  0.51100000000E-03 0. -1.
        -11    1    3    3    0    0 -0.40279833091E+00  0.31784524833E+01  0.20664221622E+01  0.38124673766E+01  0.51100000000E-03 0.  1.
         12    1    3    3    0    0  0.66372628793E+01 -0.15675887854E+02  0.37028364357E+02  0.40753975089E+02  0.00000000000E+00 0. -1.
</event>
<event>
 7    1  0.3383281E-011  0.5052886E+02  0.7816164E-02  0.1300439E+00
        -11   -1    0    0    0    0  0.00000000000E+00  0.00000000000E+00  0.45593999997E+02  0.45594000000E+02  0.51100000000E-03 0.  1.
         11   -1    0    0    0    0 -0.00000000000E+00 -0.00000000000E+00 -0.45593999997E+02  0.45594000000E+02  0.51100000000E-03 0. -1.
    9900012    2    1    2    0    0  0.24530867555E+02 -0.29303400927E+02  0.13882106415E+02  0.50528860223E+02  0.30000001134E+02 0.  0.
         12    1    1    2    0    0 -0.24530867555E+02  0.29303400927E+02 -0.13882106415E+02  0.40659139777E+02  0.00000000000E+00 0. -1.
         11    1    3    3    0    0 -0.86072195409E-01  0.30530676498E+01 -0.22816020233E+01  0.38123927593E+01  0.51100000000E-03 0. -1.
        -11    1    3    3    0    0  0.21241808892E+01 -0.15215741377E+02  0.77772985790E+01  0.17219677801E+02  0.51100000000E-03 0.  1.
        -12    1    3    3    0    0  0.22492758861E+02 -0.17140727199E+02  0.83864098596E+01  0.29496789663E+02  0.00000000000E+00 0.  1.
</event>
<event>
 7    1  0.3383281E-011  0.5052884E+02  0.7816164E-02  0.1300439E+00
        -11   -1    0    0    0    0  0.00000000000E+00  0.00000000000E+00  0.45593999997E+02  0.45594000000E+02  0.51100000000E-03 0.  1.
         11   -1    0    0    0    0 -0.00000000000E+00 -0.00000000000E+00 -0.45593999997E+02  0.45594000000E+02  0.51100000000E-03 0. -1.
    9900012    2    1    2    0    0  0.28324228867E+02  0.71610827065E+01  0.28277622077E+02  0.50528844121E+02  0.29999952189E+02 0.  0.
         12    1    1    2    0    0 -0.28324228867E+02 -0.71610827065E+01 -0.28277622077E+02  0.40659155879E+02  0.00000000000E+00 0. -1.
         11    1    3    3    0    0  0.28655292857E+01  0.59419701454E+01 -0.21282673033E+00  0.66002699016E+01  0.51100000000E-03 0. -1.
        -11    1    3    3    0    0  0.27504892412E+02 -0.39706602617E+01  0.24736162794E+02  0.37204341138E+02  0.51100000000E-03 0.  1.
         12    1    3    3    0    0 -0.20461928301E+01  0.51897728228E+01  0.37542860136E+01  0.67242330806E+01  0.00000000000E+00 0. -1.
</event>
<event>
 7    1  0.3383281E-011  0.5052886E+02  0.7816164E-02  0.1300439E+00
        -11   -1    0    0    0    0  0.00000000000E+00  0.00000000000E+00  0.45593999997E+02  0.45594000000E+02  0.51100000000E-03 0.  1.
         11   -1    0    0    0    0 -0.00000000000E+00 -0.00000000000E+00 -0.45593999997E+02  0.45594000000E+02  0.51100000000E-03 0. -1.
    9900012    2    1    2    0    0  0.35405067753E+02 -0.18924187671E+02  0.64437592275E+01  0.50528859151E+02  0.29999997875E+02 0.  0.
         12    1    1    2    0    0 -0.35405067753E+02  0.18924187671E+02 -0.64437592275E+01  0.40659140849E+02  0.00000000000E+00 0. -1.
         11    1    3    3    0    0  0.43077341181E+01  0.63568265955E+01  0.63789121468E+01  0.99828021134E+01  0.51100000000E-03 0. -1.
        -11    1    3    3    0    0  0.50506363450E+01 -0.14846084658E+01 -0.10464025711E+00  0.52653527546E+01  0.51100000000E-03 0.  1.
         12    1    3    3    0    0  0.26046697290E+02 -0.23796405801E+02  0.16948733782E+00  0.35280704283E+02  0.00000000000E+00 0. -1.
</event>
<event>
 7    1  0.3383281E-011  0.5052881E+02  0.7816164E-02  0.1300439E+00
        -11   -1    0    0    0    0  0.00000000000E+00  0.00000000000E+00  0.45593999997E+02  0.45594000000E+02  0.51100000000E-03 0. -1.
         11   -1    0    0    0    0 -0.00000000000E+00 -0.00000000000E+00 -0.45593999997E+02  0.45594000000E+02  0.51100000000E-03 0.  1.
    9900012    2    1    2    0    0  0.27828435181E+02  0.27601662702E+02 -0.10811861257E+02  0.50528807529E+02  0.29999840966E+02 0.  0.
         12    1    1    2    0    0 -0.27828435181E+02 -0.27601662702E+02  0.10811861257E+02  0.40659192471E+02  0.00000000000E+00 0. -1.
         11    1    3    3    0    0  0.12601726123E+02  0.90386817550E+01  0.83008920330E+01  0.17589942522E+02  0.51100000000E-03 0. -1.
        -11    1    3    3    0    0  0.28184409440E+01  0.11174739057E+02 -0.44369348676E+01  0.12349283122E+02  0.51100000000E-03 0.  1.
        -12    1    3    3    0    0  0.12408268115E+02  0.73882418900E+01 -0.14675818423E+02  0.20589581885E+02  0.00000000000E+00 0.  1.
</event>
<event>
 7    1  0.3383281E-011  0.5052886E+02  0.7816164E-02  0.1300439E+00
        -11   -1    0    0    0    0  0.00000000000E+00  0.00000000000E+00  0.45593999997E+02  0.45594000000E+02  0.51100000000E-03 0.  1.
         11   -1    0    0    0    0 -0.00000000000E+00 -0.00000000000E+00 -0.45593999997E+02  0.45594000000E+02  0.51100000000E-03 0. -1.
    9900012    2    1    2    0    0  0.70938693879E-02 -0.22805417843E+02  0.33661230315E+02  0.50528861303E+02  0.30000004415E+02 0.  0.
         12    1    1    2    0    0 -0.70938693879E-02  0.22805417843E+02 -0.33661230315E+02  0.40659138697E+02  0.00000000000E+00 0. -1.
         11    1    3    3    0    0 -0.27258767838E+01 -0.41193677534E+01  0.60037100734E+01  0.77745822933E+01  0.51100000000E-03 0. -1.
        -11    1    3    3    0    0  0.74894416681E+01 -0.17260292532E+02  0.31352460073E+02  0.36564821724E+02  0.51100000000E-03 0.  1.
         12    1    3    3    0    0 -0.47564710149E+01 -0.14257575576E+01 -0.36949398317E+01  0.61894572855E+01  0.00000000000E+00 0. -1.
</event>
<event>
 7    1  0.3383281E-011  0.5052886E+02  0.7816164E-02  0.1300439E+00
        -11   -1    0    0    0    0  0.00000000000E+00  0.00000000000E+00  0.45593999997E+02  0.45594000000E+02  0.51100000000E-03 0.  1.
         11   -1    0    0    0    0 -0.00000000000E+00 -0.00000000000E+00 -0.45593999997E+02  0.45594000000E+02  0.51100000000E-03 0. -1.
    9900012    2    1    2    0    0  0.88105978915E+01  0.20326778242E+02  0.34093418152E+02  0.50528859451E+02  0.29999998786E+02 0.  0.
         12    1    1    2    0    0 -0.88105978915E+01 -0.20326778242E+02 -0.34093418152E+02  0.40659140549E+02  0.00000000000E+00 0. -1.
         11    1    3    3    0    0  0.18845831619E+01 -0.57847952401E+01  0.32375624160E+01  0.68918299691E+01  0.51100000000E-03 0. -1.
        -11    1    3    3    0    0 -0.17133603637E+01 -0.68299944274E+00  0.53110881122E+01  0.56222548120E+01  0.51100000000E-03 0.  1.
        -12    1    3    3    0    0  0.86393750933E+01  0.26794572924E+02  0.25544767624E+02  0.38014774670E+02  0.00000000000E+00 0.  1.
</event>
<event>
 7    1  0.4679821E-011  0.5052886E+02  0.7816164E-02  0.1300439E+00
        -11   -1    0    0    0    0  0.00000000000E+00  0.00000000000E+00  0.45593999997E+02  0.45594000000E+02  0.51100000000E-03 0.  1.
         11   -1    0    0    0    0 -0.00000000000E+00 -0.00000000000E+00 -0.45593999997E+02  0.45594000000E+02  0.51100000000E-03 0. -1.
    9900012    2    1    2    0    0  0.86731230819E+01 -0.37894265689E+02  0.11915004999E+02  0.50528858590E+02  0.29999996170E+02 0.  0.
         12    1    1    2    0    0 -0.86731230819E+01  0.37894265689E+02 -0.11915004999E+02  0.40659141410E+02  0.00000000000E+00 0. -1.
         11    1    3    3    0    0  0.68000511954E+01 -0.91480805482E+01  0.66687247410E+00  0.11418090608E+02  0.51100000000E-03 0. -1.
        -11    1    3    3    0    0  0.10881245354E+02 -0.20862074266E+02  0.13203997178E+02  0.26980978205E+02  0.51100000000E-03 0.  1.
         12    1    3    3    0    0 -0.90081734678E+01 -0.78841108740E+01 -0.19558646527E+01  0.12129789777E+02  0.00000000000E+00 0. -1.
</event>
<event>
 7    1  0.3383281E-011  0.5052887E+02  0.7816164E-02  0.1300439E+00
        -11   -1    0    0    0    0  0.00000000000E+00  0.00000000000E+00  0.45593999997E+02  0.45594000000E+02  0.51100000000E-03 0. -1.
         11   -1    0    0    0    0 -0.00000000000E+00 -0.00000000000E+00 -0.45593999997E+02  0.45594000000E+02  0.51100000000E-03 0.  1.
    9900012    2    1    2    0    0 -0.32687786958E+02  0.11349736145E+02 -0.21350810711E+02  0.50528867634E+02  0.30000023660E+02 0.  0.
         12    1    1    2    0    0  0.32687786958E+02 -0.11349736145E+02  0.21350810711E+02  0.40659132366E+02  0.00000000000E+00 0. -1.
         11    1    3    3    0    0 -0.14795133854E+02  0.12742863896E+02 -0.13223819924E+02  0.23582747500E+02  0.51100000000E-03 0. -1.
        -11    1    3    3    0    0 -0.85715811369E+01  0.85040106382E+01 -0.32722703824E+01  0.12509914222E+02  0.51100000000E-03 0.  1.
         12    1    3    3    0    0 -0.93210719672E+01 -0.98971383895E+01 -0.48547204050E+01  0.14436205912E+02  0.00000000000E+00 0. -1.
</event>
<event>
 7    1  0.3383281E-011  0.5052886E+02  0.7816164E-02  0.1300439E+00
        -11   -1    0    0    0    0  0.00000000000E+00  0.00000000000E+00  0.45593999997E+02  0.45594000000E+02  0.51100000000E-03 0.  1.
         11   -1    0    0    0    0 -0.00000000000E+00 -0.00000000000E+00 -0.45593999997E+02  0.45594000000E+02  0.51100000000E-03 0. -1.
    9900012    2    1    2    0    0 -0.50246305974E+01 -0.36037398942E+02  0.18144557532E+02  0.50528855848E+02  0.29999987834E+02 0.  0.
         12    1    1    2    0    0  0.50246305974E+01  0.36037398942E+02 -0.18144557532E+02  0.40659144152E+02  0.00000000000E+00 0. -1.
         11    1    3    3    0    0 -0.38414063450E+01 -0.91400505320E+01  0.60255510727E+01  0.11601904690E+02  0.51100000000E-03 0. -1.
        -11    1    3    3    0    0 -0.10581780997E+02 -0.26092153479E+01  0.26544974363E+01  0.11217328144E+02  0.51100000000E-03 0.  1.
         12    1    3    3    0    0  0.93985567441E+01 -0.24288133062E+02  0.94645090232E+01  0.27709623014E+02  0.00000000000E+00 0. -1.
</event>
<event>
 7    1  0.3383281E-011  0.5052885E+02  0.7816164E-02  0.1300439E+00
        -11   -1    0    0    0    0  0.00000000000E+00  0.00000000000E+00  0.45593999997E+02  0.45594000000E+02  0.51100000000E-03 0. -1.
         11   -1    0    0    0    0 -0.00000000000E+00 -0.00000000000E+00 -0.45593999997E+02  0.45594000000E+02  0.51100000000E-03 0.  1.
    9900012    2    1    2    0    0  0.31366746696E+02 -0.16681849870E+02 -0.19773961179E+02  0.50528850303E+02  0.29999970980E+02 0.  0.
         12    1    1    2    0    0 -0.31366746696E+02  0.16681849870E+02  0.19773961179E+02  0.40659149697E+02  0.00000000000E+00 0. -1.
         11    1    3    3    0    0  0.24146800574E+01 -0.46430669739E+01 -0.32632886939E+01  0.61674795553E+01  0.51100000000E-03 0. -1.
        -11    1    3    3    0    0  0.17207933037E+02 -0.12750843125E+02 -0.22580744969E+02  0.31122130445E+02  0.51100000000E-03 0.  1.
        -12    1    3    3    0    0  0.11744133601E+02  0.71206022916E+00  0.60700724843E+01  0.13239240302E+02  0.00000000000E+00 0.  1.
</event>
<event>
 7    1  0.3383281E-011  0.5052886E+02  0.7816164E-02  0.1300439E+00
        -11   -1    0    0    0    0  0.00000000000E+00  0.00000000000E+00  0.45593999997E+02  0.45594000000E+02  0.51100000000E-03 0. -1.
         11   -1    0    0    0    0 -0.00000000000E+00 -0.00000000000E+00 -0.45593999997E+02  0.45594000000E+02  0.51100000000E-03 0.  1.
    9900012    2    1    2    0    0  0.10129325960E+02 -0.33272086277E+02  0.21060160262E+02  0.50528864251E+02  0.30000013376E+02 0.  0.
         12    1    1    2    0    0 -0.10129325960E+02  0.33272086277E+02 -0.21060160262E+02  0.40659135749E+02  0.00000000000E+00 0. -1.
         11    1    3    3    0    0 -0.11423299141E+00  0.16219007887E+01  0.15894264570E+01  0.22737387862E+01  0.51100000000E-03 0. -1.
        -11    1    3    3    0    0  0.35956203563E+00 -0.10564217129E+02  0.19287013058E+02  0.21993654570E+02  0.51100000000E-03 0.  1.
        -12    1    3    3    0    0  0.98839969157E+01 -0.24329769937E+02  0.18372074723E+00  0.26261470894E+02  0.00000000000E+00 0.  1.
</event>
<event>
 7    1  0.3383281E-011  0.5052887E+02  0.7816164E-02  0.1300439E+00
        -11   -1    0    0    0    0  0.00000000000E+00  0.00000000000E+00  0.45593999997E+02  0.45594000000E+02  0.51100000000E-03 0.  1.
         11   -1    0    0    0    0 -0.00000000000E+00 -0.00000000000E+00 -0.45593999997E+02  0.45594000000E+02  0.51100000000E-03 0. -1.
    9900012    2    1    2    0    0 -0.18083824518E+02  0.28796061424E+02  0.22291867231E+02  0.50528865635E+02  0.30000017583E+02 0.  0.
         12    1    1    2    0    0  0.18083824518E+02 -0.28796061424E+02 -0.22291867231E+02  0.40659134365E+02  0.00000000000E+00 0. -1.
         11    1    3    3    0    0  0.50541319279E+01  0.68750730828E+01 -0.57684967759E+00  0.85524052319E+01  0.51100000000E-03 0. -1.
        -11    1    3    3    0    0 -0.12833274104E+02  0.15208717132E+02  0.54114368994E+01  0.20622358027E+02  0.51100000000E-03 0.  1.
        -12    1    3    3    0    0 -0.10304682343E+02  0.67122712092E+01  0.17457280009E+02  0.21354102376E+02  0.00000000000E+00 0.  1.
</event>
<event>
 7    1  0.3383281E-011  0.5052885E+02  0.7816164E-02  0.1300439E+00
        -11   -1    0    0    0    0  0.00000000000E+00  0.00000000000E+00  0.45593999997E+02  0.45594000000E+02  0.51100000000E-03 0.  1.
         11   -1    0    0    0    0 -0.00000000000E+00 -0.00000000000E+00 -0.45593999997E+02  0.45594000000E+02  0.51100000000E-03 0. -1.
    9900012    2    1    2    0    0  0.12237322292E+01 -0.13271489147E+02  0.38412711290E+02  0.50528851787E+02  0.29999975492E+02 0.  0.
         12    1    1    2    0    0 -0.12237322292E+01  0.13271489147E+02 -0.38412711290E+02  0.40659148213E+02  0.00000000000E+00 0. -1.
         11    1    3    3    0    0  0.64500408508E+00 -0.76763424465E+01  0.25075252612E+02  0.26231861494E+02  0.51100000000E-03 0. -1.
        -11    1    3    3    0    0  0.67306148339E+01 -0.32678915114E+01  0.15632458091E+02  0.17330725235E+02  0.51100000000E-03 0.  1.
         12    1    3    3    0    0 -0.61518866898E+01 -0.23272551888E+01 -0.22949994119E+01  0.69662650580E+01  0.00000000000E+00 0. -1.
</event>
<event>
 7    1  0.3383281E-011  0.5052886E+02  0.7816164E-02  0.1300439E+00
        -11   -1    0    0    0    0  0.00000000000E+00  0.00000000000E+00  0.45593999997E+02  0.45594000000E+02  0.51100000000E-03 0.  1.
         11   -1    0    0    0    0 -0.00000000000E+00 -0.00000000000E+00 -0.45593999997E+02  0.45594000000E+02  0.51100000000E-03 0. -1.
    9900012    2    1    2    0    0  0.21345170933E+02 -0.31724660853E+02 -0.13823721314E+02  0.50528859584E+02  0.29999999192E+02 0.  0.
         12    1    1    2    0    0 -0.21345170933E+02  0.31724660853E+02  0.13823721314E+02  0.40659140416E+02  0.00000000000E+00 0. -1.
         11    1    3    3    0    0  0.54854376593E+01 -0.91831847267E+01 -0.67747366078E+01  0.12661673049E+02  0.51100000000E-03 0. -1.
        -11    1    3    3    0    0  0.15418418734E+01 -0.21926665434E+02 -0.82679467817E+01  0.23484353890E+02  0.51100000000E-03 0.  1.
        -12    1    3    3    0    0  0.14317891400E+02 -0.61481069228E+00  0.12189620755E+01  0.14382832645E+02  0.00000000000E+00 0.  1.
</event>
<event>
 7    1  0.3383281E-011  0.5052886E+02  0.7816164E-02  0.1300439E+00
        -11   -1    0    0    0    0  0.00000000000E+00  0.00000000000E+00  0.45593999997E+02  0.45594000000E+02  0.51100000000E-03 0.  1.
         11   -1    0    0    0    0 -0.00000000000E+00 -0.00000000000E+00 -0.45593999997E+02  0.45594000000E+02  0.51100000000E-03 0. -1.
    9900012    2    1    2    0    0 -0.32197710163E+02  0.45561827975E+01  0.24407258360E+02  0.50528860780E+02  0.30000002827E+02 0.  0.
         12    1    1    2    0    0  0.32197710163E+02 -0.45561827975E+01 -0.24407258360E+02  0.40659139220E+02  0.00000000000E+00 0. -1.
         11    1    3    3    0    0 -0.83676419912E+01 -0.91961095498E+01  0.14840935198E+02  0.19360764994E+02  0.51100000000E-03 0. -1.
        -11    1    3    3    0    0 -0.20197039541E+01 -0.16631861358E+01 -0.42803257561E+00  0.26511515104E+01  0.51100000000E-03 0.  1.
        -12    1    3    3    0    0 -0.21810364218E+02  0.15415478483E+02  0.99943557374E+01  0.28516944275E+02  0.00000000000E+00 0.  1.
</event>
<event>
 7    1  0.3383281E-011  0.5052890E+02  0.7816164E-02  0.1300439E+00
        -11   -1    0    0    0    0  0.00000000000E+00  0.00000000000E+00  0.45593999997E+02  0.45594000000E+02  0.51100000000E-03 0.  1.
         11   -1    0    0    0    0 -0.00000000000E+00 -0.00000000000E+00 -0.45593999997E+02  0.45594000000E+02  0.51100000000E-03 0. -1.
    9900012    2    1    2    0    0  0.28859688869E+02 -0.77577049780E+01  0.27569883051E+02  0.50528904098E+02  0.30000134497E+02 0.  0.
         12    1    1    2    0    0 -0.28859688869E+02  0.77577049780E+01 -0.27569883051E+02  0.40659095902E+02  0.00000000000E+00 0. -1.
         11    1    3    3    0    0 -0.44224393017E+01 -0.20981042831E+00 -0.10547365563E+01  0.45513140144E+01  0.51100000000E-03 0. -1.
        -11    1    3    3    0    0  0.37394292728E+01 -0.45209430183E+01  0.23318517494E+01  0.63134610084E+01  0.51100000000E-03 0.  1.
        -12    1    3    3    0    0  0.29542698897E+02 -0.30269515314E+01  0.26292767858E+02  0.39664129076E+02  0.00000000000E+00 0.  1.
</event>
<event>
 7    1  0.3383281E-011  0.5052884E+02  0.7816164E-02  0.1300439E+00
        -11   -1    0    0    0    0  0.00000000000E+00  0.00000000000E+00  0.45593999997E+02  0.45594000000E+02  0.51100000000E-03 0.  1.
         11   -1    0    0    0    0 -0.00000000000E+00 -0.00000000000E+00 -0.45593999997E+02  0.45594000000E+02  0.51100000000E-03 0. -1.
    9900012    2    1    2    0    0 -0.58441212751E+01 -0.20872455890E+02  0.34399909997E+02  0.50528843883E+02  0.29999951467E+02 0.  0.
         12    1    1    2    0    0  0.58441212751E+01  0.20872455890E+02 -0.34399909997E+02  0.40659156117E+02  0.00000000000E+00 0. -1.
         11    1    3    3    0    0  0.38314534633E+01 -0.11881140524E+02  0.78123330420E+01  0.14726645362E+02  0.51100000000E-03 0. -1.
        -11    1    3    3    0    0 -0.22571187861E+01  0.64000536757E+01  0.60989807873E+01  0.91242993797E+01  0.51100000000E-03 0.  1.
         12    1    3    3    0    0 -0.74184559523E+01 -0.15391369042E+02  0.20488596167E+02  0.26677899141E+02  0.00000000000E+00 0. -1.
</event>
<event>
 7    1  0.3383281E-011  0.5052886E+02  0.7816164E-02  0.1300439E+00
        -11   -1    0    0    0    0  0.00000000000E+00  0.00000000000E+00  0.45593999997E+02  0.45594000000E+02  0.51100000000E-03 0.  1.
         11   -1    0    0    0    0 -0.00000000000E+00 -0.00000000000E+00 -0.45593999997E+02  0.45594000000E+02  0.51100000000E-03 0. -1.
    9900012    2    1    2    0    0  0.74817617364E+01  0.34565600650E+02  0.20060112768E+02  0.50528860422E+02  0.30000001738E+02 0.  0.
         12    1    1    2    0    0 -0.74817617364E+01 -0.34565600650E+02 -0.20060112768E+02  0.40659139578E+02  0.00000000000E+00 0. -1.
         11    1    3    3    0    0  0.27864936665E+01  0.21463125260E+02  0.20848418273E+02  0.30051403255E+02  0.51100000000E-03 0.  1.
        -11    1    3    3    0    0 -0.12578876879E+01  0.10763467503E+01  0.54379801221E+01  0.56844025043E+01  0.51100000000E-03 0. -1.
         12    1    3    3    0    0  0.59531557578E+01  0.12026128640E+02 -0.62262856266E+01  0.14793054662E+02  0.00000000000E+00 0. -1.
</event>
<event>
 7    1  0.3383281E-011  0.5052885E+02  0.7816164E-02  0.1300439E+00
        -11   -1    0    0    0    0  0.00000000000E+00  0.00000000000E+00  0.45593999997E+02  0.45594000000E+02  0.51100000000E-03 0.  1.
         11   -1    0    0    0    0 -0.00000000000E+00 -0.00000000000E+00 -0.45593999997E+02  0.45594000000E+02  0.51100000000E-03 0. -1.
    9900012    2    1    2    0    0  0.90606245104E+01  0.36250087214E+02  0.16031292744E+02  0.50528854822E+02  0.29999984718E+02 0.  0.
         12    1    1    2    0    0 -0.90606245104E+01 -0.36250087214E+02 -0.16031292744E+02  0.40659145178E+02  0.00000000000E+00 0. -1.
         11    1    3    3    0    0  0.92311613030E+00  0.21596739434E+02  0.16924896452E+02  0.27454023707E+02  0.51100000000E-03 0. -1.
        -11    1    3    3    0    0  0.67838581962E+01  0.62561686829E+01  0.69125253579E+01  0.11530107792E+02  0.51100000000E-03 0.  1.
        -12    1    3    3    0    0  0.13536501839E+01  0.83971790970E+01 -0.78061290654E+01  0.11544723323E+02  0.00000000000E+00 0.  1.
</event>
<event>
 7    1  0.3383281E-011  0.5052890E+02  0.7816164E-02  0.1300439E+00
        -11   -1    0    0    0    0  0.00000000000E+00  0.00000000000E+00  0.45593999997E+02  0.45594000000E+02  0.51100000000E-03 0.  1.
         11   -1    0    0    0    0 -0.00000000000E+00 -0.00000000000E+00 -0.45593999997E+02  0.45594000000E+02  0.51100000000E-03 0. -1.
    9900012    2    1    2    0    0  0.79875731816E+01  0.23090944680E+02  0.32498759890E+02  0.50528899592E+02  0.30000120801E+02 0.  0.
         12    1    1    2    0    0 -0.79875731816E+01 -0.23090944680E+02 -0.32498759890E+02  0.40659100408E+02  0.00000000000E+00 0. -1.
         11    1    3    3    0    0  0.37447411850E+01 -0.49816560265E+00  0.18506107827E+01  0.42066632906E+01  0.51100000000E-03 0. -1.
        -11    1    3    3    0    0 -0.58470611512E+01 -0.86018796425E+00  0.13668935083E+02  0.14891871407E+02  0.51100000000E-03 0.  1.
         12    1    3    3    0    0  0.10089893148E+02  0.24449298247E+02  0.16979214024E+02  0.31430364894E+02  0.00000000000E+00 0. -1.
</event>
<event>
 7    1  0.4998397E-011  0.5052886E+02  0.7816164E-02  0.1300439E+00
        -11   -1    0    0    0    0  0.00000000000E+00  0.00000000000E+00  0.45593999997E+02  0.45594000000E+02  0.51100000000E-03 0. -1.
         11   -1    0    0    0    0 -0.00000000000E+00 -0.00000000000E+00 -0.45593999997E+02  0.45594000000E+02  0.51100000000E-03 0.  1.
    9900012    2    1    2    0    0  0.27083849897E+02 -0.78114816581E+01 -0.29302072471E+02  0.50528860535E+02  0.30000002081E+02 0.  0.
         12    1    1    2    0    0 -0.27083849897E+02  0.78114816581E+01  0.29302072471E+02  0.40659139465E+02  0.00000000000E+00 0. -1.
         11    1    3    3    0    0 -0.65412466498E+00 -0.31613583073E+01 -0.51333552854E+01  0.60641076979E+01  0.51100000000E-03 0. -1.
        -11    1    3    3    0    0  0.97789812597E+01 -0.79965696782E+00 -0.24183002420E+02  0.26097615447E+02  0.51100000000E-03 0.  1.
         12    1    3    3    0    0  0.17958993303E+02 -0.38504663830E+01  0.14285234018E-01  0.18367137389E+02  0.00000000000E+00 0. -1.
</event>
<event>
 7    1  0.3383281E-011  0.5052888E+02  0.7816164E-02  0.1300439E+00
        -11   -1    0    0    0    0  0.00000000000E+00  0.00000000000E+00  0.45593999997E+02  0.45594000000E+02  0.51100000000E-03 0.  1.
         11   -1    0    0    0    0 -0.00000000000E+00 -0.00000000000E+00 -0.45593999997E+02  0.45594000000E+02  0.51100000000E-03 0. -1.
    9900012    2    1    2    0    0  0.17380016630E+02 -0.99593862571E+01  0.35382331112E+02  0.50528884077E+02  0.30000073641E+02 0.  0.
         12    1    1    2    0    0 -0.17380016630E+02  0.99593862571E+01 -0.35382331112E+02  0.40659115923E+02  0.00000000000E+00 0. -1.
         11    1    3    3    0    0 -0.16384504498E+01  0.27917628927E+01 -0.16815457483E+01  0.36477467415E+01  0.51100000000E-03 0. -1.
        -11    1    3    3    0    0 -0.86009800600E+00 -0.55729600959E+01  0.20831783718E+01  0.60114295472E+01  0.51100000000E-03 0.  1.
        -12    1    3    3    0    0  0.19878565086E+02 -0.71781890538E+01  0.34980698489E+02  0.40869707789E+02  0.00000000000E+00 0.  1.
</event>
<event>
 7    1  0.3383281E-011  0.5052885E+02  0.7816164E-02  0.1300439E+00
        -11   -1    0    0    0    0  0.00000000000E+00  0.00000000000E+00  0.45593999997E+02  0.45594000000E+02  0.51100000000E-03 0.  1.
         11   -1    0    0    0    0 -0.00000000000E+00 -0.00000000000E+00 -0.45593999997E+02  0.45594000000E+02  0.51100000000E-03 0. -1.
    9900012    2    1    2    0    0  0.27694062654E+02 -0.18043655257E+02  0.23677672081E+02  0.50528846584E+02  0.29999959678E+02 0.  0.
         12    1    1    2    0    0 -0.27694062654E+02  0.18043655257E+02 -0.23677672081E+02  0.40659153416E+02  0.00000000000E+00 0. -1.
         11    1    3    3    0    0  0.88185090109E+00 -0.44832605045E+01 -0.26337658073E+01  0.52738987809E+01  0.51100000000E-03 0. -1.
        -11    1    3    3    0    0  0.12610007786E+02 -0.12247864282E+01 -0.29180381974E+00  0.12672708782E+02  0.51100000000E-03 0.  1.
        -12    1    3    3    0    0  0.14202203967E+02 -0.12335608325E+02  0.26603241708E+02  0.32582239021E+02  0.00000000000E+00 0.  1.
</event>
<event>
 7    1  0.3383281E-011  0.5052885E+02  0.7816164E-02  0.1300439E+00
        -11   -1    0    0    0    0  0.00000000000E+00  0.00000000000E+00  0.45593999997E+02  0.45594000000E+02  0.51100000000E-03 0. -1.
         11   -1    0    0    0    0 -0.00000000000E+00 -0.00000000000E+00 -0.45593999997E+02  0.45594000000E+02  0.51100000000E-03 0.  1.
    9900012    2    1    2    0    0  0.19240335827E+02 -0.30888074306E+02 -0.18135676902E+02  0.50528850553E+02  0.29999971742E+02 0.  0.
         12    1    1    2    0    0 -0.19240335827E+02  0.30888074306E+02  0.18135676902E+02  0.40659149447E+02  0.00000000000E+00 0. -1.
         11    1    3    3    0    0  0.13857514788E+02 -0.11063601430E+02 -0.83527597836E+01  0.19601086423E+02  0.51100000000E-03 0. -1.
        -11    1    3    3    0    0  0.11710453741E+02 -0.10925167376E+02 -0.11709555988E+02  0.19839549156E+02  0.51100000000E-03 0.  1.
         12    1    3    3    0    0 -0.63276327020E+01 -0.88993054990E+01  0.19266388699E+01  0.11088214974E+02  0.00000000000E+00 0. -1.
</event>
<event>
 7    1  0.4372499E-011  0.5052885E+02  0.7816164E-02  0.1300439E+00
        -11   -1    0    0    0    0  0.00000000000E+00  0.00000000000E+00  0.45593999997E+02  0.45594000000E+02  0.51100000000E-03 0. -1.
         11   -1    0    0    0    0 -0.00000000000E+00 -0.00000000000E+00 -0.45593999997E+02  0.45594000000E+02  0.51100000000E-03 0.  1.
    9900012    2    1    2    0    0 -0.65359353255E+00 -0.38881362045E+02 -0.11873459272E+02  0.50528849320E+02  0.29999967992E+02 0.  0.
         12    1    1    2    0    0  0.65359353255E+00  0.38881362045E+02  0.11873459272E+02  0.40659150680E+02  0.00000000000E+00 0. -1.
         11    1    3    3    0    0 -0.72410560774E+01 -0.14146959121E+02 -0.14369198657E+02  0.21425293832E+02  0.51100000000E-03 0. -1.
        -11    1    3    3    0    0 -0.26722445399E+01 -0.85268540684E+01 -0.33504795657E+01  0.95432617467E+01  0.51100000000E-03 0.  1.
         12    1    3    3    0    0  0.92597070847E+01 -0.16207548855E+02  0.58462189512E+01  0.19560293741E+02  0.00000000000E+00 0. -1.
</event>
<event>
 7    1  0.3383281E-011  0.5052886E+02  0.7816164E-02  0.1300439E+00
        -11   -1    0    0    0    0  0.00000000000E+00  0.00000000000E+00  0.45593999997E+02  0.45594000000E+02  0.51100000000E-03 0.  1.
         11   -1    0    0    0    0 -0.00000000000E+00 -0.00000000000E+00 -0.45593999997E+02  0.45594000000E+02  0.51100000000E-03 0. -1.
    9900012    2    1    2    0    0 -0.13991481580E+02  0.33535493075E+02  0.18242124868E+02  0.50528856228E+02  0.29999988990E+02 0.  0.
         12    1    1    2    0    0  0.13991481580E+02 -0.33535493075E+02 -0.18242124868E+02  0.40659143772E+02  0.00000000000E+00 0. -1.
         11    1    3    3    0    0 -0.94877810481E+01  0.93306232128E+01  0.12452840227E+01  0.13365225449E+02  0.51100000000E-03 0. -1.
        -11    1    3    3    0    0 -0.36243913569E+01  0.72205957998E+01 -0.48916084537E+01  0.94446307465E+01  0.51100000000E-03 0.  1.
        -12    1    3    3    0    0 -0.87930917497E+00  0.16984274063E+02  0.21888449299E+02  0.27719000032E+02  0.00000000000E+00 0.  1.
</event>
<event>
 7    1  0.3383281E-011  0.5052886E+02  0.7816164E-02  0.1300439E+00
        -11   -1    0    0    0    0  0.00000000000E+00  0.00000000000E+00  0.45593999997E+02  0.45594000000E+02  0.51100000000E-03 0.  1.
         11   -1    0    0    0    0 -0.00000000000E+00 -0.00000000000E+00 -0.45593999997E+02  0.45594000000E+02  0.51100000000E-03 0. -1.
    9900012    2    1    2    0    0  0.15237577891E+02 -0.31886041265E+02  0.20106269422E+02  0.50528862311E+02  0.30000007481E+02 0.  0.
         12    1    1    2    0    0 -0.15237577891E+02  0.31886041265E+02 -0.20106269422E+02  0.40659137689E+02  0.00000000000E+00 0. -1.
         11    1    3    3    0    0  0.11855150393E+02 -0.27948195003E+02  0.82915721197E+01  0.31470563440E+02  0.51100000000E-03 0. -1.
        -11    1    3    3    0    0  0.41247993813E+00 -0.80446357167E+01  0.24660631137E+01  0.84242371201E+01  0.51100000000E-03 0.  1.
         12    1    3    3    0    0  0.29699475595E+01  0.41067894546E+01  0.93486341884E+01  0.10634061751E+02  0.00000000000E+00 0. -1.
</event>
<event>
 7    1  0.3383281E-011  0.5052886E+02  0.7816164E-02  0.1300439E+00
        -11   -1    0    0    0    0  0.00000000000E+00  0.00000000000E+00  0.45593999997E+02  0.45594000000E+02  0.51100000000E-03 0.  1.
         11   -1    0    0    0    0 -0.00000000000E+00 -0.00000000000E+00 -0.45593999997E+02  0.45594000000E+02  0.51100000000E-03 0. -1.
    9900012    2    1    2    0    0  0.32777249622E+02 -0.12078312655E+02  0.20807020662E+02  0.50528857876E+02  0.29999994001E+02 0.  0.
         12    1    1    2    0    0 -0.32777249622E+02  0.12078312655E+02 -0.20807020662E+02  0.40659142124E+02  0.00000000000E+00 0. -1.
         11    1    3    3    0    0  0.30175882788E+01  0.12600868393E+01  0.38349778154E+00  0.32925261840E+01  0.51100000000E-03 0. -1.
        -11    1    3    3    0    0  0.15855415582E+02 -0.23338168843E+01 -0.45023284592E+01  0.16646677336E+02  0.51100000000E-03 0.  1.
         12    1    3    3    0    0  0.13904245762E+02 -0.11004582610E+02  0.24925851340E+02  0.30589654356E+02  0.00000000000E+00 0. -1.
</event>
<event>
 7    1  0.3383281E-011  0.5052886E+02  0.7816164E-02  0.1300439E+00
        -11   -1    0    0    0    0  0.00000000000E+00  0.00000000000E+00  0.45593999997E+02  0.45594000000E+02  0.51100000000E-03 0.  1.
         11   -1    0    0    0    0 -0.00000000000E+00 -0.00000000000E+00 -0.45593999997E+02  0.45594000000E+02  0.51100000000E-03 0. -1.
    9900012    2    1    2    0    0  0.56592034457E+00  0.11497571827E+02  0.38995532248E+02  0.50528856390E+02  0.29999989484E+02 0.  0.
         12    1    1    2    0    0 -0.56592034457E+00 -0.11497571827E+02 -0.38995532248E+02  0.40659143610E+02  0.00000000000E+00 0. -1.
         11    1    3    3    0    0  0.73522732108E+01  0.41134025374E+01  0.39843727733E+01  0.93194006491E+01  0.51100000000E-03 0. -1.
        -11    1    3    3    0    0  0.35288270607E+01  0.90641421739E+01  0.24619598060E+02  0.26471416711E+02  0.51100000000E-03 0.  1.
         12    1    3    3    0    0 -0.10315179927E+02 -0.16799728841E+01  0.10391561415E+02  0.14738039030E+02  0.00000000000E+00 0. -1.
</event>
<event>
 7    1  0.3383281E-011  0.5052886E+02  0.7816164E-02  0.1300439E+00
        -11   -1    0    0    0    0  0.00000000000E+00  0.00000000000E+00  0.45593999997E+02  0.45594000000E+02  0.51100000000E-03 0. -1.
         11   -1    0    0    0    0 -0.00000000000E+00 -0.00000000000E+00 -0.45593999997E+02  0.45594000000E+02  0.51100000000E-03 0.  1.
    9900012    2    1    2    0    0  0.14231748404E+02 -0.29822540572E+02 -0.23690487627E+02  0.50528858435E+02  0.29999995699E+02 0.  0.
         12    1    1    2    0    0 -0.14231748404E+02  0.29822540572E+02  0.23690487627E+02  0.40659141565E+02  0.00000000000E+00 0. -1.
         11    1    3    3    0    0  0.40630152127E+01 -0.10792551748E+01 -0.93952222217E+01  0.10292865743E+02  0.51100000000E-03 0. -1.
        -11    1    3    3    0    0  0.24423042153E+00 -0.41634332454E+01 -0.13048566094E+02  0.13698864999E+02  0.51100000000E-03 0.  1.
         12    1    3    3    0    0  0.99245027695E+01 -0.24579852152E+02 -0.12466993115E+01  0.26537127693E+02  0.00000000000E+00 0. -1.
</event>
<event>
 7    1  0.3383281E-011  0.5052886E+02  0.7816164E-02  0.1300439E+00
        -11   -1    0    0    0    0  0.00000000000E+00  0.00000000000E+00  0.45593999997E+02  0.45594000000E+02  0.51100000000E-03 0.  1.
         11   -1    0    0    0    0 -0.00000000000E+00 -0.00000000000E+00 -0.45593999997E+02  0.45594000000E+02  0.51100000000E-03 0. -1.
    9900012    2    1    2    0    0  0.29037066997E+02  0.34024159939E+01  0.28256649890E+02  0.50528856411E+02  0.29999989548E+02 0.  0.
         12    1    1    2    0    0 -0.29037066997E+02 -0.34024159939E+01 -0.28256649890E+02  0.40659143589E+02  0.00000000000E+00 0. -1.
         11    1    3    3    0    0  0.17664161069E+01  0.10504997898E+02  0.83611296731E+01  0.13541923659E+02  0.51100000000E-03 0. -1.
        -11    1    3    3    0    0  0.76513979445E+01  0.38355909408E+01  0.72031363634E+01  0.11186635871E+02  0.51100000000E-03 0.  1.
         12    1    3    3    0    0  0.19619252946E+02 -0.10938172845E+02  0.12692383853E+02  0.25800296882E+02  0.00000000000E+00 0. -1.
</event>
<event>
 7    1  0.3383281E-011  0.5052887E+02  0.7816164E-02  0.1300439E+00
        -11   -1    0    0    0    0  0.00000000000E+00  0.00000000000E+00  0.45593999997E+02  0.45594000000E+02  0.51100000000E-03 0. -1.
         11   -1    0    0    0    0 -0.00000000000E+00 -0.00000000000E+00 -0.45593999997E+02  0.45594000000E+02  0.51100000000E-03 0.  1.
    9900012    2    1    2    0    0  0.18296508022E+02 -0.10726462749E+02 -0.34689278433E+02  0.50528865146E+02  0.30000016097E+02 0.  0.
         12    1    1    2    0    0 -0.18296508022E+02  0.10726462749E+02  0.34689278433E+02  0.40659134854E+02  0.00000000000E+00 0. -1.
         11    1    3    3    0    0  0.27777930671E+01 -0.76962030167E+01 -0.63070036800E+01  0.10330826244E+02  0.51100000000E-03 0. -1.
        -11    1    3    3    0    0  0.10900357175E+02  0.90140260488E+01 -0.85132436528E+01  0.16508960291E+02  0.51100000000E-03 0.  1.
         12    1    3    3    0    0  0.46183577806E+01 -0.12044285781E+02 -0.19869031100E+02  0.23689078611E+02  0.00000000000E+00 0. -1.
</event>
<event>
 7    1  0.3383281E-011  0.5052886E+02  0.7816164E-02  0.1300439E+00
        -11   -1    0    0    0    0  0.00000000000E+00  0.00000000000E+00  0.45593999997E+02  0.45594000000E+02  0.51100000000E-03 0.  1.
         11   -1    0    0    0    0 -0.00000000000E+00 -0.00000000000E+00 -0.45593999997E+02  0.45594000000E+02  0.51100000000E-03 0. -1.
    9900012    2    1    2    0    0  0.36114769575E+02 -0.14592551262E+02  0.11659616096E+02  0.50528858576E+02  0.29999996129E+02 0.  0.
         12    1    1    2    0    0 -0.36114769575E+02  0.14592551262E+02 -0.11659616096E+02  0.40659141424E+02  0.00000000000E+00 0. -1.
         11    1    3    3    0    0  0.61561979045E+00 -0.43163907827E+01 -0.22876821413E+01  0.49237898976E+01  0.51100000000E-03 0. -1.
        -11    1    3    3    0    0  0.26752297854E+01  0.58079566259E+01 -0.23136781196E+00  0.63986518813E+01  0.51100000000E-03 0.  1.
        -12    1    3    3    0    0  0.32823919999E+02 -0.16084117105E+02  0.14178666049E+02  0.39206416798E+02  0.00000000000E+00 0.  1.
</event>
<event>
 7    1  0.3383281E-011  0.5052886E+02  0.7816164E-02  0.1300439E+00
        -11   -1    0    0    0    0  0.00000000000E+00  0.00000000000E+00  0.45593999997E+02  0.45594000000E+02  0.51100000000E-03 0.  1.
         11   -1    0    0    0    0 -0.00000000000E+00 -0.00000000000E+00 -0.45593999997E+02  0.45594000000E+02  0.51100000000E-03 0. -1.
    9900012    2    1    2    0    0 -0.29922634062E+02 -0.24206285338E+02  0.13109449650E+02  0.50528856512E+02  0.29999989853E+02 0.  0.
         12    1    1    2    0    0  0.29922634062E+02  0.24206285338E+02 -0.13109449650E+02  0.40659143488E+02  0.00000000000E+00 0. -1.
         11    1    3    3    0    0 -0.20442739510E+02 -0.10155162550E+02  0.92063596718E+01  0.24612801217E+02  0.51100000000E-03 0. -1.
        -11    1    3    3    0    0 -0.80220466455E+01 -0.63277608876E+01 -0.70653430993E+01  0.12422272884E+02  0.51100000000E-03 0.  1.
         12    1    3    3    0    0 -0.14578479061E+01 -0.77233619012E+01  0.10968433077E+02  0.13493782410E+02  0.00000000000E+00 0. -1.
</event>
<event>
 7    1  0.3383281E-011  0.5052887E+02  0.7816164E-02  0.1300439E+00
        -11   -1    0    0    0    0  0.00000000000E+00  0.00000000000E+00  0.45593999997E+02  0.45594000000E+02  0.51100000000E-03 0.  1.
         11   -1    0    0    0    0 -0.00000000000E+00 -0.00000000000E+00 -0.45593999997E+02  0.45594000000E+02  0.51100000000E-03 0. -1.
    9900012    2    1    2    0    0 -0.98729799989E+01 -0.11524510413E+02  0.37721013784E+02  0.50528868735E+02  0.30000027008E+02 0.  0.
         12    1    1    2    0    0  0.98729799989E+01  0.11524510413E+02 -0.37721013784E+02  0.40659131265E+02  0.00000000000E+00 0. -1.
         11    1    3    3    0    0 -0.36698936284E+01  0.51755452364E+01  0.75675182511E+01  0.98753086271E+01  0.51100000000E-03 0. -1.
        -11    1    3    3    0    0 -0.13743666135E+02 -0.89291057997E+01  0.19340531938E+02  0.25351005209E+02  0.51100000000E-03 0.  1.
         12    1    3    3    0    0  0.75405797642E+01 -0.77709498497E+01  0.10812963595E+02  0.15302554899E+02  0.00000000000E+00 0. -1.
</event>
<event>
 7    1  0.3383281E-011  0.5052883E+02  0.7816164E-02  0.1300439E+00
        -11   -1    0    0    0    0  0.00000000000E+00  0.00000000000E+00  0.45593999997E+02  0.45594000000E+02  0.51100000000E-03 0. -1.
         11   -1    0    0    0    0 -0.00000000000E+00 -0.00000000000E+00 -0.45593999997E+02  0.45594000000E+02  0.51100000000E-03 0.  1.
    9900012    2    1    2    0    0  0.93097752715E+01  0.34572642037E+02 -0.19267288834E+02  0.50528832374E+02  0.29999916483E+02 0.  0.
         12    1    1    2    0    0 -0.93097752715E+01 -0.34572642037E+02  0.19267288834E+02  0.40659167626E+02  0.00000000000E+00 0. -1.
         11    1    3    3    0    0  0.32385678526E+00  0.20430500349E+02 -0.17644230968E+02  0.26996835267E+02  0.51100000000E-03 0. -1.
        -11    1    3    3    0    0  0.87001557488E+01  0.17417854894E+02  0.73824490806E+00  0.19483823674E+02  0.51100000000E-03 0.  1.
         12    1    3    3    0    0  0.28576273742E+00 -0.32757132057E+01 -0.23613027749E+01  0.40481734329E+01  0.00000000000E+00 0. -1.
</event>
<event>
 7    1  0.3383281E-011  0.5052888E+02  0.7816164E-02  0.1300439E+00
        -11   -1    0    0    0    0  0.00000000000E+00  0.00000000000E+00  0.45593999997E+02  0.45594000000E+02  0.51100000000E-03 0.  1.
         11   -1    0    0    0    0 -0.00000000000E+00 -0.00000000000E+00 -0.45593999997E+02  0.45594000000E+02  0.51100000000E-03 0. -1.
    9900012    2    1    2    0    0  0.18613252721E+02 -0.50102194915E+01  0.35799566113E+02  0.50528875439E+02  0.30000047384E+02 0.  0.
         12    1    1    2    0    0 -0.18613252721E+02  0.50102194915E+01 -0.35799566113E+02  0.40659124561E+02  0.00000000000E+00 0. -1.
         11    1    3    3    0    0  0.16080531437E+02 -0.72797177830E+01  0.48659343510E+01  0.18309972683E+02  0.51100000000E-03 0. -1.
        -11    1    3    3    0    0  0.22308130079E+01 -0.27253729310E+01  0.18193999878E+02  0.18531751566E+02  0.51100000000E-03 0.  1.
        -12    1    3    3    0    0  0.30190827628E+00  0.49948712225E+01  0.12739631884E+02  0.13687151189E+02  0.00000000000E+00 0.  1.
</event>
<event>
 7    1  0.3383281E-011  0.5052885E+02  0.7816164E-02  0.1300439E+00
        -11   -1    0    0    0    0  0.00000000000E+00  0.00000000000E+00  0.45593999997E+02  0.45594000000E+02  0.51100000000E-03 0. -1.
         11   -1    0    0    0    0 -0.00000000000E+00 -0.00000000000E+00 -0.45593999997E+02  0.45594000000E+02  0.51100000000E-03 0.  1.
    9900012    2    1    2    0    0 -0.35950137137E+02 -0.11082366019E+02 -0.15425156646E+02  0.50528847840E+02  0.29999963496E+02 0.  0.
         12    1    1    2    0    0  0.35950137137E+02  0.11082366019E+02  0.15425156646E+02  0.40659152160E+02  0.00000000000E+00 0. -1.
         11    1    3    3    0    0 -0.54909687939E+01 -0.21910806877E+01 -0.34816738590E+01  0.68610222268E+01  0.51100000000E-03 0. -1.
        -11    1    3    3    0    0 -0.26259549912E+02  0.27205535388E+01 -0.15756410070E+02  0.30744590284E+02  0.51100000000E-03 0.  1.
         12    1    3    3    0    0 -0.41996184316E+01 -0.11611838871E+02  0.38129272837E+01  0.12923235330E+02  0.00000000000E+00 0. -1.
</event>
<event>
 7    1  0.3383281E-011  0.5052886E+02  0.7816164E-02  0.1300439E+00
        -11   -1    0    0    0    0  0.00000000000E+00  0.00000000000E+00  0.45593999997E+02  0.45594000000E+02  0.51100000000E-03 0. -1.
         11   -1    0    0    0    0 -0.00000000000E+00 -0.00000000000E+00 -0.45593999997E+02  0.45594000000E+02  0.51100000000E-03 0.  1.
    9900012    2    1    2    0    0 -0.12000564807E+02  0.38232139129E+02  0.68888024851E+01  0.50528860588E+02  0.30000002244E+02 0.  0.
         12    1    1    2    0    0  0.12000564807E+02 -0.38232139129E+02 -0.68888024851E+01  0.40659139412E+02  0.00000000000E+00 0. -1.
         11    1    3    3    0    0 -0.10753512523E+01  0.33625502016E+00  0.14481135036E+01  0.18347971918E+01  0.51100000000E-03 0. -1.
        -11    1    3    3    0    0 -0.11367083857E+02  0.17789129475E+02  0.15516426109E+02  0.26199679432E+02  0.51100000000E-03 0.  1.
         12    1    3    3    0    0  0.44187030249E+00  0.20106754634E+02 -0.10075737128E+02  0.22494383964E+02  0.00000000000E+00 0. -1.
</event>
<event>
 7    1  0.3383281E-011  0.5052886E+02  0.7816164E-02  0.1300439E+00
        -11   -1    0    0    0    0  0.00000000000E+00  0.00000000000E+00  0.45593999997E+02  0.45594000000E+02  0.51100000000E-03 0.  1.
         11   -1    0    0    0    0 -0.00000000000E+00 -0.00000000000E+00 -0.45593999997E+02  0.45594000000E+02  0.51100000000E-03 0. -1.
    9900012    2    1    2    0    0 -0.14980051686E+02 -0.33105188617E+02  0.18243094822E+02  0.50528856249E+02  0.29999989054E+02 0.  0.
         12    1    1    2    0    0  0.14980051686E+02  0.33105188617E+02 -0.18243094822E+02  0.40659143751E+02  0.00000000000E+00 0. -1.
         11    1    3    3    0    0 -0.42427222666E+01  0.89481018230E+00 -0.31551256684E+01  0.53624803718E+01  0.51100000000E-03 0.  1.
        -11    1    3    3    0    0 -0.70837270236E+01 -0.17536302103E+01  0.45645220082E+01  0.86075123516E+01  0.51100000000E-03 0. -1.
        -12    1    3    3    0    0 -0.36536023958E+01 -0.32246368589E+02  0.16833698482E+02  0.36558863525E+02  0.00000000000E+00 0.  1.
</event>
<event>
 7    1  0.3383281E-011  0.5052886E+02  0.7816164E-02  0.1300439E+00
        -11   -1    0    0    0    0  0.00000000000E+00  0.00000000000E+00  0.45593999997E+02  0.45594000000E+02  0.51100000000E-03 0.  1.
         11   -1    0    0    0    0 -0.00000000000E+00 -0.00000000000E+00 -0.45593999997E+02  0.45594000000E+02  0.51100000000E-03 0. -1.
    9900012    2    1    2    0    0 -0.28722518823E+02  0.28099849949E+02  0.62113415853E+01  0.50528863032E+02  0.30000009671E+02 0.  0.
         12    1    1    2    0    0  0.28722518823E+02 -0.28099849949E+02 -0.62113415853E+01  0.40659136968E+02  0.00000000000E+00 0. -1.
         11    1    3    3    0    0  0.51893628696E+00  0.17221819234E+01  0.47839839509E+01  0.51109400457E+01  0.51100000000E-03 0. -1.
        -11    1    3    3    0    0 -0.17486673196E+01  0.68528322348E+01  0.84033225811E+01  0.10983395545E+02  0.51100000000E-03 0.  1.
        -12    1    3    3    0    0 -0.27492787791E+02  0.19524835791E+02 -0.69759649468E+01  0.34434527441E+02  0.00000000000E+00 0.  1.
</event>
<event>
 7    1  0.3383281E-011  0.5052880E+02  0.7816164E-02  0.1300439E+00
        -11   -1    0    0    0    0  0.00000000000E+00  0.00000000000E+00  0.45593999997E+02  0.45594000000E+02  0.51100000000E-03 0.  1.
         11   -1    0    0    0    0 -0.00000000000E+00 -0.00000000000E+00 -0.45593999997E+02  0.45594000000E+02  0.51100000000E-03 0. -1.
    9900012    2    1    2    0    0  0.28030713650E+02 -0.26743916272E+02  0.12337435329E+02  0.50528803306E+02  0.29999828129E+02 0.  0.
         12    1    1    2    0    0 -0.28030713650E+02  0.26743916272E+02 -0.12337435329E+02  0.40659196694E+02  0.00000000000E+00 0. -1.
         11    1    3    3    0    0  0.66623644415E+01  0.45223373731E+01 -0.28256422487E+01  0.85336328516E+01  0.51100000000E-03 0. -1.
        -11    1    3    3    0    0  0.12832239272E+02 -0.10210873470E+02  0.53858431243E+01  0.17260811342E+02  0.51100000000E-03 0.  1.
        -12    1    3    3    0    0  0.85361099365E+01 -0.21055380175E+02  0.97772344536E+01  0.24734359113E+02  0.00000000000E+00 0.  1.
</event>
<event>
 7    1  0.3383281E-011  0.5052884E+02  0.7816164E-02  0.1300439E+00
        -11   -1    0    0    0    0  0.00000000000E+00  0.00000000000E+00  0.45593999997E+02  0.45594000000E+02  0.51100000000E-03 0.  1.
         11   -1    0    0    0    0 -0.00000000000E+00 -0.00000000000E+00 -0.45593999997E+02  0.45594000000E+02  0.51100000000E-03 0. -1.
    9900012    2    1    2    0    0 -0.20263267411E+02 -0.24120165279E+02  0.25705739977E+02  0.50528838092E+02  0.29999933866E+02 0.  0.
         12    1    1    2    0    0  0.20263267411E+02  0.24120165279E+02 -0.25705739977E+02  0.40659161908E+02  0.00000000000E+00 0. -1.
         11    1    3    3    0    0 -0.30675680538E+01 -0.87673290340E+01  0.10772591712E+02  0.14224090994E+02  0.51100000000E-03 0. -1.
        -11    1    3    3    0    0 -0.79344143267E+01 -0.90712573799E+01  0.20519782257E+02  0.23797144898E+02  0.51100000000E-03 0.  1.
         12    1    3    3    0    0 -0.92612850309E+01 -0.62815788650E+01 -0.55866339914E+01  0.12507602201E+02  0.00000000000E+00 0. -1.
</event>
<event>
 7    1  0.3383281E-011  0.5052886E+02  0.7816164E-02  0.1300439E+00
        -11   -1    0    0    0    0  0.00000000000E+00  0.00000000000E+00  0.45593999997E+02  0.45594000000E+02  0.51100000000E-03 0.  1.
         11   -1    0    0    0    0 -0.00000000000E+00 -0.00000000000E+00 -0.45593999997E+02  0.45594000000E+02  0.51100000000E-03 0. -1.
    9900012    2    1    2    0    0  0.38305710342E+02 -0.66948670895E+01  0.11875064738E+02  0.50528857698E+02  0.29999993459E+02 0.  0.
         12    1    1    2    0    0 -0.38305710342E+02  0.66948670895E+01 -0.11875064738E+02  0.40659142302E+02  0.00000000000E+00 0. -1.
         11    1    3    3    0    0  0.10663240057E+02 -0.21685213108E+00 -0.28298744579E+00  0.10669198447E+02  0.51100000000E-03 0. -1.
        -11    1    3    3    0    0  0.13278963191E+02 -0.29679859443E+01 -0.72841230765E+01  0.15433672708E+02  0.51100000000E-03 0.  1.
        -12    1    3    3    0    0  0.14363507094E+02 -0.35100290140E+01  0.19442175260E+02  0.24425986543E+02  0.00000000000E+00 0.  1.
</event>
<event>
 7    1  0.3383281E-011  0.5052886E+02  0.7816164E-02  0.1300439E+00
        -11   -1    0    0    0    0  0.00000000000E+00  0.00000000000E+00  0.45593999997E+02  0.45594000000E+02  0.51100000000E-03 0. -1.
         11   -1    0    0    0    0 -0.00000000000E+00 -0.00000000000E+00 -0.45593999997E+02  0.45594000000E+02  0.51100000000E-03 0.  1.
    9900012    2    1    2    0    0  0.80195692243E+01 -0.39417330660E+02 -0.59267148923E+01  0.50528863311E+02  0.30000010520E+02 0.  0.
         12    1    1    2    0    0 -0.80195692243E+01  0.39417330660E+02  0.59267148923E+01  0.40659136689E+02  0.00000000000E+00 0. -1.
         11    1    3    3    0    0  0.33612640084E+01 -0.80162724906E+01 -0.27409517417E+01  0.91143588413E+01  0.51100000000E-03 0. -1.
        -11    1    3    3    0    0  0.26501054756E+01 -0.16144457180E+02 -0.14857951672E+02  0.22100345808E+02  0.51100000000E-03 0.  1.
         12    1    3    3    0    0  0.20081997403E+01 -0.15256600989E+02  0.11672188521E+02  0.19314158662E+02  0.00000000000E+00 0. -1.
</event>
<event>
 7    1  0.3383281E-011  0.5052886E+02  0.7816164E-02  0.1300439E+00
        -11   -1    0    0    0    0  0.00000000000E+00  0.00000000000E+00  0.45593999997E+02  0.45594000000E+02  0.51100000000E-03 0.  1.
         11   -1    0    0    0    0 -0.00000000000E+00 -0.00000000000E+00 -0.45593999997E+02  0.45594000000E+02  0.51100000000E-03 0. -1.
    9900012    2    1    2    0    0 -0.12328176216E+02 -0.10313708106E+02  0.37347141171E+02  0.50528862560E+02  0.30000008239E+02 0.  0.
         12    1    1    2    0    0  0.12328176216E+02  0.10313708106E+02 -0.37347141171E+02  0.40659137440E+02  0.00000000000E+00 0. -1.
         11    1    3    3    0    0  0.12251535353E+00 -0.54574236871E+01  0.15380731773E+02  0.16320704440E+02  0.51100000000E-03 0. -1.
        -11    1    3    3    0    0 -0.12829078692E+02 -0.87439976382E+01  0.24885798697E+02  0.29331650684E+02  0.51100000000E-03 0.  1.
         12    1    3    3    0    0  0.37838712220E+00  0.38877132195E+01 -0.29193892993E+01  0.48765074359E+01  0.00000000000E+00 0. -1.
</event>
<event>
 7    1  0.3383281E-011  0.5052886E+02  0.7816164E-02  0.1300439E+00
        -11   -1    0    0    0    0  0.00000000000E+00  0.00000000000E+00  0.45593999997E+02  0.45594000000E+02  0.51100000000E-03 0.  1.
         11   -1    0    0    0    0 -0.00000000000E+00 -0.00000000000E+00 -0.45593999997E+02  0.45594000000E+02  0.51100000000E-03 0. -1.
    9900012    2    1    2    0    0 -0.24100745858E+02  0.64894208778E+01  0.32096844713E+02  0.50528856197E+02  0.29999988896E+02 0.  0.
         12    1    1    2    0    0  0.24100745858E+02 -0.64894208778E+01 -0.32096844713E+02  0.40659143803E+02  0.00000000000E+00 0. -1.
         11    1    3    3    0    0 -0.70557984814E+01  0.14815697065E+02  0.17757089379E+02  0.24178573060E+02  0.51100000000E-03 0. -1.
        -11    1    3    3    0    0 -0.88734094437E+01  0.42841575688E+00  0.10543615884E+02  0.13787268453E+02  0.51100000000E-03 0.  1.
         12    1    3    3    0    0 -0.81715379332E+01 -0.87546919440E+01  0.37961394497E+01  0.12563014684E+02  0.00000000000E+00 0. -1.
</event>
<event>
 7    1  0.3383281E-011  0.5052887E+02  0.7816164E-02  0.1300439E+00
        -11   -1    0    0    0    0  0.00000000000E+00  0.00000000000E+00  0.45593999997E+02  0.45594000000E+02  0.51100000000E-03 0.  1.
         11   -1    0    0    0    0 -0.00000000000E+00 -0.00000000000E+00 -0.45593999997E+02  0.45594000000E+02  0.51100000000E-03 0. -1.
    9900012    2    1    2    0    0 -0.57007017552E+00  0.33963740786E+02  0.22345115740E+02  0.50528869837E+02  0.30000030357E+02 0.  0.
         12    1    1    2    0    0  0.57007017552E+00 -0.33963740786E+02 -0.22345115740E+02  0.40659130163E+02  0.00000000000E+00 0. -1.
         11    1    3    3    0    0  0.46269289226E+01 -0.18722495366E+01  0.70938673403E+01  0.86739116715E+01  0.51100000000E-03 0. -1.
        -11    1    3    3    0    0  0.42395584618E+01  0.45317384039E+01  0.34118109652E+01  0.70817344794E+01  0.51100000000E-03 0.  1.
        -12    1    3    3    0    0 -0.94365575600E+01  0.31304251918E+02  0.11839437435E+02  0.34773223686E+02  0.00000000000E+00 0.  1.
</event>
<event>
 7    1  0.3383281E-011  0.5052889E+02  0.7816164E-02  0.1300439E+00
        -11   -1    0    0    0    0  0.00000000000E+00  0.00000000000E+00  0.45593999997E+02  0.45594000000E+02  0.51100000000E-03 0.  1.
         11   -1    0    0    0    0 -0.00000000000E+00 -0.00000000000E+00 -0.45593999997E+02  0.45594000000E+02  0.51100000000E-03 0. -1.
    9900012    2    1    2    0    0 -0.18971892599E+02 -0.24917998619E+02  0.25929207078E+02  0.50528891013E+02  0.30000094723E+02 0.  0.
         12    1    1    2    0    0  0.18971892599E+02  0.24917998619E+02 -0.25929207078E+02  0.40659108987E+02  0.00000000000E+00 0. -1.
         11    1    3    3    0    0 -0.59876498409E+01 -0.59665595269E+01  0.23879948573E+01  0.87837522110E+01  0.51100000000E-03 0.  1.
        -11    1    3    3    0    0 -0.11042637812E+02  0.25774958552E+00 -0.32109399554E+00  0.11050311593E+02  0.51100000000E-03 0. -1.
         12    1    3    3    0    0 -0.19416049455E+01 -0.19209188678E+02  0.23862306216E+02  0.30694827208E+02  0.00000000000E+00 0. -1.
</event>
<event>
 7    1  0.3383281E-011  0.5052886E+02  0.7816164E-02  0.1300439E+00
        -11   -1    0    0    0    0  0.00000000000E+00  0.00000000000E+00  0.45593999997E+02  0.45594000000E+02  0.51100000000E-03 0.  1.
         11   -1    0    0    0    0 -0.00000000000E+00 -0.00000000000E+00 -0.45593999997E+02  0.45594000000E+02  0.51100000000E-03 0. -1.
    9900012    2    1    2    0    0 -0.39305241974E+02  0.10394179283E+02 -0.47380981738E+00  0.50528861970E+02  0.30000006444E+02 0.  0.
         12    1    1    2    0    0  0.39305241974E+02 -0.10394179283E+02  0.47380981738E+00  0.40659138030E+02  0.00000000000E+00 0. -1.
         11    1    3    3    0    0 -0.11843924683E+02 -0.42905911380E+01 -0.93815611346E+01  0.15706731480E+02  0.51100000000E-03 0. -1.
        -11    1    3    3    0    0 -0.33668875682E+01  0.20830433531E+01  0.63870863512E+01  0.75146439588E+01  0.51100000000E-03 0.  1.
        -12    1    3    3    0    0 -0.24094429723E+02  0.12601727068E+02  0.25206649661E+01  0.27307486531E+02  0.00000000000E+00 0.  1.
</event>
<event>
 7    1  0.3383281E-011  0.5052886E+02  0.7816164E-02  0.1300439E+00
        -11   -1    0    0    0    0  0.00000000000E+00  0.00000000000E+00  0.45593999997E+02  0.45594000000E+02  0.51100000000E-03 0. -1.
         11   -1    0    0    0    0 -0.00000000000E+00 -0.00000000000E+00 -0.45593999997E+02  0.45594000000E+02  0.51100000000E-03 0.  1.
    9900012    2    1    2    0    0  0.20321706407E+02  0.29376146601E+02 -0.19422552401E+02  0.50528864714E+02  0.30000014785E+02 0.  0.
         12    1    1    2    0    0 -0.20321706407E+02 -0.29376146601E+02  0.19422552401E+02  0.40659135286E+02  0.00000000000E+00 0. -1.
         11    1    3    3    0    0  0.47257631535E+01  0.17446981339E+02 -0.25082515775E+01  0.18248871786E+02  0.51100000000E-03 0. -1.
        -11    1    3    3    0    0 -0.21344488757E+01  0.59985668326E+01 -0.10930698182E+02  0.12649855298E+02  0.51100000000E-03 0.  1.
        -12    1    3    3    0    0  0.17730392129E+02  0.59305984294E+01 -0.59836026407E+01  0.19630137629E+02  0.00000000000E+00 0.  1.
</event>
<event>
 7    1  0.3383281E-011  0.5052882E+02  0.7816164E-02  0.1300439E+00
        -11   -1    0    0    0    0  0.00000000000E+00  0.00000000000E+00  0.45593999997E+02  0.45594000000E+02  0.51100000000E-03 0.  1.
         11   -1    0    0    0    0 -0.00000000000E+00 -0.00000000000E+00 -0.45593999997E+02  0.45594000000E+02  0.51100000000E-03 0. -1.
    9900012    2    1    2    0    0 -0.26815384567E+01  0.17834313100E+02  0.36440572573E+02  0.50528822664E+02  0.29999886968E+02 0.  0.
         12    1    1    2    0    0  0.26815384567E+01 -0.17834313100E+02 -0.36440572573E+02  0.40659177336E+02  0.00000000000E+00 0. -1.
         11    1    3    3    0    0  0.90622275234E+01  0.14092173366E+02  0.26671497278E+02  0.31497334573E+02  0.51100000000E-03 0. -1.
        -11    1    3    3    0    0  0.12173240684E+00  0.34010946474E+01  0.53992032248E+01  0.63822926369E+01  0.51100000000E-03 0.  1.
        -12    1    3    3    0    0 -0.11865498387E+02  0.34104508629E+00  0.43698720697E+01  0.12649195454E+02  0.00000000000E+00 0.  1.
</event>
<event>
 7    1  0.3383281E-011  0.5052890E+02  0.7816164E-02  0.1300439E+00
        -11   -1    0    0    0    0  0.00000000000E+00  0.00000000000E+00  0.45593999997E+02  0.45594000000E+02  0.51100000000E-03 0. -1.
         11   -1    0    0    0    0 -0.00000000000E+00 -0.00000000000E+00 -0.45593999997E+02  0.45594000000E+02  0.51100000000E-03 0.  1.
    9900012    2    1    2    0    0 -0.10348173775E+02  0.38006639771E+02  0.10078326001E+02  0.50528904804E+02  0.30000136643E+02 0.  0.
         12    1    1    2    0    0  0.10348173775E+02 -0.38006639771E+02 -0.10078326001E+02  0.40659095196E+02  0.00000000000E+00 0. -1.
         11    1    3    3    0    0 -0.84579048843E+01  0.90195875209E+01  0.59168402752E+01  0.13707593267E+02  0.51100000000E-03 0. -1.
        -11    1    3    3    0    0 -0.39994955242E+01  0.24959083576E+02  0.11827969017E+02  0.27907932004E+02  0.51100000000E-03 0.  1.
        -12    1    3    3    0    0  0.21092266336E+01  0.40279686737E+01 -0.76664832917E+01  0.89133795325E+01  0.00000000000E+00 0.  1.
</event>
<event>
 7    1  0.3383281E-011  0.5052885E+02  0.7816164E-02  0.1300439E+00
        -11   -1    0    0    0    0  0.00000000000E+00  0.00000000000E+00  0.45593999997E+02  0.45594000000E+02  0.51100000000E-03 0.  1.
         11   -1    0    0    0    0 -0.00000000000E+00 -0.00000000000E+00 -0.45593999997E+02  0.45594000000E+02  0.51100000000E-03 0. -1.
    9900012    2    1    2    0    0 -0.39775475768E+01  0.16753603255E+02  0.36832894036E+02  0.50528853553E+02  0.29999980859E+02 0.  0.
         12    1    1    2    0    0  0.39775475768E+01 -0.16753603255E+02 -0.36832894036E+02  0.40659146447E+02  0.00000000000E+00 0. -1.
         11    1    3    3    0    0 -0.38874808137E+01  0.10779116340E+01  0.35253629966E+00  0.40495286974E+01  0.51100000000E-03 0. -1.
        -11    1    3    3    0    0 -0.11002850394E+02  0.12612670132E+02  0.16470925352E+02  0.23482622232E+02  0.51100000000E-03 0.  1.
         12    1    3    3    0    0  0.10912783631E+02  0.30630214887E+01  0.20009432384E+02  0.22996702623E+02  0.00000000000E+00 0. -1.
</event>
<event>
 7    1  0.3383281E-011  0.5052888E+02  0.7816164E-02  0.1300439E+00
        -11   -1    0    0    0    0  0.00000000000E+00  0.00000000000E+00  0.45593999997E+02  0.45594000000E+02  0.51100000000E-03 0. -1.
         11   -1    0    0    0    0 -0.00000000000E+00 -0.00000000000E+00 -0.45593999997E+02  0.45594000000E+02  0.51100000000E-03 0.  1.
    9900012    2    1    2    0    0  0.28511595796E+02 -0.23730348861E+02 -0.16647036803E+02  0.50528875733E+02  0.30000048277E+02 0.  0.
         12    1    1    2    0    0 -0.28511595796E+02  0.23730348861E+02  0.16647036803E+02  0.40659124267E+02  0.00000000000E+00 0. -1.
         11    1    3    3    0    0  0.26134346365E+02 -0.14238681962E+02 -0.10159212333E+02  0.31447634560E+02  0.51100000000E-03 0. -1.
        -11    1    3    3    0    0  0.33282690851E+01 -0.90820834192E+01  0.25348422382E+01  0.99993519675E+01  0.51100000000E-03 0.  1.
        -12    1    3    3    0    0 -0.95101965396E+00 -0.40958347899E+00 -0.90226667084E+01  0.90818892054E+01  0.00000000000E+00 0.  1.
</event>
<event>
 7    1  0.3383281E-011  0.5052882E+02  0.7816164E-02  0.1300439E+00
        -11   -1    0    0    0    0  0.00000000000E+00  0.00000000000E+00  0.45593999997E+02  0.45594000000E+02  0.51100000000E-03 0.  1.
         11   -1    0    0    0    0 -0.00000000000E+00 -0.00000000000E+00 -0.45593999997E+02  0.45594000000E+02  0.51100000000E-03 0. -1.
    9900012    2    1    2    0    0  0.48199041086E+01  0.16777499601E+02  0.36721286697E+02  0.50528820653E+02  0.29999880857E+02 0.  0.
         12    1    1    2    0    0 -0.48199041086E+01 -0.16777499601E+02 -0.36721286697E+02  0.40659179347E+02  0.00000000000E+00 0. -1.
         11    1    3    3    0    0 -0.70221419420E+00  0.62534876445E+01  0.27681442424E+02  0.28387699227E+02  0.51100000000E-03 0. -1.
        -11    1    3    3    0    0  0.12169291944E+01 -0.22618758861E+01  0.82346006753E+01  0.86258708390E+01  0.51100000000E-03 0.  1.
         12    1    3    3    0    0  0.43051891085E+01  0.12785887842E+02  0.80524359776E+00  0.13515250587E+02  0.00000000000E+00 0. -1.
</event>
<event>
 7    1  0.3383281E-011  0.5052886E+02  0.7816164E-02  0.1300439E+00
        -11   -1    0    0    0    0  0.00000000000E+00  0.00000000000E+00  0.45593999997E+02  0.45594000000E+02  0.51100000000E-03 0. -1.
         11   -1    0    0    0    0 -0.00000000000E+00 -0.00000000000E+00 -0.45593999997E+02  0.45594000000E+02  0.51100000000E-03 0.  1.
    9900012    2    1    2    0    0  0.15687660416E+02 -0.19589181009E+02 -0.31989483927E+02  0.50528858545E+02  0.29999996035E+02 0.  0.
         12    1    1    2    0    0 -0.15687660416E+02  0.19589181009E+02  0.31989483927E+02  0.40659141455E+02  0.00000000000E+00 0. -1.
         11    1    3    3    0    0 -0.57692342480E+00  0.10420130333E+01 -0.20282959642E+01  0.23521514788E+01  0.51100000000E-03 0. -1.
        -11    1    3    3    0    0 -0.47533226433E+01 -0.15288899735E+02 -0.11780008086E+02  0.19877452604E+02  0.51100000000E-03 0.  1.
         12    1    3    3    0    0  0.21017906484E+02 -0.53422943075E+01 -0.18181179876E+02  0.28299254463E+02  0.00000000000E+00 0. -1.
</event>
<event>
 7    1  0.3383281E-011  0.5052886E+02  0.7816164E-02  0.1300439E+00
        -11   -1    0    0    0    0  0.00000000000E+00  0.00000000000E+00  0.45593999997E+02  0.45594000000E+02  0.51100000000E-03 0. -1.
         11   -1    0    0    0    0 -0.00000000000E+00 -0.00000000000E+00 -0.45593999997E+02  0.45594000000E+02  0.51100000000E-03 0.  1.
    9900012    2    1    2    0    0 -0.37454092859E+02 -0.27319178584E+01 -0.15585022066E+02  0.50528863759E+02  0.30000011882E+02 0.  0.
         12    1    1    2    0    0  0.37454092859E+02  0.27319178584E+01  0.15585022066E+02  0.40659136241E+02  0.00000000000E+00 0. -1.
         11    1    3    3    0    0 -0.19003448941E+02 -0.10650046791E+02 -0.59096302859E+01  0.22571625965E+02  0.51100000000E-03 0. -1.
        -11    1    3    3    0    0 -0.12242601988E+02  0.27574294857E+01 -0.13998132428E+02  0.18799798737E+02  0.51100000000E-03 0.  1.
        -12    1    3    3    0    0 -0.62080419300E+01  0.51606994470E+01  0.43227406480E+01  0.91574390578E+01  0.00000000000E+00 0.  1.
</event>
<event>
 7    1  0.3383281E-011  0.5052886E+02  0.7816164E-02  0.1300439E+00
        -11   -1    0    0    0    0  0.00000000000E+00  0.00000000000E+00  0.45593999997E+02  0.45594000000E+02  0.51100000000E-03 0.  1.
         11   -1    0    0    0    0 -0.00000000000E+00 -0.00000000000E+00 -0.45593999997E+02  0.45594000000E+02  0.51100000000E-03 0. -1.
    9900012    2    1    2    0    0 -0.10940217087E+01 -0.89370594173E+01  0.39649689162E+02  0.50528858775E+02  0.29999996732E+02 0.  0.
         12    1    1    2    0    0  0.10940217087E+01  0.89370594173E+01 -0.39649689162E+02  0.40659141225E+02  0.00000000000E+00 0. -1.
         11    1    3    3    0    0 -0.77766746595E+01 -0.48558138544E+01  0.14248369619E+02  0.16943188425E+02  0.51100000000E-03 0. -1.
        -11    1    3    3    0    0 -0.20253129372E+01 -0.72218229025E+00  0.24060598445E+02  0.24156486449E+02  0.51100000000E-03 0.  1.
         12    1    3    3    0    0  0.87079658880E+01 -0.33590632726E+01  0.13407210982E+01  0.94291839010E+01  0.00000000000E+00 0. -1.
</event>
<event>
 7    1  0.3383281E-011  0.5052886E+02  0.7816164E-02  0.1300439E+00
        -11   -1    0    0    0    0  0.00000000000E+00  0.00000000000E+00  0.45593999997E+02  0.45594000000E+02  0.51100000000E-03 0. -1.
         11   -1    0    0    0    0 -0.00000000000E+00 -0.00000000000E+00 -0.45593999997E+02  0.45594000000E+02  0.51100000000E-03 0.  1.
    9900012    2    1    2    0    0  0.17564858180E+02 -0.28450986607E+01 -0.36558815686E+02  0.50528857933E+02  0.29999994172E+02 0.  0.
         12    1    1    2    0    0 -0.17564858180E+02  0.28450986607E+01  0.36558815686E+02  0.40659142067E+02  0.00000000000E+00 0. -1.
         11    1    3    3    0    0 -0.63882567778E+00 -0.64405060489E+01 -0.78087982896E+01  0.10142265398E+02  0.51100000000E-03 0. -1.
        -11    1    3    3    0    0  0.56518692049E+01 -0.45146675579E+01 -0.23434357803E+02  0.24525394483E+02  0.51100000000E-03 0.  1.
        -12    1    3    3    0    0  0.12551814653E+02  0.81100749461E+01 -0.53156595940E+01  0.15861198052E+02  0.00000000000E+00 0.  1.
</event>
<event>
 7    1  0.3383281E-011  0.5052887E+02  0.7816164E-02  0.1300439E+00
        -11   -1    0    0    0    0  0.00000000000E+00  0.00000000000E+00  0.45593999997E+02  0.45594000000E+02  0.51100000000E-03 0.  1.
         11   -1    0    0    0    0 -0.00000000000E+00 -0.00000000000E+00 -0.45593999997E+02  0.45594000000E+02  0.51100000000E-03 0. -1.
    9900012    2    1    2    0    0 -0.14375374144E+02 -0.27180880758E+02  0.26602871923E+02  0.50528874885E+02  0.30000045702E+02 0.  0.
         12    1    1    2    0    0  0.14375374144E+02  0.27180880758E+02 -0.26602871923E+02  0.40659125115E+02  0.00000000000E+00 0. -1.
         11    1    3    3    0    0 -0.44449879237E+01  0.69428520118E+00 -0.16791205382E+01  0.48020199526E+01  0.51100000000E-03 0. -1.
        -11    1    3    3    0    0 -0.11802764838E+02 -0.18072466213E+02  0.78150049630E+01  0.22956341078E+02  0.51100000000E-03 0.  1.
         12    1    3    3    0    0  0.18723786172E+01 -0.98026997456E+01  0.20466987498E+02  0.22770513855E+02  0.00000000000E+00 0. -1.
</event>
<event>
 7    1  0.3383281E-011  0.5052890E+02  0.7816164E-02  0.1300439E+00
        -11   -1    0    0    0    0  0.00000000000E+00  0.00000000000E+00  0.45593999997E+02  0.45594000000E+02  0.51100000000E-03 0.  1.
         11   -1    0    0    0    0 -0.00000000000E+00 -0.00000000000E+00 -0.45593999997E+02  0.45594000000E+02  0.51100000000E-03 0. -1.
    9900012    2    1    2    0    0  0.11537276246E+02  0.25814502514E+02  0.29217551624E+02  0.50528897623E+02  0.30000114815E+02 0.  0.
         12    1    1    2    0    0 -0.11537276246E+02 -0.25814502514E+02 -0.29217551624E+02  0.40659102377E+02  0.00000000000E+00 0. -1.
         11    1    3    3    0    0 -0.28017341514E+01  0.99189104466E+01  0.56797946018E+01  0.11768371412E+02  0.51100000000E-03 0. -1.
        -11    1    3    3    0    0 -0.13956981219E+01  0.13968055848E+02  0.64390502274E+01  0.15443960811E+02  0.51100000000E-03 0.  1.
        -12    1    3    3    0    0  0.15734708519E+02  0.19275362192E+01  0.17098706794E+02  0.23316565401E+02  0.00000000000E+00 0.  1.
</event>
<event>
 7    1  0.3383281E-011  0.5052886E+02  0.7816164E-02  0.1300439E+00
        -11   -1    0    0    0    0  0.00000000000E+00  0.00000000000E+00  0.45593999997E+02  0.45594000000E+02  0.51100000000E-03 0. -1.
         11   -1    0    0    0    0 -0.00000000000E+00 -0.00000000000E+00 -0.45593999997E+02  0.45594000000E+02  0.51100000000E-03 0.  1.
    9900012    2    1    2    0    0 -0.19838565708E+02  0.33293906860E+02  0.12292791606E+02  0.50528860205E+02  0.30000001080E+02 0.  0.
         12    1    1    2    0    0  0.19838565708E+02 -0.33293906860E+02 -0.12292791606E+02  0.40659139795E+02  0.00000000000E+00 0. -1.
         11    1    3    3    0    0 -0.78542985946E+01  0.11508868739E+01  0.23987996907E+01  0.82926948109E+01  0.51100000000E-03 0. -1.
        -11    1    3    3    0    0 -0.10934133969E+02  0.87485641450E+01 -0.45475786590E+01  0.14723217453E+02  0.51100000000E-03 0.  1.
        -12    1    3    3    0    0 -0.10501331441E+01  0.23394455842E+02  0.14441570575E+02  0.27512947941E+02  0.00000000000E+00 0.  1.
</event>
<event>
 7    1  0.3383281E-011  0.5052885E+02  0.7816164E-02  0.1300439E+00
        -11   -1    0    0    0    0  0.00000000000E+00  0.00000000000E+00  0.45593999997E+02  0.45594000000E+02  0.51100000000E-03 0.  1.
         11   -1    0    0    0    0 -0.00000000000E+00 -0.00000000000E+00 -0.45593999997E+02  0.45594000000E+02  0.51100000000E-03 0. -1.
    9900012    2    1    2    0    0 -0.37149788516E+02  0.16465546696E+02 -0.13946728321E+01  0.50528854324E+02  0.29999983204E+02 0.  0.
         12    1    1    2    0    0  0.37149788516E+02 -0.16465546696E+02  0.13946728321E+01  0.40659145676E+02  0.00000000000E+00 0. -1.
         11    1    3    3    0    0 -0.12828753101E+02  0.93096253315E+01 -0.70656669563E+01  0.17354240973E+02  0.51100000000E-03 0. -1.
        -11    1    3    3    0    0 -0.25896368676E+02  0.50027180953E+01 -0.57632686730E+00  0.26381456591E+02  0.51100000000E-03 0.  1.
         12    1    3    3    0    0  0.15753332612E+01  0.21532032695E+01  0.62473209916E+01  0.67931567607E+01  0.00000000000E+00 0. -1.
</event>
<event>
 7    1  0.3383281E-011  0.5052886E+02  0.7816164E-02  0.1300439E+00
        -11   -1    0    0    0    0  0.00000000000E+00  0.00000000000E+00  0.45593999997E+02  0.45594000000E+02  0.51100000000E-03 0.  1.
         11   -1    0    0    0    0 -0.00000000000E+00 -0.00000000000E+00 -0.45593999997E+02  0.45594000000E+02  0.51100000000E-03 0. -1.
    9900012    2    1    2    0    0 -0.19613046973E+00  0.12789370233E+02  0.38594802988E+02  0.50528864793E+02  0.30000015023E+02 0.  0.
         12    1    1    2    0    0  0.19613046973E+00 -0.12789370233E+02 -0.38594802988E+02  0.40659135207E+02  0.00000000000E+00 0. -1.
         11    1    3    3    0    0  0.62073709703E+01  0.20151931386E+01  0.11697843108E+02  0.13395222708E+02  0.51100000000E-03 0. -1.
        -11    1    3    3    0    0  0.78153495837E+01  0.63350974227E+01  0.15042048932E+02  0.18096308596E+02  0.51100000000E-03 0.  1.
        -12    1    3    3    0    0 -0.14218851024E+02  0.44390796720E+01  0.11854910948E+02  0.19037333488E+02  0.00000000000E+00 0.  1.
</event>
<event>
 7    1  0.3383281E-011  0.5052886E+02  0.7816164E-02  0.1300439E+00
        -11   -1    0    0    0    0  0.00000000000E+00  0.00000000000E+00  0.45593999997E+02  0.45594000000E+02  0.51100000000E-03 0.  1.
         11   -1    0    0    0    0 -0.00000000000E+00 -0.00000000000E+00 -0.45593999997E+02  0.45594000000E+02  0.51100000000E-03 0. -1.
    9900012    2    1    2    0    0  0.50406635168E+01 -0.22035492228E+02  0.33796365815E+02  0.50528861437E+02  0.30000004824E+02 0.  0.
         12    1    1    2    0    0 -0.50406635168E+01  0.22035492228E+02 -0.33796365815E+02  0.40659138563E+02  0.00000000000E+00 0. -1.
         11    1    3    3    0    0  0.10810534641E+01 -0.28478994106E+01 -0.12491215443E+01  0.32923414979E+01  0.51100000000E-03 0.  1.
        -11    1    3    3    0    0  0.23145761196E+01 -0.23027279729E+02  0.36142820912E+02  0.42917553263E+02  0.51100000000E-03 0. -1.
         12    1    3    3    0    0  0.16450339331E+01  0.38396869121E+01 -0.10973335530E+01  0.43189666762E+01  0.00000000000E+00 0. -1.
</event>
<event>
 7    1  0.3383281E-011  0.5052886E+02  0.7816164E-02  0.1300439E+00
        -11   -1    0    0    0    0  0.00000000000E+00  0.00000000000E+00  0.45593999997E+02  0.45594000000E+02  0.51100000000E-03 0.  1.
         11   -1    0    0    0    0 -0.00000000000E+00 -0.00000000000E+00 -0.45593999997E+02  0.45594000000E+02  0.51100000000E-03 0. -1.
    9900012    2    1    2    0    0 -0.28418243634E+02  0.28911880151E+02  0.31100830653E+01  0.50528855865E+02  0.29999987888E+02 0.  0.
         12    1    1    2    0    0  0.28418243634E+02 -0.28911880151E+02 -0.31100830653E+01  0.40659144135E+02  0.00000000000E+00 0. -1.
         11    1    3    3    0    0 -0.11729899461E+02  0.10135857995E+02  0.33872021942E+01  0.15868185076E+02  0.51100000000E-03 0. -1.
        -11    1    3    3    0    0 -0.20008865460E+02  0.13890180932E+02  0.69468437517E+01  0.25328846435E+02  0.51100000000E-03 0.  1.
         12    1    3    3    0    0  0.33205212867E+01  0.48858412235E+01 -0.72239628806E+01  0.93318243542E+01  0.00000000000E+00 0. -1.
</event>
<event>
 7    1  0.3383281E-011  0.5052888E+02  0.7816164E-02  0.1300439E+00
        -11   -1    0    0    0    0  0.00000000000E+00  0.00000000000E+00  0.45593999997E+02  0.45594000000E+02  0.51100000000E-03 0. -1.
         11   -1    0    0    0    0 -0.00000000000E+00 -0.00000000000E+00 -0.45593999997E+02  0.45594000000E+02  0.51100000000E-03 0.  1.
    9900012    2    1    2    0    0 -0.67060346135E+01  0.34381027461E+02 -0.20643114949E+02  0.50528878707E+02  0.30000057317E+02 0.  0.
         12    1    1    2    0    0  0.67060346135E+01 -0.34381027461E+02  0.20643114949E+02  0.40659121293E+02  0.00000000000E+00 0. -1.
         11    1    3    3    0    0  0.37316253956E-01  0.34026822692E+00 -0.85806422832E+01  0.85874674510E+01  0.51100000000E-03 0. -1.
        -11    1    3    3    0    0 -0.45942397146E+01  0.10395040855E+02 -0.14101058212E+02  0.18110873968E+02  0.51100000000E-03 0.  1.
        -12    1    3    3    0    0 -0.21491111528E+01  0.23645718379E+02  0.20385855455E+01  0.23830537288E+02  0.00000000000E+00 0.  1.
</event>
<event>
 7    1  0.3383281E-011  0.5052899E+02  0.7816164E-02  0.1300438E+00
        -11   -1    0    0    0    0  0.00000000000E+00  0.00000000000E+00  0.45593999997E+02  0.45594000000E+02  0.51100000000E-03 0.  1.
         11   -1    0    0    0    0 -0.00000000000E+00 -0.00000000000E+00 -0.45593999997E+02  0.45594000000E+02  0.51100000000E-03 0. -1.
    9900012    2    1    2    0    0  0.19388992018E+02 -0.58146469175E+01  0.35262043824E+02  0.50528992819E+02  0.30000404171E+02 0.  0.
         12    1    1    2    0    0 -0.19388992018E+02  0.58146469175E+01 -0.35262043824E+02  0.40659007181E+02  0.00000000000E+00 0. -1.
         11    1    3    3    0    0  0.13605505072E+02  0.62747249539E+01  0.89380372817E+01  0.17446215985E+02  0.51100000000E-03 0. -1.
        -11    1    3    3    0    0  0.46812423986E+01  0.25142842821E+01  0.57584368951E+01  0.78355122093E+01  0.51100000000E-03 0.  1.
         12    1    3    3    0    0  0.11022445475E+01 -0.14603656154E+02  0.20565569648E+02  0.25247264625E+02  0.00000000000E+00 0. -1.
</event>
<event>
 7    1  0.3383281E-011  0.5052885E+02  0.7816164E-02  0.1300439E+00
        -11   -1    0    0    0    0  0.00000000000E+00  0.00000000000E+00  0.45593999997E+02  0.45594000000E+02  0.51100000000E-03 0.  1.
         11   -1    0    0    0    0 -0.00000000000E+00 -0.00000000000E+00 -0.45593999997E+02  0.45594000000E+02  0.51100000000E-03 0. -1.
    9900012    2    1    2    0    0  0.17189461309E+01  0.28946388260E+02  0.28501203293E+02  0.50528846562E+02  0.29999959610E+02 0.  0.
         12    1    1    2    0    0 -0.17189461309E+01 -0.28946388260E+02 -0.28501203293E+02  0.40659153438E+02  0.00000000000E+00 0. -1.
         11    1    3    3    0    0 -0.16517445017E+01  0.11470556948E+02  0.48572258682E+01  0.12565611007E+02  0.51100000000E-03 0. -1.
        -11    1    3    3    0    0  0.78098074466E+01  0.33853234298E+01 -0.16505858826E+01  0.86705213853E+01  0.51100000000E-03 0.  1.
         12    1    3    3    0    0 -0.44391168139E+01  0.14090507882E+02  0.25294563308E+02  0.29292714169E+02  0.00000000000E+00 0. -1.
</event>
<event>
 7    1  0.3383281E-011  0.5052885E+02  0.7816164E-02  0.1300439E+00
        -11   -1    0    0    0    0  0.00000000000E+00  0.00000000000E+00  0.45593999997E+02  0.45594000000E+02  0.51100000000E-03 0.  1.
         11   -1    0    0    0    0 -0.00000000000E+00 -0.00000000000E+00 -0.45593999997E+02  0.45594000000E+02  0.51100000000E-03 0. -1.
    9900012    2    1    2    0    0 -0.14449749628E+02  0.30742814807E+02  0.22343907481E+02  0.50528854311E+02  0.29999983165E+02 0.  0.
         12    1    1    2    0    0  0.14449749628E+02 -0.30742814807E+02 -0.22343907481E+02  0.40659145689E+02  0.00000000000E+00 0. -1.
         11    1    3    3    0    0 -0.32368451138E+01  0.26880982093E+00  0.54226623647E+01  0.63209724246E+01  0.51100000000E-03 0. -1.
        -11    1    3    3    0    0  0.36627266257E+01  0.20153516617E+01  0.10714987771E+02  0.11501659526E+02  0.51100000000E-03 0.  1.
         12    1    3    3    0    0 -0.14875631140E+02  0.28458653325E+02  0.62062573457E+01  0.32706222361E+02  0.00000000000E+00 0. -1.
</event>
<event>
 7    1  0.3383281E-011  0.5052887E+02  0.7816164E-02  0.1300439E+00
        -11   -1    0    0    0    0  0.00000000000E+00  0.00000000000E+00  0.45593999997E+02  0.45594000000E+02  0.51100000000E-03 0. -1.
         11   -1    0    0    0    0 -0.00000000000E+00 -0.00000000000E+00 -0.45593999997E+02  0.45594000000E+02  0.51100000000E-03 0.  1.
    9900012    2    1    2    0    0 -0.13043177846E+01 -0.32816822884E+02 -0.23969145474E+02  0.50528867646E+02  0.30000023696E+02 0.  0.
         12    1    1    2    0    0  0.13043177846E+01  0.32816822884E+02  0.23969145474E+02  0.40659132354E+02  0.00000000000E+00 0. -1.
         11    1    3    3    0    0  0.72381000341E+00 -0.17789175745E+02 -0.61076493770E+01  0.18822381778E+02  0.51100000000E-03 0. -1.
        -11    1    3    3    0    0 -0.59901800480E+01 -0.17649106023E+02 -0.19212450643E+02  0.26767358113E+02  0.51100000000E-03 0.  1.
         12    1    3    3    0    0  0.39620522600E+01  0.26214588840E+01  0.13509545458E+01  0.49391277546E+01  0.00000000000E+00 0. -1.
</event>
<event>
 7    1  0.3383281E-011  0.5052886E+02  0.7816164E-02  0.1300439E+00
        -11   -1    0    0    0    0  0.00000000000E+00  0.00000000000E+00  0.45593999997E+02  0.45594000000E+02  0.51100000000E-03 0.  1.
         11   -1    0    0    0    0 -0.00000000000E+00 -0.00000000000E+00 -0.45593999997E+02  0.45594000000E+02  0.51100000000E-03 0. -1.
    9900012    2    1    2    0    0  0.25354437741E+01  0.37326736586E+02  0.15920172760E+02  0.50528860314E+02  0.30000001410E+02 0.  0.
         12    1    1    2    0    0 -0.25354437741E+01 -0.37326736586E+02 -0.15920172760E+02  0.40659139686E+02  0.00000000000E+00 0. -1.
         11    1    3    3    0    0 -0.63725149174E+01  0.12444151835E+02  0.15923789392E+02  0.21190397120E+02  0.51100000000E-03 0. -1.
        -11    1    3    3    0    0 -0.21017605193E+01  0.72796722390E+01  0.33896072529E+01  0.83006302639E+01  0.51100000000E-03 0.  1.
         12    1    3    3    0    0  0.11009719211E+02  0.17602912513E+02 -0.33932238852E+01  0.21037832929E+02  0.00000000000E+00 0. -1.
</event>
<event>
 7    1  0.3383281E-011  0.5052886E+02  0.7816164E-02  0.1300439E+00
        -11   -1    0    0    0    0  0.00000000000E+00  0.00000000000E+00  0.45593999997E+02  0.45594000000E+02  0.51100000000E-03 0.  1.
         11   -1    0    0    0    0 -0.00000000000E+00 -0.00000000000E+00 -0.45593999997E+02  0.45594000000E+02  0.51100000000E-03 0. -1.
    9900012    2    1    2    0    0  0.27225116626E+02 -0.30112906678E+02  0.22740906301E+01  0.50528860657E+02  0.30000002453E+02 0.  0.
         12    1    1    2    0    0 -0.27225116626E+02  0.30112906678E+02 -0.22740906301E+01  0.40659139343E+02  0.00000000000E+00 0. -1.
         11    1    3    3    0    0  0.43966978888E+01  0.15157564764E+01  0.49020863422E+01  0.67571385059E+01  0.51100000000E-03 0. -1.
        -11    1    3    3    0    0  0.18554538198E+02 -0.26263610744E+02  0.60390550792E+01  0.32718776315E+02  0.51100000000E-03 0.  1.
         12    1    3    3    0    0  0.42738805395E+01 -0.53650524101E+01 -0.86670507913E+01  0.11052945836E+02  0.00000000000E+00 0. -1.
</event>
<event>
 7    1  0.3383281E-011  0.5052885E+02  0.7816164E-02  0.1300439E+00
        -11   -1    0    0    0    0  0.00000000000E+00  0.00000000000E+00  0.45593999997E+02  0.45594000000E+02  0.51100000000E-03 0.  1.
         11   -1    0    0    0    0 -0.00000000000E+00 -0.00000000000E+00 -0.45593999997E+02  0.45594000000E+02  0.51100000000E-03 0. -1.
    9900012    2    1    2    0    0 -0.24082725090E+02 -0.30404608606E+02 -0.12196253037E+02  0.50528850225E+02  0.29999970744E+02 0.  0.
         12    1    1    2    0    0  0.24082725090E+02  0.30404608606E+02  0.12196253037E+02  0.40659149775E+02  0.00000000000E+00 0. -1.
         11    1    3    3    0    0 -0.51125929841E+01 -0.11778909340E+02  0.31886779019E-01  0.12840651436E+02  0.51100000000E-03 0. -1.
        -11    1    3    3    0    0  0.64790722814E+00 -0.44106563538E+01  0.59250840215E+01  0.74148698013E+01  0.51100000000E-03 0.  1.
         12    1    3    3    0    0 -0.19618039334E+02 -0.14215042912E+02 -0.18153223838E+02  0.30273328988E+02  0.00000000000E+00 0. -1.
</event>
<event>
 7    1  0.3383281E-011  0.5052886E+02  0.7816164E-02  0.1300439E+00
        -11   -1    0    0    0    0  0.00000000000E+00  0.00000000000E+00  0.45593999997E+02  0.45594000000E+02  0.51100000000E-03 0. -1.
         11   -1    0    0    0    0 -0.00000000000E+00 -0.00000000000E+00 -0.45593999997E+02  0.45594000000E+02  0.51100000000E-03 0.  1.
    9900012    2    1    2    0    0 -0.25242410642E+02 -0.12924361688E+01 -0.31848332276E+02  0.50528856439E+02  0.29999989633E+02 0.  0.
         12    1    1    2    0    0  0.25242410642E+02  0.12924361688E+01  0.31848332276E+02  0.40659143561E+02  0.00000000000E+00 0. -1.
         11    1    3    3    0    0 -0.12207704881E+02  0.68444714154E+01 -0.22349785518E+02  0.26370205922E+02  0.51100000000E-03 0. -1.
        -11    1    3    3    0    0  0.46645510419E+00 -0.42635265813E+01 -0.91536295119E+01  0.10108618737E+02  0.51100000000E-03 0.  1.
         12    1    3    3    0    0 -0.13501160866E+02 -0.38733810029E+01 -0.34491724699E+00  0.14050031780E+02  0.00000000000E+00 0. -1.
</event>
<event>
 7    1  0.3383281E-011  0.5052887E+02  0.7816164E-02  0.1300439E+00
        -11   -1    0    0    0    0  0.00000000000E+00  0.00000000000E+00  0.45593999997E+02  0.45594000000E+02  0.51100000000E-03 0. -1.
         11   -1    0    0    0    0 -0.00000000000E+00 -0.00000000000E+00 -0.45593999997E+02  0.45594000000E+02  0.51100000000E-03 0.  1.
    9900012    2    1    2    0    0 -0.36364538422E+02  0.91594177681E+01 -0.15712744691E+02  0.50528868993E+02  0.30000027791E+02 0.  0.
         12    1    1    2    0    0  0.36364538422E+02 -0.91594177681E+01  0.15712744691E+02  0.40659131007E+02  0.00000000000E+00 0. -1.
         11    1    3    3    0    0 -0.81219906852E+01  0.10810744578E+02 -0.49955192491E+01  0.14415066558E+02  0.51100000000E-03 0. -1.
        -11    1    3    3    0    0 -0.34523312252E+01  0.44084220083E+01 -0.89183027024E+01  0.10530379805E+02  0.51100000000E-03 0.  1.
        -12    1    3    3    0    0 -0.24790216512E+02 -0.60597488186E+01 -0.17989227398E+01  0.25583422630E+02  0.00000000000E+00 0.  1.
</event>
<event>
 7    1  0.3383281E-011  0.5052887E+02  0.7816164E-02  0.1300439E+00
        -11   -1    0    0    0    0  0.00000000000E+00  0.00000000000E+00  0.45593999997E+02  0.45594000000E+02  0.51100000000E-03 0.  1.
         11   -1    0    0    0    0 -0.00000000000E+00 -0.00000000000E+00 -0.45593999997E+02  0.45594000000E+02  0.51100000000E-03 0. -1.
    9900012    2    1    2    0    0 -0.23368064342E+02 -0.32181736848E+02  0.84518901439E+01  0.50528867390E+02  0.30000022917E+02 0.  0.
         12    1    1    2    0    0  0.23368064342E+02  0.32181736848E+02 -0.84518901439E+01  0.40659132610E+02  0.00000000000E+00 0. -1.
         11    1    3    3    0    0 -0.14342412340E+02 -0.11268106592E+02 -0.73619380136E+01  0.19669091222E+02  0.51100000000E-03 0. -1.
        -11    1    3    3    0    0 -0.95920471182E+01 -0.10062112310E+02  0.33025535419E+01  0.14288468505E+02  0.51100000000E-03 0.  1.
        -12    1    3    3    0    0  0.56639511638E+00 -0.10851517946E+02  0.12511274616E+02  0.16571307663E+02  0.00000000000E+00 0.  1.
</event>
<event>
 7    1  0.3383281E-011  0.5052887E+02  0.7816164E-02  0.1300439E+00
        -11   -1    0    0    0    0  0.00000000000E+00  0.00000000000E+00  0.45593999997E+02  0.45594000000E+02  0.51100000000E-03 0. -1.
         11   -1    0    0    0    0 -0.00000000000E+00 -0.00000000000E+00 -0.45593999997E+02  0.45594000000E+02  0.51100000000E-03 0.  1.
    9900012    2    1    2    0    0 -0.99161395033E+01  0.27873672271E+01 -0.39332759444E+02  0.50528865673E+02  0.30000017699E+02 0.  0.
         12    1    1    2    0    0  0.99161395033E+01 -0.27873672271E+01  0.39332759444E+02  0.40659134327E+02  0.00000000000E+00 0. -1.
         11    1    3    3    0    0 -0.46447158584E+01  0.11458060800E+02 -0.54178204476E+01  0.13498641463E+02  0.51100000000E-03 0. -1.
        -11    1    3    3    0    0  0.13858366736E+01  0.19066172867E+01 -0.59328507281E+01  0.63839212704E+01  0.51100000000E-03 0.  1.
        -12    1    3    3    0    0 -0.66572603184E+01 -0.10577310859E+02 -0.27982088269E+02  0.30646302939E+02  0.00000000000E+00 0.  1.
</event>
<event>
 7    1  0.3383281E-011  0.5052886E+02  0.7816164E-02  0.1300439E+00
        -11   -1    0    0    0    0  0.00000000000E+00  0.00000000000E+00  0.45593999997E+02  0.45594000000E+02  0.51100000000E-03 0.  1.
         11   -1    0    0    0    0 -0.00000000000E+00 -0.00000000000E+00 -0.45593999997E+02  0.45594000000E+02  0.51100000000E-03 0. -1.
    9900012    2    1    2    0    0  0.11988692753E+02 -0.32564975392E+02  0.21188663022E+02  0.50528858139E+02  0.29999994800E+02 0.  0.
         12    1    1    2    0    0 -0.11988692753E+02  0.32564975392E+02 -0.21188663022E+02  0.40659141861E+02  0.00000000000E+00 0. -1.
         11    1    3    3    0    0  0.23702477799E+01 -0.16094419282E+02  0.63654704597E+01  0.17469047513E+02  0.51100000000E-03 0.  1.
        -11    1    3    3    0    0  0.10288010231E+02 -0.10157405499E+02 -0.24440140410E+01  0.14662511581E+02  0.51100000000E-03 0. -1.
        -12    1    3    3    0    0 -0.66956525821E+00 -0.63131506108E+01  0.17267206603E+02  0.18397299045E+02  0.00000000000E+00 0.  1.
</event>
<event>
 7    1  0.3383281E-011  0.5052885E+02  0.7816164E-02  0.1300439E+00
        -11   -1    0    0    0    0  0.00000000000E+00  0.00000000000E+00  0.45593999997E+02  0.45594000000E+02  0.51100000000E-03 0.  1.
         11   -1    0    0    0    0 -0.00000000000E+00 -0.00000000000E+00 -0.45593999997E+02  0.45594000000E+02  0.51100000000E-03 0. -1.
    9900012    2    1    2    0    0  0.90195899860E+01  0.16316348570E+02  0.36132946842E+02  0.50528854883E+02  0.29999984902E+02 0.  0.
         12    1    1    2    0    0 -0.90195899860E+01 -0.16316348570E+02 -0.36132946842E+02  0.40659145117E+02  0.00000000000E+00 0. -1.
         11    1    3    3    0    0 -0.17596597277E+01 -0.35559388264E+01  0.14711448691E+01  0.42314738309E+01  0.51100000000E-03 0. -1.
        -11    1    3    3    0    0 -0.23146485656E+01  0.16574815815E+02  0.23073163201E+02  0.28503560788E+02  0.51100000000E-03 0.  1.
         12    1    3    3    0    0  0.13093898279E+02  0.32974715816E+01  0.11588638772E+02  0.17793820264E+02  0.00000000000E+00 0. -1.
</event>
<event>
 7    1  0.3383281E-011  0.5052885E+02  0.7816164E-02  0.1300439E+00
        -11   -1    0    0    0    0  0.00000000000E+00  0.00000000000E+00  0.45593999997E+02  0.45594000000E+02  0.51100000000E-03 0.  1.
         11   -1    0    0    0    0 -0.00000000000E+00 -0.00000000000E+00 -0.45593999997E+02  0.45594000000E+02  0.51100000000E-03 0. -1.
    9900012    2    1    2    0    0 -0.24063730952E+02 -0.32615758931E+02  0.32117937585E+01  0.50528849774E+02  0.29999969373E+02 0.  0.
         12    1    1    2    0    0  0.24063730952E+02  0.32615758931E+02 -0.32117937585E+01  0.40659150226E+02  0.00000000000E+00 0. -1.
         11    1    3    3    0    0 -0.10964597760E+02 -0.18394997238E+02 -0.90892827523E+01  0.23263993394E+02  0.51100000000E-03 0. -1.
        -11    1    3    3    0    0  0.26381749122E+01 -0.44153650560E+01  0.54597159024E+01  0.75009275054E+01  0.51100000000E-03 0.  1.
        -12    1    3    3    0    0 -0.15737308105E+02 -0.98053966361E+01  0.68413606084E+01  0.19763928874E+02  0.00000000000E+00 0.  1.
</event>
<event>
 7    1  0.3383281E-011  0.5052885E+02  0.7816164E-02  0.1300439E+00
        -11   -1    0    0    0    0  0.00000000000E+00  0.00000000000E+00  0.45593999997E+02  0.45594000000E+02  0.51100000000E-03 0.  1.
         11   -1    0    0    0    0 -0.00000000000E+00 -0.00000000000E+00 -0.45593999997E+02  0.45594000000E+02  0.51100000000E-03 0. -1.
    9900012    2    1    2    0    0 -0.39260519411E+02  0.59228208485E+01  0.87577415936E+01  0.50528853071E+02  0.29999979394E+02 0.  0.
         12    1    1    2    0    0  0.39260519411E+02 -0.59228208485E+01 -0.87577415936E+01  0.40659146929E+02  0.00000000000E+00 0. -1.
         11    1    3    3    0    0 -0.19147412671E+01  0.35190470565E+01  0.72407817531E+01  0.82751946782E+01  0.51100000000E-03 0. -1.
        -11    1    3    3    0    0 -0.85468038905E+00 -0.21708863488E+01  0.47936398211E+01  0.53312483625E+01  0.51100000000E-03 0.  1.
        -12    1    3    3    0    0 -0.36491097754E+02  0.45746601408E+01 -0.32766799806E+01  0.36922410030E+02  0.00000000000E+00 0.  1.
</event>
<event>
 7    1  0.3476362E-011  0.5052886E+02  0.7816164E-02  0.1300439E+00
        -11   -1    0    0    0    0  0.00000000000E+00  0.00000000000E+00  0.45593999997E+02  0.45594000000E+02  0.51100000000E-03 0. -1.
         11   -1    0    0    0    0 -0.00000000000E+00 -0.00000000000E+00 -0.45593999997E+02  0.45594000000E+02  0.51100000000E-03 0.  1.
    9900012    2    1    2    0    0 -0.74747949138E+00  0.14940651026E+02 -0.37807189241E+02  0.50528864040E+02  0.30000012737E+02 0.  0.
         12    1    1    2    0    0  0.74747949138E+00 -0.14940651026E+02  0.37807189241E+02  0.40659135960E+02  0.00000000000E+00 0. -1.
         11    1    3    3    0    0 -0.44253798841E+01  0.58669345214E+01 -0.75350221796E+01  0.10525277541E+02  0.51100000000E-03 0. -1.
        -11    1    3    3    0    0  0.27881612275E+01  0.16801339519E+02 -0.14301978448E+02  0.22239726627E+02  0.51100000000E-03 0.  1.
         12    1    3    3    0    0  0.88973916515E+00 -0.77276230144E+01 -0.15970188614E+02  0.17763859873E+02  0.00000000000E+00 0. -1.
</event>
<event>
 7    1  0.3383281E-011  0.5052885E+02  0.7816164E-02  0.1300439E+00
        -11   -1    0    0    0    0  0.00000000000E+00  0.00000000000E+00  0.45593999997E+02  0.45594000000E+02  0.51100000000E-03 0.  1.
         11   -1    0    0    0    0 -0.00000000000E+00 -0.00000000000E+00 -0.45593999997E+02  0.45594000000E+02  0.51100000000E-03 0. -1.
    9900012    2    1    2    0    0  0.40591043847E+02  0.21883096798E+01 -0.86332136914E+00  0.50528845266E+02  0.29999955671E+02 0.  0.
         12    1    1    2    0    0 -0.40591043847E+02 -0.21883096798E+01  0.86332136914E+00  0.40659154734E+02  0.00000000000E+00 0. -1.
         11    1    3    3    0    0  0.16909631827E+02  0.43341376569E+01  0.53489037240E+01  0.18257359312E+02  0.51100000000E-03 0. -1.
        -11    1    3    3    0    0  0.13208853182E+02  0.62549391724E+01  0.42838875479E+01  0.15229896888E+02  0.51100000000E-03 0.  1.
         12    1    3    3    0    0  0.10472558839E+02 -0.84007671496E+01 -0.10496112641E+02  0.17041589067E+02  0.00000000000E+00 0. -1.
</event>
<event>
 7    1  0.3396679E-011  0.5052885E+02  0.7816164E-02  0.1300439E+00
        -11   -1    0    0    0    0  0.00000000000E+00  0.00000000000E+00  0.45593999997E+02  0.45594000000E+02  0.51100000000E-03 0. -1.
         11   -1    0    0    0    0 -0.00000000000E+00 -0.00000000000E+00 -0.45593999997E+02  0.45594000000E+02  0.51100000000E-03 0.  1.
    9900012    2    1    2    0    0  0.12200637113E+02 -0.14474251075E+02 -0.35983421376E+02  0.50528854607E+02  0.29999984064E+02 0.  0.
         12    1    1    2    0    0 -0.12200637113E+02  0.14474251075E+02  0.35983421376E+02  0.40659145393E+02  0.00000000000E+00 0. -1.
         11    1    3    3    0    0  0.57849244930E+01  0.38370781480E+01 -0.68759812452E+01  0.97707542416E+01  0.51100000000E-03 0. -1.
        -11    1    3    3    0    0  0.72878659746E+01 -0.18874161923E+02 -0.31902123817E+02  0.37776877625E+02  0.51100000000E-03 0.  1.
         12    1    3    3    0    0 -0.87215335475E+00  0.56283269947E+00  0.27946836866E+01  0.29812227407E+01  0.00000000000E+00 0. -1.
</event>
<event>
 7    1  0.3383281E-011  0.5052886E+02  0.7816164E-02  0.1300439E+00
        -11   -1    0    0    0    0  0.00000000000E+00  0.00000000000E+00  0.45593999997E+02  0.45594000000E+02  0.51100000000E-03 0.  1.
         11   -1    0    0    0    0 -0.00000000000E+00 -0.00000000000E+00 -0.45593999997E+02  0.45594000000E+02  0.51100000000E-03 0. -1.
    9900012    2    1    2    0    0 -0.29861667679E+01 -0.27294407707E+02  0.29987726051E+02  0.50528860834E+02  0.30000002990E+02 0.  0.
         12    1    1    2    0    0  0.29861667679E+01  0.27294407707E+02 -0.29987726051E+02  0.40659139166E+02  0.00000000000E+00 0. -1.
         11    1    3    3    0    0  0.18840662815E+01 -0.10560227875E+02 -0.29164207061E+01  0.11116367595E+02  0.51100000000E-03 0. -1.
        -11    1    3    3    0    0 -0.99792470525E+00 -0.13451433131E+02  0.12512218044E+02  0.18398165877E+02  0.51100000000E-03 0.  1.
        -12    1    3    3    0    0 -0.38723083441E+01 -0.32827467016E+01  0.20391928713E+02  0.21014327362E+02  0.00000000000E+00 0.  1.
</event>
<event>
 7    1  0.3383281E-011  0.5052886E+02  0.7816164E-02  0.1300439E+00
        -11   -1    0    0    0    0  0.00000000000E+00  0.00000000000E+00  0.45593999997E+02  0.45594000000E+02  0.51100000000E-03 0. -1.
         11   -1    0    0    0    0 -0.00000000000E+00 -0.00000000000E+00 -0.45593999997E+02  0.45594000000E+02  0.51100000000E-03 0.  1.
    9900012    2    1    2    0    0  0.40572060883E+02 -0.26547592551E+01 -0.16063994531E+00  0.50528859869E+02  0.30000000059E+02 0.  0.
         12    1    1    2    0    0 -0.40572060883E+02  0.26547592551E+01  0.16063994531E+00  0.40659140131E+02  0.00000000000E+00 0. -1.
         11    1    3    3    0    0  0.89142807597E+01 -0.70430625843E+01  0.43347793001E+01  0.12159746867E+02  0.51100000000E-03 0. -1.
        -11    1    3    3    0    0  0.79217238861E+01  0.56208090950E+01  0.69944815946E+01  0.11969543736E+02  0.51100000000E-03 0.  1.
        -12    1    3    3    0    0  0.23736056237E+02 -0.12325057659E+01 -0.11489900840E+02  0.26399569266E+02  0.00000000000E+00 0.  1.
</event>
<event>
 7    1  0.3383281E-011  0.5052887E+02  0.7816164E-02  0.1300439E+00
        -11   -1    0    0    0    0  0.00000000000E+00  0.00000000000E+00  0.45593999997E+02  0.45594000000E+02  0.51100000000E-03 0. -1.
         11   -1    0    0    0    0 -0.00000000000E+00 -0.00000000000E+00 -0.45593999997E+02  0.45594000000E+02  0.51100000000E-03 0.  1.
    9900012    2    1    2    0    0  0.37293428489E+00  0.38000462764E+02 -0.14456520917E+02  0.50528865143E+02  0.30000016090E+02 0.  0.
         12    1    1    2    0    0 -0.37293428489E+00 -0.38000462764E+02  0.14456520917E+02  0.40659134857E+02  0.00000000000E+00 0. -1.
         11    1    3    3    0    0 -0.55520581109E+01  0.22245815020E+02 -0.49283164305E+00  0.22933480295E+02  0.51100000000E-03 0. -1.
        -11    1    3    3    0    0  0.72486262903E-01  0.15733760539E+02 -0.14898740222E+02  0.21668616371E+02  0.51100000000E-03 0.  1.
        -12    1    3    3    0    0  0.58525061329E+01  0.20887205480E-01  0.93505094803E+00  0.59267684776E+01  0.00000000000E+00 0.  1.
</event>
<event>
 7    1  0.3383281E-011  0.5052887E+02  0.7816164E-02  0.1300439E+00
        -11   -1    0    0    0    0  0.00000000000E+00  0.00000000000E+00  0.45593999997E+02  0.45594000000E+02  0.51100000000E-03 0. -1.
         11   -1    0    0    0    0 -0.00000000000E+00 -0.00000000000E+00 -0.45593999997E+02  0.45594000000E+02  0.51100000000E-03 0.  1.
    9900012    2    1    2    0    0 -0.16742694168E+02  0.13277675021E+01 -0.37028148792E+02  0.50528873380E+02  0.30000041126E+02 0.  0.
         12    1    1    2    0    0  0.16742694168E+02 -0.13277675021E+01  0.37028148792E+02  0.40659126620E+02  0.00000000000E+00 0. -1.
         11    1    3    3    0    0 -0.19103683896E+02  0.79680444942E+00 -0.16945683830E+02  0.25548812819E+02  0.51100000000E-03 0. -1.
        -11    1    3    3    0    0  0.40895425335E+00 -0.58040927747E+01 -0.16389816948E+02  0.17391976207E+02  0.51100000000E-03 0.  1.
        -12    1    3    3    0    0  0.19520354738E+01  0.63350558273E+01 -0.36926480135E+01  0.75880843549E+01  0.00000000000E+00 0.  1.
</event>
<event>
 7    1  0.3383281E-011  0.5052885E+02  0.7816164E-02  0.1300439E+00
        -11   -1    0    0    0    0  0.00000000000E+00  0.00000000000E+00  0.45593999997E+02  0.45594000000E+02  0.51100000000E-03 0. -1.
         11   -1    0    0    0    0 -0.00000000000E+00 -0.00000000000E+00 -0.45593999997E+02  0.45594000000E+02  0.51100000000E-03 0.  1.
    9900012    2    1    2    0    0  0.17845011108E+02 -0.36046778318E+02 -0.59457155418E+01  0.50528853651E+02  0.29999981158E+02 0.  0.
         12    1    1    2    0    0 -0.17845011108E+02  0.36046778318E+02  0.59457155418E+01  0.40659146349E+02  0.00000000000E+00 0. -1.
         11    1    3    3    0    0 -0.14426483267E+01  0.13351302823E+00 -0.56976371751E+01  0.58789565029E+01  0.51100000000E-03 0. -1.
        -11    1    3    3    0    0  0.36700567951E+01 -0.25298785244E+02  0.91297255807E+00  0.25579901697E+02  0.51100000000E-03 0.  1.
        -12    1    3    3    0    0  0.15617602639E+02 -0.10881506102E+02 -0.11610509248E+01  0.19069995451E+02  0.00000000000E+00 0.  1.
</event>
<event>
 7    1  0.3383281E-011  0.5052886E+02  0.7816164E-02  0.1300439E+00
        -11   -1    0    0    0    0  0.00000000000E+00  0.00000000000E+00  0.45593999997E+02  0.45594000000E+02  0.51100000000E-03 0.  1.
         11   -1    0    0    0    0 -0.00000000000E+00 -0.00000000000E+00 -0.45593999997E+02  0.45594000000E+02  0.51100000000E-03 0. -1.
    9900012    2    1    2    0    0  0.12017810525E+02  0.10851668792E+02  0.37295837921E+02  0.50528855744E+02  0.29999987520E+02 0.  0.
         12    1    1    2    0    0 -0.12017810525E+02 -0.10851668792E+02 -0.37295837921E+02  0.40659144256E+02  0.00000000000E+00 0. -1.
         11    1    3    3    0    0  0.35628116437E+00  0.15350091256E+01  0.88989089867E+01  0.90373541869E+01  0.51100000000E-03 0. -1.
        -11    1    3    3    0    0  0.93055336348E+01 -0.74936774754E+01  0.17940234298E+02  0.21554585713E+02  0.51100000000E-03 0.  1.
         12    1    3    3    0    0  0.23559957259E+01  0.16810337142E+02  0.10456694637E+02  0.19936915845E+02  0.00000000000E+00 0. -1.
</event>
<event>
 7    1  0.3383281E-011  0.5052887E+02  0.7816164E-02  0.1300439E+00
        -11   -1    0    0    0    0  0.00000000000E+00  0.00000000000E+00  0.45593999997E+02  0.45594000000E+02  0.51100000000E-03 0.  1.
         11   -1    0    0    0    0 -0.00000000000E+00 -0.00000000000E+00 -0.45593999997E+02  0.45594000000E+02  0.51100000000E-03 0. -1.
    9900012    2    1    2    0    0  0.58754471950E+01  0.34391740425E+02  0.20877080263E+02  0.50528866100E+02  0.30000018999E+02 0.  0.
         12    1    1    2    0    0 -0.58754471950E+01 -0.34391740425E+02 -0.20877080263E+02  0.40659133900E+02  0.00000000000E+00 0. -1.
         11    1    3    3    0    0  0.26435869520E+01  0.19991010184E+02  0.56127560287E+01  0.20931604589E+02  0.51100000000E-03 0. -1.
        -11    1    3    3    0    0  0.11931556668E+02  0.10150218249E+02  0.98353825716E+01  0.18496586864E+02  0.51100000000E-03 0.  1.
         12    1    3    3    0    0 -0.86996964246E+01  0.42505119910E+01  0.54289416623E+01  0.11100674648E+02  0.00000000000E+00 0. -1.
</event>
<event>
 7    1  0.3383281E-011  0.5052886E+02  0.7816164E-02  0.1300439E+00
        -11   -1    0    0    0    0  0.00000000000E+00  0.00000000000E+00  0.45593999997E+02  0.45594000000E+02  0.51100000000E-03 0. -1.
         11   -1    0    0    0    0 -0.00000000000E+00 -0.00000000000E+00 -0.45593999997E+02  0.45594000000E+02  0.51100000000E-03 0.  1.
    9900012    2    1    2    0    0  0.50013135529E+01  0.36710750495E+02 -0.16747336475E+02  0.50528860583E+02  0.30000002227E+02 0.  0.
         12    1    1    2    0    0 -0.50013135529E+01 -0.36710750495E+02  0.16747336475E+02  0.40659139417E+02  0.00000000000E+00 0. -1.
         11    1    3    3    0    0  0.53103045662E+01 -0.27385252738E+01  0.20325533933E+00  0.59783081432E+01  0.51100000000E-03 0. -1.
        -11    1    3    3    0    0  0.35487032293E+01  0.22123259445E+02 -0.44590629537E+01  0.22845462258E+02  0.51100000000E-03 0.  1.
        -12    1    3    3    0    0 -0.38576942426E+01  0.17326016324E+02 -0.12491528860E+02  0.21705090182E+02  0.00000000000E+00 0.  1.
</event>
<event>
 7    1  0.3383281E-011  0.5052886E+02  0.7816164E-02  0.1300439E+00
        -11   -1    0    0    0    0  0.00000000000E+00  0.00000000000E+00  0.45593999997E+02  0.45594000000E+02  0.51100000000E-03 0.  1.
         11   -1    0    0    0    0 -0.00000000000E+00 -0.00000000000E+00 -0.45593999997E+02  0.45594000000E+02  0.51100000000E-03 0. -1.
    9900012    2    1    2    0    0  0.43288345452E+01 -0.27565561154E+02  0.29573070775E+02  0.50528862216E+02  0.30000007193E+02 0.  0.
         12    1    1    2    0    0 -0.43288345452E+01  0.27565561154E+02 -0.29573070775E+02  0.40659137784E+02  0.00000000000E+00 0. -1.
         11    1    3    3    0    0  0.51666145050E+01 -0.12218117623E+02  0.17895961894E+02  0.22276484374E+02  0.51100000000E-03 0.  1.
        -11    1    3    3    0    0  0.66262820604E+01  0.18019440261E+01  0.17891995995E+01  0.70961857138E+01  0.51100000000E-03 0. -1.
         12    1    3    3    0    0 -0.74640620202E+01 -0.17149387557E+02  0.98879092815E+01  0.21156192129E+02  0.00000000000E+00 0. -1.
</event>
<event>
 7    1  0.3383281E-011  0.5052886E+02  0.7816164E-02  0.1300439E+00
        -11   -1    0    0    0    0  0.00000000000E+00  0.00000000000E+00  0.45593999997E+02  0.45594000000E+02  0.51100000000E-03 0. -1.
         11   -1    0    0    0    0 -0.00000000000E+00 -0.00000000000E+00 -0.45593999997E+02  0.45594000000E+02  0.51100000000E-03 0.  1.
    9900012    2    1    2    0    0  0.10798860539E+02  0.33494707731E+02 -0.20363080066E+02  0.50528857551E+02  0.29999993012E+02 0.  0.
         12    1    1    2    0    0 -0.10798860539E+02 -0.33494707731E+02  0.20363080066E+02  0.40659142449E+02  0.00000000000E+00 0. -1.
         11    1    3    3    0    0 -0.62625531381E+01  0.17248052137E+02 -0.51729235344E+01  0.19064994426E+02  0.51100000000E-03 0. -1.
        -11    1    3    3    0    0 -0.13648033822E+01  0.62091570632E+01 -0.52536539789E+01  0.82472540944E+01  0.51100000000E-03 0.  1.
        -12    1    3    3    0    0  0.18426217060E+02  0.10037498531E+02 -0.99365025527E+01  0.23216609030E+02  0.00000000000E+00 0.  1.
</event>
<event>
 7    1  0.3383281E-011  0.5052885E+02  0.7816164E-02  0.1300439E+00
        -11   -1    0    0    0    0  0.00000000000E+00  0.00000000000E+00  0.45593999997E+02  0.45594000000E+02  0.51100000000E-03 0.  1.
         11   -1    0    0    0    0 -0.00000000000E+00 -0.00000000000E+00 -0.45593999997E+02  0.45594000000E+02  0.51100000000E-03 0. -1.
    9900012    2    1    2    0    0 -0.20150401584E+02  0.33121974432E+02  0.12249994372E+02  0.50528852980E+02  0.29999979118E+02 0.  0.
         12    1    1    2    0    0  0.20150401584E+02 -0.33121974432E+02 -0.12249994372E+02  0.40659147020E+02  0.00000000000E+00 0. -1.
         11    1    3    3    0    0 -0.46086094388E+01  0.69913753583E+01 -0.36051945888E+01  0.91167998028E+01  0.51100000000E-03 0. -1.
        -11    1    3    3    0    0  0.27336205739E+00  0.18612154739E+02  0.13317382718E+01  0.18661740485E+02  0.51100000000E-03 0.  1.
        -12    1    3    3    0    0 -0.15815154202E+02  0.75184443344E+01  0.14523450689E+02  0.22750312692E+02  0.00000000000E+00 0.  1.
</event>
<event>
 7    1  0.3383281E-011  0.5052885E+02  0.7816164E-02  0.1300439E+00
        -11   -1    0    0    0    0  0.00000000000E+00  0.00000000000E+00  0.45593999997E+02  0.45594000000E+02  0.51100000000E-03 0.  1.
         11   -1    0    0    0    0 -0.00000000000E+00 -0.00000000000E+00 -0.45593999997E+02  0.45594000000E+02  0.51100000000E-03 0. -1.
    9900012    2    1    2    0    0 -0.48215161276E+01 -0.32961807407E+02  0.23311764754E+02  0.50528854150E+02  0.29999982675E+02 0.  0.
         12    1    1    2    0    0  0.48215161276E+01  0.32961807407E+02 -0.23311764754E+02  0.40659145850E+02  0.00000000000E+00 0. -1.
         11    1    3    3    0    0  0.41175014351E+01 -0.63299785169E+01 -0.14014693597E+00  0.75526212349E+01  0.51100000000E-03 0. -1.
        -11    1    3    3    0    0 -0.25041466972E+01 -0.13303447616E+01 -0.41225283448E+01  0.50035795268E+01  0.51100000000E-03 0.  1.
        -12    1    3    3    0    0 -0.64348708655E+01 -0.25301484128E+02  0.27574440035E+02  0.37972653389E+02  0.00000000000E+00 0.  1.
</event>
<event>
 7    1  0.3383281E-011  0.5052886E+02  0.7816164E-02  0.1300439E+00
        -11   -1    0    0    0    0  0.00000000000E+00  0.00000000000E+00  0.45593999997E+02  0.45594000000E+02  0.51100000000E-03 0.  1.
         11   -1    0    0    0    0 -0.00000000000E+00 -0.00000000000E+00 -0.45593999997E+02  0.45594000000E+02  0.51100000000E-03 0. -1.
    9900012    2    1    2    0    0 -0.22332254707E+02 -0.20820151034E+02  0.26850654905E+02  0.50528856401E+02  0.29999989518E+02 0.  0.
         12    1    1    2    0    0  0.22332254707E+02  0.20820151034E+02 -0.26850654905E+02  0.40659143599E+02  0.00000000000E+00 0. -1.
         11    1    3    3    0    0 -0.71942420265E+00 -0.67772167829E+01 -0.23685323492E+01  0.72151357753E+01  0.51100000000E-03 0. -1.
        -11    1    3    3    0    0 -0.10533456321E+02 -0.47020329310E+01  0.98444426388E+00  0.11577216700E+02  0.51100000000E-03 0.  1.
        -12    1    3    3    0    0 -0.11079374184E+02 -0.93409013200E+01  0.28234742990E+02  0.31736503926E+02  0.00000000000E+00 0.  1.
</event>
<event>
 7    1  0.3383281E-011  0.5052887E+02  0.7816164E-02  0.1300439E+00
        -11   -1    0    0    0    0  0.00000000000E+00  0.00000000000E+00  0.45593999997E+02  0.45594000000E+02  0.51100000000E-03 0.  1.
         11   -1    0    0    0    0 -0.00000000000E+00 -0.00000000000E+00 -0.45593999997E+02  0.45594000000E+02  0.51100000000E-03 0. -1.
    9900012    2    1    2    0    0  0.63401082764E+01 -0.69175033187E+01  0.39561544217E+02  0.50528873030E+02  0.30000040063E+02 0.  0.
         12    1    1    2    0    0 -0.63401082764E+01  0.69175033187E+01 -0.39561544217E+02  0.40659126970E+02  0.00000000000E+00 0. -1.
         11    1    3    3    0    0  0.21735351186E+01 -0.10669075872E+01 -0.31493572282E+01  0.39725304182E+01  0.51100000000E-03 0. -1.
        -11    1    3    3    0    0 -0.40238315518E+01 -0.25455726839E-01  0.17632789594E+01  0.43932927629E+01  0.51100000000E-03 0.  1.
        -12    1    3    3    0    0  0.81904047095E+01 -0.58251400047E+01  0.40947622485E+02  0.42163049849E+02  0.00000000000E+00 0.  1.
</event>
<event>
 7    1  0.3383281E-011  0.5052886E+02  0.7816164E-02  0.1300439E+00
        -11   -1    0    0    0    0  0.00000000000E+00  0.00000000000E+00  0.45593999997E+02  0.45594000000E+02  0.51100000000E-03 0.  1.
         11   -1    0    0    0    0 -0.00000000000E+00 -0.00000000000E+00 -0.45593999997E+02  0.45594000000E+02  0.51100000000E-03 0. -1.
    9900012    2    1    2    0    0  0.68621566530E+01 -0.34883467003E+02  0.19728663174E+02  0.50528860625E+02  0.30000002355E+02 0.  0.
         12    1    1    2    0    0 -0.68621566530E+01  0.34883467003E+02 -0.19728663174E+02  0.40659139375E+02  0.00000000000E+00 0. -1.
         11    1    3    3    0    0  0.60102599972E+01 -0.81324614720E+00 -0.16704360148E+01  0.62908625220E+01  0.51100000000E-03 0. -1.
        -11    1    3    3    0    0  0.87485092285E+01 -0.20312667985E+02  0.81512662012E+01  0.23570830179E+02  0.51100000000E-03 0.  1.
         12    1    3    3    0    0 -0.78966125727E+01 -0.13757552872E+02  0.13247832987E+02  0.20667167924E+02  0.00000000000E+00 0. -1.
</event>
<event>
 7    1  0.3383281E-011  0.5052886E+02  0.7816164E-02  0.1300439E+00
        -11   -1    0    0    0    0  0.00000000000E+00  0.00000000000E+00  0.45593999997E+02  0.45594000000E+02  0.51100000000E-03 0. -1.
         11   -1    0    0    0    0 -0.00000000000E+00 -0.00000000000E+00 -0.45593999997E+02  0.45594000000E+02  0.51100000000E-03 0.  1.
    9900012    2    1    2    0    0 -0.40280987010E+02  0.50562623796E+01 -0.22453667140E+01  0.50528863568E+02  0.30000011300E+02 0.  0.
         12    1    1    2    0    0  0.40280987010E+02 -0.50562623796E+01  0.22453667140E+01  0.40659136432E+02  0.00000000000E+00 0. -1.
         11    1    3    3    0    0 -0.31496736871E+02 -0.52154516909E+01  0.12567945770E+01  0.31950350589E+02  0.51100000000E-03 0.  1.
        -11    1    3    3    0    0 -0.21720131280E-01  0.33044183816E+01  0.39349502405E+01  0.51384322766E+01  0.51100000000E-03 0. -1.
        -12    1    3    3    0    0 -0.87625300074E+01  0.69672956889E+01 -0.74371115315E+01  0.13440080702E+02  0.00000000000E+00 0.  1.
</event>
<event>
 7    1  0.3383281E-011  0.5052885E+02  0.7816164E-02  0.1300439E+00
        -11   -1    0    0    0    0  0.00000000000E+00  0.00000000000E+00  0.45593999997E+02  0.45594000000E+02  0.51100000000E-03 0.  1.
         11   -1    0    0    0    0 -0.00000000000E+00 -0.00000000000E+00 -0.45593999997E+02  0.45594000000E+02  0.51100000000E-03 0. -1.
    9900012    2    1    2    0    0 -0.15088544003E+02 -0.65436199288E+00  0.37750158814E+02  0.50528845554E+02  0.29999956546E+02 0.  0.
         12    1    1    2    0    0  0.15088544003E+02  0.65436199288E+00 -0.37750158814E+02  0.40659154446E+02  0.00000000000E+00 0. -1.
         11    1    3    3    0    0 -0.44208699815E+01 -0.19774585541E+01  0.63683105881E+01  0.80006133349E+01  0.51100000000E-03 0. -1.
        -11    1    3    3    0    0 -0.75889508550E+01 -0.11891489809E+02  0.21611522101E+02  0.25808091614E+02  0.51100000000E-03 0.  1.
         12    1    3    3    0    0 -0.30787231665E+01  0.13214586370E+02  0.97703261249E+01  0.16720140605E+02  0.00000000000E+00 0. -1.
</event>
<event>
 7    1  0.5594567E-011  0.5052885E+02  0.7816164E-02  0.1300439E+00
        -11   -1    0    0    0    0  0.00000000000E+00  0.00000000000E+00  0.45593999997E+02  0.45594000000E+02  0.51100000000E-03 0. -1.
         11   -1    0    0    0    0 -0.00000000000E+00 -0.00000000000E+00 -0.45593999997E+02  0.45594000000E+02  0.51100000000E-03 0.  1.
    9900012    2    1    2    0    0  0.40408481366E+02 -0.14367976337E+00 -0.45056207569E+01  0.50528848157E+02  0.29999964457E+02 0.  0.
         12    1    1    2    0    0 -0.40408481366E+02  0.14367976337E+00  0.45056207569E+01  0.40659151843E+02  0.00000000000E+00 0. -1.
         11    1    3    3    0    0  0.71328446455E+01 -0.80508787812E+01 -0.19621661683E+01  0.10933627862E+02  0.51100000000E-03 0. -1.
        -11    1    3    3    0    0  0.22660587838E+02 -0.44724982294E+01 -0.29317098205E+01  0.23283049721E+02  0.51100000000E-03 0.  1.
         12    1    3    3    0    0  0.10615048883E+02  0.12379697247E+02  0.38825523180E+00  0.16312170574E+02  0.00000000000E+00 0. -1.
</event>
<event>
 7    1  0.3383281E-011  0.5052884E+02  0.7816164E-02  0.1300439E+00
        -11   -1    0    0    0    0  0.00000000000E+00  0.00000000000E+00  0.45593999997E+02  0.45594000000E+02  0.51100000000E-03 0. -1.
         11   -1    0    0    0    0 -0.00000000000E+00 -0.00000000000E+00 -0.45593999997E+02  0.45594000000E+02  0.51100000000E-03 0.  1.
    9900012    2    1    2    0    0  0.28271593771E+02 -0.76491447322E+01 -0.28202392305E+02  0.50528839147E+02  0.29999937072E+02 0.  0.
         12    1    1    2    0    0 -0.28271593771E+02  0.76491447322E+01  0.28202392305E+02  0.40659160853E+02  0.00000000000E+00 0. -1.
         11    1    3    3    0    0  0.21318543138E+02  0.10282133551E+01 -0.16945258191E+02  0.27252142662E+02  0.51100000000E-03 0. -1.
        -11    1    3    3    0    0  0.12516328789E+02 -0.53400720216E+01 -0.93646012075E+01  0.16518795707E+02  0.51100000000E-03 0.  1.
         12    1    3    3    0    0 -0.55632781565E+01 -0.33372860658E+01 -0.18925329067E+01  0.67579007787E+01  0.00000000000E+00 0. -1.
</event>
<event>
 7    1  0.3383281E-011  0.5052887E+02  0.7816164E-02  0.1300439E+00
        -11   -1    0    0    0    0  0.00000000000E+00  0.00000000000E+00  0.45593999997E+02  0.45594000000E+02  0.51100000000E-03 0. -1.
         11   -1    0    0    0    0 -0.00000000000E+00 -0.00000000000E+00 -0.45593999997E+02  0.45594000000E+02  0.51100000000E-03 0.  1.
    9900012    2    1    2    0    0 -0.47857397630E+01  0.79914236024E+01 -0.39577757794E+02  0.50528867344E+02  0.30000022780E+02 0.  0.
         12    1    1    2    0    0  0.47857397630E+01 -0.79914236024E+01  0.39577757794E+02  0.40659132656E+02  0.00000000000E+00 0. -1.
         11    1    3    3    0    0 -0.70797483058E+01  0.39745253309E+01 -0.16294852769E+02  0.18205546262E+02  0.51100000000E-03 0.  1.
        -11    1    3    3    0    0  0.78944852536E+01  0.88544181308E+01 -0.21736728089E+02  0.24763056478E+02  0.51100000000E-03 0. -1.
         12    1    3    3    0    0 -0.56004767107E+01 -0.48375198593E+01 -0.15461769372E+01  0.75602646050E+01  0.00000000000E+00 0. -1.
</event>
<event>
 7    1  0.3383281E-011  0.5052885E+02  0.7816164E-02  0.1300439E+00
        -11   -1    0    0    0    0  0.00000000000E+00  0.00000000000E+00  0.45593999997E+02  0.45594000000E+02  0.51100000000E-03 0.  1.
         11   -1    0    0    0    0 -0.00000000000E+00 -0.00000000000E+00 -0.45593999997E+02  0.45594000000E+02  0.51100000000E-03 0. -1.
    9900012    2    1    2    0    0  0.29890823219E+02 -0.95872658346E+01  0.25841616356E+02  0.50528854476E+02  0.29999983665E+02 0.  0.
         12    1    1    2    0    0 -0.29890823219E+02  0.95872658346E+01 -0.25841616356E+02  0.40659145524E+02  0.00000000000E+00 0. -1.
         11    1    3    3    0    0  0.92891407249E+01 -0.53989569806E+01  0.14987573037E+02  0.18440830179E+02  0.51100000000E-03 0. -1.
        -11    1    3    3    0    0  0.16713696127E+02 -0.10465440571E+02  0.13873154292E+02  0.24110941393E+02  0.51100000000E-03 0.  1.
         12    1    3    3    0    0  0.38879863668E+01  0.62771317174E+01 -0.30191109735E+01  0.79770829039E+01  0.00000000000E+00 0. -1.
</event>
<event>
 7    1  0.3383281E-011  0.5052885E+02  0.7816164E-02  0.1300439E+00
        -11   -1    0    0    0    0  0.00000000000E+00  0.00000000000E+00  0.45593999997E+02  0.45594000000E+02  0.51100000000E-03 0.  1.
         11   -1    0    0    0    0 -0.00000000000E+00 -0.00000000000E+00 -0.45593999997E+02  0.45594000000E+02  0.51100000000E-03 0. -1.
    9900012    2    1    2    0    0 -0.11424751313E+02 -0.23774545992E+02  0.30942089027E+02  0.50528845397E+02  0.29999956070E+02 0.  0.
         12    1    1    2    0    0  0.11424751313E+02  0.23774545992E+02 -0.30942089027E+02  0.40659154603E+02  0.00000000000E+00 0. -1.
         11    1    3    3    0    0  0.37542548020E+01 -0.32246454767E+01  0.10887962413E+01  0.50673706283E+01  0.51100000000E-03 0. -1.
        -11    1    3    3    0    0  0.30626112359E+01  0.20052212179E+01 -0.23319794670E+00  0.36680895925E+01  0.51100000000E-03 0.  1.
        -12    1    3    3    0    0 -0.18241617351E+02 -0.22555121733E+02  0.30086490732E+02  0.41793385177E+02  0.00000000000E+00 0.  1.
</event>
<event>
 7    1  0.3383281E-011  0.5052884E+02  0.7816164E-02  0.1300439E+00
        -11   -1    0    0    0    0  0.00000000000E+00  0.00000000000E+00  0.45593999997E+02  0.45594000000E+02  0.51100000000E-03 0.  1.
         11   -1    0    0    0    0 -0.00000000000E+00 -0.00000000000E+00 -0.45593999997E+02  0.45594000000E+02  0.51100000000E-03 0. -1.
    9900012    2    1    2    0    0 -0.25615569207E+02  0.19932795593E+02  0.24488639074E+02  0.50528841504E+02  0.29999944235E+02 0.  0.
         12    1    1    2    0    0  0.25615569207E+02 -0.19932795593E+02 -0.24488639074E+02  0.40659158496E+02  0.00000000000E+00 0. -1.
         11    1    3    3    0    0 -0.12969592277E+02  0.97481487387E+01  0.23082939480E+01  0.16387951333E+02  0.51100000000E-03 0.  1.
        -11    1    3    3    0    0 -0.51046220239E+01 -0.59371194245E+01  0.43933141199E+01  0.89781825714E+01  0.51100000000E-03 0. -1.
        -12    1    3    3    0    0 -0.75413549054E+01  0.16121766279E+02  0.17787031006E+02  0.25162707600E+02  0.00000000000E+00 0.  1.
</event>
<event>
 7    1  0.3383281E-011  0.5052885E+02  0.7816164E-02  0.1300439E+00
        -11   -1    0    0    0    0  0.00000000000E+00  0.00000000000E+00  0.45593999997E+02  0.45594000000E+02  0.51100000000E-03 0. -1.
         11   -1    0    0    0    0 -0.00000000000E+00 -0.00000000000E+00 -0.45593999997E+02  0.45594000000E+02  0.51100000000E-03 0.  1.
    9900012    2    1    2    0    0 -0.29369422459E+02 -0.41602224828E+01 -0.27808195806E+02  0.50528853666E+02  0.29999981202E+02 0.  0.
         12    1    1    2    0    0  0.29369422459E+02  0.41602224828E+01  0.27808195806E+02  0.40659146334E+02  0.00000000000E+00 0. -1.
         11    1    3    3    0    0 -0.49666697459E+01 -0.42620541518E+01  0.22623348702E+01  0.69246713484E+01  0.51100000000E-03 0. -1.
        -11    1    3    3    0    0 -0.35497186630E+01  0.16437195678E+01  0.26842084897E+01  0.47441850809E+01  0.51100000000E-03 0.  1.
        -12    1    3    3    0    0 -0.20853034050E+02 -0.15418878989E+01 -0.32754739166E+02  0.38859997236E+02  0.00000000000E+00 0.  1.
</event>
<event>
 7    1  0.3383281E-011  0.5052886E+02  0.7816164E-02  0.1300439E+00
        -11   -1    0    0    0    0  0.00000000000E+00  0.00000000000E+00  0.45593999997E+02  0.45594000000E+02  0.51100000000E-03 0.  1.
         11   -1    0    0    0    0 -0.00000000000E+00 -0.00000000000E+00 -0.45593999997E+02  0.45594000000E+02  0.51100000000E-03 0. -1.
    9900012    2    1    2    0    0 -0.40066981108E+02 -0.60268274897E+01  0.33882162584E+01  0.50528860386E+02  0.30000001630E+02 0.  0.
         12    1    1    2    0    0  0.40066981108E+02  0.60268274897E+01 -0.33882162584E+01  0.40659139614E+02  0.00000000000E+00 0. -1.
         11    1    3    3    0    0 -0.16505195917E+02  0.17085723889E+01  0.94816119506E+01  0.19111297112E+02  0.51100000000E-03 0. -1.
        -11    1    3    3    0    0 -0.18689068452E+02 -0.81830611895E+00  0.30567075711E+01  0.18955061750E+02  0.51100000000E-03 0.  1.
         12    1    3    3    0    0 -0.48727167392E+01 -0.69170937597E+01 -0.91501032634E+01  0.12462501524E+02  0.00000000000E+00 0. -1.
</event>
<event>
 7    1  0.3383281E-011  0.5052886E+02  0.7816164E-02  0.1300439E+00
        -11   -1    0    0    0    0  0.00000000000E+00  0.00000000000E+00  0.45593999997E+02  0.45594000000E+02  0.51100000000E-03 0. -1.
         11   -1    0    0    0    0 -0.00000000000E+00 -0.00000000000E+00 -0.45593999997E+02  0.45594000000E+02  0.51100000000E-03 0.  1.
    9900012    2    1    2    0    0  0.19899922873E+02 -0.34695824162E+02 -0.73046869141E+01  0.50528860861E+02  0.30000003072E+02 0.  0.
         12    1    1    2    0    0 -0.19899922873E+02  0.34695824162E+02  0.73046869141E+01  0.40659139139E+02  0.00000000000E+00 0. -1.
         11    1    3    3    0    0  0.52269586881E+01 -0.28978648290E+01  0.10896362630E+01  0.60750329333E+01  0.51100000000E-03 0. -1.
        -11    1    3    3    0    0 -0.11469576746E+01  0.41821990263E+01 -0.51174365579E+00  0.43667130010E+01  0.51100000000E-03 0.  1.
        -12    1    3    3    0    0  0.15819921860E+02 -0.35980158359E+02 -0.78825795213E+01  0.40087114926E+02  0.00000000000E+00 0.  1.
</event>
<event>
 7    1  0.3383281E-011  0.5052886E+02  0.7816164E-02  0.1300439E+00
        -11   -1    0    0    0    0  0.00000000000E+00  0.00000000000E+00  0.45593999997E+02  0.45594000000E+02  0.51100000000E-03 0.  1.
         11   -1    0    0    0    0 -0.00000000000E+00 -0.00000000000E+00 -0.45593999997E+02  0.45594000000E+02  0.51100000000E-03 0. -1.
    9900012    2    1    2    0    0 -0.60405270930E+01  0.14131253461E+02  0.37642862396E+02  0.50528863495E+02  0.30000011080E+02 0.  0.
         12    1    1    2    0    0  0.60405270930E+01 -0.14131253461E+02 -0.37642862396E+02  0.40659136505E+02  0.00000000000E+00 0. -1.
         11    1    3    3    0    0 -0.30577930416E+01  0.67326827094E+01  0.28145907633E+01  0.79120816588E+01  0.51100000000E-03 0. -1.
        -11    1    3    3    0    0 -0.29486905869E+01 -0.79697341674E+01  0.78523143364E+01  0.11570232477E+02  0.51100000000E-03 0.  1.
         12    1    3    3    0    0 -0.34043464435E-01  0.15368304919E+02  0.26975957296E+02  0.31046549359E+02  0.00000000000E+00 0. -1.
</event>
<event>
 7    1  0.3383281E-011  0.5052886E+02  0.7816164E-02  0.1300439E+00
        -11   -1    0    0    0    0  0.00000000000E+00  0.00000000000E+00  0.45593999997E+02  0.45594000000E+02  0.51100000000E-03 0.  1.
         11   -1    0    0    0    0 -0.00000000000E+00 -0.00000000000E+00 -0.45593999997E+02  0.45594000000E+02  0.51100000000E-03 0. -1.
    9900012    2    1    2    0    0  0.35776598575E+02  0.38318963009E+01  0.18934551751E+02  0.50528859762E+02  0.29999999734E+02 0.  0.
         12    1    1    2    0    0 -0.35776598575E+02 -0.38318963009E+01 -0.18934551751E+02  0.40659140238E+02  0.00000000000E+00 0. -1.
         11    1    3    3    0    0  0.52063658392E+01 -0.25684788459E+01 -0.12199944032E+01  0.59322605673E+01  0.51100000000E-03 0. -1.
        -11    1    3    3    0    0  0.11392190400E+01 -0.70528047927E+01  0.57709427800E+01  0.91838802418E+01  0.51100000000E-03 0.  1.
        -12    1    3    3    0    0  0.29431013696E+02  0.13453179940E+02  0.14383603374E+02  0.35412718953E+02  0.00000000000E+00 0.  1.
</event>
<event>
 7    1  0.3383281E-011  0.5052888E+02  0.7816164E-02  0.1300439E+00
        -11   -1    0    0    0    0  0.00000000000E+00  0.00000000000E+00  0.45593999997E+02  0.45594000000E+02  0.51100000000E-03 0. -1.
         11   -1    0    0    0    0 -0.00000000000E+00 -0.00000000000E+00 -0.45593999997E+02  0.45594000000E+02  0.51100000000E-03 0.  1.
    9900012    2    1    2    0    0 -0.34941243101E+02  0.11255900988E+02 -0.17480785786E+02  0.50528884808E+02  0.30000075863E+02 0.  0.
         12    1    1    2    0    0  0.34941243101E+02 -0.11255900988E+02  0.17480785786E+02  0.40659115192E+02  0.00000000000E+00 0. -1.
         11    1    3    3    0    0 -0.80196772115E+00  0.58964247258E+01 -0.41259282611E+01  0.72411505336E+01  0.51100000000E-03 0. -1.
        -11    1    3    3    0    0 -0.70322284010E+00  0.74032187778E+01 -0.42866912983E+01  0.85835827708E+01  0.51100000000E-03 0.  1.
        -12    1    3    3    0    0 -0.33436052539E+02 -0.20437425152E+01 -0.90681662266E+01  0.34704151504E+02  0.00000000000E+00 0.  1.
</event>
<event>
 7    1  0.3383281E-011  0.5052886E+02  0.7816164E-02  0.1300439E+00
        -11   -1    0    0    0    0  0.00000000000E+00  0.00000000000E+00  0.45593999997E+02  0.45594000000E+02  0.51100000000E-03 0.  1.
         11   -1    0    0    0    0 -0.00000000000E+00 -0.00000000000E+00 -0.45593999997E+02  0.45594000000E+02  0.51100000000E-03 0. -1.
    9900012    2    1    2    0    0 -0.35816148782E+02 -0.12616585001E+02  0.14532420222E+02  0.50528856279E+02  0.29999989145E+02 0.  0.
         12    1    1    2    0    0  0.35816148782E+02  0.12616585001E+02 -0.14532420222E+02  0.40659143721E+02  0.00000000000E+00 0. -1.
         11    1    3    3    0    0 -0.20080437299E+02 -0.16344413486E+01 -0.22616574838E+01  0.20273392797E+02  0.51100000000E-03 0. -1.
        -11    1    3    3    0    0 -0.10895551621E+02  0.17707039688E+01  0.45983600922E+01  0.11957982835E+02  0.51100000000E-03 0.  1.
        -12    1    3    3    0    0 -0.48401598613E+01 -0.12752847621E+02  0.12195717613E+02  0.18297480647E+02  0.00000000000E+00 0.  1.
</event>
<event>
 7    1  0.3383281E-011  0.5052886E+02  0.7816164E-02  0.1300439E+00
        -11   -1    0    0    0    0  0.00000000000E+00  0.00000000000E+00  0.45593999997E+02  0.45594000000E+02  0.51100000000E-03 0.  1.
         11   -1    0    0    0    0 -0.00000000000E+00 -0.00000000000E+00 -0.45593999997E+02  0.45594000000E+02  0.51100000000E-03 0. -1.
    9900012    2    1    2    0    0 -0.32937098398E+02 -0.16799342587E+02  0.16914344535E+02  0.50528863102E+02  0.30000009885E+02 0.  0.
         12    1    1    2    0    0  0.32937098398E+02  0.16799342587E+02 -0.16914344535E+02  0.40659136898E+02  0.00000000000E+00 0. -1.
         11    1    3    3    0    0 -0.19955294687E+01 -0.36697175531E+01  0.25082311026E+01  0.48723904097E+01  0.51100000000E-03 0. -1.
        -11    1    3    3    0    0 -0.19222439120E+02 -0.41850841371E+01  0.21630810418E+02  0.29238827859E+02  0.51100000000E-03 0.  1.
         12    1    3    3    0    0 -0.11719129809E+02 -0.89445408971E+01 -0.72246969855E+01  0.16417644833E+02  0.00000000000E+00 0. -1.
</event>
<event>
 7    1  0.3383281E-011  0.5052886E+02  0.7816164E-02  0.1300439E+00
        -11   -1    0    0    0    0  0.00000000000E+00  0.00000000000E+00  0.45593999997E+02  0.45594000000E+02  0.51100000000E-03 0.  1.
         11   -1    0    0    0    0 -0.00000000000E+00 -0.00000000000E+00 -0.45593999997E+02  0.45594000000E+02  0.51100000000E-03 0. -1.
    9900012    2    1    2    0    0 -0.35692059400E+02  0.13002269687E+02  0.14497712258E+02  0.50528858569E+02  0.29999996106E+02 0.  0.
         12    1    1    2    0    0  0.35692059400E+02 -0.13002269687E+02 -0.14497712258E+02  0.40659141431E+02  0.00000000000E+00 0. -1.
         11    1    3    3    0    0 -0.13728990002E+02  0.39876804092E+01  0.52005957105E+01  0.15212920743E+02  0.51100000000E-03 0. -1.
        -11    1    3    3    0    0 -0.27386907504E+02  0.72096727325E+01  0.71399307576E+01  0.29206175632E+02  0.51100000000E-03 0.  1.
         12    1    3    3    0    0  0.54238381062E+01  0.18049165448E+01  0.21571857896E+01  0.61097621940E+01  0.00000000000E+00 0. -1.
</event>
<event>
 7    1  0.3383281E-011  0.5052886E+02  0.7816164E-02  0.1300439E+00
        -11   -1    0    0    0    0  0.00000000000E+00  0.00000000000E+00  0.45593999997E+02  0.45594000000E+02  0.51100000000E-03 0. -1.
         11   -1    0    0    0    0 -0.00000000000E+00 -0.00000000000E+00 -0.45593999997E+02  0.45594000000E+02  0.51100000000E-03 0.  1.
    9900012    2    1    2    0    0 -0.26775517951E+02  0.99656078214E+00 -0.30581767860E+02  0.50528855636E+02  0.29999987192E+02 0.  0.
         12    1    1    2    0    0  0.26775517951E+02 -0.99656078214E+00  0.30581767860E+02  0.40659144364E+02  0.00000000000E+00 0. -1.
         11    1    3    3    0    0 -0.12961991987E+02  0.68171716036E+01 -0.83031223210E+01  0.16835346907E+02  0.51100000000E-03 0. -1.
        -11    1    3    3    0    0 -0.16147384184E+02  0.22469027066E+01 -0.11148446251E+02  0.19750302322E+02  0.51100000000E-03 0.  1.
         12    1    3    3    0    0  0.23338582194E+01 -0.80675135280E+01 -0.11130199288E+02  0.13943206407E+02  0.00000000000E+00 0. -1.
</event>
<event>
 7    1  0.3383281E-011  0.5052887E+02  0.7816164E-02  0.1300439E+00
        -11   -1    0    0    0    0  0.00000000000E+00  0.00000000000E+00  0.45593999997E+02  0.45594000000E+02  0.51100000000E-03 0.  1.
         11   -1    0    0    0    0 -0.00000000000E+00 -0.00000000000E+00 -0.45593999997E+02  0.45594000000E+02  0.51100000000E-03 0. -1.
    9900012    2    1    2    0    0  0.72209334325E-01  0.39366583999E+02  0.10170150564E+02  0.50528866802E+02  0.30000021131E+02 0.  0.
         12    1    1    2    0    0 -0.72209334325E-01 -0.39366583999E+02 -0.10170150564E+02  0.40659133198E+02  0.00000000000E+00 0. -1.
         11    1    3    3    0    0  0.73103885602E+00  0.10742360545E+01  0.32359124116E+01  0.34870518073E+01  0.51100000000E-03 0. -1.
        -11    1    3    3    0    0 -0.27326449324E+01 -0.27830778548E+01  0.43359249811E+01  0.58320765063E+01  0.51100000000E-03 0.  1.
        -12    1    3    3    0    0  0.20738154107E+01  0.41075425799E+02  0.25983131714E+01  0.41209738488E+02  0.00000000000E+00 0.  1.
</event>
<event>
 7    1  0.3383281E-011  0.5052886E+02  0.7816164E-02  0.1300439E+00
        -11   -1    0    0    0    0  0.00000000000E+00  0.00000000000E+00  0.45593999997E+02  0.45594000000E+02  0.51100000000E-03 0.  1.
         11   -1    0    0    0    0 -0.00000000000E+00 -0.00000000000E+00 -0.45593999997E+02  0.45594000000E+02  0.51100000000E-03 0. -1.
    9900012    2    1    2    0    0  0.32796517971E+02  0.38976851111E+01  0.23714176708E+02  0.50528859365E+02  0.29999998526E+02 0.  0.
         12    1    1    2    0    0 -0.32796517971E+02 -0.38976851111E+01 -0.23714176708E+02  0.40659140635E+02  0.00000000000E+00 0. -1.
         11    1    3    3    0    0 -0.15451526197E+01  0.21037967993E+01  0.43981511235E+01  0.51144101476E+01  0.51100000000E-03 0. -1.
        -11    1    3    3    0    0 -0.29195566372E+01 -0.46654810463E+00  0.42091746049E+01  0.51437952144E+01  0.51100000000E-03 0.  1.
        -12    1    3    3    0    0  0.37261227228E+02  0.22604364164E+01  0.15106850979E+02  0.40270654003E+02  0.00000000000E+00 0.  1.
</event>
<event>
 7    1  0.3383281E-011  0.5052885E+02  0.7816164E-02  0.1300439E+00
        -11   -1    0    0    0    0  0.00000000000E+00  0.00000000000E+00  0.45593999997E+02  0.45594000000E+02  0.51100000000E-03 0.  1.
         11   -1    0    0    0    0 -0.00000000000E+00 -0.00000000000E+00 -0.45593999997E+02  0.45594000000E+02  0.51100000000E-03 0. -1.
    9900012    2    1    2    0    0  0.77679975964E+01 -0.16957360040E+02  0.36128557345E+02  0.50528849713E+02  0.29999969188E+02 0.  0.
         12    1    1    2    0    0 -0.77679975964E+01  0.16957360040E+02 -0.36128557345E+02  0.40659150287E+02  0.00000000000E+00 0. -1.
         11    1    3    3    0    0 -0.45937769703E+01 -0.27931704670E+00  0.15217854655E+02  0.15898550419E+02  0.51100000000E-03 0. -1.
        -11    1    3    3    0    0 -0.10759338098E+01  0.43947057723E+00  0.10396969429E+02  0.10461727464E+02  0.51100000000E-03 0.  1.
         12    1    3    3    0    0  0.13437708376E+02 -0.17117513571E+02  0.10513733261E+02  0.24168571831E+02  0.00000000000E+00 0. -1.
</event>
<event>
 7    1  0.3383281E-011  0.5052885E+02  0.7816164E-02  0.1300439E+00
        -11   -1    0    0    0    0  0.00000000000E+00  0.00000000000E+00  0.45593999997E+02  0.45594000000E+02  0.51100000000E-03 0.  1.
         11   -1    0    0    0    0 -0.00000000000E+00 -0.00000000000E+00 -0.45593999997E+02  0.45594000000E+02  0.51100000000E-03 0. -1.
    9900012    2    1    2    0    0 -0.11270780387E+02 -0.38505026619E+02  0.65953786270E+01  0.50528848697E+02  0.29999966098E+02 0.  0.
         12    1    1    2    0    0  0.11270780387E+02  0.38505026619E+02 -0.65953786270E+01  0.40659151303E+02  0.00000000000E+00 0. -1.
         11    1    3    3    0    0 -0.11493906080E+02 -0.24650235251E+02  0.53111476218E+00  0.27203419969E+02  0.51100000000E-03 0. -1.
        -11    1    3    3    0    0 -0.84064783496E+01 -0.95976723438E+01  0.21563763853E+01  0.12939634927E+02  0.51100000000E-03 0.  1.
         12    1    3    3    0    0  0.86296040422E+01 -0.42571190247E+01  0.39078874795E+01  0.10385793801E+02  0.00000000000E+00 0. -1.
</event>
<event>
 7    1  0.3383281E-011  0.5052889E+02  0.7816164E-02  0.1300439E+00
        -11   -1    0    0    0    0  0.00000000000E+00  0.00000000000E+00  0.45593999997E+02  0.45594000000E+02  0.51100000000E-03 0.  1.
         11   -1    0    0    0    0 -0.00000000000E+00 -0.00000000000E+00 -0.45593999997E+02  0.45594000000E+02  0.51100000000E-03 0. -1.
    9900012    2    1    2    0    0 -0.26806134017E+01  0.24692998159E+02  0.32190575695E+02  0.50528892658E+02  0.30000099723E+02 0.  0.
         12    1    1    2    0    0  0.26806134017E+01 -0.24692998159E+02 -0.32190575695E+02  0.40659107342E+02  0.00000000000E+00 0. -1.
         11    1    3    3    0    0 -0.21484909191E+01  0.45084410292E+00 -0.25476848335E+01  0.33630301674E+01  0.51100000000E-03 0. -1.
        -11    1    3    3    0    0 -0.63993010982E+01  0.13264265722E+02  0.61020659365E+01  0.15941361568E+02  0.51100000000E-03 0.  1.
         12    1    3    3    0    0  0.58671786156E+01  0.10977888334E+02  0.28636194592E+02  0.31224500923E+02  0.00000000000E+00 0. -1.
</event>
<event>
 7    1  0.3383281E-011  0.5052886E+02  0.7816164E-02  0.1300439E+00
        -11   -1    0    0    0    0  0.00000000000E+00  0.00000000000E+00  0.45593999997E+02  0.45594000000E+02  0.51100000000E-03 0.  1.
         11   -1    0    0    0    0 -0.00000000000E+00 -0.00000000000E+00 -0.45593999997E+02  0.45594000000E+02  0.51100000000E-03 0. -1.
    9900012    2    1    2    0    0  0.32640062574E+00 -0.28706952238E+02  0.28791840454E+02  0.50528859319E+02  0.29999998385E+02 0.  0.
         12    1    1    2    0    0 -0.32640062574E+00  0.28706952238E+02 -0.28791840454E+02  0.40659140681E+02  0.00000000000E+00 0. -1.
         11    1    3    3    0    0 -0.23360089470E+01 -0.42751262380E+01  0.10878432063E+02  0.11919476774E+02  0.51100000000E-03 0. -1.
        -11    1    3    3    0    0 -0.67925914629E+01 -0.20654750759E+01  0.11464659478E+02  0.13484950993E+02  0.51100000000E-03 0.  1.
         12    1    3    3    0    0  0.94550010357E+01 -0.22366350925E+02  0.64487489132E+01  0.25124431552E+02  0.00000000000E+00 0. -1.
</event>
<event>
 7    1  0.3383281E-011  0.5052886E+02  0.7816164E-02  0.1300439E+00
        -11   -1    0    0    0    0  0.00000000000E+00  0.00000000000E+00  0.45593999997E+02  0.45594000000E+02  0.51100000000E-03 0.  1.
         11   -1    0    0    0    0 -0.00000000000E+00 -0.00000000000E+00 -0.45593999997E+02  0.45594000000E+02  0.51100000000E-03 0. -1.
    9900012    2    1    2    0    0  0.26228063558E+02 -0.24081873734E+02  0.19629506738E+02  0.50528862093E+02  0.30000006818E+02 0.  0.
         12    1    1    2    0    0 -0.26228063558E+02  0.24081873734E+02 -0.19629506738E+02  0.40659137907E+02  0.00000000000E+00 0. -1.
         11    1    3    3    0    0  0.42090924943E+01  0.58214857878E+01  0.68143081894E+01  0.99015631475E+01  0.51100000000E-03 0. -1.
        -11    1    3    3    0    0  0.16068406603E+02 -0.13544024690E+02  0.86653775148E+01  0.22731543355E+02  0.51100000000E-03 0.  1.
        -12    1    3    3    0    0  0.59505644612E+01 -0.16359334832E+02  0.41498210343E+01  0.17895755591E+02  0.00000000000E+00 0.  1.
</event>
<event>
 7    1  0.3383281E-011  0.5052886E+02  0.7816164E-02  0.1300439E+00
        -11   -1    0    0    0    0  0.00000000000E+00  0.00000000000E+00  0.45593999997E+02  0.45594000000E+02  0.51100000000E-03 0.  1.
         11   -1    0    0    0    0 -0.00000000000E+00 -0.00000000000E+00 -0.45593999997E+02  0.45594000000E+02  0.51100000000E-03 0. -1.
    9900012    2    1    2    0    0 -0.16047851480E+02  0.21203359009E+02  0.30757920170E+02  0.50528860516E+02  0.30000002025E+02 0.  0.
         12    1    1    2    0    0  0.16047851480E+02 -0.21203359009E+02 -0.30757920170E+02  0.40659139484E+02  0.00000000000E+00 0. -1.
         11    1    3    3    0    0 -0.65369767801E-01 -0.23009697538E+01  0.10392528987E+02  0.10644406701E+02  0.51100000000E-03 0. -1.
        -11    1    3    3    0    0 -0.19185839991E+02  0.12686368540E+02  0.14113875026E+02  0.26985956930E+02  0.51100000000E-03 0.  1.
        -12    1    3    3    0    0  0.32033582789E+01  0.10817960223E+02  0.62515161564E+01  0.12898496885E+02  0.00000000000E+00 0.  1.
</event>
<event>
 7    1  0.3383281E-011  0.5052883E+02  0.7816164E-02  0.1300439E+00
        -11   -1    0    0    0    0  0.00000000000E+00  0.00000000000E+00  0.45593999997E+02  0.45594000000E+02  0.51100000000E-03 0.  1.
         11   -1    0    0    0    0 -0.00000000000E+00 -0.00000000000E+00 -0.45593999997E+02  0.45594000000E+02  0.51100000000E-03 0. -1.
    9900012    2    1    2    0    0  0.87758455665E+01  0.23507460023E+02  0.31992994360E+02  0.50528833380E+02  0.29999919543E+02 0.  0.
         12    1    1    2    0    0 -0.87758455665E+01 -0.23507460023E+02 -0.31992994360E+02  0.40659166620E+02  0.00000000000E+00 0. -1.
         11    1    3    3    0    0 -0.67803273291E+01 -0.22369026200E+00  0.76297974756E+01  0.10209636908E+02  0.51100000000E-03 0. -1.
        -11    1    3    3    0    0 -0.96857746155E-01  0.10469744157E+02  0.13564243716E+02  0.17135157775E+02  0.51100000000E-03 0.  1.
        -12    1    3    3    0    0  0.15653030642E+02  0.13261406128E+02  0.10798953168E+02  0.23184038697E+02  0.00000000000E+00 0.  1.
</event>
<event>
 7    1  0.3383281E-011  0.5052886E+02  0.7816164E-02  0.1300439E+00
        -11   -1    0    0    0    0  0.00000000000E+00  0.00000000000E+00  0.45593999997E+02  0.45594000000E+02  0.51100000000E-03 0.  1.
         11   -1    0    0    0    0 -0.00000000000E+00 -0.00000000000E+00 -0.45593999997E+02  0.45594000000E+02  0.51100000000E-03 0. -1.
    9900012    2    1    2    0    0  0.29854954812E+02 -0.27048113750E+02 -0.54997252273E+01  0.50528858816E+02  0.29999996858E+02 0.  0.
         12    1    1    2    0    0 -0.29854954812E+02  0.27048113750E+02  0.54997252273E+01  0.40659141184E+02  0.00000000000E+00 0. -1.
         11    1    3    3    0    0  0.13475245325E+02 -0.11373076490E+02 -0.53520148241E+01  0.18427511181E+02  0.51100000000E-03 0.  1.
        -11    1    3    3    0    0  0.11644674172E+02 -0.21365198168E+02 -0.21655262574E+01  0.24428664179E+02  0.51100000000E-03 0. -1.
        -12    1    3    3    0    0  0.47350353149E+01  0.56901609079E+01  0.20178158542E+01  0.76726834558E+01  0.00000000000E+00 0.  1.
</event>
<event>
 7    1  0.3383281E-011  0.5052890E+02  0.7816164E-02  0.1300439E+00
        -11   -1    0    0    0    0  0.00000000000E+00  0.00000000000E+00  0.45593999997E+02  0.45594000000E+02  0.51100000000E-03 0.  1.
         11   -1    0    0    0    0 -0.00000000000E+00 -0.00000000000E+00 -0.45593999997E+02  0.45594000000E+02  0.51100000000E-03 0. -1.
    9900012    2    1    2    0    0  0.30772927244E+02 -0.14137103534E+02  0.22501805841E+02  0.50528904909E+02  0.30000136961E+02 0.  0.
         12    1    1    2    0    0 -0.30772927244E+02  0.14137103534E+02 -0.22501805841E+02  0.40659095091E+02  0.00000000000E+00 0. -1.
         11    1    3    3    0    0  0.10083044636E+01 -0.11703402937E+02 -0.10852395652E+01  0.11796781907E+02  0.51100000000E-03 0. -1.
        -11    1    3    3    0    0  0.28329407970E+00  0.88569422395E+00  0.14215258907E+01  0.16986600346E+01  0.51100000000E-03 0.  1.
         12    1    3    3    0    0  0.29481328701E+02 -0.33193948214E+01  0.22165519516E+02  0.37033462967E+02  0.00000000000E+00 0. -1.
</event>
<event>
 7    1  0.3383281E-011  0.5052890E+02  0.7816164E-02  0.1300439E+00
        -11   -1    0    0    0    0  0.00000000000E+00  0.00000000000E+00  0.45593999997E+02  0.45594000000E+02  0.51100000000E-03 0.  1.
         11   -1    0    0    0    0 -0.00000000000E+00 -0.00000000000E+00 -0.45593999997E+02  0.45594000000E+02  0.51100000000E-03 0. -1.
    9900012    2    1    2    0    0 -0.34056262894E+02 -0.14253362930E+02  0.17034516922E+02  0.50528903061E+02  0.30000131345E+02 0.  0.
         12    1    1    2    0    0  0.34056262894E+02  0.14253362930E+02 -0.17034516922E+02  0.40659096939E+02  0.00000000000E+00 0. -1.
         11    1    3    3    0    0 -0.63515301114E+01  0.54771532393E+01 -0.13255329691E+01  0.84910647315E+01  0.51100000000E-03 0. -1.
        -11    1    3    3    0    0 -0.46066614955E+01 -0.99752861089E+01  0.11793250898E+02  0.16118574071E+02  0.51100000000E-03 0.  1.
        -12    1    3    3    0    0 -0.23098071287E+02 -0.97552300607E+01  0.65667989930E+01  0.25919264259E+02  0.00000000000E+00 0.  1.
</event>
<event>
 7    1  0.3383281E-011  0.5052886E+02  0.7816164E-02  0.1300439E+00
        -11   -1    0    0    0    0  0.00000000000E+00  0.00000000000E+00  0.45593999997E+02  0.45594000000E+02  0.51100000000E-03 0.  1.
         11   -1    0    0    0    0 -0.00000000000E+00 -0.00000000000E+00 -0.45593999997E+02  0.45594000000E+02  0.51100000000E-03 0. -1.
    9900012    2    1    2    0    0 -0.27806885268E+01 -0.37913869582E+02 -0.14421244827E+02  0.50528855423E+02  0.29999986545E+02 0.  0.
         12    1    1    2    0    0  0.27806885268E+01  0.37913869582E+02  0.14421244827E+02  0.40659144577E+02  0.00000000000E+00 0. -1.
         11    1    3    3    0    0 -0.15579980894E+01 -0.24069959620E+01 -0.24811074705E+01  0.37916859244E+01  0.51100000000E-03 0. -1.
        -11    1    3    3    0    0  0.91247244406E+01 -0.32437039259E+02 -0.54247375526E+01  0.34129897301E+02  0.51100000000E-03 0.  1.
        -12    1    3    3    0    0 -0.10347414878E+02 -0.30698343603E+01 -0.65153998042E+01  0.12607272198E+02  0.00000000000E+00 0.  1.
</event>
<event>
 7    1  0.3383281E-011  0.5052886E+02  0.7816164E-02  0.1300439E+00
        -11   -1    0    0    0    0  0.00000000000E+00  0.00000000000E+00  0.45593999997E+02  0.45594000000E+02  0.51100000000E-03 0.  1.
         11   -1    0    0    0    0 -0.00000000000E+00 -0.00000000000E+00 -0.45593999997E+02  0.45594000000E+02  0.51100000000E-03 0. -1.
    9900012    2    1    2    0    0 -0.59546703581E+01 -0.23143010974E+02  0.32895418708E+02  0.50528860462E+02  0.30000001860E+02 0.  0.
         12    1    1    2    0    0  0.59546703581E+01  0.23143010974E+02 -0.32895418708E+02  0.40659139538E+02  0.00000000000E+00 0. -1.
         11    1    3    3    0    0 -0.58641589133E+00 -0.27103106114E+01  0.60555007285E+01  0.66602369734E+01  0.51100000000E-03 0.  1.
        -11    1    3    3    0    0 -0.13829483070E+02 -0.57345474091E+01  0.21284168332E+02  0.26022210856E+02  0.51100000000E-03 0. -1.
         12    1    3    3    0    0  0.84612286033E+01 -0.14698152953E+02  0.55557496475E+01  0.17846412633E+02  0.00000000000E+00 0. -1.
</event>
<event>
 7    1  0.3383281E-011  0.5052887E+02  0.7816164E-02  0.1300439E+00
        -11   -1    0    0    0    0  0.00000000000E+00  0.00000000000E+00  0.45593999997E+02  0.45594000000E+02  0.51100000000E-03 0.  1.
         11   -1    0    0    0    0 -0.00000000000E+00 -0.00000000000E+00 -0.45593999997E+02  0.45594000000E+02  0.51100000000E-03 0. -1.
    9900012    2    1    2    0    0 -0.27054997516E+02 -0.50476416370E+01  0.29928475207E+02  0.50528865664E+02  0.30000017673E+02 0.  0.
         12    1    1    2    0    0  0.27054997516E+02  0.50476416370E+01 -0.29928475207E+02  0.40659134336E+02  0.00000000000E+00 0. -1.
         11    1    3    3    0    0 -0.18894972119E+02 -0.97135484920E+01  0.13385763031E+02  0.25110787480E+02  0.51100000000E-03 0. -1.
        -11    1    3    3    0    0 -0.38149378291E+01 -0.32524877620E+01  0.15542088792E+02  0.16330613937E+02  0.51100000000E-03 0.  1.
         12    1    3    3    0    0 -0.43450875679E+01  0.79183946170E+01  0.10006233845E+01  0.90874642470E+01  0.00000000000E+00 0. -1.
</event>
<event>
 7    1  0.3383281E-011  0.5052886E+02  0.7816164E-02  0.1300439E+00
        -11   -1    0    0    0    0  0.00000000000E+00  0.00000000000E+00  0.45593999997E+02  0.45594000000E+02  0.51100000000E-03 0. -1.
         11   -1    0    0    0    0 -0.00000000000E+00 -0.00000000000E+00 -0.45593999997E+02  0.45594000000E+02  0.51100000000E-03 0.  1.
    9900012    2    1    2    0    0 -0.29654252384E+02  0.14856662962E+02  0.23517449387E+02  0.50528861488E+02  0.30000004979E+02 0.  0.
         12    1    1    2    0    0  0.29654252384E+02 -0.14856662962E+02 -0.23517449387E+02  0.40659138512E+02  0.00000000000E+00 0. -1.
         11    1    3    3    0    0 -0.11313116380E+02  0.67123577053E+01  0.55468133646E+01  0.14276186009E+02  0.51100000000E-03 0. -1.
        -11    1    3    3    0    0 -0.23747692569E+02  0.39305544571E+01  0.10962364795E+02  0.26449491543E+02  0.51100000000E-03 0.  1.
         12    1    3    3    0    0  0.54065565651E+01  0.42137507996E+01  0.70082712277E+01  0.98031839365E+01  0.00000000000E+00 0. -1.
</event>
<event>
 7    1  0.3383281E-011  0.5052885E+02  0.7816164E-02  0.1300439E+00
        -11   -1    0    0    0    0  0.00000000000E+00  0.00000000000E+00  0.45593999997E+02  0.45594000000E+02  0.51100000000E-03 0. -1.
         11   -1    0    0    0    0 -0.00000000000E+00 -0.00000000000E+00 -0.45593999997E+02  0.45594000000E+02  0.51100000000E-03 0.  1.
    9900012    2    1    2    0    0 -0.26719737616E+02 -0.14138872490E+02 -0.27190330439E+02  0.50528853883E+02  0.29999981864E+02 0.  0.
         12    1    1    2    0    0  0.26719737616E+02  0.14138872490E+02  0.27190330439E+02  0.40659146117E+02  0.00000000000E+00 0. -1.
         11    1    3    3    0    0  0.57890103377E+00 -0.51879035608E+01  0.11184308397E+01  0.53385726151E+01  0.51100000000E-03 0. -1.
        -11    1    3    3    0    0 -0.12844821035E+02 -0.47302129469E+01 -0.65610666839E+00  0.13703824947E+02  0.51100000000E-03 0.  1.
        -12    1    3    3    0    0 -0.14453817615E+02 -0.42207559821E+01 -0.27652654610E+02  0.31486456322E+02  0.00000000000E+00 0.  1.
</event>
<event>
 7    1  0.3383281E-011  0.5052892E+02  0.7816164E-02  0.1300439E+00
        -11   -1    0    0    0    0  0.00000000000E+00  0.00000000000E+00  0.45593999997E+02  0.45594000000E+02  0.51100000000E-03 0. -1.
         11   -1    0    0    0    0 -0.00000000000E+00 -0.00000000000E+00 -0.45593999997E+02  0.45594000000E+02  0.51100000000E-03 0.  1.
    9900012    2    1    2    0    0 -0.30237905131E+02 -0.16488329402E+01 -0.27131376945E+02  0.50528915263E+02  0.30000168432E+02 0.  0.
         12    1    1    2    0    0  0.30237905131E+02  0.16488329402E+01  0.27131376945E+02  0.40659084737E+02  0.00000000000E+00 0. -1.
         11    1    3    3    0    0 -0.12964937491E+01 -0.76435840564E+00  0.32302657953E+00  0.15393135633E+01  0.51100000000E-03 0. -1.
        -11    1    3    3    0    0 -0.21736709030E+02  0.12610191249E+02 -0.15023005017E+02  0.29277843548E+02  0.51100000000E-03 0.  1.
         12    1    3    3    0    0 -0.72047023514E+01 -0.13494665783E+02 -0.12431398507E+02  0.19711758152E+02  0.00000000000E+00 0. -1.
</event>
<event>
 7    1  0.3383281E-011  0.5052886E+02  0.7816164E-02  0.1300439E+00
        -11   -1    0    0    0    0  0.00000000000E+00  0.00000000000E+00  0.45593999997E+02  0.45594000000E+02  0.51100000000E-03 0. -1.
         11   -1    0    0    0    0 -0.00000000000E+00 -0.00000000000E+00 -0.45593999997E+02  0.45594000000E+02  0.51100000000E-03 0.  1.
    9900012    2    1    2    0    0  0.31341871997E+02  0.13760275587E+02 -0.21943288342E+02  0.50528855545E+02  0.29999986915E+02 0.  0.
         12    1    1    2    0    0 -0.31341871997E+02 -0.13760275587E+02  0.21943288342E+02  0.40659144455E+02  0.00000000000E+00 0. -1.
         11    1    3    3    0    0  0.99658190794E+01 -0.23112709753E+00 -0.41411828142E+01  0.10794459923E+02  0.51100000000E-03 0. -1.
        -11    1    3    3    0    0  0.21305794820E+02  0.21901272130E-01 -0.84341660975E+01  0.22914461168E+02  0.51100000000E-03 0.  1.
         12    1    3    3    0    0  0.70258098076E-01  0.13969501412E+02 -0.93679394304E+01  0.16819934455E+02  0.00000000000E+00 0. -1.
</event>
<event>
 7    1  0.3383281E-011  0.5052886E+02  0.7816164E-02  0.1300439E+00
        -11   -1    0    0    0    0  0.00000000000E+00  0.00000000000E+00  0.45593999997E+02  0.45594000000E+02  0.51100000000E-03 0.  1.
         11   -1    0    0    0    0 -0.00000000000E+00 -0.00000000000E+00 -0.45593999997E+02  0.45594000000E+02  0.51100000000E-03 0. -1.
    9900012    2    1    2    0    0 -0.50021013927E+01  0.54361795229E+01  0.39982404667E+02  0.50528858973E+02  0.29999997333E+02 0.  0.
         12    1    1    2    0    0  0.50021013927E+01 -0.54361795229E+01 -0.39982404667E+02  0.40659141027E+02  0.00000000000E+00 0. -1.
         11    1    3    3    0    0 -0.47949428340E+01 -0.70928602293E+01  0.36583132208E+01  0.93103919841E+01  0.51100000000E-03 0. -1.
        -11    1    3    3    0    0  0.19153739395E+01  0.51448393710E+01  0.16924331075E+01  0.57447680167E+01  0.51100000000E-03 0.  1.
        -12    1    3    3    0    0 -0.21225324982E+01  0.73842003813E+01  0.34631658338E+02  0.35473698972E+02  0.00000000000E+00 0.  1.
</event>
<event>
 7    1  0.3383281E-011  0.5052887E+02  0.7816164E-02  0.1300439E+00
        -11   -1    0    0    0    0  0.00000000000E+00  0.00000000000E+00  0.45593999997E+02  0.45594000000E+02  0.51100000000E-03 0. -1.
         11   -1    0    0    0    0 -0.00000000000E+00 -0.00000000000E+00 -0.45593999997E+02  0.45594000000E+02  0.51100000000E-03 0.  1.
    9900012    2    1    2    0    0 -0.35502417336E+02 -0.11723332793E+02 -0.15978327737E+02  0.50528866638E+02  0.30000020633E+02 0.  0.
         12    1    1    2    0    0  0.35502417336E+02  0.11723332793E+02  0.15978327737E+02  0.40659133362E+02  0.00000000000E+00 0. -1.
         11    1    3    3    0    0 -0.27024968582E+02 -0.55387160222E+00 -0.19611800869E+02  0.33395784677E+02  0.51100000000E-03 0.  1.
        -11    1    3    3    0    0 -0.10692155322E+01  0.63804823644E+00  0.29215232417E+01  0.31757874172E+01  0.51100000000E-03 0. -1.
        -12    1    3    3    0    0 -0.74082332217E+01 -0.11807509427E+02  0.71194989011E+00  0.13957294544E+02  0.00000000000E+00 0.  1.
</event>
<event>
 7    1  0.3383281E-011  0.5052881E+02  0.7816164E-02  0.1300439E+00
        -11   -1    0    0    0    0  0.00000000000E+00  0.00000000000E+00  0.45593999997E+02  0.45594000000E+02  0.51100000000E-03 0. -1.
         11   -1    0    0    0    0 -0.00000000000E+00 -0.00000000000E+00 -0.45593999997E+02  0.45594000000E+02  0.51100000000E-03 0.  1.
    9900012    2    1    2    0    0 -0.19212009804E+02 -0.28444650257E+02 -0.21793814093E+02  0.50528809383E+02  0.29999846599E+02 0.  0.
         12    1    1    2    0    0  0.19212009804E+02  0.28444650257E+02  0.21793814093E+02  0.40659190617E+02  0.00000000000E+00 0. -1.
         11    1    3    3    0    0  0.33513135714E+01 -0.26964030375E+01 -0.13016320142E+00  0.43033515676E+01  0.51100000000E-03 0. -1.
        -11    1    3    3    0    0  0.29066640794E+01  0.16042833793E+01 -0.28842183420E+01  0.43978559477E+01  0.51100000000E-03 0.  1.
        -12    1    3    3    0    0 -0.25469987454E+02 -0.27352530599E+02 -0.18779432550E+02  0.41827601867E+02  0.00000000000E+00 0.  1.
</event>
<event>
 7    1  0.3383281E-011  0.5052884E+02  0.7816164E-02  0.1300439E+00
        -11   -1    0    0    0    0  0.00000000000E+00  0.00000000000E+00  0.45593999997E+02  0.45594000000E+02  0.51100000000E-03 0.  1.
         11   -1    0    0    0    0 -0.00000000000E+00 -0.00000000000E+00 -0.45593999997E+02  0.45594000000E+02  0.51100000000E-03 0. -1.
    9900012    2    1    2    0    0  0.11527670712E+02  0.95512057081E+01  0.37802841414E+02  0.50528836931E+02  0.29999930335E+02 0.  0.
         12    1    1    2    0    0 -0.11527670712E+02 -0.95512057081E+01 -0.37802841414E+02  0.40659163069E+02  0.00000000000E+00 0. -1.
         11    1    3    3    0    0  0.24562037110E+01 -0.57640267925E+01  0.15597937093E+02  0.16809300502E+02  0.51100000000E-03 0. -1.
        -11    1    3    3    0    0 -0.40039791005E+01  0.99195953029E+01  0.13034326678E+02  0.16861906530E+02  0.51100000000E-03 0.  1.
        -12    1    3    3    0    0  0.13075446101E+02  0.53956371977E+01  0.91705776424E+01  0.16857629899E+02  0.00000000000E+00 0.  1.
</event>
<event>
 7    1  0.3383281E-011  0.5052888E+02  0.7816164E-02  0.1300439E+00
        -11   -1    0    0    0    0  0.00000000000E+00  0.00000000000E+00  0.45593999997E+02  0.45594000000E+02  0.51100000000E-03 0.  1.
         11   -1    0    0    0    0 -0.00000000000E+00 -0.00000000000E+00 -0.45593999997E+02  0.45594000000E+02  0.51100000000E-03 0. -1.
    9900012    2    1    2    0    0 -0.35867977335E+01  0.69962453734E+00  0.40494555920E+02  0.50528884766E+02  0.30000075735E+02 0.  0.
         12    1    1    2    0    0  0.35867977335E+01 -0.69962453734E+00 -0.40494555920E+02  0.40659115234E+02  0.00000000000E+00 0. -1.
         11    1    3    3    0    0  0.24601252461E+01 -0.13596982267E+01  0.47603092752E+01  0.55282492844E+01  0.51100000000E-03 0. -1.
        -11    1    3    3    0    0  0.20570392158E+01 -0.82192253247E+01  0.18446509591E+01  0.86712059539E+01  0.51100000000E-03 0.  1.
        -12    1    3    3    0    0 -0.81039621954E+01  0.10278548089E+02  0.33889595686E+02  0.36329429528E+02  0.00000000000E+00 0.  1.
</event>
<event>
 7    1  0.3383281E-011  0.5052887E+02  0.7816164E-02  0.1300439E+00
        -11   -1    0    0    0    0  0.00000000000E+00  0.00000000000E+00  0.45593999997E+02  0.45594000000E+02  0.51100000000E-03 0.  1.
         11   -1    0    0    0    0 -0.00000000000E+00 -0.00000000000E+00 -0.45593999997E+02  0.45594000000E+02  0.51100000000E-03 0. -1.
    9900012    2    1    2    0    0  0.31335913323E+02 -0.45029703119E+01  0.25513700653E+02  0.50528866630E+02  0.30000020608E+02 0.  0.
         12    1    1    2    0    0 -0.31335913323E+02  0.45029703119E+01 -0.25513700653E+02  0.40659133370E+02  0.00000000000E+00 0. -1.
         11    1    3    3    0    0 -0.24724144663E+01 -0.38535523632E+01  0.25790714379E+01  0.52549318599E+01  0.51100000000E-03 0. -1.
        -11    1    3    3    0    0  0.19175405283E+02 -0.58341024720E+01  0.34125616558E+01  0.20331711604E+02  0.51100000000E-03 0.  1.
         12    1    3    3    0    0  0.14632922506E+02  0.51846845233E+01  0.19522067560E+02  0.24942223166E+02  0.00000000000E+00 0. -1.
</event>
<event>
 7    1  0.3383281E-011  0.5052887E+02  0.7816164E-02  0.1300439E+00
        -11   -1    0    0    0    0  0.00000000000E+00  0.00000000000E+00  0.45593999997E+02  0.45594000000E+02  0.51100000000E-03 0.  1.
         11   -1    0    0    0    0 -0.00000000000E+00 -0.00000000000E+00 -0.45593999997E+02  0.45594000000E+02  0.51100000000E-03 0. -1.
    9900012    2    1    2    0    0  0.39701037370E+01  0.40105257293E+02  0.53825086411E+01  0.50528870822E+02  0.30000033351E+02 0.  0.
         12    1    1    2    0    0 -0.39701037370E+01 -0.40105257293E+02 -0.53825086411E+01  0.40659129178E+02  0.00000000000E+00 0. -1.
         11    1    3    3    0    0  0.16905582076E+01  0.27530618942E+02 -0.90206406187E+01  0.29020077943E+02  0.51100000000E-03 0. -1.
        -11    1    3    3    0    0  0.21040059882E+01  0.34338885156E+01 -0.46573868255E+00  0.40540528261E+01  0.51100000000E-03 0.  1.
        -12    1    3    3    0    0  0.17553954129E+00  0.91407498357E+01  0.14868887942E+02  0.17454740053E+02  0.00000000000E+00 0.  1.
</event>
<event>
 7    1  0.3383281E-011  0.5052890E+02  0.7816164E-02  0.1300439E+00
        -11   -1    0    0    0    0  0.00000000000E+00  0.00000000000E+00  0.45593999997E+02  0.45594000000E+02  0.51100000000E-03 0.  1.
         11   -1    0    0    0    0 -0.00000000000E+00 -0.00000000000E+00 -0.45593999997E+02  0.45594000000E+02  0.51100000000E-03 0. -1.
    9900012    2    1    2    0    0 -0.36546667349E+02  0.44773949254E+01  0.17246924741E+02  0.50528900494E+02  0.30000123540E+02 0.  0.
         12    1    1    2    0    0  0.36546667349E+02 -0.44773949254E+01 -0.17246924741E+02  0.40659099506E+02  0.00000000000E+00 0. -1.
         11    1    3    3    0    0 -0.19876915702E+02  0.81558790681E+01  0.12130353288E+02  0.24672973319E+02  0.51100000000E-03 0. -1.
        -11    1    3    3    0    0 -0.10832681713E+02  0.71205016101E+01  0.38064572091E+01  0.13510649615E+02  0.51100000000E-03 0.  1.
         12    1    3    3    0    0 -0.58370699338E+01 -0.10798985753E+02  0.13101142432E+01  0.12345277560E+02  0.00000000000E+00 0. -1.
</event>
<event>
 7    1  0.3383281E-011  0.5052886E+02  0.7816164E-02  0.1300439E+00
        -11   -1    0    0    0    0  0.00000000000E+00  0.00000000000E+00  0.45593999997E+02  0.45594000000E+02  0.51100000000E-03 0. -1.
         11   -1    0    0    0    0 -0.00000000000E+00 -0.00000000000E+00 -0.45593999997E+02  0.45594000000E+02  0.51100000000E-03 0.  1.
    9900012    2    1    2    0    0 -0.12189704406E+02 -0.28512631127E+02 -0.26298413021E+02  0.50528861363E+02  0.30000004599E+02 0.  0.
         12    1    1    2    0    0  0.12189704406E+02  0.28512631127E+02  0.26298413021E+02  0.40659138637E+02  0.00000000000E+00 0. -1.
         11    1    3    3    0    0 -0.43041760795E+00  0.14010625456E+01  0.45254533568E+01  0.47568859477E+01  0.51100000000E-03 0. -1.
        -11    1    3    3    0    0 -0.11184011123E+01 -0.12158897956E+02 -0.64992066353E+01  0.13832183764E+02  0.51100000000E-03 0.  1.
        -12    1    3    3    0    0 -0.10640885686E+02 -0.17754795717E+02 -0.24324659742E+02  0.31939791651E+02  0.00000000000E+00 0.  1.
</event>
<event>
 7    1  0.3383281E-011  0.5052887E+02  0.7816164E-02  0.1300439E+00
        -11   -1    0    0    0    0  0.00000000000E+00  0.00000000000E+00  0.45593999997E+02  0.45594000000E+02  0.51100000000E-03 0.  1.
         11   -1    0    0    0    0 -0.00000000000E+00 -0.00000000000E+00 -0.45593999997E+02  0.45594000000E+02  0.51100000000E-03 0. -1.
    9900012    2    1    2    0    0  0.14093619168E+02  0.17976428301E+02  0.33636038075E+02  0.50528866548E+02  0.30000020359E+02 0.  0.
         12    1    1    2    0    0 -0.14093619168E+02 -0.17976428301E+02 -0.33636038075E+02  0.40659133452E+02  0.00000000000E+00 0. -1.
         11    1    3    3    0    0  0.14491856763E+01 -0.33985536126E+01 -0.16087461496E+01  0.40296861189E+01  0.51100000000E-03 0. -1.
        -11    1    3    3    0    0  0.14178584887E+02  0.10712248963E+02  0.29101369564E+02  0.34098009590E+02  0.51100000000E-03 0.  1.
         12    1    3    3    0    0 -0.15341513957E+01  0.10662732951E+02  0.61434146609E+01  0.12401170839E+02  0.00000000000E+00 0. -1.
</event>
<event>
 7    1  0.3383281E-011  0.5052886E+02  0.7816164E-02  0.1300439E+00
        -11   -1    0    0    0    0  0.00000000000E+00  0.00000000000E+00  0.45593999997E+02  0.45594000000E+02  0.51100000000E-03 0.  1.
         11   -1    0    0    0    0 -0.00000000000E+00 -0.00000000000E+00 -0.45593999997E+02  0.45594000000E+02  0.51100000000E-03 0. -1.
    9900012    2    1    2    0    0 -0.72094485066E+00  0.17080481192E+02  0.36890421988E+02  0.50528857932E+02  0.29999994171E+02 0.  0.
         12    1    1    2    0    0  0.72094485066E+00 -0.17080481192E+02 -0.36890421988E+02  0.40659142068E+02  0.00000000000E+00 0. -1.
         11    1    3    3    0    0  0.77404985069E+01  0.22784081694E+01  0.29896637236E+01  0.86049143147E+01  0.51100000000E-03 0. -1.
        -11    1    3    3    0    0  0.48952268715E+01  0.86948870262E+01  0.13706255680E+02  0.16953635349E+02  0.51100000000E-03 0.  1.
        -12    1    3    3    0    0 -0.13356670229E+02  0.61071859963E+01  0.20194502584E+02  0.24970308269E+02  0.00000000000E+00 0.  1.
</event>
<event>
 7    1  0.3383281E-011  0.5052882E+02  0.7816164E-02  0.1300439E+00
        -11   -1    0    0    0    0  0.00000000000E+00  0.00000000000E+00  0.45593999997E+02  0.45594000000E+02  0.51100000000E-03 0. -1.
         11   -1    0    0    0    0 -0.00000000000E+00 -0.00000000000E+00 -0.45593999997E+02  0.45594000000E+02  0.51100000000E-03 0.  1.
    9900012    2    1    2    0    0  0.24009462875E+02  0.14110770399E+02 -0.29624326066E+02  0.50528820918E+02  0.29999881662E+02 0.  0.
         12    1    1    2    0    0 -0.24009462875E+02 -0.14110770399E+02  0.29624326066E+02  0.40659179082E+02  0.00000000000E+00 0. -1.
         11    1    3    3    0    0  0.34999030953E+01  0.12642410988E+02 -0.13420418018E+02  0.18766659194E+02  0.51100000000E-03 0. -1.
        -11    1    3    3    0    0  0.72003524284E+00  0.53318030483E+01 -0.87373285843E+01  0.10260969036E+02  0.51100000000E-03 0.  1.
        -12    1    3    3    0    0  0.19789524537E+02 -0.38634436381E+01 -0.74665794638E+01  0.21501192688E+02  0.00000000000E+00 0.  1.
</event>
<event>
 7    1  0.3383281E-011  0.5052879E+02  0.7816164E-02  0.1300439E+00
        -11   -1    0    0    0    0  0.00000000000E+00  0.00000000000E+00  0.45593999997E+02  0.45594000000E+02  0.51100000000E-03 0. -1.
         11   -1    0    0    0    0 -0.00000000000E+00 -0.00000000000E+00 -0.45593999997E+02  0.45594000000E+02  0.51100000000E-03 0.  1.
    9900012    2    1    2    0    0  0.73724034984E+01 -0.39641553649E+02  0.52312661125E+01  0.50528791275E+02  0.29999791558E+02 0.  0.
         12    1    1    2    0    0 -0.73724034984E+01  0.39641553649E+02 -0.52312661125E+01  0.40659208725E+02  0.00000000000E+00 0. -1.
         11    1    3    3    0    0  0.52320073759E+01 -0.24880268136E+01  0.59684542013E+01  0.83178497474E+01  0.51100000000E-03 0. -1.
        -11    1    3    3    0    0  0.10306828206E+01 -0.44469823234E+01  0.72107840474E+01  0.85342466393E+01  0.51100000000E-03 0.  1.
        -12    1    3    3    0    0  0.11097133018E+01 -0.32706544512E+02 -0.79479721362E+01  0.33676694888E+02  0.00000000000E+00 0.  1.
</event>
<event>
 7    1  0.3383281E-011  0.5052886E+02  0.7816164E-02  0.1300439E+00
        -11   -1    0    0    0    0  0.00000000000E+00  0.00000000000E+00  0.45593999997E+02  0.45594000000E+02  0.51100000000E-03 0.  1.
         11   -1    0    0    0    0 -0.00000000000E+00 -0.00000000000E+00 -0.45593999997E+02  0.45594000000E+02  0.51100000000E-03 0. -1.
    9900012    2    1    2    0    0  0.40265435991E+02  0.10559498625E+01  0.55448675245E+01  0.50528856852E+02  0.29999990888E+02 0.  0.
         12    1    1    2    0    0 -0.40265435991E+02 -0.10559498625E+01 -0.55448675245E+01  0.40659143148E+02  0.00000000000E+00 0. -1.
         11    1    3    3    0    0  0.19167676805E+02  0.11403257846E+02  0.49530345838E+01  0.22846590018E+02  0.51100000000E-03 0. -1.
        -11    1    3    3    0    0  0.14214219841E+02 -0.60876356395E+01  0.73651003856E+01  0.17127406614E+02  0.51100000000E-03 0.  1.
        -12    1    3    3    0    0  0.68835393445E+01 -0.42596723437E+01 -0.67732674449E+01  0.10554860220E+02  0.00000000000E+00 0.  1.
</event>
<event>
 7    1  0.3383281E-011  0.5052886E+02  0.7816164E-02  0.1300439E+00
        -11   -1    0    0    0    0  0.00000000000E+00  0.00000000000E+00  0.45593999997E+02  0.45594000000E+02  0.51100000000E-03 0.  1.
         11   -1    0    0    0    0 -0.00000000000E+00 -0.00000000000E+00 -0.45593999997E+02  0.45594000000E+02  0.51100000000E-03 0. -1.
    9900012    2    1    2    0    0  0.21499499122E+01 -0.18893847373E+02  0.35938362708E+02  0.50528859978E+02  0.30000000390E+02 0.  0.
         12    1    1    2    0    0 -0.21499499122E+01  0.18893847373E+02 -0.35938362708E+02  0.40659140022E+02  0.00000000000E+00 0. -1.
         11    1    3    3    0    0 -0.19348401062E+01 -0.45262901957E+01  0.13185956988E+02  0.14074813360E+02  0.51100000000E-03 0. -1.
        -11    1    3    3    0    0  0.13811973751E+02 -0.42846578319E+01  0.12054200640E+02  0.18826382153E+02  0.51100000000E-03 0.  1.
         12    1    3    3    0    0 -0.97271837324E+01 -0.10082899345E+02  0.10698205080E+02  0.17627664466E+02  0.00000000000E+00 0. -1.
</event>
<event>
 7    1  0.3383281E-011  0.5052888E+02  0.7816164E-02  0.1300439E+00
        -11   -1    0    0    0    0  0.00000000000E+00  0.00000000000E+00  0.45593999997E+02  0.45594000000E+02  0.51100000000E-03 0.  1.
         11   -1    0    0    0    0 -0.00000000000E+00 -0.00000000000E+00 -0.45593999997E+02  0.45594000000E+02  0.51100000000E-03 0. -1.
    9900012    2    1    2    0    0 -0.51042082977E+00  0.39348252869E+02  0.10228337632E+02  0.50528875268E+02  0.30000046865E+02 0.  0.
         12    1    1    2    0    0  0.51042082977E+00 -0.39348252869E+02 -0.10228337632E+02  0.40659124732E+02  0.00000000000E+00 0. -1.
         11    1    3    3    0    0 -0.65762191228E+01  0.12265506388E+02  0.95107165979E+01  0.16856542806E+02  0.51100000000E-03 0. -1.
        -11    1    3    3    0    0 -0.33846326273E+01  0.22926120400E+02 -0.10479534026E+01  0.23198296084E+02  0.51100000000E-03 0.  1.
         12    1    3    3    0    0  0.94504309204E+01  0.41566260805E+01  0.17655744365E+01  0.10474036378E+02  0.00000000000E+00 0. -1.
</event>
<event>
 7    1  0.3383281E-011  0.5052886E+02  0.7816164E-02  0.1300439E+00
        -11   -1    0    0    0    0  0.00000000000E+00  0.00000000000E+00  0.45593999997E+02  0.45594000000E+02  0.51100000000E-03 0.  1.
         11   -1    0    0    0    0 -0.00000000000E+00 -0.00000000000E+00 -0.45593999997E+02  0.45594000000E+02  0.51100000000E-03 0. -1.
    9900012    2    1    2    0    0  0.19432167875E+02  0.67833970698E+01  0.35064824364E+02  0.50528861645E+02  0.30000005456E+02 0.  0.
         12    1    1    2    0    0 -0.19432167875E+02 -0.67833970698E+01 -0.35064824364E+02  0.40659138355E+02  0.00000000000E+00 0. -1.
         11    1    3    3    0    0  0.39894663889E+01 -0.25187073329E+01 -0.31653157917E+01  0.56814569452E+01  0.51100000000E-03 0. -1.
        -11    1    3    3    0    0  0.29677806178E+01 -0.40845217406E+01  0.66561770696E+01  0.83543840639E+01  0.51100000000E-03 0.  1.
        -12    1    3    3    0    0  0.12474920868E+02  0.13386626143E+02  0.31573963086E+02  0.36493020636E+02  0.00000000000E+00 0.  1.
</event>
<event>
 7    1  0.3383281E-011  0.5052886E+02  0.7816164E-02  0.1300439E+00
        -11   -1    0    0    0    0  0.00000000000E+00  0.00000000000E+00  0.45593999997E+02  0.45594000000E+02  0.51100000000E-03 0.  1.
         11   -1    0    0    0    0 -0.00000000000E+00 -0.00000000000E+00 -0.45593999997E+02  0.45594000000E+02  0.51100000000E-03 0. -1.
    9900012    2    1    2    0    0  0.12952293688E+02  0.25937419436E+02  0.28507088755E+02  0.50528858985E+02  0.29999997371E+02 0.  0.
         12    1    1    2    0    0 -0.12952293688E+02 -0.25937419436E+02 -0.28507088755E+02  0.40659141015E+02  0.00000000000E+00 0. -1.
         11    1    3    3    0    0 -0.28095111008E+01  0.29242153130E+00  0.49765185938E+01  0.57222897998E+01  0.51100000000E-03 0. -1.
        -11    1    3    3    0    0 -0.49104071698E+01  0.10106839319E+02  0.12159350500E+02  0.16556270849E+02  0.51100000000E-03 0.  1.
        -12    1    3    3    0    0  0.20672211959E+02  0.15538158585E+02  0.11371219662E+02  0.28250298336E+02  0.00000000000E+00 0.  1.
</event>
<event>
 7    1  0.3383281E-011  0.5052885E+02  0.7816164E-02  0.1300439E+00
        -11   -1    0    0    0    0  0.00000000000E+00  0.00000000000E+00  0.45593999997E+02  0.45594000000E+02  0.51100000000E-03 0.  1.
         11   -1    0    0    0    0 -0.00000000000E+00 -0.00000000000E+00 -0.45593999997E+02  0.45594000000E+02  0.51100000000E-03 0. -1.
    9900012    2    1    2    0    0 -0.33979907995E+02  0.17760193542E+02  0.13531722088E+02  0.50528854355E+02  0.29999983296E+02 0.  0.
         12    1    1    2    0    0  0.33979907995E+02 -0.17760193542E+02 -0.13531722088E+02  0.40659145645E+02  0.00000000000E+00 0. -1.
         11    1    3    3    0    0 -0.49914759867E+01  0.72214154050E+01  0.53730776287E+01  0.10292406737E+02  0.51100000000E-03 0. -1.
        -11    1    3    3    0    0 -0.53685318566E+01  0.68319148179E+01  0.13198731527E+02  0.15801984323E+02  0.51100000000E-03 0.  1.
        -12    1    3    3    0    0 -0.23619900151E+02  0.37068633187E+01 -0.50400870679E+01  0.24434463294E+02  0.00000000000E+00 0.  1.
</event>
<event>
 7    1  0.3383281E-011  0.5052886E+02  0.7816164E-02  0.1300439E+00
        -11   -1    0    0    0    0  0.00000000000E+00  0.00000000000E+00  0.45593999997E+02  0.45594000000E+02  0.51100000000E-03 0. -1.
         11   -1    0    0    0    0 -0.00000000000E+00 -0.00000000000E+00 -0.45593999997E+02  0.45594000000E+02  0.51100000000E-03 0.  1.
    9900012    2    1    2    0    0  0.12266619944E+01  0.32150537234E+02 -0.24859682991E+02  0.50528861021E+02  0.30000003561E+02 0.  0.
         12    1    1    2    0    0 -0.12266619944E+01 -0.32150537234E+02  0.24859682991E+02  0.40659138979E+02  0.00000000000E+00 0. -1.
         11    1    3    3    0    0  0.21072924286E+00  0.16260281918E+02 -0.23614586662E+01  0.16432214159E+02  0.51100000000E-03 0. -1.
        -11    1    3    3    0    0 -0.74353127334E+01  0.44561129361E+00 -0.36158793337E+01  0.82799171787E+01  0.51100000000E-03 0.  1.
         12    1    3    3    0    0  0.84512454850E+01  0.15444644022E+02 -0.18882344991E+02  0.25816729684E+02  0.00000000000E+00 0. -1.
</event>
<event>
 7    1  0.3383281E-011  0.5052886E+02  0.7816164E-02  0.1300439E+00
        -11   -1    0    0    0    0  0.00000000000E+00  0.00000000000E+00  0.45593999997E+02  0.45594000000E+02  0.51100000000E-03 0.  1.
         11   -1    0    0    0    0 -0.00000000000E+00 -0.00000000000E+00 -0.45593999997E+02  0.45594000000E+02  0.51100000000E-03 0. -1.
    9900012    2    1    2    0    0  0.23424814134E+02 -0.21278902115E+02 -0.25527481269E+02  0.50528857211E+02  0.29999991979E+02 0.  0.
         12    1    1    2    0    0 -0.23424814134E+02  0.21278902115E+02  0.25527481269E+02  0.40659142789E+02  0.00000000000E+00 0. -1.
         11    1    3    3    0    0 -0.44220937855E+00 -0.47641084526E+01 -0.71239095178E+00  0.48373318691E+01  0.51100000000E-03 0. -1.
        -11    1    3    3    0    0  0.42980102974E+01 -0.14895023919E+02 -0.20655782481E+01  0.15639732857E+02  0.51100000000E-03 0.  1.
         12    1    3    3    0    0  0.19569013215E+02 -0.16197697434E+01 -0.22749512069E+02  0.30051792485E+02  0.00000000000E+00 0. -1.
</event>
<event>
 7    1  0.3383281E-011  0.5052886E+02  0.7816164E-02  0.1300439E+00
        -11   -1    0    0    0    0  0.00000000000E+00  0.00000000000E+00  0.45593999997E+02  0.45594000000E+02  0.51100000000E-03 0. -1.
         11   -1    0    0    0    0 -0.00000000000E+00 -0.00000000000E+00 -0.45593999997E+02  0.45594000000E+02  0.51100000000E-03 0.  1.
    9900012    2    1    2    0    0 -0.37743748322E+02 -0.37379103662E+01 -0.14649343627E+02  0.50528858593E+02  0.29999996179E+02 0.  0.
         12    1    1    2    0    0  0.37743748322E+02  0.37379103662E+01  0.14649343627E+02  0.40659141407E+02  0.00000000000E+00 0. -1.
         11    1    3    3    0    0  0.75838199074E+00  0.17342259921E+01 -0.15553659720E+01  0.24498666502E+01  0.51100000000E-03 0. -1.
        -11    1    3    3    0    0 -0.11703627331E+02 -0.86228895100E+01 -0.15176580955E+02  0.21015654307E+02  0.51100000000E-03 0.  1.
        -12    1    3    3    0    0 -0.26798502982E+02  0.31507531517E+01  0.20826033008E+01  0.27063337636E+02  0.00000000000E+00 0.  1.
</event>
<event>
 7    1  0.3383281E-011  0.5052886E+02  0.7816164E-02  0.1300439E+00
        -11   -1    0    0    0    0  0.00000000000E+00  0.00000000000E+00  0.45593999997E+02  0.45594000000E+02  0.51100000000E-03 0. -1.
         11   -1    0    0    0    0 -0.00000000000E+00 -0.00000000000E+00 -0.45593999997E+02  0.45594000000E+02  0.51100000000E-03 0.  1.
    9900012    2    1    2    0    0  0.30617434343E+02  0.23458096289E+02 -0.12862971731E+02  0.50528860695E+02  0.30000002570E+02 0.  0.
         12    1    1    2    0    0 -0.30617434343E+02 -0.23458096289E+02  0.12862971731E+02  0.40659139305E+02  0.00000000000E+00 0. -1.
         11    1    3    3    0    0  0.63269985879E+01  0.19581874649E+01 -0.20433385130E+01  0.69311356803E+01  0.51100000000E-03 0. -1.
        -11    1    3    3    0    0  0.19072196493E+02  0.18514990022E+01 -0.12994174831E+02  0.23152220357E+02  0.51100000000E-03 0.  1.
         12    1    3    3    0    0  0.52182392612E+01  0.19648409822E+02  0.21745416126E+01  0.20445504659E+02  0.00000000000E+00 0. -1.
</event>
<event>
 7    1  0.3383281E-011  0.5052885E+02  0.7816164E-02  0.1300439E+00
        -11   -1    0    0    0    0  0.00000000000E+00  0.00000000000E+00  0.45593999997E+02  0.45594000000E+02  0.51100000000E-03 0. -1.
         11   -1    0    0    0    0 -0.00000000000E+00 -0.00000000000E+00 -0.45593999997E+02  0.45594000000E+02  0.51100000000E-03 0.  1.
    9900012    2    1    2    0    0  0.26155682818E+02 -0.24621572584E+02  0.19047960073E+02  0.50528851421E+02  0.29999974380E+02 0.  0.
         12    1    1    2    0    0 -0.26155682818E+02  0.24621572584E+02 -0.19047960073E+02  0.40659148579E+02  0.00000000000E+00 0. -1.
         11    1    3    3    0    0  0.96903086566E+01 -0.10817459900E+02  0.12917393380E+02  0.19436526761E+02  0.51100000000E-03 0. -1.
        -11    1    3    3    0    0  0.10773134626E+02  0.30376697634E+01  0.71557832702E+01  0.13285070634E+02  0.51100000000E-03 0.  1.
        -12    1    3    3    0    0  0.56922395352E+01 -0.16841782447E+02 -0.10252165768E+01  0.17807254026E+02  0.00000000000E+00 0.  1.
</event>
<event>
 7    1  0.3383281E-011  0.5052886E+02  0.7816164E-02  0.1300439E+00
        -11   -1    0    0    0    0  0.00000000000E+00  0.00000000000E+00  0.45593999997E+02  0.45594000000E+02  0.51100000000E-03 0. -1.
         11   -1    0    0    0    0 -0.00000000000E+00 -0.00000000000E+00 -0.45593999997E+02  0.45594000000E+02  0.51100000000E-03 0.  1.
    9900012    2    1    2    0    0 -0.39198682864E+02  0.10687697755E+02 -0.15497587557E+01  0.50528863588E+02  0.30000011361E+02 0.  0.
         12    1    1    2    0    0  0.39198682864E+02 -0.10687697755E+02  0.15497587557E+01  0.40659136412E+02  0.00000000000E+00 0. -1.
         11    1    3    3    0    0 -0.38120943742E+02  0.13328157350E+02  0.10476553334E+00  0.40383871858E+02  0.51100000000E-03 0. -1.
        -11    1    3    3    0    0 -0.32116814174E+01  0.16457490614E+01  0.19960517107E+01  0.41240283938E+01  0.51100000000E-03 0.  1.
        -12    1    3    3    0    0  0.21339422952E+01 -0.42862086566E+01 -0.36505759998E+01  0.60209633363E+01  0.00000000000E+00 0.  1.
</event>
<event>
 7    1  0.3383281E-011  0.5052886E+02  0.7816164E-02  0.1300439E+00
        -11   -1    0    0    0    0  0.00000000000E+00  0.00000000000E+00  0.45593999997E+02  0.45594000000E+02  0.51100000000E-03 0.  1.
         11   -1    0    0    0    0 -0.00000000000E+00 -0.00000000000E+00 -0.45593999997E+02  0.45594000000E+02  0.51100000000E-03 0. -1.
    9900012    2    1    2    0    0  0.13788887027E+02  0.15349390234E+02  0.35034679198E+02  0.50528856717E+02  0.29999990476E+02 0.  0.
         12    1    1    2    0    0 -0.13788887027E+02 -0.15349390234E+02 -0.35034679198E+02  0.40659143283E+02  0.00000000000E+00 0. -1.
         11    1    3    3    0    0 -0.12733446380E+01  0.15845600253E+01  0.15841985375E+01  0.25771927185E+01  0.51100000000E-03 0. -1.
        -11    1    3    3    0    0  0.35239411808E+01 -0.36716675760E+01 -0.30164669458E+01  0.59159426409E+01  0.51100000000E-03 0.  1.
         12    1    3    3    0    0  0.11538290484E+02  0.17436497785E+02  0.36466947607E+02  0.42035721357E+02  0.00000000000E+00 0. -1.
</event>
<event>
 7    1  0.3383281E-011  0.5052886E+02  0.7816164E-02  0.1300439E+00
        -11   -1    0    0    0    0  0.00000000000E+00  0.00000000000E+00  0.45593999997E+02  0.45594000000E+02  0.51100000000E-03 0.  1.
         11   -1    0    0    0    0 -0.00000000000E+00 -0.00000000000E+00 -0.45593999997E+02  0.45594000000E+02  0.51100000000E-03 0. -1.
    9900012    2    1    2    0    0  0.22032347149E+02 -0.11646863439E+02  0.32126188128E+02  0.50528859423E+02  0.29999998701E+02 0.  0.
         12    1    1    2    0    0 -0.22032347149E+02  0.11646863439E+02 -0.32126188128E+02  0.40659140577E+02  0.00000000000E+00 0. -1.
         11    1    3    3    0    0  0.14711380349E+02 -0.64904179305E+01  0.42305230065E+01  0.16626712298E+02  0.51100000000E-03 0. -1.
        -11    1    3    3    0    0  0.23655779266E+01 -0.12798258839E+01 -0.19999457683E+01  0.33516707113E+01  0.51100000000E-03 0.  1.
        -12    1    3    3    0    0  0.49553888737E+01 -0.38766196245E+01  0.29895610890E+02  0.30550476413E+02  0.00000000000E+00 0.  1.
</event>
<event>
 7    1  0.3383281E-011  0.5052883E+02  0.7816164E-02  0.1300439E+00
        -11   -1    0    0    0    0  0.00000000000E+00  0.00000000000E+00  0.45593999997E+02  0.45594000000E+02  0.51100000000E-03 0.  1.
         11   -1    0    0    0    0 -0.00000000000E+00 -0.00000000000E+00 -0.45593999997E+02  0.45594000000E+02  0.51100000000E-03 0. -1.
    9900012    2    1    2    0    0 -0.19802647439E+02  0.34277829937E+02  0.92765296094E+01  0.50528825483E+02  0.29999895538E+02 0.  0.
         12    1    1    2    0    0  0.19802647439E+02 -0.34277829937E+02 -0.92765296094E+01  0.40659174517E+02  0.00000000000E+00 0. -1.
         11    1    3    3    0    0  0.30232705610E+01  0.98736431606E+01 -0.38076070182E+01  0.11005765108E+02  0.51100000000E-03 0. -1.
        -11    1    3    3    0    0 -0.10557276198E+02  0.12928464029E+01  0.94380670352E+00  0.10677935376E+02  0.51100000000E-03 0.  1.
        -12    1    3    3    0    0 -0.12268641803E+02  0.23111340374E+02  0.12140329924E+02  0.28845124999E+02  0.00000000000E+00 0.  1.
</event>
<event>
 7    1  0.3383281E-011  0.5052885E+02  0.7816164E-02  0.1300439E+00
        -11   -1    0    0    0    0  0.00000000000E+00  0.00000000000E+00  0.45593999997E+02  0.45594000000E+02  0.51100000000E-03 0.  1.
         11   -1    0    0    0    0 -0.00000000000E+00 -0.00000000000E+00 -0.45593999997E+02  0.45594000000E+02  0.51100000000E-03 0. -1.
    9900012    2    1    2    0    0  0.20291711462E+02  0.26628435233E+02  0.23072481461E+02  0.50528849520E+02  0.29999968601E+02 0.  0.
         12    1    1    2    0    0 -0.20291711462E+02 -0.26628435233E+02 -0.23072481461E+02  0.40659150480E+02  0.00000000000E+00 0. -1.
         11    1    3    3    0    0 -0.10535485861E+01  0.14159572901E+01 -0.17892226828E+01  0.25132086544E+01  0.51100000000E-03 0. -1.
        -11    1    3    3    0    0  0.87770832254E+01 -0.15173959844E+01 -0.72562425200E+00  0.89367897667E+01  0.51100000000E-03 0.  1.
        -12    1    3    3    0    0  0.12568176823E+02  0.26729873927E+02  0.25587328396E+02  0.39078851099E+02  0.00000000000E+00 0.  1.
</event>
<event>
 7    1  0.3383281E-011  0.5052885E+02  0.7816164E-02  0.1300439E+00
        -11   -1    0    0    0    0  0.00000000000E+00  0.00000000000E+00  0.45593999997E+02  0.45594000000E+02  0.51100000000E-03 0.  1.
         11   -1    0    0    0    0 -0.00000000000E+00 -0.00000000000E+00 -0.45593999997E+02  0.45594000000E+02  0.51100000000E-03 0. -1.
    9900012    2    1    2    0    0 -0.40593267235E+02  0.14237285076E+01  0.18237487765E+01  0.50528850879E+02  0.29999972731E+02 0.  0.
         12    1    1    2    0    0  0.40593267235E+02 -0.14237285076E+01 -0.18237487765E+01  0.40659149121E+02  0.00000000000E+00 0. -1.
         11    1    3    3    0    0  0.49590146443E+00 -0.58887869020E+00 -0.16491308495E+01  0.18199805477E+01  0.51100000000E-03 0. -1.
        -11    1    3    3    0    0 -0.24989211730E+02  0.32468182885E+01 -0.10553843257E+02  0.27320068441E+02  0.51100000000E-03 0.  1.
         12    1    3    3    0    0 -0.16099956969E+02 -0.12342110907E+01  0.14026722883E+02  0.21388801890E+02  0.00000000000E+00 0. -1.
</event>
<event>
 7    1  0.3383281E-011  0.5052886E+02  0.7816164E-02  0.1300439E+00
        -11   -1    0    0    0    0  0.00000000000E+00  0.00000000000E+00  0.45593999997E+02  0.45594000000E+02  0.51100000000E-03 0. -1.
         11   -1    0    0    0    0 -0.00000000000E+00 -0.00000000000E+00 -0.45593999997E+02  0.45594000000E+02  0.51100000000E-03 0.  1.
    9900012    2    1    2    0    0 -0.11933776359E+02 -0.19940850377E+02 -0.33363354977E+02  0.50528856043E+02  0.29999988428E+02 0.  0.
         12    1    1    2    0    0  0.11933776359E+02  0.19940850377E+02  0.33363354977E+02  0.40659143957E+02  0.00000000000E+00 0. -1.
         11    1    3    3    0    0  0.48040434433E+01 -0.22724467539E+01 -0.65176698174E-01  0.53147997063E+01  0.51100000000E-03 0. -1.
        -11    1    3    3    0    0 -0.32305920274E+01 -0.16045148379E+02 -0.13630238919E+02  0.21299458317E+02  0.51100000000E-03 0.  1.
        -12    1    3    3    0    0 -0.13507227775E+02 -0.16232552444E+01 -0.19667939361E+02  0.23914598020E+02  0.00000000000E+00 0.  1.
</event>
<event>
 7    1  0.3383281E-011  0.5052887E+02  0.7816164E-02  0.1300439E+00
        -11   -1    0    0    0    0  0.00000000000E+00  0.00000000000E+00  0.45593999997E+02  0.45594000000E+02  0.51100000000E-03 0.  1.
         11   -1    0    0    0    0 -0.00000000000E+00 -0.00000000000E+00 -0.45593999997E+02  0.45594000000E+02  0.51100000000E-03 0. -1.
    9900012    2    1    2    0    0  0.46551481586E+01  0.33256218671E+02  0.22924193360E+02  0.50528866637E+02  0.30000020629E+02 0.  0.
         12    1    1    2    0    0 -0.46551481586E+01 -0.33256218671E+02 -0.22924193360E+02  0.40659133363E+02  0.00000000000E+00 0. -1.
         11    1    3    3    0    0 -0.47357827111E+01  0.34647093870E+01 -0.29346330176E+01  0.65607865559E+01  0.51100000000E-03 0. -1.
        -11    1    3    3    0    0  0.22876154305E+01 -0.14643161619E+01 -0.10593127036E+00  0.27182030599E+01  0.51100000000E-03 0.  1.
        -12    1    3    3    0    0  0.71033154392E+01  0.31255825446E+02  0.25964757648E+02  0.41249877021E+02  0.00000000000E+00 0.  1.
</event>
<event>
 7    1  0.3383281E-011  0.5052886E+02  0.7816164E-02  0.1300439E+00
        -11   -1    0    0    0    0  0.00000000000E+00  0.00000000000E+00  0.45593999997E+02  0.45594000000E+02  0.51100000000E-03 0. -1.
         11   -1    0    0    0    0 -0.00000000000E+00 -0.00000000000E+00 -0.45593999997E+02  0.45594000000E+02  0.51100000000E-03 0.  1.
    9900012    2    1    2    0    0  0.18317936158E+02 -0.26162277696E+02 -0.25162560469E+02  0.50528855780E+02  0.29999987629E+02 0.  0.
         12    1    1    2    0    0 -0.18317936158E+02  0.26162277696E+02  0.25162560469E+02  0.40659144220E+02  0.00000000000E+00 0. -1.
         11    1    3    3    0    0  0.65268502880E+01 -0.87255670414E+01 -0.22316834893E+02  0.24834983688E+02  0.51100000000E-03 0. -1.
        -11    1    3    3    0    0  0.38602793121E+01 -0.10581385256E+02 -0.81908086131E+01  0.13926837987E+02  0.51100000000E-03 0.  1.
         12    1    3    3    0    0  0.79308065581E+01 -0.68553253978E+01  0.53450830366E+01  0.11767034105E+02  0.00000000000E+00 0. -1.
</event>
<event>
 7    1  0.3383281E-011  0.5052887E+02  0.7816164E-02  0.1300439E+00
        -11   -1    0    0    0    0  0.00000000000E+00  0.00000000000E+00  0.45593999997E+02  0.45594000000E+02  0.51100000000E-03 0. -1.
         11   -1    0    0    0    0 -0.00000000000E+00 -0.00000000000E+00 -0.45593999997E+02  0.45594000000E+02  0.51100000000E-03 0.  1.
    9900012    2    1    2    0    0  0.37411924687E+01  0.40670326617E+01 -0.40281852263E+02  0.50528869445E+02  0.30000029165E+02 0.  0.
         12    1    1    2    0    0 -0.37411924687E+01 -0.40670326617E+01  0.40281852263E+02  0.40659130555E+02  0.00000000000E+00 0. -1.
         11    1    3    3    0    0 -0.75945087292E+00 -0.66329564264E+00 -0.20108610904E+02  0.20133875918E+02  0.51100000000E-03 0. -1.
        -11    1    3    3    0    0  0.94393835232E+01  0.45900745214E+01 -0.22579178366E+02  0.24899599220E+02  0.51100000000E-03 0.  1.
         12    1    3    3    0    0 -0.49387401816E+01  0.14025378298E+00  0.24059370067E+01  0.54953943066E+01  0.00000000000E+00 0. -1.
</event>
<event>
 7    1  0.3383281E-011  0.5052886E+02  0.7816164E-02  0.1300439E+00
        -11   -1    0    0    0    0  0.00000000000E+00  0.00000000000E+00  0.45593999997E+02  0.45594000000E+02  0.51100000000E-03 0.  1.
         11   -1    0    0    0    0 -0.00000000000E+00 -0.00000000000E+00 -0.45593999997E+02  0.45594000000E+02  0.51100000000E-03 0. -1.
    9900012    2    1    2    0    0  0.33217588169E+02  0.22607840699E+02  0.62163643647E+01  0.50528858214E+02  0.29999995027E+02 0.  0.
         12    1    1    2    0    0 -0.33217588169E+02 -0.22607840699E+02 -0.62163643647E+01  0.40659141786E+02  0.00000000000E+00 0. -1.
         11    1    3    3    0    0 -0.55045820621E+00  0.52995153937E+01  0.17833449947E+01  0.56185574017E+01  0.51100000000E-03 0. -1.
        -11    1    3    3    0    0  0.60558505712E+01  0.14835603979E+02  0.58334323678E+01  0.17052782911E+02  0.51100000000E-03 0.  1.
         12    1    3    3    0    0  0.27712195804E+02  0.24727213268E+01 -0.14004129978E+01  0.27857517901E+02  0.00000000000E+00 0. -1.
</event>
<event>
 7    1  0.3383281E-011  0.5052886E+02  0.7816164E-02  0.1300439E+00
        -11   -1    0    0    0    0  0.00000000000E+00  0.00000000000E+00  0.45593999997E+02  0.45594000000E+02  0.51100000000E-03 0. -1.
         11   -1    0    0    0    0 -0.00000000000E+00 -0.00000000000E+00 -0.45593999997E+02  0.45594000000E+02  0.51100000000E-03 0.  1.
    9900012    2    1    2    0    0 -0.35611299151E+02  0.13512860964E+02 -0.14226850326E+02  0.50528864386E+02  0.30000013788E+02 0.  0.
         12    1    1    2    0    0  0.35611299151E+02 -0.13512860964E+02  0.14226850326E+02  0.40659135614E+02  0.00000000000E+00 0. -1.
         11    1    3    3    0    0  0.20015542520E+00 -0.33177031214E+01 -0.23580367139E+01  0.40752366313E+01  0.51100000000E-03 0. -1.
        -11    1    3    3    0    0 -0.17884267321E+02  0.18114803567E+02 -0.12727116318E+02  0.28460017848E+02  0.51100000000E-03 0.  1.
         12    1    3    3    0    0 -0.17927187256E+02 -0.12842394818E+01  0.85830270574E+00  0.17993609907E+02  0.00000000000E+00 0. -1.
</event>
<event>
 7    1  0.3383281E-011  0.5052886E+02  0.7816164E-02  0.1300439E+00
        -11   -1    0    0    0    0  0.00000000000E+00  0.00000000000E+00  0.45593999997E+02  0.45594000000E+02  0.51100000000E-03 0.  1.
         11   -1    0    0    0    0 -0.00000000000E+00 -0.00000000000E+00 -0.45593999997E+02  0.45594000000E+02  0.51100000000E-03 0. -1.
    9900012    2    1    2    0    0 -0.36639932910E+02  0.17335304770E+02  0.31887734081E+01  0.50528858949E+02  0.29999997262E+02 0.  0.
         12    1    1    2    0    0  0.36639932910E+02 -0.17335304770E+02 -0.31887734081E+01  0.40659141051E+02  0.00000000000E+00 0. -1.
         11    1    3    3    0    0 -0.17008327116E+02  0.12477621693E+02  0.47340995080E+01  0.21619110361E+02  0.51100000000E-03 0.  1.
        -11    1    3    3    0    0 -0.20741263242E+02 -0.27755258734E+01  0.49148425506E+00  0.20931915865E+02  0.51100000000E-03 0. -1.
        -12    1    3    3    0    0  0.11096574481E+01  0.76332089502E+01 -0.20368103549E+01  0.79778327227E+01  0.00000000000E+00 0.  1.
</event>
<event>
 7    1  0.3383281E-011  0.5052886E+02  0.7816164E-02  0.1300439E+00
        -11   -1    0    0    0    0  0.00000000000E+00  0.00000000000E+00  0.45593999997E+02  0.45594000000E+02  0.51100000000E-03 0.  1.
         11   -1    0    0    0    0 -0.00000000000E+00 -0.00000000000E+00 -0.45593999997E+02  0.45594000000E+02  0.51100000000E-03 0. -1.
    9900012    2    1    2    0    0  0.29585519648E+02 -0.25643596935E+02  0.10966713230E+02  0.50528857908E+02  0.29999994096E+02 0.  0.
         12    1    1    2    0    0 -0.29585519648E+02  0.25643596935E+02 -0.10966713230E+02  0.40659142092E+02  0.00000000000E+00 0. -1.
         11    1    3    3    0    0 -0.23281694105E+01 -0.76243728128E+01  0.30930814954E+01  0.85509407079E+01  0.51100000000E-03 0. -1.
        -11    1    3    3    0    0  0.92122476305E+01 -0.15965274442E+02  0.38842804614E+01  0.18837280307E+02  0.51100000000E-03 0.  1.
        -12    1    3    3    0    0  0.22701441428E+02 -0.20539496805E+01  0.39893512728E+01  0.23140636892E+02  0.00000000000E+00 0.  1.
</event>
<event>
 7    1  0.3383281E-011  0.5052886E+02  0.7816164E-02  0.1300439E+00
        -11   -1    0    0    0    0  0.00000000000E+00  0.00000000000E+00  0.45593999997E+02  0.45594000000E+02  0.51100000000E-03 0. -1.
         11   -1    0    0    0    0 -0.00000000000E+00 -0.00000000000E+00 -0.45593999997E+02  0.45594000000E+02  0.51100000000E-03 0.  1.
    9900012    2    1    2    0    0  0.17016752615E+02  0.29160700895E+02 -0.22655001668E+02  0.50528862690E+02  0.30000008633E+02 0.  0.
         12    1    1    2    0    0 -0.17016752615E+02 -0.29160700895E+02  0.22655001668E+02  0.40659137310E+02  0.00000000000E+00 0. -1.
         11    1    3    3    0    0  0.54928777092E+01  0.25660261291E+01 -0.16018946186E+02  0.17127837948E+02  0.51100000000E-03 0.  1.
        -11    1    3    3    0    0 -0.20468060170E+01 -0.76065846937E+00 -0.69895030337E+00  0.22927162856E+01  0.51100000000E-03 0. -1.
        -12    1    3    3    0    0  0.13570680923E+02  0.27355333235E+02 -0.59371051789E+01  0.31108308456E+02  0.00000000000E+00 0.  1.
</event>
<event>
 7    1  0.3383281E-011  0.5052889E+02  0.7816164E-02  0.1300439E+00
        -11   -1    0    0    0    0  0.00000000000E+00  0.00000000000E+00  0.45593999997E+02  0.45594000000E+02  0.51100000000E-03 0.  1.
         11   -1    0    0    0    0 -0.00000000000E+00 -0.00000000000E+00 -0.45593999997E+02  0.45594000000E+02  0.51100000000E-03 0. -1.
    9900012    2    1    2    0    0  0.37560775297E+02  0.11959003110E+02  0.99666406593E+01  0.50528886355E+02  0.30000080566E+02 0.  0.
         12    1    1    2    0    0 -0.37560775297E+02 -0.11959003110E+02 -0.99666406593E+01  0.40659113645E+02  0.00000000000E+00 0. -1.
         11    1    3    3    0    0  0.20269480016E+02  0.99723007275E+00  0.13358697611E+02  0.24296112654E+02  0.51100000000E-03 0. -1.
        -11    1    3    3    0    0  0.10966300501E+02  0.63142963168E+01  0.59901457990E+01  0.14000426122E+02  0.51100000000E-03 0.  1.
         12    1    3    3    0    0  0.63249947803E+01  0.46474767206E+01 -0.93822027511E+01  0.12232347579E+02  0.00000000000E+00 0. -1.
</event>
<event>
 7    1  0.3383281E-011  0.5052885E+02  0.7816164E-02  0.1300439E+00
        -11   -1    0    0    0    0  0.00000000000E+00  0.00000000000E+00  0.45593999997E+02  0.45594000000E+02  0.51100000000E-03 0.  1.
         11   -1    0    0    0    0 -0.00000000000E+00 -0.00000000000E+00 -0.45593999997E+02  0.45594000000E+02  0.51100000000E-03 0. -1.
    9900012    2    1    2    0    0 -0.20978624473E+02 -0.34648406087E+02  0.35428214595E+01  0.50528852037E+02  0.29999976252E+02 0.  0.
         12    1    1    2    0    0  0.20978624473E+02  0.34648406087E+02 -0.35428214595E+01  0.40659147963E+02  0.00000000000E+00 0. -1.
         11    1    3    3    0    0 -0.25442677209E+01  0.10425518885E-01  0.61983374199E+01  0.67002085012E+01  0.51100000000E-03 0. -1.
        -11    1    3    3    0    0 -0.28700201436E+01  0.22784772369E+01 -0.13826229988E+00  0.36670956994E+01  0.51100000000E-03 0.  1.
        -12    1    3    3    0    0 -0.15564336609E+02 -0.36937308843E+02 -0.25172536606E+01  0.40161547837E+02  0.00000000000E+00 0.  1.
</event>
<event>
 7    1  0.3383281E-011  0.5052886E+02  0.7816164E-02  0.1300439E+00
        -11   -1    0    0    0    0  0.00000000000E+00  0.00000000000E+00  0.45593999997E+02  0.45594000000E+02  0.51100000000E-03 0. -1.
         11   -1    0    0    0    0 -0.00000000000E+00 -0.00000000000E+00 -0.45593999997E+02  0.45594000000E+02  0.51100000000E-03 0.  1.
    9900012    2    1    2    0    0 -0.28470284341E+02  0.81040534883E+01 -0.27873519300E+02  0.50528857712E+02  0.29999993502E+02 0.  0.
         12    1    1    2    0    0  0.28470284341E+02 -0.81040534883E+01  0.27873519300E+02  0.40659142288E+02  0.00000000000E+00 0. -1.
         11    1    3    3    0    0 -0.41924664718E+01  0.24816930139E+01 -0.42684922288E+01  0.64773143741E+01  0.51100000000E-03 0. -1.
        -11    1    3    3    0    0 -0.10918683653E+02  0.11517792837E+02 -0.24753503839E+02  0.29404305078E+02  0.51100000000E-03 0.  1.
         12    1    3    3    0    0 -0.13359134217E+02 -0.58954323626E+01  0.11484767682E+01  0.14647238260E+02  0.00000000000E+00 0. -1.
</event>
<event>
 7    1  0.3383281E-011  0.5052884E+02  0.7816164E-02  0.1300439E+00
        -11   -1    0    0    0    0  0.00000000000E+00  0.00000000000E+00  0.45593999997E+02  0.45594000000E+02  0.51100000000E-03 0. -1.
         11   -1    0    0    0    0 -0.00000000000E+00 -0.00000000000E+00 -0.45593999997E+02  0.45594000000E+02  0.51100000000E-03 0.  1.
    9900012    2    1    2    0    0 -0.26269221536E+02  0.27840073724E+02 -0.13712232335E+02  0.50528843335E+02  0.29999949802E+02 0.  0.
         12    1    1    2    0    0  0.26269221536E+02 -0.27840073724E+02  0.13712232335E+02  0.40659156665E+02  0.00000000000E+00 0. -1.
         11    1    3    3    0    0  0.12054324878E+01  0.27815854026E+00 -0.25173901378E+01  0.28049408235E+01  0.51100000000E-03 0. -1.
        -11    1    3    3    0    0  0.29048356788E+01 -0.12751135319E+01 -0.41902114188E+01  0.52556499917E+01  0.51100000000E-03 0.  1.
        -12    1    3    3    0    0 -0.30379489703E+02  0.28837028716E+02 -0.70046307781E+01  0.42468252520E+02  0.00000000000E+00 0.  1.
</event>
<event>
 7    1  0.3383281E-011  0.5052883E+02  0.7816164E-02  0.1300439E+00
        -11   -1    0    0    0    0  0.00000000000E+00  0.00000000000E+00  0.45593999997E+02  0.45594000000E+02  0.51100000000E-03 0.  1.
         11   -1    0    0    0    0 -0.00000000000E+00 -0.00000000000E+00 -0.45593999997E+02  0.45594000000E+02  0.51100000000E-03 0. -1.
    9900012    2    1    2    0    0 -0.37706325493E+00  0.37719134244E+02  0.15175397990E+02  0.50528831674E+02  0.29999914355E+02 0.  0.
         12    1    1    2    0    0  0.37706325493E+00 -0.37719134244E+02 -0.15175397990E+02  0.40659168326E+02  0.00000000000E+00 0. -1.
         11    1    3    3    0    0 -0.49354232508E+01 -0.20396711976E+01  0.69530683970E+00  0.53853610020E+01  0.51100000000E-03 0. -1.
        -11    1    3    3    0    0  0.71883426917E+01  0.10240882695E+02  0.89704739622E+00  0.12544028193E+02  0.51100000000E-03 0.  1.
        -12    1    3    3    0    0 -0.26299826957E+01  0.29517922747E+02  0.13583043755E+02  0.32599442479E+02  0.00000000000E+00 0.  1.
</event>
<event>
 7    1  0.3383281E-011  0.5052886E+02  0.7816164E-02  0.1300439E+00
        -11   -1    0    0    0    0  0.00000000000E+00  0.00000000000E+00  0.45593999997E+02  0.45594000000E+02  0.51100000000E-03 0. -1.
         11   -1    0    0    0    0 -0.00000000000E+00 -0.00000000000E+00 -0.45593999997E+02  0.45594000000E+02  0.51100000000E-03 0.  1.
    9900012    2    1    2    0    0  0.18576512169E+02  0.23368379391E+02 -0.27604301746E+02  0.50528862840E+02  0.30000009089E+02 0.  0.
         12    1    1    2    0    0 -0.18576512169E+02 -0.23368379391E+02  0.27604301746E+02  0.40659137160E+02  0.00000000000E+00 0. -1.
         11    1    3    3    0    0 -0.27680629563E+00  0.31787177387E+00  0.26125113112E+01  0.26462954865E+01  0.51100000000E-03 0. -1.
        -11    1    3    3    0    0  0.44209715074E+00  0.77331187846E+01  0.17482610923E+01  0.79405914852E+01  0.51100000000E-03 0.  1.
        -12    1    3    3    0    0  0.18411221314E+02  0.15317388833E+02 -0.31965074149E+02  0.39941975868E+02  0.00000000000E+00 0.  1.
</event>
<event>
 7    1  0.3383281E-011  0.5052886E+02  0.7816164E-02  0.1300439E+00
        -11   -1    0    0    0    0  0.00000000000E+00  0.00000000000E+00  0.45593999997E+02  0.45594000000E+02  0.51100000000E-03 0.  1.
         11   -1    0    0    0    0 -0.00000000000E+00 -0.00000000000E+00 -0.45593999997E+02  0.45594000000E+02  0.51100000000E-03 0. -1.
    9900012    2    1    2    0    0  0.13775311677E+02  0.37514821870E+02  0.74862978336E+01  0.50528859245E+02  0.29999998160E+02 0.  0.
         12    1    1    2    0    0 -0.13775311677E+02 -0.37514821870E+02 -0.74862978336E+01  0.40659140755E+02  0.00000000000E+00 0. -1.
         11    1    3    3    0    0  0.57972148228E+01  0.83100336203E+01 -0.45475804633E+01  0.11106072519E+02  0.51100000000E-03 0. -1.
        -11    1    3    3    0    0  0.14340307167E+02  0.12384061988E+02  0.26313479136E+01  0.19129385591E+02  0.51100000000E-03 0.  1.
         12    1    3    3    0    0 -0.63622103127E+01  0.16820726261E+02  0.94025303833E+01  0.20293401135E+02  0.00000000000E+00 0. -1.
</event>
<event>
 7    1  0.3383281E-011  0.5052885E+02  0.7816164E-02  0.1300439E+00
        -11   -1    0    0    0    0  0.00000000000E+00  0.00000000000E+00  0.45593999997E+02  0.45594000000E+02  0.51100000000E-03 0.  1.
         11   -1    0    0    0    0 -0.00000000000E+00 -0.00000000000E+00 -0.45593999997E+02  0.45594000000E+02  0.51100000000E-03 0. -1.
    9900012    2    1    2    0    0  0.36641017271E+02 -0.12135919286E+02  0.12779732362E+02  0.50528852900E+02  0.29999978876E+02 0.  0.
         12    1    1    2    0    0 -0.36641017271E+02  0.12135919286E+02 -0.12779732362E+02  0.40659147100E+02  0.00000000000E+00 0. -1.
         11    1    3    3    0    0  0.14740884441E+02  0.44604336056E+01 -0.76496702081E+00  0.15419932453E+02  0.51100000000E-03 0. -1.
        -11    1    3    3    0    0 -0.11218403806E+01 -0.34865975475E+01  0.68742593989E+01  0.77891161785E+01  0.51100000000E-03 0.  1.
        -12    1    3    3    0    0  0.23021973211E+02 -0.13109755344E+02  0.66704399843E+01  0.27319804269E+02  0.00000000000E+00 0.  1.
</event>
<event>
 7    1  0.3383281E-011  0.5052893E+02  0.7816164E-02  0.1300439E+00
        -11   -1    0    0    0    0  0.00000000000E+00  0.00000000000E+00  0.45593999997E+02  0.45594000000E+02  0.51100000000E-03 0. -1.
         11   -1    0    0    0    0 -0.00000000000E+00 -0.00000000000E+00 -0.45593999997E+02  0.45594000000E+02  0.51100000000E-03 0.  1.
    9900012    2    1    2    0    0  0.34199874806E+02 -0.20689183390E+02  0.74488952664E+01  0.50528932293E+02  0.30000220198E+02 0.  0.
         12    1    1    2    0    0 -0.34199874806E+02  0.20689183390E+02 -0.74488952664E+01  0.40659067707E+02  0.00000000000E+00 0. -1.
         11    1    3    3    0    0 -0.84434286288E+00  0.28771611038E+01 -0.22308855899E+01  0.37373549020E+01  0.51100000000E-03 0. -1.
        -11    1    3    3    0    0  0.39364848694E+00  0.39963308930E+00  0.42791249532E+01  0.43157359005E+01  0.51100000000E-03 0.  1.
        -12    1    3    3    0    0  0.34650569182E+02 -0.23965977583E+02  0.54006559031E+01  0.42475841491E+02  0.00000000000E+00 0.  1.
</event>
<event>
 7    1  0.3383281E-011  0.5052887E+02  0.7816164E-02  0.1300439E+00
        -11   -1    0    0    0    0  0.00000000000E+00  0.00000000000E+00  0.45593999997E+02  0.45594000000E+02  0.51100000000E-03 0.  1.
         11   -1    0    0    0    0 -0.00000000000E+00 -0.00000000000E+00 -0.45593999997E+02  0.45594000000E+02  0.51100000000E-03 0. -1.
    9900012    2    1    2    0    0 -0.40525767155E+02  0.92449621376E+00  0.31579453449E+01  0.50528866764E+02  0.30000021015E+02 0.  0.
         12    1    1    2    0    0  0.40525767155E+02 -0.92449621376E+00 -0.31579453449E+01  0.40659133236E+02  0.00000000000E+00 0. -1.
         11    1    3    3    0    0 -0.28368989582E+02  0.67994953385E+01 -0.26921506859E+00  0.29173707062E+02  0.51100000000E-03 0. -1.
        -11    1    3    3    0    0 -0.11210049314E+02 -0.57629104036E-01 -0.39741457116E+01  0.11893795069E+02  0.51100000000E-03 0.  1.
        -12    1    3    3    0    0 -0.94672825869E+00 -0.58173700207E+01  0.74013061251E+01  0.94613646326E+01  0.00000000000E+00 0.  1.
</event>
<event>
 7    1  0.3383281E-011  0.5052886E+02  0.7816164E-02  0.1300439E+00
        -11   -1    0    0    0    0  0.00000000000E+00  0.00000000000E+00  0.45593999997E+02  0.45594000000E+02  0.51100000000E-03 0. -1.
         11   -1    0    0    0    0 -0.00000000000E+00 -0.00000000000E+00 -0.45593999997E+02  0.45594000000E+02  0.51100000000E-03 0.  1.
    9900012    2    1    2    0    0 -0.30113749368E+02  0.25050733912E+02 -0.10899023141E+02  0.50528857412E+02  0.29999992590E+02 0.  0.
         12    1    1    2    0    0  0.30113749368E+02 -0.25050733912E+02  0.10899023141E+02  0.40659142588E+02  0.00000000000E+00 0. -1.
         11    1    3    3    0    0 -0.17830315526E+02  0.17829294609E+02  0.24665938914E+01  0.25335508357E+02  0.51100000000E-03 0. -1.
        -11    1    3    3    0    0 -0.10494892841E+02  0.23577379109E+01  0.10854774873E+00  0.10757020343E+02  0.51100000000E-03 0.  1.
         12    1    3    3    0    0 -0.17885410018E+01  0.48637013924E+01 -0.13474164781E+02  0.14436328712E+02  0.00000000000E+00 0. -1.
</event>
<event>
 7    1  0.3383281E-011  0.5052886E+02  0.7816164E-02  0.1300439E+00
        -11   -1    0    0    0    0  0.00000000000E+00  0.00000000000E+00  0.45593999997E+02  0.45594000000E+02  0.51100000000E-03 0. -1.
         11   -1    0    0    0    0 -0.00000000000E+00 -0.00000000000E+00 -0.45593999997E+02  0.45594000000E+02  0.51100000000E-03 0.  1.
    9900012    2    1    2    0    0 -0.16477133738E+02  0.16349211588E+02 -0.33382228048E+02  0.50528858282E+02  0.29999995233E+02 0.  0.
         12    1    1    2    0    0  0.16477133738E+02 -0.16349211588E+02  0.33382228048E+02  0.40659141718E+02  0.00000000000E+00 0. -1.
         11    1    3    3    0    0 -0.60356180060E+01 -0.19768714889E+01 -0.22903686808E+02  0.23767952694E+02  0.51100000000E-03 0. -1.
        -11    1    3    3    0    0 -0.47590959759E+01  0.15378430514E+00  0.49126087491E+00  0.47868550875E+01  0.51100000000E-03 0.  1.
        -12    1    3    3    0    0 -0.56824197566E+01  0.18172298772E+02 -0.10969802115E+02  0.21974050501E+02  0.00000000000E+00 0.  1.
</event>
<event>
 7    1  0.3383281E-011  0.5052885E+02  0.7816164E-02  0.1300439E+00
        -11   -1    0    0    0    0  0.00000000000E+00  0.00000000000E+00  0.45593999997E+02  0.45594000000E+02  0.51100000000E-03 0.  1.
         11   -1    0    0    0    0 -0.00000000000E+00 -0.00000000000E+00 -0.45593999997E+02  0.45594000000E+02  0.51100000000E-03 0. -1.
    9900012    2    1    2    0    0  0.11370562478E+02  0.11490200840E+01  0.39019947982E+02  0.50528852459E+02  0.29999977535E+02 0.  0.
         12    1    1    2    0    0 -0.11370562478E+02 -0.11490200840E+01 -0.39019947982E+02  0.40659147541E+02  0.00000000000E+00 0. -1.
         11    1    3    3    0    0 -0.47495658855E+01  0.62452525436E+01  0.10066839422E+02  0.12763338578E+02  0.51100000000E-03 0. -1.
        -11    1    3    3    0    0 -0.30098206829E+01  0.21320812358E+01  0.32208929155E+01  0.48968298289E+01  0.51100000000E-03 0.  1.
        -12    1    3    3    0    0  0.19129949047E+02 -0.72283136954E+01  0.25732215644E+02  0.32868684053E+02  0.00000000000E+00 0.  1.
</event>
<event>
 7    1  0.3383281E-011  0.5052886E+02  0.7816164E-02  0.1300439E+00
        -11   -1    0    0    0    0  0.00000000000E+00  0.00000000000E+00  0.45593999997E+02  0.45594000000E+02  0.51100000000E-03 0.  1.
         11   -1    0    0    0    0 -0.00000000000E+00 -0.00000000000E+00 -0.45593999997E+02  0.45594000000E+02  0.51100000000E-03 0. -1.
    9900012    2    1    2    0    0 -0.36159635130E+02 -0.14644531950E+02  0.11453550862E+02  0.50528863805E+02  0.30000012022E+02 0.  0.
         12    1    1    2    0    0  0.36159635130E+02  0.14644531950E+02 -0.11453550862E+02  0.40659136195E+02  0.00000000000E+00 0. -1.
         11    1    3    3    0    0 -0.21661799422E+02 -0.10594157175E+02  0.10813346941E+02  0.26427224462E+02  0.51100000000E-03 0. -1.
        -11    1    3    3    0    0 -0.18984756057E+02 -0.32757647401E+01 -0.92324724648E+00  0.19287404774E+02  0.51100000000E-03 0.  1.
         12    1    3    3    0    0  0.44869203495E+01 -0.77461003404E+00  0.15634511676E+01  0.48142345685E+01  0.00000000000E+00 0. -1.
</event>
<event>
 7    1  0.3383281E-011  0.5052887E+02  0.7816164E-02  0.1300439E+00
        -11   -1    0    0    0    0  0.00000000000E+00  0.00000000000E+00  0.45593999997E+02  0.45594000000E+02  0.51100000000E-03 0.  1.
         11   -1    0    0    0    0 -0.00000000000E+00 -0.00000000000E+00 -0.45593999997E+02  0.45594000000E+02  0.51100000000E-03 0. -1.
    9900012    2    1    2    0    0  0.18266908842E+02  0.15454950533E+02  0.32872932658E+02  0.50528866264E+02  0.30000019497E+02 0.  0.
         12    1    1    2    0    0 -0.18266908842E+02 -0.15454950533E+02 -0.32872932658E+02  0.40659133736E+02  0.00000000000E+00 0. -1.
         11    1    3    3    0    0  0.56019483266E+01 -0.43015935864E+01 -0.49796851490E-01  0.70631446555E+01  0.51100000000E-03 0. -1.
        -11    1    3    3    0    0 -0.20680954109E+01  0.39335497783E+01  0.14154401397E+02  0.14835663506E+02  0.51100000000E-03 0.  1.
         12    1    3    3    0    0  0.14733055927E+02  0.15822994341E+02  0.18768328112E+02  0.28630058103E+02  0.00000000000E+00 0. -1.
</event>
<event>
 7    1  0.3383281E-011  0.5052886E+02  0.7816164E-02  0.1300439E+00
        -11   -1    0    0    0    0  0.00000000000E+00  0.00000000000E+00  0.45593999997E+02  0.45594000000E+02  0.51100000000E-03 0.  1.
         11   -1    0    0    0    0 -0.00000000000E+00 -0.00000000000E+00 -0.45593999997E+02  0.45594000000E+02  0.51100000000E-03 0. -1.
    9900012    2    1    2    0    0 -0.35754432365E+02  0.19130908654E+02  0.29656120062E+01  0.50528856450E+02  0.29999989665E+02 0.  0.
         12    1    1    2    0    0  0.35754432365E+02 -0.19130908654E+02 -0.29656120062E+01  0.40659143550E+02  0.00000000000E+00 0. -1.
         11    1    3    3    0    0 -0.65612295333E+01 -0.14331748319E+01  0.30177814526E+01  0.73627935082E+01  0.51100000000E-03 0. -1.
        -11    1    3    3    0    0 -0.29103375159E+02  0.14267454874E+02  0.75643319911E+01  0.33283416786E+02  0.51100000000E-03 0.  1.
        -12    1    3    3    0    0 -0.89827672664E-01  0.62966286128E+01 -0.76165014375E+01  0.98826461560E+01  0.00000000000E+00 0.  1.
</event>
<event>
 7    1  0.3383281E-011  0.5052886E+02  0.7816164E-02  0.1300439E+00
        -11   -1    0    0    0    0  0.00000000000E+00  0.00000000000E+00  0.45593999997E+02  0.45594000000E+02  0.51100000000E-03 0. -1.
         11   -1    0    0    0    0 -0.00000000000E+00 -0.00000000000E+00 -0.45593999997E+02  0.45594000000E+02  0.51100000000E-03 0.  1.
    9900012    2    1    2    0    0 -0.26906280901E+01  0.39666330499E+02 -0.85151698454E+01  0.50528863607E+02  0.30000011419E+02 0.  0.
         12    1    1    2    0    0  0.26906280901E+01 -0.39666330499E+02  0.85151698454E+01  0.40659136393E+02  0.00000000000E+00 0. -1.
         11    1    3    3    0    0 -0.73869624426E+00 -0.39358440046E+01 -0.31676105991E+01  0.51059080816E+01  0.51100000000E-03 0. -1.
        -11    1    3    3    0    0  0.31383081154E+01  0.39571725968E+01  0.27985525404E+00  0.50583111818E+01  0.51100000000E-03 0.  1.
         12    1    3    3    0    0 -0.50902399612E+01  0.39645001906E+02 -0.56274145003E+01  0.40364644343E+02  0.00000000000E+00 0. -1.
</event>
<event>
 7    1  0.3383281E-011  0.5052885E+02  0.7816164E-02  0.1300439E+00
        -11   -1    0    0    0    0  0.00000000000E+00  0.00000000000E+00  0.45593999997E+02  0.45594000000E+02  0.51100000000E-03 0.  1.
         11   -1    0    0    0    0 -0.00000000000E+00 -0.00000000000E+00 -0.45593999997E+02  0.45594000000E+02  0.51100000000E-03 0. -1.
    9900012    2    1    2    0    0 -0.18771892830E+02 -0.30907479060E+02 -0.18587905296E+02  0.50528850408E+02  0.29999971301E+02 0.  0.
         12    1    1    2    0    0  0.18771892830E+02  0.30907479060E+02  0.18587905296E+02  0.40659149592E+02  0.00000000000E+00 0. -1.
         11    1    3    3    0    0 -0.40447006305E+01 -0.10107011125E+02  0.17784350987E+01  0.11030598747E+02  0.51100000000E-03 0. -1.
        -11    1    3    3    0    0 -0.15666986096E+02 -0.15329030306E+02 -0.40846781581E+01  0.22296148084E+02  0.51100000000E-03 0.  1.
         12    1    3    3    0    0  0.93979389668E+00 -0.54714376288E+01 -0.16281662236E+02  0.17202103577E+02  0.00000000000E+00 0. -1.
</event>
<event>
 7    1  0.3383281E-011  0.5052886E+02  0.7816164E-02  0.1300439E+00
        -11   -1    0    0    0    0  0.00000000000E+00  0.00000000000E+00  0.45593999997E+02  0.45594000000E+02  0.51100000000E-03 0. -1.
         11   -1    0    0    0    0 -0.00000000000E+00 -0.00000000000E+00 -0.45593999997E+02  0.45594000000E+02  0.51100000000E-03 0.  1.
    9900012    2    1    2    0    0  0.17828683710E+02 -0.32289257265E+02 -0.17108700119E+02  0.50528859363E+02  0.29999998520E+02 0.  0.
         12    1    1    2    0    0 -0.17828683710E+02  0.32289257265E+02  0.17108700119E+02  0.40659140637E+02  0.00000000000E+00 0. -1.
         11    1    3    3    0    0  0.76546256429E+01 -0.44813746405E+01 -0.44163959315E+01  0.99086106840E+01  0.51100000000E-03 0. -1.
        -11    1    3    3    0    0  0.16589823335E+02 -0.26647349380E+02 -0.74685345537E+01  0.32265809705E+02  0.51100000000E-03 0.  1.
        -12    1    3    3    0    0 -0.64157652680E+01 -0.11605332447E+01 -0.52237696337E+01  0.83544389742E+01  0.00000000000E+00 0.  1.
</event>
<event>
 7    1  0.3383281E-011  0.5052885E+02  0.7816164E-02  0.1300439E+00
        -11   -1    0    0    0    0  0.00000000000E+00  0.00000000000E+00  0.45593999997E+02  0.45594000000E+02  0.51100000000E-03 0.  1.
         11   -1    0    0    0    0 -0.00000000000E+00 -0.00000000000E+00 -0.45593999997E+02  0.45594000000E+02  0.51100000000E-03 0. -1.
    9900012    2    1    2    0    0  0.13802089177E+02  0.23554933605E+01  0.38172251270E+02  0.50528846275E+02  0.29999958738E+02 0.  0.
         12    1    1    2    0    0 -0.13802089177E+02 -0.23554933605E+01 -0.38172251270E+02  0.40659153725E+02  0.00000000000E+00 0. -1.
         11    1    3    3    0    0  0.57488698848E+00  0.18887601105E+01  0.54984151796E+00  0.20494476720E+01  0.51100000000E-03 0. -1.
        -11    1    3    3    0    0  0.20862406947E+02  0.24839206174E+01  0.33571818397E+02  0.39604000758E+02  0.51100000000E-03 0.  1.
        -12    1    3    3    0    0 -0.76352047590E+01 -0.20171873675E+01  0.40505913547E+01  0.88753978452E+01  0.00000000000E+00 0.  1.
</event>
<event>
 7    1  0.3383281E-011  0.5052887E+02  0.7816164E-02  0.1300439E+00
        -11   -1    0    0    0    0  0.00000000000E+00  0.00000000000E+00  0.45593999997E+02  0.45594000000E+02  0.51100000000E-03 0.  1.
         11   -1    0    0    0    0 -0.00000000000E+00 -0.00000000000E+00 -0.45593999997E+02  0.45594000000E+02  0.51100000000E-03 0. -1.
    9900012    2    1    2    0    0 -0.23062788272E+02  0.10094978714E+02  0.31927483333E+02  0.50528868306E+02  0.30000025702E+02 0.  0.
         12    1    1    2    0    0  0.23062788272E+02 -0.10094978714E+02 -0.31927483333E+02  0.40659131694E+02  0.00000000000E+00 0. -1.
         11    1    3    3    0    0 -0.24587572844E+01  0.51080137526E+00  0.57613117711E-01  0.25119165911E+01  0.51100000000E-03 0. -1.
        -11    1    3    3    0    0 -0.20276940145E+02  0.43454126996E+01  0.59544031238E+01  0.21575259674E+02  0.51100000000E-03 0.  1.
         12    1    3    3    0    0 -0.32709084220E+00  0.52387646396E+01  0.25915467092E+02  0.26441692040E+02  0.00000000000E+00 0. -1.
</event>
<event>
 7    1  0.3383281E-011  0.5052888E+02  0.7816164E-02  0.1300439E+00
        -11   -1    0    0    0    0  0.00000000000E+00  0.00000000000E+00  0.45593999997E+02  0.45594000000E+02  0.51100000000E-03 0.  1.
         11   -1    0    0    0    0 -0.00000000000E+00 -0.00000000000E+00 -0.45593999997E+02  0.45594000000E+02  0.51100000000E-03 0. -1.
    9900012    2    1    2    0    0  0.68506521164E+01 -0.28541362369E+02  0.28135802442E+02  0.50528878276E+02  0.30000056008E+02 0.  0.
         12    1    1    2    0    0 -0.68506521164E+01  0.28541362369E+02 -0.28135802442E+02  0.40659121724E+02  0.00000000000E+00 0. -1.
         11    1    3    3    0    0  0.92873316845E+01 -0.18940219133E+02  0.69419196622E+01  0.22207581576E+02  0.51100000000E-03 0. -1.
        -11    1    3    3    0    0  0.12025707926E+01 -0.88547790085E+01  0.25244092282E+01  0.92857918355E+01  0.51100000000E-03 0.  1.
         12    1    3    3    0    0 -0.36392503607E+01 -0.74636422787E+00  0.18669473552E+02  0.19035504864E+02  0.00000000000E+00 0. -1.
</event>
<event>
 7    1  0.3383281E-011  0.5052886E+02  0.7816164E-02  0.1300439E+00
        -11   -1    0    0    0    0  0.00000000000E+00  0.00000000000E+00  0.45593999997E+02  0.45594000000E+02  0.51100000000E-03 0.  1.
         11   -1    0    0    0    0 -0.00000000000E+00 -0.00000000000E+00 -0.45593999997E+02  0.45594000000E+02  0.51100000000E-03 0. -1.
    9900012    2    1    2    0    0  0.11637267148E+02 -0.29394764373E+02  0.25567312590E+02  0.50528860408E+02  0.30000001697E+02 0.  0.
         12    1    1    2    0    0 -0.11637267148E+02  0.29394764373E+02 -0.25567312590E+02  0.40659139592E+02  0.00000000000E+00 0. -1.
         11    1    3    3    0    0  0.99991020370E+00 -0.75186966755E+01  0.90449441634E+01  0.11804305795E+02  0.51100000000E-03 0.  1.
        -11    1    3    3    0    0  0.13910670334E+01  0.56301430459E+01  0.12512149396E+01  0.59328843992E+01  0.51100000000E-03 0. -1.
         12    1    3    3    0    0  0.92462899112E+01 -0.27506210744E+02  0.15271153487E+02  0.32791670214E+02  0.00000000000E+00 0. -1.
</event>
<event>
 7    1  0.3383281E-011  0.5052884E+02  0.7816164E-02  0.1300439E+00
        -11   -1    0    0    0    0  0.00000000000E+00  0.00000000000E+00  0.45593999997E+02  0.45594000000E+02  0.51100000000E-03 0.  1.
         11   -1    0    0    0    0 -0.00000000000E+00 -0.00000000000E+00 -0.45593999997E+02  0.45594000000E+02  0.51100000000E-03 0. -1.
    9900012    2    1    2    0    0 -0.36500672677E+02  0.10393747313E+02  0.14588962011E+02  0.50528844799E+02  0.29999954251E+02 0.  0.
         12    1    1    2    0    0  0.36500672677E+02 -0.10393747313E+02 -0.14588962011E+02  0.40659155201E+02  0.00000000000E+00 0. -1.
         11    1    3    3    0    0 -0.91233612106E+01  0.12985450336E+02  0.78981648470E+01  0.17726777722E+02  0.51100000000E-03 0. -1.
        -11    1    3    3    0    0 -0.72406435385E+01  0.33715439315E+01  0.85726307190E+01  0.11716835112E+02  0.51100000000E-03 0.  1.
         12    1    3    3    0    0 -0.20136667928E+02 -0.59632469541E+01 -0.18818335546E+01  0.21085231965E+02  0.00000000000E+00 0. -1.
</event>
<event>
 7    1  0.3383281E-011  0.5052886E+02  0.7816164E-02  0.1300439E+00
        -11   -1    0    0    0    0  0.00000000000E+00  0.00000000000E+00  0.45593999997E+02  0.45594000000E+02  0.51100000000E-03 0. -1.
         11   -1    0    0    0    0 -0.00000000000E+00 -0.00000000000E+00 -0.45593999997E+02  0.45594000000E+02  0.51100000000E-03 0.  1.
    9900012    2    1    2    0    0  0.26424754877E+01  0.25533005751E+02 -0.31531711444E+02  0.50528857289E+02  0.29999992216E+02 0.  0.
         12    1    1    2    0    0 -0.26424754877E+01 -0.25533005751E+02  0.31531711444E+02  0.40659142711E+02  0.00000000000E+00 0. -1.
         11    1    3    3    0    0 -0.41153788131E+01  0.19234279650E+02 -0.69228711791E+01  0.20852338048E+02  0.51100000000E-03 0. -1.
        -11    1    3    3    0    0 -0.34123577178E+01  0.42084742612E+01 -0.44908773158E+01  0.70372878389E+01  0.51100000000E-03 0.  1.
        -12    1    3    3    0    0  0.10170212019E+02  0.20902518400E+01 -0.20117962949E+02  0.22639231402E+02  0.00000000000E+00 0.  1.
</event>
<event>
 7    1  0.3383281E-011  0.5052889E+02  0.7816164E-02  0.1300439E+00
        -11   -1    0    0    0    0  0.00000000000E+00  0.00000000000E+00  0.45593999997E+02  0.45594000000E+02  0.51100000000E-03 0.  1.
         11   -1    0    0    0    0 -0.00000000000E+00 -0.00000000000E+00 -0.45593999997E+02  0.45594000000E+02  0.51100000000E-03 0. -1.
    9900012    2    1    2    0    0  0.17945111660E+02 -0.42513247889E+01  0.36236201749E+02  0.50528891400E+02  0.30000095899E+02 0.  0.
         12    1    1    2    0    0 -0.17945111660E+02  0.42513247889E+01 -0.36236201749E+02  0.40659108600E+02  0.00000000000E+00 0. -1.
         11    1    3    3    0    0 -0.70440666369E+01 -0.19087228178E+01  0.85236277631E+01  0.11221155381E+02  0.51100000000E-03 0.  1.
        -11    1    3    3    0    0 -0.13372014154E+01 -0.65401301757E+00  0.12794843114E+01  0.19628858899E+01  0.51100000000E-03 0. -1.
         12    1    3    3    0    0  0.26326379712E+02 -0.16885889535E+01  0.26433089675E+02  0.37344850129E+02  0.00000000000E+00 0. -1.
</event>
<event>
 7    1  0.3383281E-011  0.5052887E+02  0.7816164E-02  0.1300439E+00
        -11   -1    0    0    0    0  0.00000000000E+00  0.00000000000E+00  0.45593999997E+02  0.45594000000E+02  0.51100000000E-03 0.  1.
         11   -1    0    0    0    0 -0.00000000000E+00 -0.00000000000E+00 -0.45593999997E+02  0.45594000000E+02  0.51100000000E-03 0. -1.
    9900012    2    1    2    0    0 -0.10751191616E+02  0.19504564307E+02  0.34016889672E+02  0.50528869010E+02  0.30000027842E+02 0.  0.
         12    1    1    2    0    0  0.10751191616E+02 -0.19504564307E+02 -0.34016889672E+02  0.40659130990E+02  0.00000000000E+00 0. -1.
         11    1    3    3    0    0  0.22157995777E+01  0.51509820766E+01 -0.20591935442E+00  0.56111306493E+01  0.51100000000E-03 0. -1.
        -11    1    3    3    0    0 -0.63795770753E+01 -0.50848169075E+01  0.13344318871E+02  0.15640499130E+02  0.51100000000E-03 0.  1.
        -12    1    3    3    0    0 -0.65874141184E+01  0.19438399138E+02  0.20878490155E+02  0.29277239231E+02  0.00000000000E+00 0.  1.
</event>
<event>
 7    1  0.3383281E-011  0.5052900E+02  0.7816164E-02  0.1300438E+00
        -11   -1    0    0    0    0  0.00000000000E+00  0.00000000000E+00  0.45593999997E+02  0.45594000000E+02  0.51100000000E-03 0.  1.
         11   -1    0    0    0    0 -0.00000000000E+00 -0.00000000000E+00 -0.45593999997E+02  0.45594000000E+02  0.51100000000E-03 0. -1.
    9900012    2    1    2    0    0 -0.19988289870E+01  0.23630365737E+02 -0.33026727987E+02  0.50529000212E+02  0.30000426643E+02 0.  0.
         12    1    1    2    0    0  0.19988289870E+01 -0.23630365737E+02  0.33026727987E+02  0.40658999788E+02  0.00000000000E+00 0. -1.
         11    1    3    3    0    0 -0.41479621475E+01  0.70326214754E+01 -0.13875518888E+02  0.16099483826E+02  0.51100000000E-03 0. -1.
        -11    1    3    3    0    0 -0.80089807525E+01  0.10025377684E+02 -0.13453015874E+01  0.12902007868E+02  0.51100000000E-03 0.  1.
         12    1    3    3    0    0  0.10158113913E+02  0.65723665782E+01 -0.17805907511E+02  0.21527508518E+02  0.00000000000E+00 0. -1.
</event>
<event>
 7    1  0.3383281E-011  0.5052886E+02  0.7816164E-02  0.1300439E+00
        -11   -1    0    0    0    0  0.00000000000E+00  0.00000000000E+00  0.45593999997E+02  0.45594000000E+02  0.51100000000E-03 0.  1.
         11   -1    0    0    0    0 -0.00000000000E+00 -0.00000000000E+00 -0.45593999997E+02  0.45594000000E+02  0.51100000000E-03 0. -1.
    9900012    2    1    2    0    0  0.34508566372E+02  0.89482550544E+01  0.19551295511E+02  0.50528861080E+02  0.30000003740E+02 0.  0.
         12    1    1    2    0    0 -0.34508566372E+02 -0.89482550544E+01 -0.19551295511E+02  0.40659138920E+02  0.00000000000E+00 0. -1.
         11    1    3    3    0    0  0.36199250318E+00 -0.10993279008E+01 -0.26351239439E+01  0.28780963963E+01  0.51100000000E-03 0. -1.
        -11    1    3    3    0    0  0.16626079432E+02 -0.61648539832E+01  0.56456541712E+01  0.18609281372E+02  0.51100000000E-03 0.  1.
        -12    1    3    3    0    0  0.17520494437E+02  0.16212436938E+02  0.16540765283E+02  0.29041483312E+02  0.00000000000E+00 0.  1.
</event>
<event>
 7    1  0.3383281E-011  0.5052885E+02  0.7816164E-02  0.1300439E+00
        -11   -1    0    0    0    0  0.00000000000E+00  0.00000000000E+00  0.45593999997E+02  0.45594000000E+02  0.51100000000E-03 0. -1.
         11   -1    0    0    0    0 -0.00000000000E+00 -0.00000000000E+00 -0.45593999997E+02  0.45594000000E+02  0.51100000000E-03 0.  1.
    9900012    2    1    2    0    0  0.31061321592E+02 -0.24174670909E+02  0.10195380894E+02  0.50528853377E+02  0.29999980324E+02 0.  0.
         12    1    1    2    0    0 -0.31061321592E+02  0.24174670909E+02 -0.10195380894E+02  0.40659146623E+02  0.00000000000E+00 0. -1.
         11    1    3    3    0    0  0.14959847932E+02 -0.45156180005E+01  0.13505081638E+02  0.20653694255E+02  0.51100000000E-03 0. -1.
        -11    1    3    3    0    0 -0.41752942135E+00  0.10784851930E+01  0.24811336604E+01  0.27374231736E+01  0.51100000000E-03 0.  1.
        -12    1    3    3    0    0  0.16519003081E+02 -0.20737538101E+02 -0.57908344044E+01  0.27137735948E+02  0.00000000000E+00 0.  1.
</event>
<event>
 7    1  0.3383281E-011  0.5052887E+02  0.7816164E-02  0.1300439E+00
        -11   -1    0    0    0    0  0.00000000000E+00  0.00000000000E+00  0.45593999997E+02  0.45594000000E+02  0.51100000000E-03 0.  1.
         11   -1    0    0    0    0 -0.00000000000E+00 -0.00000000000E+00 -0.45593999997E+02  0.45594000000E+02  0.51100000000E-03 0. -1.
    9900012    2    1    2    0    0  0.96694910074E+01 -0.15024404571E+02  0.36523045455E+02  0.50528872631E+02  0.30000038850E+02 0.  0.
         12    1    1    2    0    0 -0.96694910074E+01  0.15024404571E+02 -0.36523045455E+02  0.40659127369E+02  0.00000000000E+00 0. -1.
         11    1    3    3    0    0 -0.12841357547E+01  0.22430968057E+01  0.84905891500E+00  0.27205494332E+01  0.51100000000E-03 0. -1.
        -11    1    3    3    0    0  0.72645395836E+01  0.49710714230E+01  0.65127610812E+01  0.10949938064E+02  0.51100000000E-03 0.  1.
        -12    1    3    3    0    0  0.36890871785E+01 -0.22238572800E+02  0.29161225459E+02  0.36858385134E+02  0.00000000000E+00 0.  1.
</event>
<event>
 7    1  0.3383281E-011  0.5052886E+02  0.7816164E-02  0.1300439E+00
        -11   -1    0    0    0    0  0.00000000000E+00  0.00000000000E+00  0.45593999997E+02  0.45594000000E+02  0.51100000000E-03 0.  1.
         11   -1    0    0    0    0 -0.00000000000E+00 -0.00000000000E+00 -0.45593999997E+02  0.45594000000E+02  0.51100000000E-03 0. -1.
    9900012    2    1    2    0    0 -0.40273220978E+02 -0.21954372478E+01 -0.51393816872E+01  0.50528861829E+02  0.30000006016E+02 0.  0.
         12    1    1    2    0    0  0.40273220978E+02  0.21954372478E+01  0.51393816872E+01  0.40659138171E+02  0.00000000000E+00 0. -1.
         11    1    3    3    0    0 -0.50172040066E+01 -0.85314443368E+01 -0.10382616833E+00  0.98979118328E+01  0.51100000000E-03 0. -1.
        -11    1    3    3    0    0  0.63191042192E+00 -0.27521024735E+01  0.12365983501E+01  0.30826213758E+01  0.51100000000E-03 0.  1.
         12    1    3    3    0    0 -0.35887927394E+02  0.90881095625E+01 -0.62721538690E+01  0.37548328620E+02  0.00000000000E+00 0. -1.
</event>
<event>
 7    1  0.3383281E-011  0.5052886E+02  0.7816164E-02  0.1300439E+00
        -11   -1    0    0    0    0  0.00000000000E+00  0.00000000000E+00  0.45593999997E+02  0.45594000000E+02  0.51100000000E-03 0.  1.
         11   -1    0    0    0    0 -0.00000000000E+00 -0.00000000000E+00 -0.45593999997E+02  0.45594000000E+02  0.51100000000E-03 0. -1.
    9900012    2    1    2    0    0 -0.52022931708E+00  0.29175220356E+02  0.28314339534E+02  0.50528856568E+02  0.29999990024E+02 0.  0.
         12    1    1    2    0    0  0.52022931708E+00 -0.29175220356E+02 -0.28314339534E+02  0.40659143432E+02  0.00000000000E+00 0. -1.
         11    1    3    3    0    0  0.19436685985E+01  0.63537059318E+01 -0.29009055551E+01  0.72500124130E+01  0.51100000000E-03 0. -1.
        -11    1    3    3    0    0  0.61147700622E+01  0.14179895951E+02  0.88099928689E+01  0.17778521781E+02  0.51100000000E-03 0.  1.
        -12    1    3    3    0    0 -0.85786679778E+01  0.86416184732E+01  0.22405252221E+02  0.25500322374E+02  0.00000000000E+00 0.  1.
</event>
<event>
 7    1  0.3383281E-011  0.5052886E+02  0.7816164E-02  0.1300439E+00
        -11   -1    0    0    0    0  0.00000000000E+00  0.00000000000E+00  0.45593999997E+02  0.45594000000E+02  0.51100000000E-03 0.  1.
         11   -1    0    0    0    0 -0.00000000000E+00 -0.00000000000E+00 -0.45593999997E+02  0.45594000000E+02  0.51100000000E-03 0. -1.
    9900012    2    1    2    0    0  0.16022845444E+02 -0.11867003054E+02  0.35434564377E+02  0.50528859697E+02  0.29999999535E+02 0.  0.
         12    1    1    2    0    0 -0.16022845444E+02  0.11867003054E+02 -0.35434564377E+02  0.40659140303E+02  0.00000000000E+00 0. -1.
         11    1    3    3    0    0 -0.28087130087E+01 -0.85044133807E+01  0.14771086574E+02  0.17274226887E+02  0.51100000000E-03 0. -1.
        -11    1    3    3    0    0  0.87841565698E+01  0.62476236240E+01  0.38708485027E+01  0.11453282324E+02  0.51100000000E-03 0.  1.
         12    1    3    3    0    0  0.10047401883E+02 -0.96102132969E+01  0.16792629300E+02  0.21801350486E+02  0.00000000000E+00 0. -1.
</event>
<event>
 7    1  0.3383281E-011  0.5052884E+02  0.7816164E-02  0.1300439E+00
        -11   -1    0    0    0    0  0.00000000000E+00  0.00000000000E+00  0.45593999997E+02  0.45594000000E+02  0.51100000000E-03 0. -1.
         11   -1    0    0    0    0 -0.00000000000E+00 -0.00000000000E+00 -0.45593999997E+02  0.45594000000E+02  0.51100000000E-03 0.  1.
    9900012    2    1    2    0    0 -0.27698442287E+02 -0.11052048528E+02 -0.27637219881E+02  0.50528838615E+02  0.29999935453E+02 0.  0.
         12    1    1    2    0    0  0.27698442287E+02  0.11052048528E+02  0.27637219881E+02  0.40659161385E+02  0.00000000000E+00 0. -1.
         11    1    3    3    0    0 -0.15532267574E+01  0.33374408829E+01  0.32290137976E+00  0.36953065595E+01  0.51100000000E-03 0. -1.
        -11    1    3    3    0    0  0.19310231105E+01  0.13292164185E+01  0.18375327291E+01  0.29786227240E+01  0.51100000000E-03 0.  1.
        -12    1    3    3    0    0 -0.28076238640E+02 -0.15718705829E+02 -0.29797653990E+02  0.43854909331E+02  0.00000000000E+00 0.  1.
</event>
<event>
 7    1  0.3383281E-011  0.5052886E+02  0.7816164E-02  0.1300439E+00
        -11   -1    0    0    0    0  0.00000000000E+00  0.00000000000E+00  0.45593999997E+02  0.45594000000E+02  0.51100000000E-03 0.  1.
         11   -1    0    0    0    0 -0.00000000000E+00 -0.00000000000E+00 -0.45593999997E+02  0.45594000000E+02  0.51100000000E-03 0. -1.
    9900012    2    1    2    0    0  0.26750162115E+02  0.86877460553E+01  0.29361835924E+02  0.50528861870E+02  0.30000006139E+02 0.  0.
         12    1    1    2    0    0 -0.26750162115E+02 -0.86877460553E+01 -0.29361835924E+02  0.40659138130E+02  0.00000000000E+00 0. -1.
         11    1    3    3    0    0  0.63694917794E+01 -0.75375126949E+01  0.11187864442E+01  0.99315762355E+01  0.51100000000E-03 0. -1.
        -11    1    3    3    0    0  0.57474914292E+01  0.75642176499E+01  0.26366120031E+01  0.98591464894E+01  0.51100000000E-03 0.  1.
        -12    1    3    3    0    0  0.14633178907E+02  0.86610411003E+01  0.25606437476E+02  0.30738139145E+02  0.00000000000E+00 0.  1.
</event>
<event>
 7    1  0.3383281E-011  0.5052887E+02  0.7816164E-02  0.1300439E+00
        -11   -1    0    0    0    0  0.00000000000E+00  0.00000000000E+00  0.45593999997E+02  0.45594000000E+02  0.51100000000E-03 0.  1.
         11   -1    0    0    0    0 -0.00000000000E+00 -0.00000000000E+00 -0.45593999997E+02  0.45594000000E+02  0.51100000000E-03 0. -1.
    9900012    2    1    2    0    0  0.21041190782E+01 -0.10422883454E+02  0.39244117377E+02  0.50528873530E+02  0.30000041581E+02 0.  0.
         12    1    1    2    0    0 -0.21041190782E+01  0.10422883454E+02 -0.39244117377E+02  0.40659126470E+02  0.00000000000E+00 0. -1.
         11    1    3    3    0    0  0.75995855048E+01  0.58140908927E+01  0.64808316080E+01  0.11556752630E+02  0.51100000000E-03 0. -1.
        -11    1    3    3    0    0  0.91872296494E+00  0.15274406407E+01  0.56838896931E+01  0.59568220640E+01  0.51100000000E-03 0.  1.
         12    1    3    3    0    0 -0.64141893915E+01 -0.17764414987E+02  0.27079396076E+02  0.33015298836E+02  0.00000000000E+00 0. -1.
</event>
<event>
 7    1  0.3383281E-011  0.5052886E+02  0.7816164E-02  0.1300439E+00
        -11   -1    0    0    0    0  0.00000000000E+00  0.00000000000E+00  0.45593999997E+02  0.45594000000E+02  0.51100000000E-03 0.  1.
         11   -1    0    0    0    0 -0.00000000000E+00 -0.00000000000E+00 -0.45593999997E+02  0.45594000000E+02  0.51100000000E-03 0. -1.
    9900012    2    1    2    0    0 -0.19636611538E+02 -0.21244764730E+02  0.28569725282E+02  0.50528859038E+02  0.29999997531E+02 0.  0.
         12    1    1    2    0    0  0.19636611538E+02  0.21244764730E+02 -0.28569725282E+02  0.40659140962E+02  0.00000000000E+00 0. -1.
         11    1    3    3    0    0  0.49361355037E+01 -0.23909208142E+01  0.12211549384E+02  0.13386705146E+02  0.51100000000E-03 0. -1.
        -11    1    3    3    0    0 -0.97803190762E+01 -0.73175986652E+01 -0.57191585029E-01  0.12214956512E+02  0.51100000000E-03 0.  1.
        -12    1    3    3    0    0 -0.14792427965E+02 -0.11536245250E+02  0.16415367483E+02  0.24927197379E+02  0.00000000000E+00 0.  1.
</event>
<event>
 7    1  0.3383281E-011  0.5052885E+02  0.7816164E-02  0.1300439E+00
        -11   -1    0    0    0    0  0.00000000000E+00  0.00000000000E+00  0.45593999997E+02  0.45594000000E+02  0.51100000000E-03 0. -1.
         11   -1    0    0    0    0 -0.00000000000E+00 -0.00000000000E+00 -0.45593999997E+02  0.45594000000E+02  0.51100000000E-03 0.  1.
    9900012    2    1    2    0    0  0.17813111700E+02 -0.20724510337E+02 -0.30105713943E+02  0.50528852332E+02  0.29999977148E+02 0.  0.
         12    1    1    2    0    0 -0.17813111700E+02  0.20724510337E+02  0.30105713943E+02  0.40659147668E+02  0.00000000000E+00 0. -1.
         11    1    3    3    0    0  0.34437911166E+01  0.41425266042E+00 -0.12814328341E+02  0.13275477905E+02  0.51100000000E-03 0. -1.
        -11    1    3    3    0    0 -0.38144210779E+01 -0.39918052208E+01 -0.96502560452E+01  0.11118082527E+02  0.51100000000E-03 0.  1.
        -12    1    3    3    0    0  0.18183741661E+02 -0.17146957776E+02 -0.76411295564E+01  0.26135291899E+02  0.00000000000E+00 0.  1.
</event>
<event>
 7    1  0.3383281E-011  0.5052887E+02  0.7816164E-02  0.1300439E+00
        -11   -1    0    0    0    0  0.00000000000E+00  0.00000000000E+00  0.45593999997E+02  0.45594000000E+02  0.51100000000E-03 0. -1.
         11   -1    0    0    0    0 -0.00000000000E+00 -0.00000000000E+00 -0.45593999997E+02  0.45594000000E+02  0.51100000000E-03 0.  1.
    9900012    2    1    2    0    0 -0.27846559738E+02 -0.28572259724E+02  0.78332769955E+01  0.50528866420E+02  0.30000019971E+02 0.  0.
         12    1    1    2    0    0  0.27846559738E+02  0.28572259724E+02 -0.78332769955E+01  0.40659133580E+02  0.00000000000E+00 0. -1.
         11    1    3    3    0    0 -0.62017841251E+01 -0.65029540922E+00 -0.40335784681E+01  0.74266254768E+01  0.51100000000E-03 0. -1.
        -11    1    3    3    0    0 -0.22726944133E+02 -0.20990991901E+02  0.20084274746E+01  0.31002733940E+02  0.51100000000E-03 0.  1.
         12    1    3    3    0    0  0.10821685196E+01 -0.69309724137E+01  0.98584279890E+01  0.12099507003E+02  0.00000000000E+00 0. -1.
</event>
<event>
 7    1  0.3383281E-011  0.5052886E+02  0.7816164E-02  0.1300439E+00
        -11   -1    0    0    0    0  0.00000000000E+00  0.00000000000E+00  0.45593999997E+02  0.45594000000E+02  0.51100000000E-03 0.  1.
         11   -1    0    0    0    0 -0.00000000000E+00 -0.00000000000E+00 -0.45593999997E+02  0.45594000000E+02  0.51100000000E-03 0. -1.
    9900012    2    1    2    0    0  0.40297859360E+02  0.48533580476E+01 -0.23859727623E+01  0.50528863027E+02  0.30000009658E+02 0.  0.
         12    1    1    2    0    0 -0.40297859360E+02 -0.48533580476E+01  0.23859727623E+01  0.40659136973E+02  0.00000000000E+00 0. -1.
         11    1    3    3    0    0 -0.31936701540E+01  0.36958332140E+01 -0.21383966548E+01  0.53321152193E+01  0.51100000000E-03 0. -1.
        -11    1    3    3    0    0  0.17770657461E+02  0.61808285806E+01  0.18530176982E+01  0.18905887533E+02  0.51100000000E-03 0.  1.
        -12    1    3    3    0    0  0.25720872053E+02 -0.50233037470E+01 -0.21005938057E+01  0.26290860275E+02  0.00000000000E+00 0.  1.
</event>
<event>
 7    1  0.3383281E-011  0.5052886E+02  0.7816164E-02  0.1300439E+00
        -11   -1    0    0    0    0  0.00000000000E+00  0.00000000000E+00  0.45593999997E+02  0.45594000000E+02  0.51100000000E-03 0. -1.
         11   -1    0    0    0    0 -0.00000000000E+00 -0.00000000000E+00 -0.45593999997E+02  0.45594000000E+02  0.51100000000E-03 0.  1.
    9900012    2    1    2    0    0 -0.23832838709E+02  0.10871167003E+02 -0.31096286705E+02  0.50528861793E+02  0.30000005905E+02 0.  0.
         12    1    1    2    0    0  0.23832838709E+02 -0.10871167003E+02  0.31096286705E+02  0.40659138207E+02  0.00000000000E+00 0. -1.
         11    1    3    3    0    0 -0.17102282781E+01 -0.27845484248E+01  0.41594090857E+01  0.52895439214E+01  0.51100000000E-03 0. -1.
        -11    1    3    3    0    0 -0.85856290891E+00 -0.12145739134E+01 -0.28979725570E-01  0.14876693669E+01  0.51100000000E-03 0.  1.
        -12    1    3    3    0    0 -0.21264047522E+02  0.14870289341E+02 -0.35226716065E+02  0.43751648504E+02  0.00000000000E+00 0.  1.
</event>
<event>
 7    1  0.3383281E-011  0.5052886E+02  0.7816164E-02  0.1300439E+00
        -11   -1    0    0    0    0  0.00000000000E+00  0.00000000000E+00  0.45593999997E+02  0.45594000000E+02  0.51100000000E-03 0.  1.
         11   -1    0    0    0    0 -0.00000000000E+00 -0.00000000000E+00 -0.45593999997E+02  0.45594000000E+02  0.51100000000E-03 0. -1.
    9900012    2    1    2    0    0 -0.71392038687E+01 -0.42874266047E-01  0.40027434017E+02  0.50528861493E+02  0.30000004995E+02 0.  0.
         12    1    1    2    0    0  0.71392038687E+01  0.42874266047E-01 -0.40027434017E+02  0.40659138507E+02  0.00000000000E+00 0. -1.
         11    1    3    3    0    0  0.64940691452E+01 -0.85675750822E+00  0.44499668091E+01  0.79189123213E+01  0.51100000000E-03 0. -1.
        -11    1    3    3    0    0 -0.86930285736E+00  0.84650058631E+01  0.11526789483E+02  0.14327556937E+02  0.51100000000E-03 0.  1.
        -12    1    3    3    0    0 -0.12763970157E+02 -0.76511226209E+01  0.24050677725E+02  0.28282392235E+02  0.00000000000E+00 0.  1.
</event>
<event>
 7    1  0.3383281E-011  0.5052886E+02  0.7816164E-02  0.1300439E+00
        -11   -1    0    0    0    0  0.00000000000E+00  0.00000000000E+00  0.45593999997E+02  0.45594000000E+02  0.51100000000E-03 0.  1.
         11   -1    0    0    0    0 -0.00000000000E+00 -0.00000000000E+00 -0.45593999997E+02  0.45594000000E+02  0.51100000000E-03 0. -1.
    9900012    2    1    2    0    0 -0.18389602357E+02 -0.22207333797E+02  0.28667446149E+02  0.50528860586E+02  0.30000002236E+02 0.  0.
         12    1    1    2    0    0  0.18389602357E+02  0.22207333797E+02 -0.28667446149E+02  0.40659139414E+02  0.00000000000E+00 0. -1.
         11    1    3    3    0    0  0.23227750397E+01 -0.90218529005E+01  0.21682756732E+02  0.23599386716E+02  0.51100000000E-03 0. -1.
        -11    1    3    3    0    0 -0.66883829992E+00  0.98154110790E+00  0.12486161935E+01  0.17233137491E+01  0.51100000000E-03 0.  1.
        -12    1    3    3    0    0 -0.20043539096E+02 -0.14167022004E+02  0.57360732244E+01  0.25206160120E+02  0.00000000000E+00 0.  1.
</event>
<event>
 7    1  0.3383281E-011  0.5052886E+02  0.7816164E-02  0.1300439E+00
        -11   -1    0    0    0    0  0.00000000000E+00  0.00000000000E+00  0.45593999997E+02  0.45594000000E+02  0.51100000000E-03 0.  1.
         11   -1    0    0    0    0 -0.00000000000E+00 -0.00000000000E+00 -0.45593999997E+02  0.45594000000E+02  0.51100000000E-03 0. -1.
    9900012    2    1    2    0    0 -0.13550598936E+02 -0.17276144922E+02  0.34221067104E+02  0.50528863897E+02  0.30000012302E+02 0.  0.
         12    1    1    2    0    0  0.13550598936E+02  0.17276144922E+02 -0.34221067104E+02  0.40659136103E+02  0.00000000000E+00 0. -1.
         11    1    3    3    0    0 -0.24983177190E+01  0.38754148504E+01  0.39343061017E+00  0.46276581111E+01  0.51100000000E-03 0. -1.
        -11    1    3    3    0    0 -0.15047186685E+02 -0.79818459666E+01  0.21460836953E+02  0.27398817769E+02  0.51100000000E-03 0.  1.
        -12    1    3    3    0    0  0.39949054683E+01 -0.13169713806E+02  0.12366799541E+02  0.18502388017E+02  0.00000000000E+00 0.  1.
</event>
<event>
 7    1  0.3383281E-011  0.5052888E+02  0.7816164E-02  0.1300439E+00
        -11   -1    0    0    0    0  0.00000000000E+00  0.00000000000E+00  0.45593999997E+02  0.45594000000E+02  0.51100000000E-03 0.  1.
         11   -1    0    0    0    0 -0.00000000000E+00 -0.00000000000E+00 -0.45593999997E+02  0.45594000000E+02  0.51100000000E-03 0. -1.
    9900012    2    1    2    0    0  0.36405676801E+02 -0.14158418967E+02  0.11284067655E+02  0.50528876622E+02  0.30000050981E+02 0.  0.
         12    1    1    2    0    0 -0.36405676801E+02  0.14158418967E+02 -0.11284067655E+02  0.40659123378E+02  0.00000000000E+00 0. -1.
         11    1    3    3    0    0  0.57801959121E+01 -0.63167478989E+01  0.58012957277E+01  0.10342485252E+02  0.51100000000E-03 0. -1.
        -11    1    3    3    0    0  0.16429298784E+02 -0.15592374587E+02  0.75611957454E+01  0.23879189374E+02  0.51100000000E-03 0.  1.
         12    1    3    3    0    0  0.14196182105E+02  0.77507035189E+01 -0.20784238177E+01  0.16307201997E+02  0.00000000000E+00 0. -1.
</event>
<event>
 7    1  0.3383281E-011  0.5052885E+02  0.7816164E-02  0.1300439E+00
        -11   -1    0    0    0    0  0.00000000000E+00  0.00000000000E+00  0.45593999997E+02  0.45594000000E+02  0.51100000000E-03 0. -1.
         11   -1    0    0    0    0 -0.00000000000E+00 -0.00000000000E+00 -0.45593999997E+02  0.45594000000E+02  0.51100000000E-03 0.  1.
    9900012    2    1    2    0    0 -0.11501629694E+02  0.30397781166E+02 -0.24430588524E+02  0.50528852923E+02  0.29999978944E+02 0.  0.
         12    1    1    2    0    0  0.11501629694E+02 -0.30397781166E+02  0.24430588524E+02  0.40659147077E+02  0.00000000000E+00 0. -1.
         11    1    3    3    0    0 -0.91761897208E+01  0.82239359781E+00 -0.46894477213E+01  0.10337780672E+02  0.51100000000E-03 0. -1.
        -11    1    3    3    0    0 -0.11340941372E+01  0.16112660411E+01  0.33629601946E+01  0.38976722924E+01  0.51100000000E-03 0.  1.
        -12    1    3    3    0    0 -0.11913458360E+01  0.27964121527E+02 -0.23104100998E+02  0.36293399959E+02  0.00000000000E+00 0.  1.
</event>
<event>
 7    1  0.3383281E-011  0.5052886E+02  0.7816164E-02  0.1300439E+00
        -11   -1    0    0    0    0  0.00000000000E+00  0.00000000000E+00  0.45593999997E+02  0.45594000000E+02  0.51100000000E-03 0.  1.
         11   -1    0    0    0    0 -0.00000000000E+00 -0.00000000000E+00 -0.45593999997E+02  0.45594000000E+02  0.51100000000E-03 0. -1.
    9900012    2    1    2    0    0  0.25018342841E+02 -0.17960509277E+01  0.32000353821E+02  0.50528856845E+02  0.29999990866E+02 0.  0.
         12    1    1    2    0    0 -0.25018342841E+02  0.17960509277E+01 -0.32000353821E+02  0.40659143155E+02  0.00000000000E+00 0. -1.
         11    1    3    3    0    0 -0.14645527685E+01 -0.58338362574E+00 -0.21636949179E+01  0.26770930550E+01  0.51100000000E-03 0. -1.
        -11    1    3    3    0    0  0.11746191622E+02 -0.10752619397E+02  0.15315492449E+02  0.22094256057E+02  0.51100000000E-03 0.  1.
        -12    1    3    3    0    0  0.14736703988E+02  0.95399520949E+01  0.18848556289E+02  0.25757507732E+02  0.00000000000E+00 0.  1.
</event>
<event>
 7    1  0.3383281E-011  0.5052886E+02  0.7816164E-02  0.1300439E+00
        -11   -1    0    0    0    0  0.00000000000E+00  0.00000000000E+00  0.45593999997E+02  0.45594000000E+02  0.51100000000E-03 0.  1.
         11   -1    0    0    0    0 -0.00000000000E+00 -0.00000000000E+00 -0.45593999997E+02  0.45594000000E+02  0.51100000000E-03 0. -1.
    9900012    2    1    2    0    0  0.31806765613E+02 -0.24878810842E+02  0.47476153115E+01  0.50528863034E+02  0.30000009677E+02 0.  0.
         12    1    1    2    0    0 -0.31806765613E+02  0.24878810842E+02 -0.47476153115E+01  0.40659136966E+02  0.00000000000E+00 0. -1.
         11    1    3    3    0    0  0.10855484566E+02 -0.20607105763E+02  0.63252127502E+01  0.24135092080E+02  0.51100000000E-03 0.  1.
        -11    1    3    3    0    0 -0.19149681839E+01  0.14724314837E+01  0.11211794776E+01  0.26631187171E+01  0.51100000000E-03 0. -1.
        -12    1    3    3    0    0  0.22866249231E+02 -0.57441365625E+01 -0.26987769163E+01  0.23730652237E+02  0.00000000000E+00 0.  1.
</event>
<event>
 7    1  0.3383281E-011  0.5052886E+02  0.7816164E-02  0.1300439E+00
        -11   -1    0    0    0    0  0.00000000000E+00  0.00000000000E+00  0.45593999997E+02  0.45594000000E+02  0.51100000000E-03 0. -1.
         11   -1    0    0    0    0 -0.00000000000E+00 -0.00000000000E+00 -0.45593999997E+02  0.45594000000E+02  0.51100000000E-03 0.  1.
    9900012    2    1    2    0    0  0.27623192344E+02 -0.21141190603E+02 -0.21051718110E+02  0.50528861657E+02  0.30000005494E+02 0.  0.
         12    1    1    2    0    0 -0.27623192344E+02  0.21141190603E+02  0.21051718110E+02  0.40659138343E+02  0.00000000000E+00 0. -1.
         11    1    3    3    0    0  0.53690864875E+01 -0.55326825804E+01 -0.12457695976E+02  0.14650319298E+02  0.51100000000E-03 0. -1.
        -11    1    3    3    0    0  0.60913827299E+01 -0.15465623251E+02 -0.10411213603E+02  0.19613358077E+02  0.51100000000E-03 0.  1.
        -12    1    3    3    0    0  0.16162723127E+02 -0.14288477189E+00  0.18171914688E+01  0.16265184283E+02  0.00000000000E+00 0.  1.
</event>
<event>
 7    1  0.3383281E-011  0.5052885E+02  0.7816164E-02  0.1300439E+00
        -11   -1    0    0    0    0  0.00000000000E+00  0.00000000000E+00  0.45593999997E+02  0.45594000000E+02  0.51100000000E-03 0. -1.
         11   -1    0    0    0    0 -0.00000000000E+00 -0.00000000000E+00 -0.45593999997E+02  0.45594000000E+02  0.51100000000E-03 0.  1.
    9900012    2    1    2    0    0  0.37306578725E+02  0.13662765513E+02 -0.86437529866E+01  0.50528850435E+02  0.29999971383E+02 0.  0.
         12    1    1    2    0    0 -0.37306578725E+02 -0.13662765513E+02  0.86437529866E+01  0.40659149565E+02  0.00000000000E+00 0. -1.
         11    1    3    3    0    0 -0.19725529050E+01  0.33561100884E+01 -0.37186953721E+01  0.53835987425E+01  0.51100000000E-03 0. -1.
        -11    1    3    3    0    0  0.89544129989E+01  0.10351641963E+02 -0.56608094353E+01  0.14811575447E+02  0.51100000000E-03 0.  1.
        -12    1    3    3    0    0  0.30324718631E+02 -0.44986538395E-01  0.73575182081E+00  0.30333676246E+02  0.00000000000E+00 0.  1.
</event>
<event>
 7    1  0.3383281E-011  0.5052887E+02  0.7816164E-02  0.1300439E+00
        -11   -1    0    0    0    0  0.00000000000E+00  0.00000000000E+00  0.45593999997E+02  0.45594000000E+02  0.51100000000E-03 0.  1.
         11   -1    0    0    0    0 -0.00000000000E+00 -0.00000000000E+00 -0.45593999997E+02  0.45594000000E+02  0.51100000000E-03 0. -1.
    9900012    2    1    2    0    0  0.36334891814E+02 -0.75929788639E+01  0.16591771409E+02  0.50528873476E+02  0.30000041417E+02 0.  0.
         12    1    1    2    0    0 -0.36334891814E+02  0.75929788639E+01 -0.16591771409E+02  0.40659126524E+02  0.00000000000E+00 0. -1.
         11    1    3    3    0    0  0.18120050414E+02 -0.30641551035E+01  0.15662677359E+02  0.24146319301E+02  0.51100000000E-03 0. -1.
        -11    1    3    3    0    0  0.18376313231E+02 -0.22332323007E+01 -0.56969120437E+01  0.19368299398E+02  0.51100000000E-03 0.  1.
         12    1    3    3    0    0 -0.16147183082E+00 -0.22955914597E+01  0.66260060945E+01  0.70142547763E+01  0.00000000000E+00 0. -1.
</event>
<event>
 7    1  0.3383281E-011  0.5052887E+02  0.7816164E-02  0.1300439E+00
        -11   -1    0    0    0    0  0.00000000000E+00  0.00000000000E+00  0.45593999997E+02  0.45594000000E+02  0.51100000000E-03 0. -1.
         11   -1    0    0    0    0 -0.00000000000E+00 -0.00000000000E+00 -0.45593999997E+02  0.45594000000E+02  0.51100000000E-03 0.  1.
    9900012    2    1    2    0    0 -0.21916928010E+02 -0.18967511655E+02 -0.28513975549E+02  0.50528867774E+02  0.30000024087E+02 0.  0.
         12    1    1    2    0    0  0.21916928010E+02  0.18967511655E+02  0.28513975549E+02  0.40659132226E+02  0.00000000000E+00 0. -1.
         11    1    3    3    0    0 -0.18903572772E+02 -0.11112173024E+02 -0.43639020990E+01  0.22357752451E+02  0.51100000000E-03 0. -1.
        -11    1    3    3    0    0 -0.10415691838E+01 -0.92105360134E+01 -0.93033023753E+01  0.13132793890E+02  0.51100000000E-03 0.  1.
        -12    1    3    3    0    0 -0.19717860538E+01  0.13551973824E+01 -0.14846771074E+02  0.15038321433E+02  0.00000000000E+00 0.  1.
</event>
<event>
 7    1  0.3383281E-011  0.5052884E+02  0.7816164E-02  0.1300439E+00
        -11   -1    0    0    0    0  0.00000000000E+00  0.00000000000E+00  0.45593999997E+02  0.45594000000E+02  0.51100000000E-03 0. -1.
         11   -1    0    0    0    0 -0.00000000000E+00 -0.00000000000E+00 -0.45593999997E+02  0.45594000000E+02  0.51100000000E-03 0.  1.
    9900012    2    1    2    0    0 -0.16038216959E+02  0.33055444633E+02 -0.17414954496E+02  0.50528837893E+02  0.29999933260E+02 0.  0.
         12    1    1    2    0    0  0.16038216959E+02 -0.33055444633E+02  0.17414954496E+02  0.40659162107E+02  0.00000000000E+00 0. -1.
         11    1    3    3    0    0 -0.25816715843E+01  0.42374642638E+01 -0.61673246675E+00  0.50001490731E+01  0.51100000000E-03 0. -1.
        -11    1    3    3    0    0 -0.30314284209E+01  0.29871413507E+02 -0.62653731732E+01  0.30671579751E+02  0.51100000000E-03 0.  1.
         12    1    3    3    0    0 -0.10425116954E+02 -0.10534331373E+01 -0.10532848856E+02  0.14857109069E+02  0.00000000000E+00 0. -1.
</event>
<event>
 7    1  0.3383281E-011  0.5052887E+02  0.7816164E-02  0.1300439E+00
        -11   -1    0    0    0    0  0.00000000000E+00  0.00000000000E+00  0.45593999997E+02  0.45594000000E+02  0.51100000000E-03 0.  1.
         11   -1    0    0    0    0 -0.00000000000E+00 -0.00000000000E+00 -0.45593999997E+02  0.45594000000E+02  0.51100000000E-03 0. -1.
    9900012    2    1    2    0    0 -0.16697653514E+02  0.26409508461E+02  0.26017125633E+02  0.50528873150E+02  0.30000040427E+02 0.  0.
         12    1    1    2    0    0  0.16697653514E+02 -0.26409508461E+02 -0.26017125633E+02  0.40659126850E+02  0.00000000000E+00 0. -1.
         11    1    3    3    0    0 -0.14423843789E+00  0.25488372639E+02  0.17968963730E+02  0.31185919937E+02  0.51100000000E-03 0. -1.
        -11    1    3    3    0    0 -0.16118959814E+01  0.40408067756E+00  0.32349263530E+01  0.36367896033E+01  0.51100000000E-03 0.  1.
         12    1    3    3    0    0 -0.14941519095E+02  0.51705514433E+00  0.48132355492E+01  0.15706163610E+02  0.00000000000E+00 0. -1.
</event>
<event>
 7    1  0.3383281E-011  0.5052885E+02  0.7816164E-02  0.1300439E+00
        -11   -1    0    0    0    0  0.00000000000E+00  0.00000000000E+00  0.45593999997E+02  0.45594000000E+02  0.51100000000E-03 0.  1.
         11   -1    0    0    0    0 -0.00000000000E+00 -0.00000000000E+00 -0.45593999997E+02  0.45594000000E+02  0.51100000000E-03 0. -1.
    9900012    2    1    2    0    0  0.20757035468E+02  0.41317659131E+01  0.34716571031E+02  0.50528852012E+02  0.29999976174E+02 0.  0.
         12    1    1    2    0    0 -0.20757035468E+02 -0.41317659131E+01 -0.34716571031E+02  0.40659147988E+02  0.00000000000E+00 0. -1.
         11    1    3    3    0    0  0.15744324003E+02 -0.52729967868E+00  0.11509482131E+02  0.19509740194E+02  0.51100000000E-03 0. -1.
        -11    1    3    3    0    0  0.11369214221E+02  0.21767082862E+01  0.20760747253E+02  0.23769848921E+02  0.51100000000E-03 0.  1.
         12    1    3    3    0    0 -0.63565027562E+01  0.24823573056E+01  0.24463416474E+01  0.72492628962E+01  0.00000000000E+00 0. -1.
</event>
<event>
 7    1  0.3383281E-011  0.5052887E+02  0.7816164E-02  0.1300439E+00
        -11   -1    0    0    0    0  0.00000000000E+00  0.00000000000E+00  0.45593999997E+02  0.45594000000E+02  0.51100000000E-03 0.  1.
         11   -1    0    0    0    0 -0.00000000000E+00 -0.00000000000E+00 -0.45593999997E+02  0.45594000000E+02  0.51100000000E-03 0. -1.
    9900012    2    1    2    0    0 -0.17603088795E+02 -0.17143854768E+02  0.32394197634E+02  0.50528873942E+02  0.30000042834E+02 0.  0.
         12    1    1    2    0    0  0.17603088795E+02  0.17143854768E+02 -0.32394197634E+02  0.40659126058E+02  0.00000000000E+00 0. -1.
         11    1    3    3    0    0  0.22085786034E+01 -0.17968061987E+01 -0.47727038799E+00  0.28868874671E+01  0.51100000000E-03 0. -1.
        -11    1    3    3    0    0  0.50278774042E+01 -0.56742055341E+01  0.50368996485E+01  0.91020062604E+01  0.51100000000E-03 0.  1.
         12    1    3    3    0    0 -0.24839544802E+02 -0.96728430356E+01  0.27834568374E+02  0.38539980214E+02  0.00000000000E+00 0. -1.
</event>
<event>
 7    1  0.3508375E-011  0.5052886E+02  0.7816164E-02  0.1300439E+00
        -11   -1    0    0    0    0  0.00000000000E+00  0.00000000000E+00  0.45593999997E+02  0.45594000000E+02  0.51100000000E-03 0. -1.
         11   -1    0    0    0    0 -0.00000000000E+00 -0.00000000000E+00 -0.45593999997E+02  0.45594000000E+02  0.51100000000E-03 0.  1.
    9900012    2    1    2    0    0 -0.21176015832E+01  0.85766892302E+01 -0.39687804554E+02  0.50528860007E+02  0.30000000478E+02 0.  0.
         12    1    1    2    0    0  0.21176015832E+01 -0.85766892302E+01  0.39687804554E+02  0.40659139993E+02  0.00000000000E+00 0. -1.
         11    1    3    3    0    0 -0.70255330412E+01  0.32187008816E+01 -0.14907770614E+02  0.16791657894E+02  0.51100000000E-03 0. -1.
        -11    1    3    3    0    0 -0.55601915042E+01 -0.73100133819E+00 -0.19909500691E+02  0.20684252719E+02  0.51100000000E-03 0.  1.
         12    1    3    3    0    0  0.10468122962E+02  0.60889896868E+01 -0.48705332491E+01  0.13052949394E+02  0.00000000000E+00 0. -1.
</event>
<event>
 7    1  0.3383281E-011  0.5052886E+02  0.7816164E-02  0.1300439E+00
        -11   -1    0    0    0    0  0.00000000000E+00  0.00000000000E+00  0.45593999997E+02  0.45594000000E+02  0.51100000000E-03 0.  1.
         11   -1    0    0    0    0 -0.00000000000E+00 -0.00000000000E+00 -0.45593999997E+02  0.45594000000E+02  0.51100000000E-03 0. -1.
    9900012    2    1    2    0    0 -0.50754635446E+01 -0.54674155257E+01  0.39968895406E+02  0.50528861265E+02  0.30000004301E+02 0.  0.
         12    1    1    2    0    0  0.50754635446E+01  0.54674155257E+01 -0.39968895406E+02  0.40659138735E+02  0.00000000000E+00 0. -1.
         11    1    3    3    0    0 -0.37399919941E+01 -0.34200997920E+01  0.27263436953E+00  0.50753278183E+01  0.51100000000E-03 0. -1.
        -11    1    3    3    0    0 -0.58949965872E+01 -0.69094761218E+01  0.55092794908E+01  0.10622805929E+02  0.51100000000E-03 0.  1.
        -12    1    3    3    0    0  0.45595250367E+01  0.48621603881E+01  0.34186981545E+02  0.34830727517E+02  0.00000000000E+00 0.  1.
</event>
<event>
 7    1  0.3383281E-011  0.5052886E+02  0.7816164E-02  0.1300439E+00
        -11   -1    0    0    0    0  0.00000000000E+00  0.00000000000E+00  0.45593999997E+02  0.45594000000E+02  0.51100000000E-03 0.  1.
         11   -1    0    0    0    0 -0.00000000000E+00 -0.00000000000E+00 -0.45593999997E+02  0.45594000000E+02  0.51100000000E-03 0. -1.
    9900012    2    1    2    0    0  0.61079224636E+01  0.16571025515E+02  0.36623216756E+02  0.50528860695E+02  0.30000002569E+02 0.  0.
         12    1    1    2    0    0 -0.61079224636E+01 -0.16571025515E+02 -0.36623216756E+02  0.40659139305E+02  0.00000000000E+00 0. -1.
         11    1    3    3    0    0  0.31630872244E+01 -0.17495324491E+01  0.25498936454E+02  0.25753868547E+02  0.51100000000E-03 0. -1.
        -11    1    3    3    0    0  0.18349002061E+01  0.18554010612E+01  0.74149605984E+01  0.78607259717E+01  0.51100000000E-03 0.  1.
         12    1    3    3    0    0  0.11099350331E+01  0.16465156903E+02  0.37093197032E+01  0.16914266176E+02  0.00000000000E+00 0. -1.
</event>
<event>
 7    1  0.3383281E-011  0.5052887E+02  0.7816164E-02  0.1300439E+00
        -11   -1    0    0    0    0  0.00000000000E+00  0.00000000000E+00  0.45593999997E+02  0.45594000000E+02  0.51100000000E-03 0.  1.
         11   -1    0    0    0    0 -0.00000000000E+00 -0.00000000000E+00 -0.45593999997E+02  0.45594000000E+02  0.51100000000E-03 0. -1.
    9900012    2    1    2    0    0 -0.38936460287E+02  0.77228135306E+00  0.11684207904E+02  0.50528867293E+02  0.30000022623E+02 0.  0.
         12    1    1    2    0    0  0.38936460287E+02 -0.77228135306E+00 -0.11684207904E+02  0.40659132707E+02  0.00000000000E+00 0. -1.
         11    1    3    3    0    0 -0.94889726149E+01  0.11178172233E+02  0.64971032308E+01  0.16037596030E+02  0.51100000000E-03 0. -1.
        -11    1    3    3    0    0 -0.21492196205E+02 -0.14820919810E+01  0.64030155201E+01  0.22474645767E+02  0.51100000000E-03 0.  1.
         12    1    3    3    0    0 -0.79552914675E+01 -0.89237988991E+01 -0.12159108474E+01  0.12016625496E+02  0.00000000000E+00 0. -1.
</event>
<event>
 7    1  0.3383281E-011  0.5052887E+02  0.7816164E-02  0.1300439E+00
        -11   -1    0    0    0    0  0.00000000000E+00  0.00000000000E+00  0.45593999997E+02  0.45594000000E+02  0.51100000000E-03 0. -1.
         11   -1    0    0    0    0 -0.00000000000E+00 -0.00000000000E+00 -0.45593999997E+02  0.45594000000E+02  0.51100000000E-03 0.  1.
    9900012    2    1    2    0    0 -0.12851691529E+02 -0.37163813625E+02 -0.10336819856E+02  0.50528869869E+02  0.30000030454E+02 0.  0.
         12    1    1    2    0    0  0.12851691529E+02  0.37163813625E+02  0.10336819856E+02  0.40659130131E+02  0.00000000000E+00 0. -1.
         11    1    3    3    0    0 -0.11362808568E+02 -0.14176610615E+02  0.30960515060E+01  0.18430280580E+02  0.51100000000E-03 0. -1.
        -11    1    3    3    0    0 -0.84742479180E+01 -0.85873074759E+01 -0.15477426295E+01  0.12163479558E+02  0.51100000000E-03 0.  1.
        -12    1    3    3    0    0  0.69853649574E+01 -0.14399895534E+02 -0.11885128732E+02  0.19935109730E+02  0.00000000000E+00 0.  1.
</event>
<event>
 7    1  0.3383281E-011  0.5052886E+02  0.7816164E-02  0.1300439E+00
        -11   -1    0    0    0    0  0.00000000000E+00  0.00000000000E+00  0.45593999997E+02  0.45594000000E+02  0.51100000000E-03 0.  1.
         11   -1    0    0    0    0 -0.00000000000E+00 -0.00000000000E+00 -0.45593999997E+02  0.45594000000E+02  0.51100000000E-03 0. -1.
    9900012    2    1    2    0    0 -0.25688411037E+02  0.31478762267E+02 -0.15358590300E+01  0.50528858366E+02  0.29999995490E+02 0.  0.
         12    1    1    2    0    0  0.25688411037E+02 -0.31478762267E+02  0.15358590300E+01  0.40659141634E+02  0.00000000000E+00 0. -1.
         11    1    3    3    0    0  0.13726106816E+01  0.42328348921E+01 -0.40478839549E+01  0.60155063029E+01  0.51100000000E-03 0. -1.
        -11    1    3    3    0    0 -0.11545963277E+02  0.19720510418E+02 -0.81242467187E+01  0.24253065459E+02  0.51100000000E-03 0.  1.
        -12    1    3    3    0    0 -0.15515058442E+02  0.75254169567E+01  0.10636271644E+02  0.20260286604E+02  0.00000000000E+00 0.  1.
</event>
<event>
 7    1  0.3383281E-011  0.5052887E+02  0.7816164E-02  0.1300439E+00
        -11   -1    0    0    0    0  0.00000000000E+00  0.00000000000E+00  0.45593999997E+02  0.45594000000E+02  0.51100000000E-03 0.  1.
         11   -1    0    0    0    0 -0.00000000000E+00 -0.00000000000E+00 -0.45593999997E+02  0.45594000000E+02  0.51100000000E-03 0. -1.
    9900012    2    1    2    0    0  0.63698329204E+01 -0.24778265661E+02  0.31601066993E+02  0.50528872418E+02  0.30000038203E+02 0.  0.
         12    1    1    2    0    0 -0.63698329204E+01  0.24778265661E+02 -0.31601066993E+02  0.40659127582E+02  0.00000000000E+00 0. -1.
         11    1    3    3    0    0  0.78214384557E+01  0.13131653232E+01 -0.22832928199E+00  0.79341941748E+01  0.51100000000E-03 0. -1.
        -11    1    3    3    0    0  0.74344363394E+00  0.58698437641E+00  0.34705490652E+01  0.35974949854E+01  0.51100000000E-03 0.  1.
         12    1    3    3    0    0 -0.21950491692E+01 -0.26678415361E+02  0.28358847209E+02  0.38997183258E+02  0.00000000000E+00 0. -1.
</event>
<event>
 7    1  0.3383281E-011  0.5052886E+02  0.7816164E-02  0.1300439E+00
        -11   -1    0    0    0    0  0.00000000000E+00  0.00000000000E+00  0.45593999997E+02  0.45594000000E+02  0.51100000000E-03 0.  1.
         11   -1    0    0    0    0 -0.00000000000E+00 -0.00000000000E+00 -0.45593999997E+02  0.45594000000E+02  0.51100000000E-03 0. -1.
    9900012    2    1    2    0    0 -0.44475846044E+01  0.24863338125E+02  0.31862191702E+02  0.50528857712E+02  0.29999993501E+02 0.  0.
         12    1    1    2    0    0  0.44475846044E+01 -0.24863338125E+02 -0.31862191702E+02  0.40659142288E+02  0.00000000000E+00 0. -1.
         11    1    3    3    0    0 -0.29049824464E+00  0.11435673450E+02  0.34394304900E+01  0.11945237496E+02  0.51100000000E-03 0.  1.
        -11    1    3    3    0    0  0.69174760764E+01  0.65305278526E+01  0.29431453629E+01  0.99579804273E+01  0.51100000000E-03 0. -1.
         12    1    3    3    0    0 -0.11074562436E+02  0.68971368229E+01  0.25479615849E+02  0.28625639789E+02  0.00000000000E+00 0. -1.
</event>
<event>
 7    1  0.3383281E-011  0.5052886E+02  0.7816164E-02  0.1300439E+00
        -11   -1    0    0    0    0  0.00000000000E+00  0.00000000000E+00  0.45593999997E+02  0.45594000000E+02  0.51100000000E-03 0.  1.
         11   -1    0    0    0    0 -0.00000000000E+00 -0.00000000000E+00 -0.45593999997E+02  0.45594000000E+02  0.51100000000E-03 0. -1.
    9900012    2    1    2    0    0  0.21226857746E+02 -0.24245932509E+02  0.24793565888E+02  0.50528860284E+02  0.30000001319E+02 0.  0.
         12    1    1    2    0    0 -0.21226857746E+02  0.24245932509E+02 -0.24793565888E+02  0.40659139716E+02  0.00000000000E+00 0. -1.
         11    1    3    3    0    0  0.51919096792E+01 -0.27492249543E+01 -0.19881013665E+01  0.62021537607E+01  0.51100000000E-03 0. -1.
        -11    1    3    3    0    0 -0.38414980193E+01 -0.58176772790E+01 -0.64592650690E+00  0.70014068064E+01  0.51100000000E-03 0.  1.
        -12    1    3    3    0    0  0.19876446086E+02 -0.15679030276E+02  0.27427593762E+02  0.37325299717E+02  0.00000000000E+00 0.  1.
</event>
<event>
 7    1  0.3383281E-011  0.5052886E+02  0.7816164E-02  0.1300439E+00
        -11   -1    0    0    0    0  0.00000000000E+00  0.00000000000E+00  0.45593999997E+02  0.45594000000E+02  0.51100000000E-03 0.  1.
         11   -1    0    0    0    0 -0.00000000000E+00 -0.00000000000E+00 -0.45593999997E+02  0.45594000000E+02  0.51100000000E-03 0. -1.
    9900012    2    1    2    0    0  0.19386317458E+02 -0.34635649920E+02  0.88152382439E+01  0.50528856191E+02  0.29999988878E+02 0.  0.
         12    1    1    2    0    0 -0.19386317458E+02  0.34635649920E+02 -0.88152382439E+01  0.40659143809E+02  0.00000000000E+00 0. -1.
         11    1    3    3    0    0 -0.22899316194E+01  0.25265906956E+01 -0.92656291584E+00  0.35335487068E+01  0.51100000000E-03 0. -1.
        -11    1    3    3    0    0  0.23917553458E+01  0.66347636754E+00  0.31789157382E+01  0.40331377433E+01  0.51100000000E-03 0.  1.
         12    1    3    3    0    0  0.19284493732E+02 -0.37825716983E+02  0.65628854215E+01  0.42962169741E+02  0.00000000000E+00 0. -1.
</event>
<event>
 7    1  0.3383281E-011  0.5052887E+02  0.7816164E-02  0.1300439E+00
        -11   -1    0    0    0    0  0.00000000000E+00  0.00000000000E+00  0.45593999997E+02  0.45594000000E+02  0.51100000000E-03 0. -1.
         11   -1    0    0    0    0 -0.00000000000E+00 -0.00000000000E+00 -0.45593999997E+02  0.45594000000E+02  0.51100000000E-03 0.  1.
    9900012    2    1    2    0    0  0.27616507585E+02 -0.25531898611E+02  0.15447189260E+02  0.50528868259E+02  0.30000025561E+02 0.  0.
         12    1    1    2    0    0 -0.27616507585E+02  0.25531898611E+02 -0.15447189260E+02  0.40659131741E+02  0.00000000000E+00 0. -1.
         11    1    3    3    0    0  0.12914538471E+02 -0.49258562338E+01  0.17777746851E+02  0.22518828720E+02  0.51100000000E-03 0. -1.
        -11    1    3    3    0    0 -0.12341554369E+01  0.20349618723E+00  0.98290719825E+00  0.15908039358E+01  0.51100000000E-03 0.  1.
        -12    1    3    3    0    0  0.15936124551E+02 -0.20809538564E+02 -0.33134647893E+01  0.26419235603E+02  0.00000000000E+00 0.  1.
</event>
<event>
 7    1  0.3383281E-011  0.5052888E+02  0.7816164E-02  0.1300439E+00
        -11   -1    0    0    0    0  0.00000000000E+00  0.00000000000E+00  0.45593999997E+02  0.45594000000E+02  0.51100000000E-03 0.  1.
         11   -1    0    0    0    0 -0.00000000000E+00 -0.00000000000E+00 -0.45593999997E+02  0.45594000000E+02  0.51100000000E-03 0. -1.
    9900012    2    1    2    0    0 -0.13678112014E+01 -0.25221689630E+01  0.40557754806E+02  0.50528883942E+02  0.30000073230E+02 0.  0.
         12    1    1    2    0    0  0.13678112014E+01  0.25221689630E+01 -0.40557754806E+02  0.40659116058E+02  0.00000000000E+00 0. -1.
         11    1    3    3    0    0  0.22419416495E+01 -0.16979457155E+01  0.23760041007E+02  0.23925903764E+02  0.51100000000E-03 0.  1.
        -11    1    3    3    0    0  0.19380185619E+01  0.62497393190E+01  0.16339966766E+02  0.17601411071E+02  0.51100000000E-03 0. -1.
        -12    1    3    3    0    0 -0.55477714128E+01 -0.70739625664E+01  0.45774703227E+00  0.90015691068E+01  0.00000000000E+00 0.  1.
</event>
<event>
 7    1  0.3383281E-011  0.5052887E+02  0.7816164E-02  0.1300439E+00
        -11   -1    0    0    0    0  0.00000000000E+00  0.00000000000E+00  0.45593999997E+02  0.45594000000E+02  0.51100000000E-03 0.  1.
         11   -1    0    0    0    0 -0.00000000000E+00 -0.00000000000E+00 -0.45593999997E+02  0.45594000000E+02  0.51100000000E-03 0. -1.
    9900012    2    1    2    0    0  0.33312576620E+02 -0.22244626154E+02 -0.69723716049E+01  0.50528866713E+02  0.30000020862E+02 0.  0.
         12    1    1    2    0    0 -0.33312576620E+02  0.22244626154E+02  0.69723716049E+01  0.40659133287E+02  0.00000000000E+00 0. -1.
         11    1    3    3    0    0  0.44458452458E+01  0.43417364866E+01  0.47157889034E+01  0.78009538463E+01  0.51100000000E-03 0. -1.
        -11    1    3    3    0    0  0.99470720980E+01 -0.16404735254E+02 -0.24500166358E+01  0.19340686747E+02  0.51100000000E-03 0.  1.
        -12    1    3    3    0    0  0.18919659277E+02 -0.10181627387E+02 -0.92381438725E+01  0.23387226120E+02  0.00000000000E+00 0.  1.
</event>
<event>
 7    1  0.3383281E-011  0.5052886E+02  0.7816164E-02  0.1300439E+00
        -11   -1    0    0    0    0  0.00000000000E+00  0.00000000000E+00  0.45593999997E+02  0.45594000000E+02  0.51100000000E-03 0.  1.
         11   -1    0    0    0    0 -0.00000000000E+00 -0.00000000000E+00 -0.45593999997E+02  0.45594000000E+02  0.51100000000E-03 0. -1.
    9900012    2    1    2    0    0 -0.32625613677E+02  0.47256097871E+01  0.23799231766E+02  0.50528862179E+02  0.30000007080E+02 0.  0.
         12    1    1    2    0    0  0.32625613677E+02 -0.47256097871E+01 -0.23799231766E+02  0.40659137821E+02  0.00000000000E+00 0. -1.
         11    1    3    3    0    0 -0.17705190103E+02  0.10442186503E+02  0.89912097665E+01  0.22435571508E+02  0.51100000000E-03 0. -1.
        -11    1    3    3    0    0 -0.18225277357E+02 -0.14539539492E+01  0.12883718133E+02  0.22366602559E+02  0.51100000000E-03 0.  1.
         12    1    3    3    0    0  0.33048537826E+01 -0.42626227665E+01  0.19243038658E+01  0.57266881129E+01  0.00000000000E+00 0. -1.
</event>
<event>
 7    1  0.3383281E-011  0.5052886E+02  0.7816164E-02  0.1300439E+00
        -11   -1    0    0    0    0  0.00000000000E+00  0.00000000000E+00  0.45593999997E+02  0.45594000000E+02  0.51100000000E-03 0.  1.
         11   -1    0    0    0    0 -0.00000000000E+00 -0.00000000000E+00 -0.45593999997E+02  0.45594000000E+02  0.51100000000E-03 0. -1.
    9900012    2    1    2    0    0 -0.21833788002E+02 -0.27483484432E+02  0.20520951606E+02  0.50528859947E+02  0.30000000295E+02 0.  0.
         12    1    1    2    0    0  0.21833788002E+02  0.27483484432E+02 -0.20520951606E+02  0.40659140053E+02  0.00000000000E+00 0. -1.
         11    1    3    3    0    0 -0.59555797900E+00  0.32034394163E+01  0.58947927959E+01  0.67353764384E+01  0.51100000000E-03 0. -1.
        -11    1    3    3    0    0 -0.16383995844E+02 -0.83239233686E+01  0.58751307366E+01  0.19293526932E+02  0.51100000000E-03 0.  1.
         12    1    3    3    0    0 -0.48542341798E+01 -0.22363000479E+02  0.87510280731E+01  0.24499956576E+02  0.00000000000E+00 0. -1.
</event>
<event>
 7    1  0.3383281E-011  0.5052886E+02  0.7816164E-02  0.1300439E+00
        -11   -1    0    0    0    0  0.00000000000E+00  0.00000000000E+00  0.45593999997E+02  0.45594000000E+02  0.51100000000E-03 0.  1.
         11   -1    0    0    0    0 -0.00000000000E+00 -0.00000000000E+00 -0.45593999997E+02  0.45594000000E+02  0.51100000000E-03 0. -1.
    9900012    2    1    2    0    0  0.11553802618E+02  0.13451517225E+02  0.36588686327E+02  0.50528860343E+02  0.30000001497E+02 0.  0.
         12    1    1    2    0    0 -0.11553802618E+02 -0.13451517225E+02 -0.36588686327E+02  0.40659139657E+02  0.00000000000E+00 0. -1.
         11    1    3    3    0    0  0.66562349495E+01  0.11741118620E+01  0.19582826597E+02  0.20716445163E+02  0.51100000000E-03 0. -1.
        -11    1    3    3    0    0  0.11269823096E+02  0.13767254281E+02  0.10918986059E+02  0.20875115805E+02  0.51100000000E-03 0.  1.
         12    1    3    3    0    0 -0.63722554281E+01 -0.14898489185E+01  0.60868736701E+01  0.89372993749E+01  0.00000000000E+00 0. -1.
</event>
<event>
 7    1  0.3383281E-011  0.5052885E+02  0.7816164E-02  0.1300439E+00
        -11   -1    0    0    0    0  0.00000000000E+00  0.00000000000E+00  0.45593999997E+02  0.45594000000E+02  0.51100000000E-03 0.  1.
         11   -1    0    0    0    0 -0.00000000000E+00 -0.00000000000E+00 -0.45593999997E+02  0.45594000000E+02  0.51100000000E-03 0. -1.
    9900012    2    1    2    0    0 -0.15001775504E+02 -0.32012238591E+02  0.20083078998E+02  0.50528846665E+02  0.29999959924E+02 0.  0.
         12    1    1    2    0    0  0.15001775504E+02  0.32012238591E+02 -0.20083078998E+02  0.40659153335E+02  0.00000000000E+00 0. -1.
         11    1    3    3    0    0 -0.48400832723E+00 -0.42753167289E+00  0.35546901253E+01  0.36128755224E+01  0.51100000000E-03 0. -1.
        -11    1    3    3    0    0 -0.12221853850E+02 -0.69070298810E+01  0.17100871508E+02  0.22125111974E+02  0.51100000000E-03 0.  1.
         12    1    3    3    0    0 -0.22959133265E+01 -0.24677677037E+02 -0.57248263533E+00  0.24790859169E+02  0.00000000000E+00 0. -1.
</event>
<event>
 7    1  0.3383281E-011  0.5052892E+02  0.7816164E-02  0.1300439E+00
        -11   -1    0    0    0    0  0.00000000000E+00  0.00000000000E+00  0.45593999997E+02  0.45594000000E+02  0.51100000000E-03 0. -1.
         11   -1    0    0    0    0 -0.00000000000E+00 -0.00000000000E+00 -0.45593999997E+02  0.45594000000E+02  0.51100000000E-03 0.  1.
    9900012    2    1    2    0    0 -0.23337530017E+02 -0.20990193420E+02 -0.25844385910E+02  0.50528919709E+02  0.30000181946E+02 0.  0.
         12    1    1    2    0    0  0.23337530017E+02  0.20990193420E+02  0.25844385910E+02  0.40659080291E+02  0.00000000000E+00 0. -1.
         11    1    3    3    0    0 -0.10267170571E+02 -0.48167881558E+01 -0.11396077810E+02  0.16077525599E+02  0.51100000000E-03 0.  1.
        -11    1    3    3    0    0 -0.16073792486E+02 -0.17460083664E+02 -0.47307253880E+01  0.24199196049E+02  0.51100000000E-03 0. -1.
         12    1    3    3    0    0  0.30034330399E+01  0.12866784005E+01 -0.97175827117E+01  0.10252198061E+02  0.00000000000E+00 0. -1.
</event>
<event>
 7    1  0.3383281E-011  0.5052886E+02  0.7816164E-02  0.1300439E+00
        -11   -1    0    0    0    0  0.00000000000E+00  0.00000000000E+00  0.45593999997E+02  0.45594000000E+02  0.51100000000E-03 0.  1.
         11   -1    0    0    0    0 -0.00000000000E+00 -0.00000000000E+00 -0.45593999997E+02  0.45594000000E+02  0.51100000000E-03 0. -1.
    9900012    2    1    2    0    0 -0.35552293489E+02 -0.19062412160E+02 -0.50817931537E+01  0.50528858945E+02  0.29999997250E+02 0.  0.
         12    1    1    2    0    0  0.35552293489E+02  0.19062412160E+02  0.50817931537E+01  0.40659141055E+02  0.00000000000E+00 0. -1.
         11    1    3    3    0    0  0.16826024701E+01 -0.55371278062E+01  0.23037607092E+01  0.62288240529E+01  0.51100000000E-03 0.  1.
        -11    1    3    3    0    0 -0.13515660598E+02 -0.11422277625E+02 -0.10031169977E+02  0.20341235924E+02  0.51100000000E-03 0. -1.
         12    1    3    3    0    0 -0.23719235360E+02 -0.21030067281E+01  0.26456161137E+01  0.23958798968E+02  0.00000000000E+00 0. -1.
</event>
<event>
 7    1  0.3383281E-011  0.5052886E+02  0.7816164E-02  0.1300439E+00
        -11   -1    0    0    0    0  0.00000000000E+00  0.00000000000E+00  0.45593999997E+02  0.45594000000E+02  0.51100000000E-03 0.  1.
         11   -1    0    0    0    0 -0.00000000000E+00 -0.00000000000E+00 -0.45593999997E+02  0.45594000000E+02  0.51100000000E-03 0. -1.
    9900012    2    1    2    0    0  0.83407661518E+01  0.22135080628E+02  0.33070164728E+02  0.50528856262E+02  0.29999989093E+02 0.  0.
         12    1    1    2    0    0 -0.83407661518E+01 -0.22135080628E+02 -0.33070164728E+02  0.40659143738E+02  0.00000000000E+00 0. -1.
         11    1    3    3    0    0 -0.31766863058E+01  0.75400508347E+01  0.99956326795E+01  0.12917289785E+02  0.51100000000E-03 0.  1.
        -11    1    3    3    0    0 -0.59612005776E+01  0.20970137815E+01  0.11704509233E+02  0.13301462919E+02  0.51100000000E-03 0. -1.
        -12    1    3    3    0    0  0.17478653035E+02  0.12498016012E+02  0.11370022815E+02  0.24310103558E+02  0.00000000000E+00 0.  1.
</event>
<event>
 7    1  0.3383281E-011  0.5052884E+02  0.7816164E-02  0.1300439E+00
        -11   -1    0    0    0    0  0.00000000000E+00  0.00000000000E+00  0.45593999997E+02  0.45594000000E+02  0.51100000000E-03 0.  1.
         11   -1    0    0    0    0 -0.00000000000E+00 -0.00000000000E+00 -0.45593999997E+02  0.45594000000E+02  0.51100000000E-03 0. -1.
    9900012    2    1    2    0    0 -0.92079276929E+01  0.28574931604E+02  0.27419961866E+02  0.50528844115E+02  0.29999952171E+02 0.  0.
         12    1    1    2    0    0  0.92079276929E+01 -0.28574931604E+02 -0.27419961866E+02  0.40659155885E+02  0.00000000000E+00 0. -1.
         11    1    3    3    0    0  0.56251948128E+01  0.52261421713E+01  0.21885731153E+01  0.79840610730E+01  0.51100000000E-03 0. -1.
        -11    1    3    3    0    0 -0.94801139226E+01  0.71135107988E+01  0.22224494129E+02  0.25187352688E+02  0.51100000000E-03 0.  1.
         12    1    3    3    0    0 -0.53530085831E+01  0.16235278634E+02  0.30068946209E+01  0.17357430354E+02  0.00000000000E+00 0. -1.
</event>
<event>
 7    1  0.3383281E-011  0.5052886E+02  0.7816164E-02  0.1300439E+00
        -11   -1    0    0    0    0  0.00000000000E+00  0.00000000000E+00  0.45593999997E+02  0.45594000000E+02  0.51100000000E-03 0. -1.
         11   -1    0    0    0    0 -0.00000000000E+00 -0.00000000000E+00 -0.45593999997E+02  0.45594000000E+02  0.51100000000E-03 0.  1.
    9900012    2    1    2    0    0  0.21845144709E+02  0.33962865505E+02 -0.47412460231E+01  0.50528855955E+02  0.29999988159E+02 0.  0.
         12    1    1    2    0    0 -0.21845144709E+02 -0.33962865505E+02  0.47412460231E+01  0.40659144045E+02  0.00000000000E+00 0. -1.
         11    1    3    3    0    0  0.25499209139E+01  0.10475511067E+02  0.43791589767E+01  0.11636814959E+02  0.51100000000E-03 0. -1.
        -11    1    3    3    0    0  0.14757140056E+01  0.46001305986E+01  0.68687429737E+01  0.83975331884E+01  0.51100000000E-03 0.  1.
        -12    1    3    3    0    0  0.17819509789E+02  0.18887223839E+02 -0.15989147973E+02  0.30494507807E+02  0.00000000000E+00 0.  1.
</event>
<event>
 7    1  0.3383281E-011  0.5052886E+02  0.7816164E-02  0.1300439E+00
        -11   -1    0    0    0    0  0.00000000000E+00  0.00000000000E+00  0.45593999997E+02  0.45594000000E+02  0.51100000000E-03 0.  1.
         11   -1    0    0    0    0 -0.00000000000E+00 -0.00000000000E+00 -0.45593999997E+02  0.45594000000E+02  0.51100000000E-03 0. -1.
    9900012    2    1    2    0    0 -0.14478441472E+02 -0.37820675375E+02 -0.36244579314E+01  0.50528862668E+02  0.30000008565E+02 0.  0.
         12    1    1    2    0    0  0.14478441472E+02  0.37820675375E+02  0.36244579314E+01  0.40659137332E+02  0.00000000000E+00 0. -1.
         11    1    3    3    0    0  0.13157680658E+01 -0.61712514139E+01 -0.24915366848E+00  0.63148766756E+01  0.51100000000E-03 0. -1.
        -11    1    3    3    0    0 -0.14328313408E+02 -0.30121464601E+02  0.66119635482E+01  0.34004724040E+02  0.51100000000E-03 0.  1.
         12    1    3    3    0    0 -0.14658961304E+01 -0.15279593599E+01 -0.99872678111E+01  0.10209261952E+02  0.00000000000E+00 0. -1.
</event>
<event>
 7    1  0.3383281E-011  0.5052886E+02  0.7816164E-02  0.1300439E+00
        -11   -1    0    0    0    0  0.00000000000E+00  0.00000000000E+00  0.45593999997E+02  0.45594000000E+02  0.51100000000E-03 0.  1.
         11   -1    0    0    0    0 -0.00000000000E+00 -0.00000000000E+00 -0.45593999997E+02  0.45594000000E+02  0.51100000000E-03 0. -1.
    9900012    2    1    2    0    0 -0.19190609662E+01 -0.14633934272E+02  0.37885763577E+02  0.50528857005E+02  0.29999991353E+02 0.  0.
         12    1    1    2    0    0  0.19190609662E+01  0.14633934272E+02 -0.37885763577E+02  0.40659142995E+02  0.00000000000E+00 0. -1.
         11    1    3    3    0    0  0.15149219390E+01  0.29088072144E+00  0.81446096122E+00  0.17444044812E+01  0.51100000000E-03 0. -1.
        -11    1    3    3    0    0 -0.93064857686E+01 -0.57019734504E+01  0.84831321012E+00  0.10947274280E+02  0.51100000000E-03 0.  1.
         12    1    3    3    0    0  0.58725028634E+01 -0.92228415430E+01  0.36222989406E+02  0.37837178244E+02  0.00000000000E+00 0. -1.
</event>
<event>
 7    1  0.3383281E-011  0.5052885E+02  0.7816164E-02  0.1300439E+00
        -11   -1    0    0    0    0  0.00000000000E+00  0.00000000000E+00  0.45593999997E+02  0.45594000000E+02  0.51100000000E-03 0. -1.
         11   -1    0    0    0    0 -0.00000000000E+00 -0.00000000000E+00 -0.45593999997E+02  0.45594000000E+02  0.51100000000E-03 0.  1.
    9900012    2    1    2    0    0  0.35633011377E+02  0.19349966904E+02 -0.30055978028E+01  0.50528851741E+02  0.29999975353E+02 0.  0.
         12    1    1    2    0    0 -0.35633011377E+02 -0.19349966904E+02  0.30055978028E+01  0.40659148259E+02  0.00000000000E+00 0. -1.
         11    1    3    3    0    0  0.27121438416E+01 -0.29947851125E+01  0.43009409172E+01  0.59010638975E+01  0.51100000000E-03 0. -1.
        -11    1    3    3    0    0  0.24922919567E+02  0.61767960222E+01 -0.68886854950E+01  0.26584934022E+02  0.51100000000E-03 0.  1.
        -12    1    3    3    0    0  0.79979479682E+01  0.16167955994E+02 -0.41785322500E+00  0.18042853822E+02  0.00000000000E+00 0.  1.
</event>
<event>
 7    1  0.3383281E-011  0.5052886E+02  0.7816164E-02  0.1300439E+00
        -11   -1    0    0    0    0  0.00000000000E+00  0.00000000000E+00  0.45593999997E+02  0.45594000000E+02  0.51100000000E-03 0. -1.
         11   -1    0    0    0    0 -0.00000000000E+00 -0.00000000000E+00 -0.45593999997E+02  0.45594000000E+02  0.51100000000E-03 0.  1.
    9900012    2    1    2    0    0 -0.30522263488E+02 -0.22627923544E+02  0.14475292648E+02  0.50528860934E+02  0.30000003294E+02 0.  0.
         12    1    1    2    0    0  0.30522263488E+02  0.22627923544E+02 -0.14475292648E+02  0.40659139066E+02  0.00000000000E+00 0. -1.
         11    1    3    3    0    0 -0.25055019350E+02 -0.16733765827E+02  0.12503489480E+01  0.30155203301E+02  0.51100000000E-03 0. -1.
        -11    1    3    3    0    0 -0.69671272377E+01 -0.15999005887E+01  0.86172093977E+00  0.72002157661E+01  0.51100000000E-03 0.  1.
         12    1    3    3    0    0  0.14998830988E+01 -0.42942571275E+01  0.12363222761E+02  0.13173441867E+02  0.00000000000E+00 0. -1.
</event>
<event>
 7    1  0.3383281E-011  0.5052886E+02  0.7816164E-02  0.1300439E+00
        -11   -1    0    0    0    0  0.00000000000E+00  0.00000000000E+00  0.45593999997E+02  0.45594000000E+02  0.51100000000E-03 0.  1.
         11   -1    0    0    0    0 -0.00000000000E+00 -0.00000000000E+00 -0.45593999997E+02  0.45594000000E+02  0.51100000000E-03 0. -1.
    9900012    2    1    2    0    0  0.31563146568E+02 -0.22964339466E+02 -0.11382986540E+02  0.50528862147E+02  0.30000006982E+02 0.  0.
         12    1    1    2    0    0 -0.31563146568E+02  0.22964339466E+02  0.11382986540E+02  0.40659137853E+02  0.00000000000E+00 0. -1.
         11    1    3    3    0    0 -0.18469133249E+01 -0.16355241290E+01  0.19950337542E+01  0.31727256339E+01  0.51100000000E-03 0. -1.
        -11    1    3    3    0    0 -0.15284943464E+01  0.26406224355E+01 -0.10911454777E+01  0.32403364838E+01  0.51100000000E-03 0.  1.
        -12    1    3    3    0    0  0.34938554239E+02 -0.23969437772E+02 -0.12286874816E+02  0.44115800029E+02  0.00000000000E+00 0.  1.
</event>
<event>
 7    1  0.3383281E-011  0.5052887E+02  0.7816164E-02  0.1300439E+00
        -11   -1    0    0    0    0  0.00000000000E+00  0.00000000000E+00  0.45593999997E+02  0.45594000000E+02  0.51100000000E-03 0. -1.
         11   -1    0    0    0    0 -0.00000000000E+00 -0.00000000000E+00 -0.45593999997E+02  0.45594000000E+02  0.51100000000E-03 0.  1.
    9900012    2    1    2    0    0  0.73257053619E+01 -0.34522522412E+02 -0.20191441060E+02  0.50528870584E+02  0.30000032628E+02 0.  0.
         12    1    1    2    0    0 -0.73257053619E+01  0.34522522412E+02  0.20191441060E+02  0.40659129416E+02  0.00000000000E+00 0. -1.
         11    1    3    3    0    0  0.13871818630E+02 -0.11236493215E+02 -0.18842465179E+01  0.17950947526E+02  0.51100000000E-03 0. -1.
        -11    1    3    3    0    0  0.12483011589E+01 -0.59845031609E+01  0.13727845025E+00  0.61148490988E+01  0.51100000000E-03 0.  1.
        -12    1    3    3    0    0 -0.77944144267E+01 -0.17301526037E+02 -0.18444472992E+02  0.26463073960E+02  0.00000000000E+00 0.  1.
</event>
<event>
 7    1  0.3383281E-011  0.5052886E+02  0.7816164E-02  0.1300439E+00
        -11   -1    0    0    0    0  0.00000000000E+00  0.00000000000E+00  0.45593999997E+02  0.45594000000E+02  0.51100000000E-03 0.  1.
         11   -1    0    0    0    0 -0.00000000000E+00 -0.00000000000E+00 -0.45593999997E+02  0.45594000000E+02  0.51100000000E-03 0. -1.
    9900012    2    1    2    0    0 -0.79674014716E+01 -0.35507018952E+02  0.18136649817E+02  0.50528856531E+02  0.29999989912E+02 0.  0.
         12    1    1    2    0    0  0.79674014716E+01  0.35507018952E+02 -0.18136649817E+02  0.40659143469E+02  0.00000000000E+00 0. -1.
         11    1    3    3    0    0 -0.34963553118E+01 -0.81590846839E+01  0.38778940958E+01  0.96867551959E+01  0.51100000000E-03 0. -1.
        -11    1    3    3    0    0 -0.93994282657E+01 -0.30786216786E+02  0.11071569493E+02  0.34039977188E+02  0.51100000000E-03 0.  1.
         12    1    3    3    0    0  0.49283821059E+01  0.34382825179E+01  0.31871862286E+01  0.68021241470E+01  0.00000000000E+00 0. -1.
</event>
<event>
 7    1  0.3383281E-011  0.5052889E+02  0.7816164E-02  0.1300439E+00
        -11   -1    0    0    0    0  0.00000000000E+00  0.00000000000E+00  0.45593999997E+02  0.45594000000E+02  0.51100000000E-03 0. -1.
         11   -1    0    0    0    0 -0.00000000000E+00 -0.00000000000E+00 -0.45593999997E+02  0.45594000000E+02  0.51100000000E-03 0.  1.
    9900012    2    1    2    0    0  0.13669322069E+02  0.31592743578E+02 -0.21638192887E+02  0.50528890270E+02  0.30000092464E+02 0.  0.
         12    1    1    2    0    0 -0.13669322069E+02 -0.31592743578E+02  0.21638192887E+02  0.40659109730E+02  0.00000000000E+00 0. -1.
         11    1    3    3    0    0  0.32643450135E+01  0.12444994261E+02 -0.12077922879E+02  0.17646814213E+02  0.51100000000E-03 0. -1.
        -11    1    3    3    0    0  0.14102680404E+02  0.20357548570E+02 -0.25909830571E+01  0.24900372925E+02  0.51100000000E-03 0.  1.
         12    1    3    3    0    0 -0.36977033483E+01 -0.12097992525E+01 -0.69692869509E+01  0.79817031320E+01  0.00000000000E+00 0. -1.
</event>
<event>
 7    1  0.5610376E-011  0.5052885E+02  0.7816164E-02  0.1300439E+00
        -11   -1    0    0    0    0  0.00000000000E+00  0.00000000000E+00  0.45593999997E+02  0.45594000000E+02  0.51100000000E-03 0.  1.
         11   -1    0    0    0    0 -0.00000000000E+00 -0.00000000000E+00 -0.45593999997E+02  0.45594000000E+02  0.51100000000E-03 0. -1.
    9900012    2    1    2    0    0 -0.22624082184E+02  0.10774382525E+02  0.32019215094E+02  0.50528849139E+02  0.29999967443E+02 0.  0.
         12    1    1    2    0    0  0.22624082184E+02 -0.10774382525E+02 -0.32019215094E+02  0.40659150861E+02  0.00000000000E+00 0. -1.
         11    1    3    3    0    0 -0.47330367613E+01  0.63466572676E+01 -0.31246576203E+00  0.79233408718E+01  0.51100000000E-03 0. -1.
        -11    1    3    3    0    0 -0.20983866106E+02  0.83184999978E+01  0.28339434462E+02  0.36230424022E+02  0.51100000000E-03 0.  1.
         12    1    3    3    0    0  0.30928206827E+01 -0.38907747404E+01  0.39922463946E+01  0.63750842450E+01  0.00000000000E+00 0. -1.
</event>
<event>
 7    1  0.3383281E-011  0.5052886E+02  0.7816164E-02  0.1300439E+00
        -11   -1    0    0    0    0  0.00000000000E+00  0.00000000000E+00  0.45593999997E+02  0.45594000000E+02  0.51100000000E-03 0.  1.
         11   -1    0    0    0    0 -0.00000000000E+00 -0.00000000000E+00 -0.45593999997E+02  0.45594000000E+02  0.51100000000E-03 0. -1.
    9900012    2    1    2    0    0 -0.32405409209E+02  0.21167873901E+02  0.12448951963E+02  0.50528857898E+02  0.29999994067E+02 0.  0.
         12    1    1    2    0    0  0.32405409209E+02 -0.21167873901E+02 -0.12448951963E+02  0.40659142102E+02  0.00000000000E+00 0. -1.
         11    1    3    3    0    0 -0.23448004003E+01 -0.29832304961E+01  0.81212603948E+01  0.89639625039E+01  0.51100000000E-03 0. -1.
        -11    1    3    3    0    0 -0.22642686697E+02  0.11173384689E+02  0.73850216405E+01  0.26307305662E+02  0.51100000000E-03 0.  1.
         12    1    3    3    0    0 -0.74179221111E+01  0.12977719708E+02 -0.30573300722E+01  0.15257589733E+02  0.00000000000E+00 0. -1.
</event>
<event>
 7    1  0.3383281E-011  0.5052886E+02  0.7816164E-02  0.1300439E+00
        -11   -1    0    0    0    0  0.00000000000E+00  0.00000000000E+00  0.45593999997E+02  0.45594000000E+02  0.51100000000E-03 0.  1.
         11   -1    0    0    0    0 -0.00000000000E+00 -0.00000000000E+00 -0.45593999997E+02  0.45594000000E+02  0.51100000000E-03 0. -1.
    9900012    2    1    2    0    0  0.27579863731E+02 -0.88407925577E+01  0.28536943665E+02  0.50528860188E+02  0.30000001029E+02 0.  0.
         12    1    1    2    0    0 -0.27579863731E+02  0.88407925577E+01 -0.28536943665E+02  0.40659139812E+02  0.00000000000E+00 0. -1.
         11    1    3    3    0    0  0.67999644128E+01  0.63949519956E+01  0.22252281002E+01  0.95961746233E+01  0.51100000000E-03 0. -1.
        -11    1    3    3    0    0  0.12328498172E+02 -0.39745700690E+01  0.23111226580E+02  0.26493732631E+02  0.51100000000E-03 0.  1.
        -12    1    3    3    0    0  0.84514011464E+01 -0.11261174484E+02  0.32004889847E+01  0.14438952934E+02  0.00000000000E+00 0.  1.
</event>
<event>
 7    1  0.3383281E-011  0.5052886E+02  0.7816164E-02  0.1300439E+00
        -11   -1    0    0    0    0  0.00000000000E+00  0.00000000000E+00  0.45593999997E+02  0.45594000000E+02  0.51100000000E-03 0. -1.
         11   -1    0    0    0    0 -0.00000000000E+00 -0.00000000000E+00 -0.45593999997E+02  0.45594000000E+02  0.51100000000E-03 0.  1.
    9900012    2    1    2    0    0 -0.32689557374E+02  0.24054809001E+02 -0.24340761529E+01  0.50528859280E+02  0.29999998267E+02 0.  0.
         12    1    1    2    0    0  0.32689557374E+02 -0.24054809001E+02  0.24340761529E+01  0.40659140720E+02  0.00000000000E+00 0. -1.
         11    1    3    3    0    0 -0.23399159401E+01  0.45189883154E+01 -0.56947587705E+01  0.76371944925E+01  0.51100000000E-03 0. -1.
        -11    1    3    3    0    0 -0.16186877956E+02  0.12684307000E+02 -0.94821746641E+01  0.22645491795E+02  0.51100000000E-03 0.  1.
         12    1    3    3    0    0 -0.14162763478E+02  0.68515136852E+01  0.12742857282E+02  0.20246172992E+02  0.00000000000E+00 0. -1.
</event>
<event>
 7    1  0.4750258E-011  0.5052886E+02  0.7816164E-02  0.1300439E+00
        -11   -1    0    0    0    0  0.00000000000E+00  0.00000000000E+00  0.45593999997E+02  0.45594000000E+02  0.51100000000E-03 0. -1.
         11   -1    0    0    0    0 -0.00000000000E+00 -0.00000000000E+00 -0.45593999997E+02  0.45594000000E+02  0.51100000000E-03 0.  1.
    9900012    2    1    2    0    0  0.32174465583E+02  0.26974144043E+01 -0.24712204779E+02  0.50528863941E+02  0.30000012436E+02 0.  0.
         12    1    1    2    0    0 -0.32174465583E+02 -0.26974144043E+01  0.24712204779E+02  0.40659136059E+02  0.00000000000E+00 0. -1.
         11    1    3    3    0    0  0.45659297789E+01 -0.83122417192E+00 -0.14418385549E+02  0.15146897057E+02  0.51100000000E-03 0. -1.
        -11    1    3    3    0    0  0.23424251720E+02  0.90218448083E+01 -0.12619895875E+02  0.28095391518E+02  0.51100000000E-03 0.  1.
         12    1    3    3    0    0  0.41842840835E+01 -0.54932062321E+01  0.23260766455E+01  0.72865753657E+01  0.00000000000E+00 0. -1.
</event>
<event>
 7    1  0.3383281E-011  0.5052885E+02  0.7816164E-02  0.1300439E+00
        -11   -1    0    0    0    0  0.00000000000E+00  0.00000000000E+00  0.45593999997E+02  0.45594000000E+02  0.51100000000E-03 0.  1.
         11   -1    0    0    0    0 -0.00000000000E+00 -0.00000000000E+00 -0.45593999997E+02  0.45594000000E+02  0.51100000000E-03 0. -1.
    9900012    2    1    2    0    0  0.75784993509E+01 -0.34350351582E+02  0.20390829248E+02  0.50528853137E+02  0.29999979595E+02 0.  0.
         12    1    1    2    0    0 -0.75784993509E+01  0.34350351582E+02 -0.20390829248E+02  0.40659146863E+02  0.00000000000E+00 0. -1.
         11    1    3    3    0    0 -0.49973046768E+01 -0.13667688789E+02  0.35912186839E+01  0.14989183526E+02  0.51100000000E-03 0. -1.
        -11    1    3    3    0    0  0.48716226426E+01 -0.10415275623E+02 -0.30547396548E+01  0.11897147057E+02  0.51100000000E-03 0.  1.
        -12    1    3    3    0    0  0.77041813852E+01 -0.10267387170E+02  0.19854350219E+02  0.23642522554E+02  0.00000000000E+00 0.  1.
</event>
<event>
 7    1  0.3383281E-011  0.5052887E+02  0.7816164E-02  0.1300439E+00
        -11   -1    0    0    0    0  0.00000000000E+00  0.00000000000E+00  0.45593999997E+02  0.45594000000E+02  0.51100000000E-03 0.  1.
         11   -1    0    0    0    0 -0.00000000000E+00 -0.00000000000E+00 -0.45593999997E+02  0.45594000000E+02  0.51100000000E-03 0. -1.
    9900012    2    1    2    0    0  0.14429698419E+02 -0.17208429942E+02  0.33894228069E+02  0.50528868751E+02  0.30000027056E+02 0.  0.
         12    1    1    2    0    0 -0.14429698419E+02  0.17208429942E+02 -0.33894228069E+02  0.40659131249E+02  0.00000000000E+00 0. -1.
         11    1    3    3    0    0 -0.28172306534E+01 -0.70103937789E+01  0.64566765770E+01  0.99383641597E+01  0.51100000000E-03 0. -1.
        -11    1    3    3    0    0  0.14897298151E+02 -0.15911532041E+02  0.14289180784E+02  0.26063135495E+02  0.51100000000E-03 0.  1.
         12    1    3    3    0    0  0.23496309210E+01  0.57134958772E+01  0.13148370708E+02  0.14527369097E+02  0.00000000000E+00 0. -1.
</event>
<event>
 7    1  0.3383281E-011  0.5052886E+02  0.7816164E-02  0.1300439E+00
        -11   -1    0    0    0    0  0.00000000000E+00  0.00000000000E+00  0.45593999997E+02  0.45594000000E+02  0.51100000000E-03 0. -1.
         11   -1    0    0    0    0 -0.00000000000E+00 -0.00000000000E+00 -0.45593999997E+02  0.45594000000E+02  0.51100000000E-03 0.  1.
    9900012    2    1    2    0    0 -0.16538891610E+02 -0.34040354232E+02 -0.14862197771E+02  0.50528861119E+02  0.30000003859E+02 0.  0.
         12    1    1    2    0    0  0.16538891610E+02  0.34040354232E+02  0.14862197771E+02  0.40659138881E+02  0.00000000000E+00 0. -1.
         11    1    3    3    0    0 -0.26413458809E+01 -0.12091831401E+02 -0.14256836309E+00  0.12377779312E+02  0.51100000000E-03 0. -1.
        -11    1    3    3    0    0 -0.92328558906E+00 -0.21448949854E+02 -0.12883926733E+02  0.25038080486E+02  0.51100000000E-03 0.  1.
        -12    1    3    3    0    0 -0.12974260140E+02 -0.49957297707E+00 -0.18357026754E+01  0.13113001322E+02  0.00000000000E+00 0.  1.
</event>
<event>
 7    1  0.3383281E-011  0.5052883E+02  0.7816164E-02  0.1300439E+00
        -11   -1    0    0    0    0  0.00000000000E+00  0.00000000000E+00  0.45593999997E+02  0.45594000000E+02  0.51100000000E-03 0.  1.
         11   -1    0    0    0    0 -0.00000000000E+00 -0.00000000000E+00 -0.45593999997E+02  0.45594000000E+02  0.51100000000E-03 0. -1.
    9900012    2    1    2    0    0  0.29777964783E+02  0.27181438473E+02 -0.52545661489E+01  0.50528828224E+02  0.29999903870E+02 0.  0.
         12    1    1    2    0    0 -0.29777964783E+02 -0.27181438473E+02  0.52545661489E+01  0.40659171776E+02  0.00000000000E+00 0. -1.
         11    1    3    3    0    0  0.79370355344E+01  0.15738016566E+02  0.23887577287E+01  0.17787294967E+02  0.51100000000E-03 0. -1.
        -11    1    3    3    0    0  0.15105203959E+02  0.32386886220E+01  0.49955406519E+01  0.16236123839E+02  0.51100000000E-03 0.  1.
         12    1    3    3    0    0  0.67357252891E+01  0.82047332852E+01 -0.12638864529E+02  0.16505409418E+02  0.00000000000E+00 0. -1.
</event>
<event>
 7    1  0.3383281E-011  0.5052886E+02  0.7816164E-02  0.1300439E+00
        -11   -1    0    0    0    0  0.00000000000E+00  0.00000000000E+00  0.45593999997E+02  0.45594000000E+02  0.51100000000E-03 0.  1.
         11   -1    0    0    0    0 -0.00000000000E+00 -0.00000000000E+00 -0.45593999997E+02  0.45594000000E+02  0.51100000000E-03 0. -1.
    9900012    2    1    2    0    0  0.12659862981E+01 -0.36433049792E+02  0.18005430926E+02  0.50528863496E+02  0.30000011082E+02 0.  0.
         12    1    1    2    0    0 -0.12659862981E+01  0.36433049792E+02 -0.18005430926E+02  0.40659136504E+02  0.00000000000E+00 0. -1.
         11    1    3    3    0    0 -0.99209114291E+00 -0.10761186139E+01 -0.66886062469E+01  0.68468773827E+01  0.51100000000E-03 0. -1.
        -11    1    3    3    0    0 -0.16528889372E+01 -0.18779209707E+02  0.10995440798E+02  0.21824080225E+02  0.51100000000E-03 0.  1.
        -12    1    3    3    0    0  0.39109663782E+01 -0.16577721471E+02  0.13698596375E+02  0.21857905888E+02  0.00000000000E+00 0.  1.
</event>
<event>
 7    1  0.3383281E-011  0.5052887E+02  0.7816164E-02  0.1300439E+00
        -11   -1    0    0    0    0  0.00000000000E+00  0.00000000000E+00  0.45593999997E+02  0.45594000000E+02  0.51100000000E-03 0. -1.
         11   -1    0    0    0    0 -0.00000000000E+00 -0.00000000000E+00 -0.45593999997E+02  0.45594000000E+02  0.51100000000E-03 0.  1.
    9900012    2    1    2    0    0  0.17933347113E+02  0.35820884734E+02 -0.69587397190E+01  0.50528870886E+02  0.30000033545E+02 0.  0.
         12    1    1    2    0    0 -0.17933347113E+02 -0.35820884734E+02  0.69587397190E+01  0.40659129114E+02  0.00000000000E+00 0. -1.
         11    1    3    3    0    0  0.10081727480E+02  0.16382858109E+02 -0.12677252199E+02  0.23038055308E+02  0.51100000000E-03 0.  1.
        -11    1    3    3    0    0 -0.27415213787E+01 -0.35544149121E+00 -0.23568251006E+01  0.36327541810E+01  0.51100000000E-03 0. -1.
         12    1    3    3    0    0  0.10593141012E+02  0.19793468116E+02  0.80753375807E+01  0.23858061397E+02  0.00000000000E+00 0. -1.
</event>
<event>
 7    1  0.3383281E-011  0.5052886E+02  0.7816164E-02  0.1300439E+00
        -11   -1    0    0    0    0  0.00000000000E+00  0.00000000000E+00  0.45593999997E+02  0.45594000000E+02  0.51100000000E-03 0.  1.
         11   -1    0    0    0    0 -0.00000000000E+00 -0.00000000000E+00 -0.45593999997E+02  0.45594000000E+02  0.51100000000E-03 0. -1.
    9900012    2    1    2    0    0  0.39193153528E+02 -0.10764408760E+02 -0.10910051329E+01  0.50528855007E+02  0.29999985278E+02 0.  0.
         12    1    1    2    0    0 -0.39193153528E+02  0.10764408760E+02  0.10910051329E+01  0.40659144993E+02  0.00000000000E+00 0. -1.
         11    1    3    3    0    0  0.72009972288E+01 -0.22194906488E+01  0.62216598347E+01  0.97718755206E+01  0.51100000000E-03 0. -1.
        -11    1    3    3    0    0  0.39533649335E+01 -0.81251569388E+01  0.47758908672E+01  0.10220391549E+02  0.51100000000E-03 0.  1.
         12    1    3    3    0    0  0.28038791365E+02 -0.41976117251E+00 -0.12088555835E+02  0.30536587937E+02  0.00000000000E+00 0. -1.
</event>
<event>
 7    1  0.3383281E-011  0.5052890E+02  0.7816164E-02  0.1300439E+00
        -11   -1    0    0    0    0  0.00000000000E+00  0.00000000000E+00  0.45593999997E+02  0.45594000000E+02  0.51100000000E-03 0. -1.
         11   -1    0    0    0    0 -0.00000000000E+00 -0.00000000000E+00 -0.45593999997E+02  0.45594000000E+02  0.51100000000E-03 0.  1.
    9900012    2    1    2    0    0 -0.37348428791E+02  0.76658600449E+01 -0.14124147893E+02  0.50528903882E+02  0.30000133841E+02 0.  0.
         12    1    1    2    0    0  0.37348428791E+02 -0.76658600449E+01  0.14124147893E+02  0.40659096118E+02  0.00000000000E+00 0. -1.
         11    1    3    3    0    0 -0.60337950104E+01 -0.87726554201E+01 -0.48813879665E+01  0.11712989118E+02  0.51100000000E-03 0. -1.
        -11    1    3    3    0    0 -0.70480644427E+01  0.11522105097E+01 -0.70772435213E+01  0.10054361122E+02  0.51100000000E-03 0.  1.
        -12    1    3    3    0    0 -0.24266569338E+02  0.15286304955E+02 -0.21655164056E+01  0.28761553642E+02  0.00000000000E+00 0.  1.
</event>
<event>
 7    1  0.3383281E-011  0.5052886E+02  0.7816164E-02  0.1300439E+00
        -11   -1    0    0    0    0  0.00000000000E+00  0.00000000000E+00  0.45593999997E+02  0.45594000000E+02  0.51100000000E-03 0. -1.
         11   -1    0    0    0    0 -0.00000000000E+00 -0.00000000000E+00 -0.45593999997E+02  0.45594000000E+02  0.51100000000E-03 0.  1.
    9900012    2    1    2    0    0 -0.14459680674E+02 -0.28427107004E+02 -0.25218704899E+02  0.50528857675E+02  0.29999993388E+02 0.  0.
         12    1    1    2    0    0  0.14459680674E+02  0.28427107004E+02  0.25218704899E+02  0.40659142325E+02  0.00000000000E+00 0. -1.
         11    1    3    3    0    0 -0.20287325797E+02 -0.18309167632E+02 -0.17951437203E+02  0.32696411198E+02  0.51100000000E-03 0. -1.
        -11    1    3    3    0    0 -0.14613261943E+01 -0.11510160716E+01 -0.59117273116E+01  0.61974859670E+01  0.51100000000E-03 0.  1.
        -12    1    3    3    0    0  0.72889713164E+01 -0.89669233000E+01 -0.13555403852E+01  0.11634960509E+02  0.00000000000E+00 0.  1.
</event>
<event>
 7    1  0.3383281E-011  0.5052886E+02  0.7816164E-02  0.1300439E+00
        -11   -1    0    0    0    0  0.00000000000E+00  0.00000000000E+00  0.45593999997E+02  0.45594000000E+02  0.51100000000E-03 0.  1.
         11   -1    0    0    0    0 -0.00000000000E+00 -0.00000000000E+00 -0.45593999997E+02  0.45594000000E+02  0.51100000000E-03 0. -1.
    9900012    2    1    2    0    0  0.32638489412E+02  0.11766965488E+02 -0.21199835643E+02  0.50528862045E+02  0.30000006673E+02 0.  0.
         12    1    1    2    0    0 -0.32638489412E+02 -0.11766965488E+02  0.21199835643E+02  0.40659137955E+02  0.00000000000E+00 0. -1.
         11    1    3    3    0    0  0.10873647638E+02  0.63907557226E+01 -0.28335911309E+01  0.12926995421E+02  0.51100000000E-03 0. -1.
        -11    1    3    3    0    0  0.65115167334E+01  0.32813112123E+01  0.55463850700E+01  0.91612903593E+01  0.51100000000E-03 0.  1.
         12    1    3    3    0    0  0.15253325041E+02  0.20948985531E+01 -0.23912629582E+02  0.28440576265E+02  0.00000000000E+00 0. -1.
</event>
<event>
 7    1  0.3383281E-011  0.5052886E+02  0.7816164E-02  0.1300439E+00
        -11   -1    0    0    0    0  0.00000000000E+00  0.00000000000E+00  0.45593999997E+02  0.45594000000E+02  0.51100000000E-03 0.  1.
         11   -1    0    0    0    0 -0.00000000000E+00 -0.00000000000E+00 -0.45593999997E+02  0.45594000000E+02  0.51100000000E-03 0. -1.
    9900012    2    1    2    0    0 -0.50475321467E+01  0.30205213687E+01  0.40231388516E+02  0.50528858936E+02  0.29999997223E+02 0.  0.
         12    1    1    2    0    0  0.50475321467E+01 -0.30205213687E+01 -0.40231388516E+02  0.40659141064E+02  0.00000000000E+00 0. -1.
         11    1    3    3    0    0 -0.46592350287E+01  0.69807140817E+01  0.10903570908E+02  0.13759603881E+02  0.51100000000E-03 0.  1.
        -11    1    3    3    0    0  0.99148630175E+01 -0.46433711799E+01  0.98660094608E+01  0.14737827096E+02  0.51100000000E-03 0. -1.
         12    1    3    3    0    0 -0.10303160135E+02  0.68317846694E+00  0.19461808147E+02  0.22031427960E+02  0.00000000000E+00 0. -1.
</event>
<event>
 7    1  0.3383281E-011  0.5052886E+02  0.7816164E-02  0.1300439E+00
        -11   -1    0    0    0    0  0.00000000000E+00  0.00000000000E+00  0.45593999997E+02  0.45594000000E+02  0.51100000000E-03 0. -1.
         11   -1    0    0    0    0 -0.00000000000E+00 -0.00000000000E+00 -0.45593999997E+02  0.45594000000E+02  0.51100000000E-03 0.  1.
    9900012    2    1    2    0    0 -0.18455595186E+02  0.31520064181E+02  0.17861761191E+02  0.50528856471E+02  0.29999989729E+02 0.  0.
         12    1    1    2    0    0  0.18455595186E+02 -0.31520064181E+02 -0.17861761191E+02  0.40659143529E+02  0.00000000000E+00 0. -1.
         11    1    3    3    0    0 -0.12340547310E+02  0.15974535994E+02  0.87965052089E+01  0.22019387191E+02  0.51100000000E-03 0. -1.
        -11    1    3    3    0    0 -0.45861976725E+01  0.60799282656E+01 -0.66431612040E+01  0.10105955069E+02  0.51100000000E-03 0.  1.
         12    1    3    3    0    0 -0.15288502033E+01  0.94655999223E+01  0.15708417186E+02  0.18403514211E+02  0.00000000000E+00 0. -1.
</event>
<event>
 7    1  0.3383281E-011  0.5052884E+02  0.7816164E-02  0.1300439E+00
        -11   -1    0    0    0    0  0.00000000000E+00  0.00000000000E+00  0.45593999997E+02  0.45594000000E+02  0.51100000000E-03 0.  1.
         11   -1    0    0    0    0 -0.00000000000E+00 -0.00000000000E+00 -0.45593999997E+02  0.45594000000E+02  0.51100000000E-03 0. -1.
    9900012    2    1    2    0    0  0.22054810154E+01 -0.22941345836E+02  0.33496235107E+02  0.50528840372E+02  0.29999940795E+02 0.  0.
         12    1    1    2    0    0 -0.22054810154E+01  0.22941345836E+02 -0.33496235107E+02  0.40659159628E+02  0.00000000000E+00 0. -1.
         11    1    3    3    0    0 -0.29717180212E+01 -0.19160207729E+02  0.27661564160E+02  0.33780272353E+02  0.51100000000E-03 0. -1.
        -11    1    3    3    0    0  0.75635444442E+01 -0.77844488560E+01  0.52325144723E+01  0.12049234686E+02  0.51100000000E-03 0.  1.
         12    1    3    3    0    0 -0.23863454076E+01  0.40033107488E+01  0.60215647528E+00  0.46993333332E+01  0.00000000000E+00 0. -1.
</event>
<event>
 7    1  0.3383281E-011  0.5052887E+02  0.7816164E-02  0.1300439E+00
        -11   -1    0    0    0    0  0.00000000000E+00  0.00000000000E+00  0.45593999997E+02  0.45594000000E+02  0.51100000000E-03 0. -1.
         11   -1    0    0    0    0 -0.00000000000E+00 -0.00000000000E+00 -0.45593999997E+02  0.45594000000E+02  0.51100000000E-03 0.  1.
    9900012    2    1    2    0    0  0.18997913155E+02 -0.25028780746E+02 -0.25803182828E+02  0.50528870472E+02  0.30000032288E+02 0.  0.
         12    1    1    2    0    0 -0.18997913155E+02  0.25028780746E+02  0.25803182828E+02  0.40659129528E+02  0.00000000000E+00 0. -1.
         11    1    3    3    0    0  0.56375885992E+01 -0.13771936642E+02 -0.16836940138E+02  0.22470674167E+02  0.51100000000E-03 0.  1.
        -11    1    3    3    0    0  0.44602005739E+01 -0.16183852858E+01 -0.13395927769E+02  0.14211384210E+02  0.51100000000E-03 0. -1.
         12    1    3    3    0    0  0.89001239820E+01 -0.96384588190E+01  0.44296850792E+01  0.13846812095E+02  0.00000000000E+00 0. -1.
</event>
<event>
 7    1  0.3383281E-011  0.5052894E+02  0.7816164E-02  0.1300439E+00
        -11   -1    0    0    0    0  0.00000000000E+00  0.00000000000E+00  0.45593999997E+02  0.45594000000E+02  0.51100000000E-03 0.  1.
         11   -1    0    0    0    0 -0.00000000000E+00 -0.00000000000E+00 -0.45593999997E+02  0.45594000000E+02  0.51100000000E-03 0. -1.
    9900012    2    1    2    0    0 -0.21806067754E+02 -0.70744231675E+01  0.33579865855E+02  0.50528936497E+02  0.30000232976E+02 0.  0.
         12    1    1    2    0    0  0.21806067754E+02  0.70744231675E+01 -0.33579865855E+02  0.40659063503E+02  0.00000000000E+00 0. -1.
         11    1    3    3    0    0 -0.24232498390E+00  0.32233093663E+01  0.62718220381E+01  0.70557917067E+01  0.51100000000E-03 0. -1.
        -11    1    3    3    0    0  0.30323677652E+01 -0.74542994295E+00  0.13176174263E+02  0.13541140592E+02  0.51100000000E-03 0.  1.
         12    1    3    3    0    0 -0.24596110535E+02 -0.95523025909E+01  0.14131869555E+02  0.29932004199E+02  0.00000000000E+00 0. -1.
</event>
<event>
 7    1  0.3383281E-011  0.5052886E+02  0.7816164E-02  0.1300439E+00
        -11   -1    0    0    0    0  0.00000000000E+00  0.00000000000E+00  0.45593999997E+02  0.45594000000E+02  0.51100000000E-03 0.  1.
         11   -1    0    0    0    0 -0.00000000000E+00 -0.00000000000E+00 -0.45593999997E+02  0.45594000000E+02  0.51100000000E-03 0. -1.
    9900012    2    1    2    0    0 -0.39041479414E+02 -0.34464561798E+01  0.10818993343E+02  0.50528858445E+02  0.29999995729E+02 0.  0.
         12    1    1    2    0    0  0.39041479414E+02  0.34464561798E+01 -0.10818993343E+02  0.40659141555E+02  0.00000000000E+00 0. -1.
         11    1    3    3    0    0 -0.97145825883E+01  0.73885235535E+01  0.12077564907E+01  0.12264667593E+02  0.51100000000E-03 0. -1.
        -11    1    3    3    0    0 -0.36106703036E+01  0.51343289332E+01  0.40951252645E+01  0.74945530106E+01  0.51100000000E-03 0.  1.
        -12    1    3    3    0    0 -0.25716226522E+02 -0.15969308666E+02  0.55161115882E+01  0.30769637841E+02  0.00000000000E+00 0.  1.
</event>
<event>
 7    1  0.3383281E-011  0.5052886E+02  0.7816164E-02  0.1300439E+00
        -11   -1    0    0    0    0  0.00000000000E+00  0.00000000000E+00  0.45593999997E+02  0.45594000000E+02  0.51100000000E-03 0. -1.
         11   -1    0    0    0    0 -0.00000000000E+00 -0.00000000000E+00 -0.45593999997E+02  0.45594000000E+02  0.51100000000E-03 0.  1.
    9900012    2    1    2    0    0 -0.32160914676E+02  0.11611289846E+02 -0.22000432323E+02  0.50528861949E+02  0.30000006380E+02 0.  0.
         12    1    1    2    0    0  0.32160914676E+02 -0.11611289846E+02  0.22000432323E+02  0.40659138051E+02  0.00000000000E+00 0. -1.
         11    1    3    3    0    0 -0.11211862321E+02 -0.61619251224E+01 -0.48204887492E+01  0.13671586958E+02  0.51100000000E-03 0. -1.
        -11    1    3    3    0    0 -0.35859391798E+01 -0.21207365458E+01  0.15912631082E+01  0.44596638706E+01  0.51100000000E-03 0.  1.
         12    1    3    3    0    0 -0.17363113175E+02  0.19893951514E+02 -0.18771206682E+02  0.32397611120E+02  0.00000000000E+00 0. -1.
</event>
<event>
 7    1  0.3383281E-011  0.5052885E+02  0.7816164E-02  0.1300439E+00
        -11   -1    0    0    0    0  0.00000000000E+00  0.00000000000E+00  0.45593999997E+02  0.45594000000E+02  0.51100000000E-03 0.  1.
         11   -1    0    0    0    0 -0.00000000000E+00 -0.00000000000E+00 -0.45593999997E+02  0.45594000000E+02  0.51100000000E-03 0. -1.
    9900012    2    1    2    0    0 -0.88954008278E+01 -0.38190995585E+02 -0.10746433863E+02  0.50528854160E+02  0.29999982706E+02 0.  0.
         12    1    1    2    0    0  0.88954008278E+01  0.38190995585E+02  0.10746433863E+02  0.40659145840E+02  0.00000000000E+00 0. -1.
         11    1    3    3    0    0  0.28025779268E+01  0.52025340144E+00 -0.50282900746E+01  0.57800352917E+01  0.51100000000E-03 0. -1.
        -11    1    3    3    0    0  0.48736852965E+01 -0.62012869999E+01 -0.12670830849E+01  0.79883833552E+01  0.51100000000E-03 0.  1.
        -12    1    3    3    0    0 -0.16571664051E+02 -0.32509961986E+02 -0.44510607031E+01  0.36760435514E+02  0.00000000000E+00 0.  1.
</event>
<event>
 7    1  0.3383281E-011  0.5052886E+02  0.7816164E-02  0.1300439E+00
        -11   -1    0    0    0    0  0.00000000000E+00  0.00000000000E+00  0.45593999997E+02  0.45594000000E+02  0.51100000000E-03 0.  1.
         11   -1    0    0    0    0 -0.00000000000E+00 -0.00000000000E+00 -0.45593999997E+02  0.45594000000E+02  0.51100000000E-03 0. -1.
    9900012    2    1    2    0    0 -0.39550158834E+02  0.34763013757E-01 -0.94313084994E+01  0.50528857703E+02  0.29999993475E+02 0.  0.
         12    1    1    2    0    0  0.39550158834E+02 -0.34763013757E-01  0.94313084994E+01  0.40659142297E+02  0.00000000000E+00 0. -1.
         11    1    3    3    0    0 -0.26512988936E+01 -0.12499945010E+01 -0.43933258990E+01  0.52813998894E+01  0.51100000000E-03 0. -1.
        -11    1    3    3    0    0 -0.26282240099E+02  0.49698241980E+01 -0.14616651163E+02  0.30481171051E+02  0.51100000000E-03 0.  1.
        -12    1    3    3    0    0 -0.10616619842E+02 -0.36850666833E+01  0.95786685625E+01  0.14766286763E+02  0.00000000000E+00 0.  1.
</event>
<event>
 7    1  0.3383281E-011  0.5052885E+02  0.7816164E-02  0.1300439E+00
        -11   -1    0    0    0    0  0.00000000000E+00  0.00000000000E+00  0.45593999997E+02  0.45594000000E+02  0.51100000000E-03 0. -1.
         11   -1    0    0    0    0 -0.00000000000E+00 -0.00000000000E+00 -0.45593999997E+02  0.45594000000E+02  0.51100000000E-03 0.  1.
    9900012    2    1    2    0    0  0.38295125397E+02  0.13568896989E+02 -0.15920302594E+01  0.50528853981E+02  0.29999982159E+02 0.  0.
         12    1    1    2    0    0 -0.38295125397E+02 -0.13568896989E+02  0.15920302594E+01  0.40659146019E+02  0.00000000000E+00 0. -1.
         11    1    3    3    0    0  0.29893968448E+02  0.91108795236E+01  0.19952032508E+01  0.31315145083E+02  0.51100000000E-03 0. -1.
        -11    1    3    3    0    0  0.13173387162E+02  0.48048976094E+01 -0.33825039092E+01  0.14424510505E+02  0.51100000000E-03 0.  1.
         12    1    3    3    0    0 -0.47722302127E+01 -0.34688014436E+00 -0.20472960107E+00  0.47891983930E+01  0.00000000000E+00 0. -1.
</event>
<event>
 7    1  0.3383281E-011  0.5052885E+02  0.7816164E-02  0.1300439E+00
        -11   -1    0    0    0    0  0.00000000000E+00  0.00000000000E+00  0.45593999997E+02  0.45594000000E+02  0.51100000000E-03 0. -1.
         11   -1    0    0    0    0 -0.00000000000E+00 -0.00000000000E+00 -0.45593999997E+02  0.45594000000E+02  0.51100000000E-03 0.  1.
    9900012    2    1    2    0    0 -0.37572763235E+02  0.15039916879E+02  0.39057162098E+01  0.50528852739E+02  0.29999978386E+02 0.  0.
         12    1    1    2    0    0  0.37572763235E+02 -0.15039916879E+02 -0.39057162098E+01  0.40659147261E+02  0.00000000000E+00 0. -1.
         11    1    3    3    0    0 -0.92798153843E+01 -0.47085955755E+01 -0.48390111783E+01  0.11476143747E+02  0.51100000000E-03 0. -1.
        -11    1    3    3    0    0 -0.26173334716E+02  0.11549999768E+02  0.28822046067E+01  0.28753313696E+02  0.51100000000E-03 0.  1.
         12    1    3    3    0    0 -0.21196131343E+01  0.81985126866E+01  0.58625227814E+01  0.10299395296E+02  0.00000000000E+00 0. -1.
</event>
<event>
 7    1  0.3383281E-011  0.5052886E+02  0.7816164E-02  0.1300439E+00
        -11   -1    0    0    0    0  0.00000000000E+00  0.00000000000E+00  0.45593999997E+02  0.45594000000E+02  0.51100000000E-03 0.  1.
         11   -1    0    0    0    0 -0.00000000000E+00 -0.00000000000E+00 -0.45593999997E+02  0.45594000000E+02  0.51100000000E-03 0. -1.
    9900012    2    1    2    0    0  0.26899332672E+02 -0.28690834239E+02 -0.10316391930E+02  0.50528855764E+02  0.29999987581E+02 0.  0.
         12    1    1    2    0    0 -0.26899332672E+02  0.28690834239E+02  0.10316391930E+02  0.40659144236E+02  0.00000000000E+00 0. -1.
         11    1    3    3    0    0  0.40776851241E+01  0.22882032392E+01 -0.87535717002E+01  0.99241325972E+01  0.51100000000E-03 0. -1.
        -11    1    3    3    0    0 -0.88981578782E+00  0.59529772376E+00  0.15107278477E+00  0.10811913631E+01  0.51100000000E-03 0.  1.
        -12    1    3    3    0    0  0.23711463336E+02 -0.31574335202E+02 -0.17138930141E+01  0.39523531804E+02  0.00000000000E+00 0.  1.
</event>
<event>
 7    1  0.3383281E-011  0.5052883E+02  0.7816164E-02  0.1300439E+00
        -11   -1    0    0    0    0  0.00000000000E+00  0.00000000000E+00  0.45593999997E+02  0.45594000000E+02  0.51100000000E-03 0.  1.
         11   -1    0    0    0    0 -0.00000000000E+00 -0.00000000000E+00 -0.45593999997E+02  0.45594000000E+02  0.51100000000E-03 0. -1.
    9900012    2    1    2    0    0  0.88246497446E+01 -0.24178998797E+02  0.31474899904E+02  0.50528834368E+02  0.29999922543E+02 0.  0.
         12    1    1    2    0    0 -0.88246497446E+01  0.24178998797E+02 -0.31474899904E+02  0.40659165632E+02  0.00000000000E+00 0. -1.
         11    1    3    3    0    0  0.76853742121E+01 -0.21698708413E+01 -0.11477738308E+01  0.80678808417E+01  0.51100000000E-03 0. -1.
        -11    1    3    3    0    0  0.27916567519E+01 -0.37807701371E+01 -0.38791534843E+00  0.47157235743E+01  0.51100000000E-03 0.  1.
        -12    1    3    3    0    0 -0.16523812194E+01 -0.18228357819E+02  0.33010589083E+02  0.37745229952E+02  0.00000000000E+00 0.  1.
</event>
<event>
 7    1  0.3383281E-011  0.5052887E+02  0.7816164E-02  0.1300439E+00
        -11   -1    0    0    0    0  0.00000000000E+00  0.00000000000E+00  0.45593999997E+02  0.45594000000E+02  0.51100000000E-03 0.  1.
         11   -1    0    0    0    0 -0.00000000000E+00 -0.00000000000E+00 -0.45593999997E+02  0.45594000000E+02  0.51100000000E-03 0. -1.
    9900012    2    1    2    0    0 -0.23438636824E+02 -0.22358295294E+02 -0.24574417129E+02  0.50528867670E+02  0.30000023769E+02 0.  0.
         12    1    1    2    0    0  0.23438636824E+02  0.22358295294E+02  0.24574417129E+02  0.40659132330E+02  0.00000000000E+00 0. -1.
         11    1    3    3    0    0  0.34323778861E+01 -0.17607706345E+01 -0.36251360566E+00  0.38746545079E+01  0.51100000000E-03 0. -1.
        -11    1    3    3    0    0  0.12582140700E+01 -0.24785392689E+01  0.25779774245E+01  0.37910720669E+01  0.51100000000E-03 0.  1.
        -12    1    3    3    0    0 -0.28129228780E+02 -0.18118985390E+02 -0.26789880948E+02  0.42863141095E+02  0.00000000000E+00 0.  1.
</event>
<event>
 7    1  0.3383281E-011  0.5052886E+02  0.7816164E-02  0.1300439E+00
        -11   -1    0    0    0    0  0.00000000000E+00  0.00000000000E+00  0.45593999997E+02  0.45594000000E+02  0.51100000000E-03 0. -1.
         11   -1    0    0    0    0 -0.00000000000E+00 -0.00000000000E+00 -0.45593999997E+02  0.45594000000E+02  0.51100000000E-03 0.  1.
    9900012    2    1    2    0    0  0.27190753367E+02 -0.55805558455E+01 -0.29710033923E+02  0.50528858495E+02  0.29999995882E+02 0.  0.
         12    1    1    2    0    0 -0.27190753367E+02  0.55805558455E+01  0.29710033923E+02  0.40659141505E+02  0.00000000000E+00 0. -1.
         11    1    3    3    0    0  0.59741615174E+00  0.13647517171E-01  0.52368704264E+00  0.79456950158E+00  0.51100000000E-03 0. -1.
        -11    1    3    3    0    0  0.23076254072E+02 -0.15960813036E+02 -0.25086165813E+02  0.37637438412E+02  0.51100000000E-03 0.  1.
        -12    1    3    3    0    0  0.35170831433E+01  0.10366609673E+02 -0.51475551525E+01  0.12096850582E+02  0.00000000000E+00 0.  1.
</event>
<event>
 7    1  0.3383281E-011  0.5052887E+02  0.7816164E-02  0.1300439E+00
        -11   -1    0    0    0    0  0.00000000000E+00  0.00000000000E+00  0.45593999997E+02  0.45594000000E+02  0.51100000000E-03 0.  1.
         11   -1    0    0    0    0 -0.00000000000E+00 -0.00000000000E+00 -0.45593999997E+02  0.45594000000E+02  0.51100000000E-03 0. -1.
    9900012    2    1    2    0    0  0.26381366241E+02  0.33388677156E+01  0.30757773593E+02  0.50528866232E+02  0.30000019398E+02 0.  0.
         12    1    1    2    0    0 -0.26381366241E+02 -0.33388677156E+01 -0.30757773593E+02  0.40659133768E+02  0.00000000000E+00 0. -1.
         11    1    3    3    0    0  0.10661596682E+02  0.11900790761E+02  0.94513221256E+01  0.18564103930E+02  0.51100000000E-03 0. -1.
        -11    1    3    3    0    0  0.10093940230E+02  0.30067628024E+01  0.12644013535E+02  0.16455981601E+02  0.51100000000E-03 0.  1.
        -12    1    3    3    0    0  0.56258293289E+01 -0.11568685848E+02  0.86624379326E+01  0.15508780701E+02  0.00000000000E+00 0.  1.
</event>
<event>
 7    1  0.3523045E-011  0.5052887E+02  0.7816164E-02  0.1300439E+00
        -11   -1    0    0    0    0  0.00000000000E+00  0.00000000000E+00  0.45593999997E+02  0.45594000000E+02  0.51100000000E-03 0. -1.
         11   -1    0    0    0    0 -0.00000000000E+00 -0.00000000000E+00 -0.45593999997E+02  0.45594000000E+02  0.51100000000E-03 0.  1.
    9900012    2    1    2    0    0 -0.40121692856E+02  0.62466579037E+01 -0.20961495137E+01  0.50528870455E+02  0.30000032234E+02 0.  0.
         12    1    1    2    0    0  0.40121692856E+02 -0.62466579037E+01  0.20961495137E+01  0.40659129545E+02  0.00000000000E+00 0. -1.
         11    1    3    3    0    0 -0.30523399623E+02  0.59525477275E+01 -0.10832730613E+02  0.32931122085E+02  0.51100000000E-03 0. -1.
        -11    1    3    3    0    0 -0.97079863367E+01  0.26770647620E+01  0.17578933655E+01  0.10222615311E+02  0.51100000000E-03 0.  1.
         12    1    3    3    0    0  0.10969310376E+00 -0.23829545858E+01  0.69786877341E+01  0.73751330581E+01  0.00000000000E+00 0. -1.
</event>
<event>
 7    1  0.3383281E-011  0.5052888E+02  0.7816164E-02  0.1300439E+00
        -11   -1    0    0    0    0  0.00000000000E+00  0.00000000000E+00  0.45593999997E+02  0.45594000000E+02  0.51100000000E-03 0.  1.
         11   -1    0    0    0    0 -0.00000000000E+00 -0.00000000000E+00 -0.45593999997E+02  0.45594000000E+02  0.51100000000E-03 0. -1.
    9900012    2    1    2    0    0 -0.33811565831E+01  0.17402598052E+02  0.36590727542E+02  0.50528880717E+02  0.30000063429E+02 0.  0.
         12    1    1    2    0    0  0.33811565831E+01 -0.17402598052E+02 -0.36590727542E+02  0.40659119283E+02  0.00000000000E+00 0. -1.
         11    1    3    3    0    0 -0.35384167380E+01  0.13574706569E+02  0.60457144024E+01  0.15275592111E+02  0.51100000000E-03 0. -1.
        -11    1    3    3    0    0 -0.49855975573E+01 -0.37184621973E+01  0.45652203028E+01  0.77152045203E+01  0.51100000000E-03 0.  1.
        -12    1    3    3    0    0  0.51428577122E+01  0.75463536810E+01  0.25979792836E+02  0.27538084086E+02  0.00000000000E+00 0.  1.
</event>
<event>
 7    1  0.3383281E-011  0.5052886E+02  0.7816164E-02  0.1300439E+00
        -11   -1    0    0    0    0  0.00000000000E+00  0.00000000000E+00  0.45593999997E+02  0.45594000000E+02  0.51100000000E-03 0.  1.
         11   -1    0    0    0    0 -0.00000000000E+00 -0.00000000000E+00 -0.45593999997E+02  0.45594000000E+02  0.51100000000E-03 0. -1.
    9900012    2    1    2    0    0  0.14123348714E+02 -0.36978293790E+02  0.92899060384E+01  0.50528861486E+02  0.30000004972E+02 0.  0.
         12    1    1    2    0    0 -0.14123348714E+02  0.36978293790E+02 -0.92899060384E+01  0.40659138514E+02  0.00000000000E+00 0. -1.
         11    1    3    3    0    0 -0.14490862564E+01 -0.10430057648E+02  0.35754770223E+01  0.11120700955E+02  0.51100000000E-03 0. -1.
        -11    1    3    3    0    0 -0.18029278261E+01 -0.18871664007E+02  0.73716786191E+01  0.20340400613E+02  0.51100000000E-03 0.  1.
         12    1    3    3    0    0  0.17375362797E+02 -0.76765721343E+01 -0.16572496030E+01  0.19067759918E+02  0.00000000000E+00 0. -1.
</event>
<event>
 7    1  0.3383281E-011  0.5052886E+02  0.7816164E-02  0.1300439E+00
        -11   -1    0    0    0    0  0.00000000000E+00  0.00000000000E+00  0.45593999997E+02  0.45594000000E+02  0.51100000000E-03 0.  1.
         11   -1    0    0    0    0 -0.00000000000E+00 -0.00000000000E+00 -0.45593999997E+02  0.45594000000E+02  0.51100000000E-03 0. -1.
    9900012    2    1    2    0    0  0.33128395692E+02  0.21112520878E+02  0.10485059800E+02  0.50528860585E+02  0.30000002235E+02 0.  0.
         12    1    1    2    0    0 -0.33128395692E+02 -0.21112520878E+02 -0.10485059800E+02  0.40659139415E+02  0.00000000000E+00 0. -1.
         11    1    3    3    0    0 -0.17556632529E+01  0.34769549979E+01 -0.35026798894E+01  0.52383524303E+01  0.51100000000E-03 0. -1.
        -11    1    3    3    0    0  0.23688837855E+02  0.19302812335E+01  0.84406275880E+01  0.25221641875E+02  0.51100000000E-03 0.  1.
         12    1    3    3    0    0  0.11195221090E+02  0.15705284647E+02  0.55471121009E+01  0.20068866280E+02  0.00000000000E+00 0. -1.
</event>
<event>
 7    1  0.3383281E-011  0.5052887E+02  0.7816164E-02  0.1300439E+00
        -11   -1    0    0    0    0  0.00000000000E+00  0.00000000000E+00  0.45593999997E+02  0.45594000000E+02  0.51100000000E-03 0. -1.
         11   -1    0    0    0    0 -0.00000000000E+00 -0.00000000000E+00 -0.45593999997E+02  0.45594000000E+02  0.51100000000E-03 0.  1.
    9900012    2    1    2    0    0 -0.29241329764E+02 -0.27468163544E+02  0.66037182651E+01  0.50528874705E+02  0.30000045154E+02 0.  0.
         12    1    1    2    0    0  0.29241329764E+02  0.27468163544E+02 -0.66037182651E+01  0.40659125295E+02  0.00000000000E+00 0. -1.
         11    1    3    3    0    0 -0.11072006227E+02 -0.18723746034E+01 -0.49208660933E+01  0.12260099181E+02  0.51100000000E-03 0. -1.
        -11    1    3    3    0    0 -0.12413502498E+02 -0.66515209837E+01 -0.20938322909E+01  0.14238044444E+02  0.51100000000E-03 0.  1.
         12    1    3    3    0    0 -0.57558210385E+01 -0.18944267957E+02  0.13618416649E+02  0.24030731081E+02  0.00000000000E+00 0. -1.
</event>
<event>
 7    1  0.3383281E-011  0.5052886E+02  0.7816164E-02  0.1300439E+00
        -11   -1    0    0    0    0  0.00000000000E+00  0.00000000000E+00  0.45593999997E+02  0.45594000000E+02  0.51100000000E-03 0. -1.
         11   -1    0    0    0    0 -0.00000000000E+00 -0.00000000000E+00 -0.45593999997E+02  0.45594000000E+02  0.51100000000E-03 0.  1.
    9900012    2    1    2    0    0 -0.29273622294E+02 -0.12139980267E+02 -0.25472374661E+02  0.50528856454E+02  0.29999989676E+02 0.  0.
         12    1    1    2    0    0  0.29273622294E+02  0.12139980267E+02  0.25472374661E+02  0.40659143546E+02  0.00000000000E+00 0. -1.
         11    1    3    3    0    0 -0.18420471368E+02  0.29357548375E+01 -0.15169562329E+02  0.24042629711E+02  0.51100000000E-03 0. -1.
        -11    1    3    3    0    0  0.30112957433E+01 -0.39613514037E+00 -0.45861059424E+01  0.55006538774E+01  0.51100000000E-03 0.  1.
        -12    1    3    3    0    0 -0.13864446669E+02 -0.14679599965E+02 -0.57167063887E+01  0.20985572865E+02  0.00000000000E+00 0.  1.
</event>
<event>
 7    1  0.3383281E-011  0.5052885E+02  0.7816164E-02  0.1300439E+00
        -11   -1    0    0    0    0  0.00000000000E+00  0.00000000000E+00  0.45593999997E+02  0.45594000000E+02  0.51100000000E-03 0.  1.
         11   -1    0    0    0    0 -0.00000000000E+00 -0.00000000000E+00 -0.45593999997E+02  0.45594000000E+02  0.51100000000E-03 0. -1.
    9900012    2    1    2    0    0 -0.13630973589E+02  0.37569027885E+02 -0.74787343874E+01  0.50528846477E+02  0.29999959350E+02 0.  0.
         12    1    1    2    0    0  0.13630973589E+02 -0.37569027885E+02  0.74787343874E+01  0.40659153523E+02  0.00000000000E+00 0. -1.
         11    1    3    3    0    0 -0.21752908945E+01  0.12064555987E+02 -0.10122172122E+02  0.15897917171E+02  0.51100000000E-03 0. -1.
        -11    1    3    3    0    0 -0.16087265876E+02  0.12644093726E+02 -0.99602189303E+00  0.20485733802E+02  0.51100000000E-03 0.  1.
         12    1    3    3    0    0  0.46315831815E+01  0.12860378171E+02  0.36394596273E+01  0.14145195504E+02  0.00000000000E+00 0. -1.
</event>
<event>
 7    1  0.3383281E-011  0.5052878E+02  0.7816164E-02  0.1300439E+00
        -11   -1    0    0    0    0  0.00000000000E+00  0.00000000000E+00  0.45593999997E+02  0.45594000000E+02  0.51100000000E-03 0.  1.
         11   -1    0    0    0    0 -0.00000000000E+00 -0.00000000000E+00 -0.45593999997E+02  0.45594000000E+02  0.51100000000E-03 0. -1.
    9900012    2    1    2    0    0 -0.65718962986E+01  0.19945558823E+02  0.34816048074E+02  0.50528777907E+02  0.29999750924E+02 0.  0.
         12    1    1    2    0    0  0.65718962986E+01 -0.19945558823E+02 -0.34816048074E+02  0.40659222093E+02  0.00000000000E+00 0. -1.
         11    1    3    3    0    0  0.76160695551E+01  0.39456118488E+01  0.48801241799E+01  0.98685348762E+01  0.51100000000E-03 0. -1.
        -11    1    3    3    0    0 -0.94563467448E+01 -0.32262127838E+00  0.56554989198E+01  0.11023213984E+02  0.51100000000E-03 0.  1.
        -12    1    3    3    0    0 -0.47316191088E+01  0.16322568253E+02  0.24280424974E+02  0.29637029046E+02  0.00000000000E+00 0.  1.
</event>
<event>
 7    1  0.3383281E-011  0.5052886E+02  0.7816164E-02  0.1300439E+00
        -11   -1    0    0    0    0  0.00000000000E+00  0.00000000000E+00  0.45593999997E+02  0.45594000000E+02  0.51100000000E-03 0.  1.
         11   -1    0    0    0    0 -0.00000000000E+00 -0.00000000000E+00 -0.45593999997E+02  0.45594000000E+02  0.51100000000E-03 0. -1.
    9900012    2    1    2    0    0  0.25583484739E+02 -0.29998667576E+02  0.99363387878E+01  0.50528861098E+02  0.30000003793E+02 0.  0.
         12    1    1    2    0    0 -0.25583484739E+02  0.29998667576E+02 -0.99363387878E+01  0.40659138902E+02  0.00000000000E+00 0. -1.
         11    1    3    3    0    0  0.11582627900E+02 -0.16595507164E+01 -0.29279418536E+01  0.12061684021E+02  0.51100000000E-03 0. -1.
        -11    1    3    3    0    0  0.10535230916E+01 -0.57492569957E+01 -0.43220072134E+01  0.72693612869E+01  0.51100000000E-03 0.  1.
         12    1    3    3    0    0  0.12947333747E+02 -0.22589859864E+02  0.17186287855E+02  0.31197815790E+02  0.00000000000E+00 0. -1.
</event>
<event>
 7    1  0.3383281E-011  0.5052886E+02  0.7816164E-02  0.1300439E+00
        -11   -1    0    0    0    0  0.00000000000E+00  0.00000000000E+00  0.45593999997E+02  0.45594000000E+02  0.51100000000E-03 0.  1.
         11   -1    0    0    0    0 -0.00000000000E+00 -0.00000000000E+00 -0.45593999997E+02  0.45594000000E+02  0.51100000000E-03 0. -1.
    9900012    2    1    2    0    0  0.38984918235E+02 -0.68096657427E+01 -0.93257890985E+01  0.50528859089E+02  0.29999997686E+02 0.  0.
         12    1    1    2    0    0 -0.38984918235E+02  0.68096657427E+01  0.93257890985E+01  0.40659140911E+02  0.00000000000E+00 0. -1.
         11    1    3    3    0    0  0.23012837602E+02 -0.13478699482E+02 -0.42462533924E+01  0.27005493929E+02  0.51100000000E-03 0. -1.
        -11    1    3    3    0    0  0.14617694440E+02 -0.71802817254E+00 -0.33328587555E+00  0.14639113188E+02  0.51100000000E-03 0.  1.
         12    1    3    3    0    0  0.13543861934E+01  0.73870619116E+01 -0.47462498306E+01  0.88842519719E+01  0.00000000000E+00 0. -1.
</event>
<event>
 7    1  0.3383281E-011  0.5052886E+02  0.7816164E-02  0.1300439E+00
        -11   -1    0    0    0    0  0.00000000000E+00  0.00000000000E+00  0.45593999997E+02  0.45594000000E+02  0.51100000000E-03 0. -1.
         11   -1    0    0    0    0 -0.00000000000E+00 -0.00000000000E+00 -0.45593999997E+02  0.45594000000E+02  0.51100000000E-03 0.  1.
    9900012    2    1    2    0    0 -0.27262312669E+01  0.20314142907E+02 -0.35115076345E+02  0.50528864179E+02  0.30000013159E+02 0.  0.
         12    1    1    2    0    0  0.27262312669E+01 -0.20314142907E+02  0.35115076345E+02  0.40659135821E+02  0.00000000000E+00 0. -1.
         11    1    3    3    0    0  0.12077294961E+02  0.61066522368E+01 -0.79277486281E+01  0.15684433483E+02  0.51100000000E-03 0. -1.
        -11    1    3    3    0    0 -0.27871155998E+01 -0.27661984664E+00 -0.21938904425E+01  0.35577643880E+01  0.51100000000E-03 0.  1.
        -12    1    3    3    0    0 -0.12016410629E+02  0.14484110517E+02 -0.24993437275E+02  0.31286666308E+02  0.00000000000E+00 0.  1.
</event>
<event>
 7    1  0.3383281E-011  0.5052885E+02  0.7816164E-02  0.1300439E+00
        -11   -1    0    0    0    0  0.00000000000E+00  0.00000000000E+00  0.45593999997E+02  0.45594000000E+02  0.51100000000E-03 0.  1.
         11   -1    0    0    0    0 -0.00000000000E+00 -0.00000000000E+00 -0.45593999997E+02  0.45594000000E+02  0.51100000000E-03 0. -1.
    9900012    2    1    2    0    0 -0.11161647850E+02  0.38850611868E+02  0.43833521922E+01  0.50528853407E+02  0.29999980417E+02 0.  0.
         12    1    1    2    0    0  0.11161647850E+02 -0.38850611868E+02 -0.43833521922E+01  0.40659146593E+02  0.00000000000E+00 0. -1.
         11    1    3    3    0    0  0.50151800766E+01  0.19564622508E+02  0.29884129689E+01  0.20417078572E+02  0.51100000000E-03 0. -1.
        -11    1    3    3    0    0  0.22666719376E+01  0.47447157376E+01 -0.32344388942E+01  0.61734693913E+01  0.51100000000E-03 0.  1.
         12    1    3    3    0    0 -0.18443499864E+02  0.14541273622E+02  0.46293781175E+01  0.23938305444E+02  0.00000000000E+00 0. -1.
</event>
<event>
 7    1  0.3383281E-011  0.5052886E+02  0.7816164E-02  0.1300439E+00
        -11   -1    0    0    0    0  0.00000000000E+00  0.00000000000E+00  0.45593999997E+02  0.45594000000E+02  0.51100000000E-03 0. -1.
         11   -1    0    0    0    0 -0.00000000000E+00 -0.00000000000E+00 -0.45593999997E+02  0.45594000000E+02  0.51100000000E-03 0.  1.
    9900012    2    1    2    0    0 -0.29034680372E+02 -0.25355548902E+02  0.12932478396E+02  0.50528861766E+02  0.30000005824E+02 0.  0.
         12    1    1    2    0    0  0.29034680372E+02  0.25355548902E+02 -0.12932478396E+02  0.40659138234E+02  0.00000000000E+00 0. -1.
         11    1    3    3    0    0 -0.11088036750E+02 -0.58662042380E+01  0.27026453755E+01  0.12832038163E+02  0.51100000000E-03 0. -1.
        -11    1    3    3    0    0 -0.19795951568E+02 -0.52558140085E+01  0.74973182160E+00  0.20495496516E+02  0.51100000000E-03 0.  1.
         12    1    3    3    0    0  0.18493079454E+01 -0.14233530656E+02  0.94801011990E+01  0.17201327087E+02  0.00000000000E+00 0. -1.
</event>
<event>
 7    1  0.3383281E-011  0.5052886E+02  0.7816164E-02  0.1300439E+00
        -11   -1    0    0    0    0  0.00000000000E+00  0.00000000000E+00  0.45593999997E+02  0.45594000000E+02  0.51100000000E-03 0. -1.
         11   -1    0    0    0    0 -0.00000000000E+00 -0.00000000000E+00 -0.45593999997E+02  0.45594000000E+02  0.51100000000E-03 0.  1.
    9900012    2    1    2    0    0  0.35820249606E+02 -0.11035492338E+02 -0.15757332102E+02  0.50528857265E+02  0.29999992142E+02 0.  0.
         12    1    1    2    0    0 -0.35820249606E+02  0.11035492338E+02  0.15757332102E+02  0.40659142735E+02  0.00000000000E+00 0. -1.
         11    1    3    3    0    0  0.16872805758E+02 -0.71589420892E+01 -0.16080686241E+02  0.24382996047E+02  0.51100000000E-03 0. -1.
        -11    1    3    3    0    0  0.62963940539E+01 -0.89635475628E+01 -0.42709770527E+01  0.11757168377E+02  0.51100000000E-03 0.  1.
         12    1    3    3    0    0  0.12651049795E+02  0.50869973143E+01  0.45943311919E+01  0.14388692841E+02  0.00000000000E+00 0. -1.
</event>
<event>
 7    1  0.3383281E-011  0.5052886E+02  0.7816164E-02  0.1300439E+00
        -11   -1    0    0    0    0  0.00000000000E+00  0.00000000000E+00  0.45593999997E+02  0.45594000000E+02  0.51100000000E-03 0. -1.
         11   -1    0    0    0    0 -0.00000000000E+00 -0.00000000000E+00 -0.45593999997E+02  0.45594000000E+02  0.51100000000E-03 0.  1.
    9900012    2    1    2    0    0  0.13279317010E+02 -0.31523224259E+02 -0.21979800056E+02  0.50528861563E+02  0.30000005206E+02 0.  0.
         12    1    1    2    0    0 -0.13279317010E+02  0.31523224259E+02  0.21979800056E+02  0.40659138437E+02  0.00000000000E+00 0. -1.
         11    1    3    3    0    0 -0.72833563667E+00  0.58982381964E+00  0.51448245443E+01  0.52294918291E+01  0.51100000000E-03 0. -1.
        -11    1    3    3    0    0  0.83878158637E+00 -0.47471190102E+01 -0.38577956396E+00  0.48360644723E+01  0.51100000000E-03 0.  1.
        -12    1    3    3    0    0  0.13168871060E+02 -0.27365929069E+02 -0.26738845036E+02  0.40463305261E+02  0.00000000000E+00 0.  1.
</event>
<event>
 7    1  0.3383281E-011  0.5052887E+02  0.7816164E-02  0.1300439E+00
        -11   -1    0    0    0    0  0.00000000000E+00  0.00000000000E+00  0.45593999997E+02  0.45594000000E+02  0.51100000000E-03 0. -1.
         11   -1    0    0    0    0 -0.00000000000E+00 -0.00000000000E+00 -0.45593999997E+02  0.45594000000E+02  0.51100000000E-03 0.  1.
    9900012    2    1    2    0    0 -0.38393921232E+02  0.81259620085E+01 -0.10632050104E+02  0.50528868977E+02  0.30000027743E+02 0.  0.
         12    1    1    2    0    0  0.38393921232E+02 -0.81259620085E+01  0.10632050104E+02  0.40659131023E+02  0.00000000000E+00 0. -1.
         11    1    3    3    0    0 -0.12664617289E+02  0.80897585839E+01 -0.27353439531E+01  0.15274777636E+02  0.51100000000E-03 0. -1.
        -11    1    3    3    0    0 -0.10146953452E+02  0.10903442452E+02 -0.60979567650E+00  0.14906963899E+02  0.51100000000E-03 0.  1.
        -12    1    3    3    0    0 -0.15582350491E+02 -0.10867239027E+02 -0.72869104746E+01  0.20347127443E+02  0.00000000000E+00 0.  1.
</event>
<event>
 7    1  0.3383281E-011  0.5052886E+02  0.7816164E-02  0.1300439E+00
        -11   -1    0    0    0    0  0.00000000000E+00  0.00000000000E+00  0.45593999997E+02  0.45594000000E+02  0.51100000000E-03 0.  1.
         11   -1    0    0    0    0 -0.00000000000E+00 -0.00000000000E+00 -0.45593999997E+02  0.45594000000E+02  0.51100000000E-03 0. -1.
    9900012    2    1    2    0    0 -0.38793190536E+02  0.73451619800E+01  0.97109423071E+01  0.50528862811E+02  0.30000009001E+02 0.  0.
         12    1    1    2    0    0  0.38793190536E+02 -0.73451619800E+01 -0.97109423071E+01  0.40659137189E+02  0.00000000000E+00 0. -1.
         11    1    3    3    0    0 -0.17923840767E+02  0.10082832741E+00  0.91949559386E+01  0.20145010528E+02  0.51100000000E-03 0. -1.
        -11    1    3    3    0    0 -0.18531351173E+02  0.53998681514E+01  0.90695922803E+01  0.21326674770E+02  0.51100000000E-03 0.  1.
        -12    1    3    3    0    0 -0.23379985959E+01  0.18444655011E+01 -0.85536059118E+01  0.90571775137E+01  0.00000000000E+00 0.  1.
</event>
<event>
 7    1  0.3383281E-011  0.5052886E+02  0.7816164E-02  0.1300439E+00
        -11   -1    0    0    0    0  0.00000000000E+00  0.00000000000E+00  0.45593999997E+02  0.45594000000E+02  0.51100000000E-03 0.  1.
         11   -1    0    0    0    0 -0.00000000000E+00 -0.00000000000E+00 -0.45593999997E+02  0.45594000000E+02  0.51100000000E-03 0. -1.
    9900012    2    1    2    0    0  0.35241909238E+02 -0.70942993504E+01  0.18995902592E+02  0.50528861233E+02  0.30000004204E+02 0.  0.
         12    1    1    2    0    0 -0.35241909238E+02  0.70942993504E+01 -0.18995902592E+02  0.40659138767E+02  0.00000000000E+00 0. -1.
         11    1    3    3    0    0  0.42005722658E+01 -0.26633750631E+00 -0.34777259303E+01  0.54598828683E+01  0.51100000000E-03 0. -1.
        -11    1    3    3    0    0  0.18991436028E+02  0.56146587858E+01  0.49151352711E+01  0.20404842334E+02  0.51100000000E-03 0.  1.
         12    1    3    3    0    0  0.12049900944E+02 -0.12442620630E+02  0.17558493251E+02  0.24664136031E+02  0.00000000000E+00 0. -1.
</event>
<event>
 7    1  0.3383281E-011  0.5052886E+02  0.7816164E-02  0.1300439E+00
        -11   -1    0    0    0    0  0.00000000000E+00  0.00000000000E+00  0.45593999997E+02  0.45594000000E+02  0.51100000000E-03 0. -1.
         11   -1    0    0    0    0 -0.00000000000E+00 -0.00000000000E+00 -0.45593999997E+02  0.45594000000E+02  0.51100000000E-03 0.  1.
    9900012    2    1    2    0    0 -0.26130098605E+02 -0.21369174809E+02  0.22665879612E+02  0.50528858547E+02  0.29999996040E+02 0.  0.
         12    1    1    2    0    0  0.26130098605E+02  0.21369174809E+02 -0.22665879612E+02  0.40659141453E+02  0.00000000000E+00 0. -1.
         11    1    3    3    0    0  0.22953627145E+01 -0.68669698517E+01 -0.88686012089E+00  0.72945518074E+01  0.51100000000E-03 0. -1.
        -11    1    3    3    0    0 -0.11676896320E+02 -0.15287066314E+02  0.15112308380E+02  0.24462750642E+02  0.51100000000E-03 0.  1.
        -12    1    3    3    0    0 -0.16748564999E+02  0.78486135747E+00  0.84404313536E+01  0.18771556097E+02  0.00000000000E+00 0.  1.
</event>
<event>
 7    1  0.3383281E-011  0.5052886E+02  0.7816164E-02  0.1300439E+00
        -11   -1    0    0    0    0  0.00000000000E+00  0.00000000000E+00  0.45593999997E+02  0.45594000000E+02  0.51100000000E-03 0. -1.
         11   -1    0    0    0    0 -0.00000000000E+00 -0.00000000000E+00 -0.45593999997E+02  0.45594000000E+02  0.51100000000E-03 0.  1.
    9900012    2    1    2    0    0 -0.84805312204E+01 -0.32286113763E+02 -0.23213206129E+02  0.50528862153E+02  0.30000007001E+02 0.  0.
         12    1    1    2    0    0  0.84805312204E+01  0.32286113763E+02  0.23213206129E+02  0.40659137847E+02  0.00000000000E+00 0. -1.
         11    1    3    3    0    0 -0.31847447336E+01 -0.82256307353E+00 -0.25736388015E+01  0.41764609384E+01  0.51100000000E-03 0. -1.
        -11    1    3    3    0    0  0.13273093280E+01 -0.30083372067E+00  0.51730538063E+01  0.53490874851E+01  0.51100000000E-03 0.  1.
        -12    1    3    3    0    0 -0.66230958148E+01 -0.31162716968E+02 -0.25812621134E+02  0.41003313730E+02  0.00000000000E+00 0.  1.
</event>
<event>
 7    1  0.3383281E-011  0.5052888E+02  0.7816164E-02  0.1300439E+00
        -11   -1    0    0    0    0  0.00000000000E+00  0.00000000000E+00  0.45593999997E+02  0.45594000000E+02  0.51100000000E-03 0.  1.
         11   -1    0    0    0    0 -0.00000000000E+00 -0.00000000000E+00 -0.45593999997E+02  0.45594000000E+02  0.51100000000E-03 0. -1.
    9900012    2    1    2    0    0  0.12470471235E+02  0.14861409323E+02  0.35732200685E+02  0.50528876723E+02  0.30000051286E+02 0.  0.
         12    1    1    2    0    0 -0.12470471235E+02 -0.14861409323E+02 -0.35732200685E+02  0.40659123277E+02  0.00000000000E+00 0. -1.
         11    1    3    3    0    0  0.54298414802E+01  0.48946809414E+01 -0.86514033144E+00  0.73613550432E+01  0.51100000000E-03 0. -1.
        -11    1    3    3    0    0  0.96845985280E+00  0.14399192156E+01 -0.23028656395E+01  0.28834826597E+01  0.51100000000E-03 0.  1.
        -12    1    3    3    0    0  0.60721699016E+01  0.85268091659E+01  0.38900206656E+02  0.40284039020E+02  0.00000000000E+00 0.  1.
</event>
<event>
 7    1  0.3383281E-011  0.5052886E+02  0.7816164E-02  0.1300439E+00
        -11   -1    0    0    0    0  0.00000000000E+00  0.00000000000E+00  0.45593999997E+02  0.45594000000E+02  0.51100000000E-03 0. -1.
         11   -1    0    0    0    0 -0.00000000000E+00 -0.00000000000E+00 -0.45593999997E+02  0.45594000000E+02  0.51100000000E-03 0.  1.
    9900012    2    1    2    0    0  0.15580898878E+02 -0.69479777477E+01 -0.36907004246E+02  0.50528858752E+02  0.29999996662E+02 0.  0.
         12    1    1    2    0    0 -0.15580898878E+02  0.69479777477E+01  0.36907004246E+02  0.40659141248E+02  0.00000000000E+00 0. -1.
         11    1    3    3    0    0  0.36797246450E+00 -0.82471164440E+01 -0.15493584899E+02  0.17555668790E+02  0.51100000000E-03 0. -1.
        -11    1    3    3    0    0  0.12937863916E+02  0.72016814649E+01 -0.54093874136E+01  0.15764327169E+02  0.51100000000E-03 0.  1.
         12    1    3    3    0    0  0.22750624971E+01 -0.59025427685E+01 -0.16004031934E+02  0.17208862793E+02  0.00000000000E+00 0. -1.
</event>
<event>
 7    1  0.3383281E-011  0.5052886E+02  0.7816164E-02  0.1300439E+00
        -11   -1    0    0    0    0  0.00000000000E+00  0.00000000000E+00  0.45593999997E+02  0.45594000000E+02  0.51100000000E-03 0.  1.
         11   -1    0    0    0    0 -0.00000000000E+00 -0.00000000000E+00 -0.45593999997E+02  0.45594000000E+02  0.51100000000E-03 0. -1.
    9900012    2    1    2    0    0  0.22632612384E+02  0.11668222484E+02  0.31698317696E+02  0.50528857067E+02  0.29999991541E+02 0.  0.
         12    1    1    2    0    0 -0.22632612384E+02 -0.11668222484E+02 -0.31698317696E+02  0.40659142933E+02  0.00000000000E+00 0. -1.
         11    1    3    3    0    0  0.11117658477E+02  0.16653612803E+02  0.13284141565E+02  0.24029431262E+02  0.51100000000E-03 0. -1.
        -11    1    3    3    0    0  0.31738473315E+01  0.39962731674E+01  0.11121884697E+02  0.12236822528E+02  0.51100000000E-03 0.  1.
         12    1    3    3    0    0  0.83411065759E+01 -0.89816634858E+01  0.72922914341E+01  0.14262603277E+02  0.00000000000E+00 0. -1.
</event>
<event>
 7    1  0.3383281E-011  0.5052885E+02  0.7816164E-02  0.1300439E+00
        -11   -1    0    0    0    0  0.00000000000E+00  0.00000000000E+00  0.45593999997E+02  0.45594000000E+02  0.51100000000E-03 0.  1.
         11   -1    0    0    0    0 -0.00000000000E+00 -0.00000000000E+00 -0.45593999997E+02  0.45594000000E+02  0.51100000000E-03 0. -1.
    9900012    2    1    2    0    0  0.33716512083E+02  0.15515005830E+02  0.16602635830E+02  0.50528854541E+02  0.29999983862E+02 0.  0.
         12    1    1    2    0    0 -0.33716512083E+02 -0.15515005830E+02 -0.16602635830E+02  0.40659145459E+02  0.00000000000E+00 0. -1.
         11    1    3    3    0    0  0.90041759652E+00  0.11154291843E+02  0.54230270716E+00  0.11203707906E+02  0.51100000000E-03 0. -1.
        -11    1    3    3    0    0  0.89577417091E+01  0.44144363598E+01  0.11146950096E+02  0.14966057651E+02  0.51100000000E-03 0.  1.
         12    1    3    3    0    0  0.23858352778E+02 -0.53722371845E-01  0.49133830270E+01  0.24359088984E+02  0.00000000000E+00 0. -1.
</event>
<event>
 7    1  0.3383281E-011  0.5052882E+02  0.7816164E-02  0.1300439E+00
        -11   -1    0    0    0    0  0.00000000000E+00  0.00000000000E+00  0.45593999997E+02  0.45594000000E+02  0.51100000000E-03 0.  1.
         11   -1    0    0    0    0 -0.00000000000E+00 -0.00000000000E+00 -0.45593999997E+02  0.45594000000E+02  0.51100000000E-03 0. -1.
    9900012    2    1    2    0    0 -0.16892702505E+02 -0.17625165137E+02  0.32513983317E+02  0.50528819546E+02  0.29999877493E+02 0.  0.
         12    1    1    2    0    0  0.16892702505E+02  0.17625165137E+02 -0.32513983317E+02  0.40659180454E+02  0.00000000000E+00 0. -1.
         11    1    3    3    0    0 -0.19988962888E+00 -0.10380585168E+02  0.22956401599E+02  0.25195096327E+02  0.51100000000E-03 0. -1.
        -11    1    3    3    0    0 -0.33147309406E+01 -0.92508783803E+01  0.28341893273E+01  0.10227356522E+02  0.51100000000E-03 0.  1.
         12    1    3    3    0    0 -0.13378081935E+02  0.20062984107E+01  0.67233923907E+01  0.15106366698E+02  0.00000000000E+00 0. -1.
</event>
<event>
 7    1  0.3383281E-011  0.5052886E+02  0.7816164E-02  0.1300439E+00
        -11   -1    0    0    0    0  0.00000000000E+00  0.00000000000E+00  0.45593999997E+02  0.45594000000E+02  0.51100000000E-03 0.  1.
         11   -1    0    0    0    0 -0.00000000000E+00 -0.00000000000E+00 -0.45593999997E+02  0.45594000000E+02  0.51100000000E-03 0. -1.
    9900012    2    1    2    0    0 -0.14389095430E+01  0.33199619296E+02  0.23428206195E+02  0.50528855547E+02  0.29999986922E+02 0.  0.
         12    1    1    2    0    0  0.14389095430E+01 -0.33199619296E+02 -0.23428206195E+02  0.40659144453E+02  0.00000000000E+00 0. -1.
         11    1    3    3    0    0  0.11080092777E-01 -0.98118424133E+00 -0.23389957399E+01  0.25364831197E+01  0.51100000000E-03 0. -1.
        -11    1    3    3    0    0 -0.69191023964E+01  0.11189496493E+02  0.17453039857E+00  0.13157099637E+02  0.51100000000E-03 0.  1.
        -12    1    3    3    0    0  0.54691127606E+01  0.22991307045E+02  0.25592671537E+02  0.34835272791E+02  0.00000000000E+00 0.  1.
</event>
<event>
 7    1  0.3383281E-011  0.5052886E+02  0.7816164E-02  0.1300439E+00
        -11   -1    0    0    0    0  0.00000000000E+00  0.00000000000E+00  0.45593999997E+02  0.45594000000E+02  0.51100000000E-03 0.  1.
         11   -1    0    0    0    0 -0.00000000000E+00 -0.00000000000E+00 -0.45593999997E+02  0.45594000000E+02  0.51100000000E-03 0. -1.
    9900012    2    1    2    0    0  0.19776672350E+02  0.22036081497E+02  0.27865027495E+02  0.50528863089E+02  0.30000009847E+02 0.  0.
         12    1    1    2    0    0 -0.19776672350E+02 -0.22036081497E+02 -0.27865027495E+02  0.40659136911E+02  0.00000000000E+00 0. -1.
         11    1    3    3    0    0 -0.41041619092E+01  0.67857312135E+01  0.22164823825E+01  0.82342630205E+01  0.51100000000E-03 0. -1.
        -11    1    3    3    0    0 -0.21693458000E+01 -0.46277924715E+00  0.51593677938E+01  0.56159863002E+01  0.51100000000E-03 0.  1.
        -12    1    3    3    0    0  0.26050180059E+02  0.15713129531E+02  0.20489177319E+02  0.36678613769E+02  0.00000000000E+00 0.  1.
</event>
<event>
 7    1  0.3383281E-011  0.5052887E+02  0.7816164E-02  0.1300439E+00
        -11   -1    0    0    0    0  0.00000000000E+00  0.00000000000E+00  0.45593999997E+02  0.45594000000E+02  0.51100000000E-03 0.  1.
         11   -1    0    0    0    0 -0.00000000000E+00 -0.00000000000E+00 -0.45593999997E+02  0.45594000000E+02  0.51100000000E-03 0. -1.
    9900012    2    1    2    0    0 -0.18628734658E+02 -0.38729390755E+01  0.35932378467E+02  0.50528865302E+02  0.30000016573E+02 0.  0.
         12    1    1    2    0    0  0.18628734658E+02  0.38729390755E+01 -0.35932378467E+02  0.40659134698E+02  0.00000000000E+00 0. -1.
         11    1    3    3    0    0 -0.71019842160E+01 -0.65453759838E+01  0.52277861111E+01  0.10982252704E+02  0.51100000000E-03 0. -1.
        -11    1    3    3    0    0 -0.88996219517E+01 -0.90582995766E+01  0.13247526300E+02  0.18350831464E+02  0.51100000000E-03 0.  1.
         12    1    3    3    0    0 -0.26271284903E+01  0.11730736485E+02  0.17457066056E+02  0.21195781134E+02  0.00000000000E+00 0. -1.
</event>
<event>
 7    1  0.3383281E-011  0.5052886E+02  0.7816164E-02  0.1300439E+00
        -11   -1    0    0    0    0  0.00000000000E+00  0.00000000000E+00  0.45593999997E+02  0.45594000000E+02  0.51100000000E-03 0.  1.
         11   -1    0    0    0    0 -0.00000000000E+00 -0.00000000000E+00 -0.45593999997E+02  0.45594000000E+02  0.51100000000E-03 0. -1.
    9900012    2    1    2    0    0  0.16858528510E+01  0.16604385137E+02  0.37075840557E+02  0.50528860085E+02  0.30000000714E+02 0.  0.
         12    1    1    2    0    0 -0.16858528510E+01 -0.16604385137E+02 -0.37075840557E+02  0.40659139915E+02  0.00000000000E+00 0. -1.
         11    1    3    3    0    0 -0.13079762595E+01  0.83583056820E+01  0.56139237185E+01  0.10153236703E+02  0.51100000000E-03 0. -1.
        -11    1    3    3    0    0 -0.89838732559E+01  0.83130703995E+01  0.10033769122E+02  0.15826990908E+02  0.51100000000E-03 0.  1.
        -12    1    3    3    0    0  0.11977702366E+02 -0.66990944711E-01  0.21428147717E+02  0.24548632474E+02  0.00000000000E+00 0.  1.
</event>
<event>
 7    1  0.3383281E-011  0.5052887E+02  0.7816164E-02  0.1300439E+00
        -11   -1    0    0    0    0  0.00000000000E+00  0.00000000000E+00  0.45593999997E+02  0.45594000000E+02  0.51100000000E-03 0.  1.
         11   -1    0    0    0    0 -0.00000000000E+00 -0.00000000000E+00 -0.45593999997E+02  0.45594000000E+02  0.51100000000E-03 0. -1.
    9900012    2    1    2    0    0  0.97966928493E+01 -0.33481564945E+02  0.20884789984E+02  0.50528870218E+02  0.30000031515E+02 0.  0.
         12    1    1    2    0    0 -0.97966928493E+01  0.33481564945E+02 -0.20884789984E+02  0.40659129782E+02  0.00000000000E+00 0. -1.
         11    1    3    3    0    0  0.42340762791E+01 -0.28367096808E+01  0.78968753391E+01  0.93986682106E+01  0.51100000000E-03 0. -1.
        -11    1    3    3    0    0  0.55257506927E+01 -0.70935910982E+01  0.15004732585E+02  0.17492711500E+02  0.51100000000E-03 0.  1.
         12    1    3    3    0    0  0.36865877470E-01 -0.23551264166E+02 -0.20168179408E+01  0.23637490508E+02  0.00000000000E+00 0. -1.
</event>
<event>
 7    1  0.3383281E-011  0.5052889E+02  0.7816164E-02  0.1300439E+00
        -11   -1    0    0    0    0  0.00000000000E+00  0.00000000000E+00  0.45593999997E+02  0.45594000000E+02  0.51100000000E-03 0.  1.
         11   -1    0    0    0    0 -0.00000000000E+00 -0.00000000000E+00 -0.45593999997E+02  0.45594000000E+02  0.51100000000E-03 0. -1.
    9900012    2    1    2    0    0 -0.71101899723E+01  0.11513595703E+02  0.38341174466E+02  0.50528888513E+02  0.30000087124E+02 0.  0.
         12    1    1    2    0    0  0.71101899723E+01 -0.11513595703E+02 -0.38341174466E+02  0.40659111487E+02  0.00000000000E+00 0. -1.
         11    1    3    3    0    0  0.26964966349E+01  0.47660984384E+01  0.31004554839E+01  0.62928223314E+01  0.51100000000E-03 0. -1.
        -11    1    3    3    0    0  0.56694251578E+01  0.35564026585E+01  0.13285933255E+01  0.68231621683E+01  0.51100000000E-03 0.  1.
        -12    1    3    3    0    0 -0.15476111765E+02  0.31910946062E+01  0.33912125657E+02  0.37412904013E+02  0.00000000000E+00 0.  1.
</event>
<event>
 7    1  0.3383281E-011  0.5052883E+02  0.7816164E-02  0.1300439E+00
        -11   -1    0    0    0    0  0.00000000000E+00  0.00000000000E+00  0.45593999997E+02  0.45594000000E+02  0.51100000000E-03 0.  1.
         11   -1    0    0    0    0 -0.00000000000E+00 -0.00000000000E+00 -0.45593999997E+02  0.45594000000E+02  0.51100000000E-03 0. -1.
    9900012    2    1    2    0    0 -0.96255885087E+01 -0.36032271567E+02  0.16192334675E+02  0.50528828210E+02  0.29999903827E+02 0.  0.
         12    1    1    2    0    0  0.96255885087E+01  0.36032271567E+02 -0.16192334675E+02  0.40659171790E+02  0.00000000000E+00 0. -1.
         11    1    3    3    0    0 -0.26878960989E+01 -0.11027151591E+02 -0.55872031192E+00  0.11363759338E+02  0.51100000000E-03 0. -1.
        -11    1    3    3    0    0  0.44483032659E+01 -0.10932777730E+02  0.17430311283E+02  0.21050624279E+02  0.51100000000E-03 0.  1.
         12    1    3    3    0    0 -0.11385995676E+02 -0.14072342246E+02 -0.67925629589E+00  0.18114444593E+02  0.00000000000E+00 0. -1.
</event>
<event>
 7    1  0.3383281E-011  0.5052886E+02  0.7816164E-02  0.1300439E+00
        -11   -1    0    0    0    0  0.00000000000E+00  0.00000000000E+00  0.45593999997E+02  0.45594000000E+02  0.51100000000E-03 0.  1.
         11   -1    0    0    0    0 -0.00000000000E+00 -0.00000000000E+00 -0.45593999997E+02  0.45594000000E+02  0.51100000000E-03 0. -1.
    9900012    2    1    2    0    0  0.48137977429E+01  0.11536587379E+02  0.38689790336E+02  0.50528863594E+02  0.30000011380E+02 0.  0.
         12    1    1    2    0    0 -0.48137977429E+01 -0.11536587379E+02 -0.38689790336E+02  0.40659136406E+02  0.00000000000E+00 0. -1.
         11    1    3    3    0    0  0.25943219835E+01 -0.12707320181E+01  0.12754898029E+02  0.13077946720E+02  0.51100000000E-03 0.  1.
        -11    1    3    3    0    0 -0.47680547946E+01  0.16844987775E+02  0.22908159750E+02  0.28831783556E+02  0.51100000000E-03 0. -1.
         12    1    3    3    0    0  0.69875305540E+01 -0.40376683779E+01  0.30267325568E+01  0.86191333174E+01  0.00000000000E+00 0. -1.
</event>
<event>
 7    1  0.3383281E-011  0.5052887E+02  0.7816164E-02  0.1300439E+00
        -11   -1    0    0    0    0  0.00000000000E+00  0.00000000000E+00  0.45593999997E+02  0.45594000000E+02  0.51100000000E-03 0.  1.
         11   -1    0    0    0    0 -0.00000000000E+00 -0.00000000000E+00 -0.45593999997E+02  0.45594000000E+02  0.51100000000E-03 0. -1.
    9900012    2    1    2    0    0  0.34331141998E+02  0.17693502092E+02 -0.12707374866E+02  0.50528871835E+02  0.30000036430E+02 0.  0.
         12    1    1    2    0    0 -0.34331141998E+02 -0.17693502092E+02  0.12707374866E+02  0.40659128165E+02  0.00000000000E+00 0. -1.
         11    1    3    3    0    0  0.13863392771E+02 -0.13449112604E+01  0.10010054636E+00  0.13928835767E+02  0.51100000000E-03 0. -1.
        -11    1    3    3    0    0  0.10706110072E+02  0.11262396926E+02  0.36340434451E+01  0.15958341061E+02  0.51100000000E-03 0.  1.
         12    1    3    3    0    0  0.97616391542E+01  0.77760164262E+01 -0.16441518857E+02  0.20641695007E+02  0.00000000000E+00 0. -1.
</event>
<event>
 7    1  0.3383281E-011  0.5052886E+02  0.7816164E-02  0.1300439E+00
        -11   -1    0    0    0    0  0.00000000000E+00  0.00000000000E+00  0.45593999997E+02  0.45594000000E+02  0.51100000000E-03 0.  1.
         11   -1    0    0    0    0 -0.00000000000E+00 -0.00000000000E+00 -0.45593999997E+02  0.45594000000E+02  0.51100000000E-03 0. -1.
    9900012    2    1    2    0    0  0.10999994857E+02  0.11540469116E+02  0.37402982753E+02  0.50528862858E+02  0.30000009145E+02 0.  0.
         12    1    1    2    0    0 -0.10999994857E+02 -0.11540469116E+02 -0.37402982753E+02  0.40659137142E+02  0.00000000000E+00 0. -1.
         11    1    3    3    0    0  0.24539907262E+01  0.59613012166E+01  0.18001234431E+01  0.66932523747E+01  0.51100000000E-03 0. -1.
        -11    1    3    3    0    0 -0.12537892045E+01  0.12945092369E+02  0.14923001945E+02  0.19795034506E+02  0.51100000000E-03 0.  1.
        -12    1    3    3    0    0  0.97997933353E+01 -0.73659244687E+01  0.20679857365E+02  0.24040575978E+02  0.00000000000E+00 0.  1.
</event>
<event>
 7    1  0.3383281E-011  0.5052886E+02  0.7816164E-02  0.1300439E+00
        -11   -1    0    0    0    0  0.00000000000E+00  0.00000000000E+00  0.45593999997E+02  0.45594000000E+02  0.51100000000E-03 0. -1.
         11   -1    0    0    0    0 -0.00000000000E+00 -0.00000000000E+00 -0.45593999997E+02  0.45594000000E+02  0.51100000000E-03 0.  1.
    9900012    2    1    2    0    0  0.12548354709E+02  0.21507759352E+02 -0.32142199943E+02  0.50528856681E+02  0.29999990368E+02 0.  0.
         12    1    1    2    0    0 -0.12548354709E+02 -0.21507759352E+02  0.32142199943E+02  0.40659143319E+02  0.00000000000E+00 0. -1.
         11    1    3    3    0    0  0.83132184442E+01  0.27965094499E+01  0.15632705833E+01  0.89092020508E+01  0.51100000000E-03 0. -1.
        -11    1    3    3    0    0 -0.67571089173E+00 -0.18258209928E+01 -0.12374384018E+00  0.19507742837E+01  0.51100000000E-03 0.  1.
        -12    1    3    3    0    0  0.49108471570E+01  0.20537070895E+02 -0.33581726686E+02  0.39668880347E+02  0.00000000000E+00 0.  1.
</event>
<event>
 7    1  0.3383281E-011  0.5052884E+02  0.7816164E-02  0.1300439E+00
        -11   -1    0    0    0    0  0.00000000000E+00  0.00000000000E+00  0.45593999997E+02  0.45594000000E+02  0.51100000000E-03 0. -1.
         11   -1    0    0    0    0 -0.00000000000E+00 -0.00000000000E+00 -0.45593999997E+02  0.45594000000E+02  0.51100000000E-03 0.  1.
    9900012    2    1    2    0    0 -0.11522434576E+02 -0.37560804585E+02 -0.10468357001E+02  0.50528843123E+02  0.29999949156E+02 0.  0.
         12    1    1    2    0    0  0.11522434576E+02  0.37560804585E+02  0.10468357001E+02  0.40659156877E+02  0.00000000000E+00 0. -1.
         11    1    3    3    0    0  0.10972452688E+01  0.11419100401E+01 -0.49188915530E+01  0.51675332695E+01  0.51100000000E-03 0. -1.
        -11    1    3    3    0    0 -0.15134900140E+02 -0.27689504668E+02  0.22463180632E+01  0.31635736377E+02  0.51100000000E-03 0.  1.
         12    1    3    3    0    0  0.25152202954E+01 -0.11013209958E+02 -0.77957835109E+01  0.13725573476E+02  0.00000000000E+00 0. -1.
</event>
<event>
 7    1  0.3383281E-011  0.5052886E+02  0.7816164E-02  0.1300439E+00
        -11   -1    0    0    0    0  0.00000000000E+00  0.00000000000E+00  0.45593999997E+02  0.45594000000E+02  0.51100000000E-03 0. -1.
         11   -1    0    0    0    0 -0.00000000000E+00 -0.00000000000E+00 -0.45593999997E+02  0.45594000000E+02  0.51100000000E-03 0.  1.
    9900012    2    1    2    0    0  0.14559404618E+02 -0.42038709543E+01 -0.37729520188E+02  0.50528862190E+02  0.30000007114E+02 0.  0.
         12    1    1    2    0    0 -0.14559404618E+02  0.42038709543E+01  0.37729520188E+02  0.40659137810E+02  0.00000000000E+00 0. -1.
         11    1    3    3    0    0 -0.72420510927E+00 -0.38034744114E+00 -0.10061815619E+02  0.10095012185E+02  0.51100000000E-03 0. -1.
        -11    1    3    3    0    0  0.42039197902E+00 -0.95136041474E+01 -0.21226272596E+02  0.23264566230E+02  0.51100000000E-03 0.  1.
         12    1    3    3    0    0  0.14863217749E+02  0.56900806343E+01 -0.64414319723E+01  0.17169283774E+02  0.00000000000E+00 0. -1.
</event>
<event>
 7    1  0.3383281E-011  0.5052885E+02  0.7816164E-02  0.1300439E+00
        -11   -1    0    0    0    0  0.00000000000E+00  0.00000000000E+00  0.45593999997E+02  0.45594000000E+02  0.51100000000E-03 0. -1.
         11   -1    0    0    0    0 -0.00000000000E+00 -0.00000000000E+00 -0.45593999997E+02  0.45594000000E+02  0.51100000000E-03 0.  1.
    9900012    2    1    2    0    0  0.11687097618E+02  0.23881920335E+01 -0.38869968312E+02  0.50528854061E+02  0.29999982403E+02 0.  0.
         12    1    1    2    0    0 -0.11687097618E+02 -0.23881920335E+01  0.38869968312E+02  0.40659145939E+02  0.00000000000E+00 0. -1.
         11    1    3    3    0    0  0.30615835160E+01 -0.51820972833E+01 -0.19398351565E+02  0.20310673785E+02  0.51100000000E-03 0. -1.
        -11    1    3    3    0    0  0.16499882114E+01 -0.45246190321E+01 -0.14690820745E+02  0.15460105204E+02  0.51100000000E-03 0.  1.
         12    1    3    3    0    0  0.69755258908E+01  0.12094908349E+02 -0.47807960012E+01  0.14758075072E+02  0.00000000000E+00 0. -1.
</event>
<event>
 7    1  0.3383281E-011  0.5052886E+02  0.7816164E-02  0.1300439E+00
        -11   -1    0    0    0    0  0.00000000000E+00  0.00000000000E+00  0.45593999997E+02  0.45594000000E+02  0.51100000000E-03 0.  1.
         11   -1    0    0    0    0 -0.00000000000E+00 -0.00000000000E+00 -0.45593999997E+02  0.45594000000E+02  0.51100000000E-03 0. -1.
    9900012    2    1    2    0    0  0.18959946117E+02  0.34052440386E+02  0.11580922293E+02  0.50528855713E+02  0.29999987425E+02 0.  0.
         12    1    1    2    0    0 -0.18959946117E+02 -0.34052440386E+02 -0.11580922293E+02  0.40659144287E+02  0.00000000000E+00 0. -1.
         11    1    3    3    0    0  0.52780242523E+01  0.46103921333E+01 -0.27087088324E+01  0.75133454220E+01  0.51100000000E-03 0.  1.
        -11    1    3    3    0    0  0.14119619306E+01  0.15465198273E+02 -0.49076241776E+01  0.16286521097E+02  0.51100000000E-03 0. -1.
        -12    1    3    3    0    0  0.12269959934E+02  0.13976849980E+02  0.19197255303E+02  0.26728989194E+02  0.00000000000E+00 0.  1.
</event>
<event>
 7    1  0.3383281E-011  0.5052883E+02  0.7816164E-02  0.1300439E+00
        -11   -1    0    0    0    0  0.00000000000E+00  0.00000000000E+00  0.45593999997E+02  0.45594000000E+02  0.51100000000E-03 0. -1.
         11   -1    0    0    0    0 -0.00000000000E+00 -0.00000000000E+00 -0.45593999997E+02  0.45594000000E+02  0.51100000000E-03 0.  1.
    9900012    2    1    2    0    0  0.16271466046E+02  0.94697443275E+01 -0.36037911324E+02  0.50528834766E+02  0.29999923755E+02 0.  0.
         12    1    1    2    0    0 -0.16271466046E+02 -0.94697443275E+01  0.36037911324E+02  0.40659165234E+02  0.00000000000E+00 0. -1.
         11    1    3    3    0    0 -0.24336462415E+01 -0.54344647879E+01 -0.14366444486E+02  0.15551551981E+02  0.51100000000E-03 0. -1.
        -11    1    3    3    0    0  0.16359717282E+02  0.62536976054E+01 -0.18485794905E+02  0.25465146707E+02  0.51100000000E-03 0.  1.
        -12    1    3    3    0    0  0.23453950052E+01  0.86505115100E+01 -0.31856719326E+01  0.95121360785E+01  0.00000000000E+00 0.  1.
</event>
<event>
 7    1  0.3807301E-011  0.5052885E+02  0.7816164E-02  0.1300439E+00
        -11   -1    0    0    0    0  0.00000000000E+00  0.00000000000E+00  0.45593999997E+02  0.45594000000E+02  0.51100000000E-03 0. -1.
         11   -1    0    0    0    0 -0.00000000000E+00 -0.00000000000E+00 -0.45593999997E+02  0.45594000000E+02  0.51100000000E-03 0.  1.
    9900012    2    1    2    0    0 -0.13099327557E+02  0.15115217621E+02 -0.35399213360E+02  0.50528849828E+02  0.29999969538E+02 0.  0.
         12    1    1    2    0    0  0.13099327557E+02 -0.15115217621E+02  0.35399213360E+02  0.40659150172E+02  0.00000000000E+00 0. -1.
         11    1    3    3    0    0 -0.73299411652E+01 -0.25539999876E+01 -0.10984745408E+01  0.78394897793E+01  0.51100000000E-03 0. -1.
        -11    1    3    3    0    0  0.43607676972E+00  0.17422937699E+01 -0.20880006431E+02  0.20957109041E+02  0.51100000000E-03 0.  1.
         12    1    3    3    0    0 -0.62054631619E+01  0.15926923839E+02 -0.13420732388E+02  0.21732251008E+02  0.00000000000E+00 0. -1.
</event>
<event>
 7    1  0.3383281E-011  0.5052885E+02  0.7816164E-02  0.1300439E+00
        -11   -1    0    0    0    0  0.00000000000E+00  0.00000000000E+00  0.45593999997E+02  0.45594000000E+02  0.51100000000E-03 0.  1.
         11   -1    0    0    0    0 -0.00000000000E+00 -0.00000000000E+00 -0.45593999997E+02  0.45594000000E+02  0.51100000000E-03 0. -1.
    9900012    2    1    2    0    0  0.37818782372E+02 -0.29119870457E+01  0.14643296812E+02  0.50528854532E+02  0.29999983834E+02 0.  0.
         12    1    1    2    0    0 -0.37818782372E+02  0.29119870457E+01 -0.14643296812E+02  0.40659145468E+02  0.00000000000E+00 0. -1.
         11    1    3    3    0    0  0.23911786485E+02 -0.14174967025E+01 -0.37204645784E+01  0.24240971242E+02  0.51100000000E-03 0. -1.
        -11    1    3    3    0    0  0.57381444103E+01 -0.60906685569E+01  0.43570838317E+01  0.94343375242E+01  0.51100000000E-03 0.  1.
         12    1    3    3    0    0  0.81688514774E+01  0.45961782137E+01  0.14006677559E+02  0.16853545766E+02  0.00000000000E+00 0. -1.
</event>
<event>
 7    1  0.3383281E-011  0.5052886E+02  0.7816164E-02  0.1300439E+00
        -11   -1    0    0    0    0  0.00000000000E+00  0.00000000000E+00  0.45593999997E+02  0.45594000000E+02  0.51100000000E-03 0. -1.
         11   -1    0    0    0    0 -0.00000000000E+00 -0.00000000000E+00 -0.45593999997E+02  0.45594000000E+02  0.51100000000E-03 0.  1.
    9900012    2    1    2    0    0  0.19087853253E+02  0.64077582151E+01 -0.35323652403E+02  0.50528856794E+02  0.29999990711E+02 0.  0.
         12    1    1    2    0    0 -0.19087853253E+02 -0.64077582151E+01  0.35323652403E+02  0.40659143206E+02  0.00000000000E+00 0. -1.
         11    1    3    3    0    0  0.36188140744E+01 -0.89615773720E+00 -0.20109076385E+02  0.20451744848E+02  0.51100000000E-03 0.  1.
        -11    1    3    3    0    0  0.94448706805E+01 -0.58082090347E+01 -0.93395610488E+01  0.14497181630E+02  0.51100000000E-03 0. -1.
         12    1    3    3    0    0  0.60241684980E+01  0.13112124987E+02 -0.58750149693E+01  0.15579930316E+02  0.00000000000E+00 0. -1.
</event>
<event>
 7    1  0.3383281E-011  0.5052886E+02  0.7816164E-02  0.1300439E+00
        -11   -1    0    0    0    0  0.00000000000E+00  0.00000000000E+00  0.45593999997E+02  0.45594000000E+02  0.51100000000E-03 0. -1.
         11   -1    0    0    0    0 -0.00000000000E+00 -0.00000000000E+00 -0.45593999997E+02  0.45594000000E+02  0.51100000000E-03 0.  1.
    9900012    2    1    2    0    0  0.40036562370E+02 -0.65937320530E+01  0.26003384237E+01  0.50528863404E+02  0.30000010803E+02 0.  0.
         12    1    1    2    0    0 -0.40036562370E+02  0.65937320530E+01 -0.26003384237E+01  0.40659136596E+02  0.00000000000E+00 0. -1.
         11    1    3    3    0    0  0.10526504522E+02  0.77640643593E+01 -0.26716349002E+01  0.13350117083E+02  0.51100000000E-03 0.  1.
        -11    1    3    3    0    0  0.85151712413E+01  0.32803645516E+01  0.32386045604E+01  0.96828452750E+01  0.51100000000E-03 0. -1.
         12    1    3    3    0    0  0.20994886607E+02 -0.17638160964E+02  0.20333687635E+01  0.27495901046E+02  0.00000000000E+00 0. -1.
</event>
<event>
 7    1  0.3383281E-011  0.5052886E+02  0.7816164E-02  0.1300439E+00
        -11   -1    0    0    0    0  0.00000000000E+00  0.00000000000E+00  0.45593999997E+02  0.45594000000E+02  0.51100000000E-03 0.  1.
         11   -1    0    0    0    0 -0.00000000000E+00 -0.00000000000E+00 -0.45593999997E+02  0.45594000000E+02  0.51100000000E-03 0. -1.
    9900012    2    1    2    0    0 -0.46220545715E+01 -0.73662077854E+01  0.39718268818E+02  0.50528864698E+02  0.30000014735E+02 0.  0.
         12    1    1    2    0    0  0.46220545715E+01  0.73662077854E+01 -0.39718268818E+02  0.40659135302E+02  0.00000000000E+00 0. -1.
         11    1    3    3    0    0 -0.44109077423E+01 -0.38983725631E+01  0.59128779941E+01  0.83435928824E+01  0.51100000000E-03 0. -1.
        -11    1    3    3    0    0 -0.10188070422E+02 -0.62201309112E+01  0.27715893381E+02  0.30177103136E+02  0.51100000000E-03 0.  1.
         12    1    3    3    0    0  0.99769235926E+01  0.27522956889E+01  0.60894974431E+01  0.12008168680E+02  0.00000000000E+00 0. -1.
</event>
<event>
 7    1  0.3383281E-011  0.5052886E+02  0.7816164E-02  0.1300439E+00
        -11   -1    0    0    0    0  0.00000000000E+00  0.00000000000E+00  0.45593999997E+02  0.45594000000E+02  0.51100000000E-03 0.  1.
         11   -1    0    0    0    0 -0.00000000000E+00 -0.00000000000E+00 -0.45593999997E+02  0.45594000000E+02  0.51100000000E-03 0. -1.
    9900012    2    1    2    0    0 -0.37869913616E+01 -0.13531455348E+01  0.40459773631E+02  0.50528860945E+02  0.30000003329E+02 0.  0.
         12    1    1    2    0    0  0.37869913616E+01  0.13531455348E+01 -0.40459773631E+02  0.40659139055E+02  0.00000000000E+00 0. -1.
         11    1    3    3    0    0  0.71507792131E+01 -0.12513916404E+01  0.18363931766E+01  0.74881215637E+01  0.51100000000E-03 0. -1.
        -11    1    3    3    0    0 -0.80261472024E+00 -0.43519465251E+01  0.20975071594E+01  0.48972610193E+01  0.51100000000E-03 0.  1.
        -12    1    3    3    0    0 -0.10135155854E+02  0.42501926307E+01  0.36525873295E+02  0.38143478362E+02  0.00000000000E+00 0.  1.
</event>
<event>
 7    1  0.3383281E-011  0.5052886E+02  0.7816164E-02  0.1300439E+00
        -11   -1    0    0    0    0  0.00000000000E+00  0.00000000000E+00  0.45593999997E+02  0.45594000000E+02  0.51100000000E-03 0.  1.
         11   -1    0    0    0    0 -0.00000000000E+00 -0.00000000000E+00 -0.45593999997E+02  0.45594000000E+02  0.51100000000E-03 0. -1.
    9900012    2    1    2    0    0  0.21289067801E+02  0.11440376473E+02  0.32696468472E+02  0.50528859918E+02  0.30000000206E+02 0.  0.
         12    1    1    2    0    0 -0.21289067801E+02 -0.11440376473E+02 -0.32696468472E+02  0.40659140082E+02  0.00000000000E+00 0. -1.
         11    1    3    3    0    0  0.15325343301E+02  0.10935476542E+02  0.27347588683E+02  0.33201527097E+02  0.51100000000E-03 0. -1.
        -11    1    3    3    0    0  0.65421600522E+01  0.45304311533E+01  0.88924969575E+01  0.11933196009E+02  0.51100000000E-03 0.  1.
         12    1    3    3    0    0 -0.57843555301E+00 -0.40255312227E+01 -0.35436171684E+01  0.53941368123E+01  0.00000000000E+00 0. -1.
</event>
<event>
 7    1  0.3383281E-011  0.5052886E+02  0.7816164E-02  0.1300439E+00
        -11   -1    0    0    0    0  0.00000000000E+00  0.00000000000E+00  0.45593999997E+02  0.45594000000E+02  0.51100000000E-03 0. -1.
         11   -1    0    0    0    0 -0.00000000000E+00 -0.00000000000E+00 -0.45593999997E+02  0.45594000000E+02  0.51100000000E-03 0.  1.
    9900012    2    1    2    0    0 -0.67672886072E+01  0.52259288266E-01 -0.40091977668E+02  0.50528860812E+02  0.30000002926E+02 0.  0.
         12    1    1    2    0    0  0.67672886072E+01 -0.52259288266E-01  0.40091977668E+02  0.40659139188E+02  0.00000000000E+00 0. -1.
         11    1    3    3    0    0 -0.20367941688E+01  0.99656344662E+00  0.81120351313E+00  0.24082609057E+01  0.51100000000E-03 0. -1.
        -11    1    3    3    0    0  0.39666693564E+00 -0.12396508899E+02 -0.16091836573E+02  0.20316938305E+02  0.51100000000E-03 0.  1.
        -12    1    3    3    0    0 -0.51271613741E+01  0.11452204741E+02 -0.24811344609E+02  0.27803661602E+02  0.00000000000E+00 0.  1.
</event>
<event>
 7    1  0.3383281E-011  0.5052886E+02  0.7816164E-02  0.1300439E+00
        -11   -1    0    0    0    0  0.00000000000E+00  0.00000000000E+00  0.45593999997E+02  0.45594000000E+02  0.51100000000E-03 0. -1.
         11   -1    0    0    0    0 -0.00000000000E+00 -0.00000000000E+00 -0.45593999997E+02  0.45594000000E+02  0.51100000000E-03 0.  1.
    9900012    2    1    2    0    0  0.17757124151E+02 -0.34154226544E+02 -0.13089639020E+02  0.50528864512E+02  0.30000014172E+02 0.  0.
         12    1    1    2    0    0 -0.17757124151E+02  0.34154226544E+02  0.13089639020E+02  0.40659135488E+02  0.00000000000E+00 0. -1.
         11    1    3    3    0    0  0.17756565132E+02 -0.13937223036E+02 -0.87700030690E+01  0.24216827731E+02  0.51100000000E-03 0. -1.
        -11    1    3    3    0    0 -0.18822114859E+01 -0.51253724168E+01 -0.88888491785E+01  0.10431864765E+02  0.51100000000E-03 0.  1.
         12    1    3    3    0    0  0.18827705043E+01 -0.15091631092E+02  0.45692132275E+01  0.15880172017E+02  0.00000000000E+00 0. -1.
</event>
<event>
 7    1  0.3383281E-011  0.5052887E+02  0.7816164E-02  0.1300439E+00
        -11   -1    0    0    0    0  0.00000000000E+00  0.00000000000E+00  0.45593999997E+02  0.45594000000E+02  0.51100000000E-03 0.  1.
         11   -1    0    0    0    0 -0.00000000000E+00 -0.00000000000E+00 -0.45593999997E+02  0.45594000000E+02  0.51100000000E-03 0. -1.
    9900012    2    1    2    0    0  0.44134026673E+01  0.25955245643E+02  0.30984065317E+02  0.50528865687E+02  0.30000017742E+02 0.  0.
         12    1    1    2    0    0 -0.44134026673E+01 -0.25955245643E+02 -0.30984065317E+02  0.40659134313E+02  0.00000000000E+00 0. -1.
         11    1    3    3    0    0  0.18273931573E+01  0.28409269804E+01 -0.57871597796E+00  0.34271189509E+01  0.51100000000E-03 0.  1.
        -11    1    3    3    0    0 -0.21266885815E+01 -0.25938447479E+01 -0.24882033282E+01  0.41763609713E+01  0.51100000000E-03 0. -1.
        -12    1    3    3    0    0  0.47126980915E+01  0.25708163411E+02  0.34050984623E+02  0.42925385765E+02  0.00000000000E+00 0.  1.
</event>
<event>
 7    1  0.3383281E-011  0.5052887E+02  0.7816164E-02  0.1300439E+00
        -11   -1    0    0    0    0  0.00000000000E+00  0.00000000000E+00  0.45593999997E+02  0.45594000000E+02  0.51100000000E-03 0. -1.
         11   -1    0    0    0    0 -0.00000000000E+00 -0.00000000000E+00 -0.45593999997E+02  0.45594000000E+02  0.51100000000E-03 0.  1.
    9900012    2    1    2    0    0 -0.22969866720E+02  0.17286594780E+02 -0.28752808311E+02  0.50528866684E+02  0.30000020773E+02 0.  0.
         12    1    1    2    0    0  0.22969866720E+02 -0.17286594780E+02  0.28752808311E+02  0.40659133316E+02  0.00000000000E+00 0. -1.
         11    1    3    3    0    0 -0.53930295409E+01  0.94507626578E+01 -0.74969236619E+01  0.13213839226E+02  0.51100000000E-03 0. -1.
        -11    1    3    3    0    0 -0.22355868453E+01  0.82013454382E+01 -0.20220373020E+02  0.21934525316E+02  0.51100000000E-03 0.  1.
         12    1    3    3    0    0 -0.15341250334E+02 -0.36551331554E+00 -0.10355116292E+01  0.15380502142E+02  0.00000000000E+00 0. -1.
</event>
<event>
 7    1  0.3383281E-011  0.5052886E+02  0.7816164E-02  0.1300439E+00
        -11   -1    0    0    0    0  0.00000000000E+00  0.00000000000E+00  0.45593999997E+02  0.45594000000E+02  0.51100000000E-03 0. -1.
         11   -1    0    0    0    0 -0.00000000000E+00 -0.00000000000E+00 -0.45593999997E+02  0.45594000000E+02  0.51100000000E-03 0.  1.
    9900012    2    1    2    0    0  0.25134275670E+02 -0.28819778478E+02  0.13815003831E+02  0.50528858644E+02  0.29999996334E+02 0.  0.
         12    1    1    2    0    0 -0.25134275670E+02  0.28819778478E+02 -0.13815003831E+02  0.40659141356E+02  0.00000000000E+00 0. -1.
         11    1    3    3    0    0  0.18302890813E+02 -0.22397595300E+02  0.15654565376E+02  0.32889413262E+02  0.51100000000E-03 0. -1.
        -11    1    3    3    0    0  0.64262442820E+01 -0.96404101773E+01  0.28557350844E+01  0.11932700746E+02  0.51100000000E-03 0.  1.
         12    1    3    3    0    0  0.40514057454E+00  0.32182269991E+01 -0.46952966297E+01  0.57067446363E+01  0.00000000000E+00 0. -1.
</event>
<event>
 7    1  0.3383281E-011  0.5052893E+02  0.7816164E-02  0.1300439E+00
        -11   -1    0    0    0    0  0.00000000000E+00  0.00000000000E+00  0.45593999997E+02  0.45594000000E+02  0.51100000000E-03 0.  1.
         11   -1    0    0    0    0 -0.00000000000E+00 -0.00000000000E+00 -0.45593999997E+02  0.45594000000E+02  0.51100000000E-03 0. -1.
    9900012    2    1    2    0    0 -0.29269226771E+02  0.97169455888E+01 -0.26496284853E+02  0.50528932397E+02  0.30000220512E+02 0.  0.
         12    1    1    2    0    0  0.29269226771E+02 -0.97169455888E+01  0.26496284853E+02  0.40659067603E+02  0.00000000000E+00 0. -1.
         11    1    3    3    0    0 -0.12322959144E+01 -0.37720550634E+01  0.86685348367E+00  0.40618207549E+01  0.51100000000E-03 0. -1.
        -11    1    3    3    0    0 -0.75477744124E+01  0.44153442648E+01 -0.21639173885E+02  0.23339194721E+02  0.51100000000E-03 0.  1.
        -12    1    3    3    0    0 -0.20489156444E+02  0.90736563874E+01 -0.57239644520E+01  0.23127916920E+02  0.00000000000E+00 0.  1.
</event>
<event>
 7    1  0.3383281E-011  0.5052887E+02  0.7816164E-02  0.1300439E+00
        -11   -1    0    0    0    0  0.00000000000E+00  0.00000000000E+00  0.45593999997E+02  0.45594000000E+02  0.51100000000E-03 0.  1.
         11   -1    0    0    0    0 -0.00000000000E+00 -0.00000000000E+00 -0.45593999997E+02  0.45594000000E+02  0.51100000000E-03 0. -1.
    9900012    2    1    2    0    0 -0.21635081599E+02  0.20321662298E+02  0.27787015594E+02  0.50528868800E+02  0.30000027205E+02 0.  0.
         12    1    1    2    0    0  0.21635081599E+02 -0.20321662298E+02 -0.27787015594E+02  0.40659131200E+02  0.00000000000E+00 0. -1.
         11    1    3    3    0    0 -0.46208121186E+01  0.10530918166E+02  0.13343042094E+02  0.17615019575E+02  0.51100000000E-03 0. -1.
        -11    1    3    3    0    0 -0.77653761994E+01  0.13646438509E+02  0.16399997270E+02  0.22704322544E+02  0.51100000000E-03 0.  1.
         12    1    3    3    0    0 -0.92488932811E+01 -0.38556943769E+01 -0.19560237699E+01  0.10209526681E+02  0.00000000000E+00 0. -1.
</event>
<event>
 7    1  0.3383281E-011  0.5052886E+02  0.7816164E-02  0.1300439E+00
        -11   -1    0    0    0    0  0.00000000000E+00  0.00000000000E+00  0.45593999997E+02  0.45594000000E+02  0.51100000000E-03 0. -1.
         11   -1    0    0    0    0 -0.00000000000E+00 -0.00000000000E+00 -0.45593999997E+02  0.45594000000E+02  0.51100000000E-03 0.  1.
    9900012    2    1    2    0    0  0.13447332924E+02  0.37803912099E+02 -0.65725963853E+01  0.50528861347E+02  0.30000004551E+02 0.  0.
         12    1    1    2    0    0 -0.13447332924E+02 -0.37803912099E+02  0.65725963853E+01  0.40659138653E+02  0.00000000000E+00 0. -1.
         11    1    3    3    0    0  0.48539354426E+01  0.68831203297E+01  0.74252508021E+01  0.11228195959E+02  0.51100000000E-03 0. -1.
        -11    1    3    3    0    0  0.13281120196E+01 -0.22827814059E+01 -0.31096037158E+00  0.26592610059E+01  0.51100000000E-03 0.  1.
        -12    1    3    3    0    0  0.72652854614E+01  0.33203573175E+02 -0.13686886816E+02  0.36641404383E+02  0.00000000000E+00 0.  1.
</event>
<event>
 7    1  0.3383281E-011  0.5052886E+02  0.7816164E-02  0.1300439E+00
        -11   -1    0    0    0    0  0.00000000000E+00  0.00000000000E+00  0.45593999997E+02  0.45594000000E+02  0.51100000000E-03 0.  1.
         11   -1    0    0    0    0 -0.00000000000E+00 -0.00000000000E+00 -0.45593999997E+02  0.45594000000E+02  0.51100000000E-03 0. -1.
    9900012    2    1    2    0    0 -0.58948657949E+01 -0.16108391898E+02  0.36863750758E+02  0.50528857704E+02  0.29999993477E+02 0.  0.
         12    1    1    2    0    0  0.58948657949E+01  0.16108391898E+02 -0.36863750758E+02  0.40659142296E+02  0.00000000000E+00 0. -1.
         11    1    3    3    0    0 -0.12853377279E+02 -0.82710125726E-01  0.11810188467E+02  0.17455563593E+02  0.51100000000E-03 0. -1.
        -11    1    3    3    0    0  0.31681405018E+01 -0.16755785128E+01 -0.40232194943E+00  0.36064582077E+01  0.51100000000E-03 0.  1.
        -12    1    3    3    0    0  0.37903709821E+01 -0.14350103259E+02  0.25455884240E+02  0.29466835904E+02  0.00000000000E+00 0.  1.
</event>
<event>
 7    1  0.3409530E-011  0.5052886E+02  0.7816164E-02  0.1300439E+00
        -11   -1    0    0    0    0  0.00000000000E+00  0.00000000000E+00  0.45593999997E+02  0.45594000000E+02  0.51100000000E-03 0.  1.
         11   -1    0    0    0    0 -0.00000000000E+00 -0.00000000000E+00 -0.45593999997E+02  0.45594000000E+02  0.51100000000E-03 0. -1.
    9900012    2    1    2    0    0  0.36057511941E+02 -0.10222954944E+02  0.15764287482E+02  0.50528859146E+02  0.29999997860E+02 0.  0.
         12    1    1    2    0    0 -0.36057511941E+02  0.10222954944E+02 -0.15764287482E+02  0.40659140854E+02  0.00000000000E+00 0. -1.
         11    1    3    3    0    0  0.15586366585E+02  0.69470074384E+00  0.10157361608E+02  0.18616912407E+02  0.51100000000E-03 0. -1.
        -11    1    3    3    0    0  0.22005547650E+02 -0.36654284992E+01  0.86118852408E+01  0.23913261198E+02  0.51100000000E-03 0.  1.
         12    1    3    3    0    0 -0.15344022940E+01 -0.72522271889E+01 -0.30049593669E+01  0.79986855417E+01  0.00000000000E+00 0. -1.
</event>
<event>
 7    1  0.3383281E-011  0.5052886E+02  0.7816164E-02  0.1300439E+00
        -11   -1    0    0    0    0  0.00000000000E+00  0.00000000000E+00  0.45593999997E+02  0.45594000000E+02  0.51100000000E-03 0.  1.
         11   -1    0    0    0    0 -0.00000000000E+00 -0.00000000000E+00 -0.45593999997E+02  0.45594000000E+02  0.51100000000E-03 0. -1.
    9900012    2    1    2    0    0  0.11026572897E+02  0.40281618772E+01  0.38927556660E+02  0.50528855082E+02  0.29999985506E+02 0.  0.
         12    1    1    2    0    0 -0.11026572897E+02 -0.40281618772E+01 -0.38927556660E+02  0.40659144918E+02  0.00000000000E+00 0. -1.
         11    1    3    3    0    0 -0.21313290749E+01 -0.27947681399E+00  0.81045808278E+01  0.83848018206E+01  0.51100000000E-03 0. -1.
        -11    1    3    3    0    0 -0.31538051069E+01 -0.36607641500E+01 -0.15107060064E+01  0.50625995016E+01  0.51100000000E-03 0.  1.
        -12    1    3    3    0    0  0.16311707079E+02  0.79684028412E+01  0.32333681839E+02  0.37081453759E+02  0.00000000000E+00 0.  1.
</event>
<event>
 7    1  0.3383281E-011  0.5052885E+02  0.7816164E-02  0.1300439E+00
        -11   -1    0    0    0    0  0.00000000000E+00  0.00000000000E+00  0.45593999997E+02  0.45594000000E+02  0.51100000000E-03 0.  1.
         11   -1    0    0    0    0 -0.00000000000E+00 -0.00000000000E+00 -0.45593999997E+02  0.45594000000E+02  0.51100000000E-03 0. -1.
    9900012    2    1    2    0    0  0.14970859939E+02  0.34132403538E+02  0.16248661598E+02  0.50528848235E+02  0.29999964694E+02 0.  0.
         12    1    1    2    0    0 -0.14970859939E+02 -0.34132403538E+02 -0.16248661598E+02  0.40659151765E+02  0.00000000000E+00 0. -1.
         11    1    3    3    0    0  0.17464696128E+02  0.26157638892E+02  0.14841967402E+02  0.34778178214E+02  0.51100000000E-03 0.  1.
        -11    1    3    3    0    0  0.76959759080E+00  0.85676164537E+01  0.57045700414E+01  0.10321746546E+02  0.51100000000E-03 0. -1.
        -12    1    3    3    0    0 -0.32634337803E+01 -0.59285180823E+00 -0.42978758457E+01  0.54289234743E+01  0.00000000000E+00 0.  1.
</event>
<event>
 7    1  0.3383281E-011  0.5052885E+02  0.7816164E-02  0.1300439E+00
        -11   -1    0    0    0    0  0.00000000000E+00  0.00000000000E+00  0.45593999997E+02  0.45594000000E+02  0.51100000000E-03 0.  1.
         11   -1    0    0    0    0 -0.00000000000E+00 -0.00000000000E+00 -0.45593999997E+02  0.45594000000E+02  0.51100000000E-03 0. -1.
    9900012    2    1    2    0    0 -0.37285382924E+02  0.16128413152E+02  0.16854469016E+01  0.50528853159E+02  0.29999979662E+02 0.  0.
         12    1    1    2    0    0  0.37285382924E+02 -0.16128413152E+02 -0.16854469016E+01  0.40659146841E+02  0.00000000000E+00 0. -1.
         11    1    3    3    0    0 -0.66129698438E+01  0.12137707682E+02 -0.53918892629E+01  0.14836704082E+02  0.51100000000E-03 0. -1.
        -11    1    3    3    0    0 -0.88082482397E+01  0.54504344327E+01  0.89638039607E+01  0.13698257344E+02  0.51100000000E-03 0.  1.
        -12    1    3    3    0    0 -0.21864164841E+02 -0.14597289626E+01 -0.18864677962E+01  0.21993891733E+02  0.00000000000E+00 0.  1.
</event>
<event>
 7    1  0.3383281E-011  0.5052885E+02  0.7816164E-02  0.1300439E+00
        -11   -1    0    0    0    0  0.00000000000E+00  0.00000000000E+00  0.45593999997E+02  0.45594000000E+02  0.51100000000E-03 0.  1.
         11   -1    0    0    0    0 -0.00000000000E+00 -0.00000000000E+00 -0.45593999997E+02  0.45594000000E+02  0.51100000000E-03 0. -1.
    9900012    2    1    2    0    0  0.35713452651E+02 -0.13421904189E+02  0.14055884938E+02  0.50528854489E+02  0.29999983704E+02 0.  0.
         12    1    1    2    0    0 -0.35713452651E+02  0.13421904189E+02 -0.14055884938E+02  0.40659145511E+02  0.00000000000E+00 0. -1.
         11    1    3    3    0    0 -0.17648517127E+01  0.14169270075E+01 -0.14837873852E+01  0.27062906307E+01  0.51100000000E-03 0. -1.
        -11    1    3    3    0    0  0.16086017175E+02 -0.13852789153E+02  0.15705596400E+02  0.26406920957E+02  0.51100000000E-03 0.  1.
        -12    1    3    3    0    0  0.21392287188E+02 -0.98604204412E+00 -0.16592407674E+00  0.21415642901E+02  0.00000000000E+00 0.  1.
</event>
<event>
 7    1  0.3383281E-011  0.5052885E+02  0.7816164E-02  0.1300439E+00
        -11   -1    0    0    0    0  0.00000000000E+00  0.00000000000E+00  0.45593999997E+02  0.45594000000E+02  0.51100000000E-03 0.  1.
         11   -1    0    0    0    0 -0.00000000000E+00 -0.00000000000E+00 -0.45593999997E+02  0.45594000000E+02  0.51100000000E-03 0. -1.
    9900012    2    1    2    0    0 -0.35545063551E+02 -0.44333225793E+01  0.19236954724E+02  0.50528851964E+02  0.29999976031E+02 0.  0.
         12    1    1    2    0    0  0.35545063551E+02  0.44333225793E+01 -0.19236954724E+02  0.40659148036E+02  0.00000000000E+00 0. -1.
         11    1    3    3    0    0 -0.12074258935E+02  0.98248703469E+00  0.11156892260E+01  0.12165433503E+02  0.51100000000E-03 0. -1.
        -11    1    3    3    0    0 -0.14198280131E+02  0.48027542433E+01 -0.72458800086E+00  0.15006086600E+02  0.51100000000E-03 0.  1.
         12    1    3    3    0    0 -0.92725244853E+01 -0.10218563857E+02  0.18845853498E+02  0.23357331862E+02  0.00000000000E+00 0. -1.
</event>
<event>
 7    1  0.3383281E-011  0.5052886E+02  0.7816164E-02  0.1300439E+00
        -11   -1    0    0    0    0  0.00000000000E+00  0.00000000000E+00  0.45593999997E+02  0.45594000000E+02  0.51100000000E-03 0. -1.
         11   -1    0    0    0    0 -0.00000000000E+00 -0.00000000000E+00 -0.45593999997E+02  0.45594000000E+02  0.51100000000E-03 0.  1.
    9900012    2    1    2    0    0 -0.23427365629E+02  0.56142749591E+01 -0.32753687067E+02  0.50528861296E+02  0.30000004395E+02 0.  0.
         12    1    1    2    0    0  0.23427365629E+02 -0.56142749591E+01  0.32753687067E+02  0.40659138704E+02  0.00000000000E+00 0. -1.
         11    1    3    3    0    0 -0.79361250301E+01  0.29845188268E+01  0.33591208505E+00  0.84854151525E+01  0.51100000000E-03 0. -1.
        -11    1    3    3    0    0 -0.60455741723E+01  0.52483881478E+01 -0.51096168749E+00  0.80221959169E+01  0.51100000000E-03 0.  1.
        -12    1    3    3    0    0 -0.94456664271E+01 -0.26186320155E+01 -0.32578637465E+02  0.34021250226E+02  0.00000000000E+00 0.  1.
</event>
<event>
 7    1  0.3678822E-011  0.5052886E+02  0.7816164E-02  0.1300439E+00
        -11   -1    0    0    0    0  0.00000000000E+00  0.00000000000E+00  0.45593999997E+02  0.45594000000E+02  0.51100000000E-03 0.  1.
         11   -1    0    0    0    0 -0.00000000000E+00 -0.00000000000E+00 -0.45593999997E+02  0.45594000000E+02  0.51100000000E-03 0. -1.
    9900012    2    1    2    0    0  0.39486518071E+02  0.94028823533E+01  0.23593501713E+01  0.50528857865E+02  0.29999993968E+02 0.  0.
         12    1    1    2    0    0 -0.39486518071E+02 -0.94028823533E+01 -0.23593501713E+01  0.40659142135E+02  0.00000000000E+00 0. -1.
         11    1    3    3    0    0  0.75290896512E+01 -0.80698822451E-01  0.39463767387E+01  0.85010348135E+01  0.51100000000E-03 0. -1.
        -11    1    3    3    0    0  0.36328765234E+02  0.78717086574E+01 -0.25904146316E+01  0.37261954173E+02  0.51100000000E-03 0.  1.
         12    1    3    3    0    0 -0.43713368143E+01  0.16118725184E+01  0.10033880642E+01  0.47658688785E+01  0.00000000000E+00 0. -1.
</event>
<event>
 7    1  0.3383281E-011  0.5052886E+02  0.7816164E-02  0.1300439E+00
        -11   -1    0    0    0    0  0.00000000000E+00  0.00000000000E+00  0.45593999997E+02  0.45594000000E+02  0.51100000000E-03 0. -1.
         11   -1    0    0    0    0 -0.00000000000E+00 -0.00000000000E+00 -0.45593999997E+02  0.45594000000E+02  0.51100000000E-03 0.  1.
    9900012    2    1    2    0    0  0.24470489797E+02  0.14764465091E+02 -0.28920082852E+02  0.50528862128E+02  0.30000006925E+02 0.  0.
         12    1    1    2    0    0 -0.24470489797E+02 -0.14764465091E+02  0.28920082852E+02  0.40659137872E+02  0.00000000000E+00 0. -1.
         11    1    3    3    0    0  0.10217630935E+02  0.13026202847E+02 -0.17049754863E+02  0.23765018066E+02  0.51100000000E-03 0. -1.
        -11    1    3    3    0    0  0.71412350233E+01  0.10390558216E+02 -0.79126760679E+01  0.14885273948E+02  0.51100000000E-03 0.  1.
         12    1    3    3    0    0  0.71116238387E+01 -0.86522959724E+01 -0.39576519207E+01  0.11878570114E+02  0.00000000000E+00 0. -1.
</event>
<event>
 7    1  0.3383281E-011  0.5052886E+02  0.7816164E-02  0.1300439E+00
        -11   -1    0    0    0    0  0.00000000000E+00  0.00000000000E+00  0.45593999997E+02  0.45594000000E+02  0.51100000000E-03 0. -1.
         11   -1    0    0    0    0 -0.00000000000E+00 -0.00000000000E+00 -0.45593999997E+02  0.45594000000E+02  0.51100000000E-03 0.  1.
    9900012    2    1    2    0    0  0.23122118386E+02 -0.33307944591E+02 -0.30189029598E+01  0.50528864414E+02  0.30000013872E+02 0.  0.
         12    1    1    2    0    0 -0.23122118386E+02  0.33307944591E+02  0.30189029598E+01  0.40659135586E+02  0.00000000000E+00 0. -1.
         11    1    3    3    0    0 -0.60176889242E+01 -0.40900163325E+01 -0.40767901548E+01  0.83403256421E+01  0.51100000000E-03 0. -1.
        -11    1    3    3    0    0  0.28269789810E+01 -0.57465480453E+00 -0.14191851424E+01  0.32149844530E+01  0.51100000000E-03 0.  1.
        -12    1    3    3    0    0  0.26312828329E+02 -0.28643273454E+02  0.24770723374E+01  0.38973554319E+02  0.00000000000E+00 0.  1.
</event>
<event>
 7    1  0.3383281E-011  0.5052886E+02  0.7816164E-02  0.1300439E+00
        -11   -1    0    0    0    0  0.00000000000E+00  0.00000000000E+00  0.45593999997E+02  0.45594000000E+02  0.51100000000E-03 0.  1.
         11   -1    0    0    0    0 -0.00000000000E+00 -0.00000000000E+00 -0.45593999997E+02  0.45594000000E+02  0.51100000000E-03 0. -1.
    9900012    2    1    2    0    0  0.12869861355E+02  0.36735289289E+02  0.11749520177E+02  0.50528855459E+02  0.29999986652E+02 0.  0.
         12    1    1    2    0    0 -0.12869861355E+02 -0.36735289289E+02 -0.11749520177E+02  0.40659144541E+02  0.00000000000E+00 0. -1.
         11    1    3    3    0    0 -0.14260771144E+01  0.12249997105E+02  0.38473911865E+01  0.12918921945E+02  0.51100000000E-03 0. -1.
        -11    1    3    3    0    0 -0.22095333949E+01  0.18562083817E+02  0.86070232738E+00  0.18712931417E+02  0.51100000000E-03 0.  1.
         12    1    3    3    0    0  0.16505471864E+02  0.59232083672E+01  0.70414266630E+01  0.18897002097E+02  0.00000000000E+00 0. -1.
</event>
<event>
 7    1  0.3383281E-011  0.5052886E+02  0.7816164E-02  0.1300439E+00
        -11   -1    0    0    0    0  0.00000000000E+00  0.00000000000E+00  0.45593999997E+02  0.45594000000E+02  0.51100000000E-03 0.  1.
         11   -1    0    0    0    0 -0.00000000000E+00 -0.00000000000E+00 -0.45593999997E+02  0.45594000000E+02  0.51100000000E-03 0. -1.
    9900012    2    1    2    0    0  0.16632954937E+02 -0.12064724564E+02  0.35084940229E+02  0.50528858351E+02  0.29999995445E+02 0.  0.
         12    1    1    2    0    0 -0.16632954937E+02  0.12064724564E+02 -0.35084940229E+02  0.40659141649E+02  0.00000000000E+00 0. -1.
         11    1    3    3    0    0 -0.10162069721E+01 -0.31434398928E+01  0.77315484937E+00  0.33928836779E+01  0.51100000000E-03 0. -1.
        -11    1    3    3    0    0  0.79226666794E+00  0.26283950304E+01 -0.33238025705E+01  0.43108944197E+01  0.51100000000E-03 0.  1.
        -12    1    3    3    0    0  0.16856895241E+02 -0.11549679701E+02  0.37635587950E+02  0.42825080254E+02  0.00000000000E+00 0.  1.
</event>
<event>
 7    1  0.3383281E-011  0.5052886E+02  0.7816164E-02  0.1300439E+00
        -11   -1    0    0    0    0  0.00000000000E+00  0.00000000000E+00  0.45593999997E+02  0.45594000000E+02  0.51100000000E-03 0. -1.
         11   -1    0    0    0    0 -0.00000000000E+00 -0.00000000000E+00 -0.45593999997E+02  0.45594000000E+02  0.51100000000E-03 0.  1.
    9900012    2    1    2    0    0  0.10036152011E+02  0.30053440592E+02 -0.25480027026E+02  0.50528863071E+02  0.30000009789E+02 0.  0.
         12    1    1    2    0    0 -0.10036152011E+02 -0.30053440592E+02  0.25480027026E+02  0.40659136929E+02  0.00000000000E+00 0. -1.
         11    1    3    3    0    0  0.37385325313E+01  0.60030475688E+01 -0.74250834014E+00  0.71108736802E+01  0.51100000000E-03 0. -1.
        -11    1    3    3    0    0  0.16229893209E+02  0.16788160905E+02 -0.16996640650E+02  0.28881439953E+02  0.51100000000E-03 0.  1.
        -12    1    3    3    0    0 -0.99322737289E+01  0.72622321178E+01 -0.77408780367E+01  0.14536549437E+02  0.00000000000E+00 0.  1.
</event>
<event>
 7    1  0.3582005E-011  0.5052885E+02  0.7816164E-02  0.1300439E+00
        -11   -1    0    0    0    0  0.00000000000E+00  0.00000000000E+00  0.45593999997E+02  0.45594000000E+02  0.51100000000E-03 0. -1.
         11   -1    0    0    0    0 -0.00000000000E+00 -0.00000000000E+00 -0.45593999997E+02  0.45594000000E+02  0.51100000000E-03 0.  1.
    9900012    2    1    2    0    0  0.30125378776E+02 -0.21867737178E+02  0.16353285733E+02  0.50528851829E+02  0.29999975619E+02 0.  0.
         12    1    1    2    0    0 -0.30125378776E+02  0.21867737178E+02 -0.16353285733E+02  0.40659148171E+02  0.00000000000E+00 0. -1.
         11    1    3    3    0    0 -0.21746542554E+01 -0.33105308346E+00 -0.38553376802E+01  0.44387324952E+01  0.51100000000E-03 0. -1.
        -11    1    3    3    0    0  0.37105276768E+01 -0.96913832970E+01  0.64872984761E+01  0.12238299213E+02  0.51100000000E-03 0.  1.
         12    1    3    3    0    0  0.28589505355E+02 -0.11845300798E+02  0.13721324938E+02  0.33851820121E+02  0.00000000000E+00 0. -1.
</event>
<event>
 7    1  0.3383281E-011  0.5052885E+02  0.7816164E-02  0.1300439E+00
        -11   -1    0    0    0    0  0.00000000000E+00  0.00000000000E+00  0.45593999997E+02  0.45594000000E+02  0.51100000000E-03 0.  1.
         11   -1    0    0    0    0 -0.00000000000E+00 -0.00000000000E+00 -0.45593999997E+02  0.45594000000E+02  0.51100000000E-03 0. -1.
    9900012    2    1    2    0    0 -0.57283002555E+01 -0.40243727304E+02  0.89178076822E+00  0.50528852393E+02  0.29999977335E+02 0.  0.
         12    1    1    2    0    0  0.57283002555E+01  0.40243727304E+02 -0.89178076822E+00  0.40659147607E+02  0.00000000000E+00 0. -1.
         11    1    3    3    0    0 -0.58239244552E+01 -0.89561646174E+01 -0.50397622904E+01  0.11812289571E+02  0.51100000000E-03 0. -1.
        -11    1    3    3    0    0 -0.10298839096E+02 -0.94300081116E+01  0.87900551519E+00  0.13991561409E+02  0.51100000000E-03 0.  1.
        -12    1    3    3    0    0  0.10394463296E+02 -0.21857554575E+02  0.50525375435E+01  0.24725001413E+02  0.00000000000E+00 0.  1.
</event>
<event>
 7    1  0.3383281E-011  0.5052886E+02  0.7816164E-02  0.1300439E+00
        -11   -1    0    0    0    0  0.00000000000E+00  0.00000000000E+00  0.45593999997E+02  0.45594000000E+02  0.51100000000E-03 0. -1.
         11   -1    0    0    0    0 -0.00000000000E+00 -0.00000000000E+00 -0.45593999997E+02  0.45594000000E+02  0.51100000000E-03 0.  1.
    9900012    2    1    2    0    0 -0.29165879431E+02 -0.98697554617E+01  0.26553821133E+02  0.50528855732E+02  0.29999987483E+02 0.  0.
         12    1    1    2    0    0  0.29165879431E+02  0.98697554617E+01 -0.26553821133E+02  0.40659144268E+02  0.00000000000E+00 0. -1.
         11    1    3    3    0    0 -0.11974148345E+02  0.65764947749E+01  0.99008475566E+01  0.16871789908E+02  0.51100000000E-03 0.  1.
        -11    1    3    3    0    0 -0.15720261956E+01  0.17136579867E+01  0.77687342211E+01  0.81093231354E+01  0.51100000000E-03 0. -1.
        -12    1    3    3    0    0 -0.15619704891E+02 -0.18159908223E+02  0.88842393554E+01  0.25547742688E+02  0.00000000000E+00 0.  1.
</event>
<event>
 7    1  0.3383281E-011  0.5052886E+02  0.7816164E-02  0.1300439E+00
        -11   -1    0    0    0    0  0.00000000000E+00  0.00000000000E+00  0.45593999997E+02  0.45594000000E+02  0.51100000000E-03 0.  1.
         11   -1    0    0    0    0 -0.00000000000E+00 -0.00000000000E+00 -0.45593999997E+02  0.45594000000E+02  0.51100000000E-03 0. -1.
    9900012    2    1    2    0    0 -0.15803677825E+02  0.15975631914E+02  0.33884928398E+02  0.50528863015E+02  0.30000009619E+02 0.  0.
         12    1    1    2    0    0  0.15803677825E+02 -0.15975631914E+02 -0.33884928398E+02  0.40659136985E+02  0.00000000000E+00 0. -1.
         11    1    3    3    0    0 -0.44143266249E+01 -0.10555320072E+01  0.22344759037E+02  0.22801067608E+02  0.51100000000E-03 0. -1.
        -11    1    3    3    0    0 -0.49457468572E+01 -0.18261956139E+01  0.27684309651E+01  0.59547974496E+01  0.51100000000E-03 0.  1.
         12    1    3    3    0    0 -0.64436043429E+01  0.18857359535E+02  0.87717383958E+01  0.21772997957E+02  0.00000000000E+00 0. -1.
</event>
<event>
 7    1  0.3383281E-011  0.5052886E+02  0.7816164E-02  0.1300439E+00
        -11   -1    0    0    0    0  0.00000000000E+00  0.00000000000E+00  0.45593999997E+02  0.45594000000E+02  0.51100000000E-03 0.  1.
         11   -1    0    0    0    0 -0.00000000000E+00 -0.00000000000E+00 -0.45593999997E+02  0.45594000000E+02  0.51100000000E-03 0. -1.
    9900012    2    1    2    0    0  0.39821054566E+01  0.27995230863E+02  0.29216008531E+02  0.50528864871E+02  0.30000015261E+02 0.  0.
         12    1    1    2    0    0 -0.39821054566E+01 -0.27995230863E+02 -0.29216008531E+02  0.40659135129E+02  0.00000000000E+00 0. -1.
         11    1    3    3    0    0  0.35098419292E+01  0.81320705222E+01  0.19277251267E+02  0.21214664221E+02  0.51100000000E-03 0. -1.
        -11    1    3    3    0    0  0.93724431078E+01  0.12237955003E+02  0.82185866816E+01  0.17468697713E+02  0.51100000000E-03 0.  1.
         12    1    3    3    0    0 -0.89001795804E+01  0.76252053376E+01  0.17201705831E+01  0.11845502937E+02  0.00000000000E+00 0. -1.
</event>
<event>
 7    1  0.3383281E-011  0.5052886E+02  0.7816164E-02  0.1300439E+00
        -11   -1    0    0    0    0  0.00000000000E+00  0.00000000000E+00  0.45593999997E+02  0.45594000000E+02  0.51100000000E-03 0.  1.
         11   -1    0    0    0    0 -0.00000000000E+00 -0.00000000000E+00 -0.45593999997E+02  0.45594000000E+02  0.51100000000E-03 0. -1.
    9900012    2    1    2    0    0 -0.25076192209E+02  0.60735464877E+01  0.31423916223E+02  0.50528857198E+02  0.29999991939E+02 0.  0.
         12    1    1    2    0    0  0.25076192209E+02 -0.60735464877E+01 -0.31423916223E+02  0.40659142802E+02  0.00000000000E+00 0. -1.
         11    1    3    3    0    0  0.11463650824E+01  0.54167112264E+01  0.32300663276E+01  0.64100110884E+01  0.51100000000E-03 0. -1.
        -11    1    3    3    0    0 -0.19458195714E+02  0.78409139198E+01  0.26980947129E+02  0.34177080329E+02  0.51100000000E-03 0.  1.
         12    1    3    3    0    0 -0.67643615775E+01 -0.71840786585E+01  0.12129027656E+01  0.99417657809E+01  0.00000000000E+00 0. -1.
</event>
<event>
 7    1  0.3383281E-011  0.5052887E+02  0.7816164E-02  0.1300439E+00
        -11   -1    0    0    0    0  0.00000000000E+00  0.00000000000E+00  0.45593999997E+02  0.45594000000E+02  0.51100000000E-03 0.  1.
         11   -1    0    0    0    0 -0.00000000000E+00 -0.00000000000E+00 -0.45593999997E+02  0.45594000000E+02  0.51100000000E-03 0. -1.
    9900012    2    1    2    0    0  0.31617658243E+02 -0.25440358277E+02  0.25052765049E+01  0.50528873688E+02  0.30000042064E+02 0.  0.
         12    1    1    2    0    0 -0.31617658243E+02  0.25440358277E+02 -0.25052765049E+01  0.40659126312E+02  0.00000000000E+00 0. -1.
         11    1    3    3    0    0  0.14618468877E+02 -0.86357106630E+01  0.14564177770E+02  0.22369407801E+02  0.51100000000E-03 0.  1.
        -11    1    3    3    0    0  0.57882121075E+01 -0.81115600235E+00 -0.36787056844E+01  0.69061023186E+01  0.51100000000E-03 0. -1.
        -12    1    3    3    0    0  0.11210977259E+02 -0.15993491612E+02 -0.83801955810E+01  0.21253363569E+02  0.00000000000E+00 0.  1.
</event>
<event>
 7    1  0.3383281E-011  0.5052883E+02  0.7816164E-02  0.1300439E+00
        -11   -1    0    0    0    0  0.00000000000E+00  0.00000000000E+00  0.45593999997E+02  0.45594000000E+02  0.51100000000E-03 0. -1.
         11   -1    0    0    0    0 -0.00000000000E+00 -0.00000000000E+00 -0.45593999997E+02  0.45594000000E+02  0.51100000000E-03 0.  1.
    9900012    2    1    2    0    0  0.21486260951E+02 -0.31948719486E+02 -0.13068582044E+02  0.50528832239E+02  0.29999916072E+02 0.  0.
         12    1    1    2    0    0 -0.21486260951E+02  0.31948719486E+02  0.13068582044E+02  0.40659167761E+02  0.00000000000E+00 0. -1.
         11    1    3    3    0    0  0.16380384415E+02 -0.30418290507E+02 -0.10049031861E+02  0.35980167211E+02  0.51100000000E-03 0.  1.
        -11    1    3    3    0    0  0.69965812783E+01 -0.58216541401E+01 -0.36711358585E+01  0.98143285692E+01  0.51100000000E-03 0. -1.
         12    1    3    3    0    0 -0.18907047422E+01  0.42912251613E+01  0.65158567561E+00  0.47343364582E+01  0.00000000000E+00 0. -1.
</event>
<event>
 7    1  0.3383281E-011  0.5052885E+02  0.7816164E-02  0.1300439E+00
        -11   -1    0    0    0    0  0.00000000000E+00  0.00000000000E+00  0.45593999997E+02  0.45594000000E+02  0.51100000000E-03 0.  1.
         11   -1    0    0    0    0 -0.00000000000E+00 -0.00000000000E+00 -0.45593999997E+02  0.45594000000E+02  0.51100000000E-03 0. -1.
    9900012    2    1    2    0    0 -0.13296610920E+02  0.37327050842E+02 -0.91135969657E+01  0.50528852983E+02  0.29999979127E+02 0.  0.
         12    1    1    2    0    0  0.13296610920E+02 -0.37327050842E+02  0.91135969657E+01  0.40659147017E+02  0.00000000000E+00 0. -1.
         11    1    3    3    0    0 -0.53261354041E+01  0.19702075834E+02 -0.12199973487E+02  0.23777696774E+02  0.51100000000E-03 0. -1.
        -11    1    3    3    0    0 -0.12286359289E+02  0.50951910741E+01  0.10363660927E+01  0.13341276235E+02  0.51100000000E-03 0.  1.
         12    1    3    3    0    0  0.43158837725E+01  0.12529783933E+02  0.20500104285E+01  0.13409879974E+02  0.00000000000E+00 0. -1.
</event>
<event>
 7    1  0.3623111E-011  0.5052886E+02  0.7816164E-02  0.1300439E+00
        -11   -1    0    0    0    0  0.00000000000E+00  0.00000000000E+00  0.45593999997E+02  0.45594000000E+02  0.51100000000E-03 0.  1.
         11   -1    0    0    0    0 -0.00000000000E+00 -0.00000000000E+00 -0.45593999997E+02  0.45594000000E+02  0.51100000000E-03 0. -1.
    9900012    2    1    2    0    0  0.78431480923E+00 -0.39507324324E+02  0.95771607157E+01  0.50528857949E+02  0.29999994222E+02 0.  0.
         12    1    1    2    0    0 -0.78431480923E+00  0.39507324324E+02 -0.95771607157E+01  0.40659142051E+02  0.00000000000E+00 0. -1.
         11    1    3    3    0    0 -0.40836589447E+01 -0.89013190018E+01 -0.50398086150E+01  0.11014055633E+02  0.51100000000E-03 0. -1.
        -11    1    3    3    0    0 -0.14859354878E+01 -0.26741634702E+02  0.48170758632E+01  0.27212630357E+02  0.51100000000E-03 0.  1.
         12    1    3    3    0    0  0.63539092417E+01 -0.38643706195E+01  0.97998934675E+01  0.12302171959E+02  0.00000000000E+00 0. -1.
</event>
<event>
 7    1  0.3987825E-011  0.5052886E+02  0.7816164E-02  0.1300439E+00
        -11   -1    0    0    0    0  0.00000000000E+00  0.00000000000E+00  0.45593999997E+02  0.45594000000E+02  0.51100000000E-03 0.  1.
         11   -1    0    0    0    0 -0.00000000000E+00 -0.00000000000E+00 -0.45593999997E+02  0.45594000000E+02  0.51100000000E-03 0. -1.
    9900012    2    1    2    0    0  0.28288372286E+01  0.30381393119E+02  0.26872563110E+02  0.50528855690E+02  0.29999987355E+02 0.  0.
         12    1    1    2    0    0 -0.28288372286E+01 -0.30381393119E+02 -0.26872563110E+02  0.40659144310E+02  0.00000000000E+00 0. -1.
         11    1    3    3    0    0 -0.40946453788E+01  0.60754190978E+01 -0.55146336391E+00  0.73471729322E+01  0.51100000000E-03 0. -1.
        -11    1    3    3    0    0 -0.35182361455E+00  0.14153504561E+02  0.27229291450E+02  0.30690060025E+02  0.51100000000E-03 0.  1.
         12    1    3    3    0    0  0.72753062220E+01  0.10152469460E+02  0.19473502387E+00  0.12491622733E+02  0.00000000000E+00 0. -1.
</event>
<event>
 7    1  0.3383281E-011  0.5052886E+02  0.7816164E-02  0.1300439E+00
        -11   -1    0    0    0    0  0.00000000000E+00  0.00000000000E+00  0.45593999997E+02  0.45594000000E+02  0.51100000000E-03 0.  1.
         11   -1    0    0    0    0 -0.00000000000E+00 -0.00000000000E+00 -0.45593999997E+02  0.45594000000E+02  0.51100000000E-03 0. -1.
    9900012    2    1    2    0    0  0.90664960772E+01  0.56650300304E+01  0.39228452317E+02  0.50528863418E+02  0.30000010846E+02 0.  0.
         12    1    1    2    0    0 -0.90664960772E+01 -0.56650300304E+01 -0.39228452317E+02  0.40659136582E+02  0.00000000000E+00 0. -1.
         11    1    3    3    0    0 -0.14157592703E+01 -0.82869303637E+00 -0.20644896190E+00  0.16533988917E+01  0.51100000000E-03 0. -1.
        -11    1    3    3    0    0 -0.27350204624E+00 -0.71980114495E+01  0.25724953794E+02  0.26714404732E+02  0.51100000000E-03 0.  1.
        -12    1    3    3    0    0  0.10755757394E+02  0.13691734516E+02  0.13709947485E+02  0.22161059795E+02  0.00000000000E+00 0.  1.
</event>
<event>
 7    1  0.3383281E-011  0.5052886E+02  0.7816164E-02  0.1300439E+00
        -11   -1    0    0    0    0  0.00000000000E+00  0.00000000000E+00  0.45593999997E+02  0.45594000000E+02  0.51100000000E-03 0.  1.
         11   -1    0    0    0    0 -0.00000000000E+00 -0.00000000000E+00 -0.45593999997E+02  0.45594000000E+02  0.51100000000E-03 0. -1.
    9900012    2    1    2    0    0  0.21588950547E+02 -0.33755468936E+02  0.69029560506E+01  0.50528864851E+02  0.30000015201E+02 0.  0.
         12    1    1    2    0    0 -0.21588950547E+02  0.33755468936E+02 -0.69029560506E+01  0.40659135149E+02  0.00000000000E+00 0. -1.
         11    1    3    3    0    0  0.25843753002E+00 -0.18502146117E+01  0.81384161155E-01  0.18699485846E+01  0.51100000000E-03 0. -1.
        -11    1    3    3    0    0  0.21078423198E+02 -0.13254336866E+02  0.14125751284E+02  0.28627158781E+02  0.51100000000E-03 0.  1.
         12    1    3    3    0    0  0.25208981883E+00 -0.18650917459E+02 -0.73041793945E+01  0.20031757486E+02  0.00000000000E+00 0. -1.
</event>
<event>
 7    1  0.3383281E-011  0.5052886E+02  0.7816164E-02  0.1300439E+00
        -11   -1    0    0    0    0  0.00000000000E+00  0.00000000000E+00  0.45593999997E+02  0.45594000000E+02  0.51100000000E-03 0. -1.
         11   -1    0    0    0    0 -0.00000000000E+00 -0.00000000000E+00 -0.45593999997E+02  0.45594000000E+02  0.51100000000E-03 0.  1.
    9900012    2    1    2    0    0 -0.88637810415E+01 -0.28928512246E+02 -0.27161375117E+02  0.50528859166E+02  0.29999997922E+02 0.  0.
         12    1    1    2    0    0  0.88637810415E+01  0.28928512246E+02  0.27161375117E+02  0.40659140834E+02  0.00000000000E+00 0. -1.
         11    1    3    3    0    0 -0.18436058302E+01 -0.52877000506E+01 -0.12578497345E+02  0.13768705458E+02  0.51100000000E-03 0. -1.
        -11    1    3    3    0    0 -0.11485800071E+01  0.18665990373E+01 -0.99379087530E+01  0.10176711583E+02  0.51100000000E-03 0.  1.
        -12    1    3    3    0    0 -0.58715952042E+01 -0.25507411232E+02 -0.46449690189E+01  0.26583442125E+02  0.00000000000E+00 0.  1.
</event>
<event>
 7    1  0.3383281E-011  0.5052879E+02  0.7816164E-02  0.1300439E+00
        -11   -1    0    0    0    0  0.00000000000E+00  0.00000000000E+00  0.45593999997E+02  0.45594000000E+02  0.51100000000E-03 0.  1.
         11   -1    0    0    0    0 -0.00000000000E+00 -0.00000000000E+00 -0.45593999997E+02  0.45594000000E+02  0.51100000000E-03 0. -1.
    9900012    2    1    2    0    0 -0.43334723642E+01 -0.15501391603E+02  0.37337635227E+02  0.50528792817E+02  0.29999796247E+02 0.  0.
         12    1    1    2    0    0  0.43334723642E+01  0.15501391603E+02 -0.37337635227E+02  0.40659207183E+02  0.00000000000E+00 0. -1.
         11    1    3    3    0    0  0.79755180442E+01 -0.77865300308E+01  0.98429131264E+01  0.14870167352E+02  0.51100000000E-03 0. -1.
        -11    1    3    3    0    0  0.29527541972E+01 -0.59132965855E+01  0.12750082453E+02  0.14361421819E+02  0.51100000000E-03 0.  1.
        -12    1    3    3    0    0 -0.15261744606E+02 -0.18015649865E+01  0.14744639648E+02  0.21297203647E+02  0.00000000000E+00 0.  1.
</event>
<event>
 7    1  0.3383281E-011  0.5052886E+02  0.7816164E-02  0.1300439E+00
        -11   -1    0    0    0    0  0.00000000000E+00  0.00000000000E+00  0.45593999997E+02  0.45594000000E+02  0.51100000000E-03 0. -1.
         11   -1    0    0    0    0 -0.00000000000E+00 -0.00000000000E+00 -0.45593999997E+02  0.45594000000E+02  0.51100000000E-03 0.  1.
    9900012    2    1    2    0    0 -0.30937430394E+02 -0.87133276571E+01 -0.24902188562E+02  0.50528859903E+02  0.30000000162E+02 0.  0.
         12    1    1    2    0    0  0.30937430394E+02  0.87133276571E+01  0.24902188562E+02  0.40659140097E+02  0.00000000000E+00 0. -1.
         11    1    3    3    0    0 -0.15135104630E+01  0.10724913697E+01 -0.22943479013E+01  0.29504210231E+01  0.51100000000E-03 0.  1.
        -11    1    3    3    0    0  0.52648652723E+01 -0.20577294955E+01 -0.63366156122E+01  0.84915107425E+01  0.51100000000E-03 0. -1.
         12    1    3    3    0    0 -0.34688785203E+02 -0.77280895313E+01 -0.16271225049E+02  0.39086928138E+02  0.00000000000E+00 0. -1.
</event>
<event>
 7    1  0.3383281E-011  0.5052887E+02  0.7816164E-02  0.1300439E+00
        -11   -1    0    0    0    0  0.00000000000E+00  0.00000000000E+00  0.45593999997E+02  0.45594000000E+02  0.51100000000E-03 0.  1.
         11   -1    0    0    0    0 -0.00000000000E+00 -0.00000000000E+00 -0.45593999997E+02  0.45594000000E+02  0.51100000000E-03 0. -1.
    9900012    2    1    2    0    0 -0.25117630880E+02 -0.31317775371E+02  0.64394725169E+01  0.50528865215E+02  0.30000016307E+02 0.  0.
         12    1    1    2    0    0  0.25117630880E+02  0.31317775371E+02 -0.64394725169E+01  0.40659134785E+02  0.00000000000E+00 0. -1.
         11    1    3    3    0    0 -0.45691578655E+01 -0.31309667691E+00  0.25730161204E+01  0.52531557512E+01  0.51100000000E-03 0. -1.
        -11    1    3    3    0    0 -0.14841718312E+02 -0.94679145675E+01  0.12275370282E+02  0.21461657078E+02  0.51100000000E-03 0.  1.
         12    1    3    3    0    0 -0.57067547020E+01 -0.21536764127E+02 -0.84089138858E+01  0.23814052385E+02  0.00000000000E+00 0. -1.
</event>
<event>
 7    1  0.3383281E-011  0.5052885E+02  0.7816164E-02  0.1300439E+00
        -11   -1    0    0    0    0  0.00000000000E+00  0.00000000000E+00  0.45593999997E+02  0.45594000000E+02  0.51100000000E-03 0. -1.
         11   -1    0    0    0    0 -0.00000000000E+00 -0.00000000000E+00 -0.45593999997E+02  0.45594000000E+02  0.51100000000E-03 0.  1.
    9900012    2    1    2    0    0 -0.22298950899E+02  0.13399092830E+02 -0.31247199943E+02  0.50528850917E+02  0.29999972847E+02 0.  0.
         12    1    1    2    0    0  0.22298950899E+02 -0.13399092830E+02  0.31247199943E+02  0.40659149083E+02  0.00000000000E+00 0. -1.
         11    1    3    3    0    0 -0.25163543591E+01  0.12381106823E+02 -0.69233011198E+01  0.14406802007E+02  0.51100000000E-03 0. -1.
        -11    1    3    3    0    0 -0.74621326399E+01  0.85777134954E+01 -0.15372379332E+02  0.19119901645E+02  0.51100000000E-03 0.  1.
        -12    1    3    3    0    0 -0.12320463900E+02 -0.75597274875E+01 -0.89515194912E+01  0.17002147265E+02  0.00000000000E+00 0.  1.
</event>
<event>
 7    1  0.3383281E-011  0.5052886E+02  0.7816164E-02  0.1300439E+00
        -11   -1    0    0    0    0  0.00000000000E+00  0.00000000000E+00  0.45593999997E+02  0.45594000000E+02  0.51100000000E-03 0. -1.
         11   -1    0    0    0    0 -0.00000000000E+00 -0.00000000000E+00 -0.45593999997E+02  0.45594000000E+02  0.51100000000E-03 0.  1.
    9900012    2    1    2    0    0 -0.27329272850E+02 -0.26206560056E+02 -0.14815288365E+02  0.50528859406E+02  0.29999998651E+02 0.  0.
         12    1    1    2    0    0  0.27329272850E+02  0.26206560056E+02  0.14815288365E+02  0.40659140594E+02  0.00000000000E+00 0. -1.
         11    1    3    3    0    0 -0.14851190781E+02 -0.10023963259E+01 -0.11466675812E+02  0.18789553493E+02  0.51100000000E-03 0. -1.
        -11    1    3    3    0    0 -0.99406705018E+01 -0.19192336347E+02 -0.87010301595E+01  0.23299584343E+02  0.51100000000E-03 0.  1.
         12    1    3    3    0    0 -0.25374115669E+01 -0.60118273835E+01  0.53524176063E+01  0.84397215702E+01  0.00000000000E+00 0. -1.
</event>
<event>
 7    1  0.3383281E-011  0.5052886E+02  0.7816164E-02  0.1300439E+00
        -11   -1    0    0    0    0  0.00000000000E+00  0.00000000000E+00  0.45593999997E+02  0.45594000000E+02  0.51100000000E-03 0. -1.
         11   -1    0    0    0    0 -0.00000000000E+00 -0.00000000000E+00 -0.45593999997E+02  0.45594000000E+02  0.51100000000E-03 0.  1.
    9900012    2    1    2    0    0  0.32738149895E+02  0.85004448542E+01 -0.22563721272E+02  0.50528861557E+02  0.30000005188E+02 0.  0.
         12    1    1    2    0    0 -0.32738149895E+02 -0.85004448542E+01  0.22563721272E+02  0.40659138443E+02  0.00000000000E+00 0. -1.
         11    1    3    3    0    0  0.30928514449E+01 -0.48972174212E+01  0.80195534074E+00  0.58473584771E+01  0.51100000000E-03 0. -1.
        -11    1    3    3    0    0  0.22698828198E+01 -0.44668059300E+01 -0.10990855791E+01  0.51295918555E+01  0.51100000000E-03 0.  1.
        -12    1    3    3    0    0  0.27375415631E+02  0.17864468205E+02 -0.22266591034E+02  0.39551911224E+02  0.00000000000E+00 0.  1.
</event>
<event>
 7    1  0.3383281E-011  0.5052887E+02  0.7816164E-02  0.1300439E+00
        -11   -1    0    0    0    0  0.00000000000E+00  0.00000000000E+00  0.45593999997E+02  0.45594000000E+02  0.51100000000E-03 0.  1.
         11   -1    0    0    0    0 -0.00000000000E+00 -0.00000000000E+00 -0.45593999997E+02  0.45594000000E+02  0.51100000000E-03 0. -1.
    9900012    2    1    2    0    0 -0.12185566701E+02  0.30604695081E+01  0.38669245370E+02  0.50528867607E+02  0.30000023578E+02 0.  0.
         12    1    1    2    0    0  0.12185566701E+02 -0.30604695081E+01 -0.38669245370E+02  0.40659132393E+02  0.00000000000E+00 0. -1.
         11    1    3    3    0    0 -0.37097849600E+01 -0.34797241200E+01  0.15879787301E+02  0.16674490379E+02  0.51100000000E-03 0. -1.
        -11    1    3    3    0    0 -0.60948480461E+01 -0.22406285286E+01  0.23828381877E+02  0.24697355568E+02  0.51100000000E-03 0.  1.
         12    1    3    3    0    0 -0.23809336949E+01  0.87808221567E+01 -0.10389238080E+01  0.91570216603E+01  0.00000000000E+00 0. -1.
</event>
<event>
 7    1  0.3383281E-011  0.5052886E+02  0.7816164E-02  0.1300439E+00
        -11   -1    0    0    0    0  0.00000000000E+00  0.00000000000E+00  0.45593999997E+02  0.45594000000E+02  0.51100000000E-03 0.  1.
         11   -1    0    0    0    0 -0.00000000000E+00 -0.00000000000E+00 -0.45593999997E+02  0.45594000000E+02  0.51100000000E-03 0. -1.
    9900012    2    1    2    0    0  0.22803729141E+02 -0.25543926679E+02  0.21924038425E+02  0.50528859407E+02  0.29999998653E+02 0.  0.
         12    1    1    2    0    0 -0.22803729141E+02  0.25543926679E+02 -0.21924038425E+02  0.40659140593E+02  0.00000000000E+00 0. -1.
         11    1    3    3    0    0  0.32913094091E+00 -0.96547432596E+01 -0.13147843589E+01  0.97494129442E+01  0.51100000000E-03 0. -1.
        -11    1    3    3    0    0  0.68038375941E+01 -0.15857861841E+02  0.15943243082E+02  0.23493637190E+02  0.51100000000E-03 0.  1.
        -12    1    3    3    0    0  0.15670760606E+02 -0.31321578273E-01  0.72955797017E+01  0.17285809273E+02  0.00000000000E+00 0.  1.
</event>
<event>
 7    1  0.3383281E-011  0.5052886E+02  0.7816164E-02  0.1300439E+00
        -11   -1    0    0    0    0  0.00000000000E+00  0.00000000000E+00  0.45593999997E+02  0.45594000000E+02  0.51100000000E-03 0.  1.
         11   -1    0    0    0    0 -0.00000000000E+00 -0.00000000000E+00 -0.45593999997E+02  0.45594000000E+02  0.51100000000E-03 0. -1.
    9900012    2    1    2    0    0 -0.29279712828E+02 -0.27853862665E+02  0.44751009676E+01  0.50528858626E+02  0.29999996279E+02 0.  0.
         12    1    1    2    0    0  0.29279712828E+02  0.27853862665E+02 -0.44751009676E+01  0.40659141374E+02  0.00000000000E+00 0. -1.
         11    1    3    3    0    0 -0.14273148462E+02 -0.21261613807E+01  0.10728154041E+02  0.17981563298E+02  0.51100000000E-03 0. -1.
        -11    1    3    3    0    0 -0.42436418654E+01 -0.27612281725E+01  0.25895533174E+01  0.56867094129E+01  0.51100000000E-03 0.  1.
        -12    1    3    3    0    0 -0.10762922500E+02 -0.22966473112E+02 -0.88426063908E+01  0.26860585915E+02  0.00000000000E+00 0.  1.
</event>
<event>
 7    1  0.3383281E-011  0.5052885E+02  0.7816164E-02  0.1300439E+00
        -11   -1    0    0    0    0  0.00000000000E+00  0.00000000000E+00  0.45593999997E+02  0.45594000000E+02  0.51100000000E-03 0. -1.
         11   -1    0    0    0    0 -0.00000000000E+00 -0.00000000000E+00 -0.45593999997E+02  0.45594000000E+02  0.51100000000E-03 0.  1.
    9900012    2    1    2    0    0 -0.23308539925E+02 -0.10197132231E+02 -0.31715874155E+02  0.50528853273E+02  0.29999980008E+02 0.  0.
         12    1    1    2    0    0  0.23308539925E+02  0.10197132231E+02  0.31715874155E+02  0.40659146727E+02  0.00000000000E+00 0. -1.
         11    1    3    3    0    0 -0.10845236739E+02  0.37791688787E+01 -0.22680480620E+02  0.25422538794E+02  0.51100000000E-03 0. -1.
        -11    1    3    3    0    0 -0.47369300692E+00  0.12334410029E+01 -0.51971534607E+01  0.53624776109E+01  0.51100000000E-03 0.  1.
         12    1    3    3    0    0 -0.11989610180E+02 -0.15209742113E+02 -0.38382400740E+01  0.19743836868E+02  0.00000000000E+00 0. -1.
</event>
<event>
 7    1  0.3383281E-011  0.5052883E+02  0.7816164E-02  0.1300439E+00
        -11   -1    0    0    0    0  0.00000000000E+00  0.00000000000E+00  0.45593999997E+02  0.45594000000E+02  0.51100000000E-03 0.  1.
         11   -1    0    0    0    0 -0.00000000000E+00 -0.00000000000E+00 -0.45593999997E+02  0.45594000000E+02  0.51100000000E-03 0. -1.
    9900012    2    1    2    0    0  0.73541461681E+01 -0.35838419631E+01  0.39827633226E+02  0.50528834275E+02  0.29999922263E+02 0.  0.
         12    1    1    2    0    0 -0.73541461681E+01  0.35838419631E+01 -0.39827633226E+02  0.40659165725E+02  0.00000000000E+00 0. -1.
         11    1    3    3    0    0  0.99719741353E+01 -0.29819098291E+01  0.16373922338E+02  0.19401994417E+02  0.51100000000E-03 0. -1.
        -11    1    3    3    0    0 -0.46612379309E+01 -0.92267128795E+01  0.71485255861E+01  0.12568245221E+02  0.51100000000E-03 0.  1.
        -12    1    3    3    0    0  0.20434099638E+01  0.86247807456E+01  0.16305185302E+02  0.18558594638E+02  0.00000000000E+00 0.  1.
</event>
<event>
 7    1  0.3383281E-011  0.5052887E+02  0.7816164E-02  0.1300439E+00
        -11   -1    0    0    0    0  0.00000000000E+00  0.00000000000E+00  0.45593999997E+02  0.45594000000E+02  0.51100000000E-03 0.  1.
         11   -1    0    0    0    0 -0.00000000000E+00 -0.00000000000E+00 -0.45593999997E+02  0.45594000000E+02  0.51100000000E-03 0. -1.
    9900012    2    1    2    0    0  0.28790933868E+02  0.22303315971E+02  0.18077872155E+02  0.50528865258E+02  0.30000016439E+02 0.  0.
         12    1    1    2    0    0 -0.28790933868E+02 -0.22303315971E+02 -0.18077872155E+02  0.40659134742E+02  0.00000000000E+00 0. -1.
         11    1    3    3    0    0  0.10041952897E+02 -0.41994091716E+01  0.32362207415E+01  0.11355570454E+02  0.51100000000E-03 0. -1.
        -11    1    3    3    0    0  0.77276348029E+01  0.59970581401E+00  0.55358135896E+01  0.95247687148E+01  0.51100000000E-03 0.  1.
        -12    1    3    3    0    0  0.11021346168E+02  0.25903019329E+02  0.93058378237E+01  0.29648526090E+02  0.00000000000E+00 0.  1.
</event>
<event>
 7    1  0.3383281E-011  0.5052886E+02  0.7816164E-02  0.1300439E+00
        -11   -1    0    0    0    0  0.00000000000E+00  0.00000000000E+00  0.45593999997E+02  0.45594000000E+02  0.51100000000E-03 0. -1.
         11   -1    0    0    0    0 -0.00000000000E+00 -0.00000000000E+00 -0.45593999997E+02  0.45594000000E+02  0.51100000000E-03 0.  1.
    9900012    2    1    2    0    0 -0.32643746842E+02 -0.10438840319E+02 -0.21876526237E+02  0.50528855945E+02  0.29999988129E+02 0.  0.
         12    1    1    2    0    0  0.32643746842E+02  0.10438840319E+02  0.21876526237E+02  0.40659144055E+02  0.00000000000E+00 0. -1.
         11    1    3    3    0    0 -0.28699482612E+01 -0.42552702196E+01 -0.84227503106E+01  0.98633995518E+01  0.51100000000E-03 0. -1.
        -11    1    3    3    0    0 -0.17912424458E+02 -0.59089804746E+01 -0.19685960235E+02  0.27263676033E+02  0.51100000000E-03 0.  1.
        -12    1    3    3    0    0 -0.11861374123E+02 -0.27458962460E+00  0.62321843084E+01  0.13401780360E+02  0.00000000000E+00 0.  1.
</event>
<event>
 7    1  0.3383281E-011  0.5052886E+02  0.7816164E-02  0.1300439E+00
        -11   -1    0    0    0    0  0.00000000000E+00  0.00000000000E+00  0.45593999997E+02  0.45594000000E+02  0.51100000000E-03 0.  1.
         11   -1    0    0    0    0 -0.00000000000E+00 -0.00000000000E+00 -0.45593999997E+02  0.45594000000E+02  0.51100000000E-03 0. -1.
    9900012    2    1    2    0    0 -0.11125477850E+02 -0.54715502493E+01  0.38722755059E+02  0.50528857376E+02  0.29999992481E+02 0.  0.
         12    1    1    2    0    0  0.11125477850E+02  0.54715502493E+01 -0.38722755059E+02  0.40659142624E+02  0.00000000000E+00 0. -1.
         11    1    3    3    0    0 -0.43878914404E+01  0.42346128462E+00 -0.10244979300E+00  0.44094678787E+01  0.51100000000E-03 0. -1.
        -11    1    3    3    0    0 -0.21566290642E+01  0.77472528528E+01  0.52870646557E+01  0.96241378118E+01  0.51100000000E-03 0.  1.
        -12    1    3    3    0    0 -0.45809573458E+01 -0.13642264387E+02  0.33538140196E+02  0.36495251686E+02  0.00000000000E+00 0.  1.
</event>
<event>
 7    1  0.3383281E-011  0.5052886E+02  0.7816164E-02  0.1300439E+00
        -11   -1    0    0    0    0  0.00000000000E+00  0.00000000000E+00  0.45593999997E+02  0.45594000000E+02  0.51100000000E-03 0.  1.
         11   -1    0    0    0    0 -0.00000000000E+00 -0.00000000000E+00 -0.45593999997E+02  0.45594000000E+02  0.51100000000E-03 0. -1.
    9900012    2    1    2    0    0 -0.32488719550E+02 -0.12328639365E+02 -0.21110495432E+02  0.50528864939E+02  0.30000015467E+02 0.  0.
         12    1    1    2    0    0  0.32488719550E+02  0.12328639365E+02  0.21110495432E+02  0.40659135061E+02  0.00000000000E+00 0. -1.
         11    1    3    3    0    0 -0.27272507280E+01  0.71989641804E+01 -0.16171575043E+01  0.78662685219E+01  0.51100000000E-03 0. -1.
        -11    1    3    3    0    0 -0.95955318209E-01  0.15490700027E+01 -0.95312824597E+00  0.18213398944E+01  0.51100000000E-03 0.  1.
        -12    1    3    3    0    0 -0.29665513503E+02 -0.21076673549E+02 -0.18540209681E+02  0.40841256522E+02  0.00000000000E+00 0.  1.
</event>
<event>
 7    1  0.3383281E-011  0.5052886E+02  0.7816164E-02  0.1300439E+00
        -11   -1    0    0    0    0  0.00000000000E+00  0.00000000000E+00  0.45593999997E+02  0.45594000000E+02  0.51100000000E-03 0.  1.
         11   -1    0    0    0    0 -0.00000000000E+00 -0.00000000000E+00 -0.45593999997E+02  0.45594000000E+02  0.51100000000E-03 0. -1.
    9900012    2    1    2    0    0 -0.18025458072E+01  0.32775567662E+02  0.23993298159E+02  0.50528863714E+02  0.30000011746E+02 0.  0.
         12    1    1    2    0    0  0.18025458072E+01 -0.32775567662E+02 -0.23993298159E+02  0.40659136286E+02  0.00000000000E+00 0. -1.
         11    1    3    3    0    0 -0.15625964366E+00  0.64793865085E+01  0.14898915324E+02  0.16247601198E+02  0.51100000000E-03 0. -1.
        -11    1    3    3    0    0  0.12391937708E+01  0.16440276764E+02  0.15123439981E+02  0.22372678392E+02  0.51100000000E-03 0.  1.
        -12    1    3    3    0    0 -0.28854799344E+01  0.98559043889E+01 -0.60290571463E+01  0.11908584124E+02  0.00000000000E+00 0.  1.
</event>
<event>
 7    1  0.3383281E-011  0.5052885E+02  0.7816164E-02  0.1300439E+00
        -11   -1    0    0    0    0  0.00000000000E+00  0.00000000000E+00  0.45593999997E+02  0.45594000000E+02  0.51100000000E-03 0.  1.
         11   -1    0    0    0    0 -0.00000000000E+00 -0.00000000000E+00 -0.45593999997E+02  0.45594000000E+02  0.51100000000E-03 0. -1.
    9900012    2    1    2    0    0  0.33193764139E+02  0.10692193186E+02  0.20904955441E+02  0.50528854229E+02  0.29999982914E+02 0.  0.
         12    1    1    2    0    0 -0.33193764139E+02 -0.10692193186E+02 -0.20904955441E+02  0.40659145771E+02  0.00000000000E+00 0. -1.
         11    1    3    3    0    0  0.44874695067E+01 -0.20764005483E+00  0.13035225276E+01  0.46775707592E+01  0.51100000000E-03 0. -1.
        -11    1    3    3    0    0  0.26536232916E+02  0.19262540058E+02  0.16088167113E+02  0.36524597577E+02  0.51100000000E-03 0.  1.
        -12    1    3    3    0    0  0.21700617164E+01 -0.83627068167E+01  0.35132658005E+01  0.93266858926E+01  0.00000000000E+00 0.  1.
</event>
<event>
 7    1  0.3383281E-011  0.5052886E+02  0.7816164E-02  0.1300439E+00
        -11   -1    0    0    0    0  0.00000000000E+00  0.00000000000E+00  0.45593999997E+02  0.45594000000E+02  0.51100000000E-03 0. -1.
         11   -1    0    0    0    0 -0.00000000000E+00 -0.00000000000E+00 -0.45593999997E+02  0.45594000000E+02  0.51100000000E-03 0.  1.
    9900012    2    1    2    0    0  0.37874316483E+02  0.14229088405E+02 -0.40292243031E+01  0.50528862596E+02  0.30000008348E+02 0.  0.
         12    1    1    2    0    0 -0.37874316483E+02 -0.14229088405E+02  0.40292243031E+01  0.40659137404E+02  0.00000000000E+00 0. -1.
         11    1    3    3    0    0  0.87567702087E+00  0.68311856418E+01 -0.74210620598E+01  0.10124429360E+02  0.51100000000E-03 0. -1.
        -11    1    3    3    0    0  0.12082560017E+02  0.92229641242E+01  0.60665055971E-01  0.15200493555E+02  0.51100000000E-03 0.  1.
        -12    1    3    3    0    0  0.24916079445E+02 -0.18250613606E+01  0.33311727008E+01  0.25203939681E+02  0.00000000000E+00 0.  1.
</event>
<event>
 7    1  0.3383281E-011  0.5052882E+02  0.7816164E-02  0.1300439E+00
        -11   -1    0    0    0    0  0.00000000000E+00  0.00000000000E+00  0.45593999997E+02  0.45594000000E+02  0.51100000000E-03 0.  1.
         11   -1    0    0    0    0 -0.00000000000E+00 -0.00000000000E+00 -0.45593999997E+02  0.45594000000E+02  0.51100000000E-03 0. -1.
    9900012    2    1    2    0    0  0.29474033505E+02 -0.25467385961E+01  0.27892016207E+02  0.50528817807E+02  0.29999872206E+02 0.  0.
         12    1    1    2    0    0 -0.29474033505E+02  0.25467385961E+01 -0.27892016207E+02  0.40659182193E+02  0.00000000000E+00 0. -1.
         11    1    3    3    0    0  0.57057342692E+01  0.14879181991E+01  0.98754859582E+01  0.11501935806E+02  0.51100000000E-03 0. -1.
        -11    1    3    3    0    0  0.24992823815E+02 -0.11168255516E+02  0.13932137624E+02  0.30716048452E+02  0.51100000000E-03 0.  1.
         12    1    3    3    0    0 -0.12245245792E+01  0.71335987206E+01  0.40843926250E+01  0.83108335483E+01  0.00000000000E+00 0. -1.
</event>
<event>
 7    1  0.3383281E-011  0.5052886E+02  0.7816164E-02  0.1300439E+00
        -11   -1    0    0    0    0  0.00000000000E+00  0.00000000000E+00  0.45593999997E+02  0.45594000000E+02  0.51100000000E-03 0. -1.
         11   -1    0    0    0    0 -0.00000000000E+00 -0.00000000000E+00 -0.45593999997E+02  0.45594000000E+02  0.51100000000E-03 0.  1.
    9900012    2    1    2    0    0  0.56418021253E+01 -0.11886725499E+02 -0.38471307321E+02  0.50528860052E+02  0.30000000614E+02 0.  0.
         12    1    1    2    0    0 -0.56418021253E+01  0.11886725499E+02  0.38471307321E+02  0.40659139948E+02  0.00000000000E+00 0. -1.
         11    1    3    3    0    0 -0.37090046454E+01  0.28091874588E+01  0.93183761119E+00  0.47451629301E+01  0.51100000000E-03 0. -1.
        -11    1    3    3    0    0 -0.10289730458E+01 -0.12202210034E+01 -0.19655672071E+02  0.19720374481E+02  0.51100000000E-03 0.  1.
        -12    1    3    3    0    0  0.10379779817E+02 -0.13475691954E+02 -0.19747472861E+02  0.26063322641E+02  0.00000000000E+00 0.  1.
</event>
<event>
 7    1  0.3383281E-011  0.5052887E+02  0.7816164E-02  0.1300439E+00
        -11   -1    0    0    0    0  0.00000000000E+00  0.00000000000E+00  0.45593999997E+02  0.45594000000E+02  0.51100000000E-03 0.  1.
         11   -1    0    0    0    0 -0.00000000000E+00 -0.00000000000E+00 -0.45593999997E+02  0.45594000000E+02  0.51100000000E-03 0. -1.
    9900012    2    1    2    0    0  0.35698410534E+02 -0.18914124447E+02  0.45874027447E+01  0.50528869633E+02  0.30000029735E+02 0.  0.
         12    1    1    2    0    0 -0.35698410534E+02  0.18914124447E+02 -0.45874027447E+01  0.40659130367E+02  0.00000000000E+00 0. -1.
         11    1    3    3    0    0  0.15225619139E+02 -0.50812872619E+00 -0.68288528681E+01  0.16694637005E+02  0.51100000000E-03 0. -1.
        -11    1    3    3    0    0  0.80129654533E+01 -0.12433292930E+02 -0.15665729705E+01  0.14874425689E+02  0.51100000000E-03 0.  1.
        -12    1    3    3    0    0  0.12459825942E+02 -0.59727027913E+01  0.12982828583E+02  0.18959806939E+02  0.00000000000E+00 0.  1.
</event>
<event>
 7    1  0.3383281E-011  0.5052884E+02  0.7816164E-02  0.1300439E+00
        -11   -1    0    0    0    0  0.00000000000E+00  0.00000000000E+00  0.45593999997E+02  0.45594000000E+02  0.51100000000E-03 0. -1.
         11   -1    0    0    0    0 -0.00000000000E+00 -0.00000000000E+00 -0.45593999997E+02  0.45594000000E+02  0.51100000000E-03 0.  1.
    9900012    2    1    2    0    0  0.59824909201E+01 -0.20900526998E+01 -0.40162283124E+02  0.50528837396E+02  0.29999931750E+02 0.  0.
         12    1    1    2    0    0 -0.59824909201E+01  0.20900526998E+01  0.40162283124E+02  0.40659162604E+02  0.00000000000E+00 0. -1.
         11    1    3    3    0    0 -0.12880232232E-01  0.26552917371E+01  0.31544994667E+00  0.26739949587E+01  0.51100000000E-03 0. -1.
        -11    1    3    3    0    0 -0.54714048118E+01  0.45275572425E+01 -0.32450373537E+01  0.78080287453E+01  0.51100000000E-03 0.  1.
        -12    1    3    3    0    0  0.11466775964E+02 -0.92729016793E+01 -0.37232695717E+02  0.40046813692E+02  0.00000000000E+00 0.  1.
</event>
<event>
 7    1  0.3383281E-011  0.5052886E+02  0.7816164E-02  0.1300439E+00
        -11   -1    0    0    0    0  0.00000000000E+00  0.00000000000E+00  0.45593999997E+02  0.45594000000E+02  0.51100000000E-03 0. -1.
         11   -1    0    0    0    0 -0.00000000000E+00 -0.00000000000E+00 -0.45593999997E+02  0.45594000000E+02  0.51100000000E-03 0.  1.
    9900012    2    1    2    0    0 -0.14755216846E+01 -0.21412153457E+02 -0.34532711377E+02  0.50528860376E+02  0.30000001599E+02 0.  0.
         12    1    1    2    0    0  0.14755216846E+01  0.21412153457E+02  0.34532711377E+02  0.40659139624E+02  0.00000000000E+00 0. -1.
         11    1    3    3    0    0  0.40316417211E+01 -0.22414510415E+01  0.21580174197E-01  0.46128845318E+01  0.51100000000E-03 0. -1.
        -11    1    3    3    0    0 -0.26264781342E+01 -0.74576234531E+01  0.13666986955E+01  0.80238644395E+01  0.51100000000E-03 0.  1.
        -12    1    3    3    0    0 -0.28806852715E+01 -0.11713078962E+02 -0.35920990247E+02  0.37892111405E+02  0.00000000000E+00 0.  1.
</event>
<event>
 7    1  0.3383281E-011  0.5052885E+02  0.7816164E-02  0.1300439E+00
        -11   -1    0    0    0    0  0.00000000000E+00  0.00000000000E+00  0.45593999997E+02  0.45594000000E+02  0.51100000000E-03 0.  1.
         11   -1    0    0    0    0 -0.00000000000E+00 -0.00000000000E+00 -0.45593999997E+02  0.45594000000E+02  0.51100000000E-03 0. -1.
    9900012    2    1    2    0    0  0.10178026972E+01 -0.67225735573E+01  0.40086622021E+02  0.50528853642E+02  0.29999981129E+02 0.  0.
         12    1    1    2    0    0 -0.10178026972E+01  0.67225735573E+01 -0.40086622021E+02  0.40659146358E+02  0.00000000000E+00 0. -1.
         11    1    3    3    0    0 -0.48613791543E+01 -0.13700116401E+02  0.12197101544E+02  0.18976181993E+02  0.51100000000E-03 0. -1.
        -11    1    3    3    0    0  0.52825890292E+00 -0.24682781944E+01  0.12295343751E+02  0.12551770111E+02  0.51100000000E-03 0.  1.
        -12    1    3    3    0    0  0.53509229486E+01  0.94458210379E+01  0.15594176726E+02  0.19000901537E+02  0.00000000000E+00 0.  1.
</event>
<event>
 7    1  0.3383281E-011  0.5052887E+02  0.7816164E-02  0.1300439E+00
        -11   -1    0    0    0    0  0.00000000000E+00  0.00000000000E+00  0.45593999997E+02  0.45594000000E+02  0.51100000000E-03 0.  1.
         11   -1    0    0    0    0 -0.00000000000E+00 -0.00000000000E+00 -0.45593999997E+02  0.45594000000E+02  0.51100000000E-03 0. -1.
    9900012    2    1    2    0    0 -0.23636257006E+02 -0.30877232939E+02 -0.11878071936E+02  0.50528871232E+02  0.30000034597E+02 0.  0.
         12    1    1    2    0    0  0.23636257006E+02  0.30877232939E+02  0.11878071936E+02  0.40659128768E+02  0.00000000000E+00 0. -1.
         11    1    3    3    0    0 -0.83082250645E+01 -0.12907889210E+02 -0.52886809674E+01  0.16236081861E+02  0.51100000000E-03 0.  1.
        -11    1    3    3    0    0 -0.79390562356E+01 -0.13063729282E+02 -0.15465065004E+02  0.21745295411E+02  0.51100000000E-03 0. -1.
        -12    1    3    3    0    0 -0.73889757061E+01 -0.49056144469E+01  0.88756740352E+01  0.12547493960E+02  0.00000000000E+00 0.  1.
</event>
<event>
 7    1  0.4197377E-011  0.5052886E+02  0.7816164E-02  0.1300439E+00
        -11   -1    0    0    0    0  0.00000000000E+00  0.00000000000E+00  0.45593999997E+02  0.45594000000E+02  0.51100000000E-03 0.  1.
         11   -1    0    0    0    0 -0.00000000000E+00 -0.00000000000E+00 -0.45593999997E+02  0.45594000000E+02  0.51100000000E-03 0. -1.
    9900012    2    1    2    0    0 -0.50521874553E+01 -0.23033483463E+02  0.33122498318E+02  0.50528857691E+02  0.29999993437E+02 0.  0.
         12    1    1    2    0    0  0.50521874553E+01  0.23033483463E+02 -0.33122498318E+02  0.40659142309E+02  0.00000000000E+00 0. -1.
         11    1    3    3    0    0 -0.27829304649E+01  0.12389276799E+01  0.15000279408E+02  0.15306470081E+02  0.51100000000E-03 0. -1.
        -11    1    3    3    0    0 -0.96062647493E+01 -0.10045232873E+02  0.10887796873E+02  0.17655909688E+02  0.51100000000E-03 0.  1.
         12    1    3    3    0    0  0.73370077589E+01 -0.14227178269E+02  0.72344220373E+01  0.17566477921E+02  0.00000000000E+00 0. -1.
</event>
<event>
 7    1  0.3383281E-011  0.5052885E+02  0.7816164E-02  0.1300439E+00
        -11   -1    0    0    0    0  0.00000000000E+00  0.00000000000E+00  0.45593999997E+02  0.45594000000E+02  0.51100000000E-03 0.  1.
         11   -1    0    0    0    0 -0.00000000000E+00 -0.00000000000E+00 -0.45593999997E+02  0.45594000000E+02  0.51100000000E-03 0. -1.
    9900012    2    1    2    0    0  0.29008816437E+02 -0.20022721940E+02  0.20266863455E+02  0.50528848763E+02  0.29999966301E+02 0.  0.
         12    1    1    2    0    0 -0.29008816437E+02  0.20022721940E+02 -0.20266863455E+02  0.40659151237E+02  0.00000000000E+00 0. -1.
         11    1    3    3    0    0  0.73344345547E+01 -0.59453504485E+01  0.74584151726E+01  0.12032002300E+02  0.51100000000E-03 0. -1.
        -11    1    3    3    0    0  0.15024201820E+02 -0.15762612425E+02  0.19266123392E+02  0.29075248952E+02  0.51100000000E-03 0.  1.
         12    1    3    3    0    0  0.66501800621E+01  0.16852409334E+01 -0.64576751090E+01  0.94215975119E+01  0.00000000000E+00 0. -1.
</event>
<event>
 7    1  0.3383281E-011  0.5052886E+02  0.7816164E-02  0.1300439E+00
        -11   -1    0    0    0    0  0.00000000000E+00  0.00000000000E+00  0.45593999997E+02  0.45594000000E+02  0.51100000000E-03 0.  1.
         11   -1    0    0    0    0 -0.00000000000E+00 -0.00000000000E+00 -0.45593999997E+02  0.45594000000E+02  0.51100000000E-03 0. -1.
    9900012    2    1    2    0    0  0.11077581697E+02  0.65187853949E+01  0.38574064341E+02  0.50528858112E+02  0.29999994718E+02 0.  0.
         12    1    1    2    0    0 -0.11077581697E+02 -0.65187853949E+01 -0.38574064341E+02  0.40659141888E+02  0.00000000000E+00 0. -1.
         11    1    3    3    0    0  0.28633950182E+01 -0.73110190300E+01  0.70354422387E+01  0.10542650428E+02  0.51100000000E-03 0. -1.
        -11    1    3    3    0    0 -0.57768453333E+01  0.42000321998E+01  0.60679392620E+01  0.93718781273E+01  0.51100000000E-03 0.  1.
         12    1    3    3    0    0  0.13991032013E+02  0.96297722251E+01  0.25470682840E+02  0.30614329557E+02  0.00000000000E+00 0. -1.
</event>
<event>
 7    1  0.3383281E-011  0.5052885E+02  0.7816164E-02  0.1300439E+00
        -11   -1    0    0    0    0  0.00000000000E+00  0.00000000000E+00  0.45593999997E+02  0.45594000000E+02  0.51100000000E-03 0.  1.
         11   -1    0    0    0    0 -0.00000000000E+00 -0.00000000000E+00 -0.45593999997E+02  0.45594000000E+02  0.51100000000E-03 0. -1.
    9900012    2    1    2    0    0  0.87123312097E+01 -0.82311427939E+01  0.38852409429E+02  0.50528854101E+02  0.29999982526E+02 0.  0.
         12    1    1    2    0    0 -0.87123312097E+01  0.82311427939E+01 -0.38852409429E+02  0.40659145899E+02  0.00000000000E+00 0. -1.
         11    1    3    3    0    0  0.15835631940E+01 -0.10491787532E+01 -0.42011604464E+01  0.46106613195E+01  0.51100000000E-03 0. -1.
        -11    1    3    3    0    0 -0.60683804649E+00 -0.28955733347E+01  0.12882293223E+01  0.32267835997E+01  0.51100000000E-03 0.  1.
        -12    1    3    3    0    0  0.77356060622E+01 -0.42863907059E+01  0.41765340553E+02  0.42691409182E+02  0.00000000000E+00 0.  1.
</event>
<event>
 7    1  0.3438808E-011  0.5052884E+02  0.7816164E-02  0.1300439E+00
        -11   -1    0    0    0    0  0.00000000000E+00  0.00000000000E+00  0.45593999997E+02  0.45594000000E+02  0.51100000000E-03 0. -1.
         11   -1    0    0    0    0 -0.00000000000E+00 -0.00000000000E+00 -0.45593999997E+02  0.45594000000E+02  0.51100000000E-03 0.  1.
    9900012    2    1    2    0    0 -0.99482319109E+01  0.59560948731E+01 -0.38970816711E+02  0.50528844335E+02  0.29999952841E+02 0.  0.
         12    1    1    2    0    0  0.99482319109E+01 -0.59560948731E+01  0.38970816711E+02  0.40659155665E+02  0.00000000000E+00 0. -1.
         11    1    3    3    0    0 -0.55839866768E+01 -0.27475154696E+01  0.12267904424E+00  0.62245320203E+01  0.51100000000E-03 0. -1.
        -11    1    3    3    0    0 -0.92039674672E+01  0.55213665193E+01 -0.36338239352E+02  0.37890185337E+02  0.51100000000E-03 0.  1.
         12    1    3    3    0    0  0.48397222331E+01  0.31822438234E+01 -0.27552564023E+01  0.64141269778E+01  0.00000000000E+00 0. -1.
</event>
<event>
 7    1  0.3383281E-011  0.5052885E+02  0.7816164E-02  0.1300439E+00
        -11   -1    0    0    0    0  0.00000000000E+00  0.00000000000E+00  0.45593999997E+02  0.45594000000E+02  0.51100000000E-03 0. -1.
         11   -1    0    0    0    0 -0.00000000000E+00 -0.00000000000E+00 -0.45593999997E+02  0.45594000000E+02  0.51100000000E-03 0.  1.
    9900012    2    1    2    0    0 -0.30246419862E+02  0.34706082141E+01 -0.26949494934E+02  0.50528852038E+02  0.29999976254E+02 0.  0.
         12    1    1    2    0    0  0.30246419862E+02 -0.34706082141E+01  0.26949494934E+02  0.40659147962E+02  0.00000000000E+00 0. -1.
         11    1    3    3    0    0 -0.69326671978E+01 -0.31243092425E+01 -0.28635328295E+01  0.81254540332E+01  0.51100000000E-03 0. -1.
        -11    1    3    3    0    0 -0.27202149331E+02  0.13462992631E+01 -0.23266068040E+02  0.35820097323E+02  0.51100000000E-03 0.  1.
        -12    1    3    3    0    0  0.38883966674E+01  0.52486181935E+01 -0.81989406417E+00  0.65833006813E+01  0.00000000000E+00 0.  1.
</event>
<event>
 7    1  0.3383281E-011  0.5052887E+02  0.7816164E-02  0.1300439E+00
        -11   -1    0    0    0    0  0.00000000000E+00  0.00000000000E+00  0.45593999997E+02  0.45594000000E+02  0.51100000000E-03 0.  1.
         11   -1    0    0    0    0 -0.00000000000E+00 -0.00000000000E+00 -0.45593999997E+02  0.45594000000E+02  0.51100000000E-03 0. -1.
    9900012    2    1    2    0    0 -0.39757059354E+02  0.80563144231E+01 -0.27634556040E+01  0.50528872397E+02  0.30000038138E+02 0.  0.
         12    1    1    2    0    0  0.39757059354E+02 -0.80563144231E+01  0.27634556040E+01  0.40659127603E+02  0.00000000000E+00 0. -1.
         11    1    3    3    0    0 -0.94010282602E+01  0.15339734393E+01 -0.61692813338E+01  0.11348675663E+02  0.51100000000E-03 0. -1.
        -11    1    3    3    0    0 -0.23986883281E+02  0.78740107281E+01 -0.76237686943E+01  0.26372191108E+02  0.51100000000E-03 0.  1.
         12    1    3    3    0    0 -0.63691478129E+01 -0.13516697442E+01  0.11029594424E+02  0.12808005626E+02  0.00000000000E+00 0. -1.
</event>
<event>
 7    1  0.3383281E-011  0.5052887E+02  0.7816164E-02  0.1300439E+00
        -11   -1    0    0    0    0  0.00000000000E+00  0.00000000000E+00  0.45593999997E+02  0.45594000000E+02  0.51100000000E-03 0. -1.
         11   -1    0    0    0    0 -0.00000000000E+00 -0.00000000000E+00 -0.45593999997E+02  0.45594000000E+02  0.51100000000E-03 0.  1.
    9900012    2    1    2    0    0  0.17071442373E+02  0.35589984754E+02  0.97511020678E+01  0.50528866327E+02  0.30000019688E+02 0.  0.
         12    1    1    2    0    0 -0.17071442373E+02 -0.35589984754E+02 -0.97511020678E+01  0.40659133673E+02  0.00000000000E+00 0. -1.
         11    1    3    3    0    0  0.18952840015E+02  0.15821634762E+02  0.53167726734E+01  0.25254748921E+02  0.51100000000E-03 0. -1.
        -11    1    3    3    0    0  0.36604362488E+01  0.51796460713E+01 -0.40359802454E+01  0.75177565641E+01  0.51100000000E-03 0.  1.
         12    1    3    3    0    0 -0.55418338899E+01  0.14588703920E+02  0.84703096398E+01  0.17756360842E+02  0.00000000000E+00 0. -1.
</event>
<event>
 7    1  0.3383281E-011  0.5052898E+02  0.7816164E-02  0.1300438E+00
        -11   -1    0    0    0    0  0.00000000000E+00  0.00000000000E+00  0.45593999997E+02  0.45594000000E+02  0.51100000000E-03 0. -1.
         11   -1    0    0    0    0 -0.00000000000E+00 -0.00000000000E+00 -0.45593999997E+02  0.45594000000E+02  0.51100000000E-03 0.  1.
    9900012    2    1    2    0    0  0.63051361026E+01 -0.18048352107E+02 -0.35883948470E+02  0.50528984851E+02  0.30000379951E+02 0.  0.
         12    1    1    2    0    0 -0.63051361026E+01  0.18048352107E+02  0.35883948470E+02  0.40659015149E+02  0.00000000000E+00 0. -1.
         11    1    3    3    0    0 -0.69293894162E+01  0.10822026868E+01 -0.35625012223E+01  0.78663216026E+01  0.51100000000E-03 0. -1.
        -11    1    3    3    0    0 -0.91999048047E+00 -0.23159574305E+01  0.10494537222E+01  0.27039590752E+01  0.51100000000E-03 0.  1.
        -12    1    3    3    0    0  0.14154515999E+02 -0.16814597363E+02 -0.33370900970E+02  0.39958704173E+02  0.00000000000E+00 0.  1.
</event>
<event>
 7    1  0.3383281E-011  0.5052886E+02  0.7816164E-02  0.1300439E+00
        -11   -1    0    0    0    0  0.00000000000E+00  0.00000000000E+00  0.45593999997E+02  0.45594000000E+02  0.51100000000E-03 0.  1.
         11   -1    0    0    0    0 -0.00000000000E+00 -0.00000000000E+00 -0.45593999997E+02  0.45594000000E+02  0.51100000000E-03 0. -1.
    9900012    2    1    2    0    0  0.38157674832E+02  0.11904400316E+02  0.74460133310E+01  0.50528855765E+02  0.29999987582E+02 0.  0.
         12    1    1    2    0    0 -0.38157674832E+02 -0.11904400316E+02 -0.74460133310E+01  0.40659144235E+02  0.00000000000E+00 0. -1.
         11    1    3    3    0    0  0.46490827361E+01 -0.17044725721E+01  0.20242371288E+01  0.53494610244E+01  0.51100000000E-03 0. -1.
        -11    1    3    3    0    0  0.28604650663E+02  0.35748143150E+01  0.13061389146E+02  0.31648147238E+02  0.51100000000E-03 0.  1.
        -12    1    3    3    0    0  0.49039414328E+01  0.10034058573E+02 -0.76396129439E+01  0.13531247502E+02  0.00000000000E+00 0.  1.
</event>
<event>
 7    1  0.3383281E-011  0.5052886E+02  0.7816164E-02  0.1300439E+00
        -11   -1    0    0    0    0  0.00000000000E+00  0.00000000000E+00  0.45593999997E+02  0.45594000000E+02  0.51100000000E-03 0. -1.
         11   -1    0    0    0    0 -0.00000000000E+00 -0.00000000000E+00 -0.45593999997E+02  0.45594000000E+02  0.51100000000E-03 0.  1.
    9900012    2    1    2    0    0  0.27577031380E+01 -0.25328069140E+02 -0.31686748378E+02  0.50528855448E+02  0.29999986619E+02 0.  0.
         12    1    1    2    0    0 -0.27577031380E+01  0.25328069140E+02  0.31686748378E+02  0.40659144552E+02  0.00000000000E+00 0. -1.
         11    1    3    3    0    0  0.27904066436E+01 -0.95541589019E+01 -0.90151049666E+01  0.13429089298E+02  0.51100000000E-03 0. -1.
        -11    1    3    3    0    0  0.52128073152E+01 -0.18630916947E+02 -0.74206119439E+01  0.20720760321E+02  0.51100000000E-03 0.  1.
         12    1    3    3    0    0 -0.52455108209E+01  0.28570067091E+01 -0.15251031467E+02  0.16379005828E+02  0.00000000000E+00 0. -1.
</event>
<event>
 7    1  0.3383281E-011  0.5052887E+02  0.7816164E-02  0.1300439E+00
        -11   -1    0    0    0    0  0.00000000000E+00  0.00000000000E+00  0.45593999997E+02  0.45594000000E+02  0.51100000000E-03 0.  1.
         11   -1    0    0    0    0 -0.00000000000E+00 -0.00000000000E+00 -0.45593999997E+02  0.45594000000E+02  0.51100000000E-03 0. -1.
    9900012    2    1    2    0    0  0.15240365634E+02  0.28562658295E+01  0.37586400583E+02  0.50528874236E+02  0.30000043727E+02 0.  0.
         12    1    1    2    0    0 -0.15240365634E+02 -0.28562658295E+01 -0.37586400583E+02  0.40659125764E+02  0.00000000000E+00 0. -1.
         11    1    3    3    0    0  0.14349150367E+02  0.24372574052E+01  0.10798656641E+02  0.18123170954E+02  0.51100000000E-03 0. -1.
        -11    1    3    3    0    0  0.68896539377E+01 -0.33376523995E+01  0.23280038597E+02  0.24506477762E+02  0.51100000000E-03 0.  1.
         12    1    3    3    0    0 -0.59984386709E+01  0.37566608238E+01  0.35077053446E+01  0.78992255201E+01  0.00000000000E+00 0. -1.
</event>
<event>
 7    1  0.3383281E-011  0.5052886E+02  0.7816164E-02  0.1300439E+00
        -11   -1    0    0    0    0  0.00000000000E+00  0.00000000000E+00  0.45593999997E+02  0.45594000000E+02  0.51100000000E-03 0.  1.
         11   -1    0    0    0    0 -0.00000000000E+00 -0.00000000000E+00 -0.45593999997E+02  0.45594000000E+02  0.51100000000E-03 0. -1.
    9900012    2    1    2    0    0 -0.87870139535E+01 -0.99986652494E+01  0.38418499812E+02  0.50528855287E+02  0.29999986130E+02 0.  0.
         12    1    1    2    0    0  0.87870139535E+01  0.99986652494E+01 -0.38418499812E+02  0.40659144713E+02  0.00000000000E+00 0. -1.
         11    1    3    3    0    0 -0.11734872363E+02 -0.83771762898E+01  0.34380256017E+02  0.37281179112E+02  0.51100000000E-03 0. -1.
        -11    1    3    3    0    0  0.45293248318E+01  0.38354282045E+01  0.46411832121E+01  0.75343131614E+01  0.51100000000E-03 0.  1.
        -12    1    3    3    0    0 -0.15814664223E+01 -0.54569171641E+01 -0.60293941687E+00  0.57133630133E+01  0.00000000000E+00 0.  1.
</event>
<event>
 7    1  0.3383281E-011  0.5052886E+02  0.7816164E-02  0.1300439E+00
        -11   -1    0    0    0    0  0.00000000000E+00  0.00000000000E+00  0.45593999997E+02  0.45594000000E+02  0.51100000000E-03 0. -1.
         11   -1    0    0    0    0 -0.00000000000E+00 -0.00000000000E+00 -0.45593999997E+02  0.45594000000E+02  0.51100000000E-03 0.  1.
    9900012    2    1    2    0    0 -0.12970465223E+02  0.33922881940E+02 -0.18280348073E+02  0.50528855728E+02  0.29999987472E+02 0.  0.
         12    1    1    2    0    0  0.12970465223E+02 -0.33922881940E+02  0.18280348073E+02  0.40659144272E+02  0.00000000000E+00 0. -1.
         11    1    3    3    0    0 -0.69466445329E+01 -0.23529962203E+01 -0.60708788739E+01  0.95209260076E+01  0.51100000000E-03 0. -1.
        -11    1    3    3    0    0 -0.37481875029E+01  0.34440323051E+01  0.15732533180E+01  0.53277945098E+01  0.51100000000E-03 0.  1.
         12    1    3    3    0    0 -0.22756331877E+01  0.32831845856E+02 -0.13782722517E+02  0.35680135211E+02  0.00000000000E+00 0. -1.
</event>
<event>
 7    1  0.3383281E-011  0.5052886E+02  0.7816164E-02  0.1300439E+00
        -11   -1    0    0    0    0  0.00000000000E+00  0.00000000000E+00  0.45593999997E+02  0.45594000000E+02  0.51100000000E-03 0. -1.
         11   -1    0    0    0    0 -0.00000000000E+00 -0.00000000000E+00 -0.45593999997E+02  0.45594000000E+02  0.51100000000E-03 0.  1.
    9900012    2    1    2    0    0  0.29967994073E+02 -0.17686753913E+02 -0.21030074087E+02  0.50528856516E+02  0.29999989866E+02 0.  0.
         12    1    1    2    0    0 -0.29967994073E+02  0.17686753913E+02  0.21030074087E+02  0.40659143484E+02  0.00000000000E+00 0. -1.
         11    1    3    3    0    0  0.85402663769E+00  0.80387347768E-01  0.36671002325E+00  0.93289877577E+00  0.51100000000E-03 0. -1.
        -11    1    3    3    0    0  0.31203251210E+02 -0.93223772402E+01 -0.78539511814E+01  0.33499763476E+02  0.51100000000E-03 0.  1.
         12    1    3    3    0    0 -0.20892837750E+01 -0.84447640207E+01 -0.13542832929E+02  0.16096194265E+02  0.00000000000E+00 0. -1.
</event>
<event>
 7    1  0.3383281E-011  0.5052886E+02  0.7816164E-02  0.1300439E+00
        -11   -1    0    0    0    0  0.00000000000E+00  0.00000000000E+00  0.45593999997E+02  0.45594000000E+02  0.51100000000E-03 0.  1.
         11   -1    0    0    0    0 -0.00000000000E+00 -0.00000000000E+00 -0.45593999997E+02  0.45594000000E+02  0.51100000000E-03 0. -1.
    9900012    2    1    2    0    0  0.11677312217E+02  0.17108386287E+02  0.34987273086E+02  0.50528858593E+02  0.29999996180E+02 0.  0.
         12    1    1    2    0    0 -0.11677312217E+02 -0.17108386287E+02 -0.34987273086E+02  0.40659141407E+02  0.00000000000E+00 0. -1.
         11    1    3    3    0    0 -0.48444652997E+01  0.89311940701E+01  0.32290853202E+01  0.10661241195E+02  0.51100000000E-03 0. -1.
        -11    1    3    3    0    0  0.48196692170E+01  0.66102676668E+01  0.28863255499E+01  0.86750057884E+01  0.51100000000E-03 0.  1.
         12    1    3    3    0    0  0.11702108300E+02  0.15669245497E+01  0.28871862216E+02  0.31192611609E+02  0.00000000000E+00 0. -1.
</event>
<event>
 7    1  0.3383281E-011  0.5052889E+02  0.7816164E-02  0.1300439E+00
        -11   -1    0    0    0    0  0.00000000000E+00  0.00000000000E+00  0.45593999997E+02  0.45594000000E+02  0.51100000000E-03 0.  1.
         11   -1    0    0    0    0 -0.00000000000E+00 -0.00000000000E+00 -0.45593999997E+02  0.45594000000E+02  0.51100000000E-03 0. -1.
    9900012    2    1    2    0    0 -0.32542960979E+02 -0.19104420333E+02 -0.15137366698E+02  0.50528892089E+02  0.30000097994E+02 0.  0.
         12    1    1    2    0    0  0.32542960979E+02  0.19104420333E+02  0.15137366698E+02  0.40659107911E+02  0.00000000000E+00 0. -1.
         11    1    3    3    0    0 -0.12578179579E+02 -0.18622149628E+01  0.66397859593E+00  0.12732608292E+02  0.51100000000E-03 0. -1.
        -11    1    3    3    0    0 -0.30006410310E+01 -0.16446718945E+02 -0.42267213142E+01  0.17244233354E+02  0.51100000000E-03 0.  1.
         12    1    3    3    0    0 -0.16964140370E+02 -0.79548642552E+00 -0.11574623980E+02  0.20552050443E+02  0.00000000000E+00 0. -1.
</event>
<event>
 7    1  0.4579398E-011  0.5052884E+02  0.7816164E-02  0.1300439E+00
        -11   -1    0    0    0    0  0.00000000000E+00  0.00000000000E+00  0.45593999997E+02  0.45594000000E+02  0.51100000000E-03 0. -1.
         11   -1    0    0    0    0 -0.00000000000E+00 -0.00000000000E+00 -0.45593999997E+02  0.45594000000E+02  0.51100000000E-03 0.  1.
    9900012    2    1    2    0    0 -0.16743304841E+02 -0.58290461206E+01 -0.36590313239E+02  0.50528842870E+02  0.29999948386E+02 0.  0.
         12    1    1    2    0    0  0.16743304841E+02  0.58290461206E+01  0.36590313239E+02  0.40659157130E+02  0.00000000000E+00 0. -1.
         11    1    3    3    0    0 -0.93799177656E+01 -0.13536970970E+01 -0.28344701526E+01  0.98918943801E+01  0.51100000000E-03 0. -1.
        -11    1    3    3    0    0 -0.76599354283E+01  0.67417361952E+01 -0.22682581329E+02  0.24872175492E+02  0.51100000000E-03 0.  1.
         12    1    3    3    0    0  0.29654835321E+00 -0.11217085219E+02 -0.11073261757E+02  0.15764772998E+02  0.00000000000E+00 0. -1.
</event>
<event>
 7    1  0.3383281E-011  0.5052886E+02  0.7816164E-02  0.1300439E+00
        -11   -1    0    0    0    0  0.00000000000E+00  0.00000000000E+00  0.45593999997E+02  0.45594000000E+02  0.51100000000E-03 0.  1.
         11   -1    0    0    0    0 -0.00000000000E+00 -0.00000000000E+00 -0.45593999997E+02  0.45594000000E+02  0.51100000000E-03 0. -1.
    9900012    2    1    2    0    0  0.38890724021E+02  0.10147508451E+02  0.61404674390E+01  0.50528859785E+02  0.29999999802E+02 0.  0.
         12    1    1    2    0    0 -0.38890724021E+02 -0.10147508451E+02 -0.61404674390E+01  0.40659140215E+02  0.00000000000E+00 0. -1.
         11    1    3    3    0    0  0.18115845541E+02  0.81449226840E+01  0.82758669064E+01  0.21517750777E+02  0.51100000000E-03 0. -1.
        -11    1    3    3    0    0  0.20384360047E+02  0.83286620062E+01  0.78138369980E+00  0.22034048790E+02  0.51100000000E-03 0.  1.
         12    1    3    3    0    0  0.39051843297E+00 -0.63260762391E+01 -0.29167831672E+01  0.69770602172E+01  0.00000000000E+00 0. -1.
</event>
<event>
 7    1  0.3383281E-011  0.5052885E+02  0.7816164E-02  0.1300439E+00
        -11   -1    0    0    0    0  0.00000000000E+00  0.00000000000E+00  0.45593999997E+02  0.45594000000E+02  0.51100000000E-03 0. -1.
         11   -1    0    0    0    0 -0.00000000000E+00 -0.00000000000E+00 -0.45593999997E+02  0.45594000000E+02  0.51100000000E-03 0.  1.
    9900012    2    1    2    0    0 -0.31349723864E+02  0.64088662887E+01 -0.25085600032E+02  0.50528854873E+02  0.29999984872E+02 0.  0.
         12    1    1    2    0    0  0.31349723864E+02 -0.64088662887E+01  0.25085600032E+02  0.40659145127E+02  0.00000000000E+00 0. -1.
         11    1    3    3    0    0 -0.13277076470E+02  0.44023702069E+01 -0.10803031723E+01  0.14029564435E+02  0.51100000000E-03 0. -1.
        -11    1    3    3    0    0 -0.13133340498E+02 -0.40492631907E+01 -0.29718535329E+01  0.14061048279E+02  0.51100000000E-03 0.  1.
         12    1    3    3    0    0 -0.49393068965E+01  0.60557592725E+01 -0.21033443327E+02  0.22438242159E+02  0.00000000000E+00 0. -1.
</event>
<event>
 7    1  0.3383281E-011  0.5052885E+02  0.7816164E-02  0.1300439E+00
        -11   -1    0    0    0    0  0.00000000000E+00  0.00000000000E+00  0.45593999997E+02  0.45594000000E+02  0.51100000000E-03 0. -1.
         11   -1    0    0    0    0 -0.00000000000E+00 -0.00000000000E+00 -0.45593999997E+02  0.45594000000E+02  0.51100000000E-03 0.  1.
    9900012    2    1    2    0    0 -0.89678062322E+01  0.33969880878E+02  0.20464408070E+02  0.50528851545E+02  0.29999974755E+02 0.  0.
         12    1    1    2    0    0  0.89678062322E+01 -0.33969880878E+02 -0.20464408070E+02  0.40659148455E+02  0.00000000000E+00 0. -1.
         11    1    3    3    0    0  0.14114260370E+01 -0.43997330697E+01  0.47553227397E+01  0.66304501478E+01  0.51100000000E-03 0. -1.
        -11    1    3    3    0    0  0.17469184449E+01  0.38614615560E+01  0.43456943068E+00  0.42604530573E+01  0.51100000000E-03 0.  1.
        -12    1    3    3    0    0 -0.12126150714E+02  0.34508152391E+02  0.15274515899E+02  0.39637948340E+02  0.00000000000E+00 0.  1.
</event>
<event>
 7    1  0.3383281E-011  0.5052886E+02  0.7816164E-02  0.1300439E+00
        -11   -1    0    0    0    0  0.00000000000E+00  0.00000000000E+00  0.45593999997E+02  0.45594000000E+02  0.51100000000E-03 0.  1.
         11   -1    0    0    0    0 -0.00000000000E+00 -0.00000000000E+00 -0.45593999997E+02  0.45594000000E+02  0.51100000000E-03 0. -1.
    9900012    2    1    2    0    0  0.13807256598E+02  0.34210020289E+02  0.17093856174E+02  0.50528859062E+02  0.29999997604E+02 0.  0.
         12    1    1    2    0    0 -0.13807256598E+02 -0.34210020289E+02 -0.17093856174E+02  0.40659140938E+02  0.00000000000E+00 0. -1.
         11    1    3    3    0    0  0.43546001438E+01  0.10982906321E+01  0.75195846616E+01  0.87585922653E+01  0.51100000000E-03 0. -1.
        -11    1    3    3    0    0 -0.19988912551E+01  0.97307708413E+01  0.12051431357E+02  0.15617953305E+02  0.51100000000E-03 0.  1.
         12    1    3    3    0    0  0.11451547709E+02  0.23380958816E+02 -0.24771598440E+01  0.26152313492E+02  0.00000000000E+00 0. -1.
</event>
<event>
 7    1  0.3383281E-011  0.5052886E+02  0.7816164E-02  0.1300439E+00
        -11   -1    0    0    0    0  0.00000000000E+00  0.00000000000E+00  0.45593999997E+02  0.45594000000E+02  0.51100000000E-03 0. -1.
         11   -1    0    0    0    0 -0.00000000000E+00 -0.00000000000E+00 -0.45593999997E+02  0.45594000000E+02  0.51100000000E-03 0.  1.
    9900012    2    1    2    0    0 -0.30662273181E+02 -0.80533342909E+00 -0.26689740372E+02  0.50528858350E+02  0.29999995441E+02 0.  0.
         12    1    1    2    0    0  0.30662273181E+02  0.80533342909E+00  0.26689740372E+02  0.40659141650E+02  0.00000000000E+00 0. -1.
         11    1    3    3    0    0  0.12695458582E+01  0.14525547169E+00 -0.20294757429E+01  0.23982530914E+01  0.51100000000E-03 0. -1.
        -11    1    3    3    0    0 -0.19025653848E+01  0.88080675239E+01 -0.19051516729E+01  0.92103969354E+01  0.51100000000E-03 0.  1.
        -12    1    3    3    0    0 -0.30029253654E+02 -0.97586564247E+01 -0.22755112957E+02  0.38920208323E+02  0.00000000000E+00 0.  1.
</event>
<event>
 7    1  0.3383281E-011  0.5052885E+02  0.7816164E-02  0.1300439E+00
        -11   -1    0    0    0    0  0.00000000000E+00  0.00000000000E+00  0.45593999997E+02  0.45594000000E+02  0.51100000000E-03 0.  1.
         11   -1    0    0    0    0 -0.00000000000E+00 -0.00000000000E+00 -0.45593999997E+02  0.45594000000E+02  0.51100000000E-03 0. -1.
    9900012    2    1    2    0    0  0.52120354194E+01  0.24620504125E+02  0.31934804637E+02  0.50528852397E+02  0.29999977346E+02 0.  0.
         12    1    1    2    0    0 -0.52120354194E+01 -0.24620504125E+02 -0.31934804637E+02  0.40659147603E+02  0.00000000000E+00 0. -1.
         11    1    3    3    0    0  0.44821257000E+01  0.18971067196E+01  0.14201355493E+02  0.15012227109E+02  0.51100000000E-03 0. -1.
        -11    1    3    3    0    0  0.93609332022E+01  0.11591445862E+02  0.15049436038E+02  0.21177209753E+02  0.51100000000E-03 0.  1.
         12    1    3    3    0    0 -0.86310234829E+01  0.11131951543E+02  0.26840131064E+01  0.14339415535E+02  0.00000000000E+00 0. -1.
</event>
<event>
 7    1  0.3383281E-011  0.5052886E+02  0.7816164E-02  0.1300439E+00
        -11   -1    0    0    0    0  0.00000000000E+00  0.00000000000E+00  0.45593999997E+02  0.45594000000E+02  0.51100000000E-03 0.  1.
         11   -1    0    0    0    0 -0.00000000000E+00 -0.00000000000E+00 -0.45593999997E+02  0.45594000000E+02  0.51100000000E-03 0. -1.
    9900012    2    1    2    0    0 -0.19126288702E+02  0.26407852221E+02  0.24289427710E+02  0.50528857401E+02  0.29999992555E+02 0.  0.
         12    1    1    2    0    0  0.19126288702E+02 -0.26407852221E+02 -0.24289427710E+02  0.40659142599E+02  0.00000000000E+00 0. -1.
         11    1    3    3    0    0 -0.20262150994E+02  0.74157018582E+01  0.10927048806E+02  0.24185693970E+02  0.51100000000E-03 0. -1.
        -11    1    3    3    0    0 -0.55769917177E+01  0.73995415845E+01  0.46914335855E+01  0.10385836588E+02  0.51100000000E-03 0.  1.
        -12    1    3    3    0    0  0.67128540100E+01  0.11592608779E+02  0.86709453180E+01  0.15957326843E+02  0.00000000000E+00 0.  1.
</event>
<event>
 7    1  0.3383281E-011  0.5052886E+02  0.7816164E-02  0.1300439E+00
        -11   -1    0    0    0    0  0.00000000000E+00  0.00000000000E+00  0.45593999997E+02  0.45594000000E+02  0.51100000000E-03 0.  1.
         11   -1    0    0    0    0 -0.00000000000E+00 -0.00000000000E+00 -0.45593999997E+02  0.45594000000E+02  0.51100000000E-03 0. -1.
    9900012    2    1    2    0    0 -0.39580012702E+02 -0.75557411931E+01  0.54312855673E+01  0.50528862117E+02  0.30000006890E+02 0.  0.
         12    1    1    2    0    0  0.39580012702E+02  0.75557411931E+01 -0.54312855673E+01  0.40659137883E+02  0.00000000000E+00 0. -1.
         11    1    3    3    0    0 -0.48796538749E+01 -0.36128282764E+01  0.98861000128E+00  0.61514957603E+01  0.51100000000E-03 0. -1.
        -11    1    3    3    0    0 -0.15619502651E+02 -0.15285992527E+02  0.37100594299E+01  0.22167430429E+02  0.51100000000E-03 0.  1.
        -12    1    3    3    0    0 -0.19080856177E+02  0.11343079611E+02  0.73261613618E+00  0.22209935927E+02  0.00000000000E+00 0.  1.
</event>
<event>
 7    1  0.3383281E-011  0.5052888E+02  0.7816164E-02  0.1300439E+00
        -11   -1    0    0    0    0  0.00000000000E+00  0.00000000000E+00  0.45593999997E+02  0.45594000000E+02  0.51100000000E-03 0.  1.
         11   -1    0    0    0    0 -0.00000000000E+00 -0.00000000000E+00 -0.45593999997E+02  0.45594000000E+02  0.51100000000E-03 0. -1.
    9900012    2    1    2    0    0  0.25765644136E+02 -0.33904478546E+01  0.31269807552E+02  0.50528875333E+02  0.30000047061E+02 0.  0.
         12    1    1    2    0    0 -0.25765644136E+02  0.33904478546E+01 -0.31269807552E+02  0.40659124667E+02  0.00000000000E+00 0. -1.
         11    1    3    3    0    0  0.69564912639E+01 -0.35135411135E+01  0.27439782905E+02  0.28525066661E+02  0.51100000000E-03 0. -1.
        -11    1    3    3    0    0  0.37154172278E+01 -0.26109225077E+01 -0.27542562361E+01  0.53110421946E+01  0.51100000000E-03 0.  1.
        -12    1    3    3    0    0  0.15093735644E+02  0.27340157666E+01  0.65842808824E+01  0.16692766477E+02  0.00000000000E+00 0.  1.
</event>
<event>
 7    1  0.3383281E-011  0.5052887E+02  0.7816164E-02  0.1300439E+00
        -11   -1    0    0    0    0  0.00000000000E+00  0.00000000000E+00  0.45593999997E+02  0.45594000000E+02  0.51100000000E-03 0.  1.
         11   -1    0    0    0    0 -0.00000000000E+00 -0.00000000000E+00 -0.45593999997E+02  0.45594000000E+02  0.51100000000E-03 0. -1.
    9900012    2    1    2    0    0  0.33415865018E+02 -0.69291740886E+01  0.22102748447E+02  0.50528868463E+02  0.30000026179E+02 0.  0.
         12    1    1    2    0    0 -0.33415865018E+02  0.69291740886E+01 -0.22102748447E+02  0.40659131537E+02  0.00000000000E+00 0. -1.
         11    1    3    3    0    0  0.15629242399E+02  0.71041078128E+01  0.42423952012E+01  0.17684441837E+02  0.51100000000E-03 0. -1.
        -11    1    3    3    0    0  0.35682773467E+01 -0.97977388065E+00 -0.27476318278E+01  0.46089088733E+01  0.51100000000E-03 0.  1.
        -12    1    3    3    0    0  0.14218345272E+02 -0.13053508021E+02  0.20607985074E+02  0.28235517752E+02  0.00000000000E+00 0.  1.
</event>
<event>
 7    1  0.3383281E-011  0.5052887E+02  0.7816164E-02  0.1300439E+00
        -11   -1    0    0    0    0  0.00000000000E+00  0.00000000000E+00  0.45593999997E+02  0.45594000000E+02  0.51100000000E-03 0. -1.
         11   -1    0    0    0    0 -0.00000000000E+00 -0.00000000000E+00 -0.45593999997E+02  0.45594000000E+02  0.51100000000E-03 0.  1.
    9900012    2    1    2    0    0 -0.10909174642E+02  0.27191078882E+02 -0.28192199960E+02  0.50528868175E+02  0.30000025306E+02 0.  0.
         12    1    1    2    0    0  0.10909174642E+02 -0.27191078882E+02  0.28192199960E+02  0.40659131825E+02  0.00000000000E+00 0. -1.
         11    1    3    3    0    0  0.44048960633E+01  0.31651803617E+01 -0.70261593365E+01  0.88762825176E+01  0.51100000000E-03 0. -1.
        -11    1    3    3    0    0 -0.12321601113E+02  0.24637678071E+02 -0.88053032841E+01  0.28920069172E+02  0.51100000000E-03 0.  1.
         12    1    3    3    0    0 -0.29924695916E+01 -0.61177955078E+00 -0.12360737340E+02  0.12732516485E+02  0.00000000000E+00 0. -1.
</event>
<event>
 7    1  0.3383281E-011  0.5052885E+02  0.7816164E-02  0.1300439E+00
        -11   -1    0    0    0    0  0.00000000000E+00  0.00000000000E+00  0.45593999997E+02  0.45594000000E+02  0.51100000000E-03 0.  1.
         11   -1    0    0    0    0 -0.00000000000E+00 -0.00000000000E+00 -0.45593999997E+02  0.45594000000E+02  0.51100000000E-03 0. -1.
    9900012    2    1    2    0    0 -0.35413242478E+02 -0.96069166516E+01  0.17515027456E+02  0.50528846330E+02  0.29999958906E+02 0.  0.
         12    1    1    2    0    0  0.35413242478E+02  0.96069166516E+01 -0.17515027456E+02  0.40659153670E+02  0.00000000000E+00 0. -1.
         11    1    3    3    0    0 -0.14533193850E+02  0.51813836988E+01  0.36679564778E+01  0.15859204441E+02  0.51100000000E-03 0. -1.
        -11    1    3    3    0    0 -0.16362001603E+02 -0.14112621951E+00  0.84764883089E+01  0.18427855745E+02  0.51100000000E-03 0.  1.
         12    1    3    3    0    0 -0.45180470252E+01 -0.14647174131E+02  0.53705826690E+01  0.16241786144E+02  0.00000000000E+00 0. -1.
</event>
<event>
 7    1  0.3383281E-011  0.5052888E+02  0.7816164E-02  0.1300439E+00
        -11   -1    0    0    0    0  0.00000000000E+00  0.00000000000E+00  0.45593999997E+02  0.45594000000E+02  0.51100000000E-03 0.  1.
         11   -1    0    0    0    0 -0.00000000000E+00 -0.00000000000E+00 -0.45593999997E+02  0.45594000000E+02  0.51100000000E-03 0. -1.
    9900012    2    1    2    0    0  0.98371041658E+00 -0.40104261267E+02 -0.66215347084E+01  0.50528878270E+02  0.30000055989E+02 0.  0.
         12    1    1    2    0    0 -0.98371041658E+00  0.40104261267E+02  0.66215347084E+01  0.40659121730E+02  0.00000000000E+00 0. -1.
         11    1    3    3    0    0 -0.17393748121E+01 -0.27585626758E+02  0.10056519443E+02  0.29413021129E+02  0.51100000000E-03 0.  1.
        -11    1    3    3    0    0  0.20151550069E+01 -0.50636185995E+01 -0.74823676437E+01  0.92567223594E+01  0.51100000000E-03 0. -1.
        -12    1    3    3    0    0  0.70793022170E+00 -0.74550159093E+01 -0.91956865076E+01  0.11859134781E+02  0.00000000000E+00 0.  1.
</event>
<event>
 7    1  0.3445235E-011  0.5052886E+02  0.7816164E-02  0.1300439E+00
        -11   -1    0    0    0    0  0.00000000000E+00  0.00000000000E+00  0.45593999997E+02  0.45594000000E+02  0.51100000000E-03 0. -1.
         11   -1    0    0    0    0 -0.00000000000E+00 -0.00000000000E+00 -0.45593999997E+02  0.45594000000E+02  0.51100000000E-03 0.  1.
    9900012    2    1    2    0    0  0.49308577452E+01  0.37549954782E+02 -0.14793685758E+02  0.50528860799E+02  0.30000002885E+02 0.  0.
         12    1    1    2    0    0 -0.49308577452E+01 -0.37549954782E+02  0.14793685758E+02  0.40659139201E+02  0.00000000000E+00 0. -1.
         11    1    3    3    0    0  0.11293177436E+02  0.10908045058E+02 -0.70268201129E+00  0.15716712947E+02  0.51100000000E-03 0. -1.
        -11    1    3    3    0    0  0.20380872581E+01  0.13959898728E+02 -0.45971385349E-01  0.14107965332E+02  0.51100000000E-03 0.  1.
         12    1    3    3    0    0 -0.84004069484E+01  0.12682010996E+02 -0.14045032362E+02  0.20704182521E+02  0.00000000000E+00 0. -1.
</event>
<event>
 7    1  0.3383281E-011  0.5052886E+02  0.7816164E-02  0.1300439E+00
        -11   -1    0    0    0    0  0.00000000000E+00  0.00000000000E+00  0.45593999997E+02  0.45594000000E+02  0.51100000000E-03 0.  1.
         11   -1    0    0    0    0 -0.00000000000E+00 -0.00000000000E+00 -0.45593999997E+02  0.45594000000E+02  0.51100000000E-03 0. -1.
    9900012    2    1    2    0    0 -0.20654941259E+02 -0.25328904113E+02  0.24186477681E+02  0.50528859766E+02  0.29999999744E+02 0.  0.
         12    1    1    2    0    0  0.20654941259E+02  0.25328904113E+02 -0.24186477681E+02  0.40659140234E+02  0.00000000000E+00 0. -1.
         11    1    3    3    0    0 -0.22465405465E+01 -0.11325234529E+02 -0.27843251417E+01  0.11876882938E+02  0.51100000000E-03 0. -1.
        -11    1    3    3    0    0 -0.12547432009E+02 -0.62647886382E+01  0.54559193901E+01  0.15048344871E+02  0.51100000000E-03 0.  1.
        -12    1    3    3    0    0 -0.58609687035E+01 -0.77388809460E+01  0.21514883433E+02  0.23603631957E+02  0.00000000000E+00 0.  1.
</event>
<event>
 7    1  0.3383281E-011  0.5052886E+02  0.7816164E-02  0.1300439E+00
        -11   -1    0    0    0    0  0.00000000000E+00  0.00000000000E+00  0.45593999997E+02  0.45594000000E+02  0.51100000000E-03 0.  1.
         11   -1    0    0    0    0 -0.00000000000E+00 -0.00000000000E+00 -0.45593999997E+02  0.45594000000E+02  0.51100000000E-03 0. -1.
    9900012    2    1    2    0    0  0.38730339034E+02  0.11354632475E+02 -0.49191952899E+01  0.50528864216E+02  0.30000013272E+02 0.  0.
         12    1    1    2    0    0 -0.38730339034E+02 -0.11354632475E+02  0.49191952899E+01  0.40659135784E+02  0.00000000000E+00 0. -1.
         11    1    3    3    0    0  0.78598470823E+00  0.27437289333E+01  0.66928304888E+01  0.72759742052E+01  0.51100000000E-03 0. -1.
        -11    1    3    3    0    0  0.90928609852E+01 -0.17712850241E+01 -0.82529266687E+01  0.12406787271E+02  0.51100000000E-03 0.  1.
        -12    1    3    3    0    0  0.28851493341E+02  0.10382188566E+02 -0.33590991099E+01  0.30846102740E+02  0.00000000000E+00 0.  1.
</event>
<event>
 7    1  0.3383281E-011  0.5052886E+02  0.7816164E-02  0.1300439E+00
        -11   -1    0    0    0    0  0.00000000000E+00  0.00000000000E+00  0.45593999997E+02  0.45594000000E+02  0.51100000000E-03 0.  1.
         11   -1    0    0    0    0 -0.00000000000E+00 -0.00000000000E+00 -0.45593999997E+02  0.45594000000E+02  0.51100000000E-03 0. -1.
    9900012    2    1    2    0    0 -0.14421416415E+02 -0.14316975865E+02  0.35216651690E+02  0.50528860738E+02  0.30000002698E+02 0.  0.
         12    1    1    2    0    0  0.14421416415E+02  0.14316975865E+02 -0.35216651690E+02  0.40659139262E+02  0.00000000000E+00 0. -1.
         11    1    3    3    0    0  0.73097968936E+01 -0.32868641766E+00  0.10302498118E+02  0.12636559386E+02  0.51100000000E-03 0. -1.
        -11    1    3    3    0    0 -0.15955427310E+01 -0.15817161214E+01  0.92631849734E+01  0.95317458321E+01  0.51100000000E-03 0.  1.
         12    1    3    3    0    0 -0.20135670577E+02 -0.12406573326E+02  0.15650968598E+02  0.28360555519E+02  0.00000000000E+00 0. -1.
</event>
<event>
 7    1  0.3383281E-011  0.5052887E+02  0.7816164E-02  0.1300439E+00
        -11   -1    0    0    0    0  0.00000000000E+00  0.00000000000E+00  0.45593999997E+02  0.45594000000E+02  0.51100000000E-03 0.  1.
         11   -1    0    0    0    0 -0.00000000000E+00 -0.00000000000E+00 -0.45593999997E+02  0.45594000000E+02  0.51100000000E-03 0. -1.
    9900012    2    1    2    0    0 -0.85406131199E+01 -0.24073975211E+02  0.31633312605E+02  0.50528870382E+02  0.30000032014E+02 0.  0.
         12    1    1    2    0    0  0.85406131199E+01  0.24073975211E+02 -0.31633312605E+02  0.40659129618E+02  0.00000000000E+00 0. -1.
         11    1    3    3    0    0 -0.77266547069E+01 -0.17351358163E+02  0.51774494175E+01  0.19686970458E+02  0.51100000000E-03 0. -1.
        -11    1    3    3    0    0  0.86900191329E+00 -0.62325317740E+01  0.24198464592E+01  0.67420526390E+01  0.51100000000E-03 0.  1.
        -12    1    3    3    0    0 -0.16829603263E+01 -0.49008527392E+00  0.24036016728E+02  0.24099847286E+02  0.00000000000E+00 0.  1.
</event>
<event>
 7    1  0.3383281E-011  0.5052885E+02  0.7816164E-02  0.1300439E+00
        -11   -1    0    0    0    0  0.00000000000E+00  0.00000000000E+00  0.45593999997E+02  0.45594000000E+02  0.51100000000E-03 0.  1.
         11   -1    0    0    0    0 -0.00000000000E+00 -0.00000000000E+00 -0.45593999997E+02  0.45594000000E+02  0.51100000000E-03 0. -1.
    9900012    2    1    2    0    0 -0.25934229119E-01 -0.14361977596E+02  0.38038128242E+02  0.50528852527E+02  0.29999977741E+02 0.  0.
         12    1    1    2    0    0  0.25934229119E-01  0.14361977596E+02 -0.38038128242E+02  0.40659147473E+02  0.00000000000E+00 0. -1.
         11    1    3    3    0    0 -0.11288574734E+01 -0.11037624592E+02  0.48287949417E+01  0.12100443656E+02  0.51100000000E-03 0. -1.
        -11    1    3    3    0    0 -0.60180248371E+01 -0.73214159635E+01  0.97884626050E+01  0.13624747891E+02  0.51100000000E-03 0.  1.
         12    1    3    3    0    0  0.71209480813E+01  0.39970629591E+01  0.23420870695E+02  0.24803660980E+02  0.00000000000E+00 0. -1.
</event>
<event>
 7    1  0.3383281E-011  0.5052891E+02  0.7816164E-02  0.1300439E+00
        -11   -1    0    0    0    0  0.00000000000E+00  0.00000000000E+00  0.45593999997E+02  0.45594000000E+02  0.51100000000E-03 0.  1.
         11   -1    0    0    0    0 -0.00000000000E+00 -0.00000000000E+00 -0.45593999997E+02  0.45594000000E+02  0.51100000000E-03 0. -1.
    9900012    2    1    2    0    0 -0.38409801388E+02  0.13111920230E+02 -0.24343197452E+01  0.50528914824E+02  0.30000167098E+02 0.  0.
         12    1    1    2    0    0  0.38409801388E+02 -0.13111920230E+02  0.24343197452E+01  0.40659085176E+02  0.00000000000E+00 0. -1.
         11    1    3    3    0    0  0.44727775723E+00  0.28986713437E+01  0.11497983317E+01  0.31502998929E+01  0.51100000000E-03 0. -1.
        -11    1    3    3    0    0 -0.19923125165E+02  0.10018704091E+02  0.96278203323E+01  0.24289921215E+02  0.51100000000E-03 0.  1.
         12    1    3    3    0    0 -0.18933953980E+02  0.19454479503E+00 -0.13211938409E+02  0.23088693716E+02  0.00000000000E+00 0. -1.
</event>
<event>
 7    1  0.3383281E-011  0.5052886E+02  0.7816164E-02  0.1300439E+00
        -11   -1    0    0    0    0  0.00000000000E+00  0.00000000000E+00  0.45593999997E+02  0.45594000000E+02  0.51100000000E-03 0. -1.
         11   -1    0    0    0    0 -0.00000000000E+00 -0.00000000000E+00 -0.45593999997E+02  0.45594000000E+02  0.51100000000E-03 0.  1.
    9900012    2    1    2    0    0  0.41033165405E+01 -0.40324306130E+02  0.32060111547E+01  0.50528863523E+02  0.30000011166E+02 0.  0.
         12    1    1    2    0    0 -0.41033165405E+01  0.40324306130E+02 -0.32060111547E+01  0.40659136477E+02  0.00000000000E+00 0. -1.
         11    1    3    3    0    0 -0.25272057352E+01  0.75410119943E+00 -0.26805345125E+01  0.37604126077E+01  0.51100000000E-03 0. -1.
        -11    1    3    3    0    0 -0.58210681213E+01 -0.14062826913E+02 -0.34202524862E+01  0.15599553269E+02  0.51100000000E-03 0.  1.
        -12    1    3    3    0    0  0.12451590397E+02 -0.27015580416E+02  0.93067981534E+01  0.31168897647E+02  0.00000000000E+00 0.  1.
</event>
<event>
 7    1  0.3383281E-011  0.5052886E+02  0.7816164E-02  0.1300439E+00
        -11   -1    0    0    0    0  0.00000000000E+00  0.00000000000E+00  0.45593999997E+02  0.45594000000E+02  0.51100000000E-03 0. -1.
         11   -1    0    0    0    0 -0.00000000000E+00 -0.00000000000E+00 -0.45593999997E+02  0.45594000000E+02  0.51100000000E-03 0.  1.
    9900012    2    1    2    0    0 -0.90593012405E+01 -0.21450262301E+02 -0.33331385864E+02  0.50528856190E+02  0.29999988874E+02 0.  0.
         12    1    1    2    0    0  0.90593012405E+01  0.21450262301E+02  0.33331385864E+02  0.40659143810E+02  0.00000000000E+00 0. -1.
         11    1    3    3    0    0 -0.52344610658E+00  0.18528990030E+01 -0.30167933885E+01  0.35788647854E+01  0.51100000000E-03 0. -1.
        -11    1    3    3    0    0 -0.22917022125E+01  0.51118589436E+01 -0.10013838680E+02  0.11474317682E+02  0.51100000000E-03 0.  1.
        -12    1    3    3    0    0 -0.62441529214E+01 -0.28415020248E+02 -0.20300753796E+02  0.35475673722E+02  0.00000000000E+00 0.  1.
</event>
<event>
 7    1  0.3383281E-011  0.5052887E+02  0.7816164E-02  0.1300439E+00
        -11   -1    0    0    0    0  0.00000000000E+00  0.00000000000E+00  0.45593999997E+02  0.45594000000E+02  0.51100000000E-03 0.  1.
         11   -1    0    0    0    0 -0.00000000000E+00 -0.00000000000E+00 -0.45593999997E+02  0.45594000000E+02  0.51100000000E-03 0. -1.
    9900012    2    1    2    0    0 -0.11167342761E+02  0.50054812547E+01  0.38773713077E+02  0.50528865569E+02  0.30000017382E+02 0.  0.
         12    1    1    2    0    0  0.11167342761E+02 -0.50054812547E+01 -0.38773713077E+02  0.40659134431E+02  0.00000000000E+00 0. -1.
         11    1    3    3    0    0 -0.80565958730E+01 -0.57292152909E+01  0.66848794406E+01  0.11933995907E+02  0.51100000000E-03 0. -1.
        -11    1    3    3    0    0 -0.91948518780E+01  0.89824250383E+01  0.28623211805E+02  0.31377022085E+02  0.51100000000E-03 0.  1.
         12    1    3    3    0    0  0.60841049898E+01  0.17522715073E+01  0.34656218316E+01  0.72178475768E+01  0.00000000000E+00 0. -1.
</event>
<event>
 7    1  0.3383281E-011  0.5052891E+02  0.7816164E-02  0.1300439E+00
        -11   -1    0    0    0    0  0.00000000000E+00  0.00000000000E+00  0.45593999997E+02  0.45594000000E+02  0.51100000000E-03 0. -1.
         11   -1    0    0    0    0 -0.00000000000E+00 -0.00000000000E+00 -0.45593999997E+02  0.45594000000E+02  0.51100000000E-03 0.  1.
    9900012    2    1    2    0    0 -0.21821857478E+01  0.32766210755E+02 -0.23974473811E+02  0.50528906351E+02  0.30000141343E+02 0.  0.
         12    1    1    2    0    0  0.21821857478E+01 -0.32766210755E+02  0.23974473811E+02  0.40659093649E+02  0.00000000000E+00 0. -1.
         11    1    3    3    0    0  0.75324856519E+01  0.23733014187E+02 -0.12502082950E+02  0.27862095773E+02  0.51100000000E-03 0. -1.
        -11    1    3    3    0    0 -0.61663058335E+00  0.96286954606E+01 -0.27110956459E+01  0.10022078099E+02  0.51100000000E-03 0.  1.
         12    1    3    3    0    0 -0.90980408164E+01 -0.59549889273E+00 -0.87612952153E+01  0.12644732479E+02  0.00000000000E+00 0. -1.
</event>
<event>
 7    1  0.3383281E-011  0.5052886E+02  0.7816164E-02  0.1300439E+00
        -11   -1    0    0    0    0  0.00000000000E+00  0.00000000000E+00  0.45593999997E+02  0.45594000000E+02  0.51100000000E-03 0.  1.
         11   -1    0    0    0    0 -0.00000000000E+00 -0.00000000000E+00 -0.45593999997E+02  0.45594000000E+02  0.51100000000E-03 0. -1.
    9900012    2    1    2    0    0 -0.16457138497E+02  0.30250545433E+02  0.21615561356E+02  0.50528863275E+02  0.30000010411E+02 0.  0.
         12    1    1    2    0    0  0.16457138497E+02 -0.30250545433E+02 -0.21615561356E+02  0.40659136725E+02  0.00000000000E+00 0. -1.
         11    1    3    3    0    0  0.50736414799E+01  0.67572567801E+01  0.88771003274E+01  0.12255825861E+02  0.51100000000E-03 0. -1.
        -11    1    3    3    0    0 -0.47069737030E+01 -0.22180976939E+01  0.31619304823E+01  0.60887899830E+01  0.51100000000E-03 0.  1.
         12    1    3    3    0    0 -0.16823806274E+02  0.25711386346E+02  0.95765305459E+01  0.32184247431E+02  0.00000000000E+00 0. -1.
</event>
<event>
 7    1  0.3383281E-011  0.5052893E+02  0.7816164E-02  0.1300439E+00
        -11   -1    0    0    0    0  0.00000000000E+00  0.00000000000E+00  0.45593999997E+02  0.45594000000E+02  0.51100000000E-03 0.  1.
         11   -1    0    0    0    0 -0.00000000000E+00 -0.00000000000E+00 -0.45593999997E+02  0.45594000000E+02  0.51100000000E-03 0. -1.
    9900012    2    1    2    0    0  0.21878357121E+02  0.22760773132E+02  0.25621181116E+02  0.50528926897E+02  0.30000203794E+02 0.  0.
         12    1    1    2    0    0 -0.21878357121E+02 -0.22760773132E+02 -0.25621181116E+02  0.40659073103E+02  0.00000000000E+00 0. -1.
         11    1    3    3    0    0 -0.20302349176E+01 -0.39059575516E+00  0.96608614268E+00  0.22820476684E+01  0.51100000000E-03 0. -1.
        -11    1    3    3    0    0 -0.25663457846E+01 -0.77139361154E+00  0.88031099745E+01  0.92019521991E+01  0.51100000000E-03 0.  1.
         12    1    3    3    0    0  0.26474937824E+02  0.23922762498E+02  0.15851984998E+02  0.39044927029E+02  0.00000000000E+00 0. -1.
</event>
<event>
 7    1  0.3383281E-011  0.5052886E+02  0.7816164E-02  0.1300439E+00
        -11   -1    0    0    0    0  0.00000000000E+00  0.00000000000E+00  0.45593999997E+02  0.45594000000E+02  0.51100000000E-03 0.  1.
         11   -1    0    0    0    0 -0.00000000000E+00 -0.00000000000E+00 -0.45593999997E+02  0.45594000000E+02  0.51100000000E-03 0. -1.
    9900012    2    1    2    0    0 -0.22235142595E+02  0.42550548575E+01  0.33773641259E+02  0.50528857092E+02  0.29999991618E+02 0.  0.
         12    1    1    2    0    0  0.22235142595E+02 -0.42550548575E+01 -0.33773641259E+02  0.40659142908E+02  0.00000000000E+00 0. -1.
         11    1    3    3    0    0 -0.80424762565E+01 -0.79635184966E+01  0.54313942061E+01  0.12553847795E+02  0.51100000000E-03 0. -1.
        -11    1    3    3    0    0 -0.69804368870E+01 -0.21541909662E+01  0.28644896149E+01  0.78468043730E+01  0.51100000000E-03 0.  1.
        -12    1    3    3    0    0 -0.72122294515E+01  0.14372764320E+02  0.25477757438E+02  0.30128204924E+02  0.00000000000E+00 0.  1.
</event>
<event>
 7    1  0.3383281E-011  0.5052886E+02  0.7816164E-02  0.1300439E+00
        -11   -1    0    0    0    0  0.00000000000E+00  0.00000000000E+00  0.45593999997E+02  0.45594000000E+02  0.51100000000E-03 0.  1.
         11   -1    0    0    0    0 -0.00000000000E+00 -0.00000000000E+00 -0.45593999997E+02  0.45594000000E+02  0.51100000000E-03 0. -1.
    9900012    2    1    2    0    0  0.39900669647E+02  0.66119975695E+01  0.41694142473E+01  0.50528856314E+02  0.29999989252E+02 0.  0.
         12    1    1    2    0    0 -0.39900669647E+02 -0.66119975695E+01 -0.41694142473E+01  0.40659143686E+02  0.00000000000E+00 0. -1.
         11    1    3    3    0    0  0.51228804277E+00 -0.56562691166E+00  0.94526333654E+00  0.12148645515E+01  0.51100000000E-03 0. -1.
        -11    1    3    3    0    0 -0.37907519267E+01  0.44808158773E+01 -0.50158548731E+00  0.58905941431E+01  0.51100000000E-03 0.  1.
        -12    1    3    3    0    0  0.43179133531E+02  0.26968086039E+01  0.37257363980E+01  0.43423397619E+02  0.00000000000E+00 0.  1.
</event>
<event>
 7    1  0.3383281E-011  0.5052885E+02  0.7816164E-02  0.1300439E+00
        -11   -1    0    0    0    0  0.00000000000E+00  0.00000000000E+00  0.45593999997E+02  0.45594000000E+02  0.51100000000E-03 0. -1.
         11   -1    0    0    0    0 -0.00000000000E+00 -0.00000000000E+00 -0.45593999997E+02  0.45594000000E+02  0.51100000000E-03 0.  1.
    9900012    2    1    2    0    0  0.35324436275E+02 -0.74145416827E+01 -0.18718315182E+02  0.50528849126E+02  0.29999967404E+02 0.  0.
         12    1    1    2    0    0 -0.35324436275E+02  0.74145416827E+01  0.18718315182E+02  0.40659150874E+02  0.00000000000E+00 0. -1.
         11    1    3    3    0    0 -0.12760489001E+01 -0.27668470912E+01 -0.94451275445E+00  0.31899605367E+01  0.51100000000E-03 0. -1.
        -11    1    3    3    0    0  0.63379495304E+01 -0.35693980437E+01 -0.15318476810E+02  0.16957769272E+02  0.51100000000E-03 0.  1.
        -12    1    3    3    0    0  0.30262535645E+02 -0.10782965478E+01 -0.24553256175E+01  0.30381119318E+02  0.00000000000E+00 0.  1.
</event>
<event>
 7    1  0.3383281E-011  0.5052886E+02  0.7816164E-02  0.1300439E+00
        -11   -1    0    0    0    0  0.00000000000E+00  0.00000000000E+00  0.45593999997E+02  0.45594000000E+02  0.51100000000E-03 0.  1.
         11   -1    0    0    0    0 -0.00000000000E+00 -0.00000000000E+00 -0.45593999997E+02  0.45594000000E+02  0.51100000000E-03 0. -1.
    9900012    2    1    2    0    0 -0.12707239950E+01 -0.10264537054E+02  0.39321629710E+02  0.50528855599E+02  0.29999987078E+02 0.  0.
         12    1    1    2    0    0  0.12707239950E+01  0.10264537054E+02 -0.39321629710E+02  0.40659144401E+02  0.00000000000E+00 0. -1.
         11    1    3    3    0    0  0.86849589756E+01  0.14613631166E+01  0.21966866214E+02  0.23666586279E+02  0.51100000000E-03 0. -1.
        -11    1    3    3    0    0  0.19316014557E+01 -0.97364336012E-02  0.69054878805E+01  0.71705607947E+01  0.51100000000E-03 0.  1.
         12    1    3    3    0    0 -0.11887284426E+02 -0.11716163737E+02  0.10449275615E+02  0.19691708525E+02  0.00000000000E+00 0. -1.
</event>
<event>
 7    1  0.3383281E-011  0.5052885E+02  0.7816164E-02  0.1300439E+00
        -11   -1    0    0    0    0  0.00000000000E+00  0.00000000000E+00  0.45593999997E+02  0.45594000000E+02  0.51100000000E-03 0.  1.
         11   -1    0    0    0    0 -0.00000000000E+00 -0.00000000000E+00 -0.45593999997E+02  0.45594000000E+02  0.51100000000E-03 0. -1.
    9900012    2    1    2    0    0 -0.16564876094E+02 -0.24297491101E+02  0.28078516157E+02  0.50528852648E+02  0.29999978110E+02 0.  0.
         12    1    1    2    0    0  0.16564876094E+02  0.24297491101E+02 -0.28078516157E+02  0.40659147352E+02  0.00000000000E+00 0. -1.
         11    1    3    3    0    0 -0.12045565543E+02 -0.22885814423E+01  0.75362895192E+01  0.14391973953E+02  0.51100000000E-03 0. -1.
        -11    1    3    3    0    0 -0.11630537851E+02 -0.97843935996E+01  0.13542992016E+02  0.20357219894E+02  0.51100000000E-03 0.  1.
        -12    1    3    3    0    0  0.71112273007E+01 -0.12224516059E+02  0.69992346217E+01  0.15779658801E+02  0.00000000000E+00 0.  1.
</event>
<event>
 7    1  0.3383281E-011  0.5052885E+02  0.7816164E-02  0.1300439E+00
        -11   -1    0    0    0    0  0.00000000000E+00  0.00000000000E+00  0.45593999997E+02  0.45594000000E+02  0.51100000000E-03 0.  1.
         11   -1    0    0    0    0 -0.00000000000E+00 -0.00000000000E+00 -0.45593999997E+02  0.45594000000E+02  0.51100000000E-03 0. -1.
    9900012    2    1    2    0    0  0.11826797436E+02 -0.23403785098E+02  0.31073397270E+02  0.50528852045E+02  0.29999976277E+02 0.  0.
         12    1    1    2    0    0 -0.11826797436E+02  0.23403785098E+02 -0.31073397270E+02  0.40659147955E+02  0.00000000000E+00 0. -1.
         11    1    3    3    0    0 -0.31512754263E+01 -0.58602143299E+01  0.27824606245E+01  0.72121242497E+01  0.51100000000E-03 0. -1.
        -11    1    3    3    0    0  0.42286925510E+01 -0.18876295565E+02  0.93222047963E+01  0.21473236307E+02  0.51100000000E-03 0.  1.
        -12    1    3    3    0    0  0.10749380311E+02  0.13327247976E+01  0.18968731849E+02  0.21843491489E+02  0.00000000000E+00 0.  1.
</event>
<event>
 7    1  0.3383281E-011  0.5052886E+02  0.7816164E-02  0.1300439E+00
        -11   -1    0    0    0    0  0.00000000000E+00  0.00000000000E+00  0.45593999997E+02  0.45594000000E+02  0.51100000000E-03 0. -1.
         11   -1    0    0    0    0 -0.00000000000E+00 -0.00000000000E+00 -0.45593999997E+02  0.45594000000E+02  0.51100000000E-03 0.  1.
    9900012    2    1    2    0    0  0.36236463334E+02 -0.17450216406E+02 -0.59644427491E+01  0.50528857057E+02  0.29999991511E+02 0.  0.
         12    1    1    2    0    0 -0.36236463334E+02  0.17450216406E+02  0.59644427491E+01  0.40659142943E+02  0.00000000000E+00 0. -1.
         11    1    3    3    0    0  0.14173254306E+02 -0.47963293832E+01  0.14177601379E+00  0.14963489362E+02  0.51100000000E-03 0. -1.
        -11    1    3    3    0    0  0.17942608291E+02 -0.10752404379E+02  0.67114380602E+01  0.21968040270E+02  0.51100000000E-03 0.  1.
         12    1    3    3    0    0  0.41206007367E+01 -0.19014826434E+01 -0.12817656823E+02  0.13597327425E+02  0.00000000000E+00 0. -1.
</event>
<event>
 7    1  0.3383281E-011  0.5052884E+02  0.7816164E-02  0.1300439E+00
        -11   -1    0    0    0    0  0.00000000000E+00  0.00000000000E+00  0.45593999997E+02  0.45594000000E+02  0.51100000000E-03 0.  1.
         11   -1    0    0    0    0 -0.00000000000E+00 -0.00000000000E+00 -0.45593999997E+02  0.45594000000E+02  0.51100000000E-03 0. -1.
    9900012    2    1    2    0    0 -0.51030235150E+01 -0.32138804808E+02  0.24376695633E+02  0.50528844654E+02  0.29999953812E+02 0.  0.
         12    1    1    2    0    0  0.51030235150E+01  0.32138804808E+02 -0.24376695633E+02  0.40659155346E+02  0.00000000000E+00 0. -1.
         11    1    3    3    0    0  0.68316217909E+01 -0.11653470126E+02  0.75391044545E+01  0.15469729102E+02  0.51100000000E-03 0. -1.
        -11    1    3    3    0    0  0.47512198294E+01 -0.79729227149E+01  0.20845101633E+01  0.95124533832E+01  0.51100000000E-03 0.  1.
        -12    1    3    3    0    0 -0.16685865135E+02 -0.12512411967E+02  0.14753081015E+02  0.25546662169E+02  0.00000000000E+00 0.  1.
</event>
<event>
 7    1  0.3383281E-011  0.5052884E+02  0.7816164E-02  0.1300439E+00
        -11   -1    0    0    0    0  0.00000000000E+00  0.00000000000E+00  0.45593999997E+02  0.45594000000E+02  0.51100000000E-03 0.  1.
         11   -1    0    0    0    0 -0.00000000000E+00 -0.00000000000E+00 -0.45593999997E+02  0.45594000000E+02  0.51100000000E-03 0. -1.
    9900012    2    1    2    0    0 -0.12271391400E+02  0.38500313148E+02  0.45061906147E+01  0.50528844657E+02  0.29999953819E+02 0.  0.
         12    1    1    2    0    0  0.12271391400E+02 -0.38500313148E+02 -0.45061906147E+01  0.40659155343E+02  0.00000000000E+00 0. -1.
         11    1    3    3    0    0  0.37109292298E+01 -0.37979044874E+00  0.42573100465E+01  0.56603821096E+01  0.51100000000E-03 0. -1.
        -11    1    3    3    0    0 -0.10969077719E+01  0.13040879022E+01 -0.38833543907E+01  0.42407892546E+01  0.51100000000E-03 0.  1.
        -12    1    3    3    0    0 -0.14885412858E+02  0.37576015694E+02  0.41322349590E+01  0.40627673293E+02  0.00000000000E+00 0.  1.
</event>
<event>
 7    1  0.3383281E-011  0.5052887E+02  0.7816164E-02  0.1300439E+00
        -11   -1    0    0    0    0  0.00000000000E+00  0.00000000000E+00  0.45593999997E+02  0.45594000000E+02  0.51100000000E-03 0. -1.
         11   -1    0    0    0    0 -0.00000000000E+00 -0.00000000000E+00 -0.45593999997E+02  0.45594000000E+02  0.51100000000E-03 0.  1.
    9900012    2    1    2    0    0  0.77241660001E+01 -0.36459511632E+02 -0.16254417052E+02  0.50528870613E+02  0.30000032714E+02 0.  0.
         12    1    1    2    0    0 -0.77241660001E+01  0.36459511632E+02  0.16254417052E+02  0.40659129387E+02  0.00000000000E+00 0. -1.
         11    1    3    3    0    0  0.28011554395E+01 -0.62606073009E+01 -0.31518275857E+01  0.75482244908E+01  0.51100000000E-03 0.  1.
        -11    1    3    3    0    0 -0.10442067422E+01 -0.33705723511E+02 -0.88747362352E+01  0.34870146381E+02  0.51100000000E-03 0. -1.
         12    1    3    3    0    0  0.59672173028E+01  0.35068191801E+01 -0.42278532314E+01  0.81104997409E+01  0.00000000000E+00 0. -1.
</event>
<event>
 7    1  0.3383281E-011  0.5052892E+02  0.7816164E-02  0.1300439E+00
        -11   -1    0    0    0    0  0.00000000000E+00  0.00000000000E+00  0.45593999997E+02  0.45594000000E+02  0.51100000000E-03 0. -1.
         11   -1    0    0    0    0 -0.00000000000E+00 -0.00000000000E+00 -0.45593999997E+02  0.45594000000E+02  0.51100000000E-03 0.  1.
    9900012    2    1    2    0    0 -0.19481480280E+01 -0.35696468631E+02 -0.19368216545E+02  0.50528917797E+02  0.30000176136E+02 0.  0.
         12    1    1    2    0    0  0.19481480280E+01  0.35696468631E+02  0.19368216545E+02  0.40659082203E+02  0.00000000000E+00 0. -1.
         11    1    3    3    0    0  0.36571566134E+01 -0.53393857745E+01  0.47826408161E+01  0.80472037616E+01  0.51100000000E-03 0. -1.
        -11    1    3    3    0    0  0.48652421124E+01 -0.81343683385E+01 -0.26659410369E+01  0.98461043541E+01  0.51100000000E-03 0.  1.
         12    1    3    3    0    0 -0.10470546754E+02 -0.22222714518E+02 -0.21484916324E+02  0.32635609682E+02  0.00000000000E+00 0. -1.
</event>
<event>
 7    1  0.3383281E-011  0.5052886E+02  0.7816164E-02  0.1300439E+00
        -11   -1    0    0    0    0  0.00000000000E+00  0.00000000000E+00  0.45593999997E+02  0.45594000000E+02  0.51100000000E-03 0.  1.
         11   -1    0    0    0    0 -0.00000000000E+00 -0.00000000000E+00 -0.45593999997E+02  0.45594000000E+02  0.51100000000E-03 0. -1.
    9900012    2    1    2    0    0 -0.23240005289E+02 -0.60877808721E+00  0.33357113891E+02  0.50528861990E+02  0.30000006504E+02 0.  0.
         12    1    1    2    0    0  0.23240005289E+02  0.60877808721E+00 -0.33357113891E+02  0.40659138010E+02  0.00000000000E+00 0. -1.
         11    1    3    3    0    0 -0.10620188561E+02 -0.74350231602E+01  0.13379215711E+02  0.18629852060E+02  0.51100000000E-03 0. -1.
        -11    1    3    3    0    0 -0.27616227721E+00 -0.61485665570E+01  0.89680979514E+01  0.10876944306E+02  0.51100000000E-03 0.  1.
         12    1    3    3    0    0 -0.12343654451E+02  0.12974811630E+02  0.11009800229E+02  0.21022065624E+02  0.00000000000E+00 0. -1.
</event>
<event>
 7    1  0.3383281E-011  0.5052885E+02  0.7816164E-02  0.1300439E+00
        -11   -1    0    0    0    0  0.00000000000E+00  0.00000000000E+00  0.45593999997E+02  0.45594000000E+02  0.51100000000E-03 0.  1.
         11   -1    0    0    0    0 -0.00000000000E+00 -0.00000000000E+00 -0.45593999997E+02  0.45594000000E+02  0.51100000000E-03 0. -1.
    9900012    2    1    2    0    0 -0.40544825195E+02  0.11926608411E+01  0.28038495160E+01  0.50528845286E+02  0.29999955731E+02 0.  0.
         12    1    1    2    0    0  0.40544825195E+02 -0.11926608411E+01 -0.28038495160E+01  0.40659154714E+02  0.00000000000E+00 0. -1.
         11    1    3    3    0    0 -0.22259776820E+01  0.32969719998E+01 -0.42778179450E+01  0.58416374109E+01  0.51100000000E-03 0. -1.
        -11    1    3    3    0    0  0.14928778057E+01  0.34070003832E+01  0.18574755102E+01  0.41577098607E+01  0.51100000000E-03 0.  1.
        -12    1    3    3    0    0 -0.39811725319E+02 -0.55113115418E+01  0.52241919508E+01  0.40529498014E+02  0.00000000000E+00 0.  1.
</event>
<event>
 7    1  0.3383281E-011  0.5052885E+02  0.7816164E-02  0.1300439E+00
        -11   -1    0    0    0    0  0.00000000000E+00  0.00000000000E+00  0.45593999997E+02  0.45594000000E+02  0.51100000000E-03 0.  1.
         11   -1    0    0    0    0 -0.00000000000E+00 -0.00000000000E+00 -0.45593999997E+02  0.45594000000E+02  0.51100000000E-03 0. -1.
    9900012    2    1    2    0    0  0.93963119964E+00  0.40157554863E+02 -0.62971558324E+01  0.50528852309E+02  0.29999977079E+02 0.  0.
         12    1    1    2    0    0 -0.93963119964E+00 -0.40157554863E+02  0.62971558324E+01  0.40659147691E+02  0.00000000000E+00 0. -1.
         11    1    3    3    0    0 -0.53899525699E+00  0.57700336201E+01  0.33650153720E+01  0.67012784287E+01  0.51100000000E-03 0.  1.
        -11    1    3    3    0    0  0.12169070216E+02  0.21656316957E+02 -0.50119422915E+00  0.24846197496E+02  0.51100000000E-03 0. -1.
         12    1    3    3    0    0 -0.10690443759E+02  0.12731204286E+02 -0.91609769752E+01  0.18981376385E+02  0.00000000000E+00 0. -1.
</event>
<event>
 7    1  0.3383281E-011  0.5052886E+02  0.7816164E-02  0.1300439E+00
        -11   -1    0    0    0    0  0.00000000000E+00  0.00000000000E+00  0.45593999997E+02  0.45594000000E+02  0.51100000000E-03 0. -1.
         11   -1    0    0    0    0 -0.00000000000E+00 -0.00000000000E+00 -0.45593999997E+02  0.45594000000E+02  0.51100000000E-03 0.  1.
    9900012    2    1    2    0    0 -0.68387271651E+01  0.38676721076E+02 -0.10512323017E+02  0.50528857391E+02  0.29999992526E+02 0.  0.
         12    1    1    2    0    0  0.68387271651E+01 -0.38676721076E+02  0.10512323017E+02  0.40659142609E+02  0.00000000000E+00 0. -1.
         11    1    3    3    0    0  0.47849231101E+01  0.12575689972E+02 -0.12545101989E+02  0.18396278200E+02  0.51100000000E-03 0.  1.
        -11    1    3    3    0    0  0.26117315016E+01  0.40889198023E+00 -0.33649291467E+00  0.26648755751E+01  0.51100000000E-03 0. -1.
        -12    1    3    3    0    0 -0.14235381777E+02  0.25692139125E+02  0.23692718869E+01  0.29467703616E+02  0.00000000000E+00 0.  1.
</event>
<event>
 7    1  0.3383281E-011  0.5052887E+02  0.7816164E-02  0.1300439E+00
        -11   -1    0    0    0    0  0.00000000000E+00  0.00000000000E+00  0.45593999997E+02  0.45594000000E+02  0.51100000000E-03 0.  1.
         11   -1    0    0    0    0 -0.00000000000E+00 -0.00000000000E+00 -0.45593999997E+02  0.45594000000E+02  0.51100000000E-03 0. -1.
    9900012    2    1    2    0    0  0.24880311751E+02 -0.88631091884E+01  0.30912465203E+02  0.50528866681E+02  0.30000020763E+02 0.  0.
         12    1    1    2    0    0 -0.24880311751E+02  0.88631091884E+01 -0.30912465203E+02  0.40659133319E+02  0.00000000000E+00 0. -1.
         11    1    3    3    0    0 -0.87339996088E+00 -0.40737001774E+00  0.56015807716E+01  0.56838794168E+01  0.51100000000E-03 0. -1.
        -11    1    3    3    0    0  0.17235198547E+02 -0.69726058928E+01  0.29783383499E+02  0.35110101606E+02  0.51100000000E-03 0.  1.
         12    1    3    3    0    0  0.85185131648E+01 -0.14831332779E+01 -0.44724990673E+01  0.97348856576E+01  0.00000000000E+00 0. -1.
</event>
<event>
 7    1  0.3383281E-011  0.5052886E+02  0.7816164E-02  0.1300439E+00
        -11   -1    0    0    0    0  0.00000000000E+00  0.00000000000E+00  0.45593999997E+02  0.45594000000E+02  0.51100000000E-03 0.  1.
         11   -1    0    0    0    0 -0.00000000000E+00 -0.00000000000E+00 -0.45593999997E+02  0.45594000000E+02  0.51100000000E-03 0. -1.
    9900012    2    1    2    0    0  0.29230806593E+02  0.17267911972E+02  0.22372858476E+02  0.50528860384E+02  0.30000001622E+02 0.  0.
         12    1    1    2    0    0 -0.29230806593E+02 -0.17267911972E+02 -0.22372858476E+02  0.40659139616E+02  0.00000000000E+00 0. -1.
         11    1    3    3    0    0  0.10747760450E+02  0.11196576683E+02  0.10620021574E+02  0.18805917755E+02  0.51100000000E-03 0. -1.
        -11    1    3    3    0    0  0.12205274700E+02 -0.30656598753E+01  0.15550562389E+02  0.20004674250E+02  0.51100000000E-03 0.  1.
         12    1    3    3    0    0  0.62777714422E+01  0.91369951638E+01 -0.37977254867E+01  0.11718268378E+02  0.00000000000E+00 0. -1.
</event>
<event>
 7    1  0.3383281E-011  0.5052886E+02  0.7816164E-02  0.1300439E+00
        -11   -1    0    0    0    0  0.00000000000E+00  0.00000000000E+00  0.45593999997E+02  0.45594000000E+02  0.51100000000E-03 0.  1.
         11   -1    0    0    0    0 -0.00000000000E+00 -0.00000000000E+00 -0.45593999997E+02  0.45594000000E+02  0.51100000000E-03 0. -1.
    9900012    2    1    2    0    0 -0.35400917853E+01 -0.23425274473E+02  0.33043756795E+02  0.50528860842E+02  0.30000003014E+02 0.  0.
         12    1    1    2    0    0  0.35400917853E+01  0.23425274473E+02 -0.33043756795E+02  0.40659139158E+02  0.00000000000E+00 0. -1.
         11    1    3    3    0    0 -0.59683123925E+01 -0.11947612642E+01  0.93773504938E+01  0.11179575566E+02  0.51100000000E-03 0. -1.
        -11    1    3    3    0    0  0.16209821869E+01 -0.24646666015E+02  0.26023193823E+02  0.35878856530E+02  0.51100000000E-03 0.  1.
         12    1    3    3    0    0  0.80723842022E+00  0.24161528066E+01 -0.23567875217E+01  0.34704287450E+01  0.00000000000E+00 0. -1.
</event>
<event>
 7    1  0.3383281E-011  0.5052886E+02  0.7816164E-02  0.1300439E+00
        -11   -1    0    0    0    0  0.00000000000E+00  0.00000000000E+00  0.45593999997E+02  0.45594000000E+02  0.51100000000E-03 0.  1.
         11   -1    0    0    0    0 -0.00000000000E+00 -0.00000000000E+00 -0.45593999997E+02  0.45594000000E+02  0.51100000000E-03 0. -1.
    9900012    2    1    2    0    0  0.39474560500E+02  0.62840102225E+01  0.74455403731E+01  0.50528858561E+02  0.29999996081E+02 0.  0.
         12    1    1    2    0    0 -0.39474560500E+02 -0.62840102225E+01 -0.74455403731E+01  0.40659141439E+02  0.00000000000E+00 0. -1.
         11    1    3    3    0    0  0.23735631849E+02  0.72409614982E+01 -0.69470846027E-01  0.24815651697E+02  0.51100000000E-03 0. -1.
        -11    1    3    3    0    0  0.14510837716E+02 -0.20645358104E+01  0.13241580285E+02  0.19752624333E+02  0.51100000000E-03 0.  1.
        -12    1    3    3    0    0  0.12280909349E+01  0.11075845347E+01 -0.57265690657E+01  0.59605825311E+01  0.00000000000E+00 0.  1.
</event>
<event>
 7    1  0.3383281E-011  0.5052889E+02  0.7816164E-02  0.1300439E+00
        -11   -1    0    0    0    0  0.00000000000E+00  0.00000000000E+00  0.45593999997E+02  0.45594000000E+02  0.51100000000E-03 0.  1.
         11   -1    0    0    0    0 -0.00000000000E+00 -0.00000000000E+00 -0.45593999997E+02  0.45594000000E+02  0.51100000000E-03 0. -1.
    9900012    2    1    2    0    0  0.35652778765E+02  0.33172707425E+01  0.19262358923E+02  0.50528887982E+02  0.30000085510E+02 0.  0.
         12    1    1    2    0    0 -0.35652778765E+02 -0.33172707425E+01 -0.19262358923E+02  0.40659112018E+02  0.00000000000E+00 0. -1.
         11    1    3    3    0    0  0.31444877910E+01  0.79488593232E+00 -0.16914953107E+01  0.36579780973E+01  0.51100000000E-03 0. -1.
        -11    1    3    3    0    0  0.16993510282E+02  0.12593208082E+02  0.34988774159E+01  0.21438526650E+02  0.51100000000E-03 0.  1.
         12    1    3    3    0    0  0.15514780692E+02 -0.10070823272E+02  0.17454976818E+02  0.25432383235E+02  0.00000000000E+00 0. -1.
</event>
<event>
 7    1  0.3383281E-011  0.5052886E+02  0.7816164E-02  0.1300439E+00
        -11   -1    0    0    0    0  0.00000000000E+00  0.00000000000E+00  0.45593999997E+02  0.45594000000E+02  0.51100000000E-03 0.  1.
         11   -1    0    0    0    0 -0.00000000000E+00 -0.00000000000E+00 -0.45593999997E+02  0.45594000000E+02  0.51100000000E-03 0. -1.
    9900012    2    1    2    0    0  0.35815362182E+02 -0.19097291820E+02 -0.23914028181E+01  0.50528861660E+02  0.30000005501E+02 0.  0.
         12    1    1    2    0    0 -0.35815362182E+02  0.19097291820E+02  0.23914028181E+01  0.40659138340E+02  0.00000000000E+00 0. -1.
         11    1    3    3    0    0  0.87681593198E+01 -0.35092033396E+01 -0.17936828485E+01  0.96131381119E+01  0.51100000000E-03 0.  1.
        -11    1    3    3    0    0  0.11928515474E+02 -0.12554652010E+02 -0.12565600086E+02  0.21396333197E+02  0.51100000000E-03 0. -1.
        -12    1    3    3    0    0  0.15118687389E+02 -0.30334364708E+01  0.11967880117E+02  0.19519390351E+02  0.00000000000E+00 0.  1.
</event>
<event>
 7    1  0.3383281E-011  0.5052886E+02  0.7816164E-02  0.1300439E+00
        -11   -1    0    0    0    0  0.00000000000E+00  0.00000000000E+00  0.45593999997E+02  0.45594000000E+02  0.51100000000E-03 0. -1.
         11   -1    0    0    0    0 -0.00000000000E+00 -0.00000000000E+00 -0.45593999997E+02  0.45594000000E+02  0.51100000000E-03 0.  1.
    9900012    2    1    2    0    0  0.32894030554E+02 -0.68425626467E+01 -0.22898203374E+02  0.50528860469E+02  0.30000001883E+02 0.  0.
         12    1    1    2    0    0 -0.32894030554E+02  0.68425626467E+01  0.22898203374E+02  0.40659139531E+02  0.00000000000E+00 0. -1.
         11    1    3    3    0    0  0.18484742843E+01  0.19747408604E+01 -0.12062184300E+02  0.12361745387E+02  0.51100000000E-03 0.  1.
        -11    1    3    3    0    0  0.12088695641E+02  0.38855202347E+01  0.45746351336E+00  0.12706026244E+02  0.51100000000E-03 0. -1.
        -12    1    3    3    0    0  0.18956860628E+02 -0.12702823742E+02 -0.11293482586E+02  0.25461088838E+02  0.00000000000E+00 0.  1.
</event>
<event>
 7    1  0.3383281E-011  0.5052886E+02  0.7816164E-02  0.1300439E+00
        -11   -1    0    0    0    0  0.00000000000E+00  0.00000000000E+00  0.45593999997E+02  0.45594000000E+02  0.51100000000E-03 0. -1.
         11   -1    0    0    0    0 -0.00000000000E+00 -0.00000000000E+00 -0.45593999997E+02  0.45594000000E+02  0.51100000000E-03 0.  1.
    9900012    2    1    2    0    0  0.29147294529E+02  0.23536971160E+02 -0.15799099322E+02  0.50528864137E+02  0.30000013031E+02 0.  0.
         12    1    1    2    0    0 -0.29147294529E+02 -0.23536971160E+02  0.15799099322E+02  0.40659135863E+02  0.00000000000E+00 0. -1.
         11    1    3    3    0    0  0.83120236932E+01  0.38927545722E+01 -0.10287847643E+02  0.13787062248E+02  0.51100000000E-03 0.  1.
        -11    1    3    3    0    0 -0.24850370161E+01  0.58440265110E+01  0.45761725429E+01  0.78274778975E+01  0.51100000000E-03 0. -1.
         12    1    3    3    0    0  0.23320307852E+02  0.13800190077E+02 -0.10087424221E+02  0.28914323992E+02  0.00000000000E+00 0. -1.
</event>
<event>
 7    1  0.3383281E-011  0.5052885E+02  0.7816164E-02  0.1300439E+00
        -11   -1    0    0    0    0  0.00000000000E+00  0.00000000000E+00  0.45593999997E+02  0.45594000000E+02  0.51100000000E-03 0.  1.
         11   -1    0    0    0    0 -0.00000000000E+00 -0.00000000000E+00 -0.45593999997E+02  0.45594000000E+02  0.51100000000E-03 0. -1.
    9900012    2    1    2    0    0 -0.15786031100E+02 -0.33543749469E+02  0.16696839733E+02  0.50528851418E+02  0.29999974370E+02 0.  0.
         12    1    1    2    0    0  0.15786031100E+02  0.33543749469E+02 -0.16696839733E+02  0.40659148582E+02  0.00000000000E+00 0. -1.
         11    1    3    3    0    0 -0.85615738941E+00 -0.98703603374E+01  0.12869245493E+02  0.16241135998E+02  0.51100000000E-03 0. -1.
        -11    1    3    3    0    0  0.37012945803E+00 -0.17326757708E+02  0.20414088791E+00  0.17331912827E+02  0.51100000000E-03 0.  1.
         12    1    3    3    0    0 -0.15300003168E+02 -0.63466314236E+01  0.36234533517E+01  0.16955802593E+02  0.00000000000E+00 0. -1.
</event>
<event>
 7    1  0.3383281E-011  0.5052886E+02  0.7816164E-02  0.1300439E+00
        -11   -1    0    0    0    0  0.00000000000E+00  0.00000000000E+00  0.45593999997E+02  0.45594000000E+02  0.51100000000E-03 0.  1.
         11   -1    0    0    0    0 -0.00000000000E+00 -0.00000000000E+00 -0.45593999997E+02  0.45594000000E+02  0.51100000000E-03 0. -1.
    9900012    2    1    2    0    0 -0.23836515311E+02  0.28713407941E+02  0.16140832862E+02  0.50528859045E+02  0.29999997554E+02 0.  0.
         12    1    1    2    0    0  0.23836515311E+02 -0.28713407941E+02 -0.16140832862E+02  0.40659140955E+02  0.00000000000E+00 0. -1.
         11    1    3    3    0    0  0.24692655907E+00 -0.68091903034E+00 -0.10422204001E+01  0.12691915044E+01  0.51100000000E-03 0. -1.
        -11    1    3    3    0    0 -0.21673732460E+02  0.71288571937E+01  0.36870848111E+01  0.23112028866E+02  0.51100000000E-03 0.  1.
        -12    1    3    3    0    0 -0.24097094095E+01  0.22265469777E+02  0.13495968451E+02  0.26147638675E+02  0.00000000000E+00 0.  1.
</event>
<event>
 7    1  0.3383281E-011  0.5052883E+02  0.7816164E-02  0.1300439E+00
        -11   -1    0    0    0    0  0.00000000000E+00  0.00000000000E+00  0.45593999997E+02  0.45594000000E+02  0.51100000000E-03 0. -1.
         11   -1    0    0    0    0 -0.00000000000E+00 -0.00000000000E+00 -0.45593999997E+02  0.45594000000E+02  0.51100000000E-03 0.  1.
    9900012    2    1    2    0    0  0.17527482624E+02 -0.51114854578E+01 -0.36329437066E+02  0.50528832174E+02  0.29999915877E+02 0.  0.
         12    1    1    2    0    0 -0.17527482624E+02  0.51114854578E+01  0.36329437066E+02  0.40659167826E+02  0.00000000000E+00 0. -1.
         11    1    3    3    0    0  0.10167932683E+02  0.56214935939E+01 -0.46371824456E+01  0.12509656533E+02  0.51100000000E-03 0. -1.
        -11    1    3    3    0    0 -0.14558316964E+01  0.31716705568E+01 -0.18824228133E+01  0.39651552250E+01  0.51100000000E-03 0.  1.
        -12    1    3    3    0    0  0.88153816379E+01 -0.13904649609E+02 -0.29809831807E+02  0.34054020417E+02  0.00000000000E+00 0.  1.
</event>
<event>
 7    1  0.3383281E-011  0.5052887E+02  0.7816164E-02  0.1300439E+00
        -11   -1    0    0    0    0  0.00000000000E+00  0.00000000000E+00  0.45593999997E+02  0.45594000000E+02  0.51100000000E-03 0.  1.
         11   -1    0    0    0    0 -0.00000000000E+00 -0.00000000000E+00 -0.45593999997E+02  0.45594000000E+02  0.51100000000E-03 0. -1.
    9900012    2    1    2    0    0  0.13827926909E+02  0.37950336922E+02 -0.46610666541E+01  0.50528866002E+02  0.30000018700E+02 0.  0.
         12    1    1    2    0    0 -0.13827926909E+02 -0.37950336922E+02  0.46610666541E+01  0.40659133998E+02  0.00000000000E+00 0. -1.
         11    1    3    3    0    0  0.19726208017E+02  0.25280291687E+02 -0.51351765205E+01  0.32474397126E+02  0.51100000000E-03 0. -1.
        -11    1    3    3    0    0  0.15608122980E+01  0.95985374761E+01 -0.12527410054E+01  0.98049689953E+01  0.51100000000E-03 0.  1.
        -12    1    3    3    0    0 -0.74590934060E+01  0.30715077592E+01  0.17268508718E+01  0.82494998810E+01  0.00000000000E+00 0.  1.
</event>
<event>
 7    1  0.3383281E-011  0.5052885E+02  0.7816164E-02  0.1300439E+00
        -11   -1    0    0    0    0  0.00000000000E+00  0.00000000000E+00  0.45593999997E+02  0.45594000000E+02  0.51100000000E-03 0.  1.
         11   -1    0    0    0    0 -0.00000000000E+00 -0.00000000000E+00 -0.45593999997E+02  0.45594000000E+02  0.51100000000E-03 0. -1.
    9900012    2    1    2    0    0  0.10738951295E+01 -0.33923638111E+02  0.22387490964E+02  0.50528853119E+02  0.29999979540E+02 0.  0.
         12    1    1    2    0    0 -0.10738951295E+01  0.33923638111E+02 -0.22387490964E+02  0.40659146881E+02  0.00000000000E+00 0. -1.
         11    1    3    3    0    0  0.70419978551E+01 -0.51425969866E+01  0.13316758220E+02  0.15917665887E+02  0.51100000000E-03 0. -1.
        -11    1    3    3    0    0  0.39377178120E+01 -0.30208857316E+01  0.43738210115E+01  0.66152613458E+01  0.51100000000E-03 0.  1.
         12    1    3    3    0    0 -0.99058205376E+01 -0.25760155393E+02  0.46969117332E+01  0.27995925886E+02  0.00000000000E+00 0. -1.
</event>
<event>
 7    1  0.3383281E-011  0.5052887E+02  0.7816164E-02  0.1300439E+00
        -11   -1    0    0    0    0  0.00000000000E+00  0.00000000000E+00  0.45593999997E+02  0.45594000000E+02  0.51100000000E-03 0.  1.
         11   -1    0    0    0    0 -0.00000000000E+00 -0.00000000000E+00 -0.45593999997E+02  0.45594000000E+02  0.51100000000E-03 0. -1.
    9900012    2    1    2    0    0 -0.39518872877E+02  0.68352324817E+01  0.66860392680E+01  0.50528870181E+02  0.30000031402E+02 0.  0.
         12    1    1    2    0    0  0.39518872877E+02 -0.68352324817E+01 -0.66860392680E+01  0.40659129819E+02  0.00000000000E+00 0. -1.
         11    1    3    3    0    0 -0.36197427812E+00  0.32854612658E+00  0.21507302708E+01  0.22055858392E+01  0.51100000000E-03 0. -1.
        -11    1    3    3    0    0 -0.18010722378E+02 -0.99509481805E+01  0.61575547701E+01  0.21478430373E+02  0.51100000000E-03 0.  1.
         12    1    3    3    0    0 -0.21146176221E+02  0.16457634536E+02 -0.16222457729E+01  0.26844853969E+02  0.00000000000E+00 0. -1.
</event>
<event>
 7    1  0.3383281E-011  0.5052885E+02  0.7816164E-02  0.1300439E+00
        -11   -1    0    0    0    0  0.00000000000E+00  0.00000000000E+00  0.45593999997E+02  0.45594000000E+02  0.51100000000E-03 0.  1.
         11   -1    0    0    0    0 -0.00000000000E+00 -0.00000000000E+00 -0.45593999997E+02  0.45594000000E+02  0.51100000000E-03 0. -1.
    9900012    2    1    2    0    0  0.12344530534E+02  0.38315019287E+02  0.57217318117E+01  0.50528851559E+02  0.29999974798E+02 0.  0.
         12    1    1    2    0    0 -0.12344530534E+02 -0.38315019287E+02 -0.57217318117E+01  0.40659148441E+02  0.00000000000E+00 0. -1.
         11    1    3    3    0    0  0.10225334744E+02  0.16101265712E+02 -0.16947299348E+01  0.19148899132E+02  0.51100000000E-03 0. -1.
        -11    1    3    3    0    0  0.11441330152E+02  0.11405053183E+02  0.29329687069E+01  0.16418939657E+02  0.51100000000E-03 0.  1.
         12    1    3    3    0    0 -0.93221343632E+01  0.10808700392E+02  0.44834930396E+01  0.14961012769E+02  0.00000000000E+00 0. -1.
</event>
<event>
 7    1  0.3383281E-011  0.5052885E+02  0.7816164E-02  0.1300439E+00
        -11   -1    0    0    0    0  0.00000000000E+00  0.00000000000E+00  0.45593999997E+02  0.45594000000E+02  0.51100000000E-03 0. -1.
         11   -1    0    0    0    0 -0.00000000000E+00 -0.00000000000E+00 -0.45593999997E+02  0.45594000000E+02  0.51100000000E-03 0.  1.
    9900012    2    1    2    0    0  0.30788262628E+02 -0.26306738522E+02 -0.36338685040E+01  0.50528848415E+02  0.29999965242E+02 0.  0.
         12    1    1    2    0    0 -0.30788262628E+02  0.26306738522E+02  0.36338685040E+01  0.40659151585E+02  0.00000000000E+00 0. -1.
         11    1    3    3    0    0  0.10496609024E+02 -0.18004033614E+02  0.98242962149E+01  0.23039983155E+02  0.51100000000E-03 0. -1.
        -11    1    3    3    0    0  0.20485498974E+01 -0.49683363812E+01 -0.23004023148E+01  0.58457483823E+01  0.51100000000E-03 0.  1.
        -12    1    3    3    0    0  0.18243103706E+02 -0.33343685264E+01 -0.11157762404E+02  0.21643116878E+02  0.00000000000E+00 0.  1.
</event>
<event>
 7    1  0.3383281E-011  0.5052893E+02  0.7816164E-02  0.1300439E+00
        -11   -1    0    0    0    0  0.00000000000E+00  0.00000000000E+00  0.45593999997E+02  0.45594000000E+02  0.51100000000E-03 0. -1.
         11   -1    0    0    0    0 -0.00000000000E+00 -0.00000000000E+00 -0.45593999997E+02  0.45594000000E+02  0.51100000000E-03 0.  1.
    9900012    2    1    2    0    0  0.34760353538E+02 -0.14443430528E+02 -0.15370929512E+02  0.50528925521E+02  0.30000199612E+02 0.  0.
         12    1    1    2    0    0 -0.34760353538E+02  0.14443430528E+02  0.15370929512E+02  0.40659074479E+02  0.00000000000E+00 0. -1.
         11    1    3    3    0    0  0.11445819557E+02 -0.37659403713E+01 -0.10305359348E+02  0.15855268013E+02  0.51100000000E-03 0. -1.
        -11    1    3    3    0    0  0.12685429392E+02  0.81076112971E+00 -0.12067949730E+02  0.17527488794E+02  0.51100000000E-03 0.  1.
         12    1    3    3    0    0  0.10629104588E+02 -0.11488251286E+02  0.70023795663E+01  0.17146168713E+02  0.00000000000E+00 0. -1.
</event>
<event>
 7    1  0.3383281E-011  0.5052886E+02  0.7816164E-02  0.1300439E+00
        -11   -1    0    0    0    0  0.00000000000E+00  0.00000000000E+00  0.45593999997E+02  0.45594000000E+02  0.51100000000E-03 0.  1.
         11   -1    0    0    0    0 -0.00000000000E+00 -0.00000000000E+00 -0.45593999997E+02  0.45594000000E+02  0.51100000000E-03 0. -1.
    9900012    2    1    2    0    0 -0.27316228590E+02  0.30007197393E+02 -0.25606940454E+01  0.50528863342E+02  0.30000010615E+02 0.  0.
         12    1    1    2    0    0  0.27316228590E+02 -0.30007197393E+02  0.25606940454E+01  0.40659136658E+02  0.00000000000E+00 0. -1.
         11    1    3    3    0    0 -0.19688417780E+01  0.16311530412E+02  0.57236310970E+01  0.17398342321E+02  0.51100000000E-03 0. -1.
        -11    1    3    3    0    0 -0.11517931627E+02  0.12849420304E+01  0.21981308462E+01  0.11795999511E+02  0.51100000000E-03 0.  1.
        -12    1    3    3    0    0 -0.13829455185E+02  0.12410724950E+02 -0.10482455989E+02  0.21334521510E+02  0.00000000000E+00 0.  1.
</event>
<event>
 7    1  0.3383281E-011  0.5052885E+02  0.7816164E-02  0.1300439E+00
        -11   -1    0    0    0    0  0.00000000000E+00  0.00000000000E+00  0.45593999997E+02  0.45594000000E+02  0.51100000000E-03 0.  1.
         11   -1    0    0    0    0 -0.00000000000E+00 -0.00000000000E+00 -0.45593999997E+02  0.45594000000E+02  0.51100000000E-03 0. -1.
    9900012    2    1    2    0    0 -0.65641905282E+01 -0.21081187993E+02  0.34141788214E+02  0.50528846209E+02  0.29999958538E+02 0.  0.
         12    1    1    2    0    0  0.65641905282E+01  0.21081187993E+02 -0.34141788214E+02  0.40659153791E+02  0.00000000000E+00 0. -1.
         11    1    3    3    0    0  0.18257526628E+01 -0.80456298185E+01  0.62155184589E+01  0.10329482172E+02  0.51100000000E-03 0. -1.
        -11    1    3    3    0    0  0.50429786877E+00 -0.16970065780E+02  0.97327000507E+01  0.19569437893E+02  0.51100000000E-03 0.  1.
        -12    1    3    3    0    0 -0.88942410597E+01  0.39345076054E+01  0.18193569705E+02  0.20629926145E+02  0.00000000000E+00 0.  1.
</event>
<event>
 7    1  0.3383281E-011  0.5052884E+02  0.7816164E-02  0.1300439E+00
        -11   -1    0    0    0    0  0.00000000000E+00  0.00000000000E+00  0.45593999997E+02  0.45594000000E+02  0.51100000000E-03 0. -1.
         11   -1    0    0    0    0 -0.00000000000E+00 -0.00000000000E+00 -0.45593999997E+02  0.45594000000E+02  0.51100000000E-03 0.  1.
    9900012    2    1    2    0    0  0.19585415503E+02 -0.31534671302E+02  0.16587432390E+02  0.50528844723E+02  0.29999954021E+02 0.  0.
         12    1    1    2    0    0 -0.19585415503E+02  0.31534671302E+02 -0.16587432390E+02  0.40659155277E+02  0.00000000000E+00 0. -1.
         11    1    3    3    0    0  0.70584384750E+01 -0.94630015112E+00 -0.29583474255E+01  0.77116053732E+01  0.51100000000E-03 0. -1.
        -11    1    3    3    0    0  0.14499340668E+02 -0.12250759035E+02  0.59103963238E+01  0.19880763610E+02  0.51100000000E-03 0.  1.
        -12    1    3    3    0    0 -0.19723636400E+01 -0.18337612116E+02  0.13635383491E+02  0.22936475740E+02  0.00000000000E+00 0.  1.
</event>
<event>
 7    1  0.3383281E-011  0.5052886E+02  0.7816164E-02  0.1300439E+00
        -11   -1    0    0    0    0  0.00000000000E+00  0.00000000000E+00  0.45593999997E+02  0.45594000000E+02  0.51100000000E-03 0.  1.
         11   -1    0    0    0    0 -0.00000000000E+00 -0.00000000000E+00 -0.45593999997E+02  0.45594000000E+02  0.51100000000E-03 0. -1.
    9900012    2    1    2    0    0 -0.39863126880E+02 -0.70956500180E+01 -0.37079247086E+01  0.50528857861E+02  0.29999993954E+02 0.  0.
         12    1    1    2    0    0  0.39863126880E+02  0.70956500180E+01  0.37079247086E+01  0.40659142139E+02  0.00000000000E+00 0. -1.
         11    1    3    3    0    0 -0.60669834762E+01  0.67860057652E+01 -0.21743033406E+01  0.93587263035E+01  0.51100000000E-03 0.  1.
        -11    1    3    3    0    0 -0.14547772500E+02  0.34405193591E+01 -0.29456934971E+01  0.15236534009E+02  0.51100000000E-03 0. -1.
         12    1    3    3    0    0 -0.19248370904E+02 -0.17322175142E+02  0.14120721290E+01  0.25933597549E+02  0.00000000000E+00 0. -1.
</event>
<event>
 7    1  0.3383281E-011  0.5052886E+02  0.7816164E-02  0.1300439E+00
        -11   -1    0    0    0    0  0.00000000000E+00  0.00000000000E+00  0.45593999997E+02  0.45594000000E+02  0.51100000000E-03 0.  1.
         11   -1    0    0    0    0 -0.00000000000E+00 -0.00000000000E+00 -0.45593999997E+02  0.45594000000E+02  0.51100000000E-03 0. -1.
    9900012    2    1    2    0    0 -0.20919104080E+02  0.73529128071E+01  0.34080657112E+02  0.50528862879E+02  0.30000009207E+02 0.  0.
         12    1    1    2    0    0  0.20919104080E+02 -0.73529128071E+01 -0.34080657112E+02  0.40659137121E+02  0.00000000000E+00 0. -1.
         11    1    3    3    0    0 -0.16557803670E+01  0.14344723973E+01  0.85801597901E+01  0.88554199204E+01  0.51100000000E-03 0.  1.
        -11    1    3    3    0    0 -0.14583285647E+02  0.15914897707E+02  0.19603929856E+02  0.29159393947E+02  0.51100000000E-03 0. -1.
         12    1    3    3    0    0 -0.46800380666E+01 -0.99964572970E+01  0.58965674655E+01  0.12514049012E+02  0.00000000000E+00 0. -1.
</event>
<event>
 7    1  0.3383281E-011  0.5052886E+02  0.7816164E-02  0.1300439E+00
        -11   -1    0    0    0    0  0.00000000000E+00  0.00000000000E+00  0.45593999997E+02  0.45594000000E+02  0.51100000000E-03 0.  1.
         11   -1    0    0    0    0 -0.00000000000E+00 -0.00000000000E+00 -0.45593999997E+02  0.45594000000E+02  0.51100000000E-03 0. -1.
    9900012    2    1    2    0    0  0.38752126587E+02  0.10655316091E+02  0.61564810363E+01  0.50528864068E+02  0.30000012820E+02 0.  0.
         12    1    1    2    0    0 -0.38752126587E+02 -0.10655316091E+02 -0.61564810363E+01  0.40659135932E+02  0.00000000000E+00 0. -1.
         11    1    3    3    0    0  0.27208138042E+02  0.62498936103E+01  0.58122233349E+01  0.28515362284E+02  0.51100000000E-03 0.  1.
        -11    1    3    3    0    0  0.15292023087E+02  0.14267463913E+00 -0.27663666839E+01  0.15540885144E+02  0.51100000000E-03 0. -1.
         12    1    3    3    0    0 -0.37480345426E+01  0.42627478419E+01  0.31106243854E+01  0.64726166395E+01  0.00000000000E+00 0. -1.
</event>
<event>
 7    1  0.3383281E-011  0.5052886E+02  0.7816164E-02  0.1300439E+00
        -11   -1    0    0    0    0  0.00000000000E+00  0.00000000000E+00  0.45593999997E+02  0.45594000000E+02  0.51100000000E-03 0.  1.
         11   -1    0    0    0    0 -0.00000000000E+00 -0.00000000000E+00 -0.45593999997E+02  0.45594000000E+02  0.51100000000E-03 0. -1.
    9900012    2    1    2    0    0  0.28592478302E+02 -0.52816624078E+01  0.28420760848E+02  0.50528863014E+02  0.30000009618E+02 0.  0.
         12    1    1    2    0    0 -0.28592478302E+02  0.52816624078E+01 -0.28420760848E+02  0.40659136986E+02  0.00000000000E+00 0. -1.
         11    1    3    3    0    0  0.15410280754E+02  0.85471107969E+00  0.21951770643E+02  0.26834446493E+02  0.51100000000E-03 0. -1.
        -11    1    3    3    0    0  0.77092161902E+01  0.93230786348E-01  0.11610780557E+02  0.13937393288E+02  0.51100000000E-03 0.  1.
         12    1    3    3    0    0  0.54729813577E+01 -0.62296042738E+01 -0.51417903521E+01  0.97570232333E+01  0.00000000000E+00 0. -1.
</event>
<event>
 7    1  0.3383281E-011  0.5052888E+02  0.7816164E-02  0.1300439E+00
        -11   -1    0    0    0    0  0.00000000000E+00  0.00000000000E+00  0.45593999997E+02  0.45594000000E+02  0.51100000000E-03 0.  1.
         11   -1    0    0    0    0 -0.00000000000E+00 -0.00000000000E+00 -0.45593999997E+02  0.45594000000E+02  0.51100000000E-03 0. -1.
    9900012    2    1    2    0    0  0.12602114950E+02  0.77475259371E+01  0.37872506878E+02  0.50528877572E+02  0.30000053868E+02 0.  0.
         12    1    1    2    0    0 -0.12602114950E+02 -0.77475259371E+01 -0.37872506878E+02  0.40659122428E+02  0.00000000000E+00 0. -1.
         11    1    3    3    0    0  0.73839836691E+01 -0.67167464830E+01  0.92745357133E+01  0.13625524251E+02  0.51100000000E-03 0. -1.
        -11    1    3    3    0    0  0.11383997818E+02  0.79324598530E+01  0.13647863323E+02  0.19462361090E+02  0.51100000000E-03 0.  1.
        -12    1    3    3    0    0 -0.61658665368E+01  0.65318125671E+01  0.14950107841E+02  0.17440992232E+02  0.00000000000E+00 0.  1.
</event>
<event>
 7    1  0.4283768E-011  0.5052886E+02  0.7816164E-02  0.1300439E+00
        -11   -1    0    0    0    0  0.00000000000E+00  0.00000000000E+00  0.45593999997E+02  0.45594000000E+02  0.51100000000E-03 0.  1.
         11   -1    0    0    0    0 -0.00000000000E+00 -0.00000000000E+00 -0.45593999997E+02  0.45594000000E+02  0.51100000000E-03 0. -1.
    9900012    2    1    2    0    0  0.27080072195E+02  0.21044644740E+02  0.21839377935E+02  0.50528858213E+02  0.29999995023E+02 0.  0.
         12    1    1    2    0    0 -0.27080072195E+02 -0.21044644740E+02 -0.21839377935E+02  0.40659141787E+02  0.00000000000E+00 0. -1.
         11    1    3    3    0    0 -0.95354960443E-01  0.12680047822E+01  0.49070030439E+01  0.50690835296E+01  0.51100000000E-03 0. -1.
        -11    1    3    3    0    0  0.18849742632E+02  0.22184187919E+02  0.20990995517E+02  0.35889732292E+02  0.51100000000E-03 0.  1.
         12    1    3    3    0    0  0.83256845239E+01 -0.24075479617E+01 -0.40586206263E+01  0.95700423911E+01  0.00000000000E+00 0. -1.
</event>
<event>
 7    1  0.3383281E-011  0.5052886E+02  0.7816164E-02  0.1300439E+00
        -11   -1    0    0    0    0  0.00000000000E+00  0.00000000000E+00  0.45593999997E+02  0.45594000000E+02  0.51100000000E-03 0.  1.
         11   -1    0    0    0    0 -0.00000000000E+00 -0.00000000000E+00 -0.45593999997E+02  0.45594000000E+02  0.51100000000E-03 0. -1.
    9900012    2    1    2    0    0 -0.10240863250E+02  0.29123102754E+02  0.26460069753E+02  0.50528859755E+02  0.29999999711E+02 0.  0.
         12    1    1    2    0    0  0.10240863250E+02 -0.29123102754E+02 -0.26460069753E+02  0.40659140245E+02  0.00000000000E+00 0. -1.
         11    1    3    3    0    0 -0.11772299456E+02  0.12369166496E+02  0.11654622208E+01  0.17115537290E+02  0.51100000000E-03 0. -1.
        -11    1    3    3    0    0 -0.20233711785E+01  0.89080069940E+01  0.31670478497E+01  0.96683406991E+01  0.51100000000E-03 0.  1.
         12    1    3    3    0    0  0.35548073841E+01  0.78459292639E+01  0.22127559682E+02  0.23744981766E+02  0.00000000000E+00 0. -1.
</event>
<event>
 7    1  0.3383281E-011  0.5052885E+02  0.7816164E-02  0.1300439E+00
        -11   -1    0    0    0    0  0.00000000000E+00  0.00000000000E+00  0.45593999997E+02  0.45594000000E+02  0.51100000000E-03 0.  1.
         11   -1    0    0    0    0 -0.00000000000E+00 -0.00000000000E+00 -0.45593999997E+02  0.45594000000E+02  0.51100000000E-03 0. -1.
    9900012    2    1    2    0    0  0.25946249975E+02 -0.15095578283E+02  0.27424110188E+02  0.50528853537E+02  0.29999980811E+02 0.  0.
         12    1    1    2    0    0 -0.25946249975E+02  0.15095578283E+02 -0.27424110188E+02  0.40659146463E+02  0.00000000000E+00 0. -1.
         11    1    3    3    0    0  0.25614444875E+01  0.75673340023E+00  0.12555866129E+02  0.12836799360E+02  0.51100000000E-03 0. -1.
        -11    1    3    3    0    0  0.12931378621E+01  0.43377866911E+01  0.70157984563E+00  0.45804817922E+01  0.51100000000E-03 0.  1.
         12    1    3    3    0    0  0.22091667626E+02 -0.20190098375E+02  0.14166664213E+02  0.33111572385E+02  0.00000000000E+00 0. -1.
</event>
<event>
 7    1  0.3383281E-011  0.5052886E+02  0.7816164E-02  0.1300439E+00
        -11   -1    0    0    0    0  0.00000000000E+00  0.00000000000E+00  0.45593999997E+02  0.45594000000E+02  0.51100000000E-03 0.  1.
         11   -1    0    0    0    0 -0.00000000000E+00 -0.00000000000E+00 -0.45593999997E+02  0.45594000000E+02  0.51100000000E-03 0. -1.
    9900012    2    1    2    0    0  0.40105513940E+02 -0.12596147885E+01  0.65670835634E+01  0.50528862474E+02  0.30000007977E+02 0.  0.
         12    1    1    2    0    0 -0.40105513940E+02  0.12596147885E+01 -0.65670835634E+01  0.40659137526E+02  0.00000000000E+00 0. -1.
         11    1    3    3    0    0  0.77469823225E+01 -0.85479535255E+01  0.73087563762E+01  0.13656542923E+02  0.51100000000E-03 0. -1.
        -11    1    3    3    0    0  0.13057686075E+02 -0.49603666992E+01  0.52328884344E+00  0.13977919548E+02  0.51100000000E-03 0.  1.
         12    1    3    3    0    0  0.19300845543E+02  0.12248705436E+02 -0.12649616562E+01  0.22894400004E+02  0.00000000000E+00 0. -1.
</event>
<event>
 7    1  0.3383281E-011  0.5052886E+02  0.7816164E-02  0.1300439E+00
        -11   -1    0    0    0    0  0.00000000000E+00  0.00000000000E+00  0.45593999997E+02  0.45594000000E+02  0.51100000000E-03 0.  1.
         11   -1    0    0    0    0 -0.00000000000E+00 -0.00000000000E+00 -0.45593999997E+02  0.45594000000E+02  0.51100000000E-03 0. -1.
    9900012    2    1    2    0    0 -0.97703522187E+01  0.33834293235E+02  0.20321081179E+02  0.50528861772E+02  0.30000005841E+02 0.  0.
         12    1    1    2    0    0  0.97703522187E+01 -0.33834293235E+02 -0.20321081179E+02  0.40659138228E+02  0.00000000000E+00 0. -1.
         11    1    3    3    0    0 -0.11250267193E+02  0.37920247414E+01  0.48551722729E+01  0.12826560787E+02  0.51100000000E-03 0. -1.
        -11    1    3    3    0    0  0.21753093864E+01  0.14788238401E+01  0.76368847238E+01  0.80771838795E+01  0.51100000000E-03 0.  1.
        -12    1    3    3    0    0 -0.69539441197E+00  0.28563444654E+02  0.78290241820E+01  0.29625117105E+02  0.00000000000E+00 0.  1.
</event>
<event>
 7    1  0.3383281E-011  0.5052886E+02  0.7816164E-02  0.1300439E+00
        -11   -1    0    0    0    0  0.00000000000E+00  0.00000000000E+00  0.45593999997E+02  0.45594000000E+02  0.51100000000E-03 0.  1.
         11   -1    0    0    0    0 -0.00000000000E+00 -0.00000000000E+00 -0.45593999997E+02  0.45594000000E+02  0.51100000000E-03 0. -1.
    9900012    2    1    2    0    0 -0.10161121461E+02  0.26702677902E+02  0.28928953692E+02  0.50528858861E+02  0.29999996993E+02 0.  0.
         12    1    1    2    0    0  0.10161121461E+02 -0.26702677902E+02 -0.28928953692E+02  0.40659141139E+02  0.00000000000E+00 0. -1.
         11    1    3    3    0    0 -0.13181176269E+01  0.50897108548E+00  0.59181242312E+00  0.15319033420E+01  0.51100000000E-03 0. -1.
        -11    1    3    3    0    0 -0.12128896543E+02  0.29502431230E+02  0.30246044788E+02  0.43958239335E+02  0.51100000000E-03 0.  1.
         12    1    3    3    0    0  0.32858927084E+01 -0.33087244138E+01 -0.19089035188E+01  0.50387161839E+01  0.00000000000E+00 0. -1.
</event>
