<event>
 7    1  0.2653124E-010  0.4778727E+02  0.7816164E-02  0.1312668E+00
        -11   -1    0    0    0    0  0.00000000000E+00  0.00000000000E+00  0.45593999997E+02  0.45594000000E+02  0.51100000000E-03 0.  1.
         11   -1    0    0    0    0 -0.00000000000E+00 -0.00000000000E+00 -0.45593999997E+02  0.45594000000E+02  0.51100000000E-03 0. -1.
    9900012    2    1    2    0    0  0.41778375107E+02  0.76901052345E+01  0.88911686208E+01  0.47787271613E+02  0.20000002593E+02 0.  0.
         12    1    1    2    0    0 -0.41778375107E+02 -0.76901052345E+01 -0.88911686208E+01  0.43400728387E+02  0.00000000000E+00 0. -1.
         11    1    3    3    0    0  0.49487244957E+01 -0.26035059560E+01 -0.23937603343E+01  0.60826150788E+01  0.51100000000E-03 0. -1.
        -11    1    3    3    0    0  0.14426197999E+02  0.20441083627E+01 -0.14573052255E+01  0.14642995134E+02  0.51100000000E-03 0.  1.
        -12    1    3    3    0    0  0.22403452612E+02  0.82495028278E+01  0.12742234181E+02  0.27061661400E+02  0.00000000000E+00 0.  1.
</event>
<event>
 7    1  0.2653124E-010  0.4778727E+02  0.7816164E-02  0.1312668E+00
        -11   -1    0    0    0    0  0.00000000000E+00  0.00000000000E+00  0.45593999997E+02  0.45594000000E+02  0.51100000000E-03 0.  1.
         11   -1    0    0    0    0 -0.00000000000E+00 -0.00000000000E+00 -0.45593999997E+02  0.45594000000E+02  0.51100000000E-03 0. -1.
    9900012    2    1    2    0    0  0.33854497027E+02  0.53284000006E+01  0.26629017699E+02  0.47787269602E+02  0.19999993422E+02 0.  0.
         12    1    1    2    0    0 -0.33854497027E+02 -0.53284000006E+01 -0.26629017699E+02  0.43400730398E+02  0.00000000000E+00 0. -1.
         11    1    3    3    0    0  0.77497285185E+01  0.11940017782E+00 -0.22810360686E+01  0.80793362549E+01  0.51100000000E-03 0. -1.
        -11    1    3    3    0    0  0.87661316732E+00  0.14060609211E+01  0.12309670720E+01  0.20641555543E+01  0.51100000000E-03 0.  1.
        -12    1    3    3    0    0  0.25228155341E+02  0.38029389017E+01  0.27679086695E+02  0.37643777792E+02  0.00000000000E+00 0.  1.
</event>
<event>
 7    1  0.2653124E-010  0.4778727E+02  0.7816164E-02  0.1312668E+00
        -11   -1    0    0    0    0  0.00000000000E+00  0.00000000000E+00  0.45593999997E+02  0.45594000000E+02  0.51100000000E-03 0.  1.
         11   -1    0    0    0    0 -0.00000000000E+00 -0.00000000000E+00 -0.45593999997E+02  0.45594000000E+02  0.51100000000E-03 0. -1.
    9900012    2    1    2    0    0 -0.41786595392E+02  0.17445522617E+01  0.11595699199E+02  0.47787271239E+02  0.20000000887E+02 0.  0.
         12    1    1    2    0    0  0.41786595392E+02 -0.17445522617E+01 -0.11595699199E+02  0.43400728761E+02  0.00000000000E+00 0. -1.
         11    1    3    3    0    0 -0.82893165342E+01  0.88979851870E+00  0.23577092910E+01  0.86639080887E+01  0.51100000000E-03 0. -1.
        -11    1    3    3    0    0 -0.85891918096E+01 -0.38956102099E+01  0.10011850106E+02  0.13754531532E+02  0.51100000000E-03 0.  1.
         12    1    3    3    0    0 -0.24908087048E+02  0.47503639529E+01 -0.77386019758E+00  0.25368831619E+02  0.00000000000E+00 0. -1.
</event>
<event>
 7    1  0.2653124E-010  0.4778726E+02  0.7816164E-02  0.1312668E+00
        -11   -1    0    0    0    0  0.00000000000E+00  0.00000000000E+00  0.45593999997E+02  0.45594000000E+02  0.51100000000E-03 0.  1.
         11   -1    0    0    0    0 -0.00000000000E+00 -0.00000000000E+00 -0.45593999997E+02  0.45594000000E+02  0.51100000000E-03 0. -1.
    9900012    2    1    2    0    0  0.29852309650E+02  0.30652230880E+02 -0.72735712936E+01  0.47787257049E+02  0.19999936188E+02 0.  0.
         12    1    1    2    0    0 -0.29852309650E+02 -0.30652230880E+02  0.72735712936E+01  0.43400742951E+02  0.00000000000E+00 0. -1.
         11    1    3    3    0    0 -0.15950316863E+01  0.14301839762E+01 -0.64222237503E+00  0.22365156217E+01  0.51100000000E-03 0. -1.
        -11    1    3    3    0    0  0.11959869434E+02  0.20253315558E+02 -0.20126837884E+01  0.23606909248E+02  0.51100000000E-03 0.  1.
         12    1    3    3    0    0  0.19487471903E+02  0.89687313453E+01 -0.46186651302E+01  0.21943832179E+02  0.00000000000E+00 0. -1.
</event>
<event>
 7    1  0.2653124E-010  0.4778727E+02  0.7816164E-02  0.1312668E+00
        -11   -1    0    0    0    0  0.00000000000E+00  0.00000000000E+00  0.45593999997E+02  0.45594000000E+02  0.51100000000E-03 0.  1.
         11   -1    0    0    0    0 -0.00000000000E+00 -0.00000000000E+00 -0.45593999997E+02  0.45594000000E+02  0.51100000000E-03 0. -1.
    9900012    2    1    2    0    0  0.25548033484E+02  0.29951898169E+02  0.18270340523E+02  0.47787267729E+02  0.19999984884E+02 0.  0.
         12    1    1    2    0    0 -0.25548033484E+02 -0.29951898169E+02 -0.18270340523E+02  0.43400732271E+02  0.00000000000E+00 0. -1.
         11    1    3    3    0    0  0.10050686901E+02  0.15648580329E+02  0.80678437308E+01  0.20272752063E+02  0.51100000000E-03 0. -1.
        -11    1    3    3    0    0 -0.10833357619E+01  0.65523471673E+01  0.54848410908E+01  0.86133821363E+01  0.51100000000E-03 0.  1.
         12    1    3    3    0    0  0.16580682344E+02  0.77509706731E+01  0.47176557014E+01  0.18901133529E+02  0.00000000000E+00 0. -1.
</event>
<event>
 7    1  0.2653124E-010  0.4778726E+02  0.7816164E-02  0.1312668E+00
        -11   -1    0    0    0    0  0.00000000000E+00  0.00000000000E+00  0.45593999997E+02  0.45594000000E+02  0.51100000000E-03 0.  1.
         11   -1    0    0    0    0 -0.00000000000E+00 -0.00000000000E+00 -0.45593999997E+02  0.45594000000E+02  0.51100000000E-03 0. -1.
    9900012    2    1    2    0    0  0.27700861452E+02 -0.31539935331E+02 -0.11023554565E+02  0.47787262666E+02  0.19999961801E+02 0.  0.
         12    1    1    2    0    0 -0.27700861452E+02  0.31539935331E+02  0.11023554565E+02  0.43400737334E+02  0.00000000000E+00 0. -1.
         11    1    3    3    0    0 -0.11592399012E+01 -0.74076089199E+01 -0.46972255700E+01  0.88476231483E+01  0.51100000000E-03 0.  1.
        -11    1    3    3    0    0  0.16457486133E+02 -0.17464833893E+02 -0.64829924793E+01  0.24857563527E+02  0.51100000000E-03 0. -1.
        -12    1    3    3    0    0  0.12402615220E+02 -0.66674925174E+01  0.15666348476E+00  0.14082075991E+02  0.00000000000E+00 0.  1.
</event>
<event>
 7    1  0.2653124E-010  0.4778727E+02  0.7816164E-02  0.1312668E+00
        -11   -1    0    0    0    0  0.00000000000E+00  0.00000000000E+00  0.45593999997E+02  0.45594000000E+02  0.51100000000E-03 0.  1.
         11   -1    0    0    0    0 -0.00000000000E+00 -0.00000000000E+00 -0.45593999997E+02  0.45594000000E+02  0.51100000000E-03 0. -1.
    9900012    2    1    2    0    0  0.31507922413E+02 -0.27574615616E+02 -0.11424298004E+02  0.47787272056E+02  0.20000004613E+02 0.  0.
         12    1    1    2    0    0 -0.31507922413E+02  0.27574615616E+02  0.11424298004E+02  0.43400727944E+02  0.00000000000E+00 0. -1.
         11    1    3    3    0    0  0.13541935619E+01 -0.44250125332E+01 -0.13354433474E+01  0.48164286891E+01  0.51100000000E-03 0. -1.
        -11    1    3    3    0    0  0.90716376779E+01 -0.33641007390E+00 -0.75451022185E+01  0.11804081906E+02  0.51100000000E-03 0.  1.
        -12    1    3    3    0    0  0.21082091173E+02 -0.22813193009E+02 -0.25437524382E+01  0.31166761461E+02  0.00000000000E+00 0.  1.
</event>
<event>
 7    1  0.2653124E-010  0.4778724E+02  0.7816164E-02  0.1312668E+00
        -11   -1    0    0    0    0  0.00000000000E+00  0.00000000000E+00  0.45593999997E+02  0.45594000000E+02  0.51100000000E-03 0.  1.
         11   -1    0    0    0    0 -0.00000000000E+00 -0.00000000000E+00 -0.45593999997E+02  0.45594000000E+02  0.51100000000E-03 0. -1.
    9900012    2    1    2    0    0 -0.20775498415E+02 -0.10010227835E+02  0.36766833668E+02  0.47787239019E+02  0.19999853983E+02 0.  0.
         12    1    1    2    0    0  0.20775498415E+02  0.10010227835E+02 -0.36766833668E+02  0.43400760981E+02  0.00000000000E+00 0. -1.
         11    1    3    3    0    0 -0.10990691712E+02 -0.23030765907E+01  0.66588509800E+01  0.13055258049E+02  0.51100000000E-03 0. -1.
        -11    1    3    3    0    0 -0.25127153373E+01 -0.33860720257E+01  0.88379109427E+00  0.43081677183E+01  0.51100000000E-03 0.  1.
        -12    1    3    3    0    0 -0.72720913661E+01 -0.43210792187E+01  0.29224191594E+02  0.30423813252E+02  0.00000000000E+00 0.  1.
</event>
<event>
 7    1  0.2653124E-010  0.4778727E+02  0.7816164E-02  0.1312668E+00
        -11   -1    0    0    0    0  0.00000000000E+00  0.00000000000E+00  0.45593999997E+02  0.45594000000E+02  0.51100000000E-03 0.  1.
         11   -1    0    0    0    0 -0.00000000000E+00 -0.00000000000E+00 -0.45593999997E+02  0.45594000000E+02  0.51100000000E-03 0. -1.
    9900012    2    1    2    0    0 -0.19845022945E+01 -0.15951992853E+02  0.40314004901E+02  0.47787270553E+02  0.19999997760E+02 0.  0.
         12    1    1    2    0    0  0.19845022945E+01  0.15951992853E+02 -0.40314004901E+02  0.43400729447E+02  0.00000000000E+00 0. -1.
         11    1    3    3    0    0 -0.24336429306E+01 -0.39434397030E+01  0.83259007805E+01  0.95285863943E+01  0.51100000000E-03 0. -1.
        -11    1    3    3    0    0 -0.32731292964E+01  0.28165647527E+01  0.23622458271E+01  0.49220542465E+01  0.51100000000E-03 0.  1.
         12    1    3    3    0    0  0.37222699325E+01 -0.14825117902E+02  0.29625858294E+02  0.33336629912E+02  0.00000000000E+00 0. -1.
</event>
<event>
 7    1  0.2653124E-010  0.4778727E+02  0.7816164E-02  0.1312668E+00
        -11   -1    0    0    0    0  0.00000000000E+00  0.00000000000E+00  0.45593999997E+02  0.45594000000E+02  0.51100000000E-03 0. -1.
         11   -1    0    0    0    0 -0.00000000000E+00 -0.00000000000E+00 -0.45593999997E+02  0.45594000000E+02  0.51100000000E-03 0.  1.
    9900012    2    1    2    0    0  0.17501074304E+02  0.32981730986E+02 -0.22125575247E+02  0.47787271197E+02  0.20000000696E+02 0.  0.
         12    1    1    2    0    0 -0.17501074304E+02 -0.32981730986E+02  0.22125575247E+02  0.43400728803E+02  0.00000000000E+00 0. -1.
         11    1    3    3    0    0 -0.27035451717E+01  0.15969762739E+01  0.24342008153E+00  0.31494036438E+01  0.51100000000E-03 0. -1.
        -11    1    3    3    0    0  0.78353879354E+01  0.45099123779E+01 -0.54823068111E+01  0.10572998723E+02  0.51100000000E-03 0.  1.
        -12    1    3    3    0    0  0.12369231540E+02  0.26874842334E+02 -0.16886688517E+02  0.34064868831E+02  0.00000000000E+00 0.  1.
</event>
<event>
 7    1  0.2653124E-010  0.4778727E+02  0.7816164E-02  0.1312668E+00
        -11   -1    0    0    0    0  0.00000000000E+00  0.00000000000E+00  0.45593999997E+02  0.45594000000E+02  0.51100000000E-03 0.  1.
         11   -1    0    0    0    0 -0.00000000000E+00 -0.00000000000E+00 -0.45593999997E+02  0.45594000000E+02  0.51100000000E-03 0. -1.
    9900012    2    1    2    0    0  0.32407035069E+02  0.25860186559E+02 -0.12831930870E+02  0.47787267050E+02  0.19999981786E+02 0.  0.
         12    1    1    2    0    0 -0.32407035069E+02 -0.25860186559E+02  0.12831930870E+02  0.43400732950E+02  0.00000000000E+00 0. -1.
         11    1    3    3    0    0  0.21165003670E+01  0.33186935825E+00 -0.65978819933E+00  0.22416582709E+01  0.51100000000E-03 0. -1.
        -11    1    3    3    0    0  0.27382499267E+02  0.13793231453E+02 -0.13263923786E+02  0.33406379248E+02  0.51100000000E-03 0.  1.
        -12    1    3    3    0    0  0.29080354351E+01  0.11735085748E+02  0.10917811153E+01  0.12139229531E+02  0.00000000000E+00 0.  1.
</event>
<event>
 7    1  0.2797127E-010  0.4778727E+02  0.7816164E-02  0.1312668E+00
        -11   -1    0    0    0    0  0.00000000000E+00  0.00000000000E+00  0.45593999997E+02  0.45594000000E+02  0.51100000000E-03 0.  1.
         11   -1    0    0    0    0 -0.00000000000E+00 -0.00000000000E+00 -0.45593999997E+02  0.45594000000E+02  0.51100000000E-03 0. -1.
    9900012    2    1    2    0    0 -0.29838415419E+02 -0.10773345047E+02  0.29618029210E+02  0.47787266683E+02  0.19999980112E+02 0.  0.
         12    1    1    2    0    0  0.29838415419E+02  0.10773345047E+02 -0.29618029210E+02  0.43400733317E+02  0.00000000000E+00 0. -1.
         11    1    3    3    0    0 -0.38414078035E+01  0.54679370862E+01  0.45194245997E+01  0.80672144428E+01  0.51100000000E-03 0. -1.
        -11    1    3    3    0    0 -0.70025255953E+01 -0.43705756400E+01  0.84409970863E+01  0.11806258010E+02  0.51100000000E-03 0.  1.
         12    1    3    3    0    0 -0.18994482020E+02 -0.11870706493E+02  0.16657607524E+02  0.27913794229E+02  0.00000000000E+00 0. -1.
</event>
<event>
 7    1  0.2653124E-010  0.4778727E+02  0.7816164E-02  0.1312668E+00
        -11   -1    0    0    0    0  0.00000000000E+00  0.00000000000E+00  0.45593999997E+02  0.45594000000E+02  0.51100000000E-03 0.  1.
         11   -1    0    0    0    0 -0.00000000000E+00 -0.00000000000E+00 -0.45593999997E+02  0.45594000000E+02  0.51100000000E-03 0. -1.
    9900012    2    1    2    0    0 -0.77810213634E+01 -0.38055572359E+02  0.19361108590E+02  0.47787269512E+02  0.19999993014E+02 0.  0.
         12    1    1    2    0    0  0.77810213634E+01  0.38055572359E+02 -0.19361108590E+02  0.43400730488E+02  0.00000000000E+00 0. -1.
         11    1    3    3    0    0 -0.28304002171E+01 -0.13282959274E+02  0.14812943457E+01  0.13661713131E+02  0.51100000000E-03 0. -1.
        -11    1    3    3    0    0  0.43502090943E+01 -0.14546302600E+02  0.82585997606E+01  0.17283625452E+02  0.51100000000E-03 0.  1.
        -12    1    3    3    0    0 -0.93008302406E+01 -0.10226310485E+02  0.96212144837E+01  0.16841930930E+02  0.00000000000E+00 0.  1.
</event>
<event>
 7    1  0.2653124E-010  0.4778727E+02  0.7816164E-02  0.1312668E+00
        -11   -1    0    0    0    0  0.00000000000E+00  0.00000000000E+00  0.45593999997E+02  0.45594000000E+02  0.51100000000E-03 0.  1.
         11   -1    0    0    0    0 -0.00000000000E+00 -0.00000000000E+00 -0.45593999997E+02  0.45594000000E+02  0.51100000000E-03 0. -1.
    9900012    2    1    2    0    0  0.29998122681E+02 -0.19228934622E+02  0.24778701665E+02  0.47787270199E+02  0.19999996143E+02 0.  0.
         12    1    1    2    0    0 -0.29998122681E+02  0.19228934622E+02 -0.24778701665E+02  0.43400729801E+02  0.00000000000E+00 0. -1.
         11    1    3    3    0    0  0.52166742166E+01  0.83829121117E+00  0.45466039461E+01  0.69705114404E+01  0.51100000000E-03 0. -1.
        -11    1    3    3    0    0  0.13734997793E+02 -0.16550473806E+01  0.61539445887E+01  0.15141346719E+02  0.51100000000E-03 0.  1.
         12    1    3    3    0    0  0.11046450671E+02 -0.18412178453E+02  0.14078153130E+02  0.25675412039E+02  0.00000000000E+00 0. -1.
</event>
<event>
 7    1  0.2653124E-010  0.4778727E+02  0.7816164E-02  0.1312668E+00
        -11   -1    0    0    0    0  0.00000000000E+00  0.00000000000E+00  0.45593999997E+02  0.45594000000E+02  0.51100000000E-03 0.  1.
         11   -1    0    0    0    0 -0.00000000000E+00 -0.00000000000E+00 -0.45593999997E+02  0.45594000000E+02  0.51100000000E-03 0. -1.
    9900012    2    1    2    0    0  0.39555309827E+02  0.11534740505E+02  0.13636356744E+02  0.47787274208E+02  0.20000014426E+02 0.  0.
         12    1    1    2    0    0 -0.39555309827E+02 -0.11534740505E+02 -0.13636356744E+02  0.43400725792E+02  0.00000000000E+00 0. -1.
         11    1    3    3    0    0  0.84281540739E+01 -0.31784961765E+01  0.19023091745E+01  0.92062695753E+01  0.51100000000E-03 0.  1.
        -11    1    3    3    0    0  0.46880142828E+01 -0.17221781504E+01  0.42619664931E+01  0.65656480371E+01  0.51100000000E-03 0. -1.
         12    1    3    3    0    0  0.26439141470E+02  0.16435414832E+02  0.74720810759E+01  0.32015356596E+02  0.00000000000E+00 0. -1.
</event>
<event>
 7    1  0.2653124E-010  0.4778727E+02  0.7816164E-02  0.1312668E+00
        -11   -1    0    0    0    0  0.00000000000E+00  0.00000000000E+00  0.45593999997E+02  0.45594000000E+02  0.51100000000E-03 0.  1.
         11   -1    0    0    0    0 -0.00000000000E+00 -0.00000000000E+00 -0.45593999997E+02  0.45594000000E+02  0.51100000000E-03 0. -1.
    9900012    2    1    2    0    0  0.29015208755E+02  0.30096710580E+02  0.11658860691E+02  0.47787270059E+02  0.19999995506E+02 0.  0.
         12    1    1    2    0    0 -0.29015208755E+02 -0.30096710580E+02 -0.11658860691E+02  0.43400729941E+02  0.00000000000E+00 0. -1.
         11    1    3    3    0    0  0.57389721077E+00  0.20248609307E+01  0.35104323966E+01  0.40929885987E+01  0.51100000000E-03 0. -1.
        -11    1    3    3    0    0  0.69478516563E+01  0.13363857941E+02  0.91633520504E+01  0.17630438530E+02  0.51100000000E-03 0.  1.
        -12    1    3    3    0    0  0.21493459888E+02  0.14707991708E+02 -0.10149237563E+01  0.26063842930E+02  0.00000000000E+00 0.  1.
</event>
<event>
 7    1  0.2653124E-010  0.4778727E+02  0.7816164E-02  0.1312668E+00
        -11   -1    0    0    0    0  0.00000000000E+00  0.00000000000E+00  0.45593999997E+02  0.45594000000E+02  0.51100000000E-03 0.  1.
         11   -1    0    0    0    0 -0.00000000000E+00 -0.00000000000E+00 -0.45593999997E+02  0.45594000000E+02  0.51100000000E-03 0. -1.
    9900012    2    1    2    0    0  0.25585087595E+02 -0.30476696995E+02 -0.17326212177E+02  0.47787269645E+02  0.19999993617E+02 0.  0.
         12    1    1    2    0    0 -0.25585087595E+02  0.30476696995E+02  0.17326212177E+02  0.43400730355E+02  0.00000000000E+00 0. -1.
         11    1    3    3    0    0  0.84685732012E+01 -0.57641698863E+01 -0.13811206299E+02  0.17195691503E+02  0.51100000000E-03 0. -1.
        -11    1    3    3    0    0  0.10322544512E+02 -0.17142477809E+02 -0.40080018143E+01  0.20407928592E+02  0.51100000000E-03 0.  1.
        -12    1    3    3    0    0  0.67939698817E+01 -0.75700492998E+01  0.49299593622E+00  0.10183649550E+02  0.00000000000E+00 0.  1.
</event>
<event>
 7    1  0.2653124E-010  0.4778727E+02  0.7816164E-02  0.1312668E+00
        -11   -1    0    0    0    0  0.00000000000E+00  0.00000000000E+00  0.45593999997E+02  0.45594000000E+02  0.51100000000E-03 0. -1.
         11   -1    0    0    0    0 -0.00000000000E+00 -0.00000000000E+00 -0.45593999997E+02  0.45594000000E+02  0.51100000000E-03 0.  1.
    9900012    2    1    2    0    0  0.22529174319E+02  0.12864003614E+02 -0.34793344539E+02  0.47787272948E+02  0.20000008677E+02 0.  0.
         12    1    1    2    0    0 -0.22529174319E+02 -0.12864003614E+02  0.34793344539E+02  0.43400727052E+02  0.00000000000E+00 0. -1.
         11    1    3    3    0    0  0.52619148466E+01  0.28882120689E+01 -0.46321801309E+01  0.75819924712E+01  0.51100000000E-03 0. -1.
        -11    1    3    3    0    0  0.14980310661E+02  0.85252348841E+01 -0.32394772579E+02  0.36694831081E+02  0.51100000000E-03 0.  1.
         12    1    3    3    0    0  0.22869488118E+01  0.14505566612E+01  0.22336081714E+01  0.35104493955E+01  0.00000000000E+00 0. -1.
</event>
<event>
 7    1  0.2653124E-010  0.4778727E+02  0.7816164E-02  0.1312668E+00
        -11   -1    0    0    0    0  0.00000000000E+00  0.00000000000E+00  0.45593999997E+02  0.45594000000E+02  0.51100000000E-03 0.  1.
         11   -1    0    0    0    0 -0.00000000000E+00 -0.00000000000E+00 -0.45593999997E+02  0.45594000000E+02  0.51100000000E-03 0. -1.
    9900012    2    1    2    0    0 -0.17706048314E+02  0.20766959063E+02  0.33746890818E+02  0.47787269874E+02  0.19999994663E+02 0.  0.
         12    1    1    2    0    0  0.17706048314E+02 -0.20766959063E+02 -0.33746890818E+02  0.43400730126E+02  0.00000000000E+00 0. -1.
         11    1    3    3    0    0  0.15498182730E+01  0.58072007146E+01  0.19007448684E+01  0.63038359857E+01  0.51100000000E-03 0. -1.
        -11    1    3    3    0    0 -0.82333436020E+01  0.12138746998E+02  0.13732072877E+02  0.20092460061E+02  0.51100000000E-03 0.  1.
        -12    1    3    3    0    0 -0.11022522985E+02  0.28210113501E+01  0.18114073073E+02  0.21390973827E+02  0.00000000000E+00 0.  1.
</event>
<event>
 7    1  0.2653124E-010  0.4778724E+02  0.7816164E-02  0.1312668E+00
        -11   -1    0    0    0    0  0.00000000000E+00  0.00000000000E+00  0.45593999997E+02  0.45594000000E+02  0.51100000000E-03 0. -1.
         11   -1    0    0    0    0 -0.00000000000E+00 -0.00000000000E+00 -0.45593999997E+02  0.45594000000E+02  0.51100000000E-03 0.  1.
    9900012    2    1    2    0    0  0.20925012843E+02 -0.14621409873E+02 -0.35099627998E+02  0.47787243385E+02  0.19999873888E+02 0.  0.
         12    1    1    2    0    0 -0.20925012843E+02  0.14621409873E+02  0.35099627998E+02  0.43400756615E+02  0.00000000000E+00 0. -1.
         11    1    3    3    0    0  0.86956319187E+01 -0.67903894135E+01 -0.59008998570E+01  0.12511755362E+02  0.51100000000E-03 0. -1.
        -11    1    3    3    0    0  0.87404329829E+01 -0.11675244406E+02 -0.22181569368E+02  0.26546723349E+02  0.51100000000E-03 0.  1.
        -12    1    3    3    0    0  0.34889479414E+01  0.38442239463E+01 -0.70171587732E+01  0.87287646741E+01  0.00000000000E+00 0.  1.
</event>
<event>
 7    1  0.2653124E-010  0.4778727E+02  0.7816164E-02  0.1312668E+00
        -11   -1    0    0    0    0  0.00000000000E+00  0.00000000000E+00  0.45593999997E+02  0.45594000000E+02  0.51100000000E-03 0.  1.
         11   -1    0    0    0    0 -0.00000000000E+00 -0.00000000000E+00 -0.45593999997E+02  0.45594000000E+02  0.51100000000E-03 0. -1.
    9900012    2    1    2    0    0 -0.29007818652E+02  0.32080310914E+02  0.36088263311E+01  0.47787268223E+02  0.19999987135E+02 0.  0.
         12    1    1    2    0    0  0.29007818652E+02 -0.32080310914E+02 -0.36088263311E+01  0.43400731777E+02  0.00000000000E+00 0. -1.
         11    1    3    3    0    0 -0.11006505965E+02  0.20856761548E+02 -0.42398693934E+00  0.23586594519E+02  0.51100000000E-03 0. -1.
        -11    1    3    3    0    0 -0.66043049175E+01  0.61715614058E+01 -0.34336094121E+01  0.96692650954E+01  0.51100000000E-03 0.  1.
         12    1    3    3    0    0 -0.11397007770E+02  0.50519879602E+01  0.74664226826E+01  0.14531408608E+02  0.00000000000E+00 0. -1.
</event>
<event>
 7    1  0.2653124E-010  0.4778728E+02  0.7816164E-02  0.1312668E+00
        -11   -1    0    0    0    0  0.00000000000E+00  0.00000000000E+00  0.45593999997E+02  0.45594000000E+02  0.51100000000E-03 0. -1.
         11   -1    0    0    0    0 -0.00000000000E+00 -0.00000000000E+00 -0.45593999997E+02  0.45594000000E+02  0.51100000000E-03 0.  1.
    9900012    2    1    2    0    0  0.42912585313E+02  0.64386510049E+01 -0.82237689091E+00  0.47787279859E+02  0.20000040188E+02 0.  0.
         12    1    1    2    0    0 -0.42912585313E+02 -0.64386510049E+01  0.82237689091E+00  0.43400720141E+02  0.00000000000E+00 0. -1.
         11    1    3    3    0    0  0.15461029979E+01  0.23199861904E+01  0.27340662709E+00  0.28013428653E+01  0.51100000000E-03 0. -1.
        -11    1    3    3    0    0  0.35766584654E+02  0.43644420719E+01 -0.71509350411E+01  0.36734626780E+02  0.51100000000E-03 0.  1.
         12    1    3    3    0    0  0.55998976609E+01 -0.24577725741E+00  0.60551515231E+01  0.82513102136E+01  0.00000000000E+00 0. -1.
</event>
<event>
 7    1  0.2653124E-010  0.4778727E+02  0.7816164E-02  0.1312668E+00
        -11   -1    0    0    0    0  0.00000000000E+00  0.00000000000E+00  0.45593999997E+02  0.45594000000E+02  0.51100000000E-03 0.  1.
         11   -1    0    0    0    0 -0.00000000000E+00 -0.00000000000E+00 -0.45593999997E+02  0.45594000000E+02  0.51100000000E-03 0. -1.
    9900012    2    1    2    0    0  0.12351497255E+02 -0.23156300531E+02  0.34566598556E+02  0.47787268734E+02  0.19999989466E+02 0.  0.
         12    1    1    2    0    0 -0.12351497255E+02  0.23156300531E+02 -0.34566598556E+02  0.43400731266E+02  0.00000000000E+00 0. -1.
         11    1    3    3    0    0 -0.66989939021E+00 -0.67686308269E+00  0.18145603451E+01  0.20492775149E+01  0.51100000000E-03 0. -1.
        -11    1    3    3    0    0  0.11024276138E+02 -0.19117068202E+02  0.34888269381E+02  0.41281815629E+02  0.51100000000E-03 0.  1.
         12    1    3    3    0    0  0.19971205069E+01 -0.33623692469E+01 -0.21362311707E+01  0.44561755897E+01  0.00000000000E+00 0. -1.
</event>
<event>
 7    1  0.2653124E-010  0.4778727E+02  0.7816164E-02  0.1312668E+00
        -11   -1    0    0    0    0  0.00000000000E+00  0.00000000000E+00  0.45593999997E+02  0.45594000000E+02  0.51100000000E-03 0.  1.
         11   -1    0    0    0    0 -0.00000000000E+00 -0.00000000000E+00 -0.45593999997E+02  0.45594000000E+02  0.51100000000E-03 0. -1.
    9900012    2    1    2    0    0  0.27040287360E+02  0.19724622231E+02  0.27629429827E+02  0.47787271259E+02  0.20000000979E+02 0.  0.
         12    1    1    2    0    0 -0.27040287360E+02 -0.19724622231E+02 -0.27629429827E+02  0.43400728741E+02  0.00000000000E+00 0. -1.
         11    1    3    3    0    0  0.17612596267E+02  0.13175922238E+02  0.24244894884E+02  0.32735659490E+02  0.51100000000E-03 0.  1.
        -11    1    3    3    0    0  0.93199179893E+01  0.30722455164E+01  0.52239269812E+01  0.11117057938E+02  0.51100000000E-03 0. -1.
        -12    1    3    3    0    0  0.10777310433E+00  0.34764544770E+01 -0.18393920386E+01  0.39345538303E+01  0.00000000000E+00 0.  1.
</event>
<event>
 7    1  0.2653124E-010  0.4778727E+02  0.7816164E-02  0.1312668E+00
        -11   -1    0    0    0    0  0.00000000000E+00  0.00000000000E+00  0.45593999997E+02  0.45594000000E+02  0.51100000000E-03 0.  1.
         11   -1    0    0    0    0 -0.00000000000E+00 -0.00000000000E+00 -0.45593999997E+02  0.45594000000E+02  0.51100000000E-03 0. -1.
    9900012    2    1    2    0    0  0.76086063795E+01  0.18580374971E+02  0.38477289729E+02  0.47787273624E+02  0.20000011760E+02 0.  0.
         12    1    1    2    0    0 -0.76086063795E+01 -0.18580374971E+02 -0.38477289729E+02  0.43400726376E+02  0.00000000000E+00 0. -1.
         11    1    3    3    0    0  0.31918956459E+01  0.62154798389E+01  0.64855945643E+01  0.95332745977E+01  0.51100000000E-03 0. -1.
        -11    1    3    3    0    0 -0.27198739450E+01  0.11131004120E+02  0.27345896486E+02  0.29649536622E+02  0.51100000000E-03 0.  1.
         12    1    3    3    0    0  0.71365846786E+01  0.12338910126E+01  0.46457986780E+01  0.86044624040E+01  0.00000000000E+00 0. -1.
</event>
<event>
 7    1  0.2653124E-010  0.4778727E+02  0.7816164E-02  0.1312668E+00
        -11   -1    0    0    0    0  0.00000000000E+00  0.00000000000E+00  0.45593999997E+02  0.45594000000E+02  0.51100000000E-03 0.  1.
         11   -1    0    0    0    0 -0.00000000000E+00 -0.00000000000E+00 -0.45593999997E+02  0.45594000000E+02  0.51100000000E-03 0. -1.
    9900012    2    1    2    0    0  0.42236911786E+02  0.48121694245E+00  0.99717268382E+01  0.47787267021E+02  0.19999981656E+02 0.  0.
         12    1    1    2    0    0 -0.42236911786E+02 -0.48121694245E+00 -0.99717268382E+01  0.43400732979E+02  0.00000000000E+00 0. -1.
         11    1    3    3    0    0  0.43526193799E+01  0.89840750613E+00 -0.14403359498E+01  0.46719374378E+01  0.51100000000E-03 0. -1.
        -11    1    3    3    0    0  0.36226031896E+02  0.13736637407E+01  0.54325153805E+01  0.36656848782E+02  0.51100000000E-03 0.  1.
         12    1    3    3    0    0  0.16582605097E+01 -0.17908543044E+01  0.59795474075E+01  0.64584808009E+01  0.00000000000E+00 0. -1.
</event>
<event>
 7    1  0.2653124E-010  0.4778726E+02  0.7816164E-02  0.1312668E+00
        -11   -1    0    0    0    0  0.00000000000E+00  0.00000000000E+00  0.45593999997E+02  0.45594000000E+02  0.51100000000E-03 0.  1.
         11   -1    0    0    0    0 -0.00000000000E+00 -0.00000000000E+00 -0.45593999997E+02  0.45594000000E+02  0.51100000000E-03 0. -1.
    9900012    2    1    2    0    0  0.12192498866E+02 -0.58653609941E+01  0.41237903775E+02  0.47787260422E+02  0.19999951567E+02 0.  0.
         12    1    1    2    0    0 -0.12192498866E+02  0.58653609941E+01 -0.41237903775E+02  0.43400739578E+02  0.00000000000E+00 0. -1.
         11    1    3    3    0    0 -0.18506572114E+01  0.75203020256E+00  0.11147333643E+02  0.11324907468E+02  0.51100000000E-03 0. -1.
        -11    1    3    3    0    0  0.19551110140E+01 -0.33092856371E+01 -0.24356045234E-01  0.38437512905E+01  0.51100000000E-03 0.  1.
         12    1    3    3    0    0  0.12088045064E+02 -0.33081055596E+01  0.30114926177E+02  0.32618601664E+02  0.00000000000E+00 0. -1.
</event>
<event>
 7    1  0.2653124E-010  0.4778727E+02  0.7816164E-02  0.1312668E+00
        -11   -1    0    0    0    0  0.00000000000E+00  0.00000000000E+00  0.45593999997E+02  0.45594000000E+02  0.51100000000E-03 0.  1.
         11   -1    0    0    0    0 -0.00000000000E+00 -0.00000000000E+00 -0.45593999997E+02  0.45594000000E+02  0.51100000000E-03 0. -1.
    9900012    2    1    2    0    0  0.84936353603E+01  0.71220238853E+01  0.41961394486E+02  0.47787266215E+02  0.19999977980E+02 0.  0.
         12    1    1    2    0    0 -0.84936353603E+01 -0.71220238853E+01 -0.41961394486E+02  0.43400733785E+02  0.00000000000E+00 0. -1.
         11    1    3    3    0    0 -0.89343043412E+00  0.76727427012E+01  0.49872328996E+01  0.91946555539E+01  0.51100000000E-03 0. -1.
        -11    1    3    3    0    0  0.27126607611E+01  0.62349805557E+00  0.36708754755E+01  0.46067998923E+01  0.51100000000E-03 0.  1.
        -12    1    3    3    0    0  0.66744050333E+01 -0.11742168715E+01  0.33303286111E+02  0.33985810769E+02  0.00000000000E+00 0.  1.
</event>
<event>
 7    1  0.2653124E-010  0.4778727E+02  0.7816164E-02  0.1312668E+00
        -11   -1    0    0    0    0  0.00000000000E+00  0.00000000000E+00  0.45593999997E+02  0.45594000000E+02  0.51100000000E-03 0. -1.
         11   -1    0    0    0    0 -0.00000000000E+00 -0.00000000000E+00 -0.45593999997E+02  0.45594000000E+02  0.51100000000E-03 0.  1.
    9900012    2    1    2    0    0  0.35363067989E+02  0.13738706134E+02  0.21079003280E+02  0.47787274164E+02  0.20000014223E+02 0.  0.
         12    1    1    2    0    0 -0.35363067989E+02 -0.13738706134E+02 -0.21079003280E+02  0.43400725836E+02  0.00000000000E+00 0. -1.
         11    1    3    3    0    0  0.16873983989E+02  0.79350638246E+01  0.13294587010E+02  0.22900712163E+02  0.51100000000E-03 0. -1.
        -11    1    3    3    0    0  0.19349235312E+01  0.64116625428E+01  0.42996685680E+01  0.79586742420E+01  0.51100000000E-03 0.  1.
        -12    1    3    3    0    0  0.16554160468E+02 -0.60802023322E+00  0.34847477024E+01  0.16927887759E+02  0.00000000000E+00 0.  1.
</event>
<event>
 7    1  0.2653124E-010  0.4778727E+02  0.7816164E-02  0.1312668E+00
        -11   -1    0    0    0    0  0.00000000000E+00  0.00000000000E+00  0.45593999997E+02  0.45594000000E+02  0.51100000000E-03 0.  1.
         11   -1    0    0    0    0 -0.00000000000E+00 -0.00000000000E+00 -0.45593999997E+02  0.45594000000E+02  0.51100000000E-03 0. -1.
    9900012    2    1    2    0    0  0.20672334902E+02 -0.29691024160E+02  0.23973338024E+02  0.47787270951E+02  0.19999999574E+02 0.  0.
         12    1    1    2    0    0 -0.20672334902E+02  0.29691024160E+02 -0.23973338024E+02  0.43400729049E+02  0.00000000000E+00 0. -1.
         11    1    3    3    0    0  0.40403219302E+01 -0.34308264761E+01  0.46444927921E+01  0.70474169144E+01  0.51100000000E-03 0. -1.
        -11    1    3    3    0    0  0.60204836434E+01 -0.17553468099E+02  0.20465185592E+01  0.18669726942E+02  0.51100000000E-03 0.  1.
        -12    1    3    3    0    0  0.10611529328E+02 -0.87067295846E+01  0.17282326673E+02  0.22070127095E+02  0.00000000000E+00 0.  1.
</event>
<event>
 7    1  0.2653124E-010  0.4778727E+02  0.7816164E-02  0.1312668E+00
        -11   -1    0    0    0    0  0.00000000000E+00  0.00000000000E+00  0.45593999997E+02  0.45594000000E+02  0.51100000000E-03 0. -1.
         11   -1    0    0    0    0 -0.00000000000E+00 -0.00000000000E+00 -0.45593999997E+02  0.45594000000E+02  0.51100000000E-03 0.  1.
    9900012    2    1    2    0    0 -0.22247617144E+02 -0.33358435016E+02 -0.16609677815E+02  0.47787273596E+02  0.20000011633E+02 0.  0.
         12    1    1    2    0    0  0.22247617144E+02  0.33358435016E+02  0.16609677815E+02  0.43400726404E+02  0.00000000000E+00 0. -1.
         11    1    3    3    0    0 -0.33256950144E+01 -0.55271875900E+00  0.27623462399E+01  0.43584747751E+01  0.51100000000E-03 0. -1.
        -11    1    3    3    0    0 -0.50226959841E+00 -0.35192217603E+01 -0.45904181941E+01  0.58059569414E+01  0.51100000000E-03 0.  1.
        -12    1    3    3    0    0 -0.18419652531E+02 -0.29286494496E+02 -0.14781605861E+02  0.37622841879E+02  0.00000000000E+00 0.  1.
</event>
<event>
 7    1  0.2653124E-010  0.4778727E+02  0.7816164E-02  0.1312668E+00
        -11   -1    0    0    0    0  0.00000000000E+00  0.00000000000E+00  0.45593999997E+02  0.45594000000E+02  0.51100000000E-03 0.  1.
         11   -1    0    0    0    0 -0.00000000000E+00 -0.00000000000E+00 -0.45593999997E+02  0.45594000000E+02  0.51100000000E-03 0. -1.
    9900012    2    1    2    0    0 -0.23762865658E+02  0.13686091846E+02  0.33639867142E+02  0.47787267799E+02  0.19999985201E+02 0.  0.
         12    1    1    2    0    0  0.23762865658E+02 -0.13686091846E+02 -0.33639867142E+02  0.43400732201E+02  0.00000000000E+00 0. -1.
         11    1    3    3    0    0 -0.26937641989E+01 -0.20613819481E+01  0.99748691287E+01  0.10535828183E+02  0.51100000000E-03 0. -1.
        -11    1    3    3    0    0 -0.11913709059E+02  0.82207614799E+01  0.20297855177E+02  0.24930309021E+02  0.51100000000E-03 0.  1.
         12    1    3    3    0    0 -0.91553923999E+01  0.75267123141E+01  0.33671428367E+01  0.12321130595E+02  0.00000000000E+00 0. -1.
</event>
<event>
 7    1  0.2653124E-010  0.4778727E+02  0.7816164E-02  0.1312668E+00
        -11   -1    0    0    0    0  0.00000000000E+00  0.00000000000E+00  0.45593999997E+02  0.45594000000E+02  0.51100000000E-03 0.  1.
         11   -1    0    0    0    0 -0.00000000000E+00 -0.00000000000E+00 -0.45593999997E+02  0.45594000000E+02  0.51100000000E-03 0. -1.
    9900012    2    1    2    0    0 -0.19860058521E+01  0.42587511605E+02  0.81230057744E+01  0.47787267440E+02  0.19999983565E+02 0.  0.
         12    1    1    2    0    0  0.19860058521E+01 -0.42587511605E+02 -0.81230057744E+01  0.43400732560E+02  0.00000000000E+00 0. -1.
         11    1    3    3    0    0  0.49817169847E+01  0.18570429993E+02  0.37052806659E+01  0.19580793633E+02  0.51100000000E-03 0. -1.
        -11    1    3    3    0    0  0.26704240568E+01  0.15043215517E+01  0.18573703652E+01  0.35838488959E+01  0.51100000000E-03 0.  1.
         12    1    3    3    0    0 -0.96381468935E+01  0.22512760060E+02  0.25603547433E+01  0.24622624910E+02  0.00000000000E+00 0. -1.
</event>
<event>
 7    1  0.2653124E-010  0.4778727E+02  0.7816164E-02  0.1312668E+00
        -11   -1    0    0    0    0  0.00000000000E+00  0.00000000000E+00  0.45593999997E+02  0.45594000000E+02  0.51100000000E-03 0. -1.
         11   -1    0    0    0    0 -0.00000000000E+00 -0.00000000000E+00 -0.45593999997E+02  0.45594000000E+02  0.51100000000E-03 0.  1.
    9900012    2    1    2    0    0 -0.68638598065E+01  0.41054631668E+02 -0.12289347292E+02  0.47787269480E+02  0.19999992866E+02 0.  0.
         12    1    1    2    0    0  0.68638598065E+01 -0.41054631668E+02  0.12289347292E+02  0.43400730520E+02  0.00000000000E+00 0. -1.
         11    1    3    3    0    0 -0.67173967468E+01  0.10214791350E+02  0.76601194552E-01  0.12225843504E+02  0.51100000000E-03 0. -1.
        -11    1    3    3    0    0  0.73701855041E+00  0.13963257169E+01  0.21937419570E+01  0.27028551360E+01  0.51100000000E-03 0.  1.
        -12    1    3    3    0    0 -0.88348161019E+00  0.29443514601E+02 -0.14559690444E+02  0.32858570839E+02  0.00000000000E+00 0.  1.
</event>
<event>
 7    1  0.2653124E-010  0.4778727E+02  0.7816164E-02  0.1312668E+00
        -11   -1    0    0    0    0  0.00000000000E+00  0.00000000000E+00  0.45593999997E+02  0.45594000000E+02  0.51100000000E-03 0. -1.
         11   -1    0    0    0    0 -0.00000000000E+00 -0.00000000000E+00 -0.45593999997E+02  0.45594000000E+02  0.51100000000E-03 0.  1.
    9900012    2    1    2    0    0  0.23285618488E+02 -0.11774011723E+02 -0.34681061477E+02  0.47787269527E+02  0.19999993081E+02 0.  0.
         12    1    1    2    0    0 -0.23285618488E+02  0.11774011723E+02  0.34681061477E+02  0.43400730473E+02  0.00000000000E+00 0. -1.
         11    1    3    3    0    0  0.42377763846E+01  0.86477912569E+00 -0.12378577716E+01  0.44987646912E+01  0.51100000000E-03 0. -1.
        -11    1    3    3    0    0  0.18761192254E+01 -0.57960020529E+01 -0.13306170823E+01  0.62357040681E+01  0.51100000000E-03 0.  1.
        -12    1    3    3    0    0  0.17171722878E+02 -0.68427887960E+01 -0.32112586623E+02  0.37052800768E+02  0.00000000000E+00 0.  1.
</event>
<event>
 7    1  0.2653124E-010  0.4778727E+02  0.7816164E-02  0.1312668E+00
        -11   -1    0    0    0    0  0.00000000000E+00  0.00000000000E+00  0.45593999997E+02  0.45594000000E+02  0.51100000000E-03 0.  1.
         11   -1    0    0    0    0 -0.00000000000E+00 -0.00000000000E+00 -0.45593999997E+02  0.45594000000E+02  0.51100000000E-03 0. -1.
    9900012    2    1    2    0    0 -0.94930197670E+01  0.68729843366E+01  0.41788375019E+02  0.47787267003E+02  0.19999981573E+02 0.  0.
         12    1    1    2    0    0  0.94930197670E+01 -0.68729843366E+01 -0.41788375019E+02  0.43400732997E+02  0.00000000000E+00 0. -1.
         11    1    3    3    0    0 -0.27803196971E+00 -0.49626957579E+01  0.32418895556E+01  0.59342648334E+01  0.51100000000E-03 0. -1.
        -11    1    3    3    0    0 -0.20642126524E+01  0.56833792430E+01  0.21901203599E+02  0.22720574219E+02  0.51100000000E-03 0.  1.
        -12    1    3    3    0    0 -0.71507751449E+01  0.61523008515E+01  0.16645281864E+02  0.19132427950E+02  0.00000000000E+00 0.  1.
</event>
<event>
 7    1  0.2653124E-010  0.4778727E+02  0.7816164E-02  0.1312668E+00
        -11   -1    0    0    0    0  0.00000000000E+00  0.00000000000E+00  0.45593999997E+02  0.45594000000E+02  0.51100000000E-03 0. -1.
         11   -1    0    0    0    0 -0.00000000000E+00 -0.00000000000E+00 -0.45593999997E+02  0.45594000000E+02  0.51100000000E-03 0.  1.
    9900012    2    1    2    0    0 -0.27389763050E+02 -0.28377043194E+02 -0.18115387862E+02  0.47787274455E+02  0.20000015551E+02 0.  0.
         12    1    1    2    0    0  0.27389763050E+02  0.28377043194E+02  0.18115387862E+02  0.43400725545E+02  0.00000000000E+00 0. -1.
         11    1    3    3    0    0 -0.25868957786E+01 -0.24193230980E+01  0.26429655902E+01  0.44193236353E+01  0.51100000000E-03 0. -1.
        -11    1    3    3    0    0 -0.20162410199E+01 -0.68032938067E+01 -0.87593342607E+01  0.11272797852E+02  0.51100000000E-03 0.  1.
        -12    1    3    3    0    0 -0.22786626252E+02 -0.19154426290E+02 -0.11999019192E+02  0.32095152967E+02  0.00000000000E+00 0.  1.
</event>
<event>
 7    1  0.2653124E-010  0.4778725E+02  0.7816164E-02  0.1312668E+00
        -11   -1    0    0    0    0  0.00000000000E+00  0.00000000000E+00  0.45593999997E+02  0.45594000000E+02  0.51100000000E-03 0. -1.
         11   -1    0    0    0    0 -0.00000000000E+00 -0.00000000000E+00 -0.45593999997E+02  0.45594000000E+02  0.51100000000E-03 0.  1.
    9900012    2    1    2    0    0  0.35044388173E+02  0.22882517317E+02 -0.11485064056E+02  0.47787246117E+02  0.19999886347E+02 0.  0.
         12    1    1    2    0    0 -0.35044388173E+02 -0.22882517317E+02  0.11485064056E+02  0.43400753883E+02  0.00000000000E+00 0. -1.
         11    1    3    3    0    0  0.40125292382E+01  0.84954296619E+01 -0.62980192630E+01  0.11310957649E+02  0.51100000000E-03 0. -1.
        -11    1    3    3    0    0  0.82102689363E+01  0.80079328315E+01 -0.56289584161E+01  0.12775784804E+02  0.51100000000E-03 0.  1.
        -12    1    3    3    0    0  0.22821589999E+02  0.63791548237E+01  0.44191362294E+00  0.23700503665E+02  0.00000000000E+00 0.  1.
</event>
<event>
 7    1  0.2653124E-010  0.4778727E+02  0.7816164E-02  0.1312668E+00
        -11   -1    0    0    0    0  0.00000000000E+00  0.00000000000E+00  0.45593999997E+02  0.45594000000E+02  0.51100000000E-03 0. -1.
         11   -1    0    0    0    0 -0.00000000000E+00 -0.00000000000E+00 -0.45593999997E+02  0.45594000000E+02  0.51100000000E-03 0.  1.
    9900012    2    1    2    0    0 -0.10720806689E+02 -0.27022723461E+02 -0.32225142799E+02  0.47787272958E+02  0.20000008725E+02 0.  0.
         12    1    1    2    0    0  0.10720806689E+02  0.27022723461E+02  0.32225142799E+02  0.43400727042E+02  0.00000000000E+00 0. -1.
         11    1    3    3    0    0 -0.17786518595E+01  0.18084510925E+01 -0.52522511409E+01  0.58326872108E+01  0.51100000000E-03 0. -1.
        -11    1    3    3    0    0 -0.88977760502E+01 -0.11978622486E+02 -0.15813047022E+02  0.21741901289E+02  0.51100000000E-03 0.  1.
        -12    1    3    3    0    0 -0.44378779659E-01 -0.16852552068E+02 -0.11159844637E+02  0.20212684458E+02  0.00000000000E+00 0.  1.
</event>
<event>
 7    1  0.2653124E-010  0.4778727E+02  0.7816164E-02  0.1312668E+00
        -11   -1    0    0    0    0  0.00000000000E+00  0.00000000000E+00  0.45593999997E+02  0.45594000000E+02  0.51100000000E-03 0.  1.
         11   -1    0    0    0    0 -0.00000000000E+00 -0.00000000000E+00 -0.45593999997E+02  0.45594000000E+02  0.51100000000E-03 0. -1.
    9900012    2    1    2    0    0  0.42396393172E+02  0.42546317468E+01  0.82502782221E+01  0.47787272632E+02  0.20000007240E+02 0.  0.
         12    1    1    2    0    0 -0.42396393172E+02 -0.42546317468E+01 -0.82502782221E+01  0.43400727368E+02  0.00000000000E+00 0. -1.
         11    1    3    3    0    0  0.24800741574E+02  0.52583258631E+00  0.11599868999E+01  0.24833422084E+02  0.51100000000E-03 0. -1.
        -11    1    3    3    0    0  0.15772803622E+02  0.13181187697E+01  0.65168009466E+00  0.15841194980E+02  0.51100000000E-03 0.  1.
         12    1    3    3    0    0  0.18228479759E+01  0.24106803908E+01  0.64386112276E+01  0.71126555681E+01  0.00000000000E+00 0. -1.
</event>
<event>
 7    1  0.2653124E-010  0.4778727E+02  0.7816164E-02  0.1312668E+00
        -11   -1    0    0    0    0  0.00000000000E+00  0.00000000000E+00  0.45593999997E+02  0.45594000000E+02  0.51100000000E-03 0. -1.
         11   -1    0    0    0    0 -0.00000000000E+00 -0.00000000000E+00 -0.45593999997E+02  0.45594000000E+02  0.51100000000E-03 0.  1.
    9900012    2    1    2    0    0 -0.37314651623E+02 -0.60447227631E+01 -0.21323721898E+02  0.47787274031E+02  0.20000013618E+02 0.  0.
         12    1    1    2    0    0  0.37314651623E+02  0.60447227631E+01  0.21323721898E+02  0.43400725969E+02  0.00000000000E+00 0. -1.
         11    1    3    3    0    0 -0.90760896802E+01  0.47445261076E+01 -0.76530412229E+01  0.12784951001E+02  0.51100000000E-03 0. -1.
        -11    1    3    3    0    0 -0.92216803957E+01  0.12953172179E+01 -0.16253524325E+01  0.94529893053E+01  0.51100000000E-03 0.  1.
         12    1    3    3    0    0 -0.19016881547E+02 -0.12084566089E+02 -0.12045328243E+02  0.25549333725E+02  0.00000000000E+00 0. -1.
</event>
<event>
 7    1  0.2653124E-010  0.4778727E+02  0.7816164E-02  0.1312668E+00
        -11   -1    0    0    0    0  0.00000000000E+00  0.00000000000E+00  0.45593999997E+02  0.45594000000E+02  0.51100000000E-03 0. -1.
         11   -1    0    0    0    0 -0.00000000000E+00 -0.00000000000E+00 -0.45593999997E+02  0.45594000000E+02  0.51100000000E-03 0.  1.
    9900012    2    1    2    0    0  0.34417799443E+01  0.39499443754E+02 -0.17651384915E+02  0.47787270795E+02  0.19999998864E+02 0.  0.
         12    1    1    2    0    0 -0.34417799443E+01 -0.39499443754E+02  0.17651384915E+02  0.43400729205E+02  0.00000000000E+00 0. -1.
         11    1    3    3    0    0 -0.25406176930E+01  0.38114045726E+01 -0.14586231154E+01  0.48071951002E+01  0.51100000000E-03 0. -1.
        -11    1    3    3    0    0  0.40448998023E+01  0.35498108148E+02 -0.10919968592E+02  0.37359371124E+02  0.51100000000E-03 0.  1.
        -12    1    3    3    0    0  0.19374978349E+01  0.18993103377E+00 -0.52727932081E+01  0.56207045709E+01  0.00000000000E+00 0.  1.
</event>
<event>
 7    1  0.2653124E-010  0.4778727E+02  0.7816164E-02  0.1312668E+00
        -11   -1    0    0    0    0  0.00000000000E+00  0.00000000000E+00  0.45593999997E+02  0.45594000000E+02  0.51100000000E-03 0.  1.
         11   -1    0    0    0    0 -0.00000000000E+00 -0.00000000000E+00 -0.45593999997E+02  0.45594000000E+02  0.51100000000E-03 0. -1.
    9900012    2    1    2    0    0 -0.37563764391E+02  0.14844148839E+02  0.15882011099E+02  0.47787269286E+02  0.19999991981E+02 0.  0.
         12    1    1    2    0    0  0.37563764391E+02 -0.14844148839E+02 -0.15882011099E+02  0.43400730714E+02  0.00000000000E+00 0. -1.
         11    1    3    3    0    0 -0.10059022970E+02 -0.45420486036E+00  0.30591963981E+01  0.10523731659E+02  0.51100000000E-03 0. -1.
        -11    1    3    3    0    0 -0.16017450073E+02  0.68391132932E+01  0.14807371369E+02  0.22860236757E+02  0.51100000000E-03 0.  1.
         12    1    3    3    0    0 -0.11487291349E+02  0.84592404066E+01 -0.19845566679E+01  0.14403300870E+02  0.00000000000E+00 0. -1.
</event>
<event>
 7    1  0.2653124E-010  0.4778727E+02  0.7816164E-02  0.1312668E+00
        -11   -1    0    0    0    0  0.00000000000E+00  0.00000000000E+00  0.45593999997E+02  0.45594000000E+02  0.51100000000E-03 0. -1.
         11   -1    0    0    0    0 -0.00000000000E+00 -0.00000000000E+00 -0.45593999997E+02  0.45594000000E+02  0.51100000000E-03 0.  1.
    9900012    2    1    2    0    0 -0.18143367342E+02 -0.16730061288E+02 -0.35700791069E+02  0.47787271755E+02  0.20000003242E+02 0.  0.
         12    1    1    2    0    0  0.18143367342E+02  0.16730061288E+02  0.35700791069E+02  0.43400728245E+02  0.00000000000E+00 0. -1.
         11    1    3    3    0    0 -0.39977621018E+01 -0.11165593622E+02 -0.13372960579E+02  0.17874245653E+02  0.51100000000E-03 0. -1.
        -11    1    3    3    0    0 -0.52833999142E+01 -0.55860682474E+01 -0.23214624133E+01  0.80316661482E+01  0.51100000000E-03 0.  1.
        -12    1    3    3    0    0 -0.88622053255E+01  0.21600581214E-01 -0.20006368077E+02  0.21881359954E+02  0.00000000000E+00 0.  1.
</event>
<event>
 7    1  0.2653124E-010  0.4778727E+02  0.7816164E-02  0.1312668E+00
        -11   -1    0    0    0    0  0.00000000000E+00  0.00000000000E+00  0.45593999997E+02  0.45594000000E+02  0.51100000000E-03 0.  1.
         11   -1    0    0    0    0 -0.00000000000E+00 -0.00000000000E+00 -0.45593999997E+02  0.45594000000E+02  0.51100000000E-03 0. -1.
    9900012    2    1    2    0    0 -0.22232366251E+02  0.29783463358E+02  0.22411842469E+02  0.47787268651E+02  0.19999989089E+02 0.  0.
         12    1    1    2    0    0  0.22232366251E+02 -0.29783463358E+02 -0.22411842469E+02  0.43400731349E+02  0.00000000000E+00 0. -1.
         11    1    3    3    0    0 -0.38336158366E+00  0.32039679922E+01  0.81803179766E+01  0.87937466110E+01  0.51100000000E-03 0. -1.
        -11    1    3    3    0    0 -0.10691751093E+02  0.70685938891E+01  0.87125375980E+00  0.12846697801E+02  0.51100000000E-03 0.  1.
        -12    1    3    3    0    0 -0.11157253574E+02  0.19510901477E+02  0.13360270733E+02  0.26146824240E+02  0.00000000000E+00 0.  1.
</event>
<event>
 7    1  0.2653124E-010  0.4778727E+02  0.7816164E-02  0.1312668E+00
        -11   -1    0    0    0    0  0.00000000000E+00  0.00000000000E+00  0.45593999997E+02  0.45594000000E+02  0.51100000000E-03 0.  1.
         11   -1    0    0    0    0 -0.00000000000E+00 -0.00000000000E+00 -0.45593999997E+02  0.45594000000E+02  0.51100000000E-03 0. -1.
    9900012    2    1    2    0    0 -0.15817708504E+02  0.68087467753E+01  0.39837976887E+02  0.47787270312E+02  0.19999996662E+02 0.  0.
         12    1    1    2    0    0  0.15817708504E+02 -0.68087467753E+01 -0.39837976887E+02  0.43400729688E+02  0.00000000000E+00 0. -1.
         11    1    3    3    0    0  0.22647358853E+00 -0.22521407193E+01  0.55322451761E+01  0.59773878120E+01  0.51100000000E-03 0. -1.
        -11    1    3    3    0    0  0.21945846515E+01 -0.16392777618E+01  0.44124692475E+01  0.51935843590E+01  0.51100000000E-03 0.  1.
         12    1    3    3    0    0 -0.18238766744E+02  0.10700165256E+02  0.29893262464E+02  0.36616298141E+02  0.00000000000E+00 0. -1.
</event>
<event>
 7    1  0.2653124E-010  0.4778728E+02  0.7816164E-02  0.1312668E+00
        -11   -1    0    0    0    0  0.00000000000E+00  0.00000000000E+00  0.45593999997E+02  0.45594000000E+02  0.51100000000E-03 0.  1.
         11   -1    0    0    0    0 -0.00000000000E+00 -0.00000000000E+00 -0.45593999997E+02  0.45594000000E+02  0.51100000000E-03 0. -1.
    9900012    2    1    2    0    0 -0.39195991591E+02  0.13258613514E+02  0.13096036233E+02  0.47787277032E+02  0.20000027301E+02 0.  0.
         12    1    1    2    0    0  0.39195991591E+02 -0.13258613514E+02 -0.13096036233E+02  0.43400722968E+02  0.00000000000E+00 0. -1.
         11    1    3    3    0    0 -0.19141713848E+02 -0.24277578337E+00  0.12157580094E+02  0.22677541823E+02  0.51100000000E-03 0.  1.
        -11    1    3    3    0    0 -0.82311998526E+01  0.58360831160E+01  0.37073843814E+01  0.10749754247E+02  0.51100000000E-03 0. -1.
         12    1    3    3    0    0 -0.11823077890E+02  0.76653061809E+01 -0.27689282423E+01  0.14359980963E+02  0.00000000000E+00 0. -1.
</event>
<event>
 7    1  0.2653124E-010  0.4778727E+02  0.7816164E-02  0.1312668E+00
        -11   -1    0    0    0    0  0.00000000000E+00  0.00000000000E+00  0.45593999997E+02  0.45594000000E+02  0.51100000000E-03 0.  1.
         11   -1    0    0    0    0 -0.00000000000E+00 -0.00000000000E+00 -0.45593999997E+02  0.45594000000E+02  0.51100000000E-03 0. -1.
    9900012    2    1    2    0    0  0.32259385903E+02  0.28477905288E+02 -0.56536888332E+01  0.47787271136E+02  0.20000000419E+02 0.  0.
         12    1    1    2    0    0 -0.32259385903E+02 -0.28477905288E+02  0.56536888332E+01  0.43400728864E+02  0.00000000000E+00 0. -1.
         11    1    3    3    0    0  0.30912000232E+01  0.63701994788E+01  0.40897911483E+01  0.81768790428E+01  0.51100000000E-03 0. -1.
        -11    1    3    3    0    0  0.70255627679E+01  0.78792136472E+00  0.79909321905E+00  0.71146259576E+01  0.51100000000E-03 0.  1.
         12    1    3    3    0    0  0.22142623112E+02  0.21319784445E+02 -0.10542573200E+02  0.32495766136E+02  0.00000000000E+00 0. -1.
</event>
<event>
 7    1  0.2653124E-010  0.4778728E+02  0.7816164E-02  0.1312668E+00
        -11   -1    0    0    0    0  0.00000000000E+00  0.00000000000E+00  0.45593999997E+02  0.45594000000E+02  0.51100000000E-03 0.  1.
         11   -1    0    0    0    0 -0.00000000000E+00 -0.00000000000E+00 -0.45593999997E+02  0.45594000000E+02  0.51100000000E-03 0. -1.
    9900012    2    1    2    0    0  0.37174847711E+02  0.79540866192E+00  0.22383496703E+02  0.47787275329E+02  0.20000019537E+02 0.  0.
         12    1    1    2    0    0 -0.37174847711E+02 -0.79540866192E+00 -0.22383496703E+02  0.43400724671E+02  0.00000000000E+00 0. -1.
         11    1    3    3    0    0  0.58884682684E+01  0.64543480462E+01  0.14098516836E+01  0.88498784896E+01  0.51100000000E-03 0. -1.
        -11    1    3    3    0    0  0.11503859517E+02 -0.29511735536E+01  0.34396051488E+01  0.12364428534E+02  0.51100000000E-03 0.  1.
        -12    1    3    3    0    0  0.19782519926E+02 -0.27077658307E+01  0.17534039871E+02  0.26572968306E+02  0.00000000000E+00 0.  1.
</event>
<event>
 7    1  0.2653124E-010  0.4778727E+02  0.7816164E-02  0.1312668E+00
        -11   -1    0    0    0    0  0.00000000000E+00  0.00000000000E+00  0.45593999997E+02  0.45594000000E+02  0.51100000000E-03 0. -1.
         11   -1    0    0    0    0 -0.00000000000E+00 -0.00000000000E+00 -0.45593999997E+02  0.45594000000E+02  0.51100000000E-03 0.  1.
    9900012    2    1    2    0    0 -0.17980710949E+02  0.21507661591E+02 -0.33132124486E+02  0.47787272514E+02  0.20000006700E+02 0.  0.
         12    1    1    2    0    0  0.17980710949E+02 -0.21507661591E+02  0.33132124486E+02  0.43400727486E+02  0.00000000000E+00 0. -1.
         11    1    3    3    0    0 -0.10240369191E+02  0.66738069182E+01 -0.12818355706E+02  0.17712004495E+02  0.51100000000E-03 0. -1.
        -11    1    3    3    0    0 -0.51529273436E+01  0.11377985826E+02 -0.22114137076E+02  0.25397761329E+02  0.51100000000E-03 0.  1.
        -12    1    3    3    0    0 -0.25874144143E+01  0.34558688464E+01  0.18003682954E+01  0.46775066899E+01  0.00000000000E+00 0.  1.
</event>
<event>
 7    1  0.2653124E-010  0.4778727E+02  0.7816164E-02  0.1312668E+00
        -11   -1    0    0    0    0  0.00000000000E+00  0.00000000000E+00  0.45593999997E+02  0.45594000000E+02  0.51100000000E-03 0. -1.
         11   -1    0    0    0    0 -0.00000000000E+00 -0.00000000000E+00 -0.45593999997E+02  0.45594000000E+02  0.51100000000E-03 0.  1.
    9900012    2    1    2    0    0 -0.85567022651E+01 -0.19236091065E+02 -0.37952323590E+02  0.47787271677E+02  0.20000002884E+02 0.  0.
         12    1    1    2    0    0  0.85567022651E+01  0.19236091065E+02  0.37952323590E+02  0.43400728323E+02  0.00000000000E+00 0. -1.
         11    1    3    3    0    0  0.10170495663E+01 -0.68939804894E+01 -0.13101127422E+01  0.70906806773E+01  0.51100000000E-03 0. -1.
        -11    1    3    3    0    0  0.21590603091E+00 -0.57047069492E+01 -0.94023862109E+01  0.10999780157E+02  0.51100000000E-03 0.  1.
        -12    1    3    3    0    0 -0.97896578623E+01 -0.66374036259E+01 -0.27239824637E+02  0.29696810842E+02  0.00000000000E+00 0.  1.
</event>
<event>
 7    1  0.2653124E-010  0.4778726E+02  0.7816164E-02  0.1312668E+00
        -11   -1    0    0    0    0  0.00000000000E+00  0.00000000000E+00  0.45593999997E+02  0.45594000000E+02  0.51100000000E-03 0. -1.
         11   -1    0    0    0    0 -0.00000000000E+00 -0.00000000000E+00 -0.45593999997E+02  0.45594000000E+02  0.51100000000E-03 0.  1.
    9900012    2    1    2    0    0  0.27663785375E+02 -0.11862929492E+02  0.31266754958E+02  0.47787261723E+02  0.19999957499E+02 0.  0.
         12    1    1    2    0    0 -0.27663785375E+02  0.11862929492E+02 -0.31266754958E+02  0.43400738277E+02  0.00000000000E+00 0. -1.
         11    1    3    3    0    0  0.15873005341E+01 -0.77034645369E+00  0.12556320432E+01  0.21655412102E+01  0.51100000000E-03 0. -1.
        -11    1    3    3    0    0  0.18223082529E+02  0.60810608795E+00  0.90283063927E+01  0.20346027780E+02  0.51100000000E-03 0.  1.
         12    1    3    3    0    0  0.78534023124E+01 -0.11700689126E+02  0.20982816522E+02  0.25275692732E+02  0.00000000000E+00 0. -1.
</event>
<event>
 7    1  0.2653124E-010  0.4778728E+02  0.7816164E-02  0.1312668E+00
        -11   -1    0    0    0    0  0.00000000000E+00  0.00000000000E+00  0.45593999997E+02  0.45594000000E+02  0.51100000000E-03 0.  1.
         11   -1    0    0    0    0 -0.00000000000E+00 -0.00000000000E+00 -0.45593999997E+02  0.45594000000E+02  0.51100000000E-03 0. -1.
    9900012    2    1    2    0    0 -0.32967530097E+02 -0.54684005324E+01  0.27692257217E+02  0.47787279328E+02  0.20000037767E+02 0.  0.
         12    1    1    2    0    0  0.32967530097E+02  0.54684005324E+01 -0.27692257217E+02  0.43400720672E+02  0.00000000000E+00 0. -1.
         11    1    3    3    0    0 -0.12241401702E+02 -0.51239780544E+00  0.46867117904E+01  0.13117916557E+02  0.51100000000E-03 0. -1.
        -11    1    3    3    0    0 -0.23086243533E+02 -0.45165756163E+01  0.20559667643E+02  0.31242183496E+02  0.51100000000E-03 0.  1.
         12    1    3    3    0    0  0.23601151373E+01 -0.43942711067E+00  0.24458777830E+01  0.34271792741E+01  0.00000000000E+00 0. -1.
</event>
<event>
 7    1  0.2653124E-010  0.4778727E+02  0.7816164E-02  0.1312668E+00
        -11   -1    0    0    0    0  0.00000000000E+00  0.00000000000E+00  0.45593999997E+02  0.45594000000E+02  0.51100000000E-03 0. -1.
         11   -1    0    0    0    0 -0.00000000000E+00 -0.00000000000E+00 -0.45593999997E+02  0.45594000000E+02  0.51100000000E-03 0.  1.
    9900012    2    1    2    0    0  0.10023065994E-01 -0.43321539954E+02  0.26205612652E+01  0.47787271138E+02  0.20000000425E+02 0.  0.
         12    1    1    2    0    0 -0.10023065994E-01  0.43321539954E+02 -0.26205612652E+01  0.43400728862E+02  0.00000000000E+00 0. -1.
         11    1    3    3    0    0 -0.23109321312E+01 -0.48637723973E+01  0.48418248714E+01  0.72415438681E+01  0.51100000000E-03 0. -1.
        -11    1    3    3    0    0  0.26094992656E+01 -0.19631585450E+02  0.49238545503E+01  0.20407179559E+02  0.51100000000E-03 0.  1.
        -12    1    3    3    0    0 -0.28854406838E+00 -0.18826182107E+02 -0.71451181565E+01  0.20138547710E+02  0.00000000000E+00 0.  1.
</event>
<event>
 7    1  0.2653124E-010  0.4778728E+02  0.7816164E-02  0.1312668E+00
        -11   -1    0    0    0    0  0.00000000000E+00  0.00000000000E+00  0.45593999997E+02  0.45594000000E+02  0.51100000000E-03 0.  1.
         11   -1    0    0    0    0 -0.00000000000E+00 -0.00000000000E+00 -0.45593999997E+02  0.45594000000E+02  0.51100000000E-03 0. -1.
    9900012    2    1    2    0    0  0.19802398487E+02  0.12492308875E+02  0.36543530932E+02  0.47787280884E+02  0.20000044862E+02 0.  0.
         12    1    1    2    0    0 -0.19802398487E+02 -0.12492308875E+02 -0.36543530932E+02  0.43400719116E+02  0.00000000000E+00 0. -1.
         11    1    3    3    0    0  0.51549150736E+01  0.83481765527E+01  0.14315842609E+02  0.17355360873E+02  0.51100000000E-03 0. -1.
        -11    1    3    3    0    0  0.30270410164E+01  0.79490883360E+01  0.10186208679E+02  0.13270637897E+02  0.51100000000E-03 0.  1.
        -12    1    3    3    0    0  0.11620442397E+02 -0.38049560141E+01  0.12041479644E+02  0.17161282114E+02  0.00000000000E+00 0.  1.
</event>
<event>
 7    1  0.2653124E-010  0.4778727E+02  0.7816164E-02  0.1312668E+00
        -11   -1    0    0    0    0  0.00000000000E+00  0.00000000000E+00  0.45593999997E+02  0.45594000000E+02  0.51100000000E-03 0.  1.
         11   -1    0    0    0    0 -0.00000000000E+00 -0.00000000000E+00 -0.45593999997E+02  0.45594000000E+02  0.51100000000E-03 0. -1.
    9900012    2    1    2    0    0 -0.21342487268E+02 -0.89789289703E+01  0.36708315048E+02  0.47787270491E+02  0.19999997477E+02 0.  0.
         12    1    1    2    0    0  0.21342487268E+02  0.89789289703E+01 -0.36708315048E+02  0.43400729509E+02  0.00000000000E+00 0. -1.
         11    1    3    3    0    0  0.25728027987E-01 -0.10499254606E+00  0.40112177932E+01  0.40126741472E+01  0.51100000000E-03 0. -1.
        -11    1    3    3    0    0 -0.23067399718E+02 -0.33625558465E+01  0.26941569622E+02  0.35626673793E+02  0.51100000000E-03 0.  1.
         12    1    3    3    0    0  0.16991844213E+01 -0.55113805778E+01  0.57555276327E+01  0.81479225513E+01  0.00000000000E+00 0. -1.
</event>
<event>
 7    1  0.2653124E-010  0.4778727E+02  0.7816164E-02  0.1312668E+00
        -11   -1    0    0    0    0  0.00000000000E+00  0.00000000000E+00  0.45593999997E+02  0.45594000000E+02  0.51100000000E-03 0.  1.
         11   -1    0    0    0    0 -0.00000000000E+00 -0.00000000000E+00 -0.45593999997E+02  0.45594000000E+02  0.51100000000E-03 0. -1.
    9900012    2    1    2    0    0 -0.28460310889E+02 -0.32235899021E+02 -0.58720475346E+01  0.47787269317E+02  0.19999992124E+02 0.  0.
         12    1    1    2    0    0  0.28460310889E+02  0.32235899021E+02  0.58720475346E+01  0.43400730683E+02  0.00000000000E+00 0. -1.
         11    1    3    3    0    0 -0.21424621514E+02 -0.20782869540E+02 -0.48503035113E+01  0.30240163983E+02  0.51100000000E-03 0. -1.
        -11    1    3    3    0    0 -0.67012695123E+01 -0.10543637899E+02 -0.49971194627E+01  0.13455352705E+02  0.51100000000E-03 0.  1.
         12    1    3    3    0    0 -0.33441986303E+00 -0.90939158187E+00  0.39753754393E+01  0.40917526291E+01  0.00000000000E+00 0. -1.
</event>
<event>
 7    1  0.2653124E-010  0.4778727E+02  0.7816164E-02  0.1312668E+00
        -11   -1    0    0    0    0  0.00000000000E+00  0.00000000000E+00  0.45593999997E+02  0.45594000000E+02  0.51100000000E-03 0.  1.
         11   -1    0    0    0    0 -0.00000000000E+00 -0.00000000000E+00 -0.45593999997E+02  0.45594000000E+02  0.51100000000E-03 0. -1.
    9900012    2    1    2    0    0  0.14600038138E+02  0.11095297352E+02  0.39336452004E+02  0.47787271974E+02  0.20000004239E+02 0.  0.
         12    1    1    2    0    0 -0.14600038138E+02 -0.11095297352E+02 -0.39336452004E+02  0.43400728026E+02  0.00000000000E+00 0. -1.
         11    1    3    3    0    0  0.10623868138E+02  0.58632241194E+01  0.20086221512E+02  0.23467003775E+02  0.51100000000E-03 0. -1.
        -11    1    3    3    0    0  0.81899857552E+01  0.63132381648E+01  0.11773041279E+02  0.15669631266E+02  0.51100000000E-03 0.  1.
         12    1    3    3    0    0 -0.42138157551E+01 -0.10811649321E+01  0.74771892131E+01  0.86506369336E+01  0.00000000000E+00 0. -1.
</event>
<event>
 7    1  0.2653124E-010  0.4778727E+02  0.7816164E-02  0.1312668E+00
        -11   -1    0    0    0    0  0.00000000000E+00  0.00000000000E+00  0.45593999997E+02  0.45594000000E+02  0.51100000000E-03 0.  1.
         11   -1    0    0    0    0 -0.00000000000E+00 -0.00000000000E+00 -0.45593999997E+02  0.45594000000E+02  0.51100000000E-03 0. -1.
    9900012    2    1    2    0    0 -0.23655108389E+02  0.11986511349E+02  0.34356698862E+02  0.47787270007E+02  0.19999995270E+02 0.  0.
         12    1    1    2    0    0  0.23655108389E+02 -0.11986511349E+02 -0.34356698862E+02  0.43400729993E+02  0.00000000000E+00 0. -1.
         11    1    3    3    0    0 -0.68587443638E+01  0.10801339287E+02  0.13656330138E+02  0.18713809280E+02  0.51100000000E-03 0. -1.
        -11    1    3    3    0    0 -0.41316958898E+01  0.28944018815E+01  0.13485091093E+02  0.14397782997E+02  0.51100000000E-03 0.  1.
         12    1    3    3    0    0 -0.12664668135E+02 -0.17092298199E+01  0.72152776309E+01  0.14675677730E+02  0.00000000000E+00 0. -1.
</event>
<event>
 7    1  0.2653124E-010  0.4778727E+02  0.7816164E-02  0.1312668E+00
        -11   -1    0    0    0    0  0.00000000000E+00  0.00000000000E+00  0.45593999997E+02  0.45594000000E+02  0.51100000000E-03 0. -1.
         11   -1    0    0    0    0 -0.00000000000E+00 -0.00000000000E+00 -0.45593999997E+02  0.45594000000E+02  0.51100000000E-03 0.  1.
    9900012    2    1    2    0    0 -0.33821978973E+02  0.22704248783E+02  0.14973779710E+02  0.47787271282E+02  0.20000001084E+02 0.  0.
         12    1    1    2    0    0  0.33821978973E+02 -0.22704248783E+02 -0.14973779710E+02  0.43400728718E+02  0.00000000000E+00 0. -1.
         11    1    3    3    0    0 -0.10474085100E+02  0.10684926294E+02  0.85669227525E+01  0.17241411610E+02  0.51100000000E-03 0. -1.
        -11    1    3    3    0    0 -0.23794307035E+02  0.74149573356E+01  0.69867781818E+01  0.25883695818E+02  0.51100000000E-03 0.  1.
         12    1    3    3    0    0  0.44641316279E+00  0.46043651530E+01 -0.57992122422E+00  0.46621638539E+01  0.00000000000E+00 0. -1.
</event>
<event>
 7    1  0.2653124E-010  0.4778728E+02  0.7816164E-02  0.1312668E+00
        -11   -1    0    0    0    0  0.00000000000E+00  0.00000000000E+00  0.45593999997E+02  0.45594000000E+02  0.51100000000E-03 0.  1.
         11   -1    0    0    0    0 -0.00000000000E+00 -0.00000000000E+00 -0.45593999997E+02  0.45594000000E+02  0.51100000000E-03 0. -1.
    9900012    2    1    2    0    0 -0.13127185223E+02  0.83969751922E+01  0.40506674391E+02  0.47787275876E+02  0.20000022031E+02 0.  0.
         12    1    1    2    0    0  0.13127185223E+02 -0.83969751922E+01 -0.40506674391E+02  0.43400724124E+02  0.00000000000E+00 0. -1.
         11    1    3    3    0    0 -0.24942680549E+01  0.12338375053E+00  0.75466589710E+00  0.26088536864E+01  0.51100000000E-03 0. -1.
        -11    1    3    3    0    0 -0.11725284681E+02  0.12271451179E+02  0.28298124191E+02  0.32997797621E+02  0.51100000000E-03 0.  1.
        -12    1    3    3    0    0  0.10923675129E+01 -0.39978597368E+01  0.11453884303E+02  0.12180624569E+02  0.00000000000E+00 0.  1.
</event>
<event>
 7    1  0.2653124E-010  0.4778727E+02  0.7816164E-02  0.1312668E+00
        -11   -1    0    0    0    0  0.00000000000E+00  0.00000000000E+00  0.45593999997E+02  0.45594000000E+02  0.51100000000E-03 0. -1.
         11   -1    0    0    0    0 -0.00000000000E+00 -0.00000000000E+00 -0.45593999997E+02  0.45594000000E+02  0.51100000000E-03 0.  1.
    9900012    2    1    2    0    0  0.37782308153E+02 -0.20932140588E+02 -0.42386243785E+01  0.47787271256E+02  0.20000000963E+02 0.  0.
         12    1    1    2    0    0 -0.37782308153E+02  0.20932140588E+02  0.42386243785E+01  0.43400728744E+02  0.00000000000E+00 0. -1.
         11    1    3    3    0    0  0.15834772049E+01  0.10919802891E+01 -0.20031336714E+01  0.27771146496E+01  0.51100000000E-03 0. -1.
        -11    1    3    3    0    0  0.12194954058E+01 -0.29652450055E+01 -0.40122606099E+01  0.51359597399E+01  0.51100000000E-03 0.  1.
        -12    1    3    3    0    0  0.34979335542E+02 -0.19058875871E+02  0.17767699028E+01  0.39874196866E+02  0.00000000000E+00 0.  1.
</event>
<event>
 7    1  0.2653124E-010  0.4778727E+02  0.7816164E-02  0.1312668E+00
        -11   -1    0    0    0    0  0.00000000000E+00  0.00000000000E+00  0.45593999997E+02  0.45594000000E+02  0.51100000000E-03 0. -1.
         11   -1    0    0    0    0 -0.00000000000E+00 -0.00000000000E+00 -0.45593999997E+02  0.45594000000E+02  0.51100000000E-03 0.  1.
    9900012    2    1    2    0    0  0.39395439127E+02  0.16654841428E+02 -0.73647039690E+01  0.47787271532E+02  0.20000002222E+02 0.  0.
         12    1    1    2    0    0 -0.39395439127E+02 -0.16654841428E+02  0.73647039690E+01  0.43400728468E+02  0.00000000000E+00 0. -1.
         11    1    3    3    0    0  0.99012396508E+00  0.43343249613E-01 -0.13180509914E+01  0.16490854376E+01  0.51100000000E-03 0. -1.
        -11    1    3    3    0    0 -0.10544348066E+01  0.20189115141E+01 -0.32567940803E+01  0.39742350718E+01  0.51100000000E-03 0.  1.
        -12    1    3    3    0    0  0.39459749969E+02  0.14592586664E+02 -0.27898588972E+01  0.42163951022E+02  0.00000000000E+00 0.  1.
</event>
<event>
 7    1  0.2653124E-010  0.4778728E+02  0.7816164E-02  0.1312668E+00
        -11   -1    0    0    0    0  0.00000000000E+00  0.00000000000E+00  0.45593999997E+02  0.45594000000E+02  0.51100000000E-03 0.  1.
         11   -1    0    0    0    0 -0.00000000000E+00 -0.00000000000E+00 -0.45593999997E+02  0.45594000000E+02  0.51100000000E-03 0. -1.
    9900012    2    1    2    0    0  0.18382222000E+02 -0.11716647178E+02  0.37529145439E+02  0.47787278069E+02  0.20000032028E+02 0.  0.
         12    1    1    2    0    0 -0.18382222000E+02  0.11716647178E+02 -0.37529145439E+02  0.43400721931E+02  0.00000000000E+00 0. -1.
         11    1    3    3    0    0  0.76550287348E+01 -0.37503807622E+01  0.91822858435E+01  0.12529133823E+02  0.51100000000E-03 0. -1.
        -11    1    3    3    0    0 -0.23343470071E+01 -0.30969855208E+01  0.24142254838E+00  0.38857149115E+01  0.51100000000E-03 0.  1.
        -12    1    3    3    0    0  0.13061540273E+02 -0.48692808954E+01  0.28105437047E+02  0.31372429334E+02  0.00000000000E+00 0.  1.
</event>
<event>
 7    1  0.2653124E-010  0.4778727E+02  0.7816164E-02  0.1312668E+00
        -11   -1    0    0    0    0  0.00000000000E+00  0.00000000000E+00  0.45593999997E+02  0.45594000000E+02  0.51100000000E-03 0.  1.
         11   -1    0    0    0    0 -0.00000000000E+00 -0.00000000000E+00 -0.45593999997E+02  0.45594000000E+02  0.51100000000E-03 0. -1.
    9900012    2    1    2    0    0 -0.41365820568E+01 -0.35099391970E+02  0.25190165486E+02  0.47787273451E+02  0.20000010971E+02 0.  0.
         12    1    1    2    0    0  0.41365820568E+01  0.35099391970E+02 -0.25190165486E+02  0.43400726549E+02  0.00000000000E+00 0. -1.
         11    1    3    3    0    0 -0.46173050477E+01 -0.13389765457E+01  0.29825166649E+01  0.56575409863E+01  0.51100000000E-03 0. -1.
        -11    1    3    3    0    0  0.36358476772E+01 -0.85140210655E+01  0.16151468812E+01  0.93976934800E+01  0.51100000000E-03 0.  1.
        -12    1    3    3    0    0 -0.31551246863E+01 -0.25246394359E+02  0.20592501940E+02  0.32732038984E+02  0.00000000000E+00 0.  1.
</event>
<event>
 7    1  0.2653124E-010  0.4778727E+02  0.7816164E-02  0.1312668E+00
        -11   -1    0    0    0    0  0.00000000000E+00  0.00000000000E+00  0.45593999997E+02  0.45594000000E+02  0.51100000000E-03 0. -1.
         11   -1    0    0    0    0 -0.00000000000E+00 -0.00000000000E+00 -0.45593999997E+02  0.45594000000E+02  0.51100000000E-03 0.  1.
    9900012    2    1    2    0    0  0.28548980479E+02  0.27965623252E+02 -0.16926401057E+02  0.47787269326E+02  0.19999992165E+02 0.  0.
         12    1    1    2    0    0 -0.28548980479E+02 -0.27965623252E+02  0.16926401057E+02  0.43400730674E+02  0.00000000000E+00 0. -1.
         11    1    3    3    0    0  0.93982491696E+01  0.79725258998E+01 -0.35911329343E+01  0.12836841227E+02  0.51100000000E-03 0. -1.
        -11    1    3    3    0    0  0.15613594212E+02  0.14361807975E+02 -0.13664286014E+01  0.21258244986E+02  0.51100000000E-03 0.  1.
        -12    1    3    3    0    0  0.35371370980E+01  0.56312893776E+01 -0.11968839521E+02  0.13692183112E+02  0.00000000000E+00 0.  1.
</event>
<event>
 7    1  0.2653124E-010  0.4778727E+02  0.7816164E-02  0.1312668E+00
        -11   -1    0    0    0    0  0.00000000000E+00  0.00000000000E+00  0.45593999997E+02  0.45594000000E+02  0.51100000000E-03 0.  1.
         11   -1    0    0    0    0 -0.00000000000E+00 -0.00000000000E+00 -0.45593999997E+02  0.45594000000E+02  0.51100000000E-03 0. -1.
    9900012    2    1    2    0    0 -0.22333721209E+02  0.29255503187E+02  0.22998776748E+02  0.47787270724E+02  0.19999998541E+02 0.  0.
         12    1    1    2    0    0  0.22333721209E+02 -0.29255503187E+02 -0.22998776748E+02  0.43400729276E+02  0.00000000000E+00 0. -1.
         11    1    3    3    0    0  0.14577690268E+00 -0.15884643355E+01  0.72550112449E+00  0.17523760993E+01  0.51100000000E-03 0. -1.
        -11    1    3    3    0    0 -0.62847977269E+00  0.20009229319E+01 -0.16394256859E+01  0.26620285958E+01  0.51100000000E-03 0.  1.
        -12    1    3    3    0    0 -0.21851018339E+02  0.28843044590E+02  0.23912701310E+02  0.43372866029E+02  0.00000000000E+00 0.  1.
</event>
<event>
 7    1  0.2653124E-010  0.4778727E+02  0.7816164E-02  0.1312668E+00
        -11   -1    0    0    0    0  0.00000000000E+00  0.00000000000E+00  0.45593999997E+02  0.45594000000E+02  0.51100000000E-03 0.  1.
         11   -1    0    0    0    0 -0.00000000000E+00 -0.00000000000E+00 -0.45593999997E+02  0.45594000000E+02  0.51100000000E-03 0. -1.
    9900012    2    1    2    0    0 -0.41572991779E+02 -0.29890214491E+01  0.12098568166E+02  0.47787271361E+02  0.20000001444E+02 0.  0.
         12    1    1    2    0    0  0.41572991779E+02  0.29890214491E+01 -0.12098568166E+02  0.43400728639E+02  0.00000000000E+00 0. -1.
         11    1    3    3    0    0  0.22051356756E+00 -0.67275383189E+00 -0.42526800866E-01  0.70924801143E+00  0.51100000000E-03 0. -1.
        -11    1    3    3    0    0 -0.38040581080E+02 -0.72711347459E+01  0.12888562041E+02  0.40817523702E+02  0.51100000000E-03 0.  1.
        -12    1    3    3    0    0 -0.37529242668E+01  0.49548671286E+01 -0.74746707402E+00  0.62604996479E+01  0.00000000000E+00 0.  1.
</event>
<event>
 7    1  0.2653124E-010  0.4778727E+02  0.7816164E-02  0.1312668E+00
        -11   -1    0    0    0    0  0.00000000000E+00  0.00000000000E+00  0.45593999997E+02  0.45594000000E+02  0.51100000000E-03 0.  1.
         11   -1    0    0    0    0 -0.00000000000E+00 -0.00000000000E+00 -0.45593999997E+02  0.45594000000E+02  0.51100000000E-03 0. -1.
    9900012    2    1    2    0    0 -0.22908614596E+02  0.19285144434E+01  0.36811674845E+02  0.47787271946E+02  0.20000004111E+02 0.  0.
         12    1    1    2    0    0  0.22908614596E+02 -0.19285144434E+01 -0.36811674845E+02  0.43400728054E+02  0.00000000000E+00 0. -1.
         11    1    3    3    0    0 -0.65906373079E+00 -0.39009904339E+00  0.10140729880E+01  0.12707818660E+01  0.51100000000E-03 0. -1.
        -11    1    3    3    0    0 -0.20015330428E+02  0.48037746883E+01  0.37491154128E+02  0.42770040233E+02  0.51100000000E-03 0.  1.
         12    1    3    3    0    0 -0.22342204381E+01 -0.24851612016E+01 -0.16935522711E+01  0.37464498473E+01  0.00000000000E+00 0. -1.
</event>
<event>
 7    1  0.2653124E-010  0.4778727E+02  0.7816164E-02  0.1312668E+00
        -11   -1    0    0    0    0  0.00000000000E+00  0.00000000000E+00  0.45593999997E+02  0.45594000000E+02  0.51100000000E-03 0.  1.
         11   -1    0    0    0    0 -0.00000000000E+00 -0.00000000000E+00 -0.45593999997E+02  0.45594000000E+02  0.51100000000E-03 0. -1.
    9900012    2    1    2    0    0 -0.31130413382E+02 -0.24242360182E+02 -0.18078396324E+02  0.47787273299E+02  0.20000010279E+02 0.  0.
         12    1    1    2    0    0  0.31130413382E+02  0.24242360182E+02  0.18078396324E+02  0.43400726701E+02  0.00000000000E+00 0. -1.
         11    1    3    3    0    0 -0.63305931973E+01 -0.68568546568E+01  0.16412821262E+01  0.94755830055E+01  0.51100000000E-03 0. -1.
        -11    1    3    3    0    0 -0.13362799647E+02 -0.16571597125E+02 -0.11426091491E+02  0.24160666644E+02  0.51100000000E-03 0.  1.
        -12    1    3    3    0    0 -0.11437020538E+02 -0.81390840041E+00 -0.82935869602E+01  0.14151023650E+02  0.00000000000E+00 0.  1.
</event>
<event>
 7    1  0.2653124E-010  0.4778725E+02  0.7816164E-02  0.1312668E+00
        -11   -1    0    0    0    0  0.00000000000E+00  0.00000000000E+00  0.45593999997E+02  0.45594000000E+02  0.51100000000E-03 0.  1.
         11   -1    0    0    0    0 -0.00000000000E+00 -0.00000000000E+00 -0.45593999997E+02  0.45594000000E+02  0.51100000000E-03 0. -1.
    9900012    2    1    2    0    0  0.19260548334E+02  0.27281321799E+02  0.27719771257E+02  0.47787251622E+02  0.19999911446E+02 0.  0.
         12    1    1    2    0    0 -0.19260548334E+02 -0.27281321799E+02 -0.27719771257E+02  0.43400748378E+02  0.00000000000E+00 0. -1.
         11    1    3    3    0    0  0.11464018066E+02  0.74316648529E+01  0.60410077900E+01  0.14938109924E+02  0.51100000000E-03 0. -1.
        -11    1    3    3    0    0  0.93330801229E+01  0.99609755173E+01  0.17000177598E+02  0.21802143392E+02  0.51100000000E-03 0.  1.
         12    1    3    3    0    0 -0.15365498550E+01  0.98886814288E+01  0.46785858682E+01  0.11046998307E+02  0.00000000000E+00 0. -1.
</event>
<event>
 7    1  0.2653124E-010  0.4778727E+02  0.7816164E-02  0.1312668E+00
        -11   -1    0    0    0    0  0.00000000000E+00  0.00000000000E+00  0.45593999997E+02  0.45594000000E+02  0.51100000000E-03 0.  1.
         11   -1    0    0    0    0 -0.00000000000E+00 -0.00000000000E+00 -0.45593999997E+02  0.45594000000E+02  0.51100000000E-03 0. -1.
    9900012    2    1    2    0    0  0.37141618479E+02 -0.23694510083E+01  0.22327317833E+02  0.47787271400E+02  0.20000001623E+02 0.  0.
         12    1    1    2    0    0 -0.37141618479E+02  0.23694510083E+01 -0.22327317833E+02  0.43400728600E+02  0.00000000000E+00 0. -1.
         11    1    3    3    0    0  0.17381992442E+02  0.33559270293E+01  0.93867857784E+01  0.20037655925E+02  0.51100000000E-03 0. -1.
        -11    1    3    3    0    0  0.20911880205E+02 -0.76475005946E+01  0.11280955225E+02  0.24960988565E+02  0.51100000000E-03 0.  1.
         12    1    3    3    0    0 -0.11522541679E+01  0.19221225570E+01  0.16595768297E+01  0.27886269104E+01  0.00000000000E+00 0. -1.
</event>
<event>
 7    1  0.2653124E-010  0.4778728E+02  0.7816164E-02  0.1312668E+00
        -11   -1    0    0    0    0  0.00000000000E+00  0.00000000000E+00  0.45593999997E+02  0.45594000000E+02  0.51100000000E-03 0.  1.
         11   -1    0    0    0    0 -0.00000000000E+00 -0.00000000000E+00 -0.45593999997E+02  0.45594000000E+02  0.51100000000E-03 0. -1.
    9900012    2    1    2    0    0  0.19952989322E+02  0.48266390832E+01  0.38238784644E+02  0.47787275596E+02  0.20000020754E+02 0.  0.
         12    1    1    2    0    0 -0.19952989322E+02 -0.48266390832E+01 -0.38238784644E+02  0.43400724404E+02  0.00000000000E+00 0. -1.
         11    1    3    3    0    0  0.74953356860E+01  0.32761784161E+01  0.23102304443E+02  0.24507751282E+02  0.51100000000E-03 0. -1.
        -11    1    3    3    0    0  0.11849056586E+02  0.29443093115E+01  0.16964659886E+02  0.20901406283E+02  0.51100000000E-03 0.  1.
         12    1    3    3    0    0  0.60859704943E+00 -0.13938486443E+01 -0.18281796848E+01  0.23781180315E+01  0.00000000000E+00 0. -1.
</event>
<event>
 7    1  0.2653124E-010  0.4778727E+02  0.7816164E-02  0.1312668E+00
        -11   -1    0    0    0    0  0.00000000000E+00  0.00000000000E+00  0.45593999997E+02  0.45594000000E+02  0.51100000000E-03 0.  1.
         11   -1    0    0    0    0 -0.00000000000E+00 -0.00000000000E+00 -0.45593999997E+02  0.45594000000E+02  0.51100000000E-03 0. -1.
    9900012    2    1    2    0    0 -0.60694566026E+01  0.26012948939E+02  0.34206889826E+02  0.47787272731E+02  0.20000007688E+02 0.  0.
         12    1    1    2    0    0  0.60694566026E+01 -0.26012948939E+02 -0.34206889826E+02  0.43400727269E+02  0.00000000000E+00 0. -1.
         11    1    3    3    0    0 -0.11700498926E+01  0.46403234865E+01  0.96351763187E+01  0.10758170930E+02  0.51100000000E-03 0. -1.
        -11    1    3    3    0    0 -0.83618641850E-01  0.15224660254E+02  0.24929985520E+02  0.29211324007E+02  0.51100000000E-03 0.  1.
         12    1    3    3    0    0 -0.48157880682E+01  0.61479651984E+01 -0.35827201289E+00  0.78177777938E+01  0.00000000000E+00 0. -1.
</event>
<event>
 7    1  0.2653124E-010  0.4778727E+02  0.7816164E-02  0.1312668E+00
        -11   -1    0    0    0    0  0.00000000000E+00  0.00000000000E+00  0.45593999997E+02  0.45594000000E+02  0.51100000000E-03 0.  1.
         11   -1    0    0    0    0 -0.00000000000E+00 -0.00000000000E+00 -0.45593999997E+02  0.45594000000E+02  0.51100000000E-03 0. -1.
    9900012    2    1    2    0    0  0.10229238164E+02  0.36713793873E+02  0.20762541428E+02  0.47787273042E+02  0.20000009106E+02 0.  0.
         12    1    1    2    0    0 -0.10229238164E+02 -0.36713793873E+02 -0.20762541428E+02  0.43400726958E+02  0.00000000000E+00 0. -1.
         11    1    3    3    0    0  0.39035094375E+01  0.99626453924E+01  0.19803668906E+01  0.10881798676E+02  0.51100000000E-03 0. -1.
        -11    1    3    3    0    0  0.11424627106E+02  0.18048976195E+02  0.15139365618E+02  0.26181826479E+02  0.51100000000E-03 0.  1.
         12    1    3    3    0    0 -0.50988983795E+01  0.87021722856E+01  0.36428089192E+01  0.10723647887E+02  0.00000000000E+00 0. -1.
</event>
<event>
 7    1  0.2653124E-010  0.4778727E+02  0.7816164E-02  0.1312668E+00
        -11   -1    0    0    0    0  0.00000000000E+00  0.00000000000E+00  0.45593999997E+02  0.45594000000E+02  0.51100000000E-03 0. -1.
         11   -1    0    0    0    0 -0.00000000000E+00 -0.00000000000E+00 -0.45593999997E+02  0.45594000000E+02  0.51100000000E-03 0.  1.
    9900012    2    1    2    0    0 -0.14223518552E+02  0.39754605620E+02 -0.10044233764E+02  0.47787265215E+02  0.19999973420E+02 0.  0.
         12    1    1    2    0    0  0.14223518552E+02 -0.39754605620E+02  0.10044233764E+02  0.43400734785E+02  0.00000000000E+00 0. -1.
         11    1    3    3    0    0 -0.15873331439E+01  0.82241753092E-01  0.93252662326E+00  0.18428229378E+01  0.51100000000E-03 0. -1.
        -11    1    3    3    0    0 -0.12336158469E+02  0.21619306171E+02 -0.12445554870E+02  0.27829247949E+02  0.51100000000E-03 0.  1.
        -12    1    3    3    0    0 -0.30002693951E+00  0.18053057696E+02  0.14687944828E+01  0.18115194328E+02  0.00000000000E+00 0.  1.
</event>
<event>
 7    1  0.2653124E-010  0.4778727E+02  0.7816164E-02  0.1312668E+00
        -11   -1    0    0    0    0  0.00000000000E+00  0.00000000000E+00  0.45593999997E+02  0.45594000000E+02  0.51100000000E-03 0. -1.
         11   -1    0    0    0    0 -0.00000000000E+00 -0.00000000000E+00 -0.45593999997E+02  0.45594000000E+02  0.51100000000E-03 0.  1.
    9900012    2    1    2    0    0  0.19486991639E+02 -0.30145721229E+02 -0.24394994618E+02  0.47787272887E+02  0.20000008400E+02 0.  0.
         12    1    1    2    0    0 -0.19486991639E+02  0.30145721229E+02  0.24394994618E+02  0.43400727113E+02  0.00000000000E+00 0. -1.
         11    1    3    3    0    0  0.12805564851E+00 -0.17937833855E+01  0.18406668941E+01  0.25733464515E+01  0.51100000000E-03 0. -1.
        -11    1    3    3    0    0  0.19097361362E+01 -0.50044975824E+01 -0.11204166208E+02  0.12418753111E+02  0.51100000000E-03 0.  1.
         12    1    3    3    0    0  0.17449199854E+02 -0.23347440261E+02 -0.15031495305E+02  0.32795173324E+02  0.00000000000E+00 0. -1.
</event>
<event>
 7    1  0.2653124E-010  0.4778727E+02  0.7816164E-02  0.1312668E+00
        -11   -1    0    0    0    0  0.00000000000E+00  0.00000000000E+00  0.45593999997E+02  0.45594000000E+02  0.51100000000E-03 0.  1.
         11   -1    0    0    0    0 -0.00000000000E+00 -0.00000000000E+00 -0.45593999997E+02  0.45594000000E+02  0.51100000000E-03 0. -1.
    9900012    2    1    2    0    0  0.34260046581E+02 -0.26623507862E+02  0.10301337329E+01  0.47787272609E+02  0.20000007132E+02 0.  0.
         12    1    1    2    0    0 -0.34260046581E+02  0.26623507862E+02 -0.10301337329E+01  0.43400727391E+02  0.00000000000E+00 0. -1.
         11    1    3    3    0    0  0.16780155560E+01 -0.26462021908E+01  0.36193084350E+00  0.31542220019E+01  0.51100000000E-03 0. -1.
        -11    1    3    3    0    0  0.33298876721E+02 -0.26041370949E+02  0.14895312063E+01  0.42298781250E+02  0.51100000000E-03 0.  1.
         12    1    3    3    0    0 -0.71684569659E+00  0.20640652778E+01 -0.82132831691E+00  0.23342693563E+01  0.00000000000E+00 0. -1.
</event>
<event>
 7    1  0.2653124E-010  0.4778727E+02  0.7816164E-02  0.1312668E+00
        -11   -1    0    0    0    0  0.00000000000E+00  0.00000000000E+00  0.45593999997E+02  0.45594000000E+02  0.51100000000E-03 0. -1.
         11   -1    0    0    0    0 -0.00000000000E+00 -0.00000000000E+00 -0.45593999997E+02  0.45594000000E+02  0.51100000000E-03 0.  1.
    9900012    2    1    2    0    0 -0.18551955672E+02  0.26700859515E+02 -0.28749125942E+02  0.47787271890E+02  0.20000003853E+02 0.  0.
         12    1    1    2    0    0  0.18551955672E+02 -0.26700859515E+02  0.28749125942E+02  0.43400728110E+02  0.00000000000E+00 0. -1.
         11    1    3    3    0    0 -0.13524946118E+02  0.15688805787E+02 -0.59748228317E+01  0.21558323281E+02  0.51100000000E-03 0. -1.
        -11    1    3    3    0    0 -0.37852319464E+01  0.37533209782E+01 -0.68118264782E+01  0.86496462057E+01  0.51100000000E-03 0.  1.
         12    1    3    3    0    0 -0.12417776068E+01  0.72587327497E+01 -0.15962476632E+02  0.17579302403E+02  0.00000000000E+00 0. -1.
</event>
<event>
 7    1  0.2653124E-010  0.4778727E+02  0.7816164E-02  0.1312668E+00
        -11   -1    0    0    0    0  0.00000000000E+00  0.00000000000E+00  0.45593999997E+02  0.45594000000E+02  0.51100000000E-03 0.  1.
         11   -1    0    0    0    0 -0.00000000000E+00 -0.00000000000E+00 -0.45593999997E+02  0.45594000000E+02  0.51100000000E-03 0. -1.
    9900012    2    1    2    0    0  0.20578526596E+02  0.29830143354E+02  0.23881164686E+02  0.47787271480E+02  0.20000001985E+02 0.  0.
         12    1    1    2    0    0 -0.20578526596E+02 -0.29830143354E+02 -0.23881164686E+02  0.43400728520E+02  0.00000000000E+00 0. -1.
         11    1    3    3    0    0  0.17366626583E+01  0.21460827377E+01  0.11344458255E+02  0.11675547168E+02  0.51100000000E-03 0. -1.
        -11    1    3    3    0    0  0.94200696577E+00  0.43619474954E+01  0.14700902659E+01  0.46984176834E+01  0.51100000000E-03 0.  1.
        -12    1    3    3    0    0  0.17899856972E+02  0.23322113120E+02  0.11066616165E+02  0.31413306628E+02  0.00000000000E+00 0.  1.
</event>
<event>
 7    1  0.2653124E-010  0.4778727E+02  0.7816164E-02  0.1312668E+00
        -11   -1    0    0    0    0  0.00000000000E+00  0.00000000000E+00  0.45593999997E+02  0.45594000000E+02  0.51100000000E-03 0.  1.
         11   -1    0    0    0    0 -0.00000000000E+00 -0.00000000000E+00 -0.45593999997E+02  0.45594000000E+02  0.51100000000E-03 0. -1.
    9900012    2    1    2    0    0  0.13654542952E+02 -0.16018131624E+02  0.37955187582E+02  0.47787270186E+02  0.19999996087E+02 0.  0.
         12    1    1    2    0    0 -0.13654542952E+02  0.16018131624E+02 -0.37955187582E+02  0.43400729814E+02  0.00000000000E+00 0. -1.
         11    1    3    3    0    0  0.52826528035E+01 -0.84923916460E+01  0.18438431686E+02  0.20976246085E+02  0.51100000000E-03 0. -1.
        -11    1    3    3    0    0  0.88736501861E+01 -0.14765230754E+01  0.18614726743E+02  0.20674376411E+02  0.51100000000E-03 0.  1.
         12    1    3    3    0    0 -0.50176003712E+00 -0.60492169029E+01  0.90202915252E+00  0.61366476895E+01  0.00000000000E+00 0. -1.
</event>
<event>
 7    1  0.2653124E-010  0.4778727E+02  0.7816164E-02  0.1312668E+00
        -11   -1    0    0    0    0  0.00000000000E+00  0.00000000000E+00  0.45593999997E+02  0.45594000000E+02  0.51100000000E-03 0.  1.
         11   -1    0    0    0    0 -0.00000000000E+00 -0.00000000000E+00 -0.45593999997E+02  0.45594000000E+02  0.51100000000E-03 0. -1.
    9900012    2    1    2    0    0 -0.14233793677E+02 -0.34223016946E+02  0.22578917069E+02  0.47787271120E+02  0.20000000344E+02 0.  0.
         12    1    1    2    0    0  0.14233793677E+02  0.34223016946E+02 -0.22578917069E+02  0.43400728880E+02  0.00000000000E+00 0. -1.
         11    1    3    3    0    0 -0.53175330101E+01 -0.16647743379E+02  0.10223674978E+02  0.20247149114E+02  0.51100000000E-03 0. -1.
        -11    1    3    3    0    0 -0.10694239114E+02 -0.13550567115E+02  0.34448687070E+01  0.17602606058E+02  0.51100000000E-03 0.  1.
         12    1    3    3    0    0  0.17779784468E+01 -0.40247064525E+01  0.89103733841E+01  0.99375159487E+01  0.00000000000E+00 0. -1.
</event>
<event>
 7    1  0.2653124E-010  0.4778727E+02  0.7816164E-02  0.1312668E+00
        -11   -1    0    0    0    0  0.00000000000E+00  0.00000000000E+00  0.45593999997E+02  0.45594000000E+02  0.51100000000E-03 0.  1.
         11   -1    0    0    0    0 -0.00000000000E+00 -0.00000000000E+00 -0.45593999997E+02  0.45594000000E+02  0.51100000000E-03 0. -1.
    9900012    2    1    2    0    0  0.14706203201E+02 -0.12985021458E+02  0.38713561130E+02  0.47787274082E+02  0.20000013849E+02 0.  0.
         12    1    1    2    0    0 -0.14706203201E+02  0.12985021458E+02 -0.38713561130E+02  0.43400725918E+02  0.00000000000E+00 0. -1.
         11    1    3    3    0    0 -0.22414917329E+01 -0.11614606804E+01  0.65200934992E+01  0.69917734231E+01  0.51100000000E-03 0.  1.
        -11    1    3    3    0    0  0.13478908689E+01 -0.33711256897E+01 -0.43345468415E+00  0.36563891251E+01  0.51100000000E-03 0. -1.
        -12    1    3    3    0    0  0.15599804065E+02 -0.84524350883E+01  0.32626922315E+02  0.37139111534E+02  0.00000000000E+00 0.  1.
</event>
<event>
 7    1  0.2653124E-010  0.4778727E+02  0.7816164E-02  0.1312668E+00
        -11   -1    0    0    0    0  0.00000000000E+00  0.00000000000E+00  0.45593999997E+02  0.45594000000E+02  0.51100000000E-03 0.  1.
         11   -1    0    0    0    0 -0.00000000000E+00 -0.00000000000E+00 -0.45593999997E+02  0.45594000000E+02  0.51100000000E-03 0. -1.
    9900012    2    1    2    0    0 -0.24734796254E+02 -0.20660223112E+02  0.29068336012E+02  0.47787272780E+02  0.20000007911E+02 0.  0.
         12    1    1    2    0    0  0.24734796254E+02  0.20660223112E+02 -0.29068336012E+02  0.43400727220E+02  0.00000000000E+00 0. -1.
         11    1    3    3    0    0 -0.30816232477E+01  0.13626333011E+01  0.23374913181E+01  0.41008581148E+01  0.51100000000E-03 0. -1.
        -11    1    3    3    0    0 -0.19357899607E+02 -0.15663229982E+02  0.27239653395E+02  0.36906148106E+02  0.51100000000E-03 0.  1.
        -12    1    3    3    0    0 -0.22952733992E+01 -0.63596264311E+01 -0.50880870112E+00  0.67802665593E+01  0.00000000000E+00 0.  1.
</event>
<event>
 7    1  0.2653124E-010  0.4778727E+02  0.7816164E-02  0.1312668E+00
        -11   -1    0    0    0    0  0.00000000000E+00  0.00000000000E+00  0.45593999997E+02  0.45594000000E+02  0.51100000000E-03 0. -1.
         11   -1    0    0    0    0 -0.00000000000E+00 -0.00000000000E+00 -0.45593999997E+02  0.45594000000E+02  0.51100000000E-03 0.  1.
    9900012    2    1    2    0    0  0.99957132791E+01 -0.35142461292E+02 -0.23424696839E+02  0.47787270840E+02  0.19999999069E+02 0.  0.
         12    1    1    2    0    0 -0.99957132791E+01  0.35142461292E+02  0.23424696839E+02  0.43400729160E+02  0.00000000000E+00 0. -1.
         11    1    3    3    0    0 -0.31358275318E+01 -0.68598878966E+01 -0.46384935347E+01  0.88547783030E+01  0.51100000000E-03 0. -1.
        -11    1    3    3    0    0  0.34846163515E+01 -0.19701632833E+02 -0.16248881374E+02  0.25774464758E+02  0.51100000000E-03 0.  1.
        -12    1    3    3    0    0  0.96469244593E+01 -0.85809405625E+01 -0.25373219300E+01  0.13158027779E+02  0.00000000000E+00 0.  1.
</event>
<event>
 7    1  0.2653124E-010  0.4778727E+02  0.7816164E-02  0.1312668E+00
        -11   -1    0    0    0    0  0.00000000000E+00  0.00000000000E+00  0.45593999997E+02  0.45594000000E+02  0.51100000000E-03 0. -1.
         11   -1    0    0    0    0 -0.00000000000E+00 -0.00000000000E+00 -0.45593999997E+02  0.45594000000E+02  0.51100000000E-03 0.  1.
    9900012    2    1    2    0    0  0.87773475629E+01  0.74432149982E+01 -0.41847107159E+02  0.47787266627E+02  0.19999979858E+02 0.  0.
         12    1    1    2    0    0 -0.87773475629E+01 -0.74432149982E+01  0.41847107159E+02  0.43400733373E+02  0.00000000000E+00 0. -1.
         11    1    3    3    0    0 -0.34870596911E+01  0.16093616821E+01 -0.43060816598E+01  0.57699193958E+01  0.51100000000E-03 0. -1.
        -11    1    3    3    0    0  0.10531759365E+01  0.53240801474E+01 -0.23095417393E+02  0.23724529791E+02  0.51100000000E-03 0.  1.
        -12    1    3    3    0    0  0.11211231317E+02  0.50977316882E+00 -0.14445608106E+02  0.18292817440E+02  0.00000000000E+00 0.  1.
</event>
<event>
 7    1  0.2653124E-010  0.4778725E+02  0.7816164E-02  0.1312668E+00
        -11   -1    0    0    0    0  0.00000000000E+00  0.00000000000E+00  0.45593999997E+02  0.45594000000E+02  0.51100000000E-03 0. -1.
         11   -1    0    0    0    0 -0.00000000000E+00 -0.00000000000E+00 -0.45593999997E+02  0.45594000000E+02  0.51100000000E-03 0.  1.
    9900012    2    1    2    0    0 -0.32093340661E+02 -0.28218087454E+01  0.29080572382E+02  0.47787253354E+02  0.19999919341E+02 0.  0.
         12    1    1    2    0    0  0.32093340661E+02  0.28218087454E+01 -0.29080572382E+02  0.43400746646E+02  0.00000000000E+00 0. -1.
         11    1    3    3    0    0 -0.29815198643E+01  0.26757989270E+01 -0.27130170419E+00  0.40153412650E+01  0.51100000000E-03 0. -1.
        -11    1    3    3    0    0 -0.84015686196E+01 -0.18640380095E+00  0.13039022189E+01  0.85041909024E+01  0.51100000000E-03 0.  1.
        -12    1    3    3    0    0 -0.20710252177E+02 -0.53112038715E+01  0.28047971867E+02  0.35267721186E+02  0.00000000000E+00 0.  1.
</event>
<event>
 7    1  0.2653124E-010  0.4778727E+02  0.7816164E-02  0.1312668E+00
        -11   -1    0    0    0    0  0.00000000000E+00  0.00000000000E+00  0.45593999997E+02  0.45594000000E+02  0.51100000000E-03 0.  1.
         11   -1    0    0    0    0 -0.00000000000E+00 -0.00000000000E+00 -0.45593999997E+02  0.45594000000E+02  0.51100000000E-03 0. -1.
    9900012    2    1    2    0    0 -0.25192535866E+02 -0.32832022016E+02  0.13077364048E+02  0.47787274390E+02  0.20000015255E+02 0.  0.
         12    1    1    2    0    0  0.25192535866E+02  0.32832022016E+02 -0.13077364048E+02  0.43400725610E+02  0.00000000000E+00 0. -1.
         11    1    3    3    0    0  0.12946295122E+00 -0.65679150974E-01 -0.18945912574E+00  0.23868269325E+00  0.51100000000E-03 0. -1.
        -11    1    3    3    0    0  0.15151255146E+01 -0.85327685739E+01 -0.90051248109E+00  0.87129023781E+01  0.51100000000E-03 0.  1.
        -12    1    3    3    0    0 -0.26837124332E+02 -0.24233574291E+02  0.14167335654E+02  0.38835689319E+02  0.00000000000E+00 0.  1.
</event>
<event>
 7    1  0.2653124E-010  0.4778727E+02  0.7816164E-02  0.1312668E+00
        -11   -1    0    0    0    0  0.00000000000E+00  0.00000000000E+00  0.45593999997E+02  0.45594000000E+02  0.51100000000E-03 0. -1.
         11   -1    0    0    0    0 -0.00000000000E+00 -0.00000000000E+00 -0.45593999997E+02  0.45594000000E+02  0.51100000000E-03 0.  1.
    9900012    2    1    2    0    0  0.31412002464E+02  0.15825324919E+02 -0.25425743553E+02  0.47787271402E+02  0.20000001631E+02 0.  0.
         12    1    1    2    0    0 -0.31412002464E+02 -0.15825324919E+02  0.25425743553E+02  0.43400728598E+02  0.00000000000E+00 0. -1.
         11    1    3    3    0    0  0.14797531946E+02  0.52436309503E+01 -0.40308948638E+01  0.16208353738E+02  0.51100000000E-03 0. -1.
        -11    1    3    3    0    0  0.90765958476E+01  0.71747872658E+01 -0.38701298181E+01  0.12200002851E+02  0.51100000000E-03 0.  1.
        -12    1    3    3    0    0  0.75378746708E+01  0.34069067027E+01 -0.17524718871E+02  0.19378914813E+02  0.00000000000E+00 0.  1.
</event>
<event>
 7    1  0.2653124E-010  0.4778726E+02  0.7816164E-02  0.1312668E+00
        -11   -1    0    0    0    0  0.00000000000E+00  0.00000000000E+00  0.45593999997E+02  0.45594000000E+02  0.51100000000E-03 0.  1.
         11   -1    0    0    0    0 -0.00000000000E+00 -0.00000000000E+00 -0.45593999997E+02  0.45594000000E+02  0.51100000000E-03 0. -1.
    9900012    2    1    2    0    0  0.44451121401E+01  0.42310949837E+02 -0.85818688584E+01  0.47787263012E+02  0.19999963376E+02 0.  0.
         12    1    1    2    0    0 -0.44451121401E+01 -0.42310949837E+02  0.85818688584E+01  0.43400736988E+02  0.00000000000E+00 0. -1.
         11    1    3    3    0    0 -0.27634941024E+01  0.15280419999E+02  0.21807714255E+01  0.15680685548E+02  0.51100000000E-03 0.  1.
        -11    1    3    3    0    0  0.12673412973E+01 -0.33252649036E+00  0.10863954751E+01  0.17020526490E+01  0.51100000000E-03 0. -1.
        -12    1    3    3    0    0  0.59412649452E+01  0.27363056328E+02 -0.11849035759E+02  0.30404524814E+02  0.00000000000E+00 0.  1.
</event>
<event>
 7    1  0.2653124E-010  0.4778727E+02  0.7816164E-02  0.1312668E+00
        -11   -1    0    0    0    0  0.00000000000E+00  0.00000000000E+00  0.45593999997E+02  0.45594000000E+02  0.51100000000E-03 0.  1.
         11   -1    0    0    0    0 -0.00000000000E+00 -0.00000000000E+00 -0.45593999997E+02  0.45594000000E+02  0.51100000000E-03 0. -1.
    9900012    2    1    2    0    0  0.14499552543E+02 -0.21173457534E+01  0.40852212749E+02  0.47787268861E+02  0.19999990044E+02 0.  0.
         12    1    1    2    0    0 -0.14499552543E+02  0.21173457534E+01 -0.40852212749E+02  0.43400731139E+02  0.00000000000E+00 0. -1.
         11    1    3    3    0    0  0.57820038652E+01  0.52715168100E+01  0.17358844362E+02  0.19040744104E+02  0.51100000000E-03 0.  1.
        -11    1    3    3    0    0  0.29258079847E+01  0.32521823633E+01  0.50668692176E+01  0.66940426064E+01  0.51100000000E-03 0. -1.
         12    1    3    3    0    0  0.57917406927E+01 -0.10641044927E+02  0.18426499169E+02  0.22052482151E+02  0.00000000000E+00 0. -1.
</event>
<event>
 7    1  0.2653124E-010  0.4778728E+02  0.7816164E-02  0.1312668E+00
        -11   -1    0    0    0    0  0.00000000000E+00  0.00000000000E+00  0.45593999997E+02  0.45594000000E+02  0.51100000000E-03 0. -1.
         11   -1    0    0    0    0 -0.00000000000E+00 -0.00000000000E+00 -0.45593999997E+02  0.45594000000E+02  0.51100000000E-03 0.  1.
    9900012    2    1    2    0    0 -0.24945453473E+02 -0.20219543367E+02 -0.29197895199E+02  0.47787278036E+02  0.20000031876E+02 0.  0.
         12    1    1    2    0    0  0.24945453473E+02  0.20219543367E+02  0.29197895199E+02  0.43400721964E+02  0.00000000000E+00 0. -1.
         11    1    3    3    0    0 -0.34747841594E+01 -0.91605422303E+01 -0.51040530056E+01  0.11047217580E+02  0.51100000000E-03 0. -1.
        -11    1    3    3    0    0 -0.14235250605E+02 -0.12353836567E+02 -0.11274721442E+02  0.21963127773E+02  0.51100000000E-03 0.  1.
         12    1    3    3    0    0 -0.72354187086E+01  0.12948354298E+01 -0.12819120752E+02  0.14776932683E+02  0.00000000000E+00 0. -1.
</event>
<event>
 7    1  0.2653124E-010  0.4778727E+02  0.7816164E-02  0.1312668E+00
        -11   -1    0    0    0    0  0.00000000000E+00  0.00000000000E+00  0.45593999997E+02  0.45594000000E+02  0.51100000000E-03 0. -1.
         11   -1    0    0    0    0 -0.00000000000E+00 -0.00000000000E+00 -0.45593999997E+02  0.45594000000E+02  0.51100000000E-03 0.  1.
    9900012    2    1    2    0    0 -0.33649435708E+01  0.33394818880E+02 -0.27515209210E+02  0.47787268311E+02  0.19999987537E+02 0.  0.
         12    1    1    2    0    0  0.33649435708E+01 -0.33394818880E+02  0.27515209210E+02  0.43400731689E+02  0.00000000000E+00 0. -1.
         11    1    3    3    0    0 -0.99636313422E-01  0.59572942465E+00  0.17427337380E+01  0.18444354381E+01  0.51100000000E-03 0. -1.
        -11    1    3    3    0    0 -0.28813732369E+01  0.15952037467E+01 -0.66075874880E+01  0.73828991187E+01  0.51100000000E-03 0.  1.
         12    1    3    3    0    0 -0.38393402046E+00  0.31203885709E+02 -0.22650355460E+02  0.38559933754E+02  0.00000000000E+00 0. -1.
</event>
<event>
 7    1  0.2653124E-010  0.4778728E+02  0.7816164E-02  0.1312668E+00
        -11   -1    0    0    0    0  0.00000000000E+00  0.00000000000E+00  0.45593999997E+02  0.45594000000E+02  0.51100000000E-03 0.  1.
         11   -1    0    0    0    0 -0.00000000000E+00 -0.00000000000E+00 -0.45593999997E+02  0.45594000000E+02  0.51100000000E-03 0. -1.
    9900012    2    1    2    0    0 -0.32133122287E+02  0.25258460935E+01  0.29063816229E+02  0.47787275810E+02  0.20000021728E+02 0.  0.
         12    1    1    2    0    0  0.32133122287E+02 -0.25258460935E+01 -0.29063816229E+02  0.43400724190E+02  0.00000000000E+00 0. -1.
         11    1    3    3    0    0 -0.10435608958E+02  0.22429810832E+01  0.16380417309E+02  0.19551239601E+02  0.51100000000E-03 0. -1.
        -11    1    3    3    0    0 -0.62743649027E+01  0.30807082929E+01  0.10200679607E+02  0.12365770628E+02  0.51100000000E-03 0.  1.
         12    1    3    3    0    0 -0.15423148427E+02 -0.27978432827E+01  0.24827193133E+01  0.15870265581E+02  0.00000000000E+00 0. -1.
</event>
<event>
 7    1  0.2653124E-010  0.4778728E+02  0.7816164E-02  0.1312668E+00
        -11   -1    0    0    0    0  0.00000000000E+00  0.00000000000E+00  0.45593999997E+02  0.45594000000E+02  0.51100000000E-03 0. -1.
         11   -1    0    0    0    0 -0.00000000000E+00 -0.00000000000E+00 -0.45593999997E+02  0.45594000000E+02  0.51100000000E-03 0.  1.
    9900012    2    1    2    0    0  0.48243398621E+01 -0.26884551403E+02 -0.33727872927E+02  0.47787276833E+02  0.20000026393E+02 0.  0.
         12    1    1    2    0    0 -0.48243398621E+01  0.26884551403E+02  0.33727872927E+02  0.43400723167E+02  0.00000000000E+00 0. -1.
         11    1    3    3    0    0 -0.33113627465E+01 -0.29997922724E+01 -0.15243110111E+01  0.47209534245E+01  0.51100000000E-03 0. -1.
        -11    1    3    3    0    0  0.97988986376E+00 -0.13685203696E+01 -0.11590684781E+02  0.11712258796E+02  0.51100000000E-03 0.  1.
        -12    1    3    3    0    0  0.71558127449E+01 -0.22516238761E+02 -0.20612877135E+02  0.31354064613E+02  0.00000000000E+00 0.  1.
</event>
<event>
 7    1  0.2799990E-010  0.4778727E+02  0.7816164E-02  0.1312668E+00
        -11   -1    0    0    0    0  0.00000000000E+00  0.00000000000E+00  0.45593999997E+02  0.45594000000E+02  0.51100000000E-03 0. -1.
         11   -1    0    0    0    0 -0.00000000000E+00 -0.00000000000E+00 -0.45593999997E+02  0.45594000000E+02  0.51100000000E-03 0.  1.
    9900012    2    1    2    0    0 -0.85934050018E+01 -0.10672239353E+02 -0.41181062570E+02  0.47787271702E+02  0.20000002999E+02 0.  0.
         12    1    1    2    0    0  0.85934050018E+01  0.10672239353E+02  0.41181062570E+02  0.43400728298E+02  0.00000000000E+00 0. -1.
         11    1    3    3    0    0 -0.28094490536E+01  0.21241292123E+01 -0.94656584958E+01  0.10099684149E+02  0.51100000000E-03 0. -1.
        -11    1    3    3    0    0  0.18359218461E+01 -0.54410296869E+01 -0.23753747367E+02  0.24438001705E+02  0.51100000000E-03 0.  1.
         12    1    3    3    0    0 -0.76198777943E+01 -0.73553388788E+01 -0.79616567077E+01  0.13249585848E+02  0.00000000000E+00 0. -1.
</event>
<event>
 7    1  0.2653124E-010  0.4778727E+02  0.7816164E-02  0.1312668E+00
        -11   -1    0    0    0    0  0.00000000000E+00  0.00000000000E+00  0.45593999997E+02  0.45594000000E+02  0.51100000000E-03 0. -1.
         11   -1    0    0    0    0 -0.00000000000E+00 -0.00000000000E+00 -0.45593999997E+02  0.45594000000E+02  0.51100000000E-03 0.  1.
    9900012    2    1    2    0    0 -0.25268077444E+02  0.37650856417E+01 -0.35085206036E+02  0.47787270857E+02  0.19999999145E+02 0.  0.
         12    1    1    2    0    0  0.25268077444E+02 -0.37650856417E+01  0.35085206036E+02  0.43400729143E+02  0.00000000000E+00 0. -1.
         11    1    3    3    0    0 -0.12536744981E+02  0.42965888244E+00 -0.10768169889E+02  0.16532031469E+02  0.51100000000E-03 0. -1.
        -11    1    3    3    0    0 -0.12797513594E+02 -0.26000741942E+01 -0.12734093366E+02  0.18239897865E+02  0.51100000000E-03 0.  1.
         12    1    3    3    0    0  0.66181130853E-01  0.59355009535E+01 -0.11582942781E+02  0.13015341524E+02  0.00000000000E+00 0. -1.
</event>
<event>
 7    1  0.2653124E-010  0.4778727E+02  0.7816164E-02  0.1312668E+00
        -11   -1    0    0    0    0  0.00000000000E+00  0.00000000000E+00  0.45593999997E+02  0.45594000000E+02  0.51100000000E-03 0.  1.
         11   -1    0    0    0    0 -0.00000000000E+00 -0.00000000000E+00 -0.45593999997E+02  0.45594000000E+02  0.51100000000E-03 0. -1.
    9900012    2    1    2    0    0 -0.13223581659E+02  0.38438151367E+02  0.15207532810E+02  0.47787266751E+02  0.19999980425E+02 0.  0.
         12    1    1    2    0    0  0.13223581659E+02 -0.38438151367E+02 -0.15207532810E+02  0.43400733249E+02  0.00000000000E+00 0. -1.
         11    1    3    3    0    0  0.14830448418E+01  0.14843433117E+01  0.26218888093E+00  0.21145780525E+01  0.51100000000E-03 0. -1.
        -11    1    3    3    0    0 -0.11972600695E+02  0.37659705785E+02  0.16034486809E+02  0.42646235176E+02  0.51100000000E-03 0.  1.
         12    1    3    3    0    0 -0.27340258053E+01 -0.70589772980E+00 -0.10891428802E+01  0.30264535223E+01  0.00000000000E+00 0. -1.
</event>
<event>
 7    1  0.2653124E-010  0.4778727E+02  0.7816164E-02  0.1312668E+00
        -11   -1    0    0    0    0  0.00000000000E+00  0.00000000000E+00  0.45593999997E+02  0.45594000000E+02  0.51100000000E-03 0.  1.
         11   -1    0    0    0    0 -0.00000000000E+00 -0.00000000000E+00 -0.45593999997E+02  0.45594000000E+02  0.51100000000E-03 0. -1.
    9900012    2    1    2    0    0 -0.16516700387E+02 -0.31428986095E+02  0.24960781724E+02  0.47787272093E+02  0.20000004779E+02 0.  0.
         12    1    1    2    0    0  0.16516700387E+02  0.31428986095E+02 -0.24960781724E+02  0.43400727907E+02  0.00000000000E+00 0. -1.
         11    1    3    3    0    0 -0.84880135268E-01 -0.36352983212E+00 -0.98107653915E+00  0.10496999633E+01  0.51100000000E-03 0. -1.
        -11    1    3    3    0    0 -0.18424503536E+02 -0.26423815242E+02  0.16891797724E+02  0.36373248042E+02  0.51100000000E-03 0.  1.
        -12    1    3    3    0    0  0.19926832845E+01 -0.46416410215E+01  0.90500605385E+01  0.10364324088E+02  0.00000000000E+00 0.  1.
</event>
<event>
 7    1  0.2653124E-010  0.4778727E+02  0.7816164E-02  0.1312668E+00
        -11   -1    0    0    0    0  0.00000000000E+00  0.00000000000E+00  0.45593999997E+02  0.45594000000E+02  0.51100000000E-03 0.  1.
         11   -1    0    0    0    0 -0.00000000000E+00 -0.00000000000E+00 -0.45593999997E+02  0.45594000000E+02  0.51100000000E-03 0. -1.
    9900012    2    1    2    0    0  0.21864573173E+02  0.14120349679E+02  0.34730095492E+02  0.47787269960E+02  0.19999995057E+02 0.  0.
         12    1    1    2    0    0 -0.21864573173E+02 -0.14120349679E+02 -0.34730095492E+02  0.43400730040E+02  0.00000000000E+00 0. -1.
         11    1    3    3    0    0  0.87256199825E+01  0.40915604008E+01  0.11214147512E+01  0.97023132241E+01  0.51100000000E-03 0. -1.
        -11    1    3    3    0    0 -0.36757343601E+00  0.20903599340E+01  0.56585892819E+01  0.60435376897E+01  0.51100000000E-03 0.  1.
         12    1    3    3    0    0  0.13506526627E+02  0.79384293445E+01  0.27950091459E+02  0.32041419047E+02  0.00000000000E+00 0. -1.
</event>
<event>
 7    1  0.2653124E-010  0.4778727E+02  0.7816164E-02  0.1312668E+00
        -11   -1    0    0    0    0  0.00000000000E+00  0.00000000000E+00  0.45593999997E+02  0.45594000000E+02  0.51100000000E-03 0.  1.
         11   -1    0    0    0    0 -0.00000000000E+00 -0.00000000000E+00 -0.45593999997E+02  0.45594000000E+02  0.51100000000E-03 0. -1.
    9900012    2    1    2    0    0 -0.11814378957E+02 -0.29969029734E+02  0.29084383400E+02  0.47787266699E+02  0.19999980187E+02 0.  0.
         12    1    1    2    0    0  0.11814378957E+02  0.29969029734E+02 -0.29084383400E+02  0.43400733301E+02  0.00000000000E+00 0. -1.
         11    1    3    3    0    0 -0.84110964515E+01 -0.10439680461E+02  0.85540545021E+01  0.15902997212E+02  0.51100000000E-03 0. -1.
        -11    1    3    3    0    0 -0.52107133104E+01 -0.11993797166E+02  0.20280550674E+02  0.24130964332E+02  0.51100000000E-03 0.  1.
        -12    1    3    3    0    0  0.18074308045E+01 -0.75355521068E+01  0.24977822307E+00  0.77533051551E+01  0.00000000000E+00 0.  1.
</event>
<event>
 7    1  0.2653124E-010  0.4778727E+02  0.7816164E-02  0.1312668E+00
        -11   -1    0    0    0    0  0.00000000000E+00  0.00000000000E+00  0.45593999997E+02  0.45594000000E+02  0.51100000000E-03 0. -1.
         11   -1    0    0    0    0 -0.00000000000E+00 -0.00000000000E+00 -0.45593999997E+02  0.45594000000E+02  0.51100000000E-03 0.  1.
    9900012    2    1    2    0    0 -0.39268718544E+02  0.17134659272E+02  0.69278046347E+01  0.47787270957E+02  0.19999999599E+02 0.  0.
         12    1    1    2    0    0  0.39268718544E+02 -0.17134659272E+02 -0.69278046347E+01  0.43400729043E+02  0.00000000000E+00 0. -1.
         11    1    3    3    0    0 -0.10365052692E+02  0.38496454525E+01  0.32442208449E+01  0.11522979500E+02  0.51100000000E-03 0. -1.
        -11    1    3    3    0    0 -0.29541353565E+02  0.12791299638E+02  0.69215126671E+01  0.32927439238E+02  0.51100000000E-03 0.  1.
        -12    1    3    3    0    0  0.63768771321E+00  0.49371418081E+00 -0.32379288773E+01  0.33368522182E+01  0.00000000000E+00 0.  1.
</event>
<event>
 7    1  0.2653124E-010  0.4778728E+02  0.7816164E-02  0.1312668E+00
        -11   -1    0    0    0    0  0.00000000000E+00  0.00000000000E+00  0.45593999997E+02  0.45594000000E+02  0.51100000000E-03 0.  1.
         11   -1    0    0    0    0 -0.00000000000E+00 -0.00000000000E+00 -0.45593999997E+02  0.45594000000E+02  0.51100000000E-03 0. -1.
    9900012    2    1    2    0    0  0.21806681034E+02  0.79074534485E+01  0.36681925320E+02  0.47787276470E+02  0.20000024738E+02 0.  0.
         12    1    1    2    0    0 -0.21806681034E+02 -0.79074534485E+01 -0.36681925320E+02  0.43400723530E+02  0.00000000000E+00 0. -1.
         11    1    3    3    0    0 -0.55411752187E-01  0.30722234762E+01  0.66437020902E+01  0.73198637470E+01  0.51100000000E-03 0. -1.
        -11    1    3    3    0    0  0.13492076400E+02  0.58010006078E+01  0.28271652846E+02  0.31858657984E+02  0.51100000000E-03 0.  1.
         12    1    3    3    0    0  0.83700163870E+01 -0.96577063546E+00  0.17665703831E+01  0.86087547391E+01  0.00000000000E+00 0. -1.
</event>
<event>
 7    1  0.2653124E-010  0.4778727E+02  0.7816164E-02  0.1312668E+00
        -11   -1    0    0    0    0  0.00000000000E+00  0.00000000000E+00  0.45593999997E+02  0.45594000000E+02  0.51100000000E-03 0.  1.
         11   -1    0    0    0    0 -0.00000000000E+00 -0.00000000000E+00 -0.45593999997E+02  0.45594000000E+02  0.51100000000E-03 0. -1.
    9900012    2    1    2    0    0 -0.27513747886E+02  0.22184007950E+02  0.25189018601E+02  0.47787272016E+02  0.20000004430E+02 0.  0.
         12    1    1    2    0    0  0.27513747886E+02 -0.22184007950E+02 -0.25189018601E+02  0.43400727984E+02  0.00000000000E+00 0. -1.
         11    1    3    3    0    0 -0.42904714252E+01 -0.28457903406E+00  0.17725865603E+00  0.43035509953E+01  0.51100000000E-03 0. -1.
        -11    1    3    3    0    0 -0.18554986847E+02  0.79942479876E+01  0.12228203835E+02  0.23616191630E+02  0.51100000000E-03 0.  1.
         12    1    3    3    0    0 -0.46682896138E+01  0.14474338996E+02  0.12783556110E+02  0.19867529391E+02  0.00000000000E+00 0. -1.
</event>
<event>
 7    1  0.2653124E-010  0.4778727E+02  0.7816164E-02  0.1312668E+00
        -11   -1    0    0    0    0  0.00000000000E+00  0.00000000000E+00  0.45593999997E+02  0.45594000000E+02  0.51100000000E-03 0.  1.
         11   -1    0    0    0    0 -0.00000000000E+00 -0.00000000000E+00 -0.45593999997E+02  0.45594000000E+02  0.51100000000E-03 0. -1.
    9900012    2    1    2    0    0 -0.34849401491E+02  0.15266352583E+02  0.20882551610E+02  0.47787271121E+02  0.20000000350E+02 0.  0.
         12    1    1    2    0    0  0.34849401491E+02 -0.15266352583E+02 -0.20882551610E+02  0.43400728879E+02  0.00000000000E+00 0. -1.
         11    1    3    3    0    0 -0.12149554545E+02 -0.72034507110E+00  0.20455895019E+01  0.12341596710E+02  0.51100000000E-03 0. -1.
        -11    1    3    3    0    0 -0.31422996183E+01 -0.61181387366E+00 -0.60598303871E+00  0.32581557377E+01  0.51100000000E-03 0.  1.
        -12    1    3    3    0    0 -0.19557547327E+02  0.16598511528E+02  0.19442945147E+02  0.32187518674E+02  0.00000000000E+00 0.  1.
</event>
<event>
 7    1  0.2653124E-010  0.4778727E+02  0.7816164E-02  0.1312668E+00
        -11   -1    0    0    0    0  0.00000000000E+00  0.00000000000E+00  0.45593999997E+02  0.45594000000E+02  0.51100000000E-03 0.  1.
         11   -1    0    0    0    0 -0.00000000000E+00 -0.00000000000E+00 -0.45593999997E+02  0.45594000000E+02  0.51100000000E-03 0. -1.
    9900012    2    1    2    0    0 -0.13820436277E+02  0.19850436687E+02  0.36035801480E+02  0.47787270929E+02  0.19999999476E+02 0.  0.
         12    1    1    2    0    0  0.13820436277E+02 -0.19850436687E+02 -0.36035801480E+02  0.43400729071E+02  0.00000000000E+00 0. -1.
         11    1    3    3    0    0  0.16542889986E+01  0.81350063065E+01  0.92396127636E+01  0.12421169187E+02  0.51100000000E-03 0. -1.
        -11    1    3    3    0    0  0.16661238886E+01  0.21399307007E+01  0.68976109781E+01  0.74116334018E+01  0.51100000000E-03 0.  1.
        -12    1    3    3    0    0 -0.17140849164E+02  0.95754996802E+01  0.19898577738E+02  0.27954468340E+02  0.00000000000E+00 0.  1.
</event>
<event>
 7    1  0.2653124E-010  0.4778727E+02  0.7816164E-02  0.1312668E+00
        -11   -1    0    0    0    0  0.00000000000E+00  0.00000000000E+00  0.45593999997E+02  0.45594000000E+02  0.51100000000E-03 0.  1.
         11   -1    0    0    0    0 -0.00000000000E+00 -0.00000000000E+00 -0.45593999997E+02  0.45594000000E+02  0.51100000000E-03 0. -1.
    9900012    2    1    2    0    0 -0.23297476400E+02 -0.36461635701E+02  0.33764213242E+01  0.47787268376E+02  0.19999987832E+02 0.  0.
         12    1    1    2    0    0  0.23297476400E+02  0.36461635701E+02 -0.33764213242E+01  0.43400731624E+02  0.00000000000E+00 0. -1.
         11    1    3    3    0    0 -0.73238110157E+01 -0.14346759089E+02 -0.33137401747E+01  0.16445320865E+02  0.51100000000E-03 0. -1.
        -11    1    3    3    0    0 -0.13452707334E+01 -0.41163038313E+01 -0.39158850768E+01  0.58384815469E+01  0.51100000000E-03 0.  1.
         12    1    3    3    0    0 -0.14628394650E+02 -0.17998572781E+02  0.10606046576E+02  0.25503465964E+02  0.00000000000E+00 0. -1.
</event>
<event>
 7    1  0.2653124E-010  0.4778727E+02  0.7816164E-02  0.1312668E+00
        -11   -1    0    0    0    0  0.00000000000E+00  0.00000000000E+00  0.45593999997E+02  0.45594000000E+02  0.51100000000E-03 0.  1.
         11   -1    0    0    0    0 -0.00000000000E+00 -0.00000000000E+00 -0.45593999997E+02  0.45594000000E+02  0.51100000000E-03 0. -1.
    9900012    2    1    2    0    0 -0.10282808185E+01  0.33227021661E+02  0.27902172518E+02  0.47787267735E+02  0.19999984911E+02 0.  0.
         12    1    1    2    0    0  0.10282808185E+01 -0.33227021661E+02 -0.27902172518E+02  0.43400732265E+02  0.00000000000E+00 0. -1.
         11    1    3    3    0    0  0.29434958227E+01  0.18049512371E+02  0.20396503982E+02  0.27394642532E+02  0.51100000000E-03 0. -1.
        -11    1    3    3    0    0  0.25110587432E+01  0.15088358732E+00  0.16627494582E+01  0.30154465491E+01  0.51100000000E-03 0.  1.
        -12    1    3    3    0    0 -0.64828353844E+01  0.15026625702E+02  0.58429190783E+01  0.17377178654E+02  0.00000000000E+00 0.  1.
</event>
<event>
 7    1  0.2653124E-010  0.4778727E+02  0.7816164E-02  0.1312668E+00
        -11   -1    0    0    0    0  0.00000000000E+00  0.00000000000E+00  0.45593999997E+02  0.45594000000E+02  0.51100000000E-03 0. -1.
         11   -1    0    0    0    0 -0.00000000000E+00 -0.00000000000E+00 -0.45593999997E+02  0.45594000000E+02  0.51100000000E-03 0.  1.
    9900012    2    1    2    0    0  0.32670238139E+01  0.16664745562E+02  0.39940403406E+02  0.47787274044E+02  0.20000013677E+02 0.  0.
         12    1    1    2    0    0 -0.32670238139E+01 -0.16664745562E+02 -0.39940403406E+02  0.43400725956E+02  0.00000000000E+00 0. -1.
         11    1    3    3    0    0 -0.12452622961E+01 -0.38619370443E+00  0.17862127422E+01  0.22114203547E+01  0.51100000000E-03 0. -1.
        -11    1    3    3    0    0  0.61240217733E+01  0.20352656397E+02  0.32490500227E+02  0.38824822863E+02  0.51100000000E-03 0.  1.
        -12    1    3    3    0    0 -0.16117356632E+01 -0.33017171303E+01  0.56636904373E+01  0.67510308269E+01  0.00000000000E+00 0.  1.
</event>
<event>
 7    1  0.2653124E-010  0.4778727E+02  0.7816164E-02  0.1312668E+00
        -11   -1    0    0    0    0  0.00000000000E+00  0.00000000000E+00  0.45593999997E+02  0.45594000000E+02  0.51100000000E-03 0.  1.
         11   -1    0    0    0    0 -0.00000000000E+00 -0.00000000000E+00 -0.45593999997E+02  0.45594000000E+02  0.51100000000E-03 0. -1.
    9900012    2    1    2    0    0  0.37248314743E+02  0.21120591393E+02  0.70786221717E+01  0.47787271621E+02  0.20000002627E+02 0.  0.
         12    1    1    2    0    0 -0.37248314743E+02 -0.21120591393E+02 -0.70786221717E+01  0.43400728379E+02  0.00000000000E+00 0. -1.
         11    1    3    3    0    0  0.43868566602E+01  0.10798655804E+01 -0.88322719594E+00  0.46033370037E+01  0.51100000000E-03 0.  1.
        -11    1    3    3    0    0  0.21560650967E+02  0.15599214389E+02  0.13497605409E+02  0.29839278003E+02  0.51100000000E-03 0. -1.
         12    1    3    3    0    0  0.11300807116E+02  0.44415114245E+01 -0.55357560417E+01  0.13344656614E+02  0.00000000000E+00 0. -1.
</event>
<event>
 7    1  0.2653124E-010  0.4778726E+02  0.7816164E-02  0.1312668E+00
        -11   -1    0    0    0    0  0.00000000000E+00  0.00000000000E+00  0.45593999997E+02  0.45594000000E+02  0.51100000000E-03 0.  1.
         11   -1    0    0    0    0 -0.00000000000E+00 -0.00000000000E+00 -0.45593999997E+02  0.45594000000E+02  0.51100000000E-03 0. -1.
    9900012    2    1    2    0    0  0.19664793640E+02  0.37654136483E+02  0.88930293686E+01  0.47787261821E+02  0.19999957946E+02 0.  0.
         12    1    1    2    0    0 -0.19664793640E+02 -0.37654136483E+02 -0.88930293686E+01  0.43400738179E+02  0.00000000000E+00 0. -1.
         11    1    3    3    0    0  0.19626171599E+00  0.12306741370E+02  0.27275067077E+01  0.12606890771E+02  0.51100000000E-03 0. -1.
        -11    1    3    3    0    0  0.57056278411E+01  0.11240150381E+02  0.86902568059E+01  0.15310641178E+02  0.51100000000E-03 0.  1.
         12    1    3    3    0    0  0.13762904083E+02  0.14107244731E+02 -0.25247341450E+01  0.19869729872E+02  0.00000000000E+00 0. -1.
</event>
<event>
 7    1  0.2653124E-010  0.4778727E+02  0.7816164E-02  0.1312668E+00
        -11   -1    0    0    0    0  0.00000000000E+00  0.00000000000E+00  0.45593999997E+02  0.45594000000E+02  0.51100000000E-03 0. -1.
         11   -1    0    0    0    0 -0.00000000000E+00 -0.00000000000E+00 -0.45593999997E+02  0.45594000000E+02  0.51100000000E-03 0.  1.
    9900012    2    1    2    0    0 -0.24233327454E+02 -0.62803158270E+01 -0.35453163129E+02  0.47787270718E+02  0.19999998510E+02 0.  0.
         12    1    1    2    0    0  0.24233327454E+02  0.62803158270E+01  0.35453163129E+02  0.43400729282E+02  0.00000000000E+00 0. -1.
         11    1    3    3    0    0 -0.51301968293E+00 -0.25365827991E+01  0.58782916260E+00  0.26538622567E+01  0.51100000000E-03 0. -1.
        -11    1    3    3    0    0 -0.74628073436E+01 -0.42324109416E+01 -0.46007249691E+01  0.97351664767E+01  0.51100000000E-03 0.  1.
        -12    1    3    3    0    0 -0.16257500427E+02  0.48867791369E+00 -0.31440267323E+02  0.35398241984E+02  0.00000000000E+00 0.  1.
</event>
<event>
 7    1  0.3759057E-010  0.4778733E+02  0.7816164E-02  0.1312667E+00
        -11   -1    0    0    0    0  0.00000000000E+00  0.00000000000E+00  0.45593999997E+02  0.45594000000E+02  0.51100000000E-03 0. -1.
         11   -1    0    0    0    0 -0.00000000000E+00 -0.00000000000E+00 -0.45593999997E+02  0.45594000000E+02  0.51100000000E-03 0.  1.
    9900012    2    1    2    0    0 -0.23324472709E+02 -0.36229896641E+02 -0.51943791370E+01  0.47787331660E+02  0.20000276367E+02 0.  0.
         12    1    1    2    0    0  0.23324472709E+02  0.36229896641E+02  0.51943791370E+01  0.43400668340E+02  0.00000000000E+00 0. -1.
         11    1    3    3    0    0 -0.99339373436E+00 -0.46490794945E+01  0.38721919812E+01  0.61314469954E+01  0.51100000000E-03 0. -1.
        -11    1    3    3    0    0 -0.16967426525E+02 -0.30861080989E+02 -0.83763498071E+01  0.36200319323E+02  0.51100000000E-03 0.  1.
         12    1    3    3    0    0 -0.53636524497E+01 -0.71973615699E+00 -0.69022131102E+00  0.54555653415E+01  0.00000000000E+00 0. -1.
</event>
<event>
 7    1  0.2653124E-010  0.4778729E+02  0.7816164E-02  0.1312668E+00
        -11   -1    0    0    0    0  0.00000000000E+00  0.00000000000E+00  0.45593999997E+02  0.45594000000E+02  0.51100000000E-03 0. -1.
         11   -1    0    0    0    0 -0.00000000000E+00 -0.00000000000E+00 -0.45593999997E+02  0.45594000000E+02  0.51100000000E-03 0.  1.
    9900012    2    1    2    0    0  0.29063526432E+02 -0.18489670708E+02 -0.26401990041E+02  0.47787290677E+02  0.20000089514E+02 0.  0.
         12    1    1    2    0    0 -0.29063526432E+02  0.18489670708E+02  0.26401990041E+02  0.43400709323E+02  0.00000000000E+00 0. -1.
         11    1    3    3    0    0  0.10734042939E+02 -0.74484075224E+01 -0.11493404641E+02  0.17401057523E+02  0.51100000000E-03 0. -1.
        -11    1    3    3    0    0  0.15437696275E+02 -0.30042257089E+01 -0.15155549441E+02  0.21841211448E+02  0.51100000000E-03 0.  1.
         12    1    3    3    0    0  0.28917872180E+01 -0.80370374770E+01  0.24696404039E+00  0.85450217061E+01  0.00000000000E+00 0. -1.
</event>
<event>
 7    1  0.2653124E-010  0.4778727E+02  0.7816164E-02  0.1312668E+00
        -11   -1    0    0    0    0  0.00000000000E+00  0.00000000000E+00  0.45593999997E+02  0.45594000000E+02  0.51100000000E-03 0.  1.
         11   -1    0    0    0    0 -0.00000000000E+00 -0.00000000000E+00 -0.45593999997E+02  0.45594000000E+02  0.51100000000E-03 0. -1.
    9900012    2    1    2    0    0 -0.27249661820E+02  0.24322764973E+02  0.23441043601E+02  0.47787268551E+02  0.19999988629E+02 0.  0.
         12    1    1    2    0    0  0.27249661820E+02 -0.24322764973E+02 -0.23441043601E+02  0.43400731449E+02  0.00000000000E+00 0. -1.
         11    1    3    3    0    0  0.13602968801E+01  0.16539691253E+01  0.46736725718E+01  0.51409373697E+01  0.51100000000E-03 0. -1.
        -11    1    3    3    0    0 -0.41447688824E+01  0.56197094165E+01  0.87375136847E+01  0.11185007316E+02  0.51100000000E-03 0.  1.
         12    1    3    3    0    0 -0.24465189818E+02  0.17049086431E+02  0.10029857344E+02  0.31461323865E+02  0.00000000000E+00 0. -1.
</event>
<event>
 7    1  0.2653124E-010  0.4778727E+02  0.7816164E-02  0.1312668E+00
        -11   -1    0    0    0    0  0.00000000000E+00  0.00000000000E+00  0.45593999997E+02  0.45594000000E+02  0.51100000000E-03 0.  1.
         11   -1    0    0    0    0 -0.00000000000E+00 -0.00000000000E+00 -0.45593999997E+02  0.45594000000E+02  0.51100000000E-03 0. -1.
    9900012    2    1    2    0    0  0.38592372511E+02  0.16464394899E+02  0.11098447444E+02  0.47787273612E+02  0.20000011705E+02 0.  0.
         12    1    1    2    0    0 -0.38592372511E+02 -0.16464394899E+02 -0.11098447444E+02  0.43400726388E+02  0.00000000000E+00 0. -1.
         11    1    3    3    0    0  0.10544599355E+02  0.10935482229E+02  0.68571091577E+01  0.16667132128E+02  0.51100000000E-03 0.  1.
        -11    1    3    3    0    0 -0.96477997058E+00  0.23480302249E+00  0.10680159513E+01  0.14582836433E+01  0.51100000000E-03 0. -1.
         12    1    3    3    0    0  0.29012553126E+02  0.52941096479E+01  0.31733223346E+01  0.29661857840E+02  0.00000000000E+00 0. -1.
</event>
<event>
 7    1  0.2653124E-010  0.4778727E+02  0.7816164E-02  0.1312668E+00
        -11   -1    0    0    0    0  0.00000000000E+00  0.00000000000E+00  0.45593999997E+02  0.45594000000E+02  0.51100000000E-03 0. -1.
         11   -1    0    0    0    0 -0.00000000000E+00 -0.00000000000E+00 -0.45593999997E+02  0.45594000000E+02  0.51100000000E-03 0.  1.
    9900012    2    1    2    0    0 -0.11518197434E+02 -0.38435665607E+02 -0.16542491035E+02  0.47787271061E+02  0.20000000077E+02 0.  0.
         12    1    1    2    0    0  0.11518197434E+02  0.38435665607E+02  0.16542491035E+02  0.43400728939E+02  0.00000000000E+00 0. -1.
         11    1    3    3    0    0 -0.18199190685E+01 -0.23164918592E+01  0.94744362069E+00  0.30944934360E+01  0.51100000000E-03 0. -1.
        -11    1    3    3    0    0 -0.12740850170E+02 -0.35620878774E+02 -0.14875573384E+02  0.40650448355E+02  0.51100000000E-03 0.  1.
        -12    1    3    3    0    0  0.30425718051E+01 -0.49829497363E+00 -0.26143612722E+01  0.40423292705E+01  0.00000000000E+00 0.  1.
</event>
<event>
 7    1  0.2653124E-010  0.4778727E+02  0.7816164E-02  0.1312668E+00
        -11   -1    0    0    0    0  0.00000000000E+00  0.00000000000E+00  0.45593999997E+02  0.45594000000E+02  0.51100000000E-03 0.  1.
         11   -1    0    0    0    0 -0.00000000000E+00 -0.00000000000E+00 -0.45593999997E+02  0.45594000000E+02  0.51100000000E-03 0. -1.
    9900012    2    1    2    0    0  0.93957872379E+00 -0.19142324718E+01  0.43348313665E+02  0.47787269686E+02  0.19999993807E+02 0.  0.
         12    1    1    2    0    0 -0.93957872379E+00  0.19142324718E+01 -0.43348313665E+02  0.43400730314E+02  0.00000000000E+00 0. -1.
         11    1    3    3    0    0 -0.21678042425E+01  0.55117454621E+00 -0.57813197209E+00  0.23102825482E+01  0.51100000000E-03 0.  1.
        -11    1    3    3    0    0  0.41069749973E+01 -0.39179065420E+01  0.99522875599E+01  0.11457105360E+02  0.51100000000E-03 0. -1.
        -12    1    3    3    0    0 -0.99959203105E+00  0.14524995240E+01  0.33974158078E+02  0.34019881778E+02  0.00000000000E+00 0.  1.
</event>
<event>
 7    1  0.2653124E-010  0.4778729E+02  0.7816164E-02  0.1312668E+00
        -11   -1    0    0    0    0  0.00000000000E+00  0.00000000000E+00  0.45593999997E+02  0.45594000000E+02  0.51100000000E-03 0.  1.
         11   -1    0    0    0    0 -0.00000000000E+00 -0.00000000000E+00 -0.45593999997E+02  0.45594000000E+02  0.51100000000E-03 0. -1.
    9900012    2    1    2    0    0  0.19329514224E+01  0.22498281299E+02  0.37063627688E+02  0.47787291941E+02  0.20000095274E+02 0.  0.
         12    1    1    2    0    0 -0.19329514224E+01 -0.22498281299E+02 -0.37063627688E+02  0.43400708059E+02  0.00000000000E+00 0. -1.
         11    1    3    3    0    0 -0.21269712984E+01  0.93563196438E+01  0.11980491092E+02  0.15349165816E+02  0.51100000000E-03 0. -1.
        -11    1    3    3    0    0  0.45486308094E+01  0.15827703726E+02  0.24692616083E+02  0.29680490845E+02  0.51100000000E-03 0.  1.
        -12    1    3    3    0    0 -0.48870808856E+00 -0.26857420706E+01  0.39052051283E+00  0.27576352799E+01  0.00000000000E+00 0.  1.
</event>
<event>
 7    1  0.2653124E-010  0.4778727E+02  0.7816164E-02  0.1312668E+00
        -11   -1    0    0    0    0  0.00000000000E+00  0.00000000000E+00  0.45593999997E+02  0.45594000000E+02  0.51100000000E-03 0.  1.
         11   -1    0    0    0    0 -0.00000000000E+00 -0.00000000000E+00 -0.45593999997E+02  0.45594000000E+02  0.51100000000E-03 0. -1.
    9900012    2    1    2    0    0  0.23705672081E+02 -0.29887493202E+02  0.20697884573E+02  0.47787267696E+02  0.19999984735E+02 0.  0.
         12    1    1    2    0    0 -0.23705672081E+02  0.29887493202E+02 -0.20697884573E+02  0.43400732304E+02  0.00000000000E+00 0. -1.
         11    1    3    3    0    0  0.40696042098E+00  0.48433313468E+00 -0.11092387230E+01  0.12769519080E+01  0.51100000000E-03 0. -1.
        -11    1    3    3    0    0  0.75104094912E+01 -0.19398777275E+02  0.60851291586E+01  0.21673661611E+02  0.51100000000E-03 0.  1.
        -12    1    3    3    0    0  0.15788302168E+02 -0.10973049061E+02  0.15721994137E+02  0.24836654177E+02  0.00000000000E+00 0.  1.
</event>
<event>
 7    1  0.2653124E-010  0.4778723E+02  0.7816164E-02  0.1312668E+00
        -11   -1    0    0    0    0  0.00000000000E+00  0.00000000000E+00  0.45593999997E+02  0.45594000000E+02  0.51100000000E-03 0. -1.
         11   -1    0    0    0    0 -0.00000000000E+00 -0.00000000000E+00 -0.45593999997E+02  0.45594000000E+02  0.51100000000E-03 0.  1.
    9900012    2    1    2    0    0  0.33780168158E+02  0.26847889962E+02 -0.46602083464E+01  0.47787233901E+02  0.19999830646E+02 0.  0.
         12    1    1    2    0    0 -0.33780168158E+02 -0.26847889962E+02  0.46602083464E+01  0.43400766099E+02  0.00000000000E+00 0. -1.
         11    1    3    3    0    0  0.11940589225E+02  0.17114312115E+01 -0.18311346400E+01  0.12200808259E+02  0.51100000000E-03 0. -1.
        -11    1    3    3    0    0  0.20545747961E+02  0.17166446383E+02 -0.49751922919E+01  0.27231731111E+02  0.51100000000E-03 0.  1.
         12    1    3    3    0    0  0.12938309716E+01  0.79700123673E+01  0.21461185855E+01  0.83546945307E+01  0.00000000000E+00 0. -1.
</event>
<event>
 7    1  0.2653124E-010  0.4778727E+02  0.7816164E-02  0.1312668E+00
        -11   -1    0    0    0    0  0.00000000000E+00  0.00000000000E+00  0.45593999997E+02  0.45594000000E+02  0.51100000000E-03 0.  1.
         11   -1    0    0    0    0 -0.00000000000E+00 -0.00000000000E+00 -0.45593999997E+02  0.45594000000E+02  0.51100000000E-03 0. -1.
    9900012    2    1    2    0    0 -0.33609693063E+02  0.19577874569E+02  0.19254051758E+02  0.47787272477E+02  0.20000006531E+02 0.  0.
         12    1    1    2    0    0  0.33609693063E+02 -0.19577874569E+02 -0.19254051758E+02  0.43400727523E+02  0.00000000000E+00 0. -1.
         11    1    3    3    0    0 -0.10256730623E+02  0.63553694349E+01  0.34655884468E+01  0.12553945486E+02  0.51100000000E-03 0. -1.
        -11    1    3    3    0    0 -0.24486767559E+01  0.89756128401E+01  0.87471695380E+01  0.12769910685E+02  0.51100000000E-03 0.  1.
         12    1    3    3    0    0 -0.20904285684E+02  0.42468922942E+01  0.70412937733E+01  0.22463416306E+02  0.00000000000E+00 0. -1.
</event>
<event>
 7    1  0.2653124E-010  0.4778727E+02  0.7816164E-02  0.1312668E+00
        -11   -1    0    0    0    0  0.00000000000E+00  0.00000000000E+00  0.45593999997E+02  0.45594000000E+02  0.51100000000E-03 0.  1.
         11   -1    0    0    0    0 -0.00000000000E+00 -0.00000000000E+00 -0.45593999997E+02  0.45594000000E+02  0.51100000000E-03 0. -1.
    9900012    2    1    2    0    0 -0.18947672314E+02  0.23127997681E+02  0.31459576256E+02  0.47787268427E+02  0.19999988065E+02 0.  0.
         12    1    1    2    0    0  0.18947672314E+02 -0.23127997681E+02 -0.31459576256E+02  0.43400731573E+02  0.00000000000E+00 0. -1.
         11    1    3    3    0    0 -0.95639898088E+00 -0.13857279142E+01  0.28587657437E+01  0.33177526583E+01  0.51100000000E-03 0. -1.
        -11    1    3    3    0    0 -0.67814606483E+01  0.41335122385E+01  0.16359240711E+02  0.18185128233E+02  0.51100000000E-03 0.  1.
        -12    1    3    3    0    0 -0.11209812685E+02  0.20380213357E+02  0.12241569802E+02  0.26284387536E+02  0.00000000000E+00 0.  1.
</event>
<event>
 7    1  0.2653124E-010  0.4778727E+02  0.7816164E-02  0.1312668E+00
        -11   -1    0    0    0    0  0.00000000000E+00  0.00000000000E+00  0.45593999997E+02  0.45594000000E+02  0.51100000000E-03 0.  1.
         11   -1    0    0    0    0 -0.00000000000E+00 -0.00000000000E+00 -0.45593999997E+02  0.45594000000E+02  0.51100000000E-03 0. -1.
    9900012    2    1    2    0    0 -0.13944047442E+02 -0.10304135476E+01  0.41086797547E+02  0.47787272543E+02  0.20000006833E+02 0.  0.
         12    1    1    2    0    0  0.13944047442E+02  0.10304135476E+01 -0.41086797547E+02  0.43400727457E+02  0.00000000000E+00 0. -1.
         11    1    3    3    0    0 -0.95559094978E+00 -0.61581148102E+00  0.26578159539E+00  0.11674836020E+01  0.51100000000E-03 0. -1.
        -11    1    3    3    0    0  0.46214464512E+01 -0.15369631807E+01  0.90745571134E+01  0.10298913058E+02  0.51100000000E-03 0.  1.
         12    1    3    3    0    0 -0.17609902943E+02  0.11223611141E+01  0.31746458838E+02  0.36320875883E+02  0.00000000000E+00 0. -1.
</event>
<event>
 7    1  0.2653124E-010  0.4778727E+02  0.7816164E-02  0.1312668E+00
        -11   -1    0    0    0    0  0.00000000000E+00  0.00000000000E+00  0.45593999997E+02  0.45594000000E+02  0.51100000000E-03 0.  1.
         11   -1    0    0    0    0 -0.00000000000E+00 -0.00000000000E+00 -0.45593999997E+02  0.45594000000E+02  0.51100000000E-03 0. -1.
    9900012    2    1    2    0    0 -0.28532831665E+02  0.56109817151E+01  0.32218284423E+02  0.47787269018E+02  0.19999990761E+02 0.  0.
         12    1    1    2    0    0  0.28532831665E+02 -0.56109817151E+01 -0.32218284423E+02  0.43400730982E+02  0.00000000000E+00 0. -1.
         11    1    3    3    0    0 -0.89204102256E+01  0.70585736110E+01  0.11450596304E+02  0.16140425521E+02  0.51100000000E-03 0. -1.
        -11    1    3    3    0    0 -0.20370612831E+02  0.16927430093E+01  0.19247154406E+02  0.28076328090E+02  0.51100000000E-03 0.  1.
        -12    1    3    3    0    0  0.75819139213E+00 -0.31403349053E+01  0.15205337133E+01  0.35705154079E+01  0.00000000000E+00 0.  1.
</event>
<event>
 7    1  0.2653124E-010  0.4778727E+02  0.7816164E-02  0.1312668E+00
        -11   -1    0    0    0    0  0.00000000000E+00  0.00000000000E+00  0.45593999997E+02  0.45594000000E+02  0.51100000000E-03 0.  1.
         11   -1    0    0    0    0 -0.00000000000E+00 -0.00000000000E+00 -0.45593999997E+02  0.45594000000E+02  0.51100000000E-03 0. -1.
    9900012    2    1    2    0    0 -0.10628635130E+02  0.10424671564E+01  0.42066241712E+02  0.47787270579E+02  0.19999997876E+02 0.  0.
         12    1    1    2    0    0  0.10628635130E+02 -0.10424671564E+01 -0.42066241712E+02  0.43400729421E+02  0.00000000000E+00 0. -1.
         11    1    3    3    0    0 -0.15413382540E+01 -0.20837660390E+01  0.54608040608E+00  0.26487749224E+01  0.51100000000E-03 0. -1.
        -11    1    3    3    0    0 -0.45043882377E+01  0.60096058374E+01  0.72346908014E+01  0.10428117134E+02  0.51100000000E-03 0.  1.
        -12    1    3    3    0    0 -0.45829086382E+01 -0.28833726420E+01  0.34285470505E+02  0.34710378522E+02  0.00000000000E+00 0.  1.
</event>
<event>
 7    1  0.2653124E-010  0.4778728E+02  0.7816164E-02  0.1312668E+00
        -11   -1    0    0    0    0  0.00000000000E+00  0.00000000000E+00  0.45593999997E+02  0.45594000000E+02  0.51100000000E-03 0.  1.
         11   -1    0    0    0    0 -0.00000000000E+00 -0.00000000000E+00 -0.45593999997E+02  0.45594000000E+02  0.51100000000E-03 0. -1.
    9900012    2    1    2    0    0  0.18746676082E+02  0.29457346933E+02  0.25776922421E+02  0.47787275559E+02  0.20000020583E+02 0.  0.
         12    1    1    2    0    0 -0.18746676082E+02 -0.29457346933E+02 -0.25776922421E+02  0.43400724441E+02  0.00000000000E+00 0. -1.
         11    1    3    3    0    0  0.43428659500E+01  0.17659924058E+01  0.10972165604E+00  0.46894832274E+01  0.51100000000E-03 0. -1.
        -11    1    3    3    0    0 -0.49336491001E+00 -0.16127639292E+01  0.73766537883E+00  0.18408060458E+01  0.51100000000E-03 0.  1.
        -12    1    3    3    0    0  0.14897175042E+02  0.29304118457E+02  0.24929535387E+02  0.41256986286E+02  0.00000000000E+00 0.  1.
</event>
<event>
 7    1  0.2653124E-010  0.4778727E+02  0.7816164E-02  0.1312668E+00
        -11   -1    0    0    0    0  0.00000000000E+00  0.00000000000E+00  0.45593999997E+02  0.45594000000E+02  0.51100000000E-03 0.  1.
         11   -1    0    0    0    0 -0.00000000000E+00 -0.00000000000E+00 -0.45593999997E+02  0.45594000000E+02  0.51100000000E-03 0. -1.
    9900012    2    1    2    0    0  0.78079355701E+01  0.33732004917E+02 -0.26168906867E+02  0.47787266133E+02  0.19999977607E+02 0.  0.
         12    1    1    2    0    0 -0.78079355701E+01 -0.33732004917E+02  0.26168906867E+02  0.43400733867E+02  0.00000000000E+00 0. -1.
         11    1    3    3    0    0 -0.14569743093E+01  0.64336551448E+01 -0.74940127509E+01  0.99837327705E+01  0.51100000000E-03 0. -1.
        -11    1    3    3    0    0  0.59224883415E+01  0.25839987705E+02 -0.20698068667E+02  0.33633181228E+02  0.51100000000E-03 0.  1.
        -12    1    3    3    0    0  0.33424215379E+01  0.14583620678E+01  0.20231745515E+01  0.41703521343E+01  0.00000000000E+00 0.  1.
</event>
<event>
 7    1  0.2653124E-010  0.4778727E+02  0.7816164E-02  0.1312668E+00
        -11   -1    0    0    0    0  0.00000000000E+00  0.00000000000E+00  0.45593999997E+02  0.45594000000E+02  0.51100000000E-03 0.  1.
         11   -1    0    0    0    0 -0.00000000000E+00 -0.00000000000E+00 -0.45593999997E+02  0.45594000000E+02  0.51100000000E-03 0. -1.
    9900012    2    1    2    0    0 -0.17637053920E+02 -0.17293551173E+02  0.35686003209E+02  0.47787269497E+02  0.19999992945E+02 0.  0.
         12    1    1    2    0    0  0.17637053920E+02  0.17293551173E+02 -0.35686003209E+02  0.43400730503E+02  0.00000000000E+00 0. -1.
         11    1    3    3    0    0 -0.45082592537E+01 -0.70556895634E+01  0.36544816105E+01  0.91357754359E+01  0.51100000000E-03 0. -1.
        -11    1    3    3    0    0 -0.48169828294E+01 -0.83992908864E+01  0.63081369474E+01  0.11556124047E+02  0.51100000000E-03 0.  1.
         12    1    3    3    0    0 -0.83118118371E+01 -0.18385707232E+01  0.25723384651E+02  0.27095370015E+02  0.00000000000E+00 0. -1.
</event>
<event>
 7    1  0.2653124E-010  0.4778727E+02  0.7816164E-02  0.1312668E+00
        -11   -1    0    0    0    0  0.00000000000E+00  0.00000000000E+00  0.45593999997E+02  0.45594000000E+02  0.51100000000E-03 0.  1.
         11   -1    0    0    0    0 -0.00000000000E+00 -0.00000000000E+00 -0.45593999997E+02  0.45594000000E+02  0.51100000000E-03 0. -1.
    9900012    2    1    2    0    0 -0.22253694342E+02 -0.36730075766E+02  0.62688145935E+01  0.47787269430E+02  0.19999992638E+02 0.  0.
         12    1    1    2    0    0  0.22253694342E+02  0.36730075766E+02 -0.62688145935E+01  0.43400730570E+02  0.00000000000E+00 0. -1.
         11    1    3    3    0    0 -0.88645272807E+01 -0.88963609561E+01 -0.20975733717E+01  0.12732827513E+02  0.51100000000E-03 0. -1.
        -11    1    3    3    0    0 -0.13289532130E+02 -0.12618084895E+02  0.75397650625E+01  0.19816048751E+02  0.51100000000E-03 0.  1.
        -12    1    3    3    0    0 -0.99634930597E-01 -0.15215629915E+02  0.82662290274E+00  0.15238393165E+02  0.00000000000E+00 0.  1.
</event>
<event>
 7    1  0.2653124E-010  0.4778727E+02  0.7816164E-02  0.1312668E+00
        -11   -1    0    0    0    0  0.00000000000E+00  0.00000000000E+00  0.45593999997E+02  0.45594000000E+02  0.51100000000E-03 0.  1.
         11   -1    0    0    0    0 -0.00000000000E+00 -0.00000000000E+00 -0.45593999997E+02  0.45594000000E+02  0.51100000000E-03 0. -1.
    9900012    2    1    2    0    0 -0.97150243118E+01 -0.17681660061E+02  0.38426565534E+02  0.47787265690E+02  0.19999975589E+02 0.  0.
         12    1    1    2    0    0  0.97150243118E+01  0.17681660061E+02 -0.38426565534E+02  0.43400734310E+02  0.00000000000E+00 0. -1.
         11    1    3    3    0    0  0.27889963223E+01 -0.20001242131E+01  0.37615190871E+01  0.50919567415E+01  0.51100000000E-03 0. -1.
        -11    1    3    3    0    0 -0.60445665711E+01  0.15898651353E+01  0.11483319426E+02  0.13074061399E+02  0.51100000000E-03 0.  1.
        -12    1    3    3    0    0 -0.64594540629E+01 -0.17271400983E+02  0.23181727021E+02  0.29621247549E+02  0.00000000000E+00 0.  1.
</event>
<event>
 7    1  0.2653124E-010  0.4778727E+02  0.7816164E-02  0.1312668E+00
        -11   -1    0    0    0    0  0.00000000000E+00  0.00000000000E+00  0.45593999997E+02  0.45594000000E+02  0.51100000000E-03 0.  1.
         11   -1    0    0    0    0 -0.00000000000E+00 -0.00000000000E+00 -0.45593999997E+02  0.45594000000E+02  0.51100000000E-03 0. -1.
    9900012    2    1    2    0    0  0.36549366446E+02 -0.34398234002E+01  0.23150262927E+02  0.47787271363E+02  0.20000001451E+02 0.  0.
         12    1    1    2    0    0 -0.36549366446E+02  0.34398234002E+01 -0.23150262927E+02  0.43400728637E+02  0.00000000000E+00 0. -1.
         11    1    3    3    0    0  0.15111421103E+02  0.64444592023E+01  0.38923215632E+01  0.16883017194E+02  0.51100000000E-03 0. -1.
        -11    1    3    3    0    0  0.68355435421E+01 -0.13239208136E+01  0.78466739029E+01  0.10490362884E+02  0.51100000000E-03 0.  1.
         12    1    3    3    0    0  0.14602401801E+02 -0.85603617888E+01  0.11411267461E+02  0.20413891285E+02  0.00000000000E+00 0. -1.
</event>
<event>
 7    1  0.2653124E-010  0.4778730E+02  0.7816164E-02  0.1312668E+00
        -11   -1    0    0    0    0  0.00000000000E+00  0.00000000000E+00  0.45593999997E+02  0.45594000000E+02  0.51100000000E-03 0.  1.
         11   -1    0    0    0    0 -0.00000000000E+00 -0.00000000000E+00 -0.45593999997E+02  0.45594000000E+02  0.51100000000E-03 0. -1.
    9900012    2    1    2    0    0 -0.13310384350E+02  0.27585189557E+02  0.30749179614E+02  0.47787296533E+02  0.20000116212E+02 0.  0.
         12    1    1    2    0    0  0.13310384350E+02 -0.27585189557E+02 -0.30749179614E+02  0.43400703467E+02  0.00000000000E+00 0. -1.
         11    1    3    3    0    0 -0.37834308004E+01  0.47243270339E+01  0.13938296399E+01  0.62109883168E+01  0.51100000000E-03 0. -1.
        -11    1    3    3    0    0  0.38001841859E+01  0.10808015797E+02  0.10749048793E+02  0.15709763064E+02  0.51100000000E-03 0.  1.
         12    1    3    3    0    0 -0.13327137736E+02  0.12052846727E+02  0.18606301181E+02  0.25866545152E+02  0.00000000000E+00 0. -1.
</event>
<event>
 7    1  0.2653124E-010  0.4778727E+02  0.7816164E-02  0.1312668E+00
        -11   -1    0    0    0    0  0.00000000000E+00  0.00000000000E+00  0.45593999997E+02  0.45594000000E+02  0.51100000000E-03 0. -1.
         11   -1    0    0    0    0 -0.00000000000E+00 -0.00000000000E+00 -0.45593999997E+02  0.45594000000E+02  0.51100000000E-03 0.  1.
    9900012    2    1    2    0    0  0.33375277775E+02 -0.27502312183E+02  0.36519767747E+01  0.47787271016E+02  0.19999999870E+02 0.  0.
         12    1    1    2    0    0 -0.33375277775E+02  0.27502312183E+02 -0.36519767747E+01  0.43400728984E+02  0.00000000000E+00 0. -1.
         11    1    3    3    0    0  0.26766826270E+01 -0.33349253845E+01  0.61207789362E+01  0.74666118322E+01  0.51100000000E-03 0. -1.
        -11    1    3    3    0    0  0.53567060276E+01 -0.96506373193E+01 -0.49244929008E+00  0.11048602025E+02  0.51100000000E-03 0.  1.
        -12    1    3    3    0    0  0.25341889121E+02 -0.14516749479E+02 -0.19763528714E+01  0.29272057159E+02  0.00000000000E+00 0.  1.
</event>
<event>
 7    1  0.2653124E-010  0.4778727E+02  0.7816164E-02  0.1312668E+00
        -11   -1    0    0    0    0  0.00000000000E+00  0.00000000000E+00  0.45593999997E+02  0.45594000000E+02  0.51100000000E-03 0.  1.
         11   -1    0    0    0    0 -0.00000000000E+00 -0.00000000000E+00 -0.45593999997E+02  0.45594000000E+02  0.51100000000E-03 0. -1.
    9900012    2    1    2    0    0 -0.86506434588E+01  0.19969980422E+02  0.37549825667E+02  0.47787272381E+02  0.20000006092E+02 0.  0.
         12    1    1    2    0    0  0.86506434588E+01 -0.19969980422E+02 -0.37549825667E+02  0.43400727619E+02  0.00000000000E+00 0. -1.
         11    1    3    3    0    0 -0.12683475241E+02  0.95894202512E+01  0.15523325019E+02  0.22221636862E+02  0.51100000000E-03 0. -1.
        -11    1    3    3    0    0 -0.16408067105E+01  0.14080882270E+01  0.22529075195E+01  0.31225873357E+01  0.51100000000E-03 0.  1.
        -12    1    3    3    0    0  0.56736384926E+01  0.89724719434E+01  0.19773593129E+02  0.22443048183E+02  0.00000000000E+00 0.  1.
</event>
<event>
 7    1  0.2653124E-010  0.4778726E+02  0.7816164E-02  0.1312668E+00
        -11   -1    0    0    0    0  0.00000000000E+00  0.00000000000E+00  0.45593999997E+02  0.45594000000E+02  0.51100000000E-03 0.  1.
         11   -1    0    0    0    0 -0.00000000000E+00 -0.00000000000E+00 -0.45593999997E+02  0.45594000000E+02  0.51100000000E-03 0. -1.
    9900012    2    1    2    0    0  0.10782110690E+02 -0.40973966334E+02  0.94077007757E+01  0.47787255053E+02  0.19999927088E+02 0.  0.
         12    1    1    2    0    0 -0.10782110690E+02  0.40973966334E+02 -0.94077007757E+01  0.43400744947E+02  0.00000000000E+00 0. -1.
         11    1    3    3    0    0  0.10267366137E+01 -0.94841342192E+01  0.61135642558E+01  0.11330430624E+02  0.51100000000E-03 0. -1.
        -11    1    3    3    0    0  0.17216629849E+01 -0.24643208174E+02 -0.17358678327E+01  0.24764189265E+02  0.51100000000E-03 0.  1.
        -12    1    3    3    0    0  0.80337110914E+01 -0.68466239406E+01  0.50300043526E+01  0.11692635164E+02  0.00000000000E+00 0.  1.
</event>
<event>
 7    1  0.2653124E-010  0.4778727E+02  0.7816164E-02  0.1312668E+00
        -11   -1    0    0    0    0  0.00000000000E+00  0.00000000000E+00  0.45593999997E+02  0.45594000000E+02  0.51100000000E-03 0.  1.
         11   -1    0    0    0    0 -0.00000000000E+00 -0.00000000000E+00 -0.45593999997E+02  0.45594000000E+02  0.51100000000E-03 0. -1.
    9900012    2    1    2    0    0 -0.14521408647E+02  0.37745170480E+02 -0.15749724505E+02  0.47787273904E+02  0.20000013039E+02 0.  0.
         12    1    1    2    0    0  0.14521408647E+02 -0.37745170480E+02  0.15749724505E+02  0.43400726096E+02  0.00000000000E+00 0. -1.
         11    1    3    3    0    0 -0.55731238923E+01  0.25375284698E+02 -0.91927146004E+01  0.27558497517E+02  0.51100000000E-03 0. -1.
        -11    1    3    3    0    0 -0.16989113155E+01  0.11729076949E+02 -0.37874194186E+01  0.12441948876E+02  0.51100000000E-03 0.  1.
         12    1    3    3    0    0 -0.72493734394E+01  0.64080883368E+00 -0.27695904856E+01  0.77868275108E+01  0.00000000000E+00 0. -1.
</event>
<event>
 7    1  0.2653124E-010  0.4778728E+02  0.7816164E-02  0.1312668E+00
        -11   -1    0    0    0    0  0.00000000000E+00  0.00000000000E+00  0.45593999997E+02  0.45594000000E+02  0.51100000000E-03 0. -1.
         11   -1    0    0    0    0 -0.00000000000E+00 -0.00000000000E+00 -0.45593999997E+02  0.45594000000E+02  0.51100000000E-03 0.  1.
    9900012    2    1    2    0    0 -0.48558626193E+01 -0.36999514214E+02 -0.22160309828E+02  0.47787276671E+02  0.20000025652E+02 0.  0.
         12    1    1    2    0    0  0.48558626193E+01  0.36999514214E+02  0.22160309828E+02  0.43400723329E+02  0.00000000000E+00 0. -1.
         11    1    3    3    0    0 -0.13645200277E+01 -0.21449321829E+02 -0.51839442113E+01  0.22109016253E+02  0.51100000000E-03 0. -1.
        -11    1    3    3    0    0  0.36341852737E+01 -0.68528453217E+01 -0.48839408471E+01  0.91663335126E+01  0.51100000000E-03 0.  1.
        -12    1    3    3    0    0 -0.71255278652E+01 -0.86973470631E+01 -0.12092424770E+02  0.16511926905E+02  0.00000000000E+00 0.  1.
</event>
<event>
 7    1  0.2653124E-010  0.4778727E+02  0.7816164E-02  0.1312668E+00
        -11   -1    0    0    0    0  0.00000000000E+00  0.00000000000E+00  0.45593999997E+02  0.45594000000E+02  0.51100000000E-03 0.  1.
         11   -1    0    0    0    0 -0.00000000000E+00 -0.00000000000E+00 -0.45593999997E+02  0.45594000000E+02  0.51100000000E-03 0. -1.
    9900012    2    1    2    0    0  0.43818455458E+01 -0.21600103342E+02  0.37387941914E+02  0.47787271489E+02  0.20000002026E+02 0.  0.
         12    1    1    2    0    0 -0.43818455458E+01  0.21600103342E+02 -0.37387941914E+02  0.43400728511E+02  0.00000000000E+00 0. -1.
         11    1    3    3    0    0  0.14390839438E+01 -0.31075069309E+01 -0.18360300080E+01  0.38856876320E+01  0.51100000000E-03 0. -1.
        -11    1    3    3    0    0 -0.17501048210E+01 -0.27613142605E+01  0.75070111929E+01  0.81879753689E+01  0.51100000000E-03 0.  1.
         12    1    3    3    0    0  0.46928664230E+01 -0.15731282150E+02  0.31716960729E+02  0.35713608488E+02  0.00000000000E+00 0. -1.
</event>
<event>
 7    1  0.2653124E-010  0.4778727E+02  0.7816164E-02  0.1312668E+00
        -11   -1    0    0    0    0  0.00000000000E+00  0.00000000000E+00  0.45593999997E+02  0.45594000000E+02  0.51100000000E-03 0.  1.
         11   -1    0    0    0    0 -0.00000000000E+00 -0.00000000000E+00 -0.45593999997E+02  0.45594000000E+02  0.51100000000E-03 0. -1.
    9900012    2    1    2    0    0 -0.52213808993E+01  0.30924252393E+02  0.30000855993E+02  0.47787267692E+02  0.19999984716E+02 0.  0.
         12    1    1    2    0    0  0.52213808993E+01 -0.30924252393E+02 -0.30000855993E+02  0.43400732308E+02  0.00000000000E+00 0. -1.
         11    1    3    3    0    0 -0.35792035622E+01  0.19808544342E+02  0.16277452546E+02  0.25887151035E+02  0.51100000000E-03 0. -1.
        -11    1    3    3    0    0  0.45435947652E+01  0.81909199384E+01  0.44352157172E+01  0.10363713695E+02  0.51100000000E-03 0.  1.
         12    1    3    3    0    0 -0.61857721023E+01  0.29247881127E+01  0.92881877297E+01  0.11536402962E+02  0.00000000000E+00 0. -1.
</event>
<event>
 7    1  0.2653124E-010  0.4778727E+02  0.7816164E-02  0.1312668E+00
        -11   -1    0    0    0    0  0.00000000000E+00  0.00000000000E+00  0.45593999997E+02  0.45594000000E+02  0.51100000000E-03 0.  1.
         11   -1    0    0    0    0 -0.00000000000E+00 -0.00000000000E+00 -0.45593999997E+02  0.45594000000E+02  0.51100000000E-03 0. -1.
    9900012    2    1    2    0    0  0.26310516337E+02 -0.19406737932E+02  0.28543972583E+02  0.47787272841E+02  0.20000008193E+02 0.  0.
         12    1    1    2    0    0 -0.26310516337E+02  0.19406737932E+02 -0.28543972583E+02  0.43400727159E+02  0.00000000000E+00 0. -1.
         11    1    3    3    0    0  0.45090218429E+01 -0.30067067498E+01  0.39234000742E+01  0.66906376275E+01  0.51100000000E-03 0.  1.
        -11    1    3    3    0    0  0.12789711984E+02 -0.19505840389E+02  0.16451405061E+02  0.28543007387E+02  0.51100000000E-03 0. -1.
         12    1    3    3    0    0  0.90117825103E+01  0.31058092067E+01  0.81691674475E+01  0.12553627827E+02  0.00000000000E+00 0. -1.
</event>
<event>
 7    1  0.2653124E-010  0.4778727E+02  0.7816164E-02  0.1312668E+00
        -11   -1    0    0    0    0  0.00000000000E+00  0.00000000000E+00  0.45593999997E+02  0.45594000000E+02  0.51100000000E-03 0.  1.
         11   -1    0    0    0    0 -0.00000000000E+00 -0.00000000000E+00 -0.45593999997E+02  0.45594000000E+02  0.51100000000E-03 0. -1.
    9900012    2    1    2    0    0  0.19968353248E+02 -0.10862792311E+02  0.36971447041E+02  0.47787270922E+02  0.19999999440E+02 0.  0.
         12    1    1    2    0    0 -0.19968353248E+02  0.10862792311E+02 -0.36971447041E+02  0.43400729078E+02  0.00000000000E+00 0. -1.
         11    1    3    3    0    0  0.70535224478E+01 -0.79953537711E+00  0.25392502675E+01  0.75391795259E+01  0.51100000000E-03 0. -1.
        -11    1    3    3    0    0  0.66728411153E+01 -0.93203239491E+01  0.10641232044E+02  0.15640686262E+02  0.51100000000E-03 0.  1.
         12    1    3    3    0    0  0.62419896845E+01 -0.74293298491E+00  0.23790964730E+02  0.24607405134E+02  0.00000000000E+00 0. -1.
</event>
<event>
 7    1  0.2653124E-010  0.4778725E+02  0.7816164E-02  0.1312668E+00
        -11   -1    0    0    0    0  0.00000000000E+00  0.00000000000E+00  0.45593999997E+02  0.45594000000E+02  0.51100000000E-03 0. -1.
         11   -1    0    0    0    0 -0.00000000000E+00 -0.00000000000E+00 -0.45593999997E+02  0.45594000000E+02  0.51100000000E-03 0.  1.
    9900012    2    1    2    0    0  0.41815051428E+02 -0.79868538659E+00 -0.11596933369E+02  0.47787247843E+02  0.19999894214E+02 0.  0.
         12    1    1    2    0    0 -0.41815051428E+02  0.79868538659E+00  0.11596933369E+02  0.43400752157E+02  0.00000000000E+00 0. -1.
         11    1    3    3    0    0  0.53827105169E+00  0.35177220120E+01 -0.37914821652E+01  0.51999462641E+01  0.51100000000E-03 0. -1.
        -11    1    3    3    0    0  0.39384197140E+01  0.12095225019E+01 -0.68608337624E+00  0.41766978807E+01  0.51100000000E-03 0.  1.
        -12    1    3    3    0    0  0.37338360662E+02 -0.55259299005E+01 -0.71193678271E+01  0.38410603698E+02  0.00000000000E+00 0.  1.
</event>
<event>
 7    1  0.2653124E-010  0.4778727E+02  0.7816164E-02  0.1312668E+00
        -11   -1    0    0    0    0  0.00000000000E+00  0.00000000000E+00  0.45593999997E+02  0.45594000000E+02  0.51100000000E-03 0.  1.
         11   -1    0    0    0    0 -0.00000000000E+00 -0.00000000000E+00 -0.45593999997E+02  0.45594000000E+02  0.51100000000E-03 0. -1.
    9900012    2    1    2    0    0 -0.26974119759E+02  0.33018254837E+02  0.81126409282E+01  0.47787271526E+02  0.20000002196E+02 0.  0.
         12    1    1    2    0    0  0.26974119759E+02 -0.33018254837E+02 -0.81126409282E+01  0.43400728474E+02  0.00000000000E+00 0. -1.
         11    1    3    3    0    0 -0.29994152254E+01  0.12110079213E+02 -0.33747540997E+01  0.12924375255E+02  0.51100000000E-03 0. -1.
        -11    1    3    3    0    0 -0.40438160721E+01  0.81340901134E+01  0.47442579968E+01  0.10248114685E+02  0.51100000000E-03 0.  1.
        -12    1    3    3    0    0 -0.19930888462E+02  0.12774085510E+02  0.67431370311E+01  0.24614781586E+02  0.00000000000E+00 0.  1.
</event>
<event>
 7    1  0.2653124E-010  0.4778729E+02  0.7816164E-02  0.1312668E+00
        -11   -1    0    0    0    0  0.00000000000E+00  0.00000000000E+00  0.45593999997E+02  0.45594000000E+02  0.51100000000E-03 0.  1.
         11   -1    0    0    0    0 -0.00000000000E+00 -0.00000000000E+00 -0.45593999997E+02  0.45594000000E+02  0.51100000000E-03 0. -1.
    9900012    2    1    2    0    0  0.34181130438E+02  0.24958727983E+02  0.96090713546E+01  0.47787285342E+02  0.20000065189E+02 0.  0.
         12    1    1    2    0    0 -0.34181130438E+02 -0.24958727983E+02 -0.96090713546E+01  0.43400714658E+02  0.00000000000E+00 0. -1.
         11    1    3    3    0    0  0.15056638667E+02  0.18872324640E+02 -0.82063435815E+00  0.24156581842E+02  0.51100000000E-03 0. -1.
        -11    1    3    3    0    0  0.12206323532E+02  0.32359770452E+01  0.27806252106E+01  0.12930497223E+02  0.51100000000E-03 0.  1.
         12    1    3    3    0    0  0.69181682390E+01  0.28504262976E+01  0.76490805022E+01  0.10700206278E+02  0.00000000000E+00 0. -1.
</event>
<event>
 7    1  0.2653124E-010  0.4778727E+02  0.7816164E-02  0.1312668E+00
        -11   -1    0    0    0    0  0.00000000000E+00  0.00000000000E+00  0.45593999997E+02  0.45594000000E+02  0.51100000000E-03 0.  1.
         11   -1    0    0    0    0 -0.00000000000E+00 -0.00000000000E+00 -0.45593999997E+02  0.45594000000E+02  0.51100000000E-03 0. -1.
    9900012    2    1    2    0    0  0.73713279606E+01 -0.11348540078E+02  0.41237084459E+02  0.47787274517E+02  0.20000015831E+02 0.  0.
         12    1    1    2    0    0 -0.73713279606E+01  0.11348540078E+02 -0.41237084459E+02  0.43400725483E+02  0.00000000000E+00 0. -1.
         11    1    3    3    0    0 -0.15291340733E+01 -0.12570160299E+01  0.70254687867E+00  0.21004553533E+01  0.51100000000E-03 0. -1.
        -11    1    3    3    0    0  0.17618619642E+01 -0.57311339536E+01  0.35329477853E+02  0.35834648869E+02  0.51100000000E-03 0.  1.
         12    1    3    3    0    0  0.71386000698E+01 -0.43603900944E+01  0.52050597276E+01  0.98521702939E+01  0.00000000000E+00 0. -1.
</event>
<event>
 7    1  0.2653124E-010  0.4778727E+02  0.7816164E-02  0.1312668E+00
        -11   -1    0    0    0    0  0.00000000000E+00  0.00000000000E+00  0.45593999997E+02  0.45594000000E+02  0.51100000000E-03 0. -1.
         11   -1    0    0    0    0 -0.00000000000E+00 -0.00000000000E+00 -0.45593999997E+02  0.45594000000E+02  0.51100000000E-03 0.  1.
    9900012    2    1    2    0    0 -0.37726637283E+02 -0.17933592370E+02 -0.11777540192E+02  0.47787270179E+02  0.19999996056E+02 0.  0.
         12    1    1    2    0    0  0.37726637283E+02  0.17933592370E+02  0.11777540192E+02  0.43400729821E+02  0.00000000000E+00 0. -1.
         11    1    3    3    0    0  0.56322238628E+00 -0.17719956076E+01  0.44910657424E+00  0.19128211798E+01  0.51100000000E-03 0. -1.
        -11    1    3    3    0    0 -0.28516117404E+00 -0.17648147286E+01 -0.40400527224E+01  0.44179083492E+01  0.51100000000E-03 0.  1.
        -12    1    3    3    0    0 -0.38004698496E+02 -0.14396782034E+02 -0.81865940437E+01  0.41456540650E+02  0.00000000000E+00 0.  1.
</event>
<event>
 7    1  0.2653124E-010  0.4778727E+02  0.7816164E-02  0.1312668E+00
        -11   -1    0    0    0    0  0.00000000000E+00  0.00000000000E+00  0.45593999997E+02  0.45594000000E+02  0.51100000000E-03 0.  1.
         11   -1    0    0    0    0 -0.00000000000E+00 -0.00000000000E+00 -0.45593999997E+02  0.45594000000E+02  0.51100000000E-03 0. -1.
    9900012    2    1    2    0    0  0.21141272616E+02 -0.76251467654E+01  0.37128518910E+02  0.47787272040E+02  0.20000004540E+02 0.  0.
         12    1    1    2    0    0 -0.21141272616E+02  0.76251467654E+01 -0.37128518910E+02  0.43400727960E+02  0.00000000000E+00 0. -1.
         11    1    3    3    0    0 -0.18677558545E+00  0.11654711972E+01  0.31796881804E+01  0.33916994880E+01  0.51100000000E-03 0. -1.
        -11    1    3    3    0    0  0.46393788654E+01 -0.96040434361E+01  0.19847599448E+02  0.22531948222E+02  0.51100000000E-03 0.  1.
         12    1    3    3    0    0  0.16688669336E+02  0.81342547341E+00  0.14101231281E+02  0.21863624330E+02  0.00000000000E+00 0. -1.
</event>
<event>
 7    1  0.2653124E-010  0.4778727E+02  0.7816164E-02  0.1312668E+00
        -11   -1    0    0    0    0  0.00000000000E+00  0.00000000000E+00  0.45593999997E+02  0.45594000000E+02  0.51100000000E-03 0. -1.
         11   -1    0    0    0    0 -0.00000000000E+00 -0.00000000000E+00 -0.45593999997E+02  0.45594000000E+02  0.51100000000E-03 0.  1.
    9900012    2    1    2    0    0  0.28083156379E+01  0.43243331310E+02 -0.23981394881E+01  0.47787269447E+02  0.19999992716E+02 0.  0.
         12    1    1    2    0    0 -0.28083156379E+01 -0.43243331310E+02  0.23981394881E+01  0.43400730553E+02  0.00000000000E+00 0. -1.
         11    1    3    3    0    0 -0.18835373599E+01  0.22416103570E+01  0.17221364669E+01  0.33968050063E+01  0.51100000000E-03 0. -1.
        -11    1    3    3    0    0 -0.46530598034E+00  0.16244947719E+02 -0.90863307228E+01  0.18619243871E+02  0.51100000000E-03 0.  1.
         12    1    3    3    0    0  0.51571589782E+01  0.24756773234E+02  0.49660547678E+01  0.25771220570E+02  0.00000000000E+00 0. -1.
</event>
<event>
 7    1  0.2653124E-010  0.4778727E+02  0.7816164E-02  0.1312668E+00
        -11   -1    0    0    0    0  0.00000000000E+00  0.00000000000E+00  0.45593999997E+02  0.45594000000E+02  0.51100000000E-03 0. -1.
         11   -1    0    0    0    0 -0.00000000000E+00 -0.00000000000E+00 -0.45593999997E+02  0.45594000000E+02  0.51100000000E-03 0.  1.
    9900012    2    1    2    0    0 -0.36262779645E+02 -0.20490990427E+02 -0.12196443539E+02  0.47787272917E+02  0.20000008540E+02 0.  0.
         12    1    1    2    0    0  0.36262779645E+02  0.20490990427E+02  0.12196443539E+02  0.43400727083E+02  0.00000000000E+00 0. -1.
         11    1    3    3    0    0 -0.14996591300E+02  0.29704381847E+00 -0.78254763885E+01  0.16918157896E+02  0.51100000000E-03 0. -1.
        -11    1    3    3    0    0 -0.13838775819E+01 -0.42849901292E+01 -0.19821394562E+01  0.49198714062E+01  0.51100000000E-03 0.  1.
         12    1    3    3    0    0 -0.19882310764E+02 -0.16503044117E+02 -0.23888276942E+01  0.25949243615E+02  0.00000000000E+00 0. -1.
</event>
<event>
 7    1  0.2653124E-010  0.4778723E+02  0.7816164E-02  0.1312668E+00
        -11   -1    0    0    0    0  0.00000000000E+00  0.00000000000E+00  0.45593999997E+02  0.45594000000E+02  0.51100000000E-03 0.  1.
         11   -1    0    0    0    0 -0.00000000000E+00 -0.00000000000E+00 -0.45593999997E+02  0.45594000000E+02  0.51100000000E-03 0. -1.
    9900012    2    1    2    0    0 -0.39771721210E+02 -0.32694517515E+01  0.17063050180E+02  0.47787230373E+02  0.19999814560E+02 0.  0.
         12    1    1    2    0    0  0.39771721210E+02  0.32694517515E+01 -0.17063050180E+02  0.43400769627E+02  0.00000000000E+00 0. -1.
         11    1    3    3    0    0 -0.25668823843E+02 -0.65461481617E+01  0.99599542877E+01  0.28300905691E+02  0.51100000000E-03 0. -1.
        -11    1    3    3    0    0 -0.99321672388E+00 -0.32408229133E+01  0.22249366802E+01  0.40545969107E+01  0.51100000000E-03 0.  1.
        -12    1    3    3    0    0 -0.13109680644E+02  0.65175193235E+01  0.48781592121E+01  0.15431727771E+02  0.00000000000E+00 0.  1.
</event>
<event>
 7    1  0.2653124E-010  0.4778727E+02  0.7816164E-02  0.1312668E+00
        -11   -1    0    0    0    0  0.00000000000E+00  0.00000000000E+00  0.45593999997E+02  0.45594000000E+02  0.51100000000E-03 0.  1.
         11   -1    0    0    0    0 -0.00000000000E+00 -0.00000000000E+00 -0.45593999997E+02  0.45594000000E+02  0.51100000000E-03 0. -1.
    9900012    2    1    2    0    0  0.32720862243E+02 -0.28426311475E+02 -0.22166501454E+01  0.47787267888E+02  0.19999985608E+02 0.  0.
         12    1    1    2    0    0 -0.32720862243E+02  0.28426311475E+02  0.22166501454E+01  0.43400732112E+02  0.00000000000E+00 0. -1.
         11    1    3    3    0    0  0.26453351602E+01 -0.25136660271E+01 -0.48955551084E+01  0.61059622572E+01  0.51100000000E-03 0. -1.
        -11    1    3    3    0    0  0.11064151605E+02 -0.29444837193E+01 -0.15990727362E+01  0.11560383600E+02  0.51100000000E-03 0.  1.
        -12    1    3    3    0    0  0.19011375478E+02 -0.22968161728E+02  0.42779776992E+01  0.30120922030E+02  0.00000000000E+00 0.  1.
</event>
<event>
 7    1  0.2653124E-010  0.4778727E+02  0.7816164E-02  0.1312668E+00
        -11   -1    0    0    0    0  0.00000000000E+00  0.00000000000E+00  0.45593999997E+02  0.45594000000E+02  0.51100000000E-03 0. -1.
         11   -1    0    0    0    0 -0.00000000000E+00 -0.00000000000E+00 -0.45593999997E+02  0.45594000000E+02  0.51100000000E-03 0.  1.
    9900012    2    1    2    0    0 -0.13950352771E+02 -0.39657973074E+02  0.10782218891E+02  0.47787269419E+02  0.19999992587E+02 0.  0.
         12    1    1    2    0    0  0.13950352771E+02  0.39657973074E+02 -0.10782218891E+02  0.43400730581E+02  0.00000000000E+00 0. -1.
         11    1    3    3    0    0  0.72044207731E+00 -0.12341665567E+02  0.87868944279E+01  0.15167242983E+02  0.51100000000E-03 0.  1.
        -11    1    3    3    0    0 -0.76514414601E+01 -0.68209234476E+01  0.36791255183E+01  0.10890616049E+02  0.51100000000E-03 0. -1.
        -12    1    3    3    0    0 -0.70193533883E+01 -0.20495384060E+02 -0.16838010554E+01  0.21729410386E+02  0.00000000000E+00 0.  1.
</event>
<event>
 7    1  0.2653124E-010  0.4778727E+02  0.7816164E-02  0.1312668E+00
        -11   -1    0    0    0    0  0.00000000000E+00  0.00000000000E+00  0.45593999997E+02  0.45594000000E+02  0.51100000000E-03 0. -1.
         11   -1    0    0    0    0 -0.00000000000E+00 -0.00000000000E+00 -0.45593999997E+02  0.45594000000E+02  0.51100000000E-03 0.  1.
    9900012    2    1    2    0    0  0.29657253590E+02 -0.31577694858E+02 -0.26305358380E+01  0.47787271644E+02  0.20000002735E+02 0.  0.
         12    1    1    2    0    0 -0.29657253590E+02  0.31577694858E+02  0.26305358380E+01  0.43400728356E+02  0.00000000000E+00 0. -1.
         11    1    3    3    0    0  0.19884727843E+00 -0.20745419207E+01  0.17649358109E+01  0.27309820759E+01  0.51100000000E-03 0. -1.
        -11    1    3    3    0    0  0.15778019678E+02 -0.10287816571E+02 -0.92339623964E+01  0.20977395848E+02  0.51100000000E-03 0.  1.
        -12    1    3    3    0    0  0.13680386634E+02 -0.19215336366E+02  0.48384907475E+01  0.24078893721E+02  0.00000000000E+00 0.  1.
</event>
<event>
 7    1  0.2653124E-010  0.4778727E+02  0.7816164E-02  0.1312668E+00
        -11   -1    0    0    0    0  0.00000000000E+00  0.00000000000E+00  0.45593999997E+02  0.45594000000E+02  0.51100000000E-03 0.  1.
         11   -1    0    0    0    0 -0.00000000000E+00 -0.00000000000E+00 -0.45593999997E+02  0.45594000000E+02  0.51100000000E-03 0. -1.
    9900012    2    1    2    0    0  0.16510101021E+02  0.20216280032E+02  0.34674800303E+02  0.47787272009E+02  0.20000004399E+02 0.  0.
         12    1    1    2    0    0 -0.16510101021E+02 -0.20216280032E+02 -0.34674800303E+02  0.43400727991E+02  0.00000000000E+00 0. -1.
         11    1    3    3    0    0  0.10826488567E+02  0.11928173129E+02  0.21155985966E+02  0.26590786211E+02  0.51100000000E-03 0.  1.
        -11    1    3    3    0    0  0.81100084569E+01  0.10250142240E+01  0.43817753056E+01  0.92748502102E+01  0.51100000000E-03 0. -1.
        -12    1    3    3    0    0 -0.24263960023E+01  0.72630926787E+01  0.91370390319E+01  0.11921635588E+02  0.00000000000E+00 0.  1.
</event>
<event>
 7    1  0.2653124E-010  0.4778727E+02  0.7816164E-02  0.1312668E+00
        -11   -1    0    0    0    0  0.00000000000E+00  0.00000000000E+00  0.45593999997E+02  0.45594000000E+02  0.51100000000E-03 0. -1.
         11   -1    0    0    0    0 -0.00000000000E+00 -0.00000000000E+00 -0.45593999997E+02  0.45594000000E+02  0.51100000000E-03 0.  1.
    9900012    2    1    2    0    0  0.32513895013E+01 -0.40007952140E+02  0.16505015758E+02  0.47787270590E+02  0.19999997929E+02 0.  0.
         12    1    1    2    0    0 -0.32513895013E+01  0.40007952140E+02 -0.16505015758E+02  0.43400729410E+02  0.00000000000E+00 0. -1.
         11    1    3    3    0    0  0.66230432575E+00 -0.76360708744E+01  0.10568008898E+02  0.13054923889E+02  0.51100000000E-03 0. -1.
        -11    1    3    3    0    0  0.40744527198E+01 -0.76389473319E+01  0.48667099556E+01  0.99317444268E+01  0.51100000000E-03 0.  1.
        -12    1    3    3    0    0 -0.14853675442E+01 -0.24732933934E+02  0.10702969050E+01  0.24800602274E+02  0.00000000000E+00 0.  1.
</event>
<event>
 7    1  0.2653124E-010  0.4778727E+02  0.7816164E-02  0.1312668E+00
        -11   -1    0    0    0    0  0.00000000000E+00  0.00000000000E+00  0.45593999997E+02  0.45594000000E+02  0.51100000000E-03 0.  1.
         11   -1    0    0    0    0 -0.00000000000E+00 -0.00000000000E+00 -0.45593999997E+02  0.45594000000E+02  0.51100000000E-03 0. -1.
    9900012    2    1    2    0    0 -0.40152296950E+02 -0.16414000833E+02  0.14132091906E+01  0.47787268049E+02  0.19999986343E+02 0.  0.
         12    1    1    2    0    0  0.40152296950E+02  0.16414000833E+02 -0.14132091906E+01  0.43400731951E+02  0.00000000000E+00 0. -1.
         11    1    3    3    0    0 -0.20185947718E+02 -0.79537806351E+01 -0.48252436728E+01  0.22226517685E+02  0.51100000000E-03 0. -1.
        -11    1    3    3    0    0 -0.11764228938E+02  0.11827527770E+01  0.10184542620E+01  0.11867317978E+02  0.51100000000E-03 0.  1.
         12    1    3    3    0    0 -0.82021202935E+01 -0.96429729747E+01  0.52199986015E+01  0.13693432386E+02  0.00000000000E+00 0. -1.
</event>
<event>
 7    1  0.2653124E-010  0.4778727E+02  0.7816164E-02  0.1312668E+00
        -11   -1    0    0    0    0  0.00000000000E+00  0.00000000000E+00  0.45593999997E+02  0.45594000000E+02  0.51100000000E-03 0.  1.
         11   -1    0    0    0    0 -0.00000000000E+00 -0.00000000000E+00 -0.45593999997E+02  0.45594000000E+02  0.51100000000E-03 0. -1.
    9900012    2    1    2    0    0  0.14668635695E+02  0.37628590010E+02  0.15891625154E+02  0.47787269484E+02  0.19999992887E+02 0.  0.
         12    1    1    2    0    0 -0.14668635695E+02 -0.37628590010E+02 -0.15891625154E+02  0.43400730516E+02  0.00000000000E+00 0. -1.
         11    1    3    3    0    0  0.32708663337E+01  0.16254672259E+02  0.12282477178E+02  0.20634247811E+02  0.51100000000E-03 0. -1.
        -11    1    3    3    0    0  0.76756282498E+01  0.19505625142E+02  0.66558747101E+01  0.21992847693E+02  0.51100000000E-03 0.  1.
        -12    1    3    3    0    0  0.37221411114E+01  0.18682926083E+01 -0.30467267338E+01  0.51601739810E+01  0.00000000000E+00 0.  1.
</event>
<event>
 7    1  0.2653124E-010  0.4778727E+02  0.7816164E-02  0.1312668E+00
        -11   -1    0    0    0    0  0.00000000000E+00  0.00000000000E+00  0.45593999997E+02  0.45594000000E+02  0.51100000000E-03 0. -1.
         11   -1    0    0    0    0 -0.00000000000E+00 -0.00000000000E+00 -0.45593999997E+02  0.45594000000E+02  0.51100000000E-03 0.  1.
    9900012    2    1    2    0    0 -0.34515512183E+02  0.96745211970E+01 -0.24468473084E+02  0.47787272855E+02  0.20000008257E+02 0.  0.
         12    1    1    2    0    0  0.34515512183E+02 -0.96745211970E+01  0.24468473084E+02  0.43400727145E+02  0.00000000000E+00 0. -1.
         11    1    3    3    0    0 -0.89897875521E+01 -0.13312059347E+01  0.16645115991E-01  0.90878306979E+01  0.51100000000E-03 0. -1.
        -11    1    3    3    0    0 -0.13810357430E+02  0.24649479567E+00 -0.13881768439E+02  0.19582906507E+02  0.51100000000E-03 0.  1.
         12    1    3    3    0    0 -0.11715367201E+02  0.10759232336E+02 -0.10603349761E+02  0.19116535650E+02  0.00000000000E+00 0. -1.
</event>
<event>
 7    1  0.2653124E-010  0.4778727E+02  0.7816164E-02  0.1312668E+00
        -11   -1    0    0    0    0  0.00000000000E+00  0.00000000000E+00  0.45593999997E+02  0.45594000000E+02  0.51100000000E-03 0.  1.
         11   -1    0    0    0    0 -0.00000000000E+00 -0.00000000000E+00 -0.45593999997E+02  0.45594000000E+02  0.51100000000E-03 0. -1.
    9900012    2    1    2    0    0 -0.22805540857E+01  0.81508126849E+01  0.42567436523E+02  0.47787270438E+02  0.19999997237E+02 0.  0.
         12    1    1    2    0    0  0.22805540857E+01 -0.81508126849E+01 -0.42567436523E+02  0.43400729562E+02  0.00000000000E+00 0. -1.
         11    1    3    3    0    0 -0.80115565442E+01  0.83435804707E+00  0.70651124254E+01  0.10714336445E+02  0.51100000000E-03 0. -1.
        -11    1    3    3    0    0 -0.40231510422E-01 -0.50541706363E+00  0.38925215696E+00  0.63920457246E+00  0.51100000000E-03 0.  1.
        -12    1    3    3    0    0  0.57712339689E+01  0.78218717014E+01  0.35113071940E+02  0.36433729421E+02  0.00000000000E+00 0.  1.
</event>
<event>
 7    1  0.2653124E-010  0.4778727E+02  0.7816164E-02  0.1312668E+00
        -11   -1    0    0    0    0  0.00000000000E+00  0.00000000000E+00  0.45593999997E+02  0.45594000000E+02  0.51100000000E-03 0.  1.
         11   -1    0    0    0    0 -0.00000000000E+00 -0.00000000000E+00 -0.45593999997E+02  0.45594000000E+02  0.51100000000E-03 0. -1.
    9900012    2    1    2    0    0 -0.39737052755E+02 -0.41984067198E+01  0.16939994412E+02  0.47787269691E+02  0.19999993829E+02 0.  0.
         12    1    1    2    0    0  0.39737052755E+02  0.41984067198E+01 -0.16939994412E+02  0.43400730309E+02  0.00000000000E+00 0. -1.
         11    1    3    3    0    0 -0.78380673546E+01 -0.27627719942E+01 -0.85967895399E+00  0.83550737347E+01  0.51100000000E-03 0. -1.
        -11    1    3    3    0    0 -0.23543420130E+00  0.29248671974E+01  0.30444321071E+01  0.42283382672E+01  0.51100000000E-03 0.  1.
        -12    1    3    3    0    0 -0.31663551199E+02 -0.43605019230E+01  0.14755241259E+02  0.35203857689E+02  0.00000000000E+00 0.  1.
</event>
<event>
 7    1  0.2653124E-010  0.4778727E+02  0.7816164E-02  0.1312668E+00
        -11   -1    0    0    0    0  0.00000000000E+00  0.00000000000E+00  0.45593999997E+02  0.45594000000E+02  0.51100000000E-03 0.  1.
         11   -1    0    0    0    0 -0.00000000000E+00 -0.00000000000E+00 -0.45593999997E+02  0.45594000000E+02  0.51100000000E-03 0. -1.
    9900012    2    1    2    0    0 -0.13673724769E+02  0.41189338401E+02 -0.30161568029E+00  0.47787270524E+02  0.19999997629E+02 0.  0.
         12    1    1    2    0    0  0.13673724769E+02 -0.41189338401E+02  0.30161568029E+00  0.43400729476E+02  0.00000000000E+00 0. -1.
         11    1    3    3    0    0  0.26716828650E+00  0.14668468961E+00 -0.12167752428E+01  0.12543673880E+01  0.51100000000E-03 0. -1.
        -11    1    3    3    0    0 -0.17896783016E+02  0.33125999227E+02  0.13091777385E+01  0.37674137200E+02  0.51100000000E-03 0.  1.
        -12    1    3    3    0    0  0.39558899599E+01  0.79166544844E+01 -0.39401817596E+00  0.88587659368E+01  0.00000000000E+00 0.  1.
</event>
<event>
 7    1  0.2653124E-010  0.4778727E+02  0.7816164E-02  0.1312668E+00
        -11   -1    0    0    0    0  0.00000000000E+00  0.00000000000E+00  0.45593999997E+02  0.45594000000E+02  0.51100000000E-03 0.  1.
         11   -1    0    0    0    0 -0.00000000000E+00 -0.00000000000E+00 -0.45593999997E+02  0.45594000000E+02  0.51100000000E-03 0. -1.
    9900012    2    1    2    0    0 -0.19543729917E+02  0.23312964304E+02  0.30954346936E+02  0.47787270997E+02  0.19999999785E+02 0.  0.
         12    1    1    2    0    0  0.19543729917E+02 -0.23312964304E+02 -0.30954346936E+02  0.43400729003E+02  0.00000000000E+00 0. -1.
         11    1    3    3    0    0 -0.11073153254E+02  0.22871449091E+01  0.11418807848E+02  0.16069689722E+02  0.51100000000E-03 0. -1.
        -11    1    3    3    0    0 -0.10365660899E+01 -0.45163483284E+00  0.40772986697E+01  0.42311709944E+01  0.51100000000E-03 0.  1.
        -12    1    3    3    0    0 -0.74340105734E+01  0.21477454228E+02  0.15458240418E+02  0.27486410281E+02  0.00000000000E+00 0.  1.
</event>
<event>
 7    1  0.2653124E-010  0.4778727E+02  0.7816164E-02  0.1312668E+00
        -11   -1    0    0    0    0  0.00000000000E+00  0.00000000000E+00  0.45593999997E+02  0.45594000000E+02  0.51100000000E-03 0.  1.
         11   -1    0    0    0    0 -0.00000000000E+00 -0.00000000000E+00 -0.45593999997E+02  0.45594000000E+02  0.51100000000E-03 0. -1.
    9900012    2    1    2    0    0 -0.17332121889E+02  0.32030071885E+02  0.23607111856E+02  0.47787266316E+02  0.19999978440E+02 0.  0.
         12    1    1    2    0    0  0.17332121889E+02 -0.32030071885E+02 -0.23607111856E+02  0.43400733684E+02  0.00000000000E+00 0. -1.
         11    1    3    3    0    0  0.11928900502E+01  0.62142377055E+01  0.85742065788E+01  0.10656301218E+02  0.51100000000E-03 0. -1.
        -11    1    3    3    0    0 -0.23828252339E+01  0.25933831250E+01  0.68286354211E+01  0.76833426387E+01  0.51100000000E-03 0.  1.
        -12    1    3    3    0    0 -0.16142186705E+02  0.23222451055E+02  0.82042698565E+01  0.29447622459E+02  0.00000000000E+00 0.  1.
</event>
<event>
 7    1  0.2653124E-010  0.4778727E+02  0.7816164E-02  0.1312668E+00
        -11   -1    0    0    0    0  0.00000000000E+00  0.00000000000E+00  0.45593999997E+02  0.45594000000E+02  0.51100000000E-03 0. -1.
         11   -1    0    0    0    0 -0.00000000000E+00 -0.00000000000E+00 -0.45593999997E+02  0.45594000000E+02  0.51100000000E-03 0.  1.
    9900012    2    1    2    0    0  0.20225532942E+02 -0.11135449422E+02 -0.36749869573E+02  0.47787270395E+02  0.19999997038E+02 0.  0.
         12    1    1    2    0    0 -0.20225532942E+02  0.11135449422E+02  0.36749869573E+02  0.43400729605E+02  0.00000000000E+00 0. -1.
         11    1    3    3    0    0  0.16667263464E+02 -0.93390212010E+01 -0.36976013719E+02  0.41620194367E+02  0.51100000000E-03 0. -1.
        -11    1    3    3    0    0 -0.12326320250E+00  0.11298443232E+01 -0.75302860034E+00  0.13633760838E+01  0.51100000000E-03 0.  1.
         12    1    3    3    0    0  0.36815326814E+01 -0.29262725442E+01  0.97917274613E+00  0.48036999442E+01  0.00000000000E+00 0. -1.
</event>
<event>
 7    1  0.2653124E-010  0.4778727E+02  0.7816164E-02  0.1312668E+00
        -11   -1    0    0    0    0  0.00000000000E+00  0.00000000000E+00  0.45593999997E+02  0.45594000000E+02  0.51100000000E-03 0.  1.
         11   -1    0    0    0    0 -0.00000000000E+00 -0.00000000000E+00 -0.45593999997E+02  0.45594000000E+02  0.51100000000E-03 0. -1.
    9900012    2    1    2    0    0  0.12705282996E+02  0.39345045690E+02  0.13197228446E+02  0.47787266423E+02  0.19999978928E+02 0.  0.
         12    1    1    2    0    0 -0.12705282996E+02 -0.39345045690E+02 -0.13197228446E+02  0.43400733577E+02  0.00000000000E+00 0. -1.
         11    1    3    3    0    0  0.72869756090E+01  0.65528976297E+01  0.60921623610E+00  0.98189421810E+01  0.51100000000E-03 0. -1.
        -11    1    3    3    0    0  0.50472369243E+01  0.24900389972E+02  0.30591978232E+01  0.25590285519E+02  0.51100000000E-03 0.  1.
         12    1    3    3    0    0  0.37107046264E+00  0.78917580883E+01  0.95288143868E+01  0.12378038723E+02  0.00000000000E+00 0. -1.
</event>
<event>
 7    1  0.2653124E-010  0.4778728E+02  0.7816164E-02  0.1312668E+00
        -11   -1    0    0    0    0  0.00000000000E+00  0.00000000000E+00  0.45593999997E+02  0.45594000000E+02  0.51100000000E-03 0.  1.
         11   -1    0    0    0    0 -0.00000000000E+00 -0.00000000000E+00 -0.45593999997E+02  0.45594000000E+02  0.51100000000E-03 0. -1.
    9900012    2    1    2    0    0 -0.35869679799E+01 -0.89656117698E+01  0.42312815582E+02  0.47787275396E+02  0.20000019842E+02 0.  0.
         12    1    1    2    0    0  0.35869679799E+01  0.89656117698E+01 -0.42312815582E+02  0.43400724604E+02  0.00000000000E+00 0. -1.
         11    1    3    3    0    0  0.23624523085E+01 -0.69176553851E+01  0.16130707264E+02  0.17709738960E+02  0.51100000000E-03 0. -1.
        -11    1    3    3    0    0 -0.26024771651E+01  0.56714214232E+01  0.90750629435E+01  0.11013386221E+02  0.51100000000E-03 0.  1.
         12    1    3    3    0    0 -0.33469431233E+01 -0.77193778079E+01  0.17107045374E+02  0.19064150215E+02  0.00000000000E+00 0. -1.
</event>
<event>
 7    1  0.2653124E-010  0.4778727E+02  0.7816164E-02  0.1312668E+00
        -11   -1    0    0    0    0  0.00000000000E+00  0.00000000000E+00  0.45593999997E+02  0.45594000000E+02  0.51100000000E-03 0.  1.
         11   -1    0    0    0    0 -0.00000000000E+00 -0.00000000000E+00 -0.45593999997E+02  0.45594000000E+02  0.51100000000E-03 0. -1.
    9900012    2    1    2    0    0 -0.29088126800E+02 -0.28688010712E+02  0.14645894529E+02  0.47787270676E+02  0.19999998320E+02 0.  0.
         12    1    1    2    0    0  0.29088126800E+02  0.28688010712E+02 -0.14645894529E+02  0.43400729324E+02  0.00000000000E+00 0. -1.
         11    1    3    3    0    0 -0.80193521639E+01 -0.11706005971E+02  0.18644096509E+01  0.14311415323E+02  0.51100000000E-03 0. -1.
        -11    1    3    3    0    0 -0.14203882322E+02 -0.37530675808E+01  0.14686397104E+01  0.14764575583E+02  0.51100000000E-03 0.  1.
        -12    1    3    3    0    0 -0.68648923137E+01 -0.13228937160E+02  0.11312845167E+02  0.18711279770E+02  0.00000000000E+00 0.  1.
</event>
<event>
 7    1  0.2653124E-010  0.4778727E+02  0.7816164E-02  0.1312668E+00
        -11   -1    0    0    0    0  0.00000000000E+00  0.00000000000E+00  0.45593999997E+02  0.45594000000E+02  0.51100000000E-03 0.  1.
         11   -1    0    0    0    0 -0.00000000000E+00 -0.00000000000E+00 -0.45593999997E+02  0.45594000000E+02  0.51100000000E-03 0. -1.
    9900012    2    1    2    0    0 -0.15729351215E+02  0.15542567810E+02  0.37344869918E+02  0.47787271746E+02  0.20000003197E+02 0.  0.
         12    1    1    2    0    0  0.15729351215E+02 -0.15542567810E+02 -0.37344869918E+02  0.43400728254E+02  0.00000000000E+00 0. -1.
         11    1    3    3    0    0 -0.51865388961E+01  0.66069892064E+01  0.12148474390E+02  0.14769492962E+02  0.51100000000E-03 0. -1.
        -11    1    3    3    0    0 -0.54117808767E+01  0.56827968982E+01  0.25748273784E+02  0.26917562222E+02  0.51100000000E-03 0.  1.
         12    1    3    3    0    0 -0.51310314421E+01  0.32527817057E+01 -0.55187825608E+00  0.61002165613E+01  0.00000000000E+00 0. -1.
</event>
<event>
 7    1  0.2653124E-010  0.4778727E+02  0.7816164E-02  0.1312668E+00
        -11   -1    0    0    0    0  0.00000000000E+00  0.00000000000E+00  0.45593999997E+02  0.45594000000E+02  0.51100000000E-03 0. -1.
         11   -1    0    0    0    0 -0.00000000000E+00 -0.00000000000E+00 -0.45593999997E+02  0.45594000000E+02  0.51100000000E-03 0.  1.
    9900012    2    1    2    0    0 -0.71360394755E+01  0.42785196377E+02  0.14584928667E+01  0.47787270861E+02  0.19999999162E+02 0.  0.
         12    1    1    2    0    0  0.71360394755E+01 -0.42785196377E+02 -0.14584928667E+01  0.43400729139E+02  0.00000000000E+00 0. -1.
         11    1    3    3    0    0 -0.18347785245E+01  0.17134044026E+02  0.65859028642E+01  0.18447655507E+02  0.51100000000E-03 0. -1.
        -11    1    3    3    0    0 -0.14797363664E+01  0.23699209195E+02 -0.16255796900E+01  0.23800937918E+02  0.51100000000E-03 0.  1.
        -12    1    3    3    0    0 -0.38215245847E+01  0.19519431561E+01 -0.35018303075E+01  0.55386774358E+01  0.00000000000E+00 0.  1.
</event>
<event>
 7    1  0.2653124E-010  0.4778729E+02  0.7816164E-02  0.1312668E+00
        -11   -1    0    0    0    0  0.00000000000E+00  0.00000000000E+00  0.45593999997E+02  0.45594000000E+02  0.51100000000E-03 0. -1.
         11   -1    0    0    0    0 -0.00000000000E+00 -0.00000000000E+00 -0.45593999997E+02  0.45594000000E+02  0.51100000000E-03 0.  1.
    9900012    2    1    2    0    0  0.14105849701E+02 -0.69044395225E+01 -0.40459555019E+02  0.47787287180E+02  0.20000073568E+02 0.  0.
         12    1    1    2    0    0 -0.14105849701E+02  0.69044395225E+01  0.40459555019E+02  0.43400712820E+02  0.00000000000E+00 0. -1.
         11    1    3    3    0    0  0.62554297278E+01  0.56579393638E+00 -0.29173851199E+01  0.69254357305E+01  0.51100000000E-03 0. -1.
        -11    1    3    3    0    0  0.94540174639E+01 -0.10902612836E+01 -0.23559595998E+02  0.25409086558E+02  0.51100000000E-03 0.  1.
        -12    1    3    3    0    0 -0.16035974908E+01 -0.63799721753E+01 -0.13982573902E+02  0.15452764891E+02  0.00000000000E+00 0.  1.
</event>
<event>
 7    1  0.2653124E-010  0.4778727E+02  0.7816164E-02  0.1312668E+00
        -11   -1    0    0    0    0  0.00000000000E+00  0.00000000000E+00  0.45593999997E+02  0.45594000000E+02  0.51100000000E-03 0.  1.
         11   -1    0    0    0    0 -0.00000000000E+00 -0.00000000000E+00 -0.45593999997E+02  0.45594000000E+02  0.51100000000E-03 0. -1.
    9900012    2    1    2    0    0  0.22256151129E+02  0.19742348810E+02  0.31599467674E+02  0.47787274696E+02  0.20000016651E+02 0.  0.
         12    1    1    2    0    0 -0.22256151129E+02 -0.19742348810E+02 -0.31599467674E+02  0.43400725304E+02  0.00000000000E+00 0. -1.
         11    1    3    3    0    0  0.11156714482E+02  0.13945759830E+02  0.17735738643E+02  0.25169682571E+02  0.51100000000E-03 0. -1.
        -11    1    3    3    0    0  0.86600016333E+01  0.32970295463E+01  0.10374554157E+01  0.93242879684E+01  0.51100000000E-03 0.  1.
         12    1    3    3    0    0  0.24394350141E+01  0.24995594335E+01  0.12826273616E+02  0.13293304157E+02  0.00000000000E+00 0. -1.
</event>
<event>
 7    1  0.2653124E-010  0.4778726E+02  0.7816164E-02  0.1312668E+00
        -11   -1    0    0    0    0  0.00000000000E+00  0.00000000000E+00  0.45593999997E+02  0.45594000000E+02  0.51100000000E-03 0. -1.
         11   -1    0    0    0    0 -0.00000000000E+00 -0.00000000000E+00 -0.45593999997E+02  0.45594000000E+02  0.51100000000E-03 0.  1.
    9900012    2    1    2    0    0  0.12002883380E+02 -0.16064982469E+02 -0.38489882596E+02  0.47787263447E+02  0.19999965358E+02 0.  0.
         12    1    1    2    0    0 -0.12002883380E+02  0.16064982469E+02  0.38489882596E+02  0.43400736553E+02  0.00000000000E+00 0. -1.
         11    1    3    3    0    0 -0.25684739374E+01  0.10529666125E+00 -0.10157292971E+01  0.27640282235E+01  0.51100000000E-03 0. -1.
        -11    1    3    3    0    0  0.35731981084E+01 -0.11102908474E+01 -0.16668625373E+02  0.17083429474E+02  0.51100000000E-03 0.  1.
        -12    1    3    3    0    0  0.10998159209E+02 -0.15059988283E+02 -0.20805527925E+02  0.27939805749E+02  0.00000000000E+00 0.  1.
</event>
<event>
 7    1  0.2653124E-010  0.4778727E+02  0.7816164E-02  0.1312668E+00
        -11   -1    0    0    0    0  0.00000000000E+00  0.00000000000E+00  0.45593999997E+02  0.45594000000E+02  0.51100000000E-03 0.  1.
         11   -1    0    0    0    0 -0.00000000000E+00 -0.00000000000E+00 -0.45593999997E+02  0.45594000000E+02  0.51100000000E-03 0. -1.
    9900012    2    1    2    0    0 -0.30025234508E+02  0.31338582065E+02  0.41383992751E-01  0.47787272520E+02  0.20000006729E+02 0.  0.
         12    1    1    2    0    0  0.30025234508E+02 -0.31338582065E+02 -0.41383992751E-01  0.43400727480E+02  0.00000000000E+00 0. -1.
         11    1    3    3    0    0 -0.30303191308E+01 -0.85850704003E+00  0.82758021210E+00  0.32564946861E+01  0.51100000000E-03 0. -1.
        -11    1    3    3    0    0 -0.15492696627E+02  0.20624626878E+02  0.65912063907E+01  0.26624103451E+02  0.51100000000E-03 0.  1.
         12    1    3    3    0    0 -0.11502218751E+02  0.11572462228E+02 -0.73774026101E+01  0.17906674384E+02  0.00000000000E+00 0. -1.
</event>
<event>
 7    1  0.2653124E-010  0.4778728E+02  0.7816164E-02  0.1312668E+00
        -11   -1    0    0    0    0  0.00000000000E+00  0.00000000000E+00  0.45593999997E+02  0.45594000000E+02  0.51100000000E-03 0.  1.
         11   -1    0    0    0    0 -0.00000000000E+00 -0.00000000000E+00 -0.45593999997E+02  0.45594000000E+02  0.51100000000E-03 0. -1.
    9900012    2    1    2    0    0 -0.13758312837E+02  0.34566856207E+02  0.22348690149E+02  0.47787277984E+02  0.20000031639E+02 0.  0.
         12    1    1    2    0    0  0.13758312837E+02 -0.34566856207E+02 -0.22348690149E+02  0.43400722016E+02  0.00000000000E+00 0. -1.
         11    1    3    3    0    0  0.59480468489E+00  0.32629611130E+00  0.17099016046E+01  0.18395721035E+01  0.51100000000E-03 0.  1.
        -11    1    3    3    0    0 -0.53184995902E+01  0.10277115970E+02 -0.20272537913E+01  0.11747991690E+02  0.51100000000E-03 0. -1.
         12    1    3    3    0    0 -0.90346179320E+01  0.23963444125E+02  0.22666042336E+02  0.34199714190E+02  0.00000000000E+00 0. -1.
</event>
<event>
 7    1  0.2653124E-010  0.4778727E+02  0.7816164E-02  0.1312668E+00
        -11   -1    0    0    0    0  0.00000000000E+00  0.00000000000E+00  0.45593999997E+02  0.45594000000E+02  0.51100000000E-03 0.  1.
         11   -1    0    0    0    0 -0.00000000000E+00 -0.00000000000E+00 -0.45593999997E+02  0.45594000000E+02  0.51100000000E-03 0. -1.
    9900012    2    1    2    0    0 -0.16576145231E+02 -0.17882094477E+02  0.35903839551E+02  0.47787267424E+02  0.19999983495E+02 0.  0.
         12    1    1    2    0    0  0.16576145231E+02  0.17882094477E+02 -0.35903839551E+02  0.43400732576E+02  0.00000000000E+00 0. -1.
         11    1    3    3    0    0 -0.10824031089E+00 -0.20018498351E+01  0.32002176213E+01  0.37763092845E+01  0.51100000000E-03 0. -1.
        -11    1    3    3    0    0 -0.17263962383E+01 -0.14302453290E+02  0.18806982221E+02  0.23690571850E+02  0.51100000000E-03 0.  1.
         12    1    3    3    0    0 -0.14741508682E+02 -0.15777913520E+01  0.13896639709E+02  0.20320386290E+02  0.00000000000E+00 0. -1.
</event>
<event>
 7    1  0.2653124E-010  0.4778727E+02  0.7816164E-02  0.1312668E+00
        -11   -1    0    0    0    0  0.00000000000E+00  0.00000000000E+00  0.45593999997E+02  0.45594000000E+02  0.51100000000E-03 0. -1.
         11   -1    0    0    0    0 -0.00000000000E+00 -0.00000000000E+00 -0.45593999997E+02  0.45594000000E+02  0.51100000000E-03 0.  1.
    9900012    2    1    2    0    0  0.23201403394E+02  0.36260041748E+02  0.55251705448E+01  0.47787271244E+02  0.20000000909E+02 0.  0.
         12    1    1    2    0    0 -0.23201403394E+02 -0.36260041748E+02 -0.55251705448E+01  0.43400728756E+02  0.00000000000E+00 0. -1.
         11    1    3    3    0    0  0.78834876168E+01  0.10614594383E+02  0.52625317190E+01  0.14230714363E+02  0.51100000000E-03 0. -1.
        -11    1    3    3    0    0  0.14525415683E+02  0.10207104306E+02  0.25300654193E+01  0.17932481992E+02  0.51100000000E-03 0.  1.
        -12    1    3    3    0    0  0.79250009421E+00  0.15438343058E+02 -0.22674265935E+01  0.15624074889E+02  0.00000000000E+00 0.  1.
</event>
<event>
 7    1  0.2653124E-010  0.4778727E+02  0.7816164E-02  0.1312668E+00
        -11   -1    0    0    0    0  0.00000000000E+00  0.00000000000E+00  0.45593999997E+02  0.45594000000E+02  0.51100000000E-03 0. -1.
         11   -1    0    0    0    0 -0.00000000000E+00 -0.00000000000E+00 -0.45593999997E+02  0.45594000000E+02  0.51100000000E-03 0.  1.
    9900012    2    1    2    0    0 -0.31383587410E+02  0.29567768526E+02 -0.49437636344E+01  0.47787270822E+02  0.19999998985E+02 0.  0.
         12    1    1    2    0    0  0.31383587410E+02 -0.29567768526E+02  0.49437636344E+01  0.43400729178E+02  0.00000000000E+00 0. -1.
         11    1    3    3    0    0 -0.10978423923E+02  0.18038143872E+02  0.54434682873E+01  0.21806691024E+02  0.51100000000E-03 0. -1.
        -11    1    3    3    0    0 -0.31110950465E+01  0.17634391647E+00 -0.11093344363E+01  0.33076627273E+01  0.51100000000E-03 0.  1.
         12    1    3    3    0    0 -0.17294068440E+02  0.11353280738E+02 -0.92778974853E+01  0.22672917070E+02  0.00000000000E+00 0. -1.
</event>
<event>
 7    1  0.2653124E-010  0.4778727E+02  0.7816164E-02  0.1312668E+00
        -11   -1    0    0    0    0  0.00000000000E+00  0.00000000000E+00  0.45593999997E+02  0.45594000000E+02  0.51100000000E-03 0.  1.
         11   -1    0    0    0    0 -0.00000000000E+00 -0.00000000000E+00 -0.45593999997E+02  0.45594000000E+02  0.51100000000E-03 0. -1.
    9900012    2    1    2    0    0  0.24940551932E+02 -0.33870544843E+02  0.10694780637E+02  0.47787271072E+02  0.20000000125E+02 0.  0.
         12    1    1    2    0    0 -0.24940551932E+02  0.33870544843E+02 -0.10694780637E+02  0.43400728928E+02  0.00000000000E+00 0. -1.
         11    1    3    3    0    0  0.16128296550E+01 -0.13475415531E+01 -0.23670724614E+01  0.31654573179E+01  0.51100000000E-03 0. -1.
        -11    1    3    3    0    0 -0.12748917842E+01 -0.64014427062E+01  0.38374859556E+01  0.75716653718E+01  0.51100000000E-03 0.  1.
        -12    1    3    3    0    0  0.24602614061E+02 -0.26121560584E+02  0.92243671424E+01  0.37050148382E+02  0.00000000000E+00 0.  1.
</event>
<event>
 7    1  0.2653124E-010  0.4778727E+02  0.7816164E-02  0.1312668E+00
        -11   -1    0    0    0    0  0.00000000000E+00  0.00000000000E+00  0.45593999997E+02  0.45594000000E+02  0.51100000000E-03 0.  1.
         11   -1    0    0    0    0 -0.00000000000E+00 -0.00000000000E+00 -0.45593999997E+02  0.45594000000E+02  0.51100000000E-03 0. -1.
    9900012    2    1    2    0    0 -0.34855080824E+02  0.24462928568E+02 -0.83852146040E+01  0.47787270083E+02  0.19999995617E+02 0.  0.
         12    1    1    2    0    0  0.34855080824E+02 -0.24462928568E+02  0.83852146040E+01  0.43400729917E+02  0.00000000000E+00 0. -1.
         11    1    3    3    0    0 -0.37915805167E+01  0.82897747864E-01  0.43140215580E+01  0.57440175065E+01  0.51100000000E-03 0. -1.
        -11    1    3    3    0    0 -0.78158393504E+01  0.28850981758E+01 -0.37810676948E+01  0.91491862703E+01  0.51100000000E-03 0.  1.
         12    1    3    3    0    0 -0.23247660956E+02  0.21494932645E+02 -0.89181684672E+01  0.32894066306E+02  0.00000000000E+00 0. -1.
</event>
<event>
 7    1  0.2653124E-010  0.4778727E+02  0.7816164E-02  0.1312668E+00
        -11   -1    0    0    0    0  0.00000000000E+00  0.00000000000E+00  0.45593999997E+02  0.45594000000E+02  0.51100000000E-03 0.  1.
         11   -1    0    0    0    0 -0.00000000000E+00 -0.00000000000E+00 -0.45593999997E+02  0.45594000000E+02  0.51100000000E-03 0. -1.
    9900012    2    1    2    0    0 -0.38123738662E+02 -0.40519671285E+01  0.20341709133E+02  0.47787273997E+02  0.20000013461E+02 0.  0.
         12    1    1    2    0    0  0.38123738662E+02  0.40519671285E+01 -0.20341709133E+02  0.43400726003E+02  0.00000000000E+00 0. -1.
         11    1    3    3    0    0 -0.89631681462E+01 -0.66603596633E+01  0.35878458880E+01  0.11729084041E+02  0.51100000000E-03 0. -1.
        -11    1    3    3    0    0 -0.12823753151E+02  0.48550950697E+01  0.13514229491E+02  0.19252402240E+02  0.51100000000E-03 0.  1.
         12    1    3    3    0    0 -0.16336817365E+02 -0.22467025348E+01  0.32396337534E+01  0.16805787716E+02  0.00000000000E+00 0. -1.
</event>
<event>
 7    1  0.2653124E-010  0.4778729E+02  0.7816164E-02  0.1312668E+00
        -11   -1    0    0    0    0  0.00000000000E+00  0.00000000000E+00  0.45593999997E+02  0.45594000000E+02  0.51100000000E-03 0.  1.
         11   -1    0    0    0    0 -0.00000000000E+00 -0.00000000000E+00 -0.45593999997E+02  0.45594000000E+02  0.51100000000E-03 0. -1.
    9900012    2    1    2    0    0  0.19561287459E+02 -0.79351255211E+01  0.37921118267E+02  0.47787292693E+02  0.20000098706E+02 0.  0.
         12    1    1    2    0    0 -0.19561287459E+02  0.79351255211E+01 -0.37921118267E+02  0.43400707307E+02  0.00000000000E+00 0. -1.
         11    1    3    3    0    0  0.14195239689E+02 -0.42990016631E+01  0.75066035751E+01  0.16623337289E+02  0.51100000000E-03 0. -1.
        -11    1    3    3    0    0  0.12386735935E+01  0.30077953055E-01  0.68752539625E+01  0.69860098958E+01  0.51100000000E-03 0.  1.
         12    1    3    3    0    0  0.41273741762E+01 -0.36662018111E+01  0.23539260730E+02  0.24177945508E+02  0.00000000000E+00 0. -1.
</event>
<event>
 7    1  0.2653124E-010  0.4778727E+02  0.7816164E-02  0.1312668E+00
        -11   -1    0    0    0    0  0.00000000000E+00  0.00000000000E+00  0.45593999997E+02  0.45594000000E+02  0.51100000000E-03 0. -1.
         11   -1    0    0    0    0 -0.00000000000E+00 -0.00000000000E+00 -0.45593999997E+02  0.45594000000E+02  0.51100000000E-03 0.  1.
    9900012    2    1    2    0    0 -0.43204136185E+02  0.25182912595E+01 -0.32686307729E+01  0.47787272800E+02  0.20000008004E+02 0.  0.
         12    1    1    2    0    0  0.43204136185E+02 -0.25182912595E+01  0.32686307729E+01  0.43400727200E+02  0.00000000000E+00 0. -1.
         11    1    3    3    0    0 -0.14925181599E+01 -0.38907920394E+01 -0.14341892588E+01  0.44071274367E+01  0.51100000000E-03 0. -1.
        -11    1    3    3    0    0 -0.13797426841E+02 -0.10183220521E+01 -0.40340232019E+01  0.14411082912E+02  0.51100000000E-03 0.  1.
         12    1    3    3    0    0 -0.27914191184E+02  0.74274053511E+01  0.21995816879E+01  0.28969062451E+02  0.00000000000E+00 0. -1.
</event>
<event>
 7    1  0.2653124E-010  0.4778727E+02  0.7816164E-02  0.1312668E+00
        -11   -1    0    0    0    0  0.00000000000E+00  0.00000000000E+00  0.45593999997E+02  0.45594000000E+02  0.51100000000E-03 0.  1.
         11   -1    0    0    0    0 -0.00000000000E+00 -0.00000000000E+00 -0.45593999997E+02  0.45594000000E+02  0.51100000000E-03 0. -1.
    9900012    2    1    2    0    0 -0.18634845424E+02 -0.38763750726E+02 -0.58083833334E+01  0.47787272456E+02  0.20000006438E+02 0.  0.
         12    1    1    2    0    0  0.18634845424E+02  0.38763750726E+02  0.58083833334E+01  0.43400727544E+02  0.00000000000E+00 0. -1.
         11    1    3    3    0    0  0.61779264449E+00 -0.36387438553E+01 -0.72453105120E+00  0.37612591111E+01  0.51100000000E-03 0. -1.
        -11    1    3    3    0    0 -0.20463734995E+02 -0.36506209386E+02 -0.52636817424E+01  0.42180257460E+02  0.51100000000E-03 0.  1.
         12    1    3    3    0    0  0.12110969258E+01  0.13812025152E+01  0.17982946011E+00  0.18457558848E+01  0.00000000000E+00 0. -1.
</event>
<event>
 7    1  0.2653124E-010  0.4778727E+02  0.7816164E-02  0.1312668E+00
        -11   -1    0    0    0    0  0.00000000000E+00  0.00000000000E+00  0.45593999997E+02  0.45594000000E+02  0.51100000000E-03 0.  1.
         11   -1    0    0    0    0 -0.00000000000E+00 -0.00000000000E+00 -0.45593999997E+02  0.45594000000E+02  0.51100000000E-03 0. -1.
    9900012    2    1    2    0    0 -0.32949255279E+02 -0.24961166677E+02  0.13225356884E+02  0.47787270398E+02  0.19999997052E+02 0.  0.
         12    1    1    2    0    0  0.32949255279E+02  0.24961166677E+02 -0.13225356884E+02  0.43400729602E+02  0.00000000000E+00 0. -1.
         11    1    3    3    0    0 -0.11111772064E+02 -0.39884482797E+01 -0.49047871054E+00  0.11816080894E+02  0.51100000000E-03 0. -1.
        -11    1    3    3    0    0 -0.88004883222E+00 -0.34690923251E+01 -0.23579415770E+01  0.42859043677E+01  0.51100000000E-03 0.  1.
        -12    1    3    3    0    0 -0.20957434383E+02 -0.17503626072E+02  0.16073777171E+02  0.31685285136E+02  0.00000000000E+00 0.  1.
</event>
<event>
 7    1  0.2653124E-010  0.4778727E+02  0.7816164E-02  0.1312668E+00
        -11   -1    0    0    0    0  0.00000000000E+00  0.00000000000E+00  0.45593999997E+02  0.45594000000E+02  0.51100000000E-03 0.  1.
         11   -1    0    0    0    0 -0.00000000000E+00 -0.00000000000E+00 -0.45593999997E+02  0.45594000000E+02  0.51100000000E-03 0. -1.
    9900012    2    1    2    0    0 -0.40320686284E+02  0.16058159510E+02 -0.29546897949E-01  0.47787273021E+02  0.20000009013E+02 0.  0.
         12    1    1    2    0    0  0.40320686284E+02 -0.16058159510E+02  0.29546897949E-01  0.43400726979E+02  0.00000000000E+00 0. -1.
         11    1    3    3    0    0 -0.23270836414E+01  0.52982835187E+01 -0.27818467394E+01  0.64207318945E+01  0.51100000000E-03 0. -1.
        -11    1    3    3    0    0 -0.69606067937E+01  0.57259662850E+01  0.40938423093E+01  0.98993071449E+01  0.51100000000E-03 0.  1.
        -12    1    3    3    0    0 -0.31032995849E+02  0.50339097065E+01 -0.13415424679E+01  0.31467233982E+02  0.00000000000E+00 0.  1.
</event>
<event>
 7    1  0.2653124E-010  0.4778732E+02  0.7816164E-02  0.1312668E+00
        -11   -1    0    0    0    0  0.00000000000E+00  0.00000000000E+00  0.45593999997E+02  0.45594000000E+02  0.51100000000E-03 0. -1.
         11   -1    0    0    0    0 -0.00000000000E+00 -0.00000000000E+00 -0.45593999997E+02  0.45594000000E+02  0.51100000000E-03 0.  1.
    9900012    2    1    2    0    0 -0.29746643925E+02 -0.37239623380E+01 -0.31382923655E+02  0.47787324689E+02  0.20000244587E+02 0.  0.
         12    1    1    2    0    0  0.29746643925E+02  0.37239623380E+01  0.31382923655E+02  0.43400675311E+02  0.00000000000E+00 0. -1.
         11    1    3    3    0    0 -0.65757742413E+01  0.40094980797E+01 -0.16394077673E+02  0.18113052330E+02  0.51100000000E-03 0. -1.
        -11    1    3    3    0    0 -0.18057539327E+02 -0.23947309915E+01 -0.10476996678E+02  0.21013731766E+02  0.51100000000E-03 0.  1.
        -12    1    3    3    0    0 -0.51133303567E+01 -0.53387294262E+01 -0.45118493046E+01  0.86605405934E+01  0.00000000000E+00 0.  1.
</event>
<event>
 7    1  0.2653124E-010  0.4778729E+02  0.7816164E-02  0.1312668E+00
        -11   -1    0    0    0    0  0.00000000000E+00  0.00000000000E+00  0.45593999997E+02  0.45594000000E+02  0.51100000000E-03 0.  1.
         11   -1    0    0    0    0 -0.00000000000E+00 -0.00000000000E+00 -0.45593999997E+02  0.45594000000E+02  0.51100000000E-03 0. -1.
    9900012    2    1    2    0    0 -0.46755877325E+01  0.74596182640E+01  0.42498410023E+02  0.47787287105E+02  0.20000073228E+02 0.  0.
         12    1    1    2    0    0  0.46755877325E+01 -0.74596182640E+01 -0.42498410023E+02  0.43400712895E+02  0.00000000000E+00 0. -1.
         11    1    3    3    0    0 -0.35489564036E+01 -0.15854651249E+01  0.10915799718E+02  0.11587211699E+02  0.51100000000E-03 0.  1.
        -11    1    3    3    0    0 -0.22979283781E+01  0.28057313533E+01 -0.34910784713E+00  0.36434159531E+01  0.51100000000E-03 0. -1.
         12    1    3    3    0    0  0.11712970491E+01  0.62393520356E+01  0.31931718152E+02  0.32556659453E+02  0.00000000000E+00 0. -1.
</event>
<event>
 7    1  0.2653124E-010  0.4778728E+02  0.7816164E-02  0.1312668E+00
        -11   -1    0    0    0    0  0.00000000000E+00  0.00000000000E+00  0.45593999997E+02  0.45594000000E+02  0.51100000000E-03 0.  1.
         11   -1    0    0    0    0 -0.00000000000E+00 -0.00000000000E+00 -0.45593999997E+02  0.45594000000E+02  0.51100000000E-03 0. -1.
    9900012    2    1    2    0    0 -0.28388350432E+02  0.55461400819E+01  0.32356830108E+02  0.47787279215E+02  0.20000037253E+02 0.  0.
         12    1    1    2    0    0  0.28388350432E+02 -0.55461400819E+01 -0.32356830108E+02  0.43400720785E+02  0.00000000000E+00 0. -1.
         11    1    3    3    0    0 -0.92400475618E+01  0.80035994968E+01  0.17440779215E+02  0.21298283117E+02  0.51100000000E-03 0. -1.
        -11    1    3    3    0    0 -0.11972572810E+02  0.29834578245E+01  0.11471260261E+02  0.16847353873E+02  0.51100000000E-03 0.  1.
         12    1    3    3    0    0 -0.71757300596E+01 -0.54409172393E+01  0.34447906315E+01  0.96416422247E+01  0.00000000000E+00 0. -1.
</event>
<event>
 7    1  0.2653124E-010  0.4778727E+02  0.7816164E-02  0.1312668E+00
        -11   -1    0    0    0    0  0.00000000000E+00  0.00000000000E+00  0.45593999997E+02  0.45594000000E+02  0.51100000000E-03 0.  1.
         11   -1    0    0    0    0 -0.00000000000E+00 -0.00000000000E+00 -0.45593999997E+02  0.45594000000E+02  0.51100000000E-03 0. -1.
    9900012    2    1    2    0    0  0.16877432571E+02  0.39570641212E+02  0.57393497468E+01  0.47787268306E+02  0.19999987512E+02 0.  0.
         12    1    1    2    0    0 -0.16877432571E+02 -0.39570641212E+02 -0.57393497468E+01  0.43400731694E+02  0.00000000000E+00 0. -1.
         11    1    3    3    0    0  0.24246837356E+01  0.15039909919E+02  0.37103408005E+01  0.15679432730E+02  0.51100000000E-03 0. -1.
        -11    1    3    3    0    0  0.93085975392E+01  0.25185533427E+02  0.19524580135E+01  0.26921611666E+02  0.51100000000E-03 0.  1.
         12    1    3    3    0    0  0.51441512964E+01 -0.65480213483E+00  0.76550932846E-01  0.51862239097E+01  0.00000000000E+00 0. -1.
</event>
<event>
 7    1  0.2653124E-010  0.4778727E+02  0.7816164E-02  0.1312668E+00
        -11   -1    0    0    0    0  0.00000000000E+00  0.00000000000E+00  0.45593999997E+02  0.45594000000E+02  0.51100000000E-03 0.  1.
         11   -1    0    0    0    0 -0.00000000000E+00 -0.00000000000E+00 -0.45593999997E+02  0.45594000000E+02  0.51100000000E-03 0. -1.
    9900012    2    1    2    0    0 -0.35193774966E+02  0.19826023433E+01  0.25319771220E+02  0.47787270478E+02  0.19999997416E+02 0.  0.
         12    1    1    2    0    0  0.35193774966E+02 -0.19826023433E+01 -0.25319771220E+02  0.43400729522E+02  0.00000000000E+00 0. -1.
         11    1    3    3    0    0 -0.98766833132E+01  0.30028240636E+01  0.14959951026E+02  0.18175972067E+02  0.51100000000E-03 0. -1.
        -11    1    3    3    0    0 -0.13973828831E+02 -0.18566571155E+01  0.11483291417E+02  0.18181887962E+02  0.51100000000E-03 0.  1.
         12    1    3    3    0    0 -0.11343262822E+02  0.83643539532E+00 -0.11234712221E+01  0.11429410449E+02  0.00000000000E+00 0. -1.
</event>
<event>
 7    1  0.2653124E-010  0.4778727E+02  0.7816164E-02  0.1312668E+00
        -11   -1    0    0    0    0  0.00000000000E+00  0.00000000000E+00  0.45593999997E+02  0.45594000000E+02  0.51100000000E-03 0. -1.
         11   -1    0    0    0    0 -0.00000000000E+00 -0.00000000000E+00 -0.45593999997E+02  0.45594000000E+02  0.51100000000E-03 0.  1.
    9900012    2    1    2    0    0 -0.38260141578E+02  0.13456630988E+02 -0.15450050765E+02  0.47787269364E+02  0.19999992338E+02 0.  0.
         12    1    1    2    0    0  0.38260141578E+02 -0.13456630988E+02  0.15450050765E+02  0.43400730636E+02  0.00000000000E+00 0. -1.
         11    1    3    3    0    0 -0.23106325571E+01  0.28974743589E+01 -0.10245197436E+01  0.38449995371E+01  0.51100000000E-03 0. -1.
        -11    1    3    3    0    0 -0.35050718000E+02  0.10430735683E+02 -0.17640026985E+02  0.40602015116E+02  0.51100000000E-03 0.  1.
         12    1    3    3    0    0 -0.89879102104E+00  0.12842094653E+00  0.32144959631E+01  0.33402547112E+01  0.00000000000E+00 0. -1.
</event>
<event>
 7    1  0.2653124E-010  0.4778727E+02  0.7816164E-02  0.1312668E+00
        -11   -1    0    0    0    0  0.00000000000E+00  0.00000000000E+00  0.45593999997E+02  0.45594000000E+02  0.51100000000E-03 0.  1.
         11   -1    0    0    0    0 -0.00000000000E+00 -0.00000000000E+00 -0.45593999997E+02  0.45594000000E+02  0.51100000000E-03 0. -1.
    9900012    2    1    2    0    0 -0.12965615456E+02 -0.41222122893E+02  0.40314588264E+01  0.47787271202E+02  0.20000000716E+02 0.  0.
         12    1    1    2    0    0  0.12965615456E+02  0.41222122893E+02 -0.40314588264E+01  0.43400728798E+02  0.00000000000E+00 0. -1.
         11    1    3    3    0    0 -0.90832782019E+01 -0.21085045610E+02  0.28342428863E+01  0.23132618189E+02  0.51100000000E-03 0. -1.
        -11    1    3    3    0    0 -0.41362661471E+01 -0.21460319103E+02  0.33544326654E+01  0.22111223675E+02  0.51100000000E-03 0.  1.
         12    1    3    3    0    0  0.25392889289E+00  0.13232418198E+01 -0.21572167253E+01  0.25434293378E+01  0.00000000000E+00 0. -1.
</event>
<event>
 7    1  0.2653124E-010  0.4778727E+02  0.7816164E-02  0.1312668E+00
        -11   -1    0    0    0    0  0.00000000000E+00  0.00000000000E+00  0.45593999997E+02  0.45594000000E+02  0.51100000000E-03 0.  1.
         11   -1    0    0    0    0 -0.00000000000E+00 -0.00000000000E+00 -0.45593999997E+02  0.45594000000E+02  0.51100000000E-03 0. -1.
    9900012    2    1    2    0    0 -0.37197594738E+02 -0.20082764910E+02  0.98307982438E+01  0.47787273107E+02  0.20000009402E+02 0.  0.
         12    1    1    2    0    0  0.37197594738E+02  0.20082764910E+02 -0.98307982438E+01  0.43400726893E+02  0.00000000000E+00 0. -1.
         11    1    3    3    0    0 -0.20418794942E+02 -0.16147996506E+02  0.17018121598E+01  0.26087950148E+02  0.51100000000E-03 0.  1.
        -11    1    3    3    0    0 -0.15394623822E+01  0.29590672050E-01 -0.23321488626E+01  0.27945909562E+01  0.51100000000E-03 0. -1.
         12    1    3    3    0    0 -0.15239337414E+02 -0.39643590768E+01  0.10461134947E+02  0.18904732002E+02  0.00000000000E+00 0. -1.
</event>
<event>
 7    1  0.2653124E-010  0.4778727E+02  0.7816164E-02  0.1312668E+00
        -11   -1    0    0    0    0  0.00000000000E+00  0.00000000000E+00  0.45593999997E+02  0.45594000000E+02  0.51100000000E-03 0.  1.
         11   -1    0    0    0    0 -0.00000000000E+00 -0.00000000000E+00 -0.45593999997E+02  0.45594000000E+02  0.51100000000E-03 0. -1.
    9900012    2    1    2    0    0 -0.22565586879E+02 -0.27144020421E+02  0.25251134381E+02  0.47787270244E+02  0.19999996350E+02 0.  0.
         12    1    1    2    0    0  0.22565586879E+02  0.27144020421E+02 -0.25251134381E+02  0.43400729756E+02  0.00000000000E+00 0. -1.
         11    1    3    3    0    0 -0.64773409120E+01 -0.20402818471E+01  0.47582738783E+00  0.68077240888E+01  0.51100000000E-03 0. -1.
        -11    1    3    3    0    0 -0.16527787285E-01 -0.14546652323E+00  0.56824261105E+01  0.56843117824E+01  0.51100000000E-03 0.  1.
        -12    1    3    3    0    0 -0.16071718180E+02 -0.24958272051E+02  0.19092880883E+02  0.35295234373E+02  0.00000000000E+00 0.  1.
</event>
<event>
 7    1  0.2653124E-010  0.4778727E+02  0.7816164E-02  0.1312668E+00
        -11   -1    0    0    0    0  0.00000000000E+00  0.00000000000E+00  0.45593999997E+02  0.45594000000E+02  0.51100000000E-03 0. -1.
         11   -1    0    0    0    0 -0.00000000000E+00 -0.00000000000E+00 -0.45593999997E+02  0.45594000000E+02  0.51100000000E-03 0.  1.
    9900012    2    1    2    0    0  0.24087233763E+02  0.34912073991E+01 -0.35933829819E+02  0.47787268613E+02  0.19999988916E+02 0.  0.
         12    1    1    2    0    0 -0.24087233763E+02 -0.34912073991E+01  0.35933829819E+02  0.43400731387E+02  0.00000000000E+00 0. -1.
         11    1    3    3    0    0  0.36717791790E+01  0.18854518873E+01 -0.10482657423E+02  0.11266010743E+02  0.51100000000E-03 0.  1.
        -11    1    3    3    0    0  0.21637912042E+02  0.33224353372E+01 -0.16738943513E+02  0.27557758332E+02  0.51100000000E-03 0. -1.
         12    1    3    3    0    0 -0.12224574581E+01 -0.17166798254E+01 -0.87122288831E+01  0.89634995382E+01  0.00000000000E+00 0. -1.
</event>
<event>
 7    1  0.2653124E-010  0.4778727E+02  0.7816164E-02  0.1312668E+00
        -11   -1    0    0    0    0  0.00000000000E+00  0.00000000000E+00  0.45593999997E+02  0.45594000000E+02  0.51100000000E-03 0.  1.
         11   -1    0    0    0    0 -0.00000000000E+00 -0.00000000000E+00 -0.45593999997E+02  0.45594000000E+02  0.51100000000E-03 0. -1.
    9900012    2    1    2    0    0 -0.11806987040E+02 -0.34957223922E+01  0.41617284868E+02  0.47787269387E+02  0.19999992442E+02 0.  0.
         12    1    1    2    0    0  0.11806987040E+02  0.34957223922E+01 -0.41617284868E+02  0.43400730613E+02  0.00000000000E+00 0. -1.
         11    1    3    3    0    0  0.14909951249E+01 -0.21586343826E+01  0.10372839820E+02  0.10699466110E+02  0.51100000000E-03 0. -1.
        -11    1    3    3    0    0 -0.10059131226E+02 -0.52966446273E+01  0.29610253273E+02  0.31717623878E+02  0.51100000000E-03 0.  1.
         12    1    3    3    0    0 -0.32388509389E+01  0.39595566177E+01  0.16341917751E+01  0.53701793984E+01  0.00000000000E+00 0. -1.
</event>
<event>
 7    1  0.2653124E-010  0.4778727E+02  0.7816164E-02  0.1312668E+00
        -11   -1    0    0    0    0  0.00000000000E+00  0.00000000000E+00  0.45593999997E+02  0.45594000000E+02  0.51100000000E-03 0. -1.
         11   -1    0    0    0    0 -0.00000000000E+00 -0.00000000000E+00 -0.45593999997E+02  0.45594000000E+02  0.51100000000E-03 0.  1.
    9900012    2    1    2    0    0 -0.40842329840E+02  0.13867049768E+02 -0.48199690710E+01  0.47787273302E+02  0.20000010293E+02 0.  0.
         12    1    1    2    0    0  0.40842329840E+02 -0.13867049768E+02  0.48199690710E+01  0.43400726698E+02  0.00000000000E+00 0. -1.
         11    1    3    3    0    0  0.10129134582E+01  0.14652594125E+01  0.88167490856E+00  0.19875436411E+01  0.51100000000E-03 0. -1.
        -11    1    3    3    0    0 -0.13523892339E+02  0.64755089299E+00 -0.67086443617E+01  0.15110291049E+02  0.51100000000E-03 0.  1.
        -12    1    3    3    0    0 -0.28331350960E+02  0.11754239463E+02  0.10070003821E+01  0.30689438612E+02  0.00000000000E+00 0.  1.
</event>
<event>
 7    1  0.2653124E-010  0.4778727E+02  0.7816164E-02  0.1312668E+00
        -11   -1    0    0    0    0  0.00000000000E+00  0.00000000000E+00  0.45593999997E+02  0.45594000000E+02  0.51100000000E-03 0. -1.
         11   -1    0    0    0    0 -0.00000000000E+00 -0.00000000000E+00 -0.45593999997E+02  0.45594000000E+02  0.51100000000E-03 0.  1.
    9900012    2    1    2    0    0 -0.31872310230E+02  0.99482562435E+01 -0.27727443245E+02  0.47787273386E+02  0.20000010677E+02 0.  0.
         12    1    1    2    0    0  0.31872310230E+02 -0.99482562435E+01  0.27727443245E+02  0.43400726614E+02  0.00000000000E+00 0. -1.
         11    1    3    3    0    0 -0.18106807267E+02  0.97163707855E+01 -0.14086904095E+02  0.24913955886E+02  0.51100000000E-03 0. -1.
        -11    1    3    3    0    0 -0.16025873155E+02  0.24781896423E+00 -0.11241119102E+02  0.19576843043E+02  0.51100000000E-03 0.  1.
         12    1    3    3    0    0  0.22603701915E+01 -0.15933506267E-01 -0.23994200481E+01  0.32964744571E+01  0.00000000000E+00 0. -1.
</event>
<event>
 7    1  0.2653124E-010  0.4778728E+02  0.7816164E-02  0.1312668E+00
        -11   -1    0    0    0    0  0.00000000000E+00  0.00000000000E+00  0.45593999997E+02  0.45594000000E+02  0.51100000000E-03 0.  1.
         11   -1    0    0    0    0 -0.00000000000E+00 -0.00000000000E+00 -0.45593999997E+02  0.45594000000E+02  0.51100000000E-03 0. -1.
    9900012    2    1    2    0    0  0.28449447135E+02  0.18556395099E+01  0.32723197794E+02  0.47787284406E+02  0.20000060919E+02 0.  0.
         12    1    1    2    0    0 -0.28449447135E+02 -0.18556395099E+01 -0.32723197794E+02  0.43400715594E+02  0.00000000000E+00 0. -1.
         11    1    3    3    0    0  0.17116515520E+01 -0.19289785968E+01  0.88667233338E-01  0.25804208187E+01  0.51100000000E-03 0. -1.
        -11    1    3    3    0    0  0.61926057965E+01  0.96317785563E+00 -0.31435654922E+00  0.62749421060E+01  0.51100000000E-03 0.  1.
        -12    1    3    3    0    0  0.20545189786E+02  0.28214402511E+01  0.32948887109E+02  0.38931921481E+02  0.00000000000E+00 0.  1.
</event>
<event>
 7    1  0.2653124E-010  0.4778727E+02  0.7816164E-02  0.1312668E+00
        -11   -1    0    0    0    0  0.00000000000E+00  0.00000000000E+00  0.45593999997E+02  0.45594000000E+02  0.51100000000E-03 0. -1.
         11   -1    0    0    0    0 -0.00000000000E+00 -0.00000000000E+00 -0.45593999997E+02  0.45594000000E+02  0.51100000000E-03 0.  1.
    9900012    2    1    2    0    0  0.94990415397E+01  0.40298366398E+02 -0.13016651744E+02  0.47787270200E+02  0.19999996150E+02 0.  0.
         12    1    1    2    0    0 -0.94990415397E+01 -0.40298366398E+02  0.13016651744E+02  0.43400729800E+02  0.00000000000E+00 0. -1.
         11    1    3    3    0    0 -0.25574883613E+01  0.15744677140E+02 -0.32677619660E+01  0.16282317817E+02  0.51100000000E-03 0. -1.
        -11    1    3    3    0    0  0.40044031841E+01  0.78438120404E+01  0.26462700234E+01  0.91958347900E+01  0.51100000000E-03 0.  1.
        -12    1    3    3    0    0  0.80521267169E+01  0.16709877218E+02 -0.12395159801E+02  0.22309117594E+02  0.00000000000E+00 0.  1.
</event>
<event>
 7    1  0.2653124E-010  0.4778727E+02  0.7816164E-02  0.1312668E+00
        -11   -1    0    0    0    0  0.00000000000E+00  0.00000000000E+00  0.45593999997E+02  0.45594000000E+02  0.51100000000E-03 0. -1.
         11   -1    0    0    0    0 -0.00000000000E+00 -0.00000000000E+00 -0.45593999997E+02  0.45594000000E+02  0.51100000000E-03 0.  1.
    9900012    2    1    2    0    0  0.17424381221E+02 -0.32340505919E+02 -0.23110732732E+02  0.47787270151E+02  0.19999995926E+02 0.  0.
         12    1    1    2    0    0 -0.17424381221E+02  0.32340505919E+02  0.23110732732E+02  0.43400729849E+02  0.00000000000E+00 0. -1.
         11    1    3    3    0    0  0.34646469580E+01 -0.43605839863E+01  0.36681917760E+00  0.55814897487E+01  0.51100000000E-03 0. -1.
        -11    1    3    3    0    0  0.13705410321E+02 -0.18573705844E+02 -0.86619700776E+01  0.24654625261E+02  0.51100000000E-03 0.  1.
         12    1    3    3    0    0  0.25432394189E+00 -0.94062160880E+01 -0.14815581832E+02  0.17551155141E+02  0.00000000000E+00 0. -1.
</event>
<event>
 7    1  0.2653124E-010  0.4778727E+02  0.7816164E-02  0.1312668E+00
        -11   -1    0    0    0    0  0.00000000000E+00  0.00000000000E+00  0.45593999997E+02  0.45594000000E+02  0.51100000000E-03 0.  1.
         11   -1    0    0    0    0 -0.00000000000E+00 -0.00000000000E+00 -0.45593999997E+02  0.45594000000E+02  0.51100000000E-03 0. -1.
    9900012    2    1    2    0    0 -0.31079468533E+02 -0.23537249721E+02  0.19070593345E+02  0.47787273978E+02  0.20000013373E+02 0.  0.
         12    1    1    2    0    0  0.31079468533E+02  0.23537249721E+02 -0.19070593345E+02  0.43400726022E+02  0.00000000000E+00 0. -1.
         11    1    3    3    0    0 -0.26032360441E+02 -0.10389830344E+02  0.84407298780E+01  0.29272483424E+02  0.51100000000E-03 0.  1.
        -11    1    3    3    0    0 -0.17652584248E+01 -0.20309770048E+01 -0.13759106140E+00  0.26944269264E+01  0.51100000000E-03 0. -1.
         12    1    3    3    0    0 -0.32818496674E+01 -0.11116442372E+02  0.10767454529E+02  0.15820363627E+02  0.00000000000E+00 0. -1.
</event>
<event>
 7    1  0.2653124E-010  0.4778727E+02  0.7816164E-02  0.1312668E+00
        -11   -1    0    0    0    0  0.00000000000E+00  0.00000000000E+00  0.45593999997E+02  0.45594000000E+02  0.51100000000E-03 0.  1.
         11   -1    0    0    0    0 -0.00000000000E+00 -0.00000000000E+00 -0.45593999997E+02  0.45594000000E+02  0.51100000000E-03 0. -1.
    9900012    2    1    2    0    0 -0.37998920330E+02  0.12910227679E+02  0.16523662132E+02  0.47787270338E+02  0.19999996779E+02 0.  0.
         12    1    1    2    0    0  0.37998920330E+02 -0.12910227679E+02 -0.16523662132E+02  0.43400729662E+02  0.00000000000E+00 0. -1.
         11    1    3    3    0    0 -0.22424723289E+02  0.62223419778E+01  0.25867864858E+01  0.23415320175E+02  0.51100000000E-03 0. -1.
        -11    1    3    3    0    0 -0.71599700454E+01 -0.21617891167E+01  0.32895035986E+01  0.81706387402E+01  0.51100000000E-03 0.  1.
         12    1    3    3    0    0 -0.84142269947E+01  0.88496748179E+01  0.10647372048E+02  0.16201311423E+02  0.00000000000E+00 0. -1.
</event>
<event>
 7    1  0.2653124E-010  0.4778727E+02  0.7816164E-02  0.1312668E+00
        -11   -1    0    0    0    0  0.00000000000E+00  0.00000000000E+00  0.45593999997E+02  0.45594000000E+02  0.51100000000E-03 0.  1.
         11   -1    0    0    0    0 -0.00000000000E+00 -0.00000000000E+00 -0.45593999997E+02  0.45594000000E+02  0.51100000000E-03 0. -1.
    9900012    2    1    2    0    0 -0.16853495683E+02  0.19549657441E+02  0.34891171925E+02  0.47787270731E+02  0.19999998569E+02 0.  0.
         12    1    1    2    0    0  0.16853495683E+02 -0.19549657441E+02 -0.34891171925E+02  0.43400729269E+02  0.00000000000E+00 0. -1.
         11    1    3    3    0    0  0.54791721806E+00  0.27447962633E+00  0.61129719835E+01  0.61436128682E+01  0.51100000000E-03 0. -1.
        -11    1    3    3    0    0 -0.14382566862E+02  0.48355269429E+01  0.12351211104E+02  0.19565095613E+02  0.51100000000E-03 0.  1.
        -12    1    3    3    0    0 -0.30188460386E+01  0.14439650872E+02  0.16426988837E+02  0.22078562249E+02  0.00000000000E+00 0.  1.
</event>
<event>
 7    1  0.2653124E-010  0.4778727E+02  0.7816164E-02  0.1312668E+00
        -11   -1    0    0    0    0  0.00000000000E+00  0.00000000000E+00  0.45593999997E+02  0.45594000000E+02  0.51100000000E-03 0. -1.
         11   -1    0    0    0    0 -0.00000000000E+00 -0.00000000000E+00 -0.45593999997E+02  0.45594000000E+02  0.51100000000E-03 0.  1.
    9900012    2    1    2    0    0 -0.28501781567E+02 -0.32687738463E+02 -0.16683992487E+01  0.47787270117E+02  0.19999995772E+02 0.  0.
         12    1    1    2    0    0  0.28501781567E+02  0.32687738463E+02  0.16683992487E+01  0.43400729883E+02  0.00000000000E+00 0. -1.
         11    1    3    3    0    0 -0.72895517304E+01 -0.45820280531E+01 -0.13338243148E+01  0.87127282222E+01  0.51100000000E-03 0. -1.
        -11    1    3    3    0    0 -0.11471271971E+02 -0.10522071118E+02 -0.80729031427E+01  0.17534988641E+02  0.51100000000E-03 0.  1.
         12    1    3    3    0    0 -0.97409578654E+01 -0.17583639292E+02  0.77383282087E+01  0.21539553254E+02  0.00000000000E+00 0. -1.
</event>
<event>
 7    1  0.2653124E-010  0.4778727E+02  0.7816164E-02  0.1312668E+00
        -11   -1    0    0    0    0  0.00000000000E+00  0.00000000000E+00  0.45593999997E+02  0.45594000000E+02  0.51100000000E-03 0.  1.
         11   -1    0    0    0    0 -0.00000000000E+00 -0.00000000000E+00 -0.45593999997E+02  0.45594000000E+02  0.51100000000E-03 0. -1.
    9900012    2    1    2    0    0  0.31875076008E+02 -0.21924986009E+01  0.29373388489E+02  0.47787268762E+02  0.19999989595E+02 0.  0.
         12    1    1    2    0    0 -0.31875076008E+02  0.21924986009E+01 -0.29373388489E+02  0.43400731238E+02  0.00000000000E+00 0. -1.
         11    1    3    3    0    0  0.13371870385E+02  0.76602426383E+00  0.15541978331E+02  0.20516988118E+02  0.51100000000E-03 0.  1.
        -11    1    3    3    0    0  0.19780665532E+01  0.46037845598E+01  0.49478267856E+01  0.70419152028E+01  0.51100000000E-03 0. -1.
         12    1    3    3    0    0  0.16525139071E+02 -0.75623074245E+01  0.88835833721E+01  0.20228365441E+02  0.00000000000E+00 0. -1.
</event>
<event>
 7    1  0.2653124E-010  0.4778727E+02  0.7816164E-02  0.1312668E+00
        -11   -1    0    0    0    0  0.00000000000E+00  0.00000000000E+00  0.45593999997E+02  0.45594000000E+02  0.51100000000E-03 0. -1.
         11   -1    0    0    0    0 -0.00000000000E+00 -0.00000000000E+00 -0.45593999997E+02  0.45594000000E+02  0.51100000000E-03 0.  1.
    9900012    2    1    2    0    0 -0.31149994366E+02 -0.28063938455E+02  0.11212326428E+02  0.47787273572E+02  0.20000011524E+02 0.  0.
         12    1    1    2    0    0  0.31149994366E+02  0.28063938455E+02 -0.11212326428E+02  0.43400726428E+02  0.00000000000E+00 0. -1.
         11    1    3    3    0    0 -0.35169506254E+01 -0.65342481314E+01  0.44400723179E+01  0.86475188807E+01  0.51100000000E-03 0. -1.
        -11    1    3    3    0    0 -0.11092003020E+02 -0.17472044681E+02 -0.30149880757E+00  0.20697723984E+02  0.51100000000E-03 0.  1.
         12    1    3    3    0    0 -0.16541040720E+02 -0.40576456426E+01  0.70737529173E+01  0.18442030707E+02  0.00000000000E+00 0. -1.
</event>
<event>
 7    1  0.2653124E-010  0.4778727E+02  0.7816164E-02  0.1312668E+00
        -11   -1    0    0    0    0  0.00000000000E+00  0.00000000000E+00  0.45593999997E+02  0.45594000000E+02  0.51100000000E-03 0.  1.
         11   -1    0    0    0    0 -0.00000000000E+00 -0.00000000000E+00 -0.45593999997E+02  0.45594000000E+02  0.51100000000E-03 0. -1.
    9900012    2    1    2    0    0 -0.22459055784E+02 -0.41819246075E+01  0.36901566946E+02  0.47787270476E+02  0.19999997406E+02 0.  0.
         12    1    1    2    0    0  0.22459055784E+02  0.41819246075E+01 -0.36901566946E+02  0.43400729524E+02  0.00000000000E+00 0. -1.
         11    1    3    3    0    0 -0.57614268950E+01 -0.26616506425E+01  0.23790256770E+02  0.24622240789E+02  0.51100000000E-03 0. -1.
        -11    1    3    3    0    0 -0.77272914540E+01 -0.19262387303E+01  0.11582702405E+02  0.14056330394E+02  0.51100000000E-03 0.  1.
        -12    1    3    3    0    0 -0.89703374355E+01  0.40596476522E+00  0.15286077709E+01  0.91086992932E+01  0.00000000000E+00 0.  1.
</event>
<event>
 7    1  0.2653124E-010  0.4778727E+02  0.7816164E-02  0.1312668E+00
        -11   -1    0    0    0    0  0.00000000000E+00  0.00000000000E+00  0.45593999997E+02  0.45594000000E+02  0.51100000000E-03 0. -1.
         11   -1    0    0    0    0 -0.00000000000E+00 -0.00000000000E+00 -0.45593999997E+02  0.45594000000E+02  0.51100000000E-03 0.  1.
    9900012    2    1    2    0    0 -0.35559340658E+02 -0.50427331226E-01 -0.24882807529E+02  0.47787270035E+02  0.19999995399E+02 0.  0.
         12    1    1    2    0    0  0.35559340658E+02  0.50427331226E-01  0.24882807529E+02  0.43400729965E+02  0.00000000000E+00 0. -1.
         11    1    3    3    0    0 -0.81753235590E+01 -0.21139376026E+01 -0.52954199116E+01  0.99672523688E+01  0.51100000000E-03 0. -1.
        -11    1    3    3    0    0 -0.26530606179E+02  0.66791580513E+01 -0.14756848399E+02  0.31084542645E+02  0.51100000000E-03 0.  1.
         12    1    3    3    0    0 -0.85341091974E+00 -0.46156477799E+01 -0.48305392181E+01  0.67354750213E+01  0.00000000000E+00 0. -1.
</event>
<event>
 7    1  0.2653124E-010  0.4778727E+02  0.7816164E-02  0.1312668E+00
        -11   -1    0    0    0    0  0.00000000000E+00  0.00000000000E+00  0.45593999997E+02  0.45594000000E+02  0.51100000000E-03 0.  1.
         11   -1    0    0    0    0 -0.00000000000E+00 -0.00000000000E+00 -0.45593999997E+02  0.45594000000E+02  0.51100000000E-03 0. -1.
    9900012    2    1    2    0    0 -0.67128787494E+00 -0.38852116848E+02  0.19330952025E+02  0.47787270545E+02  0.19999997725E+02 0.  0.
         12    1    1    2    0    0  0.67128787494E+00  0.38852116848E+02 -0.19330952025E+02  0.43400729455E+02  0.00000000000E+00 0. -1.
         11    1    3    3    0    0  0.73190787463E+00 -0.22709622390E+01 -0.12790724375E+01  0.27072098532E+01  0.51100000000E-03 0. -1.
        -11    1    3    3    0    0  0.98431590234E+00 -0.12418499218E+02  0.16145370402E+02  0.20392669916E+02  0.51100000000E-03 0.  1.
        -12    1    3    3    0    0 -0.23875116519E+01 -0.24162655392E+02  0.44646540604E+01  0.24687390776E+02  0.00000000000E+00 0.  1.
</event>
<event>
 7    1  0.2653124E-010  0.4778727E+02  0.7816164E-02  0.1312668E+00
        -11   -1    0    0    0    0  0.00000000000E+00  0.00000000000E+00  0.45593999997E+02  0.45594000000E+02  0.51100000000E-03 0.  1.
         11   -1    0    0    0    0 -0.00000000000E+00 -0.00000000000E+00 -0.45593999997E+02  0.45594000000E+02  0.51100000000E-03 0. -1.
    9900012    2    1    2    0    0  0.11123520071E+02 -0.21814257707E+02  0.35833346479E+02  0.47787271228E+02  0.20000000839E+02 0.  0.
         12    1    1    2    0    0 -0.11123520071E+02  0.21814257707E+02 -0.35833346479E+02  0.43400728772E+02  0.00000000000E+00 0. -1.
         11    1    3    3    0    0  0.35726812450E+01  0.17604541858E+01  0.42599765914E+00  0.40055866593E+01  0.51100000000E-03 0. -1.
        -11    1    3    3    0    0  0.40215584427E+01 -0.42800556567E+01  0.57089949710E+01  0.81905086883E+01  0.51100000000E-03 0.  1.
         12    1    3    3    0    0  0.35292803835E+01 -0.19294656236E+02  0.29698353848E+02  0.35591175881E+02  0.00000000000E+00 0. -1.
</event>
<event>
 7    1  0.2653124E-010  0.4778727E+02  0.7816164E-02  0.1312668E+00
        -11   -1    0    0    0    0  0.00000000000E+00  0.00000000000E+00  0.45593999997E+02  0.45594000000E+02  0.51100000000E-03 0.  1.
         11   -1    0    0    0    0 -0.00000000000E+00 -0.00000000000E+00 -0.45593999997E+02  0.45594000000E+02  0.51100000000E-03 0. -1.
    9900012    2    1    2    0    0 -0.43343824908E+02  0.18752825773E+01  0.11915900808E+01  0.47787265797E+02  0.19999976075E+02 0.  0.
         12    1    1    2    0    0  0.43343824908E+02 -0.18752825773E+01 -0.11915900808E+01  0.43400734203E+02  0.00000000000E+00 0. -1.
         11    1    3    3    0    0 -0.16462514453E+02  0.11492764981E+01 -0.11537869831E+00  0.16502985520E+02  0.51100000000E-03 0. -1.
        -11    1    3    3    0    0 -0.91637555114E+01  0.24142609529E+01 -0.68632676010E+01  0.11700748414E+02  0.51100000000E-03 0.  1.
        -12    1    3    3    0    0 -0.17717554944E+02 -0.16882548736E+01  0.81702363802E+01  0.19583531863E+02  0.00000000000E+00 0.  1.
</event>
<event>
 7    1  0.2653124E-010  0.4778726E+02  0.7816164E-02  0.1312668E+00
        -11   -1    0    0    0    0  0.00000000000E+00  0.00000000000E+00  0.45593999997E+02  0.45594000000E+02  0.51100000000E-03 0.  1.
         11   -1    0    0    0    0 -0.00000000000E+00 -0.00000000000E+00 -0.45593999997E+02  0.45594000000E+02  0.51100000000E-03 0. -1.
    9900012    2    1    2    0    0  0.36891808629E+02  0.22796453714E+02 -0.17146986116E+01  0.47787262251E+02  0.19999959907E+02 0.  0.
         12    1    1    2    0    0 -0.36891808629E+02 -0.22796453714E+02  0.17146986116E+01  0.43400737749E+02  0.00000000000E+00 0. -1.
         11    1    3    3    0    0  0.53888731754E+01  0.62833187904E+01  0.52238979461E+01  0.97882153192E+01  0.51100000000E-03 0. -1.
        -11    1    3    3    0    0  0.20712369070E+02  0.74012466455E+01  0.57320948068E+00  0.22002482900E+02  0.51100000000E-03 0.  1.
         12    1    3    3    0    0  0.10790566384E+02  0.91118882782E+01 -0.75118060384E+01  0.15996564032E+02  0.00000000000E+00 0. -1.
</event>
<event>
 7    1  0.2653124E-010  0.4778727E+02  0.7816164E-02  0.1312668E+00
        -11   -1    0    0    0    0  0.00000000000E+00  0.00000000000E+00  0.45593999997E+02  0.45594000000E+02  0.51100000000E-03 0.  1.
         11   -1    0    0    0    0 -0.00000000000E+00 -0.00000000000E+00 -0.45593999997E+02  0.45594000000E+02  0.51100000000E-03 0. -1.
    9900012    2    1    2    0    0  0.32949713177E+02  0.26112435887E+02 -0.10774063089E+02  0.47787270261E+02  0.19999996430E+02 0.  0.
         12    1    1    2    0    0 -0.32949713177E+02 -0.26112435887E+02  0.10774063089E+02  0.43400729739E+02  0.00000000000E+00 0. -1.
         11    1    3    3    0    0  0.16607992709E+01  0.33977292543E+01  0.48258988339E+00  0.38125728269E+01  0.51100000000E-03 0. -1.
        -11    1    3    3    0    0  0.33144284037E+02  0.21480117490E+02 -0.12494698239E+02  0.41425312262E+02  0.51100000000E-03 0.  1.
        -12    1    3    3    0    0 -0.18553701308E+01  0.12345891430E+01  0.12380452667E+01  0.25493851723E+01  0.00000000000E+00 0.  1.
</event>
<event>
 7    1  0.2653124E-010  0.4778727E+02  0.7816164E-02  0.1312668E+00
        -11   -1    0    0    0    0  0.00000000000E+00  0.00000000000E+00  0.45593999997E+02  0.45594000000E+02  0.51100000000E-03 0.  1.
         11   -1    0    0    0    0 -0.00000000000E+00 -0.00000000000E+00 -0.45593999997E+02  0.45594000000E+02  0.51100000000E-03 0. -1.
    9900012    2    1    2    0    0  0.37117197713E+01 -0.30641953125E+02  0.30510937819E+02  0.47787268652E+02  0.19999989090E+02 0.  0.
         12    1    1    2    0    0 -0.37117197713E+01  0.30641953125E+02 -0.30510937819E+02  0.43400731348E+02  0.00000000000E+00 0. -1.
         11    1    3    3    0    0 -0.77716988669E+00 -0.31976890568E+01 -0.36868813255E+00  0.33113652074E+01  0.51100000000E-03 0. -1.
        -11    1    3    3    0    0  0.59459083941E+01 -0.10145773921E+02  0.38918835256E+01  0.12386981583E+02  0.51100000000E-03 0.  1.
         12    1    3    3    0    0 -0.14570187362E+01 -0.17298490147E+02  0.26987742426E+02  0.32088921861E+02  0.00000000000E+00 0. -1.
</event>
<event>
 7    1  0.2653124E-010  0.4778727E+02  0.7816164E-02  0.1312668E+00
        -11   -1    0    0    0    0  0.00000000000E+00  0.00000000000E+00  0.45593999997E+02  0.45594000000E+02  0.51100000000E-03 0.  1.
         11   -1    0    0    0    0 -0.00000000000E+00 -0.00000000000E+00 -0.45593999997E+02  0.45594000000E+02  0.51100000000E-03 0. -1.
    9900012    2    1    2    0    0 -0.20586223795E+02  0.37916039934E+02 -0.47121829491E+01  0.47787270022E+02  0.19999995340E+02 0.  0.
         12    1    1    2    0    0  0.20586223795E+02 -0.37916039934E+02  0.47121829491E+01  0.43400729978E+02  0.00000000000E+00 0. -1.
         11    1    3    3    0    0 -0.80016788928E+01  0.82889432355E+01 -0.10243881845E+01  0.11566452199E+02  0.51100000000E-03 0. -1.
        -11    1    3    3    0    0 -0.30280071743E+01  0.40891738359E+01 -0.71061009459E+01  0.87399565802E+01  0.51100000000E-03 0.  1.
        -12    1    3    3    0    0 -0.95565377280E+01  0.25537922863E+02  0.34183061813E+01  0.27480861243E+02  0.00000000000E+00 0.  1.
</event>
<event>
 7    1  0.2653124E-010  0.4778727E+02  0.7816164E-02  0.1312668E+00
        -11   -1    0    0    0    0  0.00000000000E+00  0.00000000000E+00  0.45593999997E+02  0.45594000000E+02  0.51100000000E-03 0. -1.
         11   -1    0    0    0    0 -0.00000000000E+00 -0.00000000000E+00 -0.45593999997E+02  0.45594000000E+02  0.51100000000E-03 0.  1.
    9900012    2    1    2    0    0  0.86398227126E+01  0.33951587064E+02 -0.25617700874E+02  0.47787269606E+02  0.19999993441E+02 0.  0.
         12    1    1    2    0    0 -0.86398227126E+01 -0.33951587064E+02  0.25617700874E+02  0.43400730394E+02  0.00000000000E+00 0. -1.
         11    1    3    3    0    0  0.77801454192E+01  0.20113950433E+02 -0.13038815377E+02  0.25201435901E+02  0.51100000000E-03 0.  1.
        -11    1    3    3    0    0  0.54649106884E+01  0.70163307443E+01 -0.18842817982E+01  0.90909110711E+01  0.51100000000E-03 0. -1.
         12    1    3    3    0    0 -0.46052333951E+01  0.68213058866E+01 -0.10694603699E+02  0.13494922634E+02  0.00000000000E+00 0. -1.
</event>
<event>
 7    1  0.2653124E-010  0.4778727E+02  0.7816164E-02  0.1312668E+00
        -11   -1    0    0    0    0  0.00000000000E+00  0.00000000000E+00  0.45593999997E+02  0.45594000000E+02  0.51100000000E-03 0.  1.
         11   -1    0    0    0    0 -0.00000000000E+00 -0.00000000000E+00 -0.45593999997E+02  0.45594000000E+02  0.51100000000E-03 0. -1.
    9900012    2    1    2    0    0 -0.38379208995E+02  0.11814921298E+02  0.16464132615E+02  0.47787266007E+02  0.19999977034E+02 0.  0.
         12    1    1    2    0    0  0.38379208995E+02 -0.11814921298E+02 -0.16464132615E+02  0.43400733993E+02  0.00000000000E+00 0. -1.
         11    1    3    3    0    0 -0.96670133735E+01  0.12447936700E+02  0.78372188332E+01  0.17601825898E+02  0.51100000000E-03 0. -1.
        -11    1    3    3    0    0 -0.21055855282E+00  0.33281758829E+00  0.23380831244E+00  0.45800550142E+00  0.51100000000E-03 0.  1.
        -12    1    3    3    0    0 -0.28501637068E+02 -0.96583299067E+00  0.83931054692E+01  0.29727434608E+02  0.00000000000E+00 0.  1.
</event>
<event>
 7    1  0.2653124E-010  0.4778727E+02  0.7816164E-02  0.1312668E+00
        -11   -1    0    0    0    0  0.00000000000E+00  0.00000000000E+00  0.45593999997E+02  0.45594000000E+02  0.51100000000E-03 0. -1.
         11   -1    0    0    0    0 -0.00000000000E+00 -0.00000000000E+00 -0.45593999997E+02  0.45594000000E+02  0.51100000000E-03 0.  1.
    9900012    2    1    2    0    0 -0.58382471208E+01  0.36082726921E+02 -0.23400319925E+02  0.47787270927E+02  0.19999999465E+02 0.  0.
         12    1    1    2    0    0  0.58382471208E+01 -0.36082726921E+02  0.23400319925E+02  0.43400729073E+02  0.00000000000E+00 0. -1.
         11    1    3    3    0    0  0.27669450598E+01  0.16027623896E+01  0.64098807581E+00  0.32612418211E+01  0.51100000000E-03 0.  1.
        -11    1    3    3    0    0  0.19371948693E+01  0.14632652074E+01 -0.15380693053E+00  0.24325965268E+01  0.51100000000E-03 0. -1.
        -12    1    3    3    0    0 -0.10542387050E+02  0.33016699323E+02 -0.23887501070E+02  0.42093432579E+02  0.00000000000E+00 0.  1.
</event>
<event>
 7    1  0.2653124E-010  0.4778727E+02  0.7816164E-02  0.1312668E+00
        -11   -1    0    0    0    0  0.00000000000E+00  0.00000000000E+00  0.45593999997E+02  0.45594000000E+02  0.51100000000E-03 0.  1.
         11   -1    0    0    0    0 -0.00000000000E+00 -0.00000000000E+00 -0.45593999997E+02  0.45594000000E+02  0.51100000000E-03 0. -1.
    9900012    2    1    2    0    0  0.40449835779E+02  0.85699215034E+01 -0.13190550863E+02  0.47787269578E+02  0.19999993314E+02 0.  0.
         12    1    1    2    0    0 -0.40449835779E+02 -0.85699215034E+01  0.13190550863E+02  0.43400730422E+02  0.00000000000E+00 0. -1.
         11    1    3    3    0    0  0.85712171205E+01  0.59123498627E+01  0.25722554895E+01  0.10725583545E+02  0.51100000000E-03 0. -1.
        -11    1    3    3    0    0  0.15966992824E+02  0.95144131938E+00 -0.23215162741E+01  0.16162906251E+02  0.51100000000E-03 0.  1.
        -12    1    3    3    0    0  0.15911625834E+02  0.17061303214E+01 -0.13441290078E+02  0.20898779781E+02  0.00000000000E+00 0.  1.
</event>
<event>
 7    1  0.2653124E-010  0.4778727E+02  0.7816164E-02  0.1312668E+00
        -11   -1    0    0    0    0  0.00000000000E+00  0.00000000000E+00  0.45593999997E+02  0.45594000000E+02  0.51100000000E-03 0.  1.
         11   -1    0    0    0    0 -0.00000000000E+00 -0.00000000000E+00 -0.45593999997E+02  0.45594000000E+02  0.51100000000E-03 0. -1.
    9900012    2    1    2    0    0  0.19370971071E+02  0.33435082696E+02  0.19760672569E+02  0.47787268952E+02  0.19999990460E+02 0.  0.
         12    1    1    2    0    0 -0.19370971071E+02 -0.33435082696E+02 -0.19760672569E+02  0.43400731048E+02  0.00000000000E+00 0. -1.
         11    1    3    3    0    0 -0.23946163550E+01  0.19451088866E+01  0.16075273712E+01  0.34787613570E+01  0.51100000000E-03 0. -1.
        -11    1    3    3    0    0  0.36806334625E+01  0.16104494753E+02  0.93699809637E+01  0.18992060380E+02  0.51100000000E-03 0.  1.
        -12    1    3    3    0    0  0.18084953963E+02  0.15385479056E+02  0.87831642340E+01  0.25316447215E+02  0.00000000000E+00 0.  1.
</event>
<event>
 7    1  0.2653124E-010  0.4778728E+02  0.7816164E-02  0.1312668E+00
        -11   -1    0    0    0    0  0.00000000000E+00  0.00000000000E+00  0.45593999997E+02  0.45594000000E+02  0.51100000000E-03 0.  1.
         11   -1    0    0    0    0 -0.00000000000E+00 -0.00000000000E+00 -0.45593999997E+02  0.45594000000E+02  0.51100000000E-03 0. -1.
    9900012    2    1    2    0    0  0.11812070066E+02 -0.33888653928E+02  0.24406085402E+02  0.47787275709E+02  0.20000021269E+02 0.  0.
         12    1    1    2    0    0 -0.11812070066E+02  0.33888653928E+02 -0.24406085402E+02  0.43400724291E+02  0.00000000000E+00 0. -1.
         11    1    3    3    0    0  0.24474886977E+01 -0.73975338069E+01  0.46667325363E+01  0.90825161809E+01  0.51100000000E-03 0. -1.
        -11    1    3    3    0    0 -0.49145404797E+01 -0.10009557345E+02  0.93375350039E+01  0.14544191507E+02  0.51100000000E-03 0.  1.
         12    1    3    3    0    0  0.14279121848E+02 -0.16481562776E+02  0.10401817862E+02  0.24160568021E+02  0.00000000000E+00 0. -1.
</event>
<event>
 7    1  0.2653124E-010  0.4778725E+02  0.7816164E-02  0.1312668E+00
        -11   -1    0    0    0    0  0.00000000000E+00  0.00000000000E+00  0.45593999997E+02  0.45594000000E+02  0.51100000000E-03 0.  1.
         11   -1    0    0    0    0 -0.00000000000E+00 -0.00000000000E+00 -0.45593999997E+02  0.45594000000E+02  0.51100000000E-03 0. -1.
    9900012    2    1    2    0    0  0.40044058962E+02 -0.19952710015E+01  0.16616765981E+02  0.47787254889E+02  0.19999926342E+02 0.  0.
         12    1    1    2    0    0 -0.40044058962E+02  0.19952710015E+01 -0.16616765981E+02  0.43400745111E+02  0.00000000000E+00 0. -1.
         11    1    3    3    0    0  0.51842383906E+01  0.18806581540E+00  0.95625281798E+00  0.52750465547E+01  0.51100000000E-03 0.  1.
        -11    1    3    3    0    0  0.89985467996E+01 -0.87766717607E+01  0.73431770869E+01  0.14557680505E+02  0.51100000000E-03 0. -1.
         12    1    3    3    0    0  0.25861273771E+02  0.65933349438E+01  0.83173360765E+01  0.27954527829E+02  0.00000000000E+00 0. -1.
</event>
<event>
 7    1  0.2653124E-010  0.4778727E+02  0.7816164E-02  0.1312668E+00
        -11   -1    0    0    0    0  0.00000000000E+00  0.00000000000E+00  0.45593999997E+02  0.45594000000E+02  0.51100000000E-03 0.  1.
         11   -1    0    0    0    0 -0.00000000000E+00 -0.00000000000E+00 -0.45593999997E+02  0.45594000000E+02  0.51100000000E-03 0. -1.
    9900012    2    1    2    0    0 -0.15173684458E+01 -0.38579095582E+02  0.19823578053E+02  0.47787271092E+02  0.20000000216E+02 0.  0.
         12    1    1    2    0    0  0.15173684458E+01  0.38579095582E+02 -0.19823578053E+02  0.43400728908E+02  0.00000000000E+00 0. -1.
         11    1    3    3    0    0  0.38044052780E+01 -0.25636418047E+01 -0.37835996575E+00  0.46031418995E+01  0.51100000000E-03 0. -1.
        -11    1    3    3    0    0  0.26784522912E+01 -0.27416341938E+01  0.30843992760E+01  0.49197747798E+01  0.51100000000E-03 0.  1.
        -12    1    3    3    0    0 -0.80002260150E+01 -0.33273819584E+02  0.17117538742E+02  0.38264354412E+02  0.00000000000E+00 0.  1.
</event>
<event>
 7    1  0.2653124E-010  0.4778729E+02  0.7816164E-02  0.1312668E+00
        -11   -1    0    0    0    0  0.00000000000E+00  0.00000000000E+00  0.45593999997E+02  0.45594000000E+02  0.51100000000E-03 0. -1.
         11   -1    0    0    0    0 -0.00000000000E+00 -0.00000000000E+00 -0.45593999997E+02  0.45594000000E+02  0.51100000000E-03 0.  1.
    9900012    2    1    2    0    0  0.19141533741E+02 -0.25891694742E+02 -0.29100567754E+02  0.47787294773E+02  0.20000108188E+02 0.  0.
         12    1    1    2    0    0 -0.19141533741E+02  0.25891694742E+02  0.29100567754E+02  0.43400705227E+02  0.00000000000E+00 0. -1.
         11    1    3    3    0    0  0.41280156007E+01 -0.65946100327E+01 -0.64819143682E+00  0.78070190651E+01  0.51100000000E-03 0. -1.
        -11    1    3    3    0    0  0.16338499019E+01 -0.10135786929E+02 -0.48758309509E+01  0.11365622283E+02  0.51100000000E-03 0.  1.
         12    1    3    3    0    0  0.13379668238E+02 -0.91612977809E+01 -0.23576545367E+02  0.28614653425E+02  0.00000000000E+00 0. -1.
</event>
<event>
 7    1  0.2653124E-010  0.4778727E+02  0.7816164E-02  0.1312668E+00
        -11   -1    0    0    0    0  0.00000000000E+00  0.00000000000E+00  0.45593999997E+02  0.45594000000E+02  0.51100000000E-03 0.  1.
         11   -1    0    0    0    0 -0.00000000000E+00 -0.00000000000E+00 -0.45593999997E+02  0.45594000000E+02  0.51100000000E-03 0. -1.
    9900012    2    1    2    0    0 -0.16798074484E+02  0.15920450767E+02  0.36714943572E+02  0.47787272581E+02  0.20000007004E+02 0.  0.
         12    1    1    2    0    0  0.16798074484E+02 -0.15920450767E+02 -0.36714943572E+02  0.43400727419E+02  0.00000000000E+00 0. -1.
         11    1    3    3    0    0 -0.95283544460E+01  0.14214055583E+02  0.17133242567E+02  0.24215220744E+02  0.51100000000E-03 0.  1.
        -11    1    3    3    0    0  0.44409322379E+00  0.39935489323E+01  0.11441935035E+02  0.12126975281E+02  0.51100000000E-03 0. -1.
         12    1    3    3    0    0 -0.77138132618E+01 -0.22871537478E+01  0.81397659697E+01  0.11445076555E+02  0.00000000000E+00 0. -1.
</event>
<event>
 7    1  0.2653124E-010  0.4778727E+02  0.7816164E-02  0.1312668E+00
        -11   -1    0    0    0    0  0.00000000000E+00  0.00000000000E+00  0.45593999997E+02  0.45594000000E+02  0.51100000000E-03 0. -1.
         11   -1    0    0    0    0 -0.00000000000E+00 -0.00000000000E+00 -0.45593999997E+02  0.45594000000E+02  0.51100000000E-03 0.  1.
    9900012    2    1    2    0    0  0.41664769619E+02  0.98903698053E+01 -0.70605188446E+01  0.47787269953E+02  0.19999995022E+02 0.  0.
         12    1    1    2    0    0 -0.41664769619E+02 -0.98903698053E+01  0.70605188446E+01  0.43400730047E+02  0.00000000000E+00 0. -1.
         11    1    3    3    0    0  0.14295598642E+02  0.62243485230E+01  0.24900772572E+01  0.15789462945E+02  0.51100000000E-03 0. -1.
        -11    1    3    3    0    0  0.17021489085E+02  0.18795413834E+01  0.94518198296E+00  0.17151009759E+02  0.51100000000E-03 0.  1.
         12    1    3    3    0    0  0.10347681891E+02  0.17864798989E+01 -0.10495778085E+02  0.14846797249E+02  0.00000000000E+00 0. -1.
</event>
<event>
 7    1  0.2653124E-010  0.4778727E+02  0.7816164E-02  0.1312668E+00
        -11   -1    0    0    0    0  0.00000000000E+00  0.00000000000E+00  0.45593999997E+02  0.45594000000E+02  0.51100000000E-03 0.  1.
         11   -1    0    0    0    0 -0.00000000000E+00 -0.00000000000E+00 -0.45593999997E+02  0.45594000000E+02  0.51100000000E-03 0. -1.
    9900012    2    1    2    0    0  0.35310056758E+02  0.23438096371E+02  0.93530264659E+01  0.47787267589E+02  0.19999984243E+02 0.  0.
         12    1    1    2    0    0 -0.35310056758E+02 -0.23438096371E+02 -0.93530264659E+01  0.43400732411E+02  0.00000000000E+00 0. -1.
         11    1    3    3    0    0  0.15849577079E+02  0.16003909570E+02 -0.20181468973E+01  0.22614312553E+02  0.51100000000E-03 0. -1.
        -11    1    3    3    0    0  0.89228190119E+01  0.78863795075E+01  0.62155019703E+01  0.13432950006E+02  0.51100000000E-03 0.  1.
         12    1    3    3    0    0  0.10537660667E+02 -0.45219270568E+00  0.51556713929E+01  0.11740005029E+02  0.00000000000E+00 0. -1.
</event>
<event>
 7    1  0.2653124E-010  0.4778727E+02  0.7816164E-02  0.1312668E+00
        -11   -1    0    0    0    0  0.00000000000E+00  0.00000000000E+00  0.45593999997E+02  0.45594000000E+02  0.51100000000E-03 0. -1.
         11   -1    0    0    0    0 -0.00000000000E+00 -0.00000000000E+00 -0.45593999997E+02  0.45594000000E+02  0.51100000000E-03 0.  1.
    9900012    2    1    2    0    0  0.11572479180E+02  0.33579081627E+02 -0.24942860195E+02  0.47787271066E+02  0.20000000098E+02 0.  0.
         12    1    1    2    0    0 -0.11572479180E+02 -0.33579081627E+02  0.24942860195E+02  0.43400728934E+02  0.00000000000E+00 0. -1.
         11    1    3    3    0    0  0.18491350371E+01  0.20409595739E+00 -0.65746169492E+00  0.19731223193E+01  0.51100000000E-03 0. -1.
        -11    1    3    3    0    0  0.67068662026E+01  0.34585705536E+02 -0.23828625431E+02  0.42531828927E+02  0.51100000000E-03 0.  1.
        -12    1    3    3    0    0  0.30164779406E+01 -0.12107198667E+01 -0.45677306989E+00  0.32823198197E+01  0.00000000000E+00 0.  1.
</event>
<event>
 7    1  0.2653124E-010  0.4778728E+02  0.7816164E-02  0.1312668E+00
        -11   -1    0    0    0    0  0.00000000000E+00  0.00000000000E+00  0.45593999997E+02  0.45594000000E+02  0.51100000000E-03 0.  1.
         11   -1    0    0    0    0 -0.00000000000E+00 -0.00000000000E+00 -0.45593999997E+02  0.45594000000E+02  0.51100000000E-03 0. -1.
    9900012    2    1    2    0    0  0.15424189521E+02  0.17166612679E+02  0.36756281907E+02  0.47787280272E+02  0.20000042072E+02 0.  0.
         12    1    1    2    0    0 -0.15424189521E+02 -0.17166612679E+02 -0.36756281907E+02  0.43400719728E+02  0.00000000000E+00 0. -1.
         11    1    3    3    0    0  0.76045216169E+01  0.50703332913E+01  0.59600918520E+01  0.10911449210E+02  0.51100000000E-03 0. -1.
        -11    1    3    3    0    0  0.11714342340E+02  0.64783254451E+01  0.21710838856E+02  0.25505980497E+02  0.51100000000E-03 0.  1.
         12    1    3    3    0    0 -0.38946744357E+01  0.56179539427E+01  0.90853511992E+01  0.11369850565E+02  0.00000000000E+00 0. -1.
</event>
<event>
 7    1  0.2653124E-010  0.4778727E+02  0.7816164E-02  0.1312668E+00
        -11   -1    0    0    0    0  0.00000000000E+00  0.00000000000E+00  0.45593999997E+02  0.45594000000E+02  0.51100000000E-03 0.  1.
         11   -1    0    0    0    0 -0.00000000000E+00 -0.00000000000E+00 -0.45593999997E+02  0.45594000000E+02  0.51100000000E-03 0. -1.
    9900012    2    1    2    0    0 -0.66358764298E+01  0.42812869639E+02  0.25781407074E+01  0.47787268760E+02  0.19999989583E+02 0.  0.
         12    1    1    2    0    0  0.66358764298E+01 -0.42812869639E+02 -0.25781407074E+01  0.43400731240E+02  0.00000000000E+00 0. -1.
         11    1    3    3    0    0 -0.51384483953E+01  0.24963160128E+02  0.47677538333E+01  0.25928642316E+02  0.51100000000E-03 0.  1.
        -11    1    3    3    0    0  0.16076195298E+01  0.12589307415E+02 -0.66184350384E+01  0.14313587403E+02  0.51100000000E-03 0. -1.
         12    1    3    3    0    0 -0.31050475643E+01  0.52604020963E+01  0.44288219124E+01  0.75450390405E+01  0.00000000000E+00 0. -1.
</event>
<event>
 7    1  0.2653124E-010  0.4778727E+02  0.7816164E-02  0.1312668E+00
        -11   -1    0    0    0    0  0.00000000000E+00  0.00000000000E+00  0.45593999997E+02  0.45594000000E+02  0.51100000000E-03 0.  1.
         11   -1    0    0    0    0 -0.00000000000E+00 -0.00000000000E+00 -0.45593999997E+02  0.45594000000E+02  0.51100000000E-03 0. -1.
    9900012    2    1    2    0    0  0.10071646757E+02  0.36157387160E+02  0.21790562494E+02  0.47787270416E+02  0.19999997135E+02 0.  0.
         12    1    1    2    0    0 -0.10071646757E+02 -0.36157387160E+02 -0.21790562494E+02  0.43400729584E+02  0.00000000000E+00 0. -1.
         11    1    3    3    0    0  0.12037711933E+02  0.30842917320E+02  0.14076350574E+02  0.35976877340E+02  0.51100000000E-03 0. -1.
        -11    1    3    3    0    0 -0.10341011246E+01  0.65766777764E+01  0.39714333456E+01  0.77520538433E+01  0.51100000000E-03 0.  1.
         12    1    3    3    0    0 -0.93196405118E+00 -0.12622079371E+01  0.37427785748E+01  0.40583392329E+01  0.00000000000E+00 0. -1.
</event>
<event>
 7    1  0.2653124E-010  0.4778727E+02  0.7816164E-02  0.1312668E+00
        -11   -1    0    0    0    0  0.00000000000E+00  0.00000000000E+00  0.45593999997E+02  0.45594000000E+02  0.51100000000E-03 0.  1.
         11   -1    0    0    0    0 -0.00000000000E+00 -0.00000000000E+00 -0.45593999997E+02  0.45594000000E+02  0.51100000000E-03 0. -1.
    9900012    2    1    2    0    0 -0.36011014406E+01 -0.36219978223E+02  0.23638285821E+02  0.47787270621E+02  0.19999998070E+02 0.  0.
         12    1    1    2    0    0  0.36011014406E+01  0.36219978223E+02 -0.23638285821E+02  0.43400729379E+02  0.00000000000E+00 0. -1.
         11    1    3    3    0    0  0.95639043262E+00 -0.53781251124E+01  0.13857650557E+01  0.56355352394E+01  0.51100000000E-03 0. -1.
        -11    1    3    3    0    0  0.56358979024E+00 -0.30535268915E+02  0.20252677750E+02  0.36645480451E+02  0.51100000000E-03 0.  1.
         12    1    3    3    0    0 -0.51210816634E+01 -0.30658419510E+00  0.19998430152E+01  0.55062549303E+01  0.00000000000E+00 0. -1.
</event>
<event>
 7    1  0.2653124E-010  0.4778728E+02  0.7816164E-02  0.1312668E+00
        -11   -1    0    0    0    0  0.00000000000E+00  0.00000000000E+00  0.45593999997E+02  0.45594000000E+02  0.51100000000E-03 0.  1.
         11   -1    0    0    0    0 -0.00000000000E+00 -0.00000000000E+00 -0.45593999997E+02  0.45594000000E+02  0.51100000000E-03 0. -1.
    9900012    2    1    2    0    0 -0.98863477407E+01  0.38390882454E+02  0.17664173068E+02  0.47787277225E+02  0.20000028180E+02 0.  0.
         12    1    1    2    0    0  0.98863477407E+01 -0.38390882454E+02 -0.17664173068E+02  0.43400722775E+02  0.00000000000E+00 0. -1.
         11    1    3    3    0    0 -0.48466922049E+00  0.58616019128E+01 -0.13407796699E+01  0.60324929857E+01  0.51100000000E-03 0. -1.
        -11    1    3    3    0    0 -0.49654198783E+01  0.20797802527E+02  0.19861114819E+02  0.29183349133E+02  0.51100000000E-03 0.  1.
        -12    1    3    3    0    0 -0.44362586419E+01  0.11731478013E+02 -0.85616208084E+00  0.12571435106E+02  0.00000000000E+00 0.  1.
</event>
<event>
 7    1  0.2653124E-010  0.4778727E+02  0.7816164E-02  0.1312668E+00
        -11   -1    0    0    0    0  0.00000000000E+00  0.00000000000E+00  0.45593999997E+02  0.45594000000E+02  0.51100000000E-03 0.  1.
         11   -1    0    0    0    0 -0.00000000000E+00 -0.00000000000E+00 -0.45593999997E+02  0.45594000000E+02  0.51100000000E-03 0. -1.
    9900012    2    1    2    0    0  0.32666071758E+02  0.21515002242E+01  0.28494248689E+02  0.47787269526E+02  0.19999993076E+02 0.  0.
         12    1    1    2    0    0 -0.32666071758E+02 -0.21515002242E+01 -0.28494248689E+02  0.43400730474E+02  0.00000000000E+00 0. -1.
         11    1    3    3    0    0  0.84767166835E+01  0.74955998263E+01  0.78028267982E+01  0.13744920836E+02  0.51100000000E-03 0. -1.
        -11    1    3    3    0    0  0.14780959826E+02  0.18890827160E+01  0.13851991167E+02  0.20345099322E+02  0.51100000000E-03 0.  1.
        -12    1    3    3    0    0  0.94083952492E+01 -0.72331823181E+01  0.68394307234E+01  0.13697249367E+02  0.00000000000E+00 0.  1.
</event>
<event>
 7    1  0.2653124E-010  0.4778727E+02  0.7816164E-02  0.1312668E+00
        -11   -1    0    0    0    0  0.00000000000E+00  0.00000000000E+00  0.45593999997E+02  0.45594000000E+02  0.51100000000E-03 0. -1.
         11   -1    0    0    0    0 -0.00000000000E+00 -0.00000000000E+00 -0.45593999997E+02  0.45594000000E+02  0.51100000000E-03 0.  1.
    9900012    2    1    2    0    0  0.40971242156E+02 -0.14093235911E+02  0.25221364856E+01  0.47787272417E+02  0.20000006258E+02 0.  0.
         12    1    1    2    0    0 -0.40971242156E+02  0.14093235911E+02 -0.25221364856E+01  0.43400727583E+02  0.00000000000E+00 0. -1.
         11    1    3    3    0    0  0.23718391857E+01 -0.72676201726E+01 -0.92289617465E+00  0.77003676344E+01  0.51100000000E-03 0. -1.
        -11    1    3    3    0    0  0.71087162881E+00  0.10224524412E+01  0.14253418793E+00  0.12534208084E+01  0.51100000000E-03 0.  1.
        -12    1    3    3    0    0  0.37888531342E+02 -0.78480681797E+01  0.33024984724E+01  0.38833483974E+02  0.00000000000E+00 0.  1.
</event>
<event>
 7    1  0.2653124E-010  0.4778727E+02  0.7816164E-02  0.1312668E+00
        -11   -1    0    0    0    0  0.00000000000E+00  0.00000000000E+00  0.45593999997E+02  0.45594000000E+02  0.51100000000E-03 0.  1.
         11   -1    0    0    0    0 -0.00000000000E+00 -0.00000000000E+00 -0.45593999997E+02  0.45594000000E+02  0.51100000000E-03 0. -1.
    9900012    2    1    2    0    0  0.84276875546E+01 -0.11883412371E+02  0.40882538837E+02  0.47787269719E+02  0.19999993958E+02 0.  0.
         12    1    1    2    0    0 -0.84276875546E+01  0.11883412371E+02 -0.40882538837E+02  0.43400730281E+02  0.00000000000E+00 0. -1.
         11    1    3    3    0    0  0.16970075585E+01 -0.62163356747E+01  0.12261095591E+01  0.65594213759E+01  0.51100000000E-03 0. -1.
        -11    1    3    3    0    0 -0.12558085841E+01 -0.45887088066E+00  0.96719737263E+01  0.97639486739E+01  0.51100000000E-03 0.  1.
         12    1    3    3    0    0  0.79864885802E+01 -0.52082058161E+01  0.29984455552E+02  0.31463899669E+02  0.00000000000E+00 0. -1.
</event>
<event>
 7    1  0.2653124E-010  0.4778727E+02  0.7816164E-02  0.1312668E+00
        -11   -1    0    0    0    0  0.00000000000E+00  0.00000000000E+00  0.45593999997E+02  0.45594000000E+02  0.51100000000E-03 0.  1.
         11   -1    0    0    0    0 -0.00000000000E+00 -0.00000000000E+00 -0.45593999997E+02  0.45594000000E+02  0.51100000000E-03 0. -1.
    9900012    2    1    2    0    0  0.42675293040E+00  0.39507370894E+01  0.43218429112E+02  0.47787273549E+02  0.20000011418E+02 0.  0.
         12    1    1    2    0    0 -0.42675293040E+00 -0.39507370894E+01 -0.43218429112E+02  0.43400726451E+02  0.00000000000E+00 0. -1.
         11    1    3    3    0    0  0.72635897241E-02 -0.46226086319E+00 -0.59979253901E+00  0.75729070795E+00  0.51100000000E-03 0.  1.
        -11    1    3    3    0    0  0.28974288345E+00  0.35402423555E+01  0.36832102407E+00  0.35711241244E+01  0.51100000000E-03 0. -1.
        -12    1    3    3    0    0  0.12974645723E+00  0.87275559708E+00  0.43449900627E+02  0.43458858716E+02  0.00000000000E+00 0.  1.
</event>
<event>
 7    1  0.2653124E-010  0.4778727E+02  0.7816164E-02  0.1312668E+00
        -11   -1    0    0    0    0  0.00000000000E+00  0.00000000000E+00  0.45593999997E+02  0.45594000000E+02  0.51100000000E-03 0.  1.
         11   -1    0    0    0    0 -0.00000000000E+00 -0.00000000000E+00 -0.45593999997E+02  0.45594000000E+02  0.51100000000E-03 0. -1.
    9900012    2    1    2    0    0 -0.26994828827E+01  0.43314703881E+02  0.41576011801E+00  0.47787266866E+02  0.19999980947E+02 0.  0.
         12    1    1    2    0    0  0.26994828827E+01 -0.43314703881E+02 -0.41576011801E+00  0.43400733134E+02  0.00000000000E+00 0. -1.
         11    1    3    3    0    0 -0.21146838680E+01  0.35095169506E+01 -0.50852605646E+01  0.65305797874E+01  0.51100000000E-03 0. -1.
        -11    1    3    3    0    0 -0.73365552472E+00 -0.12595098572E-01 -0.63281334701E+00  0.96894894537E+00  0.51100000000E-03 0.  1.
        -12    1    3    3    0    0  0.14885650998E+00  0.39817782029E+02  0.61338340297E+01  0.40287738133E+02  0.00000000000E+00 0.  1.
</event>
<event>
 7    1  0.2653124E-010  0.4778727E+02  0.7816164E-02  0.1312668E+00
        -11   -1    0    0    0    0  0.00000000000E+00  0.00000000000E+00  0.45593999997E+02  0.45594000000E+02  0.51100000000E-03 0. -1.
         11   -1    0    0    0    0 -0.00000000000E+00 -0.00000000000E+00 -0.45593999997E+02  0.45594000000E+02  0.51100000000E-03 0.  1.
    9900012    2    1    2    0    0  0.88942301106E+01  0.19490001670E+02 -0.37744613351E+02  0.47787270382E+02  0.19999996980E+02 0.  0.
         12    1    1    2    0    0 -0.88942301106E+01 -0.19490001670E+02  0.37744613351E+02  0.43400729618E+02  0.00000000000E+00 0. -1.
         11    1    3    3    0    0  0.19711367687E+01  0.53148056694E+01 -0.66852034945E+01  0.87649578144E+01  0.51100000000E-03 0. -1.
        -11    1    3    3    0    0  0.12488430254E+02  0.85863022287E+01 -0.24280696890E+02  0.28622329009E+02  0.51100000000E-03 0.  1.
         12    1    3    3    0    0 -0.55653369123E+01  0.55888937718E+01 -0.67787129663E+01  0.10399983559E+02  0.00000000000E+00 0. -1.
</event>
<event>
 7    1  0.2653124E-010  0.4778727E+02  0.7816164E-02  0.1312668E+00
        -11   -1    0    0    0    0  0.00000000000E+00  0.00000000000E+00  0.45593999997E+02  0.45594000000E+02  0.51100000000E-03 0. -1.
         11   -1    0    0    0    0 -0.00000000000E+00 -0.00000000000E+00 -0.45593999997E+02  0.45594000000E+02  0.51100000000E-03 0.  1.
    9900012    2    1    2    0    0  0.62740021045E+01 -0.30207093839E+02 -0.30525270467E+02  0.47787265471E+02  0.19999974586E+02 0.  0.
         12    1    1    2    0    0 -0.62740021045E+01  0.30207093839E+02  0.30525270467E+02  0.43400734529E+02  0.00000000000E+00 0. -1.
         11    1    3    3    0    0  0.18535815208E+01 -0.65919956156E+00 -0.61966608193E+01  0.65014547669E+01  0.51100000000E-03 0. -1.
        -11    1    3    3    0    0  0.31621874568E+01 -0.66359840033E+01  0.63500724411E+00  0.73782753855E+01  0.51100000000E-03 0.  1.
        -12    1    3    3    0    0  0.12582331269E+01 -0.22911910274E+02 -0.24963616892E+02  0.33907535318E+02  0.00000000000E+00 0.  1.
</event>
<event>
 7    1  0.2653124E-010  0.4778727E+02  0.7816164E-02  0.1312668E+00
        -11   -1    0    0    0    0  0.00000000000E+00  0.00000000000E+00  0.45593999997E+02  0.45594000000E+02  0.51100000000E-03 0.  1.
         11   -1    0    0    0    0 -0.00000000000E+00 -0.00000000000E+00 -0.45593999997E+02  0.45594000000E+02  0.51100000000E-03 0. -1.
    9900012    2    1    2    0    0 -0.40427084505E+02 -0.15295829077E+02  0.39129859897E+01  0.47787274106E+02  0.20000013960E+02 0.  0.
         12    1    1    2    0    0  0.40427084505E+02  0.15295829077E+02 -0.39129859897E+01  0.43400725894E+02  0.00000000000E+00 0. -1.
         11    1    3    3    0    0 -0.75853984855E+01 -0.63460674513E+01 -0.17739728734E+01  0.10047776983E+02  0.51100000000E-03 0. -1.
        -11    1    3    3    0    0 -0.31696273748E+02 -0.11891510297E+02  0.38111836077E+01  0.34067387740E+02  0.51100000000E-03 0.  1.
         12    1    3    3    0    0 -0.11454122720E+01  0.29417486712E+01  0.18757752554E+01  0.36721093838E+01  0.00000000000E+00 0. -1.
</event>
<event>
 7    1  0.2653124E-010  0.4778727E+02  0.7816164E-02  0.1312668E+00
        -11   -1    0    0    0    0  0.00000000000E+00  0.00000000000E+00  0.45593999997E+02  0.45594000000E+02  0.51100000000E-03 0. -1.
         11   -1    0    0    0    0 -0.00000000000E+00 -0.00000000000E+00 -0.45593999997E+02  0.45594000000E+02  0.51100000000E-03 0.  1.
    9900012    2    1    2    0    0 -0.31217194466E+02 -0.30829785906E+01 -0.29993420233E+02  0.47787271381E+02  0.20000001536E+02 0.  0.
         12    1    1    2    0    0  0.31217194466E+02  0.30829785906E+01  0.29993420233E+02  0.43400728619E+02  0.00000000000E+00 0. -1.
         11    1    3    3    0    0 -0.11066547184E+02 -0.24881103568E+01 -0.15732712976E+02  0.19395293697E+02  0.51100000000E-03 0. -1.
        -11    1    3    3    0    0 -0.19105235919E+02  0.37349649726E+01 -0.13906128679E+02  0.23923637223E+02  0.51100000000E-03 0.  1.
         12    1    3    3    0    0 -0.10454113632E+01 -0.43298332064E+01 -0.35457857777E+00  0.44683404617E+01  0.00000000000E+00 0. -1.
</event>
<event>
 7    1  0.2653124E-010  0.4778727E+02  0.7816164E-02  0.1312668E+00
        -11   -1    0    0    0    0  0.00000000000E+00  0.00000000000E+00  0.45593999997E+02  0.45594000000E+02  0.51100000000E-03 0.  1.
         11   -1    0    0    0    0 -0.00000000000E+00 -0.00000000000E+00 -0.45593999997E+02  0.45594000000E+02  0.51100000000E-03 0. -1.
    9900012    2    1    2    0    0  0.14076521133E+02 -0.12798548689E+02  0.39008616134E+02  0.47787269263E+02  0.19999991880E+02 0.  0.
         12    1    1    2    0    0 -0.14076521133E+02  0.12798548689E+02 -0.39008616134E+02  0.43400730737E+02  0.00000000000E+00 0. -1.
         11    1    3    3    0    0 -0.17857232064E+01 -0.53125804436E+01  0.41115063574E+01  0.69510289259E+01  0.51100000000E-03 0. -1.
        -11    1    3    3    0    0  0.33692757615E+01 -0.31012680906E+01  0.13549963416E+01  0.47755521433E+01  0.51100000000E-03 0.  1.
        -12    1    3    3    0    0  0.12492968578E+02 -0.43847001551E+01  0.33542113435E+02  0.36060688194E+02  0.00000000000E+00 0.  1.
</event>
<event>
 7    1  0.2653124E-010  0.4778727E+02  0.7816164E-02  0.1312668E+00
        -11   -1    0    0    0    0  0.00000000000E+00  0.00000000000E+00  0.45593999997E+02  0.45594000000E+02  0.51100000000E-03 0. -1.
         11   -1    0    0    0    0 -0.00000000000E+00 -0.00000000000E+00 -0.45593999997E+02  0.45594000000E+02  0.51100000000E-03 0.  1.
    9900012    2    1    2    0    0  0.38656771135E+02 -0.12570252947E+02 -0.15207444768E+02  0.47787267402E+02  0.19999983391E+02 0.  0.
         12    1    1    2    0    0 -0.38656771135E+02  0.12570252947E+02  0.15207444768E+02  0.43400732598E+02  0.00000000000E+00 0. -1.
         11    1    3    3    0    0  0.16556090255E+02 -0.67259177415E+01 -0.12010077859E+02  0.21531002402E+02  0.51100000000E-03 0. -1.
        -11    1    3    3    0    0 -0.11294205536E+01 -0.16355367886E+01  0.10823442244E+01  0.22631925802E+01  0.51100000000E-03 0.  1.
        -12    1    3    3    0    0  0.23230101434E+02 -0.42087984164E+01 -0.42797111326E+01  0.23993072419E+02  0.00000000000E+00 0.  1.
</event>
<event>
 7    1  0.2653124E-010  0.4778727E+02  0.7816164E-02  0.1312668E+00
        -11   -1    0    0    0    0  0.00000000000E+00  0.00000000000E+00  0.45593999997E+02  0.45594000000E+02  0.51100000000E-03 0.  1.
         11   -1    0    0    0    0 -0.00000000000E+00 -0.00000000000E+00 -0.45593999997E+02  0.45594000000E+02  0.51100000000E-03 0. -1.
    9900012    2    1    2    0    0  0.28635871753E+02  0.47937437487E+01  0.32258798068E+02  0.47787272091E+02  0.20000004772E+02 0.  0.
         12    1    1    2    0    0 -0.28635871753E+02 -0.47937437487E+01 -0.32258798068E+02  0.43400727909E+02  0.00000000000E+00 0. -1.
         11    1    3    3    0    0  0.82811883032E+01  0.91208542482E+01  0.94483325901E+01  0.15525432391E+02  0.51100000000E-03 0. -1.
        -11    1    3    3    0    0  0.48432549981E+01 -0.21212947264E+01  0.95855208672E+00  0.53736237919E+01  0.51100000000E-03 0.  1.
        -12    1    3    3    0    0  0.15511428452E+02 -0.22058157731E+01  0.21851913392E+02  0.26888215908E+02  0.00000000000E+00 0.  1.
</event>
<event>
 7    1  0.2653124E-010  0.4778727E+02  0.7816164E-02  0.1312668E+00
        -11   -1    0    0    0    0  0.00000000000E+00  0.00000000000E+00  0.45593999997E+02  0.45594000000E+02  0.51100000000E-03 0.  1.
         11   -1    0    0    0    0 -0.00000000000E+00 -0.00000000000E+00 -0.45593999997E+02  0.45594000000E+02  0.51100000000E-03 0. -1.
    9900012    2    1    2    0    0 -0.92505987085E+01 -0.26834442335E+02  0.32832342774E+02  0.47787267242E+02  0.19999982662E+02 0.  0.
         12    1    1    2    0    0  0.92505987085E+01  0.26834442335E+02 -0.32832342774E+02  0.43400732758E+02  0.00000000000E+00 0. -1.
         11    1    3    3    0    0 -0.17730872708E+01  0.25367509281E+01  0.14419149615E+01  0.34143905397E+01  0.51100000000E-03 0. -1.
        -11    1    3    3    0    0 -0.64275566006E+01 -0.16332315106E+02  0.22589654015E+02  0.28606825573E+02  0.51100000000E-03 0.  1.
        -12    1    3    3    0    0 -0.10499548372E+01 -0.13038878158E+02  0.88007737974E+01  0.15766051129E+02  0.00000000000E+00 0.  1.
</event>
<event>
 7    1  0.2653124E-010  0.4778727E+02  0.7816164E-02  0.1312668E+00
        -11   -1    0    0    0    0  0.00000000000E+00  0.00000000000E+00  0.45593999997E+02  0.45594000000E+02  0.51100000000E-03 0.  1.
         11   -1    0    0    0    0 -0.00000000000E+00 -0.00000000000E+00 -0.45593999997E+02  0.45594000000E+02  0.51100000000E-03 0. -1.
    9900012    2    1    2    0    0 -0.23562443977E+02 -0.36168724257E+02  0.45008691488E+01  0.47787271853E+02  0.20000003688E+02 0.  0.
         12    1    1    2    0    0  0.23562443977E+02  0.36168724257E+02 -0.45008691488E+01  0.43400728147E+02  0.00000000000E+00 0. -1.
         11    1    3    3    0    0 -0.19528750681E+02 -0.32350347365E+02 -0.24207139756E+00  0.37788565421E+02  0.51100000000E-03 0. -1.
        -11    1    3    3    0    0 -0.37267653579E+01 -0.56832696742E+01  0.43475541317E+01  0.80678101993E+01  0.51100000000E-03 0.  1.
         12    1    3    3    0    0 -0.30692793796E+00  0.18648927814E+01  0.39538641462E+00  0.19308962329E+01  0.00000000000E+00 0. -1.
</event>
<event>
 7    1  0.2653124E-010  0.4778727E+02  0.7816164E-02  0.1312668E+00
        -11   -1    0    0    0    0  0.00000000000E+00  0.00000000000E+00  0.45593999997E+02  0.45594000000E+02  0.51100000000E-03 0.  1.
         11   -1    0    0    0    0 -0.00000000000E+00 -0.00000000000E+00 -0.45593999997E+02  0.45594000000E+02  0.51100000000E-03 0. -1.
    9900012    2    1    2    0    0  0.19242288199E+02 -0.21678329937E+02  0.32301819518E+02  0.47787272032E+02  0.20000004502E+02 0.  0.
         12    1    1    2    0    0 -0.19242288199E+02  0.21678329937E+02 -0.32301819518E+02  0.43400727968E+02  0.00000000000E+00 0. -1.
         11    1    3    3    0    0  0.73243541295E+01  0.37092580235E+00  0.58075129484E+01  0.93547290860E+01  0.51100000000E-03 0. -1.
        -11    1    3    3    0    0  0.10525371638E+02 -0.89486172847E+01  0.88288085642E+01  0.16395397536E+02  0.51100000000E-03 0.  1.
        -12    1    3    3    0    0  0.13925624313E+01 -0.13100638454E+02  0.17665498006E+02  0.22037145410E+02  0.00000000000E+00 0.  1.
</event>
<event>
 7    1  0.2653124E-010  0.4778728E+02  0.7816164E-02  0.1312668E+00
        -11   -1    0    0    0    0  0.00000000000E+00  0.00000000000E+00  0.45593999997E+02  0.45594000000E+02  0.51100000000E-03 0.  1.
         11   -1    0    0    0    0 -0.00000000000E+00 -0.00000000000E+00 -0.45593999997E+02  0.45594000000E+02  0.51100000000E-03 0. -1.
    9900012    2    1    2    0    0 -0.22858995625E+02  0.18711925274E+02  0.31795488405E+02  0.47787275221E+02  0.20000019043E+02 0.  0.
         12    1    1    2    0    0  0.22858995625E+02 -0.18711925274E+02 -0.31795488405E+02  0.43400724779E+02  0.00000000000E+00 0. -1.
         11    1    3    3    0    0 -0.11511818926E+02  0.46874769984E+01  0.79952222019E+01  0.14778971342E+02  0.51100000000E-03 0. -1.
        -11    1    3    3    0    0 -0.74697266151E+01 -0.21154233247E-01  0.12528873955E+02  0.14586635872E+02  0.51100000000E-03 0.  1.
        -12    1    3    3    0    0 -0.38774500833E+01  0.14045602508E+02  0.11271392248E+02  0.18421668008E+02  0.00000000000E+00 0.  1.
</event>
<event>
 7    1  0.2653124E-010  0.4778727E+02  0.7816164E-02  0.1312668E+00
        -11   -1    0    0    0    0  0.00000000000E+00  0.00000000000E+00  0.45593999997E+02  0.45594000000E+02  0.51100000000E-03 0.  1.
         11   -1    0    0    0    0 -0.00000000000E+00 -0.00000000000E+00 -0.45593999997E+02  0.45594000000E+02  0.51100000000E-03 0. -1.
    9900012    2    1    2    0    0 -0.63446443856E+01  0.18814088075E+02  0.38592729974E+02  0.47787271558E+02  0.20000002342E+02 0.  0.
         12    1    1    2    0    0  0.63446443856E+01 -0.18814088075E+02 -0.38592729974E+02  0.43400728442E+02  0.00000000000E+00 0. -1.
         11    1    3    3    0    0  0.21362762483E+01 -0.17170731877E+01  0.42982704087E+01  0.50977588515E+01  0.51100000000E-03 0. -1.
        -11    1    3    3    0    0 -0.88830269058E+01  0.91280534543E+01  0.11331505121E+02  0.17047948130E+02  0.51100000000E-03 0.  1.
         12    1    3    3    0    0  0.40210627195E+00  0.11403107808E+02  0.22962954444E+02  0.25641564577E+02  0.00000000000E+00 0. -1.
</event>
<event>
 7    1  0.2653124E-010  0.4778727E+02  0.7816164E-02  0.1312668E+00
        -11   -1    0    0    0    0  0.00000000000E+00  0.00000000000E+00  0.45593999997E+02  0.45594000000E+02  0.51100000000E-03 0.  1.
         11   -1    0    0    0    0 -0.00000000000E+00 -0.00000000000E+00 -0.45593999997E+02  0.45594000000E+02  0.51100000000E-03 0. -1.
    9900012    2    1    2    0    0 -0.65419744804E+01  0.41604191384E+02  0.10484143122E+02  0.47787269271E+02  0.19999991915E+02 0.  0.
         12    1    1    2    0    0  0.65419744804E+01 -0.41604191384E+02 -0.10484143122E+02  0.43400730729E+02  0.00000000000E+00 0. -1.
         11    1    3    3    0    0 -0.15842798461E+00  0.15938557782E+02  0.70598458220E+00  0.15954972206E+02  0.51100000000E-03 0. -1.
        -11    1    3    3    0    0 -0.80682322653E+01  0.11478924213E+02 -0.80369858076E+00  0.14053754112E+02  0.51100000000E-03 0.  1.
         12    1    3    3    0    0  0.16846857695E+01  0.14186709388E+02  0.10581857120E+02  0.17778542953E+02  0.00000000000E+00 0. -1.
</event>
<event>
 7    1  0.3026023E-010  0.4778727E+02  0.7816164E-02  0.1312668E+00
        -11   -1    0    0    0    0  0.00000000000E+00  0.00000000000E+00  0.45593999997E+02  0.45594000000E+02  0.51100000000E-03 0.  1.
         11   -1    0    0    0    0 -0.00000000000E+00 -0.00000000000E+00 -0.45593999997E+02  0.45594000000E+02  0.51100000000E-03 0. -1.
    9900012    2    1    2    0    0  0.39577178190E+02  0.17206563657E+02  0.46048602121E+01  0.47787267242E+02  0.19999982665E+02 0.  0.
         12    1    1    2    0    0 -0.39577178190E+02 -0.17206563657E+02 -0.46048602121E+01  0.43400732758E+02  0.00000000000E+00 0. -1.
         11    1    3    3    0    0  0.16889073312E+02  0.90524062314E+01  0.74969013442E+01  0.20576452219E+02  0.51100000000E-03 0. -1.
        -11    1    3    3    0    0  0.23639808719E+02  0.70312751018E+01 -0.82995775765E+00  0.24677281373E+02  0.51100000000E-03 0.  1.
         12    1    3    3    0    0 -0.95170384071E+00  0.11228823236E+01 -0.20620833745E+01  0.25335336502E+01  0.00000000000E+00 0. -1.
</event>
<event>
 7    1  0.2653124E-010  0.4778727E+02  0.7816164E-02  0.1312668E+00
        -11   -1    0    0    0    0  0.00000000000E+00  0.00000000000E+00  0.45593999997E+02  0.45594000000E+02  0.51100000000E-03 0. -1.
         11   -1    0    0    0    0 -0.00000000000E+00 -0.00000000000E+00 -0.45593999997E+02  0.45594000000E+02  0.51100000000E-03 0.  1.
    9900012    2    1    2    0    0  0.12142885270E+02  0.12192917575E+02 -0.39843525891E+02  0.47787268934E+02  0.19999990377E+02 0.  0.
         12    1    1    2    0    0 -0.12142885270E+02 -0.12192917575E+02  0.39843525891E+02  0.43400731066E+02  0.00000000000E+00 0. -1.
         11    1    3    3    0    0  0.82189522473E+01  0.13986206785E+02 -0.24136123242E+02  0.29081224212E+02  0.51100000000E-03 0.  1.
        -11    1    3    3    0    0  0.56335180696E+01  0.72160700302E+00 -0.49724063381E+01  0.75486467369E+01  0.51100000000E-03 0. -1.
        -12    1    3    3    0    0 -0.17095850467E+01 -0.25148962129E+01 -0.10734996311E+02  0.11157397985E+02  0.00000000000E+00 0.  1.
</event>
<event>
 7    1  0.2653124E-010  0.4778727E+02  0.7816164E-02  0.1312668E+00
        -11   -1    0    0    0    0  0.00000000000E+00  0.00000000000E+00  0.45593999997E+02  0.45594000000E+02  0.51100000000E-03 0.  1.
         11   -1    0    0    0    0 -0.00000000000E+00 -0.00000000000E+00 -0.45593999997E+02  0.45594000000E+02  0.51100000000E-03 0. -1.
    9900012    2    1    2    0    0 -0.22564796902E+02  0.16802307688E+02  0.33047471105E+02  0.47787274783E+02  0.20000017046E+02 0.  0.
         12    1    1    2    0    0  0.22564796902E+02 -0.16802307688E+02 -0.33047471105E+02  0.43400725217E+02  0.00000000000E+00 0. -1.
         11    1    3    3    0    0 -0.53911402029E+01  0.78660219246E-01  0.87516594891E+01  0.10279208345E+02  0.51100000000E-03 0.  1.
        -11    1    3    3    0    0 -0.84269222275E+01  0.97901473620E+01  0.22856534151E+02  0.26254164569E+02  0.51100000000E-03 0. -1.
        -12    1    3    3    0    0 -0.87467344721E+01  0.69335001069E+01  0.14392774655E+01  0.11253901869E+02  0.00000000000E+00 0.  1.
</event>
<event>
 7    1  0.2921777E-010  0.4778727E+02  0.7816164E-02  0.1312668E+00
        -11   -1    0    0    0    0  0.00000000000E+00  0.00000000000E+00  0.45593999997E+02  0.45594000000E+02  0.51100000000E-03 0. -1.
         11   -1    0    0    0    0 -0.00000000000E+00 -0.00000000000E+00 -0.45593999997E+02  0.45594000000E+02  0.51100000000E-03 0.  1.
    9900012    2    1    2    0    0 -0.25030516747E+01  0.43325451574E+02  0.51303169063E+00  0.47787271627E+02  0.20000002658E+02 0.  0.
         12    1    1    2    0    0  0.25030516747E+01 -0.43325451574E+02 -0.51303169063E+00  0.43400728373E+02  0.00000000000E+00 0. -1.
         11    1    3    3    0    0  0.23559442640E+01  0.19773747738E+02 -0.45293005946E+00  0.19918752945E+02  0.51100000000E-03 0. -1.
        -11    1    3    3    0    0 -0.40925297778E+01  0.25419472571E+02  0.14662779038E+01  0.25788531500E+02  0.51100000000E-03 0.  1.
         12    1    3    3    0    0 -0.76646616083E+00 -0.18677687354E+01 -0.50031615371E+00  0.20799871823E+01  0.00000000000E+00 0. -1.
</event>
<event>
 7    1  0.2653124E-010  0.4778727E+02  0.7816164E-02  0.1312668E+00
        -11   -1    0    0    0    0  0.00000000000E+00  0.00000000000E+00  0.45593999997E+02  0.45594000000E+02  0.51100000000E-03 0. -1.
         11   -1    0    0    0    0 -0.00000000000E+00 -0.00000000000E+00 -0.45593999997E+02  0.45594000000E+02  0.51100000000E-03 0.  1.
    9900012    2    1    2    0    0  0.18871862020E+02 -0.14652870235E+02  0.36232162206E+02  0.47787270048E+02  0.19999995456E+02 0.  0.
         12    1    1    2    0    0 -0.18871862020E+02  0.14652870235E+02 -0.36232162206E+02  0.43400729952E+02  0.00000000000E+00 0. -1.
         11    1    3    3    0    0  0.17047885206E+01 -0.43832642032E+01  0.10700805062E+01  0.48233164447E+01  0.51100000000E-03 0.  1.
        -11    1    3    3    0    0  0.10135165004E+02 -0.80731498940E+01  0.89797560567E+01  0.15764940151E+02  0.51100000000E-03 0. -1.
         12    1    3    3    0    0  0.70319084954E+01 -0.21964561376E+01  0.26182325644E+02  0.27199013452E+02  0.00000000000E+00 0. -1.
</event>
<event>
 7    1  0.2653124E-010  0.4778725E+02  0.7816164E-02  0.1312668E+00
        -11   -1    0    0    0    0  0.00000000000E+00  0.00000000000E+00  0.45593999997E+02  0.45594000000E+02  0.51100000000E-03 0.  1.
         11   -1    0    0    0    0 -0.00000000000E+00 -0.00000000000E+00 -0.45593999997E+02  0.45594000000E+02  0.51100000000E-03 0. -1.
    9900012    2    1    2    0    0 -0.15958494153E+02 -0.39435433630E+02  0.85905717211E+01  0.47787252498E+02  0.19999915439E+02 0.  0.
         12    1    1    2    0    0  0.15958494153E+02  0.39435433630E+02 -0.85905717211E+01  0.43400747502E+02  0.00000000000E+00 0. -1.
         11    1    3    3    0    0 -0.73641553994E+00 -0.53981415287E+01 -0.33465711361E+01  0.63938860204E+01  0.51100000000E-03 0. -1.
        -11    1    3    3    0    0 -0.12660609321E+02 -0.12536054594E+02  0.35181299519E+01  0.18160972766E+02  0.51100000000E-03 0.  1.
        -12    1    3    3    0    0 -0.25614692919E+01 -0.21501237507E+02  0.84190129054E+01  0.23232393712E+02  0.00000000000E+00 0.  1.
</event>
<event>
 7    1  0.2653124E-010  0.4778727E+02  0.7816164E-02  0.1312668E+00
        -11   -1    0    0    0    0  0.00000000000E+00  0.00000000000E+00  0.45593999997E+02  0.45594000000E+02  0.51100000000E-03 0.  1.
         11   -1    0    0    0    0 -0.00000000000E+00 -0.00000000000E+00 -0.45593999997E+02  0.45594000000E+02  0.51100000000E-03 0. -1.
    9900012    2    1    2    0    0  0.18875051322E+02 -0.26048223504E+01  0.38994494916E+02  0.47787270794E+02  0.19999998859E+02 0.  0.
         12    1    1    2    0    0 -0.18875051322E+02  0.26048223504E+01 -0.38994494916E+02  0.43400729206E+02  0.00000000000E+00 0. -1.
         11    1    3    3    0    0  0.85126050489E+01  0.44917081012E+00  0.76654474926E+01  0.11464086735E+02  0.51100000000E-03 0. -1.
        -11    1    3    3    0    0  0.56238490726E+01 -0.56036827525E+01  0.48508545205E+01  0.93037480954E+01  0.51100000000E-03 0.  1.
        -12    1    3    3    0    0  0.47385972003E+01  0.25496895920E+01  0.26478192902E+02  0.27019435964E+02  0.00000000000E+00 0.  1.
</event>
<event>
 7    1  0.2653124E-010  0.4778727E+02  0.7816164E-02  0.1312668E+00
        -11   -1    0    0    0    0  0.00000000000E+00  0.00000000000E+00  0.45593999997E+02  0.45594000000E+02  0.51100000000E-03 0.  1.
         11   -1    0    0    0    0 -0.00000000000E+00 -0.00000000000E+00 -0.45593999997E+02  0.45594000000E+02  0.51100000000E-03 0. -1.
    9900012    2    1    2    0    0 -0.37525312015E+02 -0.17515622055E+02  0.12987581099E+02  0.47787270506E+02  0.19999997547E+02 0.  0.
         12    1    1    2    0    0  0.37525312015E+02  0.17515622055E+02 -0.12987581099E+02  0.43400729494E+02  0.00000000000E+00 0. -1.
         11    1    3    3    0    0 -0.57918682814E+01 -0.80825779288E+00 -0.21554677116E+01  0.62325805382E+01  0.51100000000E-03 0. -1.
        -11    1    3    3    0    0 -0.57438335038E+01  0.94060335973E+00  0.69955505660E+01  0.91002245018E+01  0.51100000000E-03 0.  1.
         12    1    3    3    0    0 -0.25989610230E+02 -0.17647967622E+02  0.81474982448E+01  0.32454465466E+02  0.00000000000E+00 0. -1.
</event>
<event>
 7    1  0.2653124E-010  0.4778728E+02  0.7816164E-02  0.1312668E+00
        -11   -1    0    0    0    0  0.00000000000E+00  0.00000000000E+00  0.45593999997E+02  0.45594000000E+02  0.51100000000E-03 0.  1.
         11   -1    0    0    0    0 -0.00000000000E+00 -0.00000000000E+00 -0.45593999997E+02  0.45594000000E+02  0.51100000000E-03 0. -1.
    9900012    2    1    2    0    0 -0.16690553937E+01  0.39317908984E+02  0.18301330578E+02  0.47787280954E+02  0.20000045182E+02 0.  0.
         12    1    1    2    0    0  0.16690553937E+01 -0.39317908984E+02 -0.18301330578E+02  0.43400719046E+02  0.00000000000E+00 0. -1.
         11    1    3    3    0    0 -0.63615130432E+01  0.14684231822E+02  0.11018558715E+02  0.19429465994E+02  0.51100000000E-03 0. -1.
        -11    1    3    3    0    0 -0.33126213554E+01  0.12001513443E+02  0.31672119321E+01  0.12846829058E+02  0.51100000000E-03 0.  1.
         12    1    3    3    0    0  0.80050790050E+01  0.12632163719E+02  0.41155599310E+01  0.15510985902E+02  0.00000000000E+00 0. -1.
</event>
<event>
 7    1  0.2653124E-010  0.4778727E+02  0.7816164E-02  0.1312668E+00
        -11   -1    0    0    0    0  0.00000000000E+00  0.00000000000E+00  0.45593999997E+02  0.45594000000E+02  0.51100000000E-03 0. -1.
         11   -1    0    0    0    0 -0.00000000000E+00 -0.00000000000E+00 -0.45593999997E+02  0.45594000000E+02  0.51100000000E-03 0.  1.
    9900012    2    1    2    0    0 -0.40763298110E+02 -0.14897768333E+02  0.18178113007E+00  0.47787273987E+02  0.20000013416E+02 0.  0.
         12    1    1    2    0    0  0.40763298110E+02  0.14897768333E+02 -0.18178113007E+00  0.43400726013E+02  0.00000000000E+00 0. -1.
         11    1    3    3    0    0 -0.90530645056E+01  0.18009724284E+00 -0.95965681805E+00  0.91055671668E+01  0.51100000000E-03 0. -1.
        -11    1    3    3    0    0 -0.18246057871E+02 -0.38671614649E+00  0.36033806056E+01  0.18602487179E+02  0.51100000000E-03 0.  1.
         12    1    3    3    0    0 -0.13464175733E+02 -0.14691149430E+02 -0.24619426574E+01  0.20079219641E+02  0.00000000000E+00 0. -1.
</event>
<event>
 7    1  0.2653124E-010  0.4778728E+02  0.7816164E-02  0.1312668E+00
        -11   -1    0    0    0    0  0.00000000000E+00  0.00000000000E+00  0.45593999997E+02  0.45594000000E+02  0.51100000000E-03 0.  1.
         11   -1    0    0    0    0 -0.00000000000E+00 -0.00000000000E+00 -0.45593999997E+02  0.45594000000E+02  0.51100000000E-03 0. -1.
    9900012    2    1    2    0    0 -0.35298132889E+02  0.15291906751E+02  0.20095326899E+02  0.47787276956E+02  0.20000026955E+02 0.  0.
         12    1    1    2    0    0  0.35298132889E+02 -0.15291906751E+02 -0.20095326899E+02  0.43400723044E+02  0.00000000000E+00 0. -1.
         11    1    3    3    0    0 -0.44181624845E+01  0.91382233807E+00  0.75757023585E+01  0.88173974329E+01  0.51100000000E-03 0. -1.
        -11    1    3    3    0    0  0.14287335770E+01  0.15815003896E+01  0.41432740414E+00  0.21711956557E+01  0.51100000000E-03 0.  1.
        -12    1    3    3    0    0 -0.32308703982E+02  0.12796584023E+02  0.12105297136E+02  0.36798683868E+02  0.00000000000E+00 0.  1.
</event>
<event>
 7    1  0.2653124E-010  0.4778724E+02  0.7816164E-02  0.1312668E+00
        -11   -1    0    0    0    0  0.00000000000E+00  0.00000000000E+00  0.45593999997E+02  0.45594000000E+02  0.51100000000E-03 0.  1.
         11   -1    0    0    0    0 -0.00000000000E+00 -0.00000000000E+00 -0.45593999997E+02  0.45594000000E+02  0.51100000000E-03 0. -1.
    9900012    2    1    2    0    0  0.34314524126E+02 -0.26437473042E+02 -0.26831983040E+01  0.47787238486E+02  0.19999851553E+02 0.  0.
         12    1    1    2    0    0 -0.34314524126E+02  0.26437473042E+02  0.26831983040E+01  0.43400761514E+02  0.00000000000E+00 0. -1.
         11    1    3    3    0    0  0.32749890410E+01  0.21491041858E+01 -0.94254025223E+00  0.40289681568E+01  0.51100000000E-03 0. -1.
        -11    1    3    3    0    0  0.20728425340E+02 -0.13157673261E+02 -0.46090065057E+01  0.24980691022E+02  0.51100000000E-03 0.  1.
        -12    1    3    3    0    0  0.10311109745E+02 -0.15428903966E+02  0.28683484539E+01  0.18777579307E+02  0.00000000000E+00 0.  1.
</event>
<event>
 7    1  0.2653124E-010  0.4778727E+02  0.7816164E-02  0.1312668E+00
        -11   -1    0    0    0    0  0.00000000000E+00  0.00000000000E+00  0.45593999997E+02  0.45594000000E+02  0.51100000000E-03 0. -1.
         11   -1    0    0    0    0 -0.00000000000E+00 -0.00000000000E+00 -0.45593999997E+02  0.45594000000E+02  0.51100000000E-03 0.  1.
    9900012    2    1    2    0    0 -0.26625555953E+02 -0.20127982383E+02 -0.27741082161E+02  0.47787267932E+02  0.19999985810E+02 0.  0.
         12    1    1    2    0    0  0.26625555953E+02  0.20127982383E+02  0.27741082161E+02  0.43400732068E+02  0.00000000000E+00 0. -1.
         11    1    3    3    0    0 -0.15968608415E+01  0.18064477960E+01 -0.10438085235E+01  0.26273093997E+01  0.51100000000E-03 0. -1.
        -11    1    3    3    0    0  0.10434524221E+01 -0.53015584575E+01 -0.28599282230E+01  0.61134691246E+01  0.51100000000E-03 0.  1.
         12    1    3    3    0    0 -0.26072147533E+02 -0.16632871721E+02 -0.23837345414E+02  0.39046489408E+02  0.00000000000E+00 0. -1.
</event>
<event>
 7    1  0.2653124E-010  0.4778727E+02  0.7816164E-02  0.1312668E+00
        -11   -1    0    0    0    0  0.00000000000E+00  0.00000000000E+00  0.45593999997E+02  0.45594000000E+02  0.51100000000E-03 0.  1.
         11   -1    0    0    0    0 -0.00000000000E+00 -0.00000000000E+00 -0.45593999997E+02  0.45594000000E+02  0.51100000000E-03 0. -1.
    9900012    2    1    2    0    0 -0.19582710824E+02  0.29201926132E+02  0.25443827515E+02  0.47787269457E+02  0.19999992762E+02 0.  0.
         12    1    1    2    0    0  0.19582710824E+02 -0.29201926132E+02 -0.25443827515E+02  0.43400730543E+02  0.00000000000E+00 0. -1.
         11    1    3    3    0    0 -0.77671559694E+01  0.90200021423E+01  0.36788291799E+01  0.12458849662E+02  0.51100000000E-03 0. -1.
        -11    1    3    3    0    0 -0.73854722376E+01  0.17817460551E+02  0.83741296663E+01  0.21026962420E+02  0.51100000000E-03 0.  1.
        -12    1    3    3    0    0 -0.44300826167E+01  0.23644634384E+01  0.13390868669E+02  0.14301457375E+02  0.00000000000E+00 0.  1.
</event>
<event>
 7    1  0.2653124E-010  0.4778726E+02  0.7816164E-02  0.1312668E+00
        -11   -1    0    0    0    0  0.00000000000E+00  0.00000000000E+00  0.45593999997E+02  0.45594000000E+02  0.51100000000E-03 0.  1.
         11   -1    0    0    0    0 -0.00000000000E+00 -0.00000000000E+00 -0.45593999997E+02  0.45594000000E+02  0.51100000000E-03 0. -1.
    9900012    2    1    2    0    0 -0.28870075908E+01  0.37666745974E+02  0.21365983513E+02  0.47787264792E+02  0.19999971494E+02 0.  0.
         12    1    1    2    0    0  0.28870075908E+01 -0.37666745974E+02 -0.21365983513E+02  0.43400735208E+02  0.00000000000E+00 0. -1.
         11    1    3    3    0    0  0.19202690291E+01  0.30587587732E+01 -0.18055380948E+00  0.36160805184E+01  0.51100000000E-03 0. -1.
        -11    1    3    3    0    0  0.27178999904E+01  0.18619933317E+02  0.39375834635E+01  0.19224813676E+02  0.51100000000E-03 0.  1.
        -12    1    3    3    0    0 -0.75251766103E+01  0.15988053884E+02  0.17608953859E+02  0.24946370598E+02  0.00000000000E+00 0.  1.
</event>
<event>
 7    1  0.3025699E-010  0.4778727E+02  0.7816164E-02  0.1312668E+00
        -11   -1    0    0    0    0  0.00000000000E+00  0.00000000000E+00  0.45593999997E+02  0.45594000000E+02  0.51100000000E-03 0.  1.
         11   -1    0    0    0    0 -0.00000000000E+00 -0.00000000000E+00 -0.45593999997E+02  0.45594000000E+02  0.51100000000E-03 0. -1.
    9900012    2    1    2    0    0 -0.14525543112E+01 -0.34426696319E+02  0.26387798844E+02  0.47787271189E+02  0.20000000660E+02 0.  0.
         12    1    1    2    0    0  0.14525543112E+01  0.34426696319E+02 -0.26387798844E+02  0.43400728811E+02  0.00000000000E+00 0. -1.
         11    1    3    3    0    0  0.25056471261E+01 -0.38997462348E+00  0.75500704026E+01  0.79645408576E+01  0.51100000000E-03 0. -1.
        -11    1    3    3    0    0 -0.64969660033E+00 -0.12497007315E+02  0.11007951278E+02  0.16666502006E+02  0.51100000000E-03 0.  1.
         12    1    3    3    0    0 -0.33085048370E+01 -0.21539714380E+02  0.78297771633E+01  0.23156228325E+02  0.00000000000E+00 0. -1.
</event>
<event>
 7    1  0.2653124E-010  0.4778726E+02  0.7816164E-02  0.1312668E+00
        -11   -1    0    0    0    0  0.00000000000E+00  0.00000000000E+00  0.45593999997E+02  0.45594000000E+02  0.51100000000E-03 0. -1.
         11   -1    0    0    0    0 -0.00000000000E+00 -0.00000000000E+00 -0.45593999997E+02  0.45594000000E+02  0.51100000000E-03 0.  1.
    9900012    2    1    2    0    0  0.40111157303E+02 -0.11535196104E+02 -0.11902034506E+02  0.47787261357E+02  0.19999955832E+02 0.  0.
         12    1    1    2    0    0 -0.40111157303E+02  0.11535196104E+02  0.11902034506E+02  0.43400738643E+02  0.00000000000E+00 0. -1.
         11    1    3    3    0    0  0.35072897601E+01 -0.43588037780E+01 -0.23444927166E+01  0.60660446912E+01  0.51100000000E-03 0. -1.
        -11    1    3    3    0    0  0.16988639794E+02 -0.49802732505E+01  0.35120233716E+01  0.18048581997E+02  0.51100000000E-03 0.  1.
        -12    1    3    3    0    0  0.19615227750E+02 -0.21961190752E+01 -0.13069565161E+02  0.23672634669E+02  0.00000000000E+00 0.  1.
</event>
<event>
 7    1  0.2653124E-010  0.4778727E+02  0.7816164E-02  0.1312668E+00
        -11   -1    0    0    0    0  0.00000000000E+00  0.00000000000E+00  0.45593999997E+02  0.45594000000E+02  0.51100000000E-03 0. -1.
         11   -1    0    0    0    0 -0.00000000000E+00 -0.00000000000E+00 -0.45593999997E+02  0.45594000000E+02  0.51100000000E-03 0.  1.
    9900012    2    1    2    0    0 -0.33218753642E+02  0.24450212892E+02 -0.13502769985E+02  0.47787270729E+02  0.19999998561E+02 0.  0.
         12    1    1    2    0    0  0.33218753642E+02 -0.24450212892E+02  0.13502769985E+02  0.43400729271E+02  0.00000000000E+00 0. -1.
         11    1    3    3    0    0 -0.30648432567E+00 -0.77173356775E+00  0.91951277520E+00  0.12389549412E+01  0.51100000000E-03 0. -1.
        -11    1    3    3    0    0 -0.62986318970E+01  0.10618961378E+02 -0.99647278281E+01  0.15866029922E+02  0.51100000000E-03 0.  1.
         12    1    3    3    0    0 -0.26613637420E+02  0.14602985082E+02 -0.44575549318E+01  0.30682285866E+02  0.00000000000E+00 0. -1.
</event>
<event>
 7    1  0.2653124E-010  0.4778725E+02  0.7816164E-02  0.1312668E+00
        -11   -1    0    0    0    0  0.00000000000E+00  0.00000000000E+00  0.45593999997E+02  0.45594000000E+02  0.51100000000E-03 0. -1.
         11   -1    0    0    0    0 -0.00000000000E+00 -0.00000000000E+00 -0.45593999997E+02  0.45594000000E+02  0.51100000000E-03 0.  1.
    9900012    2    1    2    0    0  0.30842369076E+02  0.28152440282E+02  0.11824263043E+02  0.47787253225E+02  0.19999918756E+02 0.  0.
         12    1    1    2    0    0 -0.30842369076E+02 -0.28152440282E+02 -0.11824263043E+02  0.43400746775E+02  0.00000000000E+00 0. -1.
         11    1    3    3    0    0  0.20342875905E+02  0.15890809499E+02  0.10428708914E+02  0.27840768604E+02  0.51100000000E-03 0. -1.
        -11    1    3    3    0    0  0.10507517990E+02  0.13608393711E+02  0.34055932701E+01  0.17526961502E+02  0.51100000000E-03 0.  1.
        -12    1    3    3    0    0 -0.80248181171E-02 -0.13467629272E+01 -0.20100391409E+01  0.24195231199E+01  0.00000000000E+00 0.  1.
</event>
<event>
 7    1  0.2653124E-010  0.4778728E+02  0.7816164E-02  0.1312668E+00
        -11   -1    0    0    0    0  0.00000000000E+00  0.00000000000E+00  0.45593999997E+02  0.45594000000E+02  0.51100000000E-03 0. -1.
         11   -1    0    0    0    0 -0.00000000000E+00 -0.00000000000E+00 -0.45593999997E+02  0.45594000000E+02  0.51100000000E-03 0.  1.
    9900012    2    1    2    0    0  0.14430847051E+02  0.53493448961E+01 -0.40580265405E+02  0.47787276760E+02  0.20000026059E+02 0.  0.
         12    1    1    2    0    0 -0.14430847051E+02 -0.53493448961E+01  0.40580265405E+02  0.43400723240E+02  0.00000000000E+00 0. -1.
         11    1    3    3    0    0  0.20983464584E+01  0.53930908785E+01 -0.41295084463E+01  0.71092423895E+01  0.51100000000E-03 0. -1.
        -11    1    3    3    0    0  0.11183870225E+02  0.37039549108E+00 -0.12823915759E+02  0.17019663970E+02  0.51100000000E-03 0.  1.
        -12    1    3    3    0    0  0.11486303677E+01 -0.41414147348E+00 -0.23626841200E+02  0.23658370400E+02  0.00000000000E+00 0.  1.
</event>
<event>
 7    1  0.2653124E-010  0.4778727E+02  0.7816164E-02  0.1312668E+00
        -11   -1    0    0    0    0  0.00000000000E+00  0.00000000000E+00  0.45593999997E+02  0.45594000000E+02  0.51100000000E-03 0.  1.
         11   -1    0    0    0    0 -0.00000000000E+00 -0.00000000000E+00 -0.45593999997E+02  0.45594000000E+02  0.51100000000E-03 0. -1.
    9900012    2    1    2    0    0 -0.24158297615E+02  0.91570888392E+01  0.34873311031E+02  0.47787269108E+02  0.19999991172E+02 0.  0.
         12    1    1    2    0    0  0.24158297615E+02 -0.91570888392E+01 -0.34873311031E+02  0.43400730892E+02  0.00000000000E+00 0. -1.
         11    1    3    3    0    0  0.19575636585E+01  0.22841040874E+01  0.32517121955E+01  0.44297651657E+01  0.51100000000E-03 0. -1.
        -11    1    3    3    0    0 -0.48187951741E+01  0.29915344320E+01  0.15085371239E+02  0.16116404403E+02  0.51100000000E-03 0.  1.
        -12    1    3    3    0    0 -0.21297066099E+02  0.38814503197E+01  0.16536227597E+02  0.27241099540E+02  0.00000000000E+00 0.  1.
</event>
<event>
 7    1  0.2653124E-010  0.4778726E+02  0.7816164E-02  0.1312668E+00
        -11   -1    0    0    0    0  0.00000000000E+00  0.00000000000E+00  0.45593999997E+02  0.45594000000E+02  0.51100000000E-03 0.  1.
         11   -1    0    0    0    0 -0.00000000000E+00 -0.00000000000E+00 -0.45593999997E+02  0.45594000000E+02  0.51100000000E-03 0. -1.
    9900012    2    1    2    0    0 -0.13260846242E+02 -0.69266998854E+01  0.40740577541E+02  0.47787264145E+02  0.19999968544E+02 0.  0.
         12    1    1    2    0    0  0.13260846242E+02  0.69266998854E+01 -0.40740577541E+02  0.43400735855E+02  0.00000000000E+00 0. -1.
         11    1    3    3    0    0 -0.25978499817E+01 -0.64368903937E+01  0.21454525658E+02  0.22549480126E+02  0.51100000000E-03 0. -1.
        -11    1    3    3    0    0 -0.86513724068E+01 -0.29257024588E+01  0.20011020990E+02  0.21996521105E+02  0.51100000000E-03 0.  1.
         12    1    3    3    0    0 -0.20116238532E+01  0.24358929671E+01 -0.72496910710E+00  0.32412629143E+01  0.00000000000E+00 0. -1.
</event>
<event>
 7    1  0.2653124E-010  0.4778728E+02  0.7816164E-02  0.1312668E+00
        -11   -1    0    0    0    0  0.00000000000E+00  0.00000000000E+00  0.45593999997E+02  0.45594000000E+02  0.51100000000E-03 0. -1.
         11   -1    0    0    0    0 -0.00000000000E+00 -0.00000000000E+00 -0.45593999997E+02  0.45594000000E+02  0.51100000000E-03 0.  1.
    9900012    2    1    2    0    0  0.12849377044E+02  0.26867279532E+02 -0.31570011873E+02  0.47787275933E+02  0.20000022289E+02 0.  0.
         12    1    1    2    0    0 -0.12849377044E+02 -0.26867279532E+02  0.31570011873E+02  0.43400724067E+02  0.00000000000E+00 0. -1.
         11    1    3    3    0    0  0.24729460477E+00  0.18267734170E+02 -0.90558958991E+01  0.20390696828E+02  0.51100000000E-03 0. -1.
        -11    1    3    3    0    0  0.38963133234E+01  0.92458903873E+00 -0.58254076402E+01  0.70690520468E+01  0.51100000000E-03 0.  1.
        -12    1    3    3    0    0  0.87057691157E+01  0.76749563230E+01 -0.16688708334E+02  0.20327527059E+02  0.00000000000E+00 0.  1.
</event>
<event>
 7    1  0.2653124E-010  0.4778727E+02  0.7816164E-02  0.1312668E+00
        -11   -1    0    0    0    0  0.00000000000E+00  0.00000000000E+00  0.45593999997E+02  0.45594000000E+02  0.51100000000E-03 0. -1.
         11   -1    0    0    0    0 -0.00000000000E+00 -0.00000000000E+00 -0.45593999997E+02  0.45594000000E+02  0.51100000000E-03 0.  1.
    9900012    2    1    2    0    0 -0.34805697467E+02  0.21569200565E+02 -0.14385991900E+02  0.47787265535E+02  0.19999974879E+02 0.  0.
         12    1    1    2    0    0  0.34805697467E+02 -0.21569200565E+02  0.14385991900E+02  0.43400734465E+02  0.00000000000E+00 0. -1.
         11    1    3    3    0    0 -0.18362626924E+02  0.10967585159E+02  0.38630418161E+00  0.21392129931E+02  0.51100000000E-03 0. -1.
        -11    1    3    3    0    0 -0.12587835823E+01  0.47806322140E+01 -0.90984696127E+00  0.50266094165E+01  0.51100000000E-03 0.  1.
        -12    1    3    3    0    0 -0.15184286960E+02  0.58209831917E+01 -0.13862449120E+02  0.21368526188E+02  0.00000000000E+00 0.  1.
</event>
<event>
 7    1  0.2653124E-010  0.4778727E+02  0.7816164E-02  0.1312668E+00
        -11   -1    0    0    0    0  0.00000000000E+00  0.00000000000E+00  0.45593999997E+02  0.45594000000E+02  0.51100000000E-03 0. -1.
         11   -1    0    0    0    0 -0.00000000000E+00 -0.00000000000E+00 -0.45593999997E+02  0.45594000000E+02  0.51100000000E-03 0.  1.
    9900012    2    1    2    0    0 -0.25490878322E+02  0.57896600689E+01 -0.34645609571E+02  0.47787270699E+02  0.19999998424E+02 0.  0.
         12    1    1    2    0    0  0.25490878322E+02 -0.57896600689E+01  0.34645609571E+02  0.43400729301E+02  0.00000000000E+00 0. -1.
         11    1    3    3    0    0 -0.32806870136E+01  0.50167351544E+00  0.20819929046E+01  0.39178155027E+01  0.51100000000E-03 0. -1.
        -11    1    3    3    0    0 -0.39473116715E+01  0.40408497646E+01 -0.76480935037E+01  0.95080529423E+01  0.51100000000E-03 0.  1.
        -12    1    3    3    0    0 -0.18262879637E+02  0.12471367888E+01 -0.29079508972E+02  0.34361402254E+02  0.00000000000E+00 0.  1.
</event>
<event>
 7    1  0.2653124E-010  0.4778727E+02  0.7816164E-02  0.1312668E+00
        -11   -1    0    0    0    0  0.00000000000E+00  0.00000000000E+00  0.45593999997E+02  0.45594000000E+02  0.51100000000E-03 0.  1.
         11   -1    0    0    0    0 -0.00000000000E+00 -0.00000000000E+00 -0.45593999997E+02  0.45594000000E+02  0.51100000000E-03 0. -1.
    9900012    2    1    2    0    0 -0.33452850102E+02 -0.22225198677E+02  0.16449021136E+02  0.47787274977E+02  0.20000017932E+02 0.  0.
         12    1    1    2    0    0  0.33452850102E+02  0.22225198677E+02 -0.16449021136E+02  0.43400725023E+02  0.00000000000E+00 0. -1.
         11    1    3    3    0    0 -0.21589211256E+02 -0.90807204198E+01  0.61616015698E+01  0.24218151461E+02  0.51100000000E-03 0.  1.
        -11    1    3    3    0    0 -0.44049293726E+01  0.10059876268E+01  0.49598892415E+01  0.67093900939E+01  0.51100000000E-03 0. -1.
        -12    1    3    3    0    0 -0.74587094734E+01 -0.14150465884E+02  0.53275303243E+01  0.16859733423E+02  0.00000000000E+00 0.  1.
</event>
<event>
 7    1  0.2653124E-010  0.4778727E+02  0.7816164E-02  0.1312668E+00
        -11   -1    0    0    0    0  0.00000000000E+00  0.00000000000E+00  0.45593999997E+02  0.45594000000E+02  0.51100000000E-03 0.  1.
         11   -1    0    0    0    0 -0.00000000000E+00 -0.00000000000E+00 -0.45593999997E+02  0.45594000000E+02  0.51100000000E-03 0. -1.
    9900012    2    1    2    0    0 -0.16999436878E+02 -0.39813023491E+02 -0.30928292035E+01  0.47787270904E+02  0.19999999358E+02 0.  0.
         12    1    1    2    0    0  0.16999436878E+02  0.39813023491E+02  0.30928292035E+01  0.43400729096E+02  0.00000000000E+00 0. -1.
         11    1    3    3    0    0 -0.10701750466E+02 -0.55682875900E+01 -0.10964835020E+01  0.12113445672E+02  0.51100000000E-03 0. -1.
        -11    1    3    3    0    0 -0.29853551220E+01 -0.75037139446E+01  0.22794420369E+01  0.83913005207E+01  0.51100000000E-03 0.  1.
         12    1    3    3    0    0 -0.33123312899E+01 -0.26741021956E+02 -0.42757877384E+01  0.27282524711E+02  0.00000000000E+00 0. -1.
</event>
<event>
 7    1  0.2653124E-010  0.4778727E+02  0.7816164E-02  0.1312668E+00
        -11   -1    0    0    0    0  0.00000000000E+00  0.00000000000E+00  0.45593999997E+02  0.45594000000E+02  0.51100000000E-03 0.  1.
         11   -1    0    0    0    0 -0.00000000000E+00 -0.00000000000E+00 -0.45593999997E+02  0.45594000000E+02  0.51100000000E-03 0. -1.
    9900012    2    1    2    0    0 -0.35242902770E+02  0.12986241443E+02  0.21746691706E+02  0.47787271174E+02  0.20000000590E+02 0.  0.
         12    1    1    2    0    0  0.35242902770E+02 -0.12986241443E+02 -0.21746691706E+02  0.43400728826E+02  0.00000000000E+00 0. -1.
         11    1    3    3    0    0  0.14751604673E+01  0.33150463719E+01 -0.49886192917E+00  0.36625802842E+01  0.51100000000E-03 0. -1.
        -11    1    3    3    0    0 -0.22084789088E+02  0.72127911989E+01  0.14500864472E+02  0.27386809537E+02  0.51100000000E-03 0.  1.
        -12    1    3    3    0    0 -0.14633274149E+02  0.24584038724E+01  0.77446891631E+01  0.16737881352E+02  0.00000000000E+00 0.  1.
</event>
<event>
 7    1  0.2653124E-010  0.4778727E+02  0.7816164E-02  0.1312668E+00
        -11   -1    0    0    0    0  0.00000000000E+00  0.00000000000E+00  0.45593999997E+02  0.45594000000E+02  0.51100000000E-03 0.  1.
         11   -1    0    0    0    0 -0.00000000000E+00 -0.00000000000E+00 -0.45593999997E+02  0.45594000000E+02  0.51100000000E-03 0. -1.
    9900012    2    1    2    0    0 -0.84126325941E+01 -0.38903186736E+02  0.17302971448E+02  0.47787272514E+02  0.20000006699E+02 0.  0.
         12    1    1    2    0    0  0.84126325941E+01  0.38903186736E+02 -0.17302971448E+02  0.43400727486E+02  0.00000000000E+00 0. -1.
         11    1    3    3    0    0 -0.47309831943E+01 -0.96058360031E+01  0.96891810925E+01  0.14440724283E+02  0.51100000000E-03 0.  1.
        -11    1    3    3    0    0  0.86812231070E+00 -0.24444526904E+02  0.18242517897E+01  0.24527870408E+02  0.51100000000E-03 0. -1.
         12    1    3    3    0    0 -0.45497717105E+01 -0.48528238290E+01  0.57895385663E+01  0.88186778228E+01  0.00000000000E+00 0. -1.
</event>
<event>
 7    1  0.2653124E-010  0.4778727E+02  0.7816164E-02  0.1312668E+00
        -11   -1    0    0    0    0  0.00000000000E+00  0.00000000000E+00  0.45593999997E+02  0.45594000000E+02  0.51100000000E-03 0.  1.
         11   -1    0    0    0    0 -0.00000000000E+00 -0.00000000000E+00 -0.45593999997E+02  0.45594000000E+02  0.51100000000E-03 0. -1.
    9900012    2    1    2    0    0 -0.35801305818E+02 -0.23415554436E+02  0.73213078461E+01  0.47787271477E+02  0.20000001971E+02 0.  0.
         12    1    1    2    0    0  0.35801305818E+02  0.23415554436E+02 -0.73213078461E+01  0.43400728523E+02  0.00000000000E+00 0. -1.
         11    1    3    3    0    0 -0.11533301037E+02  0.31367721510E+00  0.66610020511E+01  0.13322326178E+02  0.51100000000E-03 0. -1.
        -11    1    3    3    0    0 -0.41616413687E+00  0.30230942824E+00  0.31717482398E+00  0.60430431846E+00  0.51100000000E-03 0.  1.
        -12    1    3    3    0    0 -0.23851840644E+02 -0.24031541079E+02  0.34313097109E+00  0.33860640980E+02  0.00000000000E+00 0.  1.
</event>
<event>
 7    1  0.2653124E-010  0.4778727E+02  0.7816164E-02  0.1312668E+00
        -11   -1    0    0    0    0  0.00000000000E+00  0.00000000000E+00  0.45593999997E+02  0.45594000000E+02  0.51100000000E-03 0.  1.
         11   -1    0    0    0    0 -0.00000000000E+00 -0.00000000000E+00 -0.45593999997E+02  0.45594000000E+02  0.51100000000E-03 0. -1.
    9900012    2    1    2    0    0 -0.30108938446E+02  0.11917917852E+02  0.28897029699E+02  0.47787271139E+02  0.20000000430E+02 0.  0.
         12    1    1    2    0    0  0.30108938446E+02 -0.11917917852E+02 -0.28897029699E+02  0.43400728861E+02  0.00000000000E+00 0. -1.
         11    1    3    3    0    0 -0.13635308135E+02  0.27984594469E+01  0.22910645772E+02  0.26807661091E+02  0.51100000000E-03 0. -1.
        -11    1    3    3    0    0 -0.91537601049E+01  0.74276241660E+01  0.64777224310E+01  0.13450717935E+02  0.51100000000E-03 0.  1.
        -12    1    3    3    0    0 -0.73198702056E+01  0.16918342387E+01 -0.49133850378E+00  0.75288921126E+01  0.00000000000E+00 0.  1.
</event>
<event>
 7    1  0.2653124E-010  0.4778727E+02  0.7816164E-02  0.1312668E+00
        -11   -1    0    0    0    0  0.00000000000E+00  0.00000000000E+00  0.45593999997E+02  0.45594000000E+02  0.51100000000E-03 0.  1.
         11   -1    0    0    0    0 -0.00000000000E+00 -0.00000000000E+00 -0.45593999997E+02  0.45594000000E+02  0.51100000000E-03 0. -1.
    9900012    2    1    2    0    0  0.53491709407E+01 -0.39398173336E+02  0.17400976509E+02  0.47787266418E+02  0.19999978906E+02 0.  0.
         12    1    1    2    0    0 -0.53491709407E+01  0.39398173336E+02 -0.17400976509E+02  0.43400733582E+02  0.00000000000E+00 0. -1.
         11    1    3    3    0    0 -0.58192947584E+00  0.24463754332E+00 -0.23333003129E+01  0.24171843235E+01  0.51100000000E-03 0. -1.
        -11    1    3    3    0    0  0.86799258574E+00 -0.26302978581E+02  0.10280495787E+02  0.28254003031E+02  0.51100000000E-03 0.  1.
        -12    1    3    3    0    0  0.50631078308E+01 -0.13339832299E+02  0.94537810346E+01  0.17116079064E+02  0.00000000000E+00 0.  1.
</event>
<event>
 7    1  0.2653124E-010  0.4778727E+02  0.7816164E-02  0.1312668E+00
        -11   -1    0    0    0    0  0.00000000000E+00  0.00000000000E+00  0.45593999997E+02  0.45594000000E+02  0.51100000000E-03 0.  1.
         11   -1    0    0    0    0 -0.00000000000E+00 -0.00000000000E+00 -0.45593999997E+02  0.45594000000E+02  0.51100000000E-03 0. -1.
    9900012    2    1    2    0    0  0.21093460462E+02  0.35849706524E+02 -0.12389028343E+02  0.47787267801E+02  0.19999985212E+02 0.  0.
         12    1    1    2    0    0 -0.21093460462E+02 -0.35849706524E+02  0.12389028343E+02  0.43400732199E+02  0.00000000000E+00 0. -1.
         11    1    3    3    0    0  0.12341276536E+01  0.31286199620E+01 -0.43885303344E+01  0.55290625507E+01  0.51100000000E-03 0. -1.
        -11    1    3    3    0    0  0.54786293583E+01  0.82119569747E+01  0.49342830202E+01  0.11036247831E+02  0.51100000000E-03 0.  1.
        -12    1    3    3    0    0  0.14380703450E+02  0.24509129587E+02 -0.12934781029E+02  0.31221957420E+02  0.00000000000E+00 0.  1.
</event>
<event>
 7    1  0.2653124E-010  0.4778727E+02  0.7816164E-02  0.1312668E+00
        -11   -1    0    0    0    0  0.00000000000E+00  0.00000000000E+00  0.45593999997E+02  0.45594000000E+02  0.51100000000E-03 0.  1.
         11   -1    0    0    0    0 -0.00000000000E+00 -0.00000000000E+00 -0.45593999997E+02  0.45594000000E+02  0.51100000000E-03 0. -1.
    9900012    2    1    2    0    0  0.19936194301E+02  0.11131295875E+02  0.36908884161E+02  0.47787270501E+02  0.19999997520E+02 0.  0.
         12    1    1    2    0    0 -0.19936194301E+02 -0.11131295875E+02 -0.36908884161E+02  0.43400729499E+02  0.00000000000E+00 0. -1.
         11    1    3    3    0    0  0.10169849353E+02  0.10433209730E+02  0.14811970621E+02  0.20776721952E+02  0.51100000000E-03 0. -1.
        -11    1    3    3    0    0  0.11911473174E+02  0.29419250816E+01  0.15938769146E+02  0.20114235718E+02  0.51100000000E-03 0.  1.
         12    1    3    3    0    0 -0.21451282259E+01 -0.22438389367E+01  0.61581443943E+01  0.68963128308E+01  0.00000000000E+00 0. -1.
</event>
<event>
 7    1  0.2653124E-010  0.4778727E+02  0.7816164E-02  0.1312668E+00
        -11   -1    0    0    0    0  0.00000000000E+00  0.00000000000E+00  0.45593999997E+02  0.45594000000E+02  0.51100000000E-03 0.  1.
         11   -1    0    0    0    0 -0.00000000000E+00 -0.00000000000E+00 -0.45593999997E+02  0.45594000000E+02  0.51100000000E-03 0. -1.
    9900012    2    1    2    0    0 -0.22187343065E+02  0.27569607036E+02  0.25124924846E+02  0.47787271056E+02  0.20000000051E+02 0.  0.
         12    1    1    2    0    0  0.22187343065E+02 -0.27569607036E+02 -0.25124924846E+02  0.43400728944E+02  0.00000000000E+00 0. -1.
         11    1    3    3    0    0  0.28150256419E+01  0.27528926982E+01  0.52355044306E+01  0.65508239540E+01  0.51100000000E-03 0. -1.
        -11    1    3    3    0    0 -0.36802255869E+00  0.21740219502E+01 -0.19200848152E+00  0.22132960854E+01  0.51100000000E-03 0.  1.
        -12    1    3    3    0    0 -0.24634346148E+02  0.22642692387E+02  0.20081428897E+02  0.39023151016E+02  0.00000000000E+00 0.  1.
</event>
<event>
 7    1  0.3840829E-010  0.4778730E+02  0.7816164E-02  0.1312668E+00
        -11   -1    0    0    0    0  0.00000000000E+00  0.00000000000E+00  0.45593999997E+02  0.45594000000E+02  0.51100000000E-03 0. -1.
         11   -1    0    0    0    0 -0.00000000000E+00 -0.00000000000E+00 -0.45593999997E+02  0.45594000000E+02  0.51100000000E-03 0.  1.
    9900012    2    1    2    0    0  0.17928615765E+02 -0.35655593291E+02 -0.17054744201E+02  0.47787298440E+02  0.20000124905E+02 0.  0.
         12    1    1    2    0    0 -0.17928615765E+02  0.35655593291E+02  0.17054744201E+02  0.43400701560E+02  0.00000000000E+00 0. -1.
         11    1    3    3    0    0  0.40069018659E+01 -0.23056770373E+02 -0.43295961980E+01  0.23799481635E+02  0.51100000000E-03 0. -1.
        -11    1    3    3    0    0  0.84248138565E+01 -0.10758535570E+02 -0.55131123364E+01  0.14734923957E+02  0.51100000000E-03 0.  1.
         12    1    3    3    0    0  0.54969000424E+01 -0.18402873485E+01 -0.72120356663E+01  0.92528928478E+01  0.00000000000E+00 0. -1.
</event>
<event>
 7    1  0.2653124E-010  0.4778728E+02  0.7816164E-02  0.1312668E+00
        -11   -1    0    0    0    0  0.00000000000E+00  0.00000000000E+00  0.45593999997E+02  0.45594000000E+02  0.51100000000E-03 0. -1.
         11   -1    0    0    0    0 -0.00000000000E+00 -0.00000000000E+00 -0.45593999997E+02  0.45594000000E+02  0.51100000000E-03 0.  1.
    9900012    2    1    2    0    0 -0.37209667883E+02  0.15096735183E+02 -0.16466694205E+02  0.47787276329E+02  0.20000024093E+02 0.  0.
         12    1    1    2    0    0  0.37209667883E+02 -0.15096735183E+02  0.16466694205E+02  0.43400723671E+02  0.00000000000E+00 0. -1.
         11    1    3    3    0    0 -0.73366703783E+01  0.60074953744E+01  0.25535893650E+00  0.94858811589E+01  0.51100000000E-03 0. -1.
        -11    1    3    3    0    0 -0.22247077063E+02  0.12139616165E+02 -0.86335322679E+01  0.26773879027E+02  0.51100000000E-03 0.  1.
        -12    1    3    3    0    0 -0.76259204420E+01 -0.30503763563E+01 -0.80885208736E+01  0.11527516143E+02  0.00000000000E+00 0.  1.
</event>
<event>
 7    1  0.2653124E-010  0.4778727E+02  0.7816164E-02  0.1312668E+00
        -11   -1    0    0    0    0  0.00000000000E+00  0.00000000000E+00  0.45593999997E+02  0.45594000000E+02  0.51100000000E-03 0.  1.
         11   -1    0    0    0    0 -0.00000000000E+00 -0.00000000000E+00 -0.45593999997E+02  0.45594000000E+02  0.51100000000E-03 0. -1.
    9900012    2    1    2    0    0  0.34607766218E+02  0.15465196514E+02  0.21136541805E+02  0.47787272064E+02  0.20000004650E+02 0.  0.
         12    1    1    2    0    0 -0.34607766218E+02 -0.15465196514E+02 -0.21136541805E+02  0.43400727936E+02  0.00000000000E+00 0. -1.
         11    1    3    3    0    0  0.91900652125E+01  0.56433121916E+01  0.36697434219E+01  0.11391720157E+02  0.51100000000E-03 0. -1.
        -11    1    3    3    0    0  0.24658714152E+02  0.78537464706E+01  0.20280420974E+02  0.32879005344E+02  0.51100000000E-03 0.  1.
         12    1    3    3    0    0  0.75898685438E+00  0.19681378520E+01 -0.28136225906E+01  0.35165465633E+01  0.00000000000E+00 0. -1.
</event>
<event>
 7    1  0.2653124E-010  0.4778727E+02  0.7816164E-02  0.1312668E+00
        -11   -1    0    0    0    0  0.00000000000E+00  0.00000000000E+00  0.45593999997E+02  0.45594000000E+02  0.51100000000E-03 0.  1.
         11   -1    0    0    0    0 -0.00000000000E+00 -0.00000000000E+00 -0.45593999997E+02  0.45594000000E+02  0.51100000000E-03 0. -1.
    9900012    2    1    2    0    0 -0.34793712069E+02 -0.16075416620E+02  0.20361768429E+02  0.47787273824E+02  0.20000012675E+02 0.  0.
         12    1    1    2    0    0  0.34793712069E+02  0.16075416620E+02 -0.20361768429E+02  0.43400726176E+02  0.00000000000E+00 0. -1.
         11    1    3    3    0    0 -0.24976034797E+02 -0.14414474662E+02  0.23445630430E+02  0.37165534847E+02  0.51100000000E-03 0. -1.
        -11    1    3    3    0    0 -0.24945514422E+01 -0.11940286544E+01 -0.33516080119E+00  0.27858256135E+01  0.51100000000E-03 0.  1.
         12    1    3    3    0    0 -0.73231258296E+01 -0.46691330361E+00 -0.27487012003E+01  0.78359133634E+01  0.00000000000E+00 0. -1.
</event>
<event>
 7    1  0.2653124E-010  0.4778727E+02  0.7816164E-02  0.1312668E+00
        -11   -1    0    0    0    0  0.00000000000E+00  0.00000000000E+00  0.45593999997E+02  0.45594000000E+02  0.51100000000E-03 0.  1.
         11   -1    0    0    0    0 -0.00000000000E+00 -0.00000000000E+00 -0.45593999997E+02  0.45594000000E+02  0.51100000000E-03 0. -1.
    9900012    2    1    2    0    0  0.16213390718E+02 -0.59767490827E+01  0.39812407777E+02  0.47787269808E+02  0.19999994362E+02 0.  0.
         12    1    1    2    0    0 -0.16213390718E+02  0.59767490827E+01 -0.39812407777E+02  0.43400730192E+02  0.00000000000E+00 0. -1.
         11    1    3    3    0    0  0.78643125673E+01 -0.25863363498E+01  0.91119577871E+01  0.12311146285E+02  0.51100000000E-03 0. -1.
        -11    1    3    3    0    0  0.75088908670E+01 -0.14173453535E+01  0.38800562637E+01  0.85701310826E+01  0.51100000000E-03 0.  1.
         12    1    3    3    0    0  0.84018728369E+00 -0.19730673794E+01  0.26820393727E+02  0.26905992440E+02  0.00000000000E+00 0. -1.
</event>
<event>
 7    1  0.2653124E-010  0.4778727E+02  0.7816164E-02  0.1312668E+00
        -11   -1    0    0    0    0  0.00000000000E+00  0.00000000000E+00  0.45593999997E+02  0.45594000000E+02  0.51100000000E-03 0. -1.
         11   -1    0    0    0    0 -0.00000000000E+00 -0.00000000000E+00 -0.45593999997E+02  0.45594000000E+02  0.51100000000E-03 0.  1.
    9900012    2    1    2    0    0  0.40583672154E+02  0.15031013027E+02 -0.32645856473E+01  0.47787270540E+02  0.19999997702E+02 0.  0.
         12    1    1    2    0    0 -0.40583672154E+02 -0.15031013027E+02  0.32645856473E+01  0.43400729460E+02  0.00000000000E+00 0. -1.
         11    1    3    3    0    0  0.10713661166E+01 -0.76138937312E+00  0.18233313040E+01  0.22476824595E+01  0.51100000000E-03 0. -1.
        -11    1    3    3    0    0  0.14921033630E+02  0.10887486446E+02 -0.83167096853E+01  0.20256906624E+02  0.51100000000E-03 0.  1.
         12    1    3    3    0    0  0.24591272408E+02  0.49049159541E+01  0.32287927340E+01  0.25282681457E+02  0.00000000000E+00 0. -1.
</event>
<event>
 7    1  0.2653124E-010  0.4778727E+02  0.7816164E-02  0.1312668E+00
        -11   -1    0    0    0    0  0.00000000000E+00  0.00000000000E+00  0.45593999997E+02  0.45594000000E+02  0.51100000000E-03 0. -1.
         11   -1    0    0    0    0 -0.00000000000E+00 -0.00000000000E+00 -0.45593999997E+02  0.45594000000E+02  0.51100000000E-03 0.  1.
    9900012    2    1    2    0    0 -0.28709518127E+02  0.32431262564E+02 -0.27568748027E+01  0.47787267504E+02  0.19999983856E+02 0.  0.
         12    1    1    2    0    0  0.28709518127E+02 -0.32431262564E+02  0.27568748027E+01  0.43400732496E+02  0.00000000000E+00 0. -1.
         11    1    3    3    0    0 -0.36011024304E+00 -0.84070636024E+00 -0.10521495901E+01  0.13940895209E+01  0.51100000000E-03 0. -1.
        -11    1    3    3    0    0 -0.14678058943E+02  0.17484322504E+02  0.68356331054E+01  0.23830082416E+02  0.51100000000E-03 0.  1.
         12    1    3    3    0    0 -0.13671348941E+02  0.15787646420E+02 -0.85403583181E+01  0.22563095566E+02  0.00000000000E+00 0. -1.
</event>
<event>
 7    1  0.2653124E-010  0.4778728E+02  0.7816164E-02  0.1312668E+00
        -11   -1    0    0    0    0  0.00000000000E+00  0.00000000000E+00  0.45593999997E+02  0.45594000000E+02  0.51100000000E-03 0.  1.
         11   -1    0    0    0    0 -0.00000000000E+00 -0.00000000000E+00 -0.45593999997E+02  0.45594000000E+02  0.51100000000E-03 0. -1.
    9900012    2    1    2    0    0 -0.94279177529E+01  0.13012066344E+01  0.42344352125E+02  0.47787275020E+02  0.20000018127E+02 0.  0.
         12    1    1    2    0    0  0.94279177529E+01 -0.13012066344E+01 -0.42344352125E+02  0.43400724980E+02  0.00000000000E+00 0. -1.
         11    1    3    3    0    0  0.19679419984E-01  0.19228942487E+00  0.10004160398E+02  0.10006027585E+02  0.51100000000E-03 0. -1.
        -11    1    3    3    0    0 -0.66632740349E+01  0.23176075145E+01  0.33717772745E+02  0.34447913211E+02  0.51100000000E-03 0.  1.
         12    1    3    3    0    0 -0.27843231379E+01 -0.12086903050E+01 -0.13775810176E+01  0.33333342241E+01  0.00000000000E+00 0. -1.
</event>
<event>
 7    1  0.2653124E-010  0.4778727E+02  0.7816164E-02  0.1312668E+00
        -11   -1    0    0    0    0  0.00000000000E+00  0.00000000000E+00  0.45593999997E+02  0.45594000000E+02  0.51100000000E-03 0.  1.
         11   -1    0    0    0    0 -0.00000000000E+00 -0.00000000000E+00 -0.45593999997E+02  0.45594000000E+02  0.51100000000E-03 0. -1.
    9900012    2    1    2    0    0 -0.91473379969E+01  0.28567088480E+02  0.31366722416E+02  0.47787267151E+02  0.19999982250E+02 0.  0.
         12    1    1    2    0    0  0.91473379969E+01 -0.28567088480E+02 -0.31366722416E+02  0.43400732849E+02  0.00000000000E+00 0. -1.
         11    1    3    3    0    0 -0.64620762707E+01  0.11306431600E+02  0.78712303530E+01  0.15216770117E+02  0.51100000000E-03 0. -1.
        -11    1    3    3    0    0 -0.63742568622E+01  0.15546816611E+02  0.12785498541E+02  0.21114062387E+02  0.51100000000E-03 0.  1.
         12    1    3    3    0    0  0.36889951360E+01  0.17138402688E+01  0.10709993522E+02  0.11456434647E+02  0.00000000000E+00 0. -1.
</event>
<event>
 7    1  0.2653124E-010  0.4778727E+02  0.7816164E-02  0.1312668E+00
        -11   -1    0    0    0    0  0.00000000000E+00  0.00000000000E+00  0.45593999997E+02  0.45594000000E+02  0.51100000000E-03 0.  1.
         11   -1    0    0    0    0 -0.00000000000E+00 -0.00000000000E+00 -0.45593999997E+02  0.45594000000E+02  0.51100000000E-03 0. -1.
    9900012    2    1    2    0    0 -0.20706806297E+02 -0.21818724711E+02  0.31285689457E+02  0.47787274893E+02  0.20000017546E+02 0.  0.
         12    1    1    2    0    0  0.20706806297E+02  0.21818724711E+02 -0.31285689457E+02  0.43400725107E+02  0.00000000000E+00 0. -1.
         11    1    3    3    0    0 -0.13660159296E+02 -0.23991869183E+01  0.16611142565E+02  0.21639919303E+02  0.51100000000E-03 0.  1.
        -11    1    3    3    0    0  0.82360285622E+00 -0.18071688522E+01  0.13441722402E+00  0.19905399208E+01  0.51100000000E-03 0. -1.
         12    1    3    3    0    0 -0.78702498578E+01 -0.17612368941E+02  0.14540129668E+02  0.24156815669E+02  0.00000000000E+00 0. -1.
</event>
<event>
 7    1  0.2653124E-010  0.4778727E+02  0.7816164E-02  0.1312668E+00
        -11   -1    0    0    0    0  0.00000000000E+00  0.00000000000E+00  0.45593999997E+02  0.45594000000E+02  0.51100000000E-03 0. -1.
         11   -1    0    0    0    0 -0.00000000000E+00 -0.00000000000E+00 -0.45593999997E+02  0.45594000000E+02  0.51100000000E-03 0.  1.
    9900012    2    1    2    0    0  0.40162404495E+02  0.16428511936E+02  0.84183800398E+00  0.47787269240E+02  0.19999991773E+02 0.  0.
         12    1    1    2    0    0 -0.40162404495E+02 -0.16428511936E+02 -0.84183800398E+00  0.43400730760E+02  0.00000000000E+00 0. -1.
         11    1    3    3    0    0  0.12228105433E+02  0.57099815599E+01  0.22946585025E+01  0.13689262573E+02  0.51100000000E-03 0. -1.
        -11    1    3    3    0    0  0.25965319233E+02  0.77145718887E+01  0.41897763996E+01  0.27409243858E+02  0.51100000000E-03 0.  1.
         12    1    3    3    0    0  0.19689798290E+01  0.30039584875E+01 -0.56425968981E+01  0.66887628090E+01  0.00000000000E+00 0. -1.
</event>
<event>
 7    1  0.2653124E-010  0.4778727E+02  0.7816164E-02  0.1312668E+00
        -11   -1    0    0    0    0  0.00000000000E+00  0.00000000000E+00  0.45593999997E+02  0.45594000000E+02  0.51100000000E-03 0. -1.
         11   -1    0    0    0    0 -0.00000000000E+00 -0.00000000000E+00 -0.45593999997E+02  0.45594000000E+02  0.51100000000E-03 0.  1.
    9900012    2    1    2    0    0 -0.26046090379E+02  0.25937141550E+02 -0.23075730429E+02  0.47787268777E+02  0.19999989664E+02 0.  0.
         12    1    1    2    0    0  0.26046090379E+02 -0.25937141550E+02  0.23075730429E+02  0.43400731223E+02  0.00000000000E+00 0. -1.
         11    1    3    3    0    0  0.20956808960E+00  0.20231251439E+01 -0.96852010022E+00  0.22527728642E+01  0.51100000000E-03 0. -1.
        -11    1    3    3    0    0 -0.22007023065E+02  0.16198027296E+02 -0.72641422011E+01  0.28274598399E+02  0.51100000000E-03 0.  1.
        -12    1    3    3    0    0 -0.42486354040E+01  0.77159891098E+01 -0.14843068128E+02  0.17259897514E+02  0.00000000000E+00 0.  1.
</event>
<event>
 7    1  0.2653124E-010  0.4778727E+02  0.7816164E-02  0.1312668E+00
        -11   -1    0    0    0    0  0.00000000000E+00  0.00000000000E+00  0.45593999997E+02  0.45594000000E+02  0.51100000000E-03 0.  1.
         11   -1    0    0    0    0 -0.00000000000E+00 -0.00000000000E+00 -0.45593999997E+02  0.45594000000E+02  0.51100000000E-03 0. -1.
    9900012    2    1    2    0    0 -0.16119234691E+02  0.17234490397E+01  0.40259448526E+02  0.47787271904E+02  0.20000003920E+02 0.  0.
         12    1    1    2    0    0  0.16119234691E+02 -0.17234490397E+01 -0.40259448526E+02  0.43400728096E+02  0.00000000000E+00 0. -1.
         11    1    3    3    0    0 -0.84505884562E+01 -0.43998179795E+01  0.14723992468E+02  0.17537582444E+02  0.51100000000E-03 0. -1.
        -11    1    3    3    0    0 -0.94346337701E+01  0.21856253824E+01  0.92141673295E+01  0.13367503601E+02  0.51100000000E-03 0.  1.
        -12    1    3    3    0    0  0.17659875349E+01  0.39376416368E+01  0.16321288728E+02  0.16882185859E+02  0.00000000000E+00 0.  1.
</event>
<event>
 7    1  0.2653124E-010  0.4778727E+02  0.7816164E-02  0.1312668E+00
        -11   -1    0    0    0    0  0.00000000000E+00  0.00000000000E+00  0.45593999997E+02  0.45594000000E+02  0.51100000000E-03 0. -1.
         11   -1    0    0    0    0 -0.00000000000E+00 -0.00000000000E+00 -0.45593999997E+02  0.45594000000E+02  0.51100000000E-03 0.  1.
    9900012    2    1    2    0    0 -0.14319384322E+02 -0.14513570079E+02 -0.38313636699E+02  0.47787271425E+02  0.20000001734E+02 0.  0.
         12    1    1    2    0    0  0.14319384322E+02  0.14513570079E+02  0.38313636699E+02  0.43400728575E+02  0.00000000000E+00 0. -1.
         11    1    3    3    0    0  0.12121627936E+01 -0.64071395177E+01 -0.24415654869E+01  0.69629029668E+01  0.51100000000E-03 0. -1.
        -11    1    3    3    0    0 -0.10094599958E+01 -0.12629051406E+01 -0.11672773570E+02  0.11784209008E+02  0.51100000000E-03 0.  1.
        -12    1    3    3    0    0 -0.14522087120E+02 -0.68435254205E+01 -0.24199297642E+02  0.29040159450E+02  0.00000000000E+00 0.  1.
</event>
<event>
 7    1  0.2653124E-010  0.4778727E+02  0.7816164E-02  0.1312668E+00
        -11   -1    0    0    0    0  0.00000000000E+00  0.00000000000E+00  0.45593999997E+02  0.45594000000E+02  0.51100000000E-03 0.  1.
         11   -1    0    0    0    0 -0.00000000000E+00 -0.00000000000E+00 -0.45593999997E+02  0.45594000000E+02  0.51100000000E-03 0. -1.
    9900012    2    1    2    0    0 -0.35613791647E+02  0.22353734398E+02  0.10751351339E+02  0.47787272441E+02  0.20000006369E+02 0.  0.
         12    1    1    2    0    0  0.35613791647E+02 -0.22353734398E+02 -0.10751351339E+02  0.43400727559E+02  0.00000000000E+00 0. -1.
         11    1    3    3    0    0 -0.14615737204E+02  0.11364838571E+02 -0.29090484948E+01  0.18741448534E+02  0.51100000000E-03 0. -1.
        -11    1    3    3    0    0 -0.88218913806E+01  0.10070906013E+02  0.63972056479E+01  0.14838232908E+02  0.51100000000E-03 0.  1.
        -12    1    3    3    0    0 -0.12176163062E+02  0.91798981380E+00  0.72631941864E+01  0.14207590999E+02  0.00000000000E+00 0.  1.
</event>
<event>
 7    1  0.2653124E-010  0.4778727E+02  0.7816164E-02  0.1312668E+00
        -11   -1    0    0    0    0  0.00000000000E+00  0.00000000000E+00  0.45593999997E+02  0.45594000000E+02  0.51100000000E-03 0.  1.
         11   -1    0    0    0    0 -0.00000000000E+00 -0.00000000000E+00 -0.45593999997E+02  0.45594000000E+02  0.51100000000E-03 0. -1.
    9900012    2    1    2    0    0  0.14944804399E+02  0.40732228107E+02  0.10778102280E+01  0.47787271205E+02  0.20000000731E+02 0.  0.
         12    1    1    2    0    0 -0.14944804399E+02 -0.40732228107E+02 -0.10778102280E+01  0.43400728795E+02  0.00000000000E+00 0. -1.
         11    1    3    3    0    0  0.12679046930E+00  0.16820277591E+01 -0.13643660056E+01  0.21695133242E+01  0.51100000000E-03 0. -1.
        -11    1    3    3    0    0  0.17101030983E+02  0.36747208816E+02  0.58061520891E+01  0.40945256365E+02  0.51100000000E-03 0.  1.
         12    1    3    3    0    0 -0.22830170528E+01  0.23029915314E+01 -0.33639758555E+01  0.46725015156E+01  0.00000000000E+00 0. -1.
</event>
<event>
 7    1  0.2653124E-010  0.4778728E+02  0.7816164E-02  0.1312668E+00
        -11   -1    0    0    0    0  0.00000000000E+00  0.00000000000E+00  0.45593999997E+02  0.45594000000E+02  0.51100000000E-03 0.  1.
         11   -1    0    0    0    0 -0.00000000000E+00 -0.00000000000E+00 -0.45593999997E+02  0.45594000000E+02  0.51100000000E-03 0. -1.
    9900012    2    1    2    0    0 -0.29927652289E+02 -0.31425902575E+02  0.60902929031E+00  0.47787278337E+02  0.20000033251E+02 0.  0.
         12    1    1    2    0    0  0.29927652289E+02  0.31425902575E+02 -0.60902929031E+00  0.43400721663E+02  0.00000000000E+00 0. -1.
         11    1    3    3    0    0 -0.19129052300E+01  0.14513097501E+01 -0.15574601603E+01  0.28620253007E+01  0.51100000000E-03 0. -1.
        -11    1    3    3    0    0 -0.18889581879E+02 -0.12799047598E+02  0.94330264718E+00  0.22836850552E+02  0.51100000000E-03 0.  1.
        -12    1    3    3    0    0 -0.91251651799E+01 -0.20078164727E+02  0.12231868035E+01  0.22088402485E+02  0.00000000000E+00 0.  1.
</event>
<event>
 7    1  0.2653124E-010  0.4778727E+02  0.7816164E-02  0.1312668E+00
        -11   -1    0    0    0    0  0.00000000000E+00  0.00000000000E+00  0.45593999997E+02  0.45594000000E+02  0.51100000000E-03 0. -1.
         11   -1    0    0    0    0 -0.00000000000E+00 -0.00000000000E+00 -0.45593999997E+02  0.45594000000E+02  0.51100000000E-03 0.  1.
    9900012    2    1    2    0    0  0.27739795238E+02 -0.18091965228E+02 -0.28050094353E+02  0.47787271448E+02  0.20000001839E+02 0.  0.
         12    1    1    2    0    0 -0.27739795238E+02  0.18091965228E+02  0.28050094353E+02  0.43400728552E+02  0.00000000000E+00 0. -1.
         11    1    3    3    0    0  0.14930852169E+01  0.62173501817E+00 -0.40614554976E+01  0.43716448755E+01  0.51100000000E-03 0. -1.
        -11    1    3    3    0    0  0.23761961568E+02 -0.99585194792E+01 -0.22475148448E+02  0.34189694731E+02  0.51100000000E-03 0.  1.
         12    1    3    3    0    0  0.24847484537E+01 -0.87551807666E+01 -0.15134904075E+01  0.92259318416E+01  0.00000000000E+00 0. -1.
</event>
<event>
 7    1  0.2653124E-010  0.4778727E+02  0.7816164E-02  0.1312668E+00
        -11   -1    0    0    0    0  0.00000000000E+00  0.00000000000E+00  0.45593999997E+02  0.45594000000E+02  0.51100000000E-03 0.  1.
         11   -1    0    0    0    0 -0.00000000000E+00 -0.00000000000E+00 -0.45593999997E+02  0.45594000000E+02  0.51100000000E-03 0. -1.
    9900012    2    1    2    0    0  0.77719418396E+00  0.39850127814E+02  0.17175176793E+02  0.47787269413E+02  0.19999992562E+02 0.  0.
         12    1    1    2    0    0 -0.77719418396E+00 -0.39850127814E+02 -0.17175176793E+02  0.43400730587E+02  0.00000000000E+00 0. -1.
         11    1    3    3    0    0 -0.11564288157E+01  0.11331922485E+01  0.66609955236E+00  0.17507544524E+01  0.51100000000E-03 0. -1.
        -11    1    3    3    0    0 -0.60043037825E+01  0.27810727564E+02  0.63546024982E+01  0.29152516268E+02  0.51100000000E-03 0.  1.
         12    1    3    3    0    0  0.79379267822E+01  0.10906208001E+02  0.10154474743E+02  0.16883998693E+02  0.00000000000E+00 0. -1.
</event>
<event>
 7    1  0.2653124E-010  0.4778726E+02  0.7816164E-02  0.1312668E+00
        -11   -1    0    0    0    0  0.00000000000E+00  0.00000000000E+00  0.45593999997E+02  0.45594000000E+02  0.51100000000E-03 0. -1.
         11   -1    0    0    0    0 -0.00000000000E+00 -0.00000000000E+00 -0.45593999997E+02  0.45594000000E+02  0.51100000000E-03 0.  1.
    9900012    2    1    2    0    0  0.23287768309E+02 -0.33948829915E+02 -0.13739774075E+02  0.47787255801E+02  0.19999930497E+02 0.  0.
         12    1    1    2    0    0 -0.23287768309E+02  0.33948829915E+02  0.13739774075E+02  0.43400744199E+02  0.00000000000E+00 0. -1.
         11    1    3    3    0    0  0.48652848922E+01 -0.69033249044E+01 -0.68368729355E+01  0.10865989307E+02  0.51100000000E-03 0. -1.
        -11    1    3    3    0    0 -0.23727265069E+01 -0.39386154843E+01 -0.32286024622E+01  0.56183980929E+01  0.51100000000E-03 0.  1.
         12    1    3    3    0    0  0.20795209924E+02 -0.23106889526E+02 -0.36742986776E+01  0.31302868401E+02  0.00000000000E+00 0. -1.
</event>
<event>
 7    1  0.2653124E-010  0.4778727E+02  0.7816164E-02  0.1312668E+00
        -11   -1    0    0    0    0  0.00000000000E+00  0.00000000000E+00  0.45593999997E+02  0.45594000000E+02  0.51100000000E-03 0.  1.
         11   -1    0    0    0    0 -0.00000000000E+00 -0.00000000000E+00 -0.45593999997E+02  0.45594000000E+02  0.51100000000E-03 0. -1.
    9900012    2    1    2    0    0 -0.34722861273E+02  0.13882969817E+02  0.22027475114E+02  0.47787267220E+02  0.19999982562E+02 0.  0.
         12    1    1    2    0    0  0.34722861273E+02 -0.13882969817E+02 -0.22027475114E+02  0.43400732780E+02  0.00000000000E+00 0. -1.
         11    1    3    3    0    0 -0.60012025111E+01  0.13337289261E+00 -0.96923812699E+00  0.60804311291E+01  0.51100000000E-03 0. -1.
        -11    1    3    3    0    0 -0.20523384388E+02  0.99467497067E+01  0.79460552317E+01  0.24151333928E+02  0.51100000000E-03 0.  1.
        -12    1    3    3    0    0 -0.81982743735E+01  0.38028472182E+01  0.15050658010E+02  0.17555502163E+02  0.00000000000E+00 0.  1.
</event>
<event>
 7    1  0.2653124E-010  0.4778727E+02  0.7816164E-02  0.1312668E+00
        -11   -1    0    0    0    0  0.00000000000E+00  0.00000000000E+00  0.45593999997E+02  0.45594000000E+02  0.51100000000E-03 0. -1.
         11   -1    0    0    0    0 -0.00000000000E+00 -0.00000000000E+00 -0.45593999997E+02  0.45594000000E+02  0.51100000000E-03 0.  1.
    9900012    2    1    2    0    0 -0.61310509720E+01  0.37316897030E+02  0.21295134396E+02  0.47787270295E+02  0.19999996582E+02 0.  0.
         12    1    1    2    0    0  0.61310509720E+01 -0.37316897030E+02 -0.21295134396E+02  0.43400729705E+02  0.00000000000E+00 0. -1.
         11    1    3    3    0    0 -0.51981950228E+01  0.68208452368E+01  0.32128824890E+01  0.91579351050E+01  0.51100000000E-03 0.  1.
        -11    1    3    3    0    0  0.71141212601E+01  0.11879250543E+02  0.77429285537E+01  0.15864433731E+02  0.51100000000E-03 0. -1.
         12    1    3    3    0    0 -0.80469772093E+01  0.18616801250E+02  0.10339323354E+02  0.22764901459E+02  0.00000000000E+00 0. -1.
</event>
<event>
 7    1  0.2653124E-010  0.4778727E+02  0.7816164E-02  0.1312668E+00
        -11   -1    0    0    0    0  0.00000000000E+00  0.00000000000E+00  0.45593999997E+02  0.45594000000E+02  0.51100000000E-03 0. -1.
         11   -1    0    0    0    0 -0.00000000000E+00 -0.00000000000E+00 -0.45593999997E+02  0.45594000000E+02  0.51100000000E-03 0.  1.
    9900012    2    1    2    0    0 -0.33572813557E+02 -0.85650426824E+01 -0.26136745523E+02  0.47787271518E+02  0.20000002158E+02 0.  0.
         12    1    1    2    0    0  0.33572813557E+02  0.85650426824E+01  0.26136745523E+02  0.43400728482E+02  0.00000000000E+00 0. -1.
         11    1    3    3    0    0 -0.17228808977E+02 -0.54261682679E+01 -0.70261442202E+01  0.19381482495E+02  0.51100000000E-03 0. -1.
        -11    1    3    3    0    0 -0.65278761032E+01 -0.73242552501E+01 -0.59962204854E+01  0.11498371265E+02  0.51100000000E-03 0.  1.
        -12    1    3    3    0    0 -0.98161284769E+01  0.41853808356E+01 -0.13114380817E+02  0.16907417758E+02  0.00000000000E+00 0.  1.
</event>
<event>
 7    1  0.2653124E-010  0.4778727E+02  0.7816164E-02  0.1312668E+00
        -11   -1    0    0    0    0  0.00000000000E+00  0.00000000000E+00  0.45593999997E+02  0.45594000000E+02  0.51100000000E-03 0.  1.
         11   -1    0    0    0    0 -0.00000000000E+00 -0.00000000000E+00 -0.45593999997E+02  0.45594000000E+02  0.51100000000E-03 0. -1.
    9900012    2    1    2    0    0 -0.18793153849E+02  0.26373042828E+02  0.28894686906E+02  0.47787274765E+02  0.20000016961E+02 0.  0.
         12    1    1    2    0    0  0.18793153849E+02 -0.26373042828E+02 -0.28894686906E+02  0.43400725235E+02  0.00000000000E+00 0. -1.
         11    1    3    3    0    0 -0.11478262729E+02  0.17071384140E+02  0.79022927853E+01  0.22036989433E+02  0.51100000000E-03 0. -1.
        -11    1    3    3    0    0 -0.53064460408E+01  0.25684432454E+01  0.33974608763E+01  0.68042641744E+01  0.51100000000E-03 0.  1.
        -12    1    3    3    0    0 -0.20084450791E+01  0.67332154423E+01  0.17594933244E+02  0.18946021157E+02  0.00000000000E+00 0.  1.
</event>
<event>
 7    1  0.2653124E-010  0.4778728E+02  0.7816164E-02  0.1312668E+00
        -11   -1    0    0    0    0  0.00000000000E+00  0.00000000000E+00  0.45593999997E+02  0.45594000000E+02  0.51100000000E-03 0. -1.
         11   -1    0    0    0    0 -0.00000000000E+00 -0.00000000000E+00 -0.45593999997E+02  0.45594000000E+02  0.51100000000E-03 0.  1.
    9900012    2    1    2    0    0 -0.18364338071E+02 -0.37345975154E+02 -0.12314710724E+02  0.47787275660E+02  0.20000021046E+02 0.  0.
         12    1    1    2    0    0  0.18364338071E+02  0.37345975154E+02  0.12314710724E+02  0.43400724340E+02  0.00000000000E+00 0. -1.
         11    1    3    3    0    0 -0.77846566274E+00 -0.25276565527E+00 -0.15492034063E+01  0.17521217765E+01  0.51100000000E-03 0. -1.
        -11    1    3    3    0    0 -0.12379655657E+01 -0.23346687801E+02 -0.63105531104E+01  0.24216182004E+02  0.51100000000E-03 0.  1.
         12    1    3    3    0    0 -0.16347906842E+02 -0.13746521698E+02 -0.44549542078E+01  0.21818971880E+02  0.00000000000E+00 0. -1.
</event>
<event>
 7    1  0.2653124E-010  0.4778727E+02  0.7816164E-02  0.1312668E+00
        -11   -1    0    0    0    0  0.00000000000E+00  0.00000000000E+00  0.45593999997E+02  0.45594000000E+02  0.51100000000E-03 0.  1.
         11   -1    0    0    0    0 -0.00000000000E+00 -0.00000000000E+00 -0.45593999997E+02  0.45594000000E+02  0.51100000000E-03 0. -1.
    9900012    2    1    2    0    0 -0.29659683723E+02  0.14121881462E+02  0.28363691154E+02  0.47787270162E+02  0.19999995976E+02 0.  0.
         12    1    1    2    0    0  0.29659683723E+02 -0.14121881462E+02 -0.28363691154E+02  0.43400729838E+02  0.00000000000E+00 0. -1.
         11    1    3    3    0    0 -0.99891273956E+01 -0.27130224001E+01  0.25468248722E+01  0.10659712654E+02  0.51100000000E-03 0. -1.
        -11    1    3    3    0    0 -0.67063011466E+01  0.20838171090E+01  0.74636851150E+01  0.10248090777E+02  0.51100000000E-03 0.  1.
         12    1    3    3    0    0 -0.12964255181E+02  0.14751086753E+02  0.18353181167E+02  0.26879466731E+02  0.00000000000E+00 0. -1.
</event>
<event>
 7    1  0.2653124E-010  0.4778727E+02  0.7816164E-02  0.1312668E+00
        -11   -1    0    0    0    0  0.00000000000E+00  0.00000000000E+00  0.45593999997E+02  0.45594000000E+02  0.51100000000E-03 0.  1.
         11   -1    0    0    0    0 -0.00000000000E+00 -0.00000000000E+00 -0.45593999997E+02  0.45594000000E+02  0.51100000000E-03 0. -1.
    9900012    2    1    2    0    0  0.23635828558E+02 -0.56926591484E+01  0.35952251027E+02  0.47787272889E+02  0.20000008412E+02 0.  0.
         12    1    1    2    0    0 -0.23635828558E+02  0.56926591484E+01 -0.35952251027E+02  0.43400727111E+02  0.00000000000E+00 0. -1.
         11    1    3    3    0    0  0.75210782285E+01 -0.32189165944E+01  0.28750648336E+01  0.86714496954E+01  0.51100000000E-03 0. -1.
        -11    1    3    3    0    0  0.16575840176E+02 -0.48153835224E+01  0.22981526321E+02  0.28741902308E+02  0.51100000000E-03 0.  1.
        -12    1    3    3    0    0 -0.46108984656E+00  0.23416409684E+01  0.10095659873E+02  0.10373920885E+02  0.00000000000E+00 0.  1.
</event>
<event>
 7    1  0.2653124E-010  0.4778729E+02  0.7816164E-02  0.1312668E+00
        -11   -1    0    0    0    0  0.00000000000E+00  0.00000000000E+00  0.45593999997E+02  0.45594000000E+02  0.51100000000E-03 0.  1.
         11   -1    0    0    0    0 -0.00000000000E+00 -0.00000000000E+00 -0.45593999997E+02  0.45594000000E+02  0.51100000000E-03 0. -1.
    9900012    2    1    2    0    0  0.66922644748E+01 -0.35360689273E+01  0.42735601661E+02  0.47787287603E+02  0.20000075497E+02 0.  0.
         12    1    1    2    0    0 -0.66922644748E+01  0.35360689273E+01 -0.42735601661E+02  0.43400712397E+02  0.00000000000E+00 0. -1.
         11    1    3    3    0    0  0.12852400250E+01  0.31621830358E+01  0.21025591549E+02  0.21300862511E+02  0.51100000000E-03 0. -1.
        -11    1    3    3    0    0 -0.28486711953E+01 -0.26231601398E+00  0.11548667128E+02  0.11897707761E+02  0.51100000000E-03 0.  1.
         12    1    3    3    0    0  0.82556956451E+01 -0.64359359491E+01  0.10161342983E+02  0.14588717331E+02  0.00000000000E+00 0. -1.
</event>
<event>
 7    1  0.2653124E-010  0.4778727E+02  0.7816164E-02  0.1312668E+00
        -11   -1    0    0    0    0  0.00000000000E+00  0.00000000000E+00  0.45593999997E+02  0.45594000000E+02  0.51100000000E-03 0.  1.
         11   -1    0    0    0    0 -0.00000000000E+00 -0.00000000000E+00 -0.45593999997E+02  0.45594000000E+02  0.51100000000E-03 0. -1.
    9900012    2    1    2    0    0  0.13779675672E+02 -0.35255926291E+01  0.41003826582E+02  0.47787273515E+02  0.20000011267E+02 0.  0.
         12    1    1    2    0    0 -0.13779675672E+02  0.35255926291E+01 -0.41003826582E+02  0.43400726485E+02  0.00000000000E+00 0. -1.
         11    1    3    3    0    0 -0.17642489848E+01 -0.32784857886E+01  0.15098515121E+02  0.15550762125E+02  0.51100000000E-03 0. -1.
        -11    1    3    3    0    0 -0.23361772163E+00  0.20926283599E+01  0.79306312285E+01  0.82053996025E+01  0.51100000000E-03 0.  1.
        -12    1    3    3    0    0  0.15777542378E+02 -0.23397352005E+01  0.17974680233E+02  0.24031111788E+02  0.00000000000E+00 0.  1.
</event>
<event>
 7    1  0.2653124E-010  0.4778727E+02  0.7816164E-02  0.1312668E+00
        -11   -1    0    0    0    0  0.00000000000E+00  0.00000000000E+00  0.45593999997E+02  0.45594000000E+02  0.51100000000E-03 0.  1.
         11   -1    0    0    0    0 -0.00000000000E+00 -0.00000000000E+00 -0.45593999997E+02  0.45594000000E+02  0.51100000000E-03 0. -1.
    9900012    2    1    2    0    0  0.15795135820E+02  0.25454226051E+02  0.31404129564E+02  0.47787270823E+02  0.19999998989E+02 0.  0.
         12    1    1    2    0    0 -0.15795135820E+02 -0.25454226051E+02 -0.31404129564E+02  0.43400729177E+02  0.00000000000E+00 0. -1.
         11    1    3    3    0    0  0.12900607193E+02  0.15637224710E+02  0.19283975397E+02  0.27978923674E+02  0.51100000000E-03 0. -1.
        -11    1    3    3    0    0  0.65963846568E+01  0.18064703232E+01  0.50771685165E+01  0.85178204945E+01  0.51100000000E-03 0.  1.
         12    1    3    3    0    0 -0.37018560298E+01  0.80105310183E+01  0.70429856507E+01  0.11290526655E+02  0.00000000000E+00 0. -1.
</event>
<event>
 7    1  0.2653124E-010  0.4778727E+02  0.7816164E-02  0.1312668E+00
        -11   -1    0    0    0    0  0.00000000000E+00  0.00000000000E+00  0.45593999997E+02  0.45594000000E+02  0.51100000000E-03 0.  1.
         11   -1    0    0    0    0 -0.00000000000E+00 -0.00000000000E+00 -0.45593999997E+02  0.45594000000E+02  0.51100000000E-03 0. -1.
    9900012    2    1    2    0    0  0.32088775433E+02  0.28123938534E+02 -0.79358702776E+01  0.47787268848E+02  0.19999989987E+02 0.  0.
         12    1    1    2    0    0 -0.32088775433E+02 -0.28123938534E+02  0.79358702776E+01  0.43400731152E+02  0.00000000000E+00 0. -1.
         11    1    3    3    0    0  0.69483198395E+00 -0.11835899377E+01  0.25698298979E+01  0.29133661960E+01  0.51100000000E-03 0. -1.
        -11    1    3    3    0    0  0.61658657114E+01  0.62057207942E+01  0.94932686728E+00  0.87994370450E+01  0.51100000000E-03 0.  1.
        -12    1    3    3    0    0  0.25228077737E+02  0.23101807678E+02 -0.11455027043E+02  0.36074465607E+02  0.00000000000E+00 0.  1.
</event>
<event>
 7    1  0.2653124E-010  0.4778727E+02  0.7816164E-02  0.1312668E+00
        -11   -1    0    0    0    0  0.00000000000E+00  0.00000000000E+00  0.45593999997E+02  0.45594000000E+02  0.51100000000E-03 0.  1.
         11   -1    0    0    0    0 -0.00000000000E+00 -0.00000000000E+00 -0.45593999997E+02  0.45594000000E+02  0.51100000000E-03 0. -1.
    9900012    2    1    2    0    0 -0.41792495353E+02 -0.10915286209E+02  0.42269344975E+01  0.47787272862E+02  0.20000008286E+02 0.  0.
         12    1    1    2    0    0  0.41792495353E+02  0.10915286209E+02 -0.42269344975E+01  0.43400727138E+02  0.00000000000E+00 0. -1.
         11    1    3    3    0    0 -0.10219950328E+02  0.26032830657E+01  0.12726951548E+00  0.10547069034E+02  0.51100000000E-03 0. -1.
        -11    1    3    3    0    0 -0.11776817018E+02 -0.16596455531E+01 -0.43529816963E+01  0.12664765784E+02  0.51100000000E-03 0.  1.
         12    1    3    3    0    0 -0.19795728007E+02 -0.11858923722E+02  0.84526466783E+01  0.24575438044E+02  0.00000000000E+00 0. -1.
</event>
<event>
 7    1  0.2653124E-010  0.4778727E+02  0.7816164E-02  0.1312668E+00
        -11   -1    0    0    0    0  0.00000000000E+00  0.00000000000E+00  0.45593999997E+02  0.45594000000E+02  0.51100000000E-03 0. -1.
         11   -1    0    0    0    0 -0.00000000000E+00 -0.00000000000E+00 -0.45593999997E+02  0.45594000000E+02  0.51100000000E-03 0.  1.
    9900012    2    1    2    0    0  0.26093793131E+02 -0.34384982057E+02  0.45177372137E+01  0.47787274424E+02  0.20000015410E+02 0.  0.
         12    1    1    2    0    0 -0.26093793131E+02  0.34384982057E+02 -0.45177372137E+01  0.43400725576E+02  0.00000000000E+00 0. -1.
         11    1    3    3    0    0  0.47176074901E+01 -0.10591521381E+02 -0.41439334047E+01  0.12312933441E+02  0.51100000000E-03 0. -1.
        -11    1    3    3    0    0  0.49904968492E+01 -0.14932007528E+02  0.46859182954E+01  0.16426434128E+02  0.51100000000E-03 0.  1.
         12    1    3    3    0    0  0.16385688791E+02 -0.88614531477E+01  0.39757523231E+01  0.19047906856E+02  0.00000000000E+00 0. -1.
</event>
<event>
 7    1  0.2653124E-010  0.4778727E+02  0.7816164E-02  0.1312668E+00
        -11   -1    0    0    0    0  0.00000000000E+00  0.00000000000E+00  0.45593999997E+02  0.45594000000E+02  0.51100000000E-03 0.  1.
         11   -1    0    0    0    0 -0.00000000000E+00 -0.00000000000E+00 -0.45593999997E+02  0.45594000000E+02  0.51100000000E-03 0. -1.
    9900012    2    1    2    0    0  0.23242605234E+02  0.46081224062E+01  0.36361654179E+02  0.47787269766E+02  0.19999994171E+02 0.  0.
         12    1    1    2    0    0 -0.23242605234E+02 -0.46081224062E+01 -0.36361654179E+02  0.43400730234E+02  0.00000000000E+00 0. -1.
         11    1    3    3    0    0  0.11091630659E+02  0.10478391619E+01  0.19801408481E+02  0.22720431678E+02  0.51100000000E-03 0.  1.
        -11    1    3    3    0    0  0.11849800042E+02  0.79634357305E+01  0.13829814132E+02  0.19877067914E+02  0.51100000000E-03 0. -1.
         12    1    3    3    0    0  0.30117453375E+00 -0.44031524862E+01  0.27304315668E+01  0.51897701739E+01  0.00000000000E+00 0. -1.
</event>
<event>
 7    1  0.2653124E-010  0.4778727E+02  0.7816164E-02  0.1312668E+00
        -11   -1    0    0    0    0  0.00000000000E+00  0.00000000000E+00  0.45593999997E+02  0.45594000000E+02  0.51100000000E-03 0.  1.
         11   -1    0    0    0    0 -0.00000000000E+00 -0.00000000000E+00 -0.45593999997E+02  0.45594000000E+02  0.51100000000E-03 0. -1.
    9900012    2    1    2    0    0 -0.26007064563E+02  0.31109149998E+02  0.15475034698E+02  0.47787270517E+02  0.19999997594E+02 0.  0.
         12    1    1    2    0    0  0.26007064563E+02 -0.31109149998E+02 -0.15475034698E+02  0.43400729483E+02  0.00000000000E+00 0. -1.
         11    1    3    3    0    0 -0.95383823404E+00 -0.15987795668E+01 -0.63727880067E+00  0.19677469377E+01  0.51100000000E-03 0. -1.
        -11    1    3    3    0    0 -0.22218399055E+01 -0.23634162368E+00  0.28043976485E+01  0.35856765555E+01  0.51100000000E-03 0.  1.
        -12    1    3    3    0    0 -0.22831386423E+02  0.32944271188E+02  0.13307915851E+02  0.42233847024E+02  0.00000000000E+00 0.  1.
</event>
<event>
 7    1  0.2653124E-010  0.4778727E+02  0.7816164E-02  0.1312668E+00
        -11   -1    0    0    0    0  0.00000000000E+00  0.00000000000E+00  0.45593999997E+02  0.45594000000E+02  0.51100000000E-03 0.  1.
         11   -1    0    0    0    0 -0.00000000000E+00 -0.00000000000E+00 -0.45593999997E+02  0.45594000000E+02  0.51100000000E-03 0. -1.
    9900012    2    1    2    0    0 -0.19543385473E+02  0.34519819238E+02  0.17608560814E+02  0.47787271321E+02  0.20000001259E+02 0.  0.
         12    1    1    2    0    0  0.19543385473E+02 -0.34519819238E+02 -0.17608560814E+02  0.43400728679E+02  0.00000000000E+00 0. -1.
         11    1    3    3    0    0 -0.61473228842E+00  0.87369941725E+01  0.77749378265E+01  0.11711644693E+02  0.51100000000E-03 0. -1.
        -11    1    3    3    0    0 -0.12261698111E+02  0.24949222244E+02  0.93883579981E+01  0.29342021017E+02  0.51100000000E-03 0.  1.
         12    1    3    3    0    0 -0.66669550730E+01  0.83360282122E+00  0.44526498926E+00  0.67336056106E+01  0.00000000000E+00 0. -1.
</event>
<event>
 7    1  0.2653124E-010  0.4778727E+02  0.7816164E-02  0.1312668E+00
        -11   -1    0    0    0    0  0.00000000000E+00  0.00000000000E+00  0.45593999997E+02  0.45594000000E+02  0.51100000000E-03 0.  1.
         11   -1    0    0    0    0 -0.00000000000E+00 -0.00000000000E+00 -0.45593999997E+02  0.45594000000E+02  0.51100000000E-03 0. -1.
    9900012    2    1    2    0    0 -0.16168608952E+02  0.21685344520E+02  0.33940316410E+02  0.47787272352E+02  0.20000005961E+02 0.  0.
         12    1    1    2    0    0  0.16168608952E+02 -0.21685344520E+02 -0.33940316410E+02  0.43400727648E+02  0.00000000000E+00 0. -1.
         11    1    3    3    0    0 -0.22486057101E+01  0.74245909992E+01  0.45788720282E+01  0.90081545533E+01  0.51100000000E-03 0. -1.
        -11    1    3    3    0    0 -0.11063954616E+02  0.17681664321E+02  0.23622447688E+02  0.31513050947E+02  0.51100000000E-03 0.  1.
         12    1    3    3    0    0 -0.28560486253E+01 -0.34209107999E+01  0.57389966932E+01  0.72660668518E+01  0.00000000000E+00 0. -1.
</event>
<event>
 7    1  0.2653124E-010  0.4778721E+02  0.7816164E-02  0.1312668E+00
        -11   -1    0    0    0    0  0.00000000000E+00  0.00000000000E+00  0.45593999997E+02  0.45594000000E+02  0.51100000000E-03 0.  1.
         11   -1    0    0    0    0 -0.00000000000E+00 -0.00000000000E+00 -0.45593999997E+02  0.45594000000E+02  0.51100000000E-03 0. -1.
    9900012    2    1    2    0    0  0.21366675754E+02 -0.25578410354E+02  0.27799977018E+02  0.47787209325E+02  0.19999718594E+02 0.  0.
         12    1    1    2    0    0 -0.21366675754E+02  0.25578410354E+02 -0.27799977018E+02  0.43400790675E+02  0.00000000000E+00 0. -1.
         11    1    3    3    0    0  0.45330224464E+01 -0.48713404903E+01  0.92631942447E+00  0.67183568385E+01  0.51100000000E-03 0. -1.
        -11    1    3    3    0    0  0.32003056663E+01  0.13066955399E+01 -0.37785011454E+00  0.34773812794E+01  0.51100000000E-03 0.  1.
        -12    1    3    3    0    0  0.13633347641E+02 -0.22013765403E+02  0.27251507708E+02  0.37591471207E+02  0.00000000000E+00 0.  1.
</event>
<event>
 7    1  0.2653124E-010  0.4778725E+02  0.7816164E-02  0.1312668E+00
        -11   -1    0    0    0    0  0.00000000000E+00  0.00000000000E+00  0.45593999997E+02  0.45594000000E+02  0.51100000000E-03 0.  1.
         11   -1    0    0    0    0 -0.00000000000E+00 -0.00000000000E+00 -0.45593999997E+02  0.45594000000E+02  0.51100000000E-03 0. -1.
    9900012    2    1    2    0    0  0.56729593591E+01  0.22748860893E+02  0.36523027994E+02  0.47787254457E+02  0.19999924372E+02 0.  0.
         12    1    1    2    0    0 -0.56729593591E+01 -0.22748860893E+02 -0.36523027994E+02  0.43400745543E+02  0.00000000000E+00 0. -1.
         11    1    3    3    0    0 -0.23291808551E+01 -0.11884261615E+00  0.20591058598E+01  0.31111290918E+01  0.51100000000E-03 0. -1.
        -11    1    3    3    0    0  0.19660588379E+01  0.12568572804E+02  0.65324958921E+01  0.14300626298E+02  0.51100000000E-03 0.  1.
        -12    1    3    3    0    0  0.60360813763E+01  0.10299130705E+02  0.27931426242E+02  0.30375499067E+02  0.00000000000E+00 0.  1.
</event>
<event>
 7    1  0.2653124E-010  0.4778727E+02  0.7816164E-02  0.1312668E+00
        -11   -1    0    0    0    0  0.00000000000E+00  0.00000000000E+00  0.45593999997E+02  0.45594000000E+02  0.51100000000E-03 0.  1.
         11   -1    0    0    0    0 -0.00000000000E+00 -0.00000000000E+00 -0.45593999997E+02  0.45594000000E+02  0.51100000000E-03 0. -1.
    9900012    2    1    2    0    0  0.95234916501E+01 -0.18506358745E+02  0.38084656203E+02  0.47787271374E+02  0.20000001501E+02 0.  0.
         12    1    1    2    0    0 -0.95234916501E+01  0.18506358745E+02 -0.38084656203E+02  0.43400728626E+02  0.00000000000E+00 0. -1.
         11    1    3    3    0    0 -0.78824686825E+00 -0.29325614792E+01  0.28220877976E+01  0.41455312993E+01  0.51100000000E-03 0. -1.
        -11    1    3    3    0    0  0.39300939490E+01 -0.13436425409E+01  0.24119003940E+02  0.24474014077E+02  0.51100000000E-03 0.  1.
         12    1    3    3    0    0  0.63816445694E+01 -0.14230154725E+02  0.11143564465E+02  0.19167725997E+02  0.00000000000E+00 0. -1.
</event>
<event>
 7    1  0.2653124E-010  0.4778728E+02  0.7816164E-02  0.1312668E+00
        -11   -1    0    0    0    0  0.00000000000E+00  0.00000000000E+00  0.45593999997E+02  0.45594000000E+02  0.51100000000E-03 0.  1.
         11   -1    0    0    0    0 -0.00000000000E+00 -0.00000000000E+00 -0.45593999997E+02  0.45594000000E+02  0.51100000000E-03 0. -1.
    9900012    2    1    2    0    0  0.32378946641E+01 -0.77690213364E+01  0.42576764597E+02  0.47787279523E+02  0.20000038658E+02 0.  0.
         12    1    1    2    0    0 -0.32378946641E+01  0.77690213364E+01 -0.42576764597E+02  0.43400720477E+02  0.00000000000E+00 0. -1.
         11    1    3    3    0    0 -0.19448769698E+01  0.16845077508E+01  0.11265717897E+02  0.11555799963E+02  0.51100000000E-03 0. -1.
        -11    1    3    3    0    0  0.50577571720E+01 -0.74773137994E+01  0.32627736379E+02  0.33853512532E+02  0.51100000000E-03 0.  1.
         12    1    3    3    0    0  0.12501446196E+00 -0.19762152878E+01 -0.13166896789E+01  0.23779670287E+01  0.00000000000E+00 0. -1.
</event>
<event>
 7    1  0.2653124E-010  0.4778724E+02  0.7816164E-02  0.1312668E+00
        -11   -1    0    0    0    0  0.00000000000E+00  0.00000000000E+00  0.45593999997E+02  0.45594000000E+02  0.51100000000E-03 0.  1.
         11   -1    0    0    0    0 -0.00000000000E+00 -0.00000000000E+00 -0.45593999997E+02  0.45594000000E+02  0.51100000000E-03 0. -1.
    9900012    2    1    2    0    0 -0.15203098709E+02  0.13315911850E+01  0.40629033242E+02  0.47787243237E+02  0.19999873215E+02 0.  0.
         12    1    1    2    0    0  0.15203098709E+02 -0.13315911850E+01 -0.40629033242E+02  0.43400756763E+02  0.00000000000E+00 0. -1.
         11    1    3    3    0    0 -0.55506662184E+01  0.19626450267E+00 -0.23790824229E+00  0.55592279874E+01  0.51100000000E-03 0. -1.
        -11    1    3    3    0    0 -0.23246528985E+00  0.67917170234E+00  0.80745640198E+01  0.81064109619E+01  0.51100000000E-03 0.  1.
         12    1    3    3    0    0 -0.94199672005E+01  0.45615497994E+00  0.32792377464E+02  0.34121604288E+02  0.00000000000E+00 0. -1.
</event>
<event>
 7    1  0.2653124E-010  0.4778727E+02  0.7816164E-02  0.1312668E+00
        -11   -1    0    0    0    0  0.00000000000E+00  0.00000000000E+00  0.45593999997E+02  0.45594000000E+02  0.51100000000E-03 0. -1.
         11   -1    0    0    0    0 -0.00000000000E+00 -0.00000000000E+00 -0.45593999997E+02  0.45594000000E+02  0.51100000000E-03 0.  1.
    9900012    2    1    2    0    0 -0.29440149329E+02  0.30129886877E+02 -0.10444652176E+02  0.47787271494E+02  0.20000002052E+02 0.  0.
         12    1    1    2    0    0  0.29440149329E+02 -0.30129886877E+02  0.10444652176E+02  0.43400728506E+02  0.00000000000E+00 0. -1.
         11    1    3    3    0    0 -0.18068198501E+01  0.39041897726E+01 -0.35356198897E+01  0.55684741193E+01  0.51100000000E-03 0. -1.
        -11    1    3    3    0    0 -0.24345474345E+02  0.23396031984E+02 -0.11719754674E+02  0.35741139931E+02  0.51100000000E-03 0.  1.
         12    1    3    3    0    0 -0.32878551340E+01  0.28296651200E+01  0.48107223876E+01  0.64776574442E+01  0.00000000000E+00 0. -1.
</event>
<event>
 7    1  0.2653124E-010  0.4778727E+02  0.7816164E-02  0.1312668E+00
        -11   -1    0    0    0    0  0.00000000000E+00  0.00000000000E+00  0.45593999997E+02  0.45594000000E+02  0.51100000000E-03 0.  1.
         11   -1    0    0    0    0 -0.00000000000E+00 -0.00000000000E+00 -0.45593999997E+02  0.45594000000E+02  0.51100000000E-03 0. -1.
    9900012    2    1    2    0    0  0.28614200948E+01  0.17906853518E+02  0.39430702993E+02  0.47787268827E+02  0.19999989889E+02 0.  0.
         12    1    1    2    0    0 -0.28614200948E+01 -0.17906853518E+02 -0.39430702993E+02  0.43400731173E+02  0.00000000000E+00 0. -1.
         11    1    3    3    0    0  0.38703911876E+01  0.10534358924E+02  0.12031445110E+02  0.16453216025E+02  0.51100000000E-03 0. -1.
        -11    1    3    3    0    0  0.11534267567E+01  0.85324277161E+01  0.79131382286E+01  0.11694035783E+02  0.51100000000E-03 0.  1.
         12    1    3    3    0    0 -0.21623978495E+01 -0.11599331218E+01  0.19486119654E+02  0.19640017018E+02  0.00000000000E+00 0. -1.
</event>
<event>
 7    1  0.2653124E-010  0.4778727E+02  0.7816164E-02  0.1312668E+00
        -11   -1    0    0    0    0  0.00000000000E+00  0.00000000000E+00  0.45593999997E+02  0.45594000000E+02  0.51100000000E-03 0.  1.
         11   -1    0    0    0    0 -0.00000000000E+00 -0.00000000000E+00 -0.45593999997E+02  0.45594000000E+02  0.51100000000E-03 0. -1.
    9900012    2    1    2    0    0 -0.10310934792E+02  0.41688295112E+02  0.62764938555E+01  0.47787266126E+02  0.19999977577E+02 0.  0.
         12    1    1    2    0    0  0.10310934792E+02 -0.41688295112E+02 -0.62764938555E+01  0.43400733874E+02  0.00000000000E+00 0. -1.
         11    1    3    3    0    0 -0.72827275999E+01  0.16067135107E+02  0.65492556305E+01  0.18817111931E+02  0.51100000000E-03 0. -1.
        -11    1    3    3    0    0 -0.76123341359E+01  0.11998226359E+02 -0.24923339818E+01  0.14426253696E+02  0.51100000000E-03 0.  1.
         12    1    3    3    0    0  0.45841269438E+01  0.13622933646E+02  0.22195722067E+01  0.14543900500E+02  0.00000000000E+00 0. -1.
</event>
<event>
 7    1  0.2653124E-010  0.4778728E+02  0.7816164E-02  0.1312668E+00
        -11   -1    0    0    0    0  0.00000000000E+00  0.00000000000E+00  0.45593999997E+02  0.45594000000E+02  0.51100000000E-03 0.  1.
         11   -1    0    0    0    0 -0.00000000000E+00 -0.00000000000E+00 -0.45593999997E+02  0.45594000000E+02  0.51100000000E-03 0. -1.
    9900012    2    1    2    0    0  0.27236897578E+02  0.16061425756E+01  0.33751954342E+02  0.47787277592E+02  0.20000029854E+02 0.  0.
         12    1    1    2    0    0 -0.27236897578E+02 -0.16061425756E+01 -0.33751954342E+02  0.43400722408E+02  0.00000000000E+00 0. -1.
         11    1    3    3    0    0  0.35670941604E+01  0.38733795852E+00 -0.79949639638E+00  0.36760557929E+01  0.51100000000E-03 0. -1.
        -11    1    3    3    0    0  0.13422853029E+02 -0.27019882441E+01  0.92232159982E+01  0.16508829077E+02  0.51100000000E-03 0.  1.
        -12    1    3    3    0    0  0.10246950389E+02  0.39207928612E+01  0.25328234740E+02  0.27602392722E+02  0.00000000000E+00 0.  1.
</event>
<event>
 7    1  0.2653124E-010  0.4778728E+02  0.7816164E-02  0.1312668E+00
        -11   -1    0    0    0    0  0.00000000000E+00  0.00000000000E+00  0.45593999997E+02  0.45594000000E+02  0.51100000000E-03 0.  1.
         11   -1    0    0    0    0 -0.00000000000E+00 -0.00000000000E+00 -0.45593999997E+02  0.45594000000E+02  0.51100000000E-03 0. -1.
    9900012    2    1    2    0    0 -0.21402098839E+02 -0.11689096076E+02  0.35901783416E+02  0.47787275879E+02  0.20000022041E+02 0.  0.
         12    1    1    2    0    0  0.21402098839E+02  0.11689096076E+02 -0.35901783416E+02  0.43400724121E+02  0.00000000000E+00 0. -1.
         11    1    3    3    0    0 -0.11318566170E+02 -0.17230968111E+01  0.67606280493E+01  0.13296055605E+02  0.51100000000E-03 0. -1.
        -11    1    3    3    0    0 -0.55163081301E+01  0.17770596680E+01  0.10455736230E+02  0.11954497766E+02  0.51100000000E-03 0.  1.
        -12    1    3    3    0    0 -0.45672245386E+01 -0.11743058932E+02  0.18685419137E+02  0.22536722508E+02  0.00000000000E+00 0.  1.
</event>
<event>
 7    1  0.2653124E-010  0.4778727E+02  0.7816164E-02  0.1312668E+00
        -11   -1    0    0    0    0  0.00000000000E+00  0.00000000000E+00  0.45593999997E+02  0.45594000000E+02  0.51100000000E-03 0.  1.
         11   -1    0    0    0    0 -0.00000000000E+00 -0.00000000000E+00 -0.45593999997E+02  0.45594000000E+02  0.51100000000E-03 0. -1.
    9900012    2    1    2    0    0  0.35319793536E+02  0.24741340159E+02  0.48991024380E+01  0.47787274972E+02  0.20000017908E+02 0.  0.
         12    1    1    2    0    0 -0.35319793536E+02 -0.24741340159E+02 -0.48991024380E+01  0.43400725028E+02  0.00000000000E+00 0. -1.
         11    1    3    3    0    0  0.72898565210E+01  0.92847641139E+01 -0.32142790929E+00  0.11808986786E+02  0.51100000000E-03 0. -1.
        -11    1    3    3    0    0  0.17506986688E+02  0.13151836579E+02  0.10146193405E+02  0.24133185226E+02  0.51100000000E-03 0.  1.
         12    1    3    3    0    0  0.10522950326E+02  0.23047394660E+01 -0.49256630573E+01  0.11845102960E+02  0.00000000000E+00 0. -1.
</event>
<event>
 7    1  0.2653124E-010  0.4778723E+02  0.7816164E-02  0.1312668E+00
        -11   -1    0    0    0    0  0.00000000000E+00  0.00000000000E+00  0.45593999997E+02  0.45594000000E+02  0.51100000000E-03 0. -1.
         11   -1    0    0    0    0 -0.00000000000E+00 -0.00000000000E+00 -0.45593999997E+02  0.45594000000E+02  0.51100000000E-03 0.  1.
    9900012    2    1    2    0    0 -0.30509976543E+02  0.26949381475E+02 -0.15049891179E+02  0.47787227483E+02  0.19999801385E+02 0.  0.
         12    1    1    2    0    0  0.30509976543E+02 -0.26949381475E+02  0.15049891179E+02  0.43400772517E+02  0.00000000000E+00 0. -1.
         11    1    3    3    0    0 -0.99776954059E+00  0.81347157658E+00  0.19433202179E+01  0.23310456436E+01  0.51100000000E-03 0. -1.
        -11    1    3    3    0    0 -0.10169514413E+02  0.10939006425E+02  0.10151290390E+01  0.14970349768E+02  0.51100000000E-03 0.  1.
        -12    1    3    3    0    0 -0.19342692590E+02  0.15196903473E+02 -0.18008340436E+02  0.30485832071E+02  0.00000000000E+00 0.  1.
</event>
<event>
 7    1  0.2653124E-010  0.4778726E+02  0.7816164E-02  0.1312668E+00
        -11   -1    0    0    0    0  0.00000000000E+00  0.00000000000E+00  0.45593999997E+02  0.45594000000E+02  0.51100000000E-03 0.  1.
         11   -1    0    0    0    0 -0.00000000000E+00 -0.00000000000E+00 -0.45593999997E+02  0.45594000000E+02  0.51100000000E-03 0. -1.
    9900012    2    1    2    0    0  0.29880113334E+02  0.11747760367E+02  0.29202617291E+02  0.47787263795E+02  0.19999966946E+02 0.  0.
         12    1    1    2    0    0 -0.29880113334E+02 -0.11747760367E+02 -0.29202617291E+02  0.43400736205E+02  0.00000000000E+00 0. -1.
         11    1    3    3    0    0  0.31376673241E+01 -0.98487268989E+00  0.36015139279E+01  0.48770722043E+01  0.51100000000E-03 0.  1.
        -11    1    3    3    0    0  0.91743368030E+01  0.55716754276E+01  0.20697524514E+02  0.23315221297E+02  0.51100000000E-03 0. -1.
         12    1    3    3    0    0  0.17568109207E+02  0.71609576295E+01  0.49035788487E+01  0.19594970294E+02  0.00000000000E+00 0. -1.
</event>
<event>
 7    1  0.2653124E-010  0.4778727E+02  0.7816164E-02  0.1312668E+00
        -11   -1    0    0    0    0  0.00000000000E+00  0.00000000000E+00  0.45593999997E+02  0.45594000000E+02  0.51100000000E-03 0. -1.
         11   -1    0    0    0    0 -0.00000000000E+00 -0.00000000000E+00 -0.45593999997E+02  0.45594000000E+02  0.51100000000E-03 0.  1.
    9900012    2    1    2    0    0  0.45793699265E+00 -0.38756689038E+02 -0.19527741006E+02  0.47787270510E+02  0.19999997563E+02 0.  0.
         12    1    1    2    0    0 -0.45793699265E+00  0.38756689038E+02  0.19527741006E+02  0.43400729490E+02  0.00000000000E+00 0. -1.
         11    1    3    3    0    0  0.11703573627E+01 -0.11222081219E+01 -0.49446915524E+01  0.52037546287E+01  0.51100000000E-03 0. -1.
        -11    1    3    3    0    0  0.24713236600E+01 -0.50636178843E+01 -0.70079333949E+01  0.89921519916E+01  0.51100000000E-03 0.  1.
         12    1    3    3    0    0 -0.31837440300E+01 -0.32570863031E+02 -0.75751160590E+01  0.33591363890E+02  0.00000000000E+00 0. -1.
</event>
<event>
 7    1  0.2653124E-010  0.4778727E+02  0.7816164E-02  0.1312668E+00
        -11   -1    0    0    0    0  0.00000000000E+00  0.00000000000E+00  0.45593999997E+02  0.45594000000E+02  0.51100000000E-03 0. -1.
         11   -1    0    0    0    0 -0.00000000000E+00 -0.00000000000E+00 -0.45593999997E+02  0.45594000000E+02  0.51100000000E-03 0.  1.
    9900012    2    1    2    0    0  0.30547658962E+02  0.30196343414E+02 -0.62164730175E+01  0.47787272352E+02  0.20000005961E+02 0.  0.
         12    1    1    2    0    0 -0.30547658962E+02 -0.30196343414E+02  0.62164730175E+01  0.43400727648E+02  0.00000000000E+00 0. -1.
         11    1    3    3    0    0  0.23065257457E+02  0.13308135346E+02 -0.49965492164E+00  0.26633854833E+02  0.51100000000E-03 0. -1.
        -11    1    3    3    0    0  0.85734260193E+01  0.94202477266E+01 -0.26698661177E+01  0.13014333878E+02  0.51100000000E-03 0.  1.
        -12    1    3    3    0    0 -0.10910245151E+01  0.74679603416E+01 -0.30469519782E+01  0.81390836409E+01  0.00000000000E+00 0.  1.
</event>
<event>
 7    1  0.2653124E-010  0.4778726E+02  0.7816164E-02  0.1312668E+00
        -11   -1    0    0    0    0  0.00000000000E+00  0.00000000000E+00  0.45593999997E+02  0.45594000000E+02  0.51100000000E-03 0. -1.
         11   -1    0    0    0    0 -0.00000000000E+00 -0.00000000000E+00 -0.45593999997E+02  0.45594000000E+02  0.51100000000E-03 0.  1.
    9900012    2    1    2    0    0  0.78170360742E+01  0.28105078147E+01 -0.42598345865E+02  0.47787261785E+02  0.19999957782E+02 0.  0.
         12    1    1    2    0    0 -0.78170360742E+01 -0.28105078147E+01  0.42598345865E+02  0.43400738215E+02  0.00000000000E+00 0. -1.
         11    1    3    3    0    0  0.42093393656E+00  0.41561833060E+00  0.10857459429E+01  0.12364337788E+01  0.51100000000E-03 0. -1.
        -11    1    3    3    0    0 -0.42208268080E+00  0.61589871032E+01 -0.98741546147E+01  0.11645179498E+02  0.51100000000E-03 0.  1.
        -12    1    3    3    0    0  0.78181848185E+01 -0.37640976191E+01 -0.33809937193E+02  0.34905648508E+02  0.00000000000E+00 0.  1.
</event>
<event>
 7    1  0.2653124E-010  0.4778727E+02  0.7816164E-02  0.1312668E+00
        -11   -1    0    0    0    0  0.00000000000E+00  0.00000000000E+00  0.45593999997E+02  0.45594000000E+02  0.51100000000E-03 0.  1.
         11   -1    0    0    0    0 -0.00000000000E+00 -0.00000000000E+00 -0.45593999997E+02  0.45594000000E+02  0.51100000000E-03 0. -1.
    9900012    2    1    2    0    0  0.15100693283E+02  0.97398696296E+01  0.39506039135E+02  0.47787272746E+02  0.20000007760E+02 0.  0.
         12    1    1    2    0    0 -0.15100693283E+02 -0.97398696296E+01 -0.39506039135E+02  0.43400727254E+02  0.00000000000E+00 0. -1.
         11    1    3    3    0    0 -0.12452975136E+00 -0.44984921190E+00  0.99031392239E+01  0.99141332814E+01  0.51100000000E-03 0. -1.
        -11    1    3    3    0    0  0.25640204102E+01  0.33188771144E+00  0.17715928441E+02  0.17903588213E+02  0.51100000000E-03 0.  1.
        -12    1    3    3    0    0  0.12661202624E+02  0.98578311301E+01  0.11886971470E+02  0.19969551252E+02  0.00000000000E+00 0.  1.
</event>
<event>
 7    1  0.2653124E-010  0.4778727E+02  0.7816164E-02  0.1312668E+00
        -11   -1    0    0    0    0  0.00000000000E+00  0.00000000000E+00  0.45593999997E+02  0.45594000000E+02  0.51100000000E-03 0.  1.
         11   -1    0    0    0    0 -0.00000000000E+00 -0.00000000000E+00 -0.45593999997E+02  0.45594000000E+02  0.51100000000E-03 0. -1.
    9900012    2    1    2    0    0  0.88772677743E+01  0.73340049852E+01  0.41845304901E+02  0.47787273572E+02  0.20000011522E+02 0.  0.
         12    1    1    2    0    0 -0.88772677743E+01 -0.73340049852E+01 -0.41845304901E+02  0.43400726428E+02  0.00000000000E+00 0. -1.
         11    1    3    3    0    0  0.27037667119E+01 -0.79717144023E+00  0.12432644212E+02  0.12748195131E+02  0.51100000000E-03 0.  1.
        -11    1    3    3    0    0  0.49509053261E+01 -0.31283355659E+01  0.36601696048E+01  0.69061413798E+01  0.51100000000E-03 0. -1.
         12    1    3    3    0    0  0.12225957363E+01  0.11259511991E+02  0.25752491084E+02  0.28132937061E+02  0.00000000000E+00 0. -1.
</event>
<event>
 7    1  0.2653124E-010  0.4778728E+02  0.7816164E-02  0.1312668E+00
        -11   -1    0    0    0    0  0.00000000000E+00  0.00000000000E+00  0.45593999997E+02  0.45594000000E+02  0.51100000000E-03 0.  1.
         11   -1    0    0    0    0 -0.00000000000E+00 -0.00000000000E+00 -0.45593999997E+02  0.45594000000E+02  0.51100000000E-03 0. -1.
    9900012    2    1    2    0    0 -0.19083444177E+02  0.27196661453E+02  0.27924652327E+02  0.47787280612E+02  0.20000043621E+02 0.  0.
         12    1    1    2    0    0  0.19083444177E+02 -0.27196661453E+02 -0.27924652327E+02  0.43400719388E+02  0.00000000000E+00 0. -1.
         11    1    3    3    0    0 -0.36841768054E+01  0.82735477794E+01  0.12612200604E+02  0.15527148996E+02  0.51100000000E-03 0. -1.
        -11    1    3    3    0    0 -0.22590015734E+01 -0.22530643813E+01  0.33146942001E+01  0.46007157178E+01  0.51100000000E-03 0.  1.
         12    1    3    3    0    0 -0.13140265799E+02  0.21176178055E+02  0.11997757522E+02  0.27659415898E+02  0.00000000000E+00 0. -1.
</event>
<event>
 7    1  0.2653124E-010  0.4778727E+02  0.7816164E-02  0.1312668E+00
        -11   -1    0    0    0    0  0.00000000000E+00  0.00000000000E+00  0.45593999997E+02  0.45594000000E+02  0.51100000000E-03 0. -1.
         11   -1    0    0    0    0 -0.00000000000E+00 -0.00000000000E+00 -0.45593999997E+02  0.45594000000E+02  0.51100000000E-03 0.  1.
    9900012    2    1    2    0    0 -0.26596624404E+02  0.34287783344E+02  0.76867572835E+00  0.47787269837E+02  0.19999994495E+02 0.  0.
         12    1    1    2    0    0  0.26596624404E+02 -0.34287783344E+02 -0.76867572835E+00  0.43400730163E+02  0.00000000000E+00 0. -1.
         11    1    3    3    0    0 -0.66683049328E+01  0.77170464539E+01  0.46265966646E+00  0.10209463790E+02  0.51100000000E-03 0.  1.
        -11    1    3    3    0    0 -0.19640364342E+02  0.14519951011E+02 -0.40546063106E+01  0.24759093712E+02  0.51100000000E-03 0. -1.
         12    1    3    3    0    0 -0.28795512899E+00  0.12050785879E+02  0.43606223725E+01  0.12818712335E+02  0.00000000000E+00 0. -1.
</event>
<event>
 7    1  0.2653124E-010  0.4778728E+02  0.7816164E-02  0.1312668E+00
        -11   -1    0    0    0    0  0.00000000000E+00  0.00000000000E+00  0.45593999997E+02  0.45594000000E+02  0.51100000000E-03 0. -1.
         11   -1    0    0    0    0 -0.00000000000E+00 -0.00000000000E+00 -0.45593999997E+02  0.45594000000E+02  0.51100000000E-03 0.  1.
    9900012    2    1    2    0    0  0.28172163348E+02  0.32709931575E+02 -0.44734470978E+01  0.47787284104E+02  0.20000059542E+02 0.  0.
         12    1    1    2    0    0 -0.28172163348E+02 -0.32709931575E+02  0.44734470978E+01  0.43400715896E+02  0.00000000000E+00 0. -1.
         11    1    3    3    0    0  0.84148226806E+01  0.62339960773E+01  0.18182674402E+01  0.10629113067E+02  0.51100000000E-03 0.  1.
        -11    1    3    3    0    0  0.29915371152E+01 -0.14701577003E+01  0.14921046507E+01  0.36519904881E+01  0.51100000000E-03 0. -1.
         12    1    3    3    0    0  0.16765803552E+02  0.27946093198E+02 -0.77838191888E+01  0.33506180549E+02  0.00000000000E+00 0. -1.
</event>
<event>
 7    1  0.2653124E-010  0.4778727E+02  0.7816164E-02  0.1312668E+00
        -11   -1    0    0    0    0  0.00000000000E+00  0.00000000000E+00  0.45593999997E+02  0.45594000000E+02  0.51100000000E-03 0.  1.
         11   -1    0    0    0    0 -0.00000000000E+00 -0.00000000000E+00 -0.45593999997E+02  0.45594000000E+02  0.51100000000E-03 0. -1.
    9900012    2    1    2    0    0  0.16288220090E+02  0.36982054713E+02  0.15831766955E+02  0.47787270405E+02  0.19999997083E+02 0.  0.
         12    1    1    2    0    0 -0.16288220090E+02 -0.36982054713E+02 -0.15831766955E+02  0.43400729595E+02  0.00000000000E+00 0. -1.
         11    1    3    3    0    0 -0.11449157913E+01  0.14032034413E+01  0.32540110113E+01  0.37240300737E+01  0.51100000000E-03 0. -1.
        -11    1    3    3    0    0  0.94534872064E+01  0.73690998453E+01 -0.42176729073E+00  0.11993745904E+02  0.51100000000E-03 0.  1.
        -12    1    3    3    0    0  0.79796486746E+01  0.28209751427E+02  0.12999523234E+02  0.32069494427E+02  0.00000000000E+00 0.  1.
</event>
<event>
 7    1  0.2653124E-010  0.4778727E+02  0.7816164E-02  0.1312668E+00
        -11   -1    0    0    0    0  0.00000000000E+00  0.00000000000E+00  0.45593999997E+02  0.45594000000E+02  0.51100000000E-03 0.  1.
         11   -1    0    0    0    0 -0.00000000000E+00 -0.00000000000E+00 -0.45593999997E+02  0.45594000000E+02  0.51100000000E-03 0. -1.
    9900012    2    1    2    0    0 -0.41122454793E+00 -0.38523955664E+02  0.19983968700E+02  0.47787271082E+02  0.20000000173E+02 0.  0.
         12    1    1    2    0    0  0.41122454793E+00  0.38523955664E+02 -0.19983968700E+02  0.43400728918E+02  0.00000000000E+00 0. -1.
         11    1    3    3    0    0 -0.14983880597E+01 -0.45287901493E+01  0.34855136945E+01  0.59079533656E+01  0.51100000000E-03 0. -1.
        -11    1    3    3    0    0 -0.71396785012E+01 -0.82547563041E+01  0.80657578124E+01  0.13571015441E+02  0.51100000000E-03 0.  1.
         12    1    3    3    0    0  0.82268420129E+01 -0.25740409210E+02  0.84326971927E+01  0.28308302276E+02  0.00000000000E+00 0. -1.
</event>
<event>
 7    1  0.2653124E-010  0.4778727E+02  0.7816164E-02  0.1312668E+00
        -11   -1    0    0    0    0  0.00000000000E+00  0.00000000000E+00  0.45593999997E+02  0.45594000000E+02  0.51100000000E-03 0.  1.
         11   -1    0    0    0    0 -0.00000000000E+00 -0.00000000000E+00 -0.45593999997E+02  0.45594000000E+02  0.51100000000E-03 0. -1.
    9900012    2    1    2    0    0  0.25235853350E+02  0.27266952573E+02 -0.22434087626E+02  0.47787270921E+02  0.19999999438E+02 0.  0.
         12    1    1    2    0    0 -0.25235853350E+02 -0.27266952573E+02  0.22434087626E+02  0.43400729079E+02  0.00000000000E+00 0. -1.
         11    1    3    3    0    0  0.16078438853E+02  0.17737668473E+02 -0.16192509233E+02  0.28902221962E+02  0.51100000000E-03 0. -1.
        -11    1    3    3    0    0  0.90944695683E+01  0.22105812771E+01 -0.67637333871E+01  0.11547473139E+02  0.51100000000E-03 0.  1.
         12    1    3    3    0    0  0.62944928835E-01  0.73187028228E+01  0.52215499399E+00  0.73375758197E+01  0.00000000000E+00 0. -1.
</event>
<event>
 7    1  0.2653124E-010  0.4778726E+02  0.7816164E-02  0.1312668E+00
        -11   -1    0    0    0    0  0.00000000000E+00  0.00000000000E+00  0.45593999997E+02  0.45594000000E+02  0.51100000000E-03 0.  1.
         11   -1    0    0    0    0 -0.00000000000E+00 -0.00000000000E+00 -0.45593999997E+02  0.45594000000E+02  0.51100000000E-03 0. -1.
    9900012    2    1    2    0    0  0.56503574461E+00  0.20098347149E+02  0.38462465972E+02  0.47787261387E+02  0.19999955969E+02 0.  0.
         12    1    1    2    0    0 -0.56503574461E+00 -0.20098347149E+02 -0.38462465972E+02  0.43400738613E+02  0.00000000000E+00 0. -1.
         11    1    3    3    0    0  0.54821089765E+01  0.11957077296E+02  0.71918416923E+01  0.14991591093E+02  0.51100000000E-03 0. -1.
        -11    1    3    3    0    0  0.10422904089E+00  0.15596130387E+01  0.61812406997E+01  0.63758131538E+01  0.51100000000E-03 0.  1.
         12    1    3    3    0    0 -0.50213022728E+01  0.65816568143E+01  0.25089383580E+02  0.26419857141E+02  0.00000000000E+00 0. -1.
</event>
<event>
 7    1  0.2653124E-010  0.4778727E+02  0.7816164E-02  0.1312668E+00
        -11   -1    0    0    0    0  0.00000000000E+00  0.00000000000E+00  0.45593999997E+02  0.45594000000E+02  0.51100000000E-03 0.  1.
         11   -1    0    0    0    0 -0.00000000000E+00 -0.00000000000E+00 -0.45593999997E+02  0.45594000000E+02  0.51100000000E-03 0. -1.
    9900012    2    1    2    0    0  0.37341094740E+02  0.17012747712E+02 -0.14136201531E+02  0.47787272647E+02  0.20000007306E+02 0.  0.
         12    1    1    2    0    0 -0.37341094740E+02 -0.17012747712E+02  0.14136201531E+02  0.43400727353E+02  0.00000000000E+00 0. -1.
         11    1    3    3    0    0  0.54401635459E+01  0.45009131019E+01  0.19697935200E+01  0.73303263863E+01  0.51100000000E-03 0. -1.
        -11    1    3    3    0    0  0.28492350868E+02  0.13240877213E+02 -0.92275510924E+01  0.32745726237E+02  0.51100000000E-03 0.  1.
         12    1    3    3    0    0  0.34085803255E+01 -0.72904260296E+00 -0.68784439590E+01  0.77112200234E+01  0.00000000000E+00 0. -1.
</event>
<event>
 7    1  0.2653124E-010  0.4778730E+02  0.7816164E-02  0.1312668E+00
        -11   -1    0    0    0    0  0.00000000000E+00  0.00000000000E+00  0.45593999997E+02  0.45594000000E+02  0.51100000000E-03 0.  1.
         11   -1    0    0    0    0 -0.00000000000E+00 -0.00000000000E+00 -0.45593999997E+02  0.45594000000E+02  0.51100000000E-03 0. -1.
    9900012    2    1    2    0    0  0.56824711007E-01  0.10064375525E+02  0.42217604865E+02  0.47787296731E+02  0.20000117114E+02 0.  0.
         12    1    1    2    0    0 -0.56824711007E-01 -0.10064375525E+02 -0.42217604865E+02  0.43400703269E+02  0.00000000000E+00 0. -1.
         11    1    3    3    0    0 -0.25735730229E+01  0.76385821664E+01  0.16695934685E+02  0.18539834166E+02  0.51100000000E-03 0.  1.
        -11    1    3    3    0    0 -0.90832733605E+00  0.68574726139E+01  0.68562754034E+01  0.97395329389E+01  0.51100000000E-03 0. -1.
        -12    1    3    3    0    0  0.35387250699E+01 -0.44316792557E+01  0.18665394776E+02  0.19507929626E+02  0.00000000000E+00 0.  1.
</event>
<event>
 7    1  0.2653124E-010  0.4778731E+02  0.7816164E-02  0.1312668E+00
        -11   -1    0    0    0    0  0.00000000000E+00  0.00000000000E+00  0.45593999997E+02  0.45594000000E+02  0.51100000000E-03 0. -1.
         11   -1    0    0    0    0 -0.00000000000E+00 -0.00000000000E+00 -0.45593999997E+02  0.45594000000E+02  0.51100000000E-03 0.  1.
    9900012    2    1    2    0    0  0.32115831086E+02 -0.27005507076E+02 -0.11085838709E+02  0.47787310620E+02  0.20000180440E+02 0.  0.
         12    1    1    2    0    0 -0.32115831086E+02  0.27005507076E+02  0.11085838709E+02  0.43400689380E+02  0.00000000000E+00 0. -1.
         11    1    3    3    0    0  0.40925069715E+01 -0.20038373415E+01 -0.56396884768E+01  0.72505216212E+01  0.51100000000E-03 0. -1.
        -11    1    3    3    0    0  0.26872295532E+01 -0.22282007008E+01  0.38772384511E+01  0.52171888314E+01  0.51100000000E-03 0.  1.
        -12    1    3    3    0    0  0.25336094561E+02 -0.22773469034E+02 -0.93233886833E+01  0.35319600167E+02  0.00000000000E+00 0.  1.
</event>
<event>
 7    1  0.2653124E-010  0.4778727E+02  0.7816164E-02  0.1312668E+00
        -11   -1    0    0    0    0  0.00000000000E+00  0.00000000000E+00  0.45593999997E+02  0.45594000000E+02  0.51100000000E-03 0. -1.
         11   -1    0    0    0    0 -0.00000000000E+00 -0.00000000000E+00 -0.45593999997E+02  0.45594000000E+02  0.51100000000E-03 0.  1.
    9900012    2    1    2    0    0  0.81340016057E-01 -0.57651046742E+01 -0.43016047448E+02  0.47787269751E+02  0.19999994105E+02 0.  0.
         12    1    1    2    0    0 -0.81340016057E-01  0.57651046742E+01  0.43016047448E+02  0.43400730249E+02  0.00000000000E+00 0. -1.
         11    1    3    3    0    0  0.36330551553E+01  0.19645633412E+01 -0.12989388499E+01  0.43296467847E+01  0.51100000000E-03 0. -1.
        -11    1    3    3    0    0  0.17006112476E+01  0.65228836893E+00 -0.31160618328E+01  0.36093490187E+01  0.51100000000E-03 0.  1.
        -12    1    3    3    0    0 -0.52523263869E+01 -0.83819563843E+01 -0.38601046765E+02  0.39848273948E+02  0.00000000000E+00 0.  1.
</event>
<event>
 7    1  0.2653124E-010  0.4778727E+02  0.7816164E-02  0.1312668E+00
        -11   -1    0    0    0    0  0.00000000000E+00  0.00000000000E+00  0.45593999997E+02  0.45594000000E+02  0.51100000000E-03 0.  1.
         11   -1    0    0    0    0 -0.00000000000E+00 -0.00000000000E+00 -0.45593999997E+02  0.45594000000E+02  0.51100000000E-03 0. -1.
    9900012    2    1    2    0    0  0.12771958625E+02 -0.39510333700E+02 -0.12626724282E+02  0.47787267721E+02  0.19999984849E+02 0.  0.
         12    1    1    2    0    0 -0.12771958625E+02  0.39510333700E+02  0.12626724282E+02  0.43400732279E+02  0.00000000000E+00 0. -1.
         11    1    3    3    0    0  0.74162906867E+01 -0.19384709063E+02 -0.54130389347E+00  0.20762016356E+02  0.51100000000E-03 0. -1.
        -11    1    3    3    0    0 -0.18392325610E+01 -0.13966863118E+02 -0.41965692111E+01  0.14699225666E+02  0.51100000000E-03 0.  1.
         12    1    3    3    0    0  0.71949004994E+01 -0.61587615193E+01 -0.78888511773E+01  0.12326025699E+02  0.00000000000E+00 0. -1.
</event>
<event>
 7    1  0.2653124E-010  0.4778727E+02  0.7816164E-02  0.1312668E+00
        -11   -1    0    0    0    0  0.00000000000E+00  0.00000000000E+00  0.45593999997E+02  0.45594000000E+02  0.51100000000E-03 0.  1.
         11   -1    0    0    0    0 -0.00000000000E+00 -0.00000000000E+00 -0.45593999997E+02  0.45594000000E+02  0.51100000000E-03 0. -1.
    9900012    2    1    2    0    0  0.18883733116E+02  0.23368512679E+02  0.31319972240E+02  0.47787269334E+02  0.19999992202E+02 0.  0.
         12    1    1    2    0    0 -0.18883733116E+02 -0.23368512679E+02 -0.31319972240E+02  0.43400730666E+02  0.00000000000E+00 0. -1.
         11    1    3    3    0    0  0.12496553992E+02  0.14836162167E+02  0.19414953477E+02  0.27444780711E+02  0.51100000000E-03 0. -1.
        -11    1    3    3    0    0  0.80677786310E+01  0.87591737862E+01  0.44752440308E+01  0.12721634598E+02  0.51100000000E-03 0.  1.
         12    1    3    3    0    0 -0.16805995071E+01 -0.22682327334E+00  0.74297747317E+01  0.76208540246E+01  0.00000000000E+00 0. -1.
</event>
<event>
 7    1  0.2653124E-010  0.4778727E+02  0.7816164E-02  0.1312668E+00
        -11   -1    0    0    0    0  0.00000000000E+00  0.00000000000E+00  0.45593999997E+02  0.45594000000E+02  0.51100000000E-03 0.  1.
         11   -1    0    0    0    0 -0.00000000000E+00 -0.00000000000E+00 -0.45593999997E+02  0.45594000000E+02  0.51100000000E-03 0. -1.
    9900012    2    1    2    0    0 -0.53739801281E+01  0.39264279506E+02  0.17693506616E+02  0.47787268624E+02  0.19999988966E+02 0.  0.
         12    1    1    2    0    0  0.53739801281E+01 -0.39264279506E+02 -0.17693506616E+02  0.43400731376E+02  0.00000000000E+00 0. -1.
         11    1    3    3    0    0 -0.59878060803E+01  0.33665782029E+02  0.19015493179E+02  0.39125793057E+02  0.51100000000E-03 0. -1.
        -11    1    3    3    0    0 -0.11603048311E+01 -0.48392424966E+00  0.12964048855E+01  0.18058670684E+01  0.51100000000E-03 0.  1.
         12    1    3    3    0    0  0.17741307833E+01  0.60824217273E+01 -0.26183914488E+01  0.68556084985E+01  0.00000000000E+00 0. -1.
</event>
<event>
 7    1  0.2653124E-010  0.4778727E+02  0.7816164E-02  0.1312668E+00
        -11   -1    0    0    0    0  0.00000000000E+00  0.00000000000E+00  0.45593999997E+02  0.45594000000E+02  0.51100000000E-03 0.  1.
         11   -1    0    0    0    0 -0.00000000000E+00 -0.00000000000E+00 -0.45593999997E+02  0.45594000000E+02  0.51100000000E-03 0. -1.
    9900012    2    1    2    0    0 -0.20237490543E+02  0.26916791496E+02  0.27377971344E+02  0.47787274167E+02  0.20000014238E+02 0.  0.
         12    1    1    2    0    0  0.20237490543E+02 -0.26916791496E+02 -0.27377971344E+02  0.43400725833E+02  0.00000000000E+00 0. -1.
         11    1    3    3    0    0  0.19291350721E+01 -0.27261721775E+00  0.13759019877E+01  0.23851601235E+01  0.51100000000E-03 0.  1.
        -11    1    3    3    0    0 -0.65305035282E+01  0.11658935385E+01  0.28414116810E+01  0.72166754587E+01  0.51100000000E-03 0. -1.
        -12    1    3    3    0    0 -0.15636122087E+02  0.26023515175E+02  0.23160657675E+02  0.38185438585E+02  0.00000000000E+00 0.  1.
</event>
<event>
 7    1  0.2653124E-010  0.4778726E+02  0.7816164E-02  0.1312668E+00
        -11   -1    0    0    0    0  0.00000000000E+00  0.00000000000E+00  0.45593999997E+02  0.45594000000E+02  0.51100000000E-03 0. -1.
         11   -1    0    0    0    0 -0.00000000000E+00 -0.00000000000E+00 -0.45593999997E+02  0.45594000000E+02  0.51100000000E-03 0.  1.
    9900012    2    1    2    0    0  0.30609867117E+02 -0.13139280017E+02 -0.27821214714E+02  0.47787255392E+02  0.19999928636E+02 0.  0.
         12    1    1    2    0    0 -0.30609867117E+02  0.13139280017E+02  0.27821214714E+02  0.43400744608E+02  0.00000000000E+00 0. -1.
         11    1    3    3    0    0 -0.11317750935E+01 -0.53765525087E-01 -0.28464938720E+01  0.30637123263E+01  0.51100000000E-03 0. -1.
        -11    1    3    3    0    0  0.69070589027E+01 -0.83516748178E+01 -0.30488220063E+01  0.11258474623E+02  0.51100000000E-03 0.  1.
        -12    1    3    3    0    0  0.24834583308E+02 -0.47338396746E+01 -0.21925898836E+02  0.33465068443E+02  0.00000000000E+00 0.  1.
</event>
<event>
 7    1  0.2653124E-010  0.4778727E+02  0.7816164E-02  0.1312668E+00
        -11   -1    0    0    0    0  0.00000000000E+00  0.00000000000E+00  0.45593999997E+02  0.45594000000E+02  0.51100000000E-03 0. -1.
         11   -1    0    0    0    0 -0.00000000000E+00 -0.00000000000E+00 -0.45593999997E+02  0.45594000000E+02  0.51100000000E-03 0.  1.
    9900012    2    1    2    0    0  0.34957805514E+02 -0.25274518974E+02 -0.47721968559E+01  0.47787270299E+02  0.19999996602E+02 0.  0.
         12    1    1    2    0    0 -0.34957805514E+02  0.25274518974E+02  0.47721968559E+01  0.43400729701E+02  0.00000000000E+00 0. -1.
         11    1    3    3    0    0  0.23834405991E+00  0.81814509173E+00  0.11119482983E+00  0.85937991210E+00  0.51100000000E-03 0. -1.
        -11    1    3    3    0    0  0.21279007087E+02 -0.15265617344E+02 -0.11289775002E+02  0.28518314034E+02  0.51100000000E-03 0.  1.
        -12    1    3    3    0    0  0.13440454367E+02 -0.10827046721E+02  0.64063833158E+01  0.18409576353E+02  0.00000000000E+00 0.  1.
</event>
<event>
 7    1  0.2653124E-010  0.4778727E+02  0.7816164E-02  0.1312668E+00
        -11   -1    0    0    0    0  0.00000000000E+00  0.00000000000E+00  0.45593999997E+02  0.45594000000E+02  0.51100000000E-03 0.  1.
         11   -1    0    0    0    0 -0.00000000000E+00 -0.00000000000E+00 -0.45593999997E+02  0.45594000000E+02  0.51100000000E-03 0. -1.
    9900012    2    1    2    0    0  0.66485305612E+00 -0.41687659729E+02  0.12054894273E+02  0.47787268679E+02  0.19999989213E+02 0.  0.
         12    1    1    2    0    0 -0.66485305612E+00  0.41687659729E+02 -0.12054894273E+02  0.43400731321E+02  0.00000000000E+00 0. -1.
         11    1    3    3    0    0  0.54918460943E+01 -0.46211867371E+01  0.25728028286E+01  0.76246347479E+01  0.51100000000E-03 0. -1.
        -11    1    3    3    0    0 -0.11224164555E+01 -0.17897579378E+02  0.10190989525E+02  0.20626183215E+02  0.51100000000E-03 0.  1.
         12    1    3    3    0    0 -0.37045765827E+01 -0.19168893614E+02 -0.70889808063E+00  0.19536450715E+02  0.00000000000E+00 0. -1.
</event>
<event>
 7    1  0.2653124E-010  0.4778727E+02  0.7816164E-02  0.1312668E+00
        -11   -1    0    0    0    0  0.00000000000E+00  0.00000000000E+00  0.45593999997E+02  0.45594000000E+02  0.51100000000E-03 0. -1.
         11   -1    0    0    0    0 -0.00000000000E+00 -0.00000000000E+00 -0.45593999997E+02  0.45594000000E+02  0.51100000000E-03 0.  1.
    9900012    2    1    2    0    0  0.43325600934E+02  0.14873928089E+01 -0.20744007137E+01  0.47787272218E+02  0.20000005351E+02 0.  0.
         12    1    1    2    0    0 -0.43325600934E+02 -0.14873928089E+01  0.20744007137E+01  0.43400727782E+02  0.00000000000E+00 0. -1.
         11    1    3    3    0    0  0.13424233680E+01 -0.28766897501E+00  0.18635021320E+01  0.23146261890E+01  0.51100000000E-03 0. -1.
        -11    1    3    3    0    0  0.34404124058E+02  0.79890776772E+01 -0.47534098035E+01  0.35637957564E+02  0.51100000000E-03 0.  1.
         12    1    3    3    0    0  0.75790535085E+01 -0.62140158933E+01  0.81550695790E+00  0.98346884651E+01  0.00000000000E+00 0. -1.
</event>
<event>
 7    1  0.2653124E-010  0.4778727E+02  0.7816164E-02  0.1312668E+00
        -11   -1    0    0    0    0  0.00000000000E+00  0.00000000000E+00  0.45593999997E+02  0.45594000000E+02  0.51100000000E-03 0.  1.
         11   -1    0    0    0    0 -0.00000000000E+00 -0.00000000000E+00 -0.45593999997E+02  0.45594000000E+02  0.51100000000E-03 0. -1.
    9900012    2    1    2    0    0  0.10630697114E+02  0.27013639813E+02  0.32262596764E+02  0.47787267207E+02  0.19999982503E+02 0.  0.
         12    1    1    2    0    0 -0.10630697114E+02 -0.27013639813E+02 -0.32262596764E+02  0.43400732793E+02  0.00000000000E+00 0. -1.
         11    1    3    3    0    0  0.45663769329E+01  0.48732216154E+01 -0.53499381740E+00  0.66997243117E+01  0.51100000000E-03 0. -1.
        -11    1    3    3    0    0  0.60773368064E+01  0.58090381142E+01  0.11713358592E+02  0.14418103767E+02  0.51100000000E-03 0.  1.
        -12    1    3    3    0    0 -0.13016625325E-01  0.16331380083E+02  0.21084231989E+02  0.26669439128E+02  0.00000000000E+00 0.  1.
</event>
<event>
 7    1  0.2653124E-010  0.4778726E+02  0.7816164E-02  0.1312668E+00
        -11   -1    0    0    0    0  0.00000000000E+00  0.00000000000E+00  0.45593999997E+02  0.45594000000E+02  0.51100000000E-03 0.  1.
         11   -1    0    0    0    0 -0.00000000000E+00 -0.00000000000E+00 -0.45593999997E+02  0.45594000000E+02  0.51100000000E-03 0. -1.
    9900012    2    1    2    0    0 -0.17623986159E+02  0.34882313606E+02  0.18874411127E+02  0.47787261688E+02  0.19999957341E+02 0.  0.
         12    1    1    2    0    0  0.17623986159E+02 -0.34882313606E+02 -0.18874411127E+02  0.43400738312E+02  0.00000000000E+00 0. -1.
         11    1    3    3    0    0 -0.47060249099E+01  0.12331636197E+01 -0.23569436784E+01  0.54057882616E+01  0.51100000000E-03 0. -1.
        -11    1    3    3    0    0 -0.31868244531E+01  0.63223235796E+01  0.13320307250E+01  0.72042995255E+01  0.51100000000E-03 0.  1.
        -12    1    3    3    0    0 -0.97311367960E+01  0.27326826406E+02  0.19899324081E+02  0.35177173901E+02  0.00000000000E+00 0.  1.
</event>
<event>
 7    1  0.2653124E-010  0.4778727E+02  0.7816164E-02  0.1312668E+00
        -11   -1    0    0    0    0  0.00000000000E+00  0.00000000000E+00  0.45593999997E+02  0.45594000000E+02  0.51100000000E-03 0.  1.
         11   -1    0    0    0    0 -0.00000000000E+00 -0.00000000000E+00 -0.45593999997E+02  0.45594000000E+02  0.51100000000E-03 0. -1.
    9900012    2    1    2    0    0 -0.29677158011E+02  0.71641932926E+01 -0.30847431211E+02  0.47787269759E+02  0.19999994139E+02 0.  0.
         12    1    1    2    0    0  0.29677158011E+02 -0.71641932926E+01  0.30847431211E+02  0.43400730241E+02  0.00000000000E+00 0. -1.
         11    1    3    3    0    0 -0.11295439196E+02  0.81144624268E+01 -0.84704974766E+01  0.16284372105E+02  0.51100000000E-03 0. -1.
        -11    1    3    3    0    0 -0.12163310304E+02  0.33636428210E+01 -0.19853741429E+02  0.23525119756E+02  0.51100000000E-03 0.  1.
        -12    1    3    3    0    0 -0.62184085115E+01 -0.43139119551E+01 -0.25231923059E+01  0.79777778977E+01  0.00000000000E+00 0.  1.
</event>
<event>
 7    1  0.2653124E-010  0.4778727E+02  0.7816164E-02  0.1312668E+00
        -11   -1    0    0    0    0  0.00000000000E+00  0.00000000000E+00  0.45593999997E+02  0.45594000000E+02  0.51100000000E-03 0. -1.
         11   -1    0    0    0    0 -0.00000000000E+00 -0.00000000000E+00 -0.45593999997E+02  0.45594000000E+02  0.51100000000E-03 0.  1.
    9900012    2    1    2    0    0 -0.19928384868E+02 -0.88057429630E+01 -0.37535872522E+02  0.47787270069E+02  0.19999995551E+02 0.  0.
         12    1    1    2    0    0  0.19928384868E+02  0.88057429630E+01  0.37535872522E+02  0.43400729931E+02  0.00000000000E+00 0. -1.
         11    1    3    3    0    0 -0.35124774376E+00  0.36811352082E+00 -0.30268629230E+01  0.30693292358E+01  0.51100000000E-03 0. -1.
        -11    1    3    3    0    0 -0.16001980386E+02 -0.49153154163E+01 -0.98137867580E+01  0.19404486922E+02  0.51100000000E-03 0.  1.
        -12    1    3    3    0    0 -0.35751567384E+01 -0.42585410675E+01 -0.24695222841E+02  0.25313453911E+02  0.00000000000E+00 0.  1.
</event>
<event>
 7    1  0.2653124E-010  0.4778727E+02  0.7816164E-02  0.1312668E+00
        -11   -1    0    0    0    0  0.00000000000E+00  0.00000000000E+00  0.45593999997E+02  0.45594000000E+02  0.51100000000E-03 0. -1.
         11   -1    0    0    0    0 -0.00000000000E+00 -0.00000000000E+00 -0.45593999997E+02  0.45594000000E+02  0.51100000000E-03 0.  1.
    9900012    2    1    2    0    0  0.12934985786E+02 -0.40440824163E+02 -0.89916232746E+01  0.47787269529E+02  0.19999993091E+02 0.  0.
         12    1    1    2    0    0 -0.12934985786E+02  0.40440824163E+02  0.89916232746E+01  0.43400730471E+02  0.00000000000E+00 0. -1.
         11    1    3    3    0    0 -0.71869889872E+00 -0.77960197232E+01 -0.59294622149E+01  0.98210475027E+01  0.51100000000E-03 0.  1.
        -11    1    3    3    0    0 -0.11139039479E+01 -0.41565983622E+01 -0.39844888455E+01  0.58646605674E+01  0.51100000000E-03 0. -1.
        -12    1    3    3    0    0  0.14767588633E+02 -0.28488206078E+02  0.92232778569E+00  0.32101561459E+02  0.00000000000E+00 0.  1.
</event>
<event>
 7    1  0.2653124E-010  0.4778727E+02  0.7816164E-02  0.1312668E+00
        -11   -1    0    0    0    0  0.00000000000E+00  0.00000000000E+00  0.45593999997E+02  0.45594000000E+02  0.51100000000E-03 0.  1.
         11   -1    0    0    0    0 -0.00000000000E+00 -0.00000000000E+00 -0.45593999997E+02  0.45594000000E+02  0.51100000000E-03 0. -1.
    9900012    2    1    2    0    0  0.12841796933E+02 -0.61351238009E+01  0.41000874930E+02  0.47787271463E+02  0.20000001907E+02 0.  0.
         12    1    1    2    0    0 -0.12841796933E+02  0.61351238009E+01 -0.41000874930E+02  0.43400728537E+02  0.00000000000E+00 0. -1.
         11    1    3    3    0    0  0.35943545153E+01  0.57950213707E+01  0.89772412993E+01  0.11273531775E+02  0.51100000000E-03 0. -1.
        -11    1    3    3    0    0  0.11930608024E+01  0.82901670020E+00  0.45154196760E+00  0.15213655633E+01  0.51100000000E-03 0.  1.
        -12    1    3    3    0    0  0.80543816150E+01 -0.12759161872E+02  0.31572091663E+02  0.34992374125E+02  0.00000000000E+00 0.  1.
</event>
<event>
 7    1  0.2653124E-010  0.4778727E+02  0.7816164E-02  0.1312668E+00
        -11   -1    0    0    0    0  0.00000000000E+00  0.00000000000E+00  0.45593999997E+02  0.45594000000E+02  0.51100000000E-03 0. -1.
         11   -1    0    0    0    0 -0.00000000000E+00 -0.00000000000E+00 -0.45593999997E+02  0.45594000000E+02  0.51100000000E-03 0.  1.
    9900012    2    1    2    0    0  0.42455503727E+02  0.98819995733E+00  0.89541781589E+01  0.47787266799E+02  0.19999980645E+02 0.  0.
         12    1    1    2    0    0 -0.42455503727E+02 -0.98819995733E+00 -0.89541781589E+01  0.43400733201E+02  0.00000000000E+00 0. -1.
         11    1    3    3    0    0  0.12351090270E+01  0.78133335089E+00 -0.42122714297E+01  0.44586104306E+01  0.51100000000E-03 0. -1.
        -11    1    3    3    0    0  0.90916844932E+01  0.43745782688E+00  0.20482848222E+01  0.93298213942E+01  0.51100000000E-03 0.  1.
         12    1    3    3    0    0  0.32128710207E+02 -0.23059122044E+00  0.11118164766E+02  0.33998834974E+02  0.00000000000E+00 0. -1.
</event>
<event>
 7    1  0.2653124E-010  0.4778727E+02  0.7816164E-02  0.1312668E+00
        -11   -1    0    0    0    0  0.00000000000E+00  0.00000000000E+00  0.45593999997E+02  0.45594000000E+02  0.51100000000E-03 0.  1.
         11   -1    0    0    0    0 -0.00000000000E+00 -0.00000000000E+00 -0.45593999997E+02  0.45594000000E+02  0.51100000000E-03 0. -1.
    9900012    2    1    2    0    0  0.21948096267E+02  0.23645955172E+02  0.29030559958E+02  0.47787268010E+02  0.19999986167E+02 0.  0.
         12    1    1    2    0    0 -0.21948096267E+02 -0.23645955172E+02 -0.29030559958E+02  0.43400731990E+02  0.00000000000E+00 0. -1.
         11    1    3    3    0    0  0.17554638673E+02  0.17706816159E+02  0.23332038459E+02  0.34147923748E+02  0.51100000000E-03 0. -1.
        -11    1    3    3    0    0  0.14501400475E+01  0.84102519102E+01  0.36223961476E+01  0.92712996641E+01  0.51100000000E-03 0.  1.
         12    1    3    3    0    0  0.29433175470E+01 -0.24711128973E+01  0.20761253516E+01  0.43680445979E+01  0.00000000000E+00 0. -1.
</event>
<event>
 7    1  0.2653124E-010  0.4778727E+02  0.7816164E-02  0.1312668E+00
        -11   -1    0    0    0    0  0.00000000000E+00  0.00000000000E+00  0.45593999997E+02  0.45594000000E+02  0.51100000000E-03 0. -1.
         11   -1    0    0    0    0 -0.00000000000E+00 -0.00000000000E+00 -0.45593999997E+02  0.45594000000E+02  0.51100000000E-03 0.  1.
    9900012    2    1    2    0    0 -0.63424718963E+01  0.42042231254E+02 -0.87090172348E+01  0.47787272589E+02  0.20000007044E+02 0.  0.
         12    1    1    2    0    0  0.63424718963E+01 -0.42042231254E+02  0.87090172348E+01  0.43400727411E+02  0.00000000000E+00 0. -1.
         11    1    3    3    0    0 -0.58919181591E+01  0.95428446265E+01 -0.84619658871E+01  0.14049393229E+02  0.51100000000E-03 0. -1.
        -11    1    3    3    0    0  0.13490712518E+01  0.13192198653E+02 -0.42750476700E+01  0.13933058938E+02  0.51100000000E-03 0.  1.
        -12    1    3    3    0    0 -0.17996249890E+01  0.19307187975E+02  0.40279963224E+01  0.19804820422E+02  0.00000000000E+00 0.  1.
</event>
<event>
 7    1  0.2653124E-010  0.4778728E+02  0.7816164E-02  0.1312668E+00
        -11   -1    0    0    0    0  0.00000000000E+00  0.00000000000E+00  0.45593999997E+02  0.45594000000E+02  0.51100000000E-03 0.  1.
         11   -1    0    0    0    0 -0.00000000000E+00 -0.00000000000E+00 -0.45593999997E+02  0.45594000000E+02  0.51100000000E-03 0. -1.
    9900012    2    1    2    0    0  0.33570012663E+02 -0.19974102807E+02  0.18913285081E+02  0.47787275517E+02  0.20000020392E+02 0.  0.
         12    1    1    2    0    0 -0.33570012663E+02  0.19974102807E+02 -0.18913285081E+02  0.43400724483E+02  0.00000000000E+00 0. -1.
         11    1    3    3    0    0  0.18082569163E+01 -0.26377948129E+01  0.19941720249E+01  0.37688827092E+01  0.51100000000E-03 0.  1.
        -11    1    3    3    0    0 -0.10230015262E+00 -0.53372810363E+00 -0.28678567463E+01  0.29188925277E+01  0.51100000000E-03 0. -1.
        -12    1    3    3    0    0  0.31864055899E+02 -0.16802579890E+02  0.19786969802E+02  0.41099500280E+02  0.00000000000E+00 0.  1.
</event>
<event>
 7    1  0.2653124E-010  0.4778727E+02  0.7816164E-02  0.1312668E+00
        -11   -1    0    0    0    0  0.00000000000E+00  0.00000000000E+00  0.45593999997E+02  0.45594000000E+02  0.51100000000E-03 0. -1.
         11   -1    0    0    0    0 -0.00000000000E+00 -0.00000000000E+00 -0.45593999997E+02  0.45594000000E+02  0.51100000000E-03 0.  1.
    9900012    2    1    2    0    0 -0.13667645476E+02 -0.26515295978E+02 -0.31523924651E+02  0.47787270985E+02  0.19999999729E+02 0.  0.
         12    1    1    2    0    0  0.13667645476E+02  0.26515295978E+02  0.31523924651E+02  0.43400729015E+02  0.00000000000E+00 0. -1.
         11    1    3    3    0    0 -0.64987618795E+00 -0.16300302524E+01  0.79667374893E+00  0.19271811038E+01  0.51100000000E-03 0. -1.
        -11    1    3    3    0    0  0.38685831088E+01 -0.48696509905E+01 -0.46741816981E+01  0.77799364295E+01  0.51100000000E-03 0.  1.
        -12    1    3    3    0    0 -0.16886352397E+02 -0.20015614735E+02 -0.27646416701E+02  0.38080153452E+02  0.00000000000E+00 0.  1.
</event>
<event>
 7    1  0.2653124E-010  0.4778727E+02  0.7816164E-02  0.1312668E+00
        -11   -1    0    0    0    0  0.00000000000E+00  0.00000000000E+00  0.45593999997E+02  0.45594000000E+02  0.51100000000E-03 0.  1.
         11   -1    0    0    0    0 -0.00000000000E+00 -0.00000000000E+00 -0.45593999997E+02  0.45594000000E+02  0.51100000000E-03 0. -1.
    9900012    2    1    2    0    0 -0.20686974476E+02 -0.37037792496E+02  0.91582891220E+01  0.47787271370E+02  0.20000001486E+02 0.  0.
         12    1    1    2    0    0  0.20686974476E+02  0.37037792496E+02 -0.91582891220E+01  0.43400728630E+02  0.00000000000E+00 0. -1.
         11    1    3    3    0    0 -0.88357083536E+01 -0.53544998584E+01  0.46970929436E+01  0.11349145044E+02  0.51100000000E-03 0. -1.
        -11    1    3    3    0    0 -0.47986191639E+00 -0.18394575225E+02  0.51835395493E-01  0.18400906291E+02  0.51100000000E-03 0.  1.
         12    1    3    3    0    0 -0.11371404206E+02 -0.13288717412E+02  0.44093607830E+01  0.18037220035E+02  0.00000000000E+00 0. -1.
</event>
<event>
 7    1  0.2653124E-010  0.4778727E+02  0.7816164E-02  0.1312668E+00
        -11   -1    0    0    0    0  0.00000000000E+00  0.00000000000E+00  0.45593999997E+02  0.45594000000E+02  0.51100000000E-03 0.  1.
         11   -1    0    0    0    0 -0.00000000000E+00 -0.00000000000E+00 -0.45593999997E+02  0.45594000000E+02  0.51100000000E-03 0. -1.
    9900012    2    1    2    0    0  0.35034476502E+02 -0.18816903111E+02  0.17381964059E+02  0.47787273497E+02  0.20000011182E+02 0.  0.
         12    1    1    2    0    0 -0.35034476502E+02  0.18816903111E+02 -0.17381964059E+02  0.43400726503E+02  0.00000000000E+00 0. -1.
         11    1    3    3    0    0 -0.63129109742E+00 -0.10238670337E+01 -0.23488911511E+00  0.12255632623E+01  0.51100000000E-03 0. -1.
        -11    1    3    3    0    0  0.28081514936E+02 -0.19827980096E+02  0.10447539528E+02  0.35928698254E+02  0.51100000000E-03 0.  1.
         12    1    3    3    0    0  0.75842526637E+01  0.20349440194E+01  0.71693136454E+01  0.10633011980E+02  0.00000000000E+00 0. -1.
</event>
<event>
 7    1  0.2653124E-010  0.4778727E+02  0.7816164E-02  0.1312668E+00
        -11   -1    0    0    0    0  0.00000000000E+00  0.00000000000E+00  0.45593999997E+02  0.45594000000E+02  0.51100000000E-03 0. -1.
         11   -1    0    0    0    0 -0.00000000000E+00 -0.00000000000E+00 -0.45593999997E+02  0.45594000000E+02  0.51100000000E-03 0.  1.
    9900012    2    1    2    0    0 -0.41202267727E+01 -0.23583334209E+02 -0.36200466199E+02  0.47787266434E+02  0.19999978979E+02 0.  0.
         12    1    1    2    0    0  0.41202267727E+01  0.23583334209E+02  0.36200466199E+02  0.43400733566E+02  0.00000000000E+00 0. -1.
         11    1    3    3    0    0 -0.78681101998E+00  0.10803714212E+00 -0.48716219865E+01  0.49359340196E+01  0.51100000000E-03 0. -1.
        -11    1    3    3    0    0 -0.11976981254E+01 -0.15083013970E+02 -0.30369959281E+02  0.33930314149E+02  0.51100000000E-03 0.  1.
         12    1    3    3    0    0 -0.21357176273E+01 -0.86083573814E+01 -0.95888493066E+00  0.89210182658E+01  0.00000000000E+00 0. -1.
</event>
<event>
 7    1  0.2653124E-010  0.4778727E+02  0.7816164E-02  0.1312668E+00
        -11   -1    0    0    0    0  0.00000000000E+00  0.00000000000E+00  0.45593999997E+02  0.45594000000E+02  0.51100000000E-03 0.  1.
         11   -1    0    0    0    0 -0.00000000000E+00 -0.00000000000E+00 -0.45593999997E+02  0.45594000000E+02  0.51100000000E-03 0. -1.
    9900012    2    1    2    0    0 -0.16741230228E+02 -0.10897989482E+02  0.38530360846E+02  0.47787266467E+02  0.19999979130E+02 0.  0.
         12    1    1    2    0    0  0.16741230228E+02  0.10897989482E+02 -0.38530360846E+02  0.43400733533E+02  0.00000000000E+00 0. -1.
         11    1    3    3    0    0  0.12040131268E+00 -0.59453128813E+01  0.10448938815E+02  0.12022544005E+02  0.51100000000E-03 0.  1.
        -11    1    3    3    0    0 -0.71245793070E+01 -0.56287633926E+01  0.42764791255E+01  0.10036477550E+02  0.51100000000E-03 0. -1.
         12    1    3    3    0    0 -0.97370522341E+01  0.67608679234E+00  0.23804942906E+02  0.25728244913E+02  0.00000000000E+00 0. -1.
</event>
<event>
 7    1  0.2653124E-010  0.4778727E+02  0.7816164E-02  0.1312668E+00
        -11   -1    0    0    0    0  0.00000000000E+00  0.00000000000E+00  0.45593999997E+02  0.45594000000E+02  0.51100000000E-03 0.  1.
         11   -1    0    0    0    0 -0.00000000000E+00 -0.00000000000E+00 -0.45593999997E+02  0.45594000000E+02  0.51100000000E-03 0. -1.
    9900012    2    1    2    0    0  0.33893668770E+02 -0.23803249531E+02  0.12971036748E+02  0.47787271144E+02  0.20000000452E+02 0.  0.
         12    1    1    2    0    0 -0.33893668770E+02  0.23803249531E+02 -0.12971036748E+02  0.43400728856E+02  0.00000000000E+00 0. -1.
         11    1    3    3    0    0  0.20182164739E+02 -0.96818564451E+01  0.10134153243E+02  0.24571511552E+02  0.51100000000E-03 0. -1.
        -11    1    3    3    0    0  0.11585301600E+02 -0.79484453220E+01  0.67677836236E+01  0.15594867477E+02  0.51100000000E-03 0.  1.
         12    1    3    3    0    0  0.21262024318E+01 -0.61729477636E+01 -0.39309001180E+01  0.76208921139E+01  0.00000000000E+00 0. -1.
</event>
<event>
 7    1  0.4894103E-010  0.4778727E+02  0.7816164E-02  0.1312668E+00
        -11   -1    0    0    0    0  0.00000000000E+00  0.00000000000E+00  0.45593999997E+02  0.45594000000E+02  0.51100000000E-03 0. -1.
         11   -1    0    0    0    0 -0.00000000000E+00 -0.00000000000E+00 -0.45593999997E+02  0.45594000000E+02  0.51100000000E-03 0.  1.
    9900012    2    1    2    0    0 -0.50725963004E+01 -0.39615144957E+02 -0.16986238840E+02  0.47787271284E+02  0.20000001090E+02 0.  0.
         12    1    1    2    0    0  0.50725963004E+01  0.39615144957E+02  0.16986238840E+02  0.43400728716E+02  0.00000000000E+00 0. -1.
         11    1    3    3    0    0 -0.53847891366E+01 -0.41657193762E+01 -0.44111655458E+01  0.81121855070E+01  0.51100000000E-03 0. -1.
        -11    1    3    3    0    0 -0.54955828520E+01 -0.25700159085E+02 -0.88535838758E+01  0.27732391812E+02  0.51100000000E-03 0.  1.
         12    1    3    3    0    0  0.58077756882E+01 -0.97492664954E+01 -0.37214894188E+01  0.11942693965E+02  0.00000000000E+00 0. -1.
</event>
<event>
 7    1  0.2653124E-010  0.4778727E+02  0.7816164E-02  0.1312668E+00
        -11   -1    0    0    0    0  0.00000000000E+00  0.00000000000E+00  0.45593999997E+02  0.45594000000E+02  0.51100000000E-03 0.  1.
         11   -1    0    0    0    0 -0.00000000000E+00 -0.00000000000E+00 -0.45593999997E+02  0.45594000000E+02  0.51100000000E-03 0. -1.
    9900012    2    1    2    0    0 -0.30891644846E+02 -0.16483319058E+02 -0.25644292047E+02  0.47787271399E+02  0.20000001617E+02 0.  0.
         12    1    1    2    0    0  0.30891644846E+02  0.16483319058E+02  0.25644292047E+02  0.43400728601E+02  0.00000000000E+00 0. -1.
         11    1    3    3    0    0 -0.28632429468E+01 -0.10380422118E+02 -0.54687803603E+01  0.12077205075E+02  0.51100000000E-03 0. -1.
        -11    1    3    3    0    0 -0.20109694484E+02 -0.56911129968E+01 -0.17744591372E+02  0.27416402073E+02  0.51100000000E-03 0.  1.
        -12    1    3    3    0    0 -0.79187074152E+01 -0.41178394340E+00 -0.24309203149E+01  0.82936642518E+01  0.00000000000E+00 0.  1.
</event>
<event>
 7    1  0.2653124E-010  0.4778727E+02  0.7816164E-02  0.1312668E+00
        -11   -1    0    0    0    0  0.00000000000E+00  0.00000000000E+00  0.45593999997E+02  0.45594000000E+02  0.51100000000E-03 0. -1.
         11   -1    0    0    0    0 -0.00000000000E+00 -0.00000000000E+00 -0.45593999997E+02  0.45594000000E+02  0.51100000000E-03 0.  1.
    9900012    2    1    2    0    0 -0.26935673364E+01 -0.41823496505E+02  0.11276684430E+02  0.47787265252E+02  0.19999973592E+02 0.  0.
         12    1    1    2    0    0  0.26935673364E+01  0.41823496505E+02 -0.11276684430E+02  0.43400734748E+02  0.00000000000E+00 0. -1.
         11    1    3    3    0    0  0.12004471093E+01 -0.81339221323E+01 -0.27669440261E+01  0.86751220177E+01  0.51100000000E-03 0. -1.
        -11    1    3    3    0    0  0.34488982921E+01 -0.24212682857E+02  0.83797964133E+01  0.25852850883E+02  0.51100000000E-03 0.  1.
        -12    1    3    3    0    0 -0.73429127378E+01 -0.94768915157E+01  0.56638320426E+01  0.13259292352E+02  0.00000000000E+00 0.  1.
</event>
<event>
 7    1  0.2653124E-010  0.4778727E+02  0.7816164E-02  0.1312668E+00
        -11   -1    0    0    0    0  0.00000000000E+00  0.00000000000E+00  0.45593999997E+02  0.45594000000E+02  0.51100000000E-03 0. -1.
         11   -1    0    0    0    0 -0.00000000000E+00 -0.00000000000E+00 -0.45593999997E+02  0.45594000000E+02  0.51100000000E-03 0.  1.
    9900012    2    1    2    0    0  0.36731725852E+02 -0.10524149522E+02 -0.20582659192E+02  0.47787271128E+02  0.20000000381E+02 0.  0.
         12    1    1    2    0    0 -0.36731725852E+02  0.10524149522E+02  0.20582659192E+02  0.43400728872E+02  0.00000000000E+00 0. -1.
         11    1    3    3    0    0  0.21469913385E+00 -0.31286620667E+01 -0.70580655520E+01  0.77234002643E+01  0.51100000000E-03 0. -1.
        -11    1    3    3    0    0  0.11793075458E+02 -0.27098950240E+01 -0.15609624404E+01  0.12200687021E+02  0.51100000000E-03 0.  1.
        -12    1    3    3    0    0  0.24723951260E+02 -0.46855924311E+01 -0.11963631200E+02  0.27863183842E+02  0.00000000000E+00 0.  1.
</event>
<event>
 7    1  0.2653124E-010  0.4778728E+02  0.7816164E-02  0.1312668E+00
        -11   -1    0    0    0    0  0.00000000000E+00  0.00000000000E+00  0.45593999997E+02  0.45594000000E+02  0.51100000000E-03 0.  1.
         11   -1    0    0    0    0 -0.00000000000E+00 -0.00000000000E+00 -0.45593999997E+02  0.45594000000E+02  0.51100000000E-03 0. -1.
    9900012    2    1    2    0    0 -0.10931133575E+02 -0.78832105264E+01  0.41255156758E+02  0.47787278249E+02  0.20000032847E+02 0.  0.
         12    1    1    2    0    0  0.10931133575E+02  0.78832105264E+01 -0.41255156758E+02  0.43400721751E+02  0.00000000000E+00 0. -1.
         11    1    3    3    0    0 -0.10179641223E+02 -0.10957897363E+02  0.29399295271E+02  0.32985135633E+02  0.51100000000E-03 0. -1.
        -11    1    3    3    0    0 -0.15678415969E+01  0.92007043664E+00  0.12318635255E+02  0.12452045281E+02  0.51100000000E-03 0.  1.
         12    1    3    3    0    0  0.81634924484E+00  0.21546164003E+01 -0.46277376788E+00  0.23500973346E+01  0.00000000000E+00 0. -1.
</event>
<event>
 7    1  0.2653124E-010  0.4778727E+02  0.7816164E-02  0.1312668E+00
        -11   -1    0    0    0    0  0.00000000000E+00  0.00000000000E+00  0.45593999997E+02  0.45594000000E+02  0.51100000000E-03 0.  1.
         11   -1    0    0    0    0 -0.00000000000E+00 -0.00000000000E+00 -0.45593999997E+02  0.45594000000E+02  0.51100000000E-03 0. -1.
    9900012    2    1    2    0    0  0.28376027050E+02  0.14721432422E+02  0.29354788303E+02  0.47787273278E+02  0.20000010182E+02 0.  0.
         12    1    1    2    0    0 -0.28376027050E+02 -0.14721432422E+02 -0.29354788303E+02  0.43400726722E+02  0.00000000000E+00 0. -1.
         11    1    3    3    0    0  0.93091181598E+01 -0.18208793021E+01  0.11704126991E+02  0.15065253772E+02  0.51100000000E-03 0. -1.
        -11    1    3    3    0    0  0.80486144759E+01  0.23777394222E+01  0.13928868140E+01  0.85072894437E+01  0.51100000000E-03 0.  1.
         12    1    3    3    0    0  0.11018294414E+02  0.14164572302E+02  0.16257774498E+02  0.24214730061E+02  0.00000000000E+00 0. -1.
</event>
<event>
 7    1  0.2653124E-010  0.4778726E+02  0.7816164E-02  0.1312668E+00
        -11   -1    0    0    0    0  0.00000000000E+00  0.00000000000E+00  0.45593999997E+02  0.45594000000E+02  0.51100000000E-03 0.  1.
         11   -1    0    0    0    0 -0.00000000000E+00 -0.00000000000E+00 -0.45593999997E+02  0.45594000000E+02  0.51100000000E-03 0. -1.
    9900012    2    1    2    0    0  0.98017697310E+01 -0.36139261119E+02  0.21943182136E+02  0.47787261223E+02  0.19999955222E+02 0.  0.
         12    1    1    2    0    0 -0.98017697310E+01  0.36139261119E+02 -0.21943182136E+02  0.43400738777E+02  0.00000000000E+00 0. -1.
         11    1    3    3    0    0  0.22635419083E+01 -0.44794384155E+01  0.21462504865E+01  0.54585146241E+01  0.51100000000E-03 0. -1.
        -11    1    3    3    0    0  0.76107550302E+00 -0.14703235359E+02  0.19018551785E+02  0.24051396595E+02  0.51100000000E-03 0.  1.
        -12    1    3    3    0    0  0.67771523197E+01 -0.16956587345E+02  0.77837986476E+00  0.18277350004E+02  0.00000000000E+00 0.  1.
</event>
<event>
 7    1  0.2653124E-010  0.4778726E+02  0.7816164E-02  0.1312668E+00
        -11   -1    0    0    0    0  0.00000000000E+00  0.00000000000E+00  0.45593999997E+02  0.45594000000E+02  0.51100000000E-03 0.  1.
         11   -1    0    0    0    0 -0.00000000000E+00 -0.00000000000E+00 -0.45593999997E+02  0.45594000000E+02  0.51100000000E-03 0. -1.
    9900012    2    1    2    0    0  0.40851243176E+02  0.13839860864E+02  0.48226648940E+01  0.47787263665E+02  0.19999966354E+02 0.  0.
         12    1    1    2    0    0 -0.40851243176E+02 -0.13839860864E+02 -0.48226648940E+01  0.43400736335E+02  0.00000000000E+00 0. -1.
         11    1    3    3    0    0  0.28228287799E+01  0.12763640714E+01 -0.22151535322E+01  0.38084607121E+01  0.51100000000E-03 0. -1.
        -11    1    3    3    0    0  0.37039592329E+02  0.15542606426E+02  0.57167566984E+01  0.40573209410E+02  0.51100000000E-03 0.  1.
        -12    1    3    3    0    0  0.98882206681E+00 -0.29791096338E+01  0.13210617278E+01  0.34055935427E+01  0.00000000000E+00 0.  1.
</event>
<event>
 7    1  0.2653124E-010  0.4778727E+02  0.7816164E-02  0.1312668E+00
        -11   -1    0    0    0    0  0.00000000000E+00  0.00000000000E+00  0.45593999997E+02  0.45594000000E+02  0.51100000000E-03 0.  1.
         11   -1    0    0    0    0 -0.00000000000E+00 -0.00000000000E+00 -0.45593999997E+02  0.45594000000E+02  0.51100000000E-03 0. -1.
    9900012    2    1    2    0    0  0.57472790454E+01 -0.22017481744E+00  0.43017944146E+02  0.47787271758E+02  0.20000003253E+02 0.  0.
         12    1    1    2    0    0 -0.57472790454E+01  0.22017481744E+00 -0.43017944146E+02  0.43400728242E+02  0.00000000000E+00 0. -1.
         11    1    3    3    0    0 -0.23341786615E+01 -0.14820208148E+01 -0.46232901176E-02  0.27649226671E+01  0.51100000000E-03 0. -1.
        -11    1    3    3    0    0 -0.18625341623E+01  0.26372780309E+01  0.10151766160E+02  0.10652822412E+02  0.51100000000E-03 0.  1.
        -12    1    3    3    0    0  0.99439918691E+01 -0.13754320336E+01  0.32870801276E+02  0.34369526679E+02  0.00000000000E+00 0.  1.
</event>
<event>
 7    1  0.2653124E-010  0.4778722E+02  0.7816164E-02  0.1312668E+00
        -11   -1    0    0    0    0  0.00000000000E+00  0.00000000000E+00  0.45593999997E+02  0.45594000000E+02  0.51100000000E-03 0.  1.
         11   -1    0    0    0    0 -0.00000000000E+00 -0.00000000000E+00 -0.45593999997E+02  0.45594000000E+02  0.51100000000E-03 0. -1.
    9900012    2    1    2    0    0  0.14742148974E+01 -0.16714953393E+02  0.40025801766E+02  0.47787219091E+02  0.19999763123E+02 0.  0.
         12    1    1    2    0    0 -0.14742148974E+01  0.16714953393E+02 -0.40025801766E+02  0.43400780909E+02  0.00000000000E+00 0. -1.
         11    1    3    3    0    0  0.26837415376E+01 -0.98220086711E+01  0.17800672812E+02  0.20507029911E+02  0.51100000000E-03 0. -1.
        -11    1    3    3    0    0  0.56190978696E+01 -0.65271375778E+01  0.94222100143E+01  0.12765415295E+02  0.51100000000E-03 0.  1.
         12    1    3    3    0    0 -0.68286245097E+01 -0.36580714395E+00  0.12802918940E+02  0.14514773886E+02  0.00000000000E+00 0. -1.
</event>
<event>
 7    1  0.2653124E-010  0.4778727E+02  0.7816164E-02  0.1312668E+00
        -11   -1    0    0    0    0  0.00000000000E+00  0.00000000000E+00  0.45593999997E+02  0.45594000000E+02  0.51100000000E-03 0.  1.
         11   -1    0    0    0    0 -0.00000000000E+00 -0.00000000000E+00 -0.45593999997E+02  0.45594000000E+02  0.51100000000E-03 0. -1.
    9900012    2    1    2    0    0  0.29006377677E+02  0.92198216448E+01  0.30939428747E+02  0.47787270648E+02  0.19999998193E+02 0.  0.
         12    1    1    2    0    0 -0.29006377677E+02 -0.92198216448E+01 -0.30939428747E+02  0.43400729352E+02  0.00000000000E+00 0. -1.
         11    1    3    3    0    0  0.39230519911E+01 -0.52597024244E+00 -0.46041663706E-01  0.39584216194E+01  0.51100000000E-03 0. -1.
        -11    1    3    3    0    0  0.12930546289E+02 -0.30942237824E+01  0.14139267030E+02  0.19408557921E+02  0.51100000000E-03 0.  1.
         12    1    3    3    0    0  0.12152779397E+02  0.12840015670E+02  0.16846203381E+02  0.24420291108E+02  0.00000000000E+00 0. -1.
</event>
<event>
 7    1  0.2653124E-010  0.4778727E+02  0.7816164E-02  0.1312668E+00
        -11   -1    0    0    0    0  0.00000000000E+00  0.00000000000E+00  0.45593999997E+02  0.45594000000E+02  0.51100000000E-03 0.  1.
         11   -1    0    0    0    0 -0.00000000000E+00 -0.00000000000E+00 -0.45593999997E+02  0.45594000000E+02  0.51100000000E-03 0. -1.
    9900012    2    1    2    0    0  0.42156639354E+02 -0.95654567147E+01  0.38656503724E+01  0.47787268939E+02  0.19999990403E+02 0.  0.
         12    1    1    2    0    0 -0.42156639354E+02  0.95654567147E+01 -0.38656503724E+01  0.43400731061E+02  0.00000000000E+00 0. -1.
         11    1    3    3    0    0  0.15627507464E+02  0.48460291832E+01  0.31596734410E+01  0.16663928855E+02  0.51100000000E-03 0. -1.
        -11    1    3    3    0    0 -0.11451277514E+00 -0.14875594908E+01 -0.14040354647E+00  0.14985525788E+01  0.51100000000E-03 0.  1.
        -12    1    3    3    0    0  0.26643644665E+02 -0.12923926407E+02  0.84638047786E+00  0.29624787506E+02  0.00000000000E+00 0.  1.
</event>
<event>
 7    1  0.2653124E-010  0.4778727E+02  0.7816164E-02  0.1312668E+00
        -11   -1    0    0    0    0  0.00000000000E+00  0.00000000000E+00  0.45593999997E+02  0.45594000000E+02  0.51100000000E-03 0.  1.
         11   -1    0    0    0    0 -0.00000000000E+00 -0.00000000000E+00 -0.45593999997E+02  0.45594000000E+02  0.51100000000E-03 0. -1.
    9900012    2    1    2    0    0 -0.23366326717E+02 -0.61949607653E+01  0.36045253888E+02  0.47787273152E+02  0.20000009607E+02 0.  0.
         12    1    1    2    0    0  0.23366326717E+02  0.61949607653E+01 -0.36045253888E+02  0.43400726848E+02  0.00000000000E+00 0. -1.
         11    1    3    3    0    0  0.30640796807E+01  0.15014568913E+01  0.19684187582E+01  0.39392422818E+01  0.51100000000E-03 0. -1.
        -11    1    3    3    0    0 -0.53994550738E+01 -0.23784500739E+01  0.71474628097E+01  0.92680831204E+01  0.51100000000E-03 0.  1.
         12    1    3    3    0    0 -0.21030951324E+02 -0.53179675828E+01  0.26929372320E+02  0.34579947749E+02  0.00000000000E+00 0. -1.
</event>
<event>
 7    1  0.2653124E-010  0.4778728E+02  0.7816164E-02  0.1312668E+00
        -11   -1    0    0    0    0  0.00000000000E+00  0.00000000000E+00  0.45593999997E+02  0.45594000000E+02  0.51100000000E-03 0.  1.
         11   -1    0    0    0    0 -0.00000000000E+00 -0.00000000000E+00 -0.45593999997E+02  0.45594000000E+02  0.51100000000E-03 0. -1.
    9900012    2    1    2    0    0 -0.15430472889E+02 -0.35212617928E+02  0.20139387313E+02  0.47787275625E+02  0.20000020886E+02 0.  0.
         12    1    1    2    0    0  0.15430472889E+02  0.35212617928E+02 -0.20139387313E+02  0.43400724375E+02  0.00000000000E+00 0. -1.
         11    1    3    3    0    0 -0.14916947707E+01 -0.84589385615E+01  0.41500719048E+01  0.95394911789E+01  0.51100000000E-03 0. -1.
        -11    1    3    3    0    0 -0.14499669576E+02 -0.27674392978E+02  0.10968060716E+02  0.33112094477E+02  0.51100000000E-03 0.  1.
         12    1    3    3    0    0  0.56089145776E+00  0.92071361174E+00  0.50212546917E+01  0.51356899694E+01  0.00000000000E+00 0. -1.
</event>
<event>
 7    1  0.2653124E-010  0.4778728E+02  0.7816164E-02  0.1312668E+00
        -11   -1    0    0    0    0  0.00000000000E+00  0.00000000000E+00  0.45593999997E+02  0.45594000000E+02  0.51100000000E-03 0.  1.
         11   -1    0    0    0    0 -0.00000000000E+00 -0.00000000000E+00 -0.45593999997E+02  0.45594000000E+02  0.51100000000E-03 0. -1.
    9900012    2    1    2    0    0  0.40768762483E+01 -0.10717120185E+02  0.41858633955E+02  0.47787276255E+02  0.20000023759E+02 0.  0.
         12    1    1    2    0    0 -0.40768762483E+01  0.10717120185E+02 -0.41858633955E+02  0.43400723745E+02  0.00000000000E+00 0. -1.
         11    1    3    3    0    0 -0.49495513241E+00 -0.97721819932E+01  0.14543589527E+02  0.17528734070E+02  0.51100000000E-03 0. -1.
        -11    1    3    3    0    0  0.36493521444E+01 -0.42349256838E+01  0.26005061247E+02  0.26599164974E+02  0.51100000000E-03 0.  1.
         12    1    3    3    0    0  0.92247923625E+00  0.32899874924E+01  0.13099831811E+01  0.36593772116E+01  0.00000000000E+00 0. -1.
</event>
<event>
 7    1  0.2653124E-010  0.4778727E+02  0.7816164E-02  0.1312668E+00
        -11   -1    0    0    0    0  0.00000000000E+00  0.00000000000E+00  0.45593999997E+02  0.45594000000E+02  0.51100000000E-03 0.  1.
         11   -1    0    0    0    0 -0.00000000000E+00 -0.00000000000E+00 -0.45593999997E+02  0.45594000000E+02  0.51100000000E-03 0. -1.
    9900012    2    1    2    0    0  0.27318620573E+01  0.17325951193E+02  0.39698509387E+02  0.47787270713E+02  0.19999998491E+02 0.  0.
         12    1    1    2    0    0 -0.27318620573E+01 -0.17325951193E+02 -0.39698509387E+02  0.43400729287E+02  0.00000000000E+00 0. -1.
         11    1    3    3    0    0 -0.23526775863E+01  0.10169530907E+01  0.69382660773E+00  0.26553118530E+01  0.51100000000E-03 0. -1.
        -11    1    3    3    0    0  0.15126615852E+01 -0.28443313473E+01  0.55942519891E+01  0.64555419187E+01  0.51100000000E-03 0.  1.
        -12    1    3    3    0    0  0.35718780584E+01  0.19153329449E+02  0.33410430790E+02  0.38676416942E+02  0.00000000000E+00 0.  1.
</event>
<event>
 7    1  0.2653124E-010  0.4778727E+02  0.7816164E-02  0.1312668E+00
        -11   -1    0    0    0    0  0.00000000000E+00  0.00000000000E+00  0.45593999997E+02  0.45594000000E+02  0.51100000000E-03 0.  1.
         11   -1    0    0    0    0 -0.00000000000E+00 -0.00000000000E+00 -0.45593999997E+02  0.45594000000E+02  0.51100000000E-03 0. -1.
    9900012    2    1    2    0    0  0.17625772260E+02  0.39306270924E+02 -0.52888970088E+01  0.47787271743E+02  0.20000003184E+02 0.  0.
         12    1    1    2    0    0 -0.17625772260E+02 -0.39306270924E+02  0.52888970088E+01  0.43400728257E+02  0.00000000000E+00 0. -1.
         11    1    3    3    0    0  0.17037686124E+02  0.34647108327E+02 -0.11093344830E+02  0.40171720944E+02  0.51100000000E-03 0.  1.
        -11    1    3    3    0    0  0.43966824041E+00  0.22690856249E+01  0.17206866091E+01  0.28814615046E+01  0.51100000000E-03 0. -1.
        -12    1    3    3    0    0  0.14841789537E+00  0.23900769724E+01  0.40837612119E+01  0.47340892937E+01  0.00000000000E+00 0.  1.
</event>
<event>
 7    1  0.2653124E-010  0.4778727E+02  0.7816164E-02  0.1312668E+00
        -11   -1    0    0    0    0  0.00000000000E+00  0.00000000000E+00  0.45593999997E+02  0.45594000000E+02  0.51100000000E-03 0. -1.
         11   -1    0    0    0    0 -0.00000000000E+00 -0.00000000000E+00 -0.45593999997E+02  0.45594000000E+02  0.51100000000E-03 0.  1.
    9900012    2    1    2    0    0 -0.33462261498E+02  0.73329896280E+01 -0.26648218661E+02  0.47787271443E+02  0.20000001817E+02 0.  0.
         12    1    1    2    0    0  0.33462261498E+02 -0.73329896280E+01  0.26648218661E+02  0.43400728557E+02  0.00000000000E+00 0. -1.
         11    1    3    3    0    0 -0.44412269680E+01 -0.24787403758E+01 -0.28515539669E+01  0.58309528483E+01  0.51100000000E-03 0. -1.
        -11    1    3    3    0    0 -0.29740133058E+02  0.74100567375E+01 -0.24624632828E+02  0.39316116254E+02  0.51100000000E-03 0.  1.
        -12    1    3    3    0    0  0.71909852781E+00  0.24016732662E+01  0.82796813308E+00  0.26402023407E+01  0.00000000000E+00 0.  1.
</event>
<event>
 7    1  0.2653124E-010  0.4778728E+02  0.7816164E-02  0.1312668E+00
        -11   -1    0    0    0    0  0.00000000000E+00  0.00000000000E+00  0.45593999997E+02  0.45594000000E+02  0.51100000000E-03 0. -1.
         11   -1    0    0    0    0 -0.00000000000E+00 -0.00000000000E+00 -0.45593999997E+02  0.45594000000E+02  0.51100000000E-03 0.  1.
    9900012    2    1    2    0    0 -0.10303274928E+02  0.14297671727E+02 -0.39661591893E+02  0.47787276935E+02  0.20000026856E+02 0.  0.
         12    1    1    2    0    0  0.10303274928E+02 -0.14297671727E+02  0.39661591893E+02  0.43400723065E+02  0.00000000000E+00 0. -1.
         11    1    3    3    0    0  0.18547644227E+00  0.18912593934E+01  0.49804224079E+00  0.19645126466E+01  0.51100000000E-03 0. -1.
        -11    1    3    3    0    0  0.39457150158E+00 -0.27625137966E+01 -0.23230574668E+01  0.36309455245E+01  0.51100000000E-03 0.  1.
        -12    1    3    3    0    0 -0.10883322872E+02  0.15168926131E+02 -0.37836576667E+02  0.42191818764E+02  0.00000000000E+00 0.  1.
</event>
<event>
 7    1  0.2653124E-010  0.4778727E+02  0.7816164E-02  0.1312668E+00
        -11   -1    0    0    0    0  0.00000000000E+00  0.00000000000E+00  0.45593999997E+02  0.45594000000E+02  0.51100000000E-03 0.  1.
         11   -1    0    0    0    0 -0.00000000000E+00 -0.00000000000E+00 -0.45593999997E+02  0.45594000000E+02  0.51100000000E-03 0. -1.
    9900012    2    1    2    0    0 -0.34331540632E+02 -0.51502072783E+01  0.26046955015E+02  0.47787272095E+02  0.20000004789E+02 0.  0.
         12    1    1    2    0    0  0.34331540632E+02  0.51502072783E+01 -0.26046955015E+02  0.43400727905E+02  0.00000000000E+00 0. -1.
         11    1    3    3    0    0 -0.35035918643E+01  0.12537766980E+01  0.84647962110E+01  0.92466149004E+01  0.51100000000E-03 0. -1.
        -11    1    3    3    0    0 -0.12313008611E+02  0.61256177319E+00  0.13578331679E+02  0.18340024657E+02  0.51100000000E-03 0.  1.
         12    1    3    3    0    0 -0.18514940156E+02 -0.70165457494E+01  0.40038271246E+01  0.20200632537E+02  0.00000000000E+00 0. -1.
</event>
<event>
 7    1  0.2653124E-010  0.4778727E+02  0.7816164E-02  0.1312668E+00
        -11   -1    0    0    0    0  0.00000000000E+00  0.00000000000E+00  0.45593999997E+02  0.45594000000E+02  0.51100000000E-03 0.  1.
         11   -1    0    0    0    0 -0.00000000000E+00 -0.00000000000E+00 -0.45593999997E+02  0.45594000000E+02  0.51100000000E-03 0. -1.
    9900012    2    1    2    0    0  0.30990895894E+01  0.43272722872E+02  0.12208392379E+01  0.47787270174E+02  0.19999996029E+02 0.  0.
         12    1    1    2    0    0 -0.30990895894E+01 -0.43272722872E+02 -0.12208392379E+01  0.43400729826E+02  0.00000000000E+00 0. -1.
         11    1    3    3    0    0 -0.28557013753E+01  0.16949309982E+01  0.17943938544E+01  0.37746087214E+01  0.51100000000E-03 0. -1.
        -11    1    3    3    0    0  0.63669799667E+01  0.11755230902E+02  0.37275761558E+01  0.13878714339E+02  0.51100000000E-03 0.  1.
        -12    1    3    3    0    0 -0.41218900201E+00  0.29822560972E+02 -0.43011307723E+01  0.30133947113E+02  0.00000000000E+00 0.  1.
</event>
<event>
 7    1  0.2653124E-010  0.4778729E+02  0.7816164E-02  0.1312668E+00
        -11   -1    0    0    0    0  0.00000000000E+00  0.00000000000E+00  0.45593999997E+02  0.45594000000E+02  0.51100000000E-03 0. -1.
         11   -1    0    0    0    0 -0.00000000000E+00 -0.00000000000E+00 -0.45593999997E+02  0.45594000000E+02  0.51100000000E-03 0.  1.
    9900012    2    1    2    0    0 -0.21278747756E+02  0.17600472487E+02 -0.33482229650E+02  0.47787292170E+02  0.20000096317E+02 0.  0.
         12    1    1    2    0    0  0.21278747756E+02 -0.17600472487E+02  0.33482229650E+02  0.43400707830E+02  0.00000000000E+00 0. -1.
         11    1    3    3    0    0 -0.10855686941E+01  0.91947055068E+01 -0.12116105166E+02  0.15248641690E+02  0.51100000000E-03 0. -1.
        -11    1    3    3    0    0 -0.47779908222E+01  0.43450094814E+01 -0.78464281375E+00  0.65056873808E+01  0.51100000000E-03 0.  1.
        -12    1    3    3    0    0 -0.15415188240E+02  0.40607574991E+01 -0.20581481670E+02  0.26032963098E+02  0.00000000000E+00 0.  1.
</event>
<event>
 7    1  0.2653124E-010  0.4778727E+02  0.7816164E-02  0.1312668E+00
        -11   -1    0    0    0    0  0.00000000000E+00  0.00000000000E+00  0.45593999997E+02  0.45594000000E+02  0.51100000000E-03 0.  1.
         11   -1    0    0    0    0 -0.00000000000E+00 -0.00000000000E+00 -0.45593999997E+02  0.45594000000E+02  0.51100000000E-03 0. -1.
    9900012    2    1    2    0    0  0.23235579426E+02 -0.27190186611E+02  0.24585054769E+02  0.47787270545E+02  0.19999997724E+02 0.  0.
         12    1    1    2    0    0 -0.23235579426E+02  0.27190186611E+02 -0.24585054769E+02  0.43400729455E+02  0.00000000000E+00 0. -1.
         11    1    3    3    0    0  0.42315275123E+01 -0.13831285094E+02  0.53258438616E+01  0.15413464423E+02  0.51100000000E-03 0. -1.
        -11    1    3    3    0    0  0.18329799378E+02 -0.14931951078E+02  0.19498974644E+02  0.30645631347E+02  0.51100000000E-03 0.  1.
         12    1    3    3    0    0  0.67425253656E+00  0.15730495610E+01 -0.23976373644E+00  0.17281747752E+01  0.00000000000E+00 0. -1.
</event>
<event>
 7    1  0.2653124E-010  0.4778727E+02  0.7816164E-02  0.1312668E+00
        -11   -1    0    0    0    0  0.00000000000E+00  0.00000000000E+00  0.45593999997E+02  0.45594000000E+02  0.51100000000E-03 0.  1.
         11   -1    0    0    0    0 -0.00000000000E+00 -0.00000000000E+00 -0.45593999997E+02  0.45594000000E+02  0.51100000000E-03 0. -1.
    9900012    2    1    2    0    0  0.14796759392E+02  0.38579876861E+02  0.13276754371E+02  0.47787271968E+02  0.20000004210E+02 0.  0.
         12    1    1    2    0    0 -0.14796759392E+02 -0.38579876861E+02 -0.13276754371E+02  0.43400728032E+02  0.00000000000E+00 0. -1.
         11    1    3    3    0    0  0.10300600303E+02  0.18100326208E+02  0.60915441013E+01  0.21698642475E+02  0.51100000000E-03 0.  1.
        -11    1    3    3    0    0  0.23417725821E+01  0.22186571786E+02  0.60571086606E+01  0.23117448649E+02  0.51100000000E-03 0. -1.
        -12    1    3    3    0    0  0.21543865067E+01 -0.17070211332E+01  0.11281016092E+01  0.29711808444E+01  0.00000000000E+00 0.  1.
</event>
<event>
 7    1  0.2653124E-010  0.4778722E+02  0.7816164E-02  0.1312668E+00
        -11   -1    0    0    0    0  0.00000000000E+00  0.00000000000E+00  0.45593999997E+02  0.45594000000E+02  0.51100000000E-03 0. -1.
         11   -1    0    0    0    0 -0.00000000000E+00 -0.00000000000E+00 -0.45593999997E+02  0.45594000000E+02  0.51100000000E-03 0.  1.
    9900012    2    1    2    0    0 -0.20623415557E+02 -0.27374034835E+02 -0.26626385471E+02  0.47787222868E+02  0.19999780343E+02 0.  0.
         12    1    1    2    0    0  0.20623415557E+02  0.27374034835E+02  0.26626385471E+02  0.43400777132E+02  0.00000000000E+00 0. -1.
         11    1    3    3    0    0 -0.14350604812E+01 -0.79601179572E+01 -0.49579649279E+01  0.94870592369E+01  0.51100000000E-03 0. -1.
        -11    1    3    3    0    0 -0.29366278909E+00 -0.85129054571E+01 -0.11291306308E+02  0.14143881912E+02  0.51100000000E-03 0.  1.
        -12    1    3    3    0    0 -0.18894692287E+02 -0.10901011421E+02 -0.10377114235E+02  0.24156281719E+02  0.00000000000E+00 0.  1.
</event>
<event>
 7    1  0.2653124E-010  0.4778727E+02  0.7816164E-02  0.1312668E+00
        -11   -1    0    0    0    0  0.00000000000E+00  0.00000000000E+00  0.45593999997E+02  0.45594000000E+02  0.51100000000E-03 0.  1.
         11   -1    0    0    0    0 -0.00000000000E+00 -0.00000000000E+00 -0.45593999997E+02  0.45594000000E+02  0.51100000000E-03 0. -1.
    9900012    2    1    2    0    0 -0.12292914364E+02 -0.26700817852E+01  0.41537673353E+02  0.47787269731E+02  0.19999994012E+02 0.  0.
         12    1    1    2    0    0  0.12292914364E+02  0.26700817852E+01 -0.41537673353E+02  0.43400730269E+02  0.00000000000E+00 0. -1.
         11    1    3    3    0    0 -0.20336712272E+01  0.37439891975E+01  0.37049784703E+01  0.56462500386E+01  0.51100000000E-03 0. -1.
        -11    1    3    3    0    0 -0.50388628329E+01  0.27370292180E+01  0.48295104064E+01  0.74970419911E+01  0.51100000000E-03 0.  1.
        -12    1    3    3    0    0 -0.52203803041E+01 -0.91511002008E+01  0.33003184476E+02  0.34643977701E+02  0.00000000000E+00 0.  1.
</event>
<event>
 7    1  0.2653124E-010  0.4778727E+02  0.7816164E-02  0.1312668E+00
        -11   -1    0    0    0    0  0.00000000000E+00  0.00000000000E+00  0.45593999997E+02  0.45594000000E+02  0.51100000000E-03 0.  1.
         11   -1    0    0    0    0 -0.00000000000E+00 -0.00000000000E+00 -0.45593999997E+02  0.45594000000E+02  0.51100000000E-03 0. -1.
    9900012    2    1    2    0    0 -0.23019038626E+02  0.35065519996E+02  0.11142551436E+02  0.47787270924E+02  0.19999999450E+02 0.  0.
         12    1    1    2    0    0  0.23019038626E+02 -0.35065519996E+02 -0.11142551436E+02  0.43400729076E+02  0.00000000000E+00 0. -1.
         11    1    3    3    0    0 -0.25835640472E+01 -0.46089083012E+00  0.27551044178E+00  0.26387743003E+01  0.51100000000E-03 0. -1.
        -11    1    3    3    0    0 -0.31971512900E+01  0.16667232012E+02  0.97524872926E+01  0.19573691731E+02  0.51100000000E-03 0.  1.
        -12    1    3    3    0    0 -0.17238323289E+02  0.18859178814E+02  0.11145537013E+01  0.25574804893E+02  0.00000000000E+00 0.  1.
</event>
<event>
 7    1  0.2653124E-010  0.4778727E+02  0.7816164E-02  0.1312668E+00
        -11   -1    0    0    0    0  0.00000000000E+00  0.00000000000E+00  0.45593999997E+02  0.45594000000E+02  0.51100000000E-03 0. -1.
         11   -1    0    0    0    0 -0.00000000000E+00 -0.00000000000E+00 -0.45593999997E+02  0.45594000000E+02  0.51100000000E-03 0.  1.
    9900012    2    1    2    0    0 -0.14976947207E+02  0.20007412247E+02  0.35482647754E+02  0.47787265166E+02  0.19999973200E+02 0.  0.
         12    1    1    2    0    0  0.14976947207E+02 -0.20007412247E+02 -0.35482647754E+02  0.43400734834E+02  0.00000000000E+00 0. -1.
         11    1    3    3    0    0  0.22949633217E+01  0.79059380543E+01  0.18454248437E+02  0.20207176913E+02  0.51100000000E-03 0. -1.
        -11    1    3    3    0    0 -0.17015327103E+01  0.12813113788E+01  0.53128631927E-01  0.21306795457E+01  0.51100000000E-03 0.  1.
        -12    1    3    3    0    0 -0.15570377819E+02  0.10820162814E+02  0.16975270685E+02  0.25449408707E+02  0.00000000000E+00 0.  1.
</event>
<event>
 7    1  0.2733307E-010  0.4778727E+02  0.7816164E-02  0.1312668E+00
        -11   -1    0    0    0    0  0.00000000000E+00  0.00000000000E+00  0.45593999997E+02  0.45594000000E+02  0.51100000000E-03 0. -1.
         11   -1    0    0    0    0 -0.00000000000E+00 -0.00000000000E+00 -0.45593999997E+02  0.45594000000E+02  0.51100000000E-03 0.  1.
    9900012    2    1    2    0    0  0.14336464179E+02  0.13967872542E+01 -0.40940665926E+02  0.47787270211E+02  0.19999996199E+02 0.  0.
         12    1    1    2    0    0 -0.14336464179E+02 -0.13967872542E+01  0.40940665926E+02  0.43400729789E+02  0.00000000000E+00 0. -1.
         11    1    3    3    0    0  0.34875752240E+01 -0.29702574837E+01 -0.15661099730E+02  0.16317342169E+02  0.51100000000E-03 0.  1.
        -11    1    3    3    0    0  0.11587929990E+02 -0.26793409433E-01 -0.24280156934E+02  0.26903658865E+02  0.51100000000E-03 0. -1.
         12    1    3    3    0    0 -0.73904103528E+00  0.43938381473E+01 -0.99940926208E+00  0.45662691762E+01  0.00000000000E+00 0. -1.
</event>
<event>
 7    1  0.2653124E-010  0.4778727E+02  0.7816164E-02  0.1312668E+00
        -11   -1    0    0    0    0  0.00000000000E+00  0.00000000000E+00  0.45593999997E+02  0.45594000000E+02  0.51100000000E-03 0.  1.
         11   -1    0    0    0    0 -0.00000000000E+00 -0.00000000000E+00 -0.45593999997E+02  0.45594000000E+02  0.51100000000E-03 0. -1.
    9900012    2    1    2    0    0  0.15134889468E+02 -0.39343344387E+02  0.10327615711E+02  0.47787271054E+02  0.20000000044E+02 0.  0.
         12    1    1    2    0    0 -0.15134889468E+02  0.39343344387E+02 -0.10327615711E+02  0.43400728946E+02  0.00000000000E+00 0. -1.
         11    1    3    3    0    0 -0.24633112320E+01 -0.32332783367E+01  0.19174471451E+01  0.44942846865E+01  0.51100000000E-03 0.  1.
        -11    1    3    3    0    0  0.40448106667E+01 -0.59445705764E+01  0.72372740844E+01  0.10201791465E+02  0.51100000000E-03 0. -1.
        -12    1    3    3    0    0  0.13553390034E+02 -0.30165495474E+02  0.11728944813E+01  0.33091194902E+02  0.00000000000E+00 0.  1.
</event>
<event>
 7    1  0.2653124E-010  0.4778727E+02  0.7816164E-02  0.1312668E+00
        -11   -1    0    0    0    0  0.00000000000E+00  0.00000000000E+00  0.45593999997E+02  0.45594000000E+02  0.51100000000E-03 0. -1.
         11   -1    0    0    0    0 -0.00000000000E+00 -0.00000000000E+00 -0.45593999997E+02  0.45594000000E+02  0.51100000000E-03 0.  1.
    9900012    2    1    2    0    0  0.72160938942E+01 -0.37633486602E+02 -0.20378228543E+02  0.47787268169E+02  0.19999986889E+02 0.  0.
         12    1    1    2    0    0 -0.72160938942E+01  0.37633486602E+02  0.20378228543E+02  0.43400731831E+02  0.00000000000E+00 0. -1.
         11    1    3    3    0    0  0.71257254564E+01 -0.83681745324E+01 -0.22712181245E+01  0.11223223259E+02  0.51100000000E-03 0. -1.
        -11    1    3    3    0    0  0.26666456407E+01 -0.16195076953E+02 -0.34767157760E+01  0.16777337969E+02  0.51100000000E-03 0.  1.
         12    1    3    3    0    0 -0.25762772028E+01 -0.13070235116E+02 -0.14630294643E+02  0.19786706941E+02  0.00000000000E+00 0. -1.
</event>
<event>
 7    1  0.2653124E-010  0.4778727E+02  0.7816164E-02  0.1312668E+00
        -11   -1    0    0    0    0  0.00000000000E+00  0.00000000000E+00  0.45593999997E+02  0.45594000000E+02  0.51100000000E-03 0.  1.
         11   -1    0    0    0    0 -0.00000000000E+00 -0.00000000000E+00 -0.45593999997E+02  0.45594000000E+02  0.51100000000E-03 0. -1.
    9900012    2    1    2    0    0  0.19202784176E+02  0.28301048703E+02  0.26719414538E+02  0.47787269694E+02  0.19999993844E+02 0.  0.
         12    1    1    2    0    0 -0.19202784176E+02 -0.28301048703E+02 -0.26719414538E+02  0.43400730306E+02  0.00000000000E+00 0. -1.
         11    1    3    3    0    0  0.78919285955E+01  0.55482834805E+01  0.95180007267E+01  0.13552059793E+02  0.51100000000E-03 0. -1.
        -11    1    3    3    0    0  0.88157410644E+01  0.14964346175E+02  0.19124317920E+02  0.25833863109E+02  0.51100000000E-03 0.  1.
         12    1    3    3    0    0  0.24951145163E+01  0.77884190477E+01 -0.19229041090E+01  0.84013467923E+01  0.00000000000E+00 0. -1.
</event>
<event>
 7    1  0.2653124E-010  0.4778729E+02  0.7816164E-02  0.1312668E+00
        -11   -1    0    0    0    0  0.00000000000E+00  0.00000000000E+00  0.45593999997E+02  0.45594000000E+02  0.51100000000E-03 0.  1.
         11   -1    0    0    0    0 -0.00000000000E+00 -0.00000000000E+00 -0.45593999997E+02  0.45594000000E+02  0.51100000000E-03 0. -1.
    9900012    2    1    2    0    0 -0.71448800270E+01 -0.94416483639E+01  0.41754372058E+02  0.47787290094E+02  0.20000086854E+02 0.  0.
         12    1    1    2    0    0  0.71448800270E+01  0.94416483639E+01 -0.41754372058E+02  0.43400709906E+02  0.00000000000E+00 0. -1.
         11    1    3    3    0    0 -0.53119477522E+01 -0.24120381768E+01  0.47372983881E+01  0.75150990257E+01  0.51100000000E-03 0.  1.
        -11    1    3    3    0    0 -0.41130580397E+01 -0.10453438955E+02  0.22002179478E+02  0.24703998349E+02  0.51100000000E-03 0. -1.
         12    1    3    3    0    0  0.22801257648E+01  0.34238287675E+01  0.15014894192E+02  0.15568192719E+02  0.00000000000E+00 0. -1.
</event>
<event>
 7    1  0.2653124E-010  0.4778727E+02  0.7816164E-02  0.1312668E+00
        -11   -1    0    0    0    0  0.00000000000E+00  0.00000000000E+00  0.45593999997E+02  0.45594000000E+02  0.51100000000E-03 0.  1.
         11   -1    0    0    0    0 -0.00000000000E+00 -0.00000000000E+00 -0.45593999997E+02  0.45594000000E+02  0.51100000000E-03 0. -1.
    9900012    2    1    2    0    0  0.98488102206E+01  0.27497949961E+02  0.32101200069E+02  0.47787270044E+02  0.19999995440E+02 0.  0.
         12    1    1    2    0    0 -0.98488102206E+01 -0.27497949961E+02 -0.32101200069E+02  0.43400729956E+02  0.00000000000E+00 0. -1.
         11    1    3    3    0    0  0.23253338571E+01  0.19059343685E+01 -0.22018883824E+00  0.30146719141E+01  0.51100000000E-03 0. -1.
        -11    1    3    3    0    0  0.12116570628E+02  0.14491621883E+02  0.18173618139E+02  0.26212569220E+02  0.51100000000E-03 0.  1.
         12    1    3    3    0    0 -0.45930942650E+01  0.11100393710E+02  0.14147770768E+02  0.18560028911E+02  0.00000000000E+00 0. -1.
</event>
<event>
 7    1  0.2653124E-010  0.4778727E+02  0.7816164E-02  0.1312668E+00
        -11   -1    0    0    0    0  0.00000000000E+00  0.00000000000E+00  0.45593999997E+02  0.45594000000E+02  0.51100000000E-03 0. -1.
         11   -1    0    0    0    0 -0.00000000000E+00 -0.00000000000E+00 -0.45593999997E+02  0.45594000000E+02  0.51100000000E-03 0.  1.
    9900012    2    1    2    0    0  0.42800882624E+02  0.70345932107E+01 -0.14907207428E+01  0.47787270704E+02  0.19999998450E+02 0.  0.
         12    1    1    2    0    0 -0.42800882624E+02 -0.70345932107E+01  0.14907207428E+01  0.43400729296E+02  0.00000000000E+00 0. -1.
         11    1    3    3    0    0  0.29450557621E+02 -0.30561904704E+00  0.49816526857E+01  0.29870480594E+02  0.51100000000E-03 0. -1.
        -11    1    3    3    0    0  0.73771874377E+01  0.31637242482E+00 -0.38683354214E+01  0.83358865873E+01  0.51100000000E-03 0.  1.
         12    1    3    3    0    0  0.59731375656E+01  0.70238398329E+01 -0.26040380071E+01  0.95809035230E+01  0.00000000000E+00 0. -1.
</event>
<event>
 7    1  0.2653124E-010  0.4778727E+02  0.7816164E-02  0.1312668E+00
        -11   -1    0    0    0    0  0.00000000000E+00  0.00000000000E+00  0.45593999997E+02  0.45594000000E+02  0.51100000000E-03 0.  1.
         11   -1    0    0    0    0 -0.00000000000E+00 -0.00000000000E+00 -0.45593999997E+02  0.45594000000E+02  0.51100000000E-03 0. -1.
    9900012    2    1    2    0    0 -0.34774119756E+01 -0.14631641364E+01  0.43236445705E+02  0.47787268664E+02  0.19999989146E+02 0.  0.
         12    1    1    2    0    0  0.34774119756E+01  0.14631641364E+01 -0.43236445705E+02  0.43400731336E+02  0.00000000000E+00 0. -1.
         11    1    3    3    0    0  0.19498775032E+01  0.12534399349E+01  0.61601552421E+01  0.65818422054E+01  0.51100000000E-03 0. -1.
        -11    1    3    3    0    0  0.48479203136E+00  0.61756767668E-01  0.33967515409E+02  0.33971030902E+02  0.51100000000E-03 0.  1.
         12    1    3    3    0    0 -0.59120815102E+01 -0.27783608390E+01  0.31087750537E+01  0.72343955566E+01  0.00000000000E+00 0. -1.
</event>
<event>
 7    1  0.2653124E-010  0.4778727E+02  0.7816164E-02  0.1312668E+00
        -11   -1    0    0    0    0  0.00000000000E+00  0.00000000000E+00  0.45593999997E+02  0.45594000000E+02  0.51100000000E-03 0. -1.
         11   -1    0    0    0    0 -0.00000000000E+00 -0.00000000000E+00 -0.45593999997E+02  0.45594000000E+02  0.51100000000E-03 0.  1.
    9900012    2    1    2    0    0 -0.25880669028E+02 -0.32435960977E+02  0.12717015713E+02  0.47787273249E+02  0.20000010052E+02 0.  0.
         12    1    1    2    0    0  0.25880669028E+02  0.32435960977E+02 -0.12717015713E+02  0.43400726751E+02  0.00000000000E+00 0. -1.
         11    1    3    3    0    0 -0.63735916911E+01 -0.40360144352E+01  0.78492696840E+01  0.10886832340E+02  0.51100000000E-03 0. -1.
        -11    1    3    3    0    0 -0.88896744336E+01 -0.36120850704E+01  0.17652309125E+01  0.97565111862E+01  0.51100000000E-03 0.  1.
        -12    1    3    3    0    0 -0.10617402904E+02 -0.24787861471E+02  0.31025151165E+01  0.27143929723E+02  0.00000000000E+00 0.  1.
</event>
<event>
 7    1  0.2653124E-010  0.4778728E+02  0.7816164E-02  0.1312668E+00
        -11   -1    0    0    0    0  0.00000000000E+00  0.00000000000E+00  0.45593999997E+02  0.45594000000E+02  0.51100000000E-03 0. -1.
         11   -1    0    0    0    0 -0.00000000000E+00 -0.00000000000E+00 -0.45593999997E+02  0.45594000000E+02  0.51100000000E-03 0.  1.
    9900012    2    1    2    0    0  0.20718884440E+02 -0.14367900576E+02 -0.35325826682E+02  0.47787276848E+02  0.20000026459E+02 0.  0.
         12    1    1    2    0    0 -0.20718884440E+02  0.14367900576E+02  0.35325826682E+02  0.43400723152E+02  0.00000000000E+00 0. -1.
         11    1    3    3    0    0  0.17203517889E+01  0.85135878179E+00  0.15045167698E+01  0.24388507590E+01  0.51100000000E-03 0. -1.
        -11    1    3    3    0    0  0.81803541617E+01 -0.74056823015E+01 -0.81584122519E+01  0.13723046866E+02  0.51100000000E-03 0.  1.
         12    1    3    3    0    0  0.10818178489E+02 -0.78135770559E+01 -0.28671931200E+02  0.31625379222E+02  0.00000000000E+00 0. -1.
</event>
<event>
 7    1  0.2653124E-010  0.4778726E+02  0.7816164E-02  0.1312668E+00
        -11   -1    0    0    0    0  0.00000000000E+00  0.00000000000E+00  0.45593999997E+02  0.45594000000E+02  0.51100000000E-03 0. -1.
         11   -1    0    0    0    0 -0.00000000000E+00 -0.00000000000E+00 -0.45593999997E+02  0.45594000000E+02  0.51100000000E-03 0.  1.
    9900012    2    1    2    0    0  0.38991140747E+01 -0.19068593560E+02 -0.38791878760E+02  0.47787260276E+02  0.19999950901E+02 0.  0.
         12    1    1    2    0    0 -0.38991140747E+01  0.19068593560E+02  0.38791878760E+02  0.43400739724E+02  0.00000000000E+00 0. -1.
         11    1    3    3    0    0 -0.89384049515E+00  0.11484226062E+00 -0.20176436483E+01  0.22097569387E+01  0.51100000000E-03 0. -1.
        -11    1    3    3    0    0  0.33763185684E+01 -0.18974296521E+02 -0.38667217904E+02  0.43203902558E+02  0.51100000000E-03 0.  1.
         12    1    3    3    0    0  0.14166360014E+01 -0.20913929913E+00  0.18929827923E+01  0.23736007792E+01  0.00000000000E+00 0. -1.
</event>
<event>
 7    1  0.2653124E-010  0.4778723E+02  0.7816164E-02  0.1312668E+00
        -11   -1    0    0    0    0  0.00000000000E+00  0.00000000000E+00  0.45593999997E+02  0.45594000000E+02  0.51100000000E-03 0.  1.
         11   -1    0    0    0    0 -0.00000000000E+00 -0.00000000000E+00 -0.45593999997E+02  0.45594000000E+02  0.51100000000E-03 0. -1.
    9900012    2    1    2    0    0 -0.25405496722E+02  0.31357319303E+02  0.15965770645E+02  0.47787233073E+02  0.19999826873E+02 0.  0.
         12    1    1    2    0    0  0.25405496722E+02 -0.31357319303E+02 -0.15965770645E+02  0.43400766927E+02  0.00000000000E+00 0. -1.
         11    1    3    3    0    0 -0.10754792799E+02  0.15484317019E+02  0.17698365528E+01  0.18935732449E+02  0.51100000000E-03 0. -1.
        -11    1    3    3    0    0 -0.95723668240E+01  0.12118629404E+02  0.26185380144E+01  0.15663592399E+02  0.51100000000E-03 0.  1.
        -12    1    3    3    0    0 -0.50783370985E+01  0.37543728798E+01  0.11577396078E+02  0.13187908225E+02  0.00000000000E+00 0.  1.
</event>
<event>
 7    1  0.2653124E-010  0.4778728E+02  0.7816164E-02  0.1312668E+00
        -11   -1    0    0    0    0  0.00000000000E+00  0.00000000000E+00  0.45593999997E+02  0.45594000000E+02  0.51100000000E-03 0.  1.
         11   -1    0    0    0    0 -0.00000000000E+00 -0.00000000000E+00 -0.45593999997E+02  0.45594000000E+02  0.51100000000E-03 0. -1.
    9900012    2    1    2    0    0 -0.12042307473E+02 -0.59304439135E+01  0.41272695188E+02  0.47787277629E+02  0.20000030021E+02 0.  0.
         12    1    1    2    0    0  0.12042307473E+02  0.59304439135E+01 -0.41272695188E+02  0.43400722371E+02  0.00000000000E+00 0. -1.
         11    1    3    3    0    0 -0.52498168925E+01 -0.77577451688E+01  0.72322864240E+01  0.11834236549E+02  0.51100000000E-03 0. -1.
        -11    1    3    3    0    0 -0.42036427407E+01  0.25009334894E+01  0.58041553822E+01  0.75903557606E+01  0.51100000000E-03 0.  1.
        -12    1    3    3    0    0 -0.25888478396E+01 -0.67363223412E+00  0.28236253381E+02  0.28362685320E+02  0.00000000000E+00 0.  1.
</event>
<event>
 7    1  0.2653124E-010  0.4778727E+02  0.7816164E-02  0.1312668E+00
        -11   -1    0    0    0    0  0.00000000000E+00  0.00000000000E+00  0.45593999997E+02  0.45594000000E+02  0.51100000000E-03 0. -1.
         11   -1    0    0    0    0 -0.00000000000E+00 -0.00000000000E+00 -0.45593999997E+02  0.45594000000E+02  0.51100000000E-03 0.  1.
    9900012    2    1    2    0    0 -0.39964585536E+02 -0.40704712710E+01  0.16428227670E+02  0.47787268465E+02  0.19999988239E+02 0.  0.
         12    1    1    2    0    0  0.39964585536E+02  0.40704712710E+01 -0.16428227670E+02  0.43400731535E+02  0.00000000000E+00 0. -1.
         11    1    3    3    0    0 -0.53863848728E+01 -0.32046790942E+01 -0.40019385199E+01  0.74363043424E+01  0.51100000000E-03 0. -1.
        -11    1    3    3    0    0 -0.11510919255E+02 -0.17349035195E+01  0.56369348932E+01  0.12933916173E+02  0.51100000000E-03 0.  1.
         12    1    3    3    0    0 -0.23067281408E+02  0.86911134272E+00  0.14793231296E+02  0.27417047950E+02  0.00000000000E+00 0. -1.
</event>
<event>
 7    1  0.2653124E-010  0.4778728E+02  0.7816164E-02  0.1312668E+00
        -11   -1    0    0    0    0  0.00000000000E+00  0.00000000000E+00  0.45593999997E+02  0.45594000000E+02  0.51100000000E-03 0. -1.
         11   -1    0    0    0    0 -0.00000000000E+00 -0.00000000000E+00 -0.45593999997E+02  0.45594000000E+02  0.51100000000E-03 0.  1.
    9900012    2    1    2    0    0 -0.25187597299E+02  0.35342205702E+02  0.36920262635E+00  0.47787275672E+02  0.20000021099E+02 0.  0.
         12    1    1    2    0    0  0.25187597299E+02 -0.35342205702E+02 -0.36920262635E+00  0.43400724328E+02  0.00000000000E+00 0. -1.
         11    1    3    3    0    0 -0.15531788390E+02  0.14391117470E+02  0.71743744557E+01  0.22356483662E+02  0.51100000000E-03 0. -1.
        -11    1    3    3    0    0 -0.51973003477E+01  0.13645418831E+02 -0.17219884084E+00  0.14602706553E+02  0.51100000000E-03 0.  1.
         12    1    3    3    0    0 -0.44585085611E+01  0.73056694015E+01 -0.66329729885E+01  0.10828085457E+02  0.00000000000E+00 0. -1.
</event>
<event>
 7    1  0.2653124E-010  0.4778727E+02  0.7816164E-02  0.1312668E+00
        -11   -1    0    0    0    0  0.00000000000E+00  0.00000000000E+00  0.45593999997E+02  0.45594000000E+02  0.51100000000E-03 0.  1.
         11   -1    0    0    0    0 -0.00000000000E+00 -0.00000000000E+00 -0.45593999997E+02  0.45594000000E+02  0.51100000000E-03 0. -1.
    9900012    2    1    2    0    0 -0.42550471470E+02 -0.24610914768E+00  0.85451922339E+01  0.47787268412E+02  0.19999987999E+02 0.  0.
         12    1    1    2    0    0  0.42550471470E+02  0.24610914768E+00 -0.85451922339E+01  0.43400731588E+02  0.00000000000E+00 0. -1.
         11    1    3    3    0    0 -0.78203167261E+01 -0.34647523659E+00  0.56488557421E+01  0.96533398491E+01  0.51100000000E-03 0. -1.
        -11    1    3    3    0    0 -0.11295411886E+02 -0.50886185965E+01  0.62879916149E+01  0.13893135272E+02  0.51100000000E-03 0.  1.
         12    1    3    3    0    0 -0.23434742858E+02  0.51889846854E+01 -0.33916551232E+01  0.24240793291E+02  0.00000000000E+00 0. -1.
</event>
<event>
 7    1  0.2653124E-010  0.4778726E+02  0.7816164E-02  0.1312668E+00
        -11   -1    0    0    0    0  0.00000000000E+00  0.00000000000E+00  0.45593999997E+02  0.45594000000E+02  0.51100000000E-03 0. -1.
         11   -1    0    0    0    0 -0.00000000000E+00 -0.00000000000E+00 -0.45593999997E+02  0.45594000000E+02  0.51100000000E-03 0.  1.
    9900012    2    1    2    0    0 -0.34348200565E+02 -0.16923289196E+02 -0.20431056012E+02  0.47787255203E+02  0.19999927771E+02 0.  0.
         12    1    1    2    0    0  0.34348200565E+02  0.16923289196E+02  0.20431056012E+02  0.43400744797E+02  0.00000000000E+00 0. -1.
         11    1    3    3    0    0 -0.18130780620E+02 -0.59188913238E+01 -0.17723291166E+02  0.26036004502E+02  0.51100000000E-03 0. -1.
        -11    1    3    3    0    0 -0.93575702395E+01 -0.39829783217E+01 -0.54782117385E+01  0.11551581762E+02  0.51100000000E-03 0.  1.
        -12    1    3    3    0    0 -0.68598497051E+01 -0.70214195500E+01  0.27704468929E+01  0.10199668939E+02  0.00000000000E+00 0.  1.
</event>
<event>
 7    1  0.2653124E-010  0.4778727E+02  0.7816164E-02  0.1312668E+00
        -11   -1    0    0    0    0  0.00000000000E+00  0.00000000000E+00  0.45593999997E+02  0.45594000000E+02  0.51100000000E-03 0.  1.
         11   -1    0    0    0    0 -0.00000000000E+00 -0.00000000000E+00 -0.45593999997E+02  0.45594000000E+02  0.51100000000E-03 0. -1.
    9900012    2    1    2    0    0  0.40419229071E+02  0.69326809318E+01 -0.14207295876E+02  0.47787269595E+02  0.19999993392E+02 0.  0.
         12    1    1    2    0    0 -0.40419229071E+02 -0.69326809318E+01  0.14207295876E+02  0.43400730405E+02  0.00000000000E+00 0. -1.
         11    1    3    3    0    0  0.12243360160E+02 -0.25224049976E+01 -0.10490423387E+01  0.12544436419E+02  0.51100000000E-03 0. -1.
        -11    1    3    3    0    0  0.22561349128E+02  0.10833186180E+01 -0.97532149007E+01  0.24603114739E+02  0.51100000000E-03 0.  1.
         12    1    3    3    0    0  0.56145197827E+01  0.83717673115E+01 -0.34050386362E+01  0.10639718437E+02  0.00000000000E+00 0. -1.
</event>
<event>
 7    1  0.2653124E-010  0.4778726E+02  0.7816164E-02  0.1312668E+00
        -11   -1    0    0    0    0  0.00000000000E+00  0.00000000000E+00  0.45593999997E+02  0.45594000000E+02  0.51100000000E-03 0.  1.
         11   -1    0    0    0    0 -0.00000000000E+00 -0.00000000000E+00 -0.45593999997E+02  0.45594000000E+02  0.51100000000E-03 0. -1.
    9900012    2    1    2    0    0  0.85822532992E+01 -0.88277241563E+01  0.41617786331E+02  0.47787263548E+02  0.19999965822E+02 0.  0.
         12    1    1    2    0    0 -0.85822532992E+01  0.88277241563E+01 -0.41617786331E+02  0.43400736452E+02  0.00000000000E+00 0. -1.
         11    1    3    3    0    0  0.67458556455E+01 -0.20925176233E+00  0.50014560339E+01  0.84002926979E+01  0.51100000000E-03 0. -1.
        -11    1    3    3    0    0  0.59113513582E+01 -0.83617573928E+01  0.28837010700E+02  0.30601245856E+02  0.51100000000E-03 0.  1.
        -12    1    3    3    0    0 -0.40749537044E+01 -0.25671500113E+00  0.77793195966E+01  0.87857249940E+01  0.00000000000E+00 0.  1.
</event>
<event>
 7    1  0.2760331E-010  0.4778727E+02  0.7816164E-02  0.1312668E+00
        -11   -1    0    0    0    0  0.00000000000E+00  0.00000000000E+00  0.45593999997E+02  0.45594000000E+02  0.51100000000E-03 0. -1.
         11   -1    0    0    0    0 -0.00000000000E+00 -0.00000000000E+00 -0.45593999997E+02  0.45594000000E+02  0.51100000000E-03 0.  1.
    9900012    2    1    2    0    0  0.23470895606E+02  0.11206828174E+02 -0.34744023722E+02  0.47787272787E+02  0.20000007943E+02 0.  0.
         12    1    1    2    0    0 -0.23470895606E+02 -0.11206828174E+02  0.34744023722E+02  0.43400727213E+02  0.00000000000E+00 0. -1.
         11    1    3    3    0    0  0.34125663825E+01  0.63909794066E+01 -0.65240876821E+01  0.97495613971E+01  0.51100000000E-03 0. -1.
        -11    1    3    3    0    0  0.54115825371E+01  0.59494321326E+01 -0.19156504563E+02  0.20776251722E+02  0.51100000000E-03 0.  1.
         12    1    3    3    0    0  0.14646746686E+02 -0.11335833653E+01 -0.90634314768E+01  0.17261459668E+02  0.00000000000E+00 0. -1.
</event>
<event>
 7    1  0.2653124E-010  0.4778729E+02  0.7816164E-02  0.1312668E+00
        -11   -1    0    0    0    0  0.00000000000E+00  0.00000000000E+00  0.45593999997E+02  0.45594000000E+02  0.51100000000E-03 0.  1.
         11   -1    0    0    0    0 -0.00000000000E+00 -0.00000000000E+00 -0.45593999997E+02  0.45594000000E+02  0.51100000000E-03 0. -1.
    9900012    2    1    2    0    0 -0.41869146739E+02 -0.11371135329E+02  0.11374619216E+01  0.47787285871E+02  0.20000067598E+02 0.  0.
         12    1    1    2    0    0  0.41869146739E+02  0.11371135329E+02 -0.11374619216E+01  0.43400714129E+02  0.00000000000E+00 0. -1.
         11    1    3    3    0    0 -0.16553738556E+02 -0.68771428924E+01 -0.24610086906E+01  0.18093587775E+02  0.51100000000E-03 0. -1.
        -11    1    3    3    0    0 -0.21174035269E+02 -0.75634521763E+01  0.69632150485E+01  0.23537883134E+02  0.51100000000E-03 0.  1.
         12    1    3    3    0    0 -0.41413729142E+01  0.30694597399E+01 -0.33647444363E+01  0.61558149608E+01  0.00000000000E+00 0. -1.
</event>
<event>
 7    1  0.2653124E-010  0.4778727E+02  0.7816164E-02  0.1312668E+00
        -11   -1    0    0    0    0  0.00000000000E+00  0.00000000000E+00  0.45593999997E+02  0.45594000000E+02  0.51100000000E-03 0. -1.
         11   -1    0    0    0    0 -0.00000000000E+00 -0.00000000000E+00 -0.45593999997E+02  0.45594000000E+02  0.51100000000E-03 0.  1.
    9900012    2    1    2    0    0 -0.10768358821E+02  0.36481009543E+02 -0.20899807646E+02  0.47787267649E+02  0.19999984517E+02 0.  0.
         12    1    1    2    0    0  0.10768358821E+02 -0.36481009543E+02  0.20899807646E+02  0.43400732351E+02  0.00000000000E+00 0. -1.
         11    1    3    3    0    0  0.77128615150E+00  0.18583235017E+02 -0.69238895342E+01  0.19846202472E+02  0.51100000000E-03 0. -1.
        -11    1    3    3    0    0 -0.35771563474E+00  0.11104035351E+02 -0.65303120886E+01  0.12886913432E+02  0.51100000000E-03 0.  1.
         12    1    3    3    0    0 -0.11181929338E+02  0.67937391746E+01 -0.74456060236E+01  0.15054151744E+02  0.00000000000E+00 0. -1.
</event>
<event>
 7    1  0.2653124E-010  0.4778727E+02  0.7816164E-02  0.1312668E+00
        -11   -1    0    0    0    0  0.00000000000E+00  0.00000000000E+00  0.45593999997E+02  0.45594000000E+02  0.51100000000E-03 0.  1.
         11   -1    0    0    0    0 -0.00000000000E+00 -0.00000000000E+00 -0.45593999997E+02  0.45594000000E+02  0.51100000000E-03 0. -1.
    9900012    2    1    2    0    0  0.33836941246E+02  0.20169921092E+02  0.18217006422E+02  0.47787266911E+02  0.19999981152E+02 0.  0.
         12    1    1    2    0    0 -0.33836941246E+02 -0.20169921092E+02 -0.18217006422E+02  0.43400733089E+02  0.00000000000E+00 0. -1.
         11    1    3    3    0    0  0.27735873835E+02  0.10046967085E+02  0.10288955712E+02  0.31242324736E+02  0.51100000000E-03 0. -1.
        -11    1    3    3    0    0  0.58744095906E+01  0.41005787237E+01  0.76952404945E+01  0.10513808084E+02  0.51100000000E-03 0.  1.
         12    1    3    3    0    0  0.22665782019E+00  0.60223752831E+01  0.23281021525E+00  0.60311340902E+01  0.00000000000E+00 0. -1.
</event>
<event>
 7    1  0.2653124E-010  0.4778726E+02  0.7816164E-02  0.1312668E+00
        -11   -1    0    0    0    0  0.00000000000E+00  0.00000000000E+00  0.45593999997E+02  0.45594000000E+02  0.51100000000E-03 0.  1.
         11   -1    0    0    0    0 -0.00000000000E+00 -0.00000000000E+00 -0.45593999997E+02  0.45594000000E+02  0.51100000000E-03 0. -1.
    9900012    2    1    2    0    0 -0.38242502787E+01 -0.19742208285E+02  0.38460949225E+02  0.47787259298E+02  0.19999946445E+02 0.  0.
         12    1    1    2    0    0  0.38242502787E+01  0.19742208285E+02 -0.38460949225E+02  0.43400740702E+02  0.00000000000E+00 0. -1.
         11    1    3    3    0    0 -0.34982560355E+01 -0.11043342479E+02  0.11064523615E+02  0.16019266260E+02  0.51100000000E-03 0. -1.
        -11    1    3    3    0    0  0.28549393749E+01 -0.11490360557E+02  0.20679184713E+02  0.23828716819E+02  0.51100000000E-03 0.  1.
         12    1    3    3    0    0 -0.31809336181E+01  0.27914947516E+01  0.67172408966E+01  0.79392762198E+01  0.00000000000E+00 0. -1.
</event>
<event>
 7    1  0.2653124E-010  0.4778727E+02  0.7816164E-02  0.1312668E+00
        -11   -1    0    0    0    0  0.00000000000E+00  0.00000000000E+00  0.45593999997E+02  0.45594000000E+02  0.51100000000E-03 0.  1.
         11   -1    0    0    0    0 -0.00000000000E+00 -0.00000000000E+00 -0.45593999997E+02  0.45594000000E+02  0.51100000000E-03 0. -1.
    9900012    2    1    2    0    0  0.43314658558E+02 -0.42385745953E+00 -0.26988566963E+01  0.47787272718E+02  0.20000007633E+02 0.  0.
         12    1    1    2    0    0 -0.43314658558E+02  0.42385745953E+00  0.26988566963E+01  0.43400727282E+02  0.00000000000E+00 0. -1.
         11    1    3    3    0    0  0.64523482463E+00 -0.11159019637E+01 -0.13975737664E+01  0.19012569172E+01  0.51100000000E-03 0. -1.
        -11    1    3    3    0    0  0.15429585065E+02  0.81061414577E+01  0.16201194575E+01  0.17504468342E+02  0.51100000000E-03 0.  1.
         12    1    3    3    0    0  0.27239838667E+02 -0.74140969535E+01 -0.29214023874E+01  0.28381547459E+02  0.00000000000E+00 0. -1.
</event>
<event>
 7    1  0.2653124E-010  0.4778725E+02  0.7816164E-02  0.1312668E+00
        -11   -1    0    0    0    0  0.00000000000E+00  0.00000000000E+00  0.45593999997E+02  0.45594000000E+02  0.51100000000E-03 0.  1.
         11   -1    0    0    0    0 -0.00000000000E+00 -0.00000000000E+00 -0.45593999997E+02  0.45594000000E+02  0.51100000000E-03 0. -1.
    9900012    2    1    2    0    0 -0.31846339792E+02  0.29480828330E+02  0.56289246193E+00  0.47787246031E+02  0.19999885954E+02 0.  0.
         12    1    1    2    0    0  0.31846339792E+02 -0.29480828330E+02 -0.56289246193E+00  0.43400753969E+02  0.00000000000E+00 0. -1.
         11    1    3    3    0    0 -0.23756276037E+01  0.13003488764E+01 -0.16947914134E+00  0.27135285427E+01  0.51100000000E-03 0. -1.
        -11    1    3    3    0    0 -0.28883123439E+02  0.19831261030E+02 -0.43136373336E+01  0.35300441937E+02  0.51100000000E-03 0.  1.
         12    1    3    3    0    0 -0.58758874940E+00  0.83492184230E+01  0.50460089369E+01  0.97732755514E+01  0.00000000000E+00 0. -1.
</event>
<event>
 7    1  0.2653124E-010  0.4778726E+02  0.7816164E-02  0.1312668E+00
        -11   -1    0    0    0    0  0.00000000000E+00  0.00000000000E+00  0.45593999997E+02  0.45594000000E+02  0.51100000000E-03 0.  1.
         11   -1    0    0    0    0 -0.00000000000E+00 -0.00000000000E+00 -0.45593999997E+02  0.45594000000E+02  0.51100000000E-03 0. -1.
    9900012    2    1    2    0    0 -0.27237589479E+02 -0.28100580853E+02  0.18764201117E+02  0.47787260738E+02  0.19999953009E+02 0.  0.
         12    1    1    2    0    0  0.27237589479E+02  0.28100580853E+02 -0.18764201117E+02  0.43400739262E+02  0.00000000000E+00 0. -1.
         11    1    3    3    0    0 -0.18261503842E+01 -0.49568211471E+01  0.77364571373E+01  0.93679064047E+01  0.51100000000E-03 0. -1.
        -11    1    3    3    0    0 -0.33143885843E+01 -0.37118650976E+01  0.71903528166E+01  0.87443860893E+01  0.51100000000E-03 0.  1.
        -12    1    3    3    0    0 -0.22097050511E+02 -0.19431894608E+02  0.38373911635E+01  0.29674968244E+02  0.00000000000E+00 0.  1.
</event>
<event>
 7    1  0.2653124E-010  0.4778727E+02  0.7816164E-02  0.1312668E+00
        -11   -1    0    0    0    0  0.00000000000E+00  0.00000000000E+00  0.45593999997E+02  0.45594000000E+02  0.51100000000E-03 0.  1.
         11   -1    0    0    0    0 -0.00000000000E+00 -0.00000000000E+00 -0.45593999997E+02  0.45594000000E+02  0.51100000000E-03 0. -1.
    9900012    2    1    2    0    0 -0.28101790114E+02  0.38493972445E+01  0.32849578937E+02  0.47787270708E+02  0.19999998466E+02 0.  0.
         12    1    1    2    0    0  0.28101790114E+02 -0.38493972445E+01 -0.32849578937E+02  0.43400729292E+02  0.00000000000E+00 0. -1.
         11    1    3    3    0    0  0.16876686655E+01 -0.10379765858E+01  0.22021494946E+01  0.29622767552E+01  0.51100000000E-03 0. -1.
        -11    1    3    3    0    0 -0.12024126969E+02  0.51550025392E+01  0.20629326709E+02  0.24427910293E+02  0.51100000000E-03 0.  1.
         12    1    3    3    0    0 -0.17765331810E+02 -0.26762870897E+00  0.10018102734E+02  0.20397083660E+02  0.00000000000E+00 0. -1.
</event>
<event>
 7    1  0.2653124E-010  0.4778727E+02  0.7816164E-02  0.1312668E+00
        -11   -1    0    0    0    0  0.00000000000E+00  0.00000000000E+00  0.45593999997E+02  0.45594000000E+02  0.51100000000E-03 0.  1.
         11   -1    0    0    0    0 -0.00000000000E+00 -0.00000000000E+00 -0.45593999997E+02  0.45594000000E+02  0.51100000000E-03 0. -1.
    9900012    2    1    2    0    0  0.13901298537E+02 -0.13718760260E+02  0.38757875314E+02  0.47787269788E+02  0.19999994272E+02 0.  0.
         12    1    1    2    0    0 -0.13901298537E+02  0.13718760260E+02 -0.38757875314E+02  0.43400730212E+02  0.00000000000E+00 0. -1.
         11    1    3    3    0    0 -0.17264781656E+01 -0.49389840553E+01  0.94354633727E+01  0.10788987889E+02  0.51100000000E-03 0.  1.
        -11    1    3    3    0    0  0.36662053872E+01  0.31005408509E+01  0.27622117692E+01  0.55393347641E+01  0.51100000000E-03 0. -1.
        -12    1    3    3    0    0  0.11961571315E+02 -0.11880317055E+02  0.26560200172E+02  0.31458947135E+02  0.00000000000E+00 0.  1.
</event>
<event>
 7    1  0.2653124E-010  0.4778724E+02  0.7816164E-02  0.1312668E+00
        -11   -1    0    0    0    0  0.00000000000E+00  0.00000000000E+00  0.45593999997E+02  0.45594000000E+02  0.51100000000E-03 0.  1.
         11   -1    0    0    0    0 -0.00000000000E+00 -0.00000000000E+00 -0.45593999997E+02  0.45594000000E+02  0.51100000000E-03 0. -1.
    9900012    2    1    2    0    0 -0.43022255907E+00 -0.86608831124E+01  0.42525637368E+02  0.47787241697E+02  0.19999866192E+02 0.  0.
         12    1    1    2    0    0  0.43022255907E+00  0.86608831124E+01 -0.42525637368E+02  0.43400758303E+02  0.00000000000E+00 0. -1.
         11    1    3    3    0    0 -0.52382684037E+01  0.11449363446E+01  0.12010656680E+02  0.13153182476E+02  0.51100000000E-03 0. -1.
        -11    1    3    3    0    0 -0.22979645853E+01 -0.80756651679E+01  0.11327421166E+02  0.14099910627E+02  0.51100000000E-03 0.  1.
        -12    1    3    3    0    0  0.71060104300E+01 -0.17301542891E+01  0.19187559521E+02  0.20534148594E+02  0.00000000000E+00 0.  1.
</event>
<event>
 7    1  0.2767569E-010  0.4778727E+02  0.7816164E-02  0.1312668E+00
        -11   -1    0    0    0    0  0.00000000000E+00  0.00000000000E+00  0.45593999997E+02  0.45594000000E+02  0.51100000000E-03 0. -1.
         11   -1    0    0    0    0 -0.00000000000E+00 -0.00000000000E+00 -0.45593999997E+02  0.45594000000E+02  0.51100000000E-03 0.  1.
    9900012    2    1    2    0    0 -0.38033716683E+02 -0.95590748569E+01 -0.18592571087E+02  0.47787271706E+02  0.20000003016E+02 0.  0.
         12    1    1    2    0    0  0.38033716683E+02  0.95590748569E+01  0.18592571087E+02  0.43400728294E+02  0.00000000000E+00 0. -1.
         11    1    3    3    0    0  0.17154993161E+00 -0.51447414531E+00 -0.38161886492E+01  0.38545309822E+01  0.51100000000E-03 0. -1.
        -11    1    3    3    0    0 -0.19171255318E+02 -0.10176917167E+02 -0.11573933669E+02  0.24598020537E+02  0.51100000000E-03 0.  1.
         12    1    3    3    0    0 -0.19034011296E+02  0.11323164558E+01 -0.32024487693E+01  0.19334720186E+02  0.00000000000E+00 0. -1.
</event>
<event>
 7    1  0.2653124E-010  0.4778727E+02  0.7816164E-02  0.1312668E+00
        -11   -1    0    0    0    0  0.00000000000E+00  0.00000000000E+00  0.45593999997E+02  0.45594000000E+02  0.51100000000E-03 0. -1.
         11   -1    0    0    0    0 -0.00000000000E+00 -0.00000000000E+00 -0.45593999997E+02  0.45594000000E+02  0.51100000000E-03 0.  1.
    9900012    2    1    2    0    0 -0.85215661222E+01  0.41531058300E+02 -0.92831880007E+01  0.47787268760E+02  0.19999989586E+02 0.  0.
         12    1    1    2    0    0  0.85215661222E+01 -0.41531058300E+02  0.92831880007E+01  0.43400731240E+02  0.00000000000E+00 0. -1.
         11    1    3    3    0    0  0.19686859279E+01  0.17047528932E+02 -0.25668707157E+01  0.17351737449E+02  0.51100000000E-03 0. -1.
        -11    1    3    3    0    0 -0.38694243182E+01  0.16094418964E+02 -0.98959161082E+01  0.19285536607E+02  0.51100000000E-03 0.  1.
         12    1    3    3    0    0 -0.66208277319E+01  0.83891104042E+01  0.31795988231E+01  0.11149994704E+02  0.00000000000E+00 0. -1.
</event>
<event>
 7    1  0.2653124E-010  0.4778727E+02  0.7816164E-02  0.1312668E+00
        -11   -1    0    0    0    0  0.00000000000E+00  0.00000000000E+00  0.45593999997E+02  0.45594000000E+02  0.51100000000E-03 0. -1.
         11   -1    0    0    0    0 -0.00000000000E+00 -0.00000000000E+00 -0.45593999997E+02  0.45594000000E+02  0.51100000000E-03 0.  1.
    9900012    2    1    2    0    0  0.34600322883E+02 -0.25772223043E+02 -0.47152409049E+01  0.47787270501E+02  0.19999997523E+02 0.  0.
         12    1    1    2    0    0 -0.34600322883E+02  0.25772223043E+02  0.47152409049E+01  0.43400729499E+02  0.00000000000E+00 0. -1.
         11    1    3    3    0    0  0.40828580788E+01 -0.66522641373E+01 -0.38310350802E+01  0.86947787948E+01  0.51100000000E-03 0. -1.
        -11    1    3    3    0    0  0.15817270383E+02 -0.13350842916E+02 -0.74385319891E+01  0.21994608598E+02  0.51100000000E-03 0.  1.
        -12    1    3    3    0    0  0.14700194421E+02 -0.57691159898E+01  0.65543261644E+01  0.17097883109E+02  0.00000000000E+00 0.  1.
</event>
<event>
 7    1  0.2653124E-010  0.4778727E+02  0.7816164E-02  0.1312668E+00
        -11   -1    0    0    0    0  0.00000000000E+00  0.00000000000E+00  0.45593999997E+02  0.45594000000E+02  0.51100000000E-03 0.  1.
         11   -1    0    0    0    0 -0.00000000000E+00 -0.00000000000E+00 -0.45593999997E+02  0.45594000000E+02  0.51100000000E-03 0. -1.
    9900012    2    1    2    0    0 -0.54882514384E+01  0.22137398713E+02  0.36924761970E+02  0.47787269912E+02  0.19999994835E+02 0.  0.
         12    1    1    2    0    0  0.54882514384E+01 -0.22137398713E+02 -0.36924761970E+02  0.43400730088E+02  0.00000000000E+00 0. -1.
         11    1    3    3    0    0 -0.57781828929E+01  0.81710284138E+01  0.10180740971E+02  0.14275874399E+02  0.51100000000E-03 0. -1.
        -11    1    3    3    0    0 -0.18742844003E+01  0.70612423293E+01  0.25030573840E+02  0.26074963322E+02  0.51100000000E-03 0.  1.
         12    1    3    3    0    0  0.21642158548E+01  0.69051279704E+01  0.17134471595E+01  0.74364321904E+01  0.00000000000E+00 0. -1.
</event>
<event>
 7    1  0.2653124E-010  0.4778727E+02  0.7816164E-02  0.1312668E+00
        -11   -1    0    0    0    0  0.00000000000E+00  0.00000000000E+00  0.45593999997E+02  0.45594000000E+02  0.51100000000E-03 0.  1.
         11   -1    0    0    0    0 -0.00000000000E+00 -0.00000000000E+00 -0.45593999997E+02  0.45594000000E+02  0.51100000000E-03 0. -1.
    9900012    2    1    2    0    0 -0.31519771774E+02 -0.25228177925E+02  0.15926899808E+02  0.47787272914E+02  0.20000008525E+02 0.  0.
         12    1    1    2    0    0  0.31519771774E+02  0.25228177925E+02 -0.15926899808E+02  0.43400727086E+02  0.00000000000E+00 0. -1.
         11    1    3    3    0    0 -0.22853350546E+02 -0.94820674144E+01  0.27467017712E+01  0.24894368931E+02  0.51100000000E-03 0. -1.
        -11    1    3    3    0    0 -0.33893715488E+01 -0.30251651036E+01  0.13555499698E+01  0.47409892830E+01  0.51100000000E-03 0.  1.
        -12    1    3    3    0    0 -0.52770496792E+01 -0.12720945407E+02  0.11824648067E+02  0.18151914700E+02  0.00000000000E+00 0.  1.
</event>
<event>
 7    1  0.2653124E-010  0.4778727E+02  0.7816164E-02  0.1312668E+00
        -11   -1    0    0    0    0  0.00000000000E+00  0.00000000000E+00  0.45593999997E+02  0.45594000000E+02  0.51100000000E-03 0.  1.
         11   -1    0    0    0    0 -0.00000000000E+00 -0.00000000000E+00 -0.45593999997E+02  0.45594000000E+02  0.51100000000E-03 0. -1.
    9900012    2    1    2    0    0  0.40336187696E+02 -0.12333930966E+02  0.10222010097E+02  0.47787269806E+02  0.19999994355E+02 0.  0.
         12    1    1    2    0    0 -0.40336187696E+02  0.12333930966E+02 -0.10222010097E+02  0.43400730194E+02  0.00000000000E+00 0. -1.
         11    1    3    3    0    0  0.11211948329E+02 -0.37608950290E+01  0.56480617971E+01  0.13105446161E+02  0.51100000000E-03 0.  1.
        -11    1    3    3    0    0  0.29118039488E+02 -0.10025740854E+02  0.98661760035E+00  0.30811509503E+02  0.51100000000E-03 0. -1.
         12    1    3    3    0    0  0.61998790290E-02  0.14527049172E+01  0.35873306993E+01  0.38703141424E+01  0.00000000000E+00 0. -1.
</event>
<event>
 7    1  0.2653124E-010  0.4778727E+02  0.7816164E-02  0.1312668E+00
        -11   -1    0    0    0    0  0.00000000000E+00  0.00000000000E+00  0.45593999997E+02  0.45594000000E+02  0.51100000000E-03 0.  1.
         11   -1    0    0    0    0 -0.00000000000E+00 -0.00000000000E+00 -0.45593999997E+02  0.45594000000E+02  0.51100000000E-03 0. -1.
    9900012    2    1    2    0    0 -0.29195037807E+01 -0.47704085149E+01  0.43038854555E+02  0.47787270731E+02  0.19999998569E+02 0.  0.
         12    1    1    2    0    0  0.29195037807E+01  0.47704085149E+01 -0.43038854555E+02  0.43400729269E+02  0.00000000000E+00 0. -1.
         11    1    3    3    0    0 -0.94981178230E+00  0.18688218474E+01 -0.78447371679E+00  0.22383111474E+01  0.51100000000E-03 0. -1.
        -11    1    3    3    0    0 -0.10594541992E+01  0.19009152297E+01  0.23795371522E+01  0.32246114852E+01  0.51100000000E-03 0.  1.
        -12    1    3    3    0    0 -0.91023779916E+00 -0.85401455920E+01  0.41443791119E+02  0.42324348098E+02  0.00000000000E+00 0.  1.
</event>
<event>
 7    1  0.2653124E-010  0.4778726E+02  0.7816164E-02  0.1312668E+00
        -11   -1    0    0    0    0  0.00000000000E+00  0.00000000000E+00  0.45593999997E+02  0.45594000000E+02  0.51100000000E-03 0.  1.
         11   -1    0    0    0    0 -0.00000000000E+00 -0.00000000000E+00 -0.45593999997E+02  0.45594000000E+02  0.51100000000E-03 0. -1.
    9900012    2    1    2    0    0 -0.28446590590E+02  0.70287916306E+01  0.32015803334E+02  0.47787261629E+02  0.19999957072E+02 0.  0.
         12    1    1    2    0    0  0.28446590590E+02 -0.70287916306E+01 -0.32015803334E+02  0.43400738371E+02  0.00000000000E+00 0. -1.
         11    1    3    3    0    0 -0.76663022692E+01  0.27970289895E+01  0.12281258983E+02  0.14745334317E+02  0.51100000000E-03 0. -1.
        -11    1    3    3    0    0 -0.17182798432E+02  0.54374347868E+01  0.22141079010E+02  0.28548934113E+02  0.51100000000E-03 0.  1.
         12    1    3    3    0    0 -0.35974898893E+01 -0.12056721457E+01 -0.24065346584E+01  0.44929931993E+01  0.00000000000E+00 0. -1.
</event>
<event>
 7    1  0.2653124E-010  0.4778727E+02  0.7816164E-02  0.1312668E+00
        -11   -1    0    0    0    0  0.00000000000E+00  0.00000000000E+00  0.45593999997E+02  0.45594000000E+02  0.51100000000E-03 0. -1.
         11   -1    0    0    0    0 -0.00000000000E+00 -0.00000000000E+00 -0.45593999997E+02  0.45594000000E+02  0.51100000000E-03 0.  1.
    9900012    2    1    2    0    0 -0.35393621257E+02 -0.23511385145E+02 -0.88390972007E+01  0.47787270784E+02  0.19999998814E+02 0.  0.
         12    1    1    2    0    0  0.35393621257E+02  0.23511385145E+02  0.88390972007E+01  0.43400729216E+02  0.00000000000E+00 0. -1.
         11    1    3    3    0    0 -0.11835007387E+01 -0.22590607211E+01 -0.49392475178E+01  0.55587944415E+01  0.51100000000E-03 0. -1.
        -11    1    3    3    0    0 -0.18141178752E+02 -0.10744051789E+02 -0.80792411805E+01  0.22578998066E+02  0.51100000000E-03 0.  1.
         12    1    3    3    0    0 -0.16068941767E+02 -0.10508272636E+02  0.41793914976E+01  0.19649478277E+02  0.00000000000E+00 0. -1.
</event>
<event>
 7    1  0.2653124E-010  0.4778727E+02  0.7816164E-02  0.1312668E+00
        -11   -1    0    0    0    0  0.00000000000E+00  0.00000000000E+00  0.45593999997E+02  0.45594000000E+02  0.51100000000E-03 0.  1.
         11   -1    0    0    0    0 -0.00000000000E+00 -0.00000000000E+00 -0.45593999997E+02  0.45594000000E+02  0.51100000000E-03 0. -1.
    9900012    2    1    2    0    0  0.13058734261E+02 -0.22957441610E+02  0.34439056782E+02  0.47787270769E+02  0.19999998742E+02 0.  0.
         12    1    1    2    0    0 -0.13058734261E+02  0.22957441610E+02 -0.34439056782E+02  0.43400729231E+02  0.00000000000E+00 0. -1.
         11    1    3    3    0    0  0.16213587932E+01  0.20506415900E+01  0.35235022568E+01  0.43873686512E+01  0.51100000000E-03 0. -1.
        -11    1    3    3    0    0  0.14144948261E+01 -0.97908964534E+01  0.35243611961E+01  0.10501598501E+02  0.51100000000E-03 0.  1.
        -12    1    3    3    0    0  0.10022880642E+02 -0.15217186747E+02  0.27391193329E+02  0.32898303616E+02  0.00000000000E+00 0.  1.
</event>
<event>
 7    1  0.2653124E-010  0.4778728E+02  0.7816164E-02  0.1312668E+00
        -11   -1    0    0    0    0  0.00000000000E+00  0.00000000000E+00  0.45593999997E+02  0.45594000000E+02  0.51100000000E-03 0.  1.
         11   -1    0    0    0    0 -0.00000000000E+00 -0.00000000000E+00 -0.45593999997E+02  0.45594000000E+02  0.51100000000E-03 0. -1.
    9900012    2    1    2    0    0  0.42137572796E+02  0.79474758172E+01  0.66996609307E+01  0.47787275702E+02  0.20000021235E+02 0.  0.
         12    1    1    2    0    0 -0.42137572796E+02 -0.79474758172E+01 -0.66996609307E+01  0.43400724298E+02  0.00000000000E+00 0. -1.
         11    1    3    3    0    0  0.96991775708E+01 -0.19918224958E+01 -0.26865170715E+01  0.10259570003E+02  0.51100000000E-03 0. -1.
        -11    1    3    3    0    0  0.19436968106E+02 -0.39530610580E+00  0.27156472461E+01  0.19629741116E+02  0.51100000000E-03 0.  1.
         12    1    3    3    0    0  0.13001427120E+02  0.10334604419E+02  0.66705307561E+01  0.17897964583E+02  0.00000000000E+00 0. -1.
</event>
<event>
 7    1  0.2653124E-010  0.4778728E+02  0.7816164E-02  0.1312668E+00
        -11   -1    0    0    0    0  0.00000000000E+00  0.00000000000E+00  0.45593999997E+02  0.45594000000E+02  0.51100000000E-03 0.  1.
         11   -1    0    0    0    0 -0.00000000000E+00 -0.00000000000E+00 -0.45593999997E+02  0.45594000000E+02  0.51100000000E-03 0. -1.
    9900012    2    1    2    0    0 -0.12476170276E+02  0.17461168988E+02  0.37723664776E+02  0.47787284207E+02  0.20000060014E+02 0.  0.
         12    1    1    2    0    0  0.12476170276E+02 -0.17461168988E+02 -0.37723664776E+02  0.43400715793E+02  0.00000000000E+00 0. -1.
         11    1    3    3    0    0 -0.87786332551E+00  0.69573844569E+01  0.70123642352E+01  0.99171112189E+01  0.51100000000E-03 0. -1.
        -11    1    3    3    0    0 -0.29407336941E+01  0.57900100221E+01  0.26265447358E+02  0.27056345945E+02  0.51100000000E-03 0.  1.
        -12    1    3    3    0    0 -0.86575732560E+01  0.47137745090E+01  0.44458531833E+01  0.10813827044E+02  0.00000000000E+00 0.  1.
</event>
<event>
 7    1  0.2653124E-010  0.4778727E+02  0.7816164E-02  0.1312668E+00
        -11   -1    0    0    0    0  0.00000000000E+00  0.00000000000E+00  0.45593999997E+02  0.45594000000E+02  0.51100000000E-03 0.  1.
         11   -1    0    0    0    0 -0.00000000000E+00 -0.00000000000E+00 -0.45593999997E+02  0.45594000000E+02  0.51100000000E-03 0. -1.
    9900012    2    1    2    0    0  0.14647374944E+02 -0.38585217014E+02  0.13426041697E+02  0.47787272352E+02  0.20000005960E+02 0.  0.
         12    1    1    2    0    0 -0.14647374944E+02  0.38585217014E+02 -0.13426041697E+02  0.43400727648E+02  0.00000000000E+00 0. -1.
         11    1    3    3    0    0 -0.10435257285E+01 -0.21899231563E+01 -0.56749790136E+00  0.24913376940E+01  0.51100000000E-03 0. -1.
        -11    1    3    3    0    0 -0.34478151534E+01 -0.31435798996E+01  0.86243024424E+00  0.47448192911E+01  0.51100000000E-03 0.  1.
         12    1    3    3    0    0  0.19138715826E+02 -0.33251713958E+02  0.13131109354E+02  0.40551115367E+02  0.00000000000E+00 0. -1.
</event>
<event>
 7    1  0.2653124E-010  0.4778727E+02  0.7816164E-02  0.1312668E+00
        -11   -1    0    0    0    0  0.00000000000E+00  0.00000000000E+00  0.45593999997E+02  0.45594000000E+02  0.51100000000E-03 0.  1.
         11   -1    0    0    0    0 -0.00000000000E+00 -0.00000000000E+00 -0.45593999997E+02  0.45594000000E+02  0.51100000000E-03 0. -1.
    9900012    2    1    2    0    0  0.78163775067E+01  0.28466105392E+02  0.31815220697E+02  0.47787272108E+02  0.20000004851E+02 0.  0.
         12    1    1    2    0    0 -0.78163775067E+01 -0.28466105392E+02 -0.31815220697E+02  0.43400727892E+02  0.00000000000E+00 0. -1.
         11    1    3    3    0    0  0.45448796829E+01  0.61153279110E+01  0.13281655448E+02  0.15311941043E+02  0.51100000000E-03 0. -1.
        -11    1    3    3    0    0  0.62960034512E+01  0.14725136874E+02  0.18231304227E+02  0.24266226932E+02  0.51100000000E-03 0.  1.
         12    1    3    3    0    0 -0.30245056274E+01  0.76256406069E+01  0.30226102158E+00  0.82091041339E+01  0.00000000000E+00 0. -1.
</event>
<event>
 7    1  0.2653124E-010  0.4778727E+02  0.7816164E-02  0.1312668E+00
        -11   -1    0    0    0    0  0.00000000000E+00  0.00000000000E+00  0.45593999997E+02  0.45594000000E+02  0.51100000000E-03 0.  1.
         11   -1    0    0    0    0 -0.00000000000E+00 -0.00000000000E+00 -0.45593999997E+02  0.45594000000E+02  0.51100000000E-03 0. -1.
    9900012    2    1    2    0    0 -0.38970020434E+02  0.83102952889E+00  0.19085862929E+02  0.47787271130E+02  0.20000000390E+02 0.  0.
         12    1    1    2    0    0  0.38970020434E+02 -0.83102952889E+00 -0.19085862929E+02  0.43400728870E+02  0.00000000000E+00 0. -1.
         11    1    3    3    0    0 -0.67412909151E+01 -0.46481381457E+00  0.19152549825E+01  0.70234789808E+01  0.51100000000E-03 0. -1.
        -11    1    3    3    0    0 -0.22240189098E+02 -0.74531019099E+01  0.13147985083E+02  0.26889482167E+02  0.51100000000E-03 0.  1.
         12    1    3    3    0    0 -0.99885404208E+01  0.87489452534E+01  0.40226228638E+01  0.13874309982E+02  0.00000000000E+00 0. -1.
</event>
<event>
 7    1  0.2653124E-010  0.4778725E+02  0.7816164E-02  0.1312668E+00
        -11   -1    0    0    0    0  0.00000000000E+00  0.00000000000E+00  0.45593999997E+02  0.45594000000E+02  0.51100000000E-03 0.  1.
         11   -1    0    0    0    0 -0.00000000000E+00 -0.00000000000E+00 -0.45593999997E+02  0.45594000000E+02  0.51100000000E-03 0. -1.
    9900012    2    1    2    0    0 -0.29877986608E+02 -0.17536782511E+02  0.26141771696E+02  0.47787250560E+02  0.19999906602E+02 0.  0.
         12    1    1    2    0    0  0.29877986608E+02  0.17536782511E+02 -0.26141771696E+02  0.43400749440E+02  0.00000000000E+00 0. -1.
         11    1    3    3    0    0 -0.22194110867E+01  0.22496086951E+01  0.28331390420E+01  0.42441962661E+01  0.51100000000E-03 0. -1.
        -11    1    3    3    0    0 -0.85939648460E+01 -0.23293707257E+00  0.99245204747E+01  0.13130369316E+02  0.51100000000E-03 0.  1.
        -12    1    3    3    0    0 -0.19064610675E+02 -0.19553454133E+02  0.13384112180E+02  0.30412684978E+02  0.00000000000E+00 0.  1.
</event>
<event>
 7    1  0.2653124E-010  0.4778727E+02  0.7816164E-02  0.1312668E+00
        -11   -1    0    0    0    0  0.00000000000E+00  0.00000000000E+00  0.45593999997E+02  0.45594000000E+02  0.51100000000E-03 0.  1.
         11   -1    0    0    0    0 -0.00000000000E+00 -0.00000000000E+00 -0.45593999997E+02  0.45594000000E+02  0.51100000000E-03 0. -1.
    9900012    2    1    2    0    0 -0.33963399957E+02 -0.90891340990E+01  0.25445988185E+02  0.47787271780E+02  0.20000003356E+02 0.  0.
         12    1    1    2    0    0  0.33963399957E+02  0.90891340990E+01 -0.25445988185E+02  0.43400728220E+02  0.00000000000E+00 0. -1.
         11    1    3    3    0    0 -0.10257985472E+02 -0.37706252134E+01  0.18052924060E+02  0.21103363424E+02  0.51100000000E-03 0. -1.
        -11    1    3    3    0    0 -0.11922800404E+02 -0.57602954999E+01  0.67820932153E+01  0.14877196052E+02  0.51100000000E-03 0.  1.
         12    1    3    3    0    0 -0.11782614081E+02  0.44178661433E+00  0.61097090985E+00  0.11806712305E+02  0.00000000000E+00 0. -1.
</event>
<event>
 7    1  0.2653124E-010  0.4778726E+02  0.7816164E-02  0.1312668E+00
        -11   -1    0    0    0    0  0.00000000000E+00  0.00000000000E+00  0.45593999997E+02  0.45594000000E+02  0.51100000000E-03 0.  1.
         11   -1    0    0    0    0 -0.00000000000E+00 -0.00000000000E+00 -0.45593999997E+02  0.45594000000E+02  0.51100000000E-03 0. -1.
    9900012    2    1    2    0    0  0.11860133233E+02  0.11371017465E+02  0.40170402676E+02  0.47787262107E+02  0.19999959252E+02 0.  0.
         12    1    1    2    0    0 -0.11860133233E+02 -0.11371017465E+02 -0.40170402676E+02  0.43400737893E+02  0.00000000000E+00 0. -1.
         11    1    3    3    0    0  0.71681429357E+01  0.59061499676E+01  0.10615197074E+02  0.14104867592E+02  0.51100000000E-03 0.  1.
        -11    1    3    3    0    0  0.86549440525E+01  0.77062072899E+01  0.20578732101E+02  0.23617322085E+02  0.51100000000E-03 0. -1.
         12    1    3    3    0    0 -0.39629537548E+01 -0.22413397922E+01  0.89764735005E+01  0.10065072430E+02  0.00000000000E+00 0. -1.
</event>
<event>
 7    1  0.3482724E-010  0.4778727E+02  0.7816164E-02  0.1312668E+00
        -11   -1    0    0    0    0  0.00000000000E+00  0.00000000000E+00  0.45593999997E+02  0.45594000000E+02  0.51100000000E-03 0. -1.
         11   -1    0    0    0    0 -0.00000000000E+00 -0.00000000000E+00 -0.45593999997E+02  0.45594000000E+02  0.51100000000E-03 0.  1.
    9900012    2    1    2    0    0  0.66991770845E+01 -0.37323832968E+02 -0.21111036671E+02  0.47787270163E+02  0.19999995982E+02 0.  0.
         12    1    1    2    0    0 -0.66991770845E+01  0.37323832968E+02  0.21111036671E+02  0.43400729837E+02  0.00000000000E+00 0. -1.
         11    1    3    3    0    0  0.22930750295E+01 -0.25718196926E+00 -0.33481966206E+01  0.40662951846E+01  0.51100000000E-03 0. -1.
        -11    1    3    3    0    0  0.63513794414E+01 -0.16439227109E+02 -0.14341368433E+02  0.22721422877E+02  0.51100000000E-03 0.  1.
         12    1    3    3    0    0 -0.19452773865E+01 -0.20627423890E+02 -0.34214716169E+01  0.20999552102E+02  0.00000000000E+00 0. -1.
</event>
<event>
 7    1  0.2653124E-010  0.4778726E+02  0.7816164E-02  0.1312668E+00
        -11   -1    0    0    0    0  0.00000000000E+00  0.00000000000E+00  0.45593999997E+02  0.45594000000E+02  0.51100000000E-03 0. -1.
         11   -1    0    0    0    0 -0.00000000000E+00 -0.00000000000E+00 -0.45593999997E+02  0.45594000000E+02  0.51100000000E-03 0.  1.
    9900012    2    1    2    0    0  0.36056180710E+02  0.33892684454E+00 -0.24154937389E+02  0.47787262229E+02  0.19999959808E+02 0.  0.
         12    1    1    2    0    0 -0.36056180710E+02 -0.33892684454E+00  0.24154937389E+02  0.43400737771E+02  0.00000000000E+00 0. -1.
         11    1    3    3    0    0  0.32465403387E+01  0.11733680723E+01 -0.81641777825E+01  0.88640067649E+01  0.51100000000E-03 0.  1.
        -11    1    3    3    0    0  0.36760404674E+01  0.37416948844E+01  0.25926474330E+00  0.52517399587E+01  0.51100000000E-03 0. -1.
         12    1    3    3    0    0  0.29133599904E+02 -0.45761361121E+01 -0.16250024350E+02  0.33671515506E+02  0.00000000000E+00 0. -1.
</event>
<event>
 7    1  0.2653124E-010  0.4778728E+02  0.7816164E-02  0.1312668E+00
        -11   -1    0    0    0    0  0.00000000000E+00  0.00000000000E+00  0.45593999997E+02  0.45594000000E+02  0.51100000000E-03 0. -1.
         11   -1    0    0    0    0 -0.00000000000E+00 -0.00000000000E+00 -0.45593999997E+02  0.45594000000E+02  0.51100000000E-03 0.  1.
    9900012    2    1    2    0    0  0.37499863810E+02 -0.13864803279E+02 -0.16886394551E+02  0.47787275620E+02  0.20000020863E+02 0.  0.
         12    1    1    2    0    0 -0.37499863810E+02  0.13864803279E+02  0.16886394551E+02  0.43400724380E+02  0.00000000000E+00 0. -1.
         11    1    3    3    0    0  0.30442389074E+02 -0.14177436894E+02 -0.19378181481E+02  0.38771802733E+02  0.51100000000E-03 0. -1.
        -11    1    3    3    0    0  0.97516882809E+00 -0.46549011429E+00 -0.13881730145E+01  0.17591645372E+01  0.51100000000E-03 0.  1.
         12    1    3    3    0    0  0.60823059082E+01  0.77812372914E+00  0.38799599441E+01  0.72563083498E+01  0.00000000000E+00 0. -1.
</event>
<event>
 7    1  0.2653124E-010  0.4778726E+02  0.7816164E-02  0.1312668E+00
        -11   -1    0    0    0    0  0.00000000000E+00  0.00000000000E+00  0.45593999997E+02  0.45594000000E+02  0.51100000000E-03 0.  1.
         11   -1    0    0    0    0 -0.00000000000E+00 -0.00000000000E+00 -0.45593999997E+02  0.45594000000E+02  0.51100000000E-03 0. -1.
    9900012    2    1    2    0    0 -0.11272298877E+02  0.24905720503E+02  0.33708519251E+02  0.47787263764E+02  0.19999966805E+02 0.  0.
         12    1    1    2    0    0  0.11272298877E+02 -0.24905720503E+02 -0.33708519251E+02  0.43400736236E+02  0.00000000000E+00 0. -1.
         11    1    3    3    0    0 -0.75251076803E+01  0.30864545932E+01  0.22538150393E+01  0.84399721593E+01  0.51100000000E-03 0. -1.
        -11    1    3    3    0    0  0.18104526415E+01  0.64802534581E+01  0.54976074904E+01  0.86887923227E+01  0.51100000000E-03 0.  1.
         12    1    3    3    0    0 -0.55576438377E+01  0.15339012451E+02  0.25957096722E+02  0.30658499282E+02  0.00000000000E+00 0. -1.
</event>
<event>
 7    1  0.2653124E-010  0.4778727E+02  0.7816164E-02  0.1312668E+00
        -11   -1    0    0    0    0  0.00000000000E+00  0.00000000000E+00  0.45593999997E+02  0.45594000000E+02  0.51100000000E-03 0.  1.
         11   -1    0    0    0    0 -0.00000000000E+00 -0.00000000000E+00 -0.45593999997E+02  0.45594000000E+02  0.51100000000E-03 0. -1.
    9900012    2    1    2    0    0  0.71616138976E+01  0.14426347956E+02  0.40301554325E+02  0.47787268325E+02  0.19999987599E+02 0.  0.
         12    1    1    2    0    0 -0.71616138976E+01 -0.14426347956E+02 -0.40301554325E+02  0.43400731675E+02  0.00000000000E+00 0. -1.
         11    1    3    3    0    0 -0.19189205928E+01  0.60724962070E+00  0.10737825198E+01  0.22812315762E+01  0.51100000000E-03 0. -1.
        -11    1    3    3    0    0  0.12405968486E+02  0.68144522366E+01  0.17948882098E+02  0.22858416004E+02  0.51100000000E-03 0.  1.
        -12    1    3    3    0    0 -0.33254339959E+01  0.70046460989E+01  0.21278889707E+02  0.22647620745E+02  0.00000000000E+00 0.  1.
</event>
<event>
 7    1  0.2653124E-010  0.4778728E+02  0.7816164E-02  0.1312668E+00
        -11   -1    0    0    0    0  0.00000000000E+00  0.00000000000E+00  0.45593999997E+02  0.45594000000E+02  0.51100000000E-03 0.  1.
         11   -1    0    0    0    0 -0.00000000000E+00 -0.00000000000E+00 -0.45593999997E+02  0.45594000000E+02  0.51100000000E-03 0. -1.
    9900012    2    1    2    0    0 -0.36117593705E+02  0.12130425653E+02  0.20784489484E+02  0.47787276450E+02  0.20000024646E+02 0.  0.
         12    1    1    2    0    0  0.36117593705E+02 -0.12130425653E+02 -0.20784489484E+02  0.43400723550E+02  0.00000000000E+00 0. -1.
         11    1    3    3    0    0 -0.85426764867E+01 -0.29880999191E+01  0.20852085338E+01  0.92873116440E+01  0.51100000000E-03 0. -1.
        -11    1    3    3    0    0 -0.14865786237E+02  0.15874937349E+01  0.66067802835E+01  0.16345069066E+02  0.51100000000E-03 0.  1.
        -12    1    3    3    0    0 -0.12709130981E+02  0.13531031837E+02  0.12092500667E+02  0.22154895740E+02  0.00000000000E+00 0.  1.
</event>
<event>
 7    1  0.2653124E-010  0.4778727E+02  0.7816164E-02  0.1312668E+00
        -11   -1    0    0    0    0  0.00000000000E+00  0.00000000000E+00  0.45593999997E+02  0.45594000000E+02  0.51100000000E-03 0.  1.
         11   -1    0    0    0    0 -0.00000000000E+00 -0.00000000000E+00 -0.45593999997E+02  0.45594000000E+02  0.51100000000E-03 0. -1.
    9900012    2    1    2    0    0 -0.54195328535E+01  0.24932067337E+02  0.35109029464E+02  0.47787271112E+02  0.20000000310E+02 0.  0.
         12    1    1    2    0    0  0.54195328535E+01 -0.24932067337E+02 -0.35109029464E+02  0.43400728888E+02  0.00000000000E+00 0. -1.
         11    1    3    3    0    0  0.64826824512E+01  0.40487569923E+01  0.94316735740E+01  0.12139772305E+02  0.51100000000E-03 0. -1.
        -11    1    3    3    0    0 -0.12807069969E+01  0.76296807827E+00  0.38080160673E+01  0.40894152797E+01  0.51100000000E-03 0.  1.
         12    1    3    3    0    0 -0.10621508308E+02  0.20120342266E+02  0.21869339823E+02  0.31558083528E+02  0.00000000000E+00 0. -1.
</event>
<event>
 7    1  0.2653124E-010  0.4778727E+02  0.7816164E-02  0.1312668E+00
        -11   -1    0    0    0    0  0.00000000000E+00  0.00000000000E+00  0.45593999997E+02  0.45594000000E+02  0.51100000000E-03 0. -1.
         11   -1    0    0    0    0 -0.00000000000E+00 -0.00000000000E+00 -0.45593999997E+02  0.45594000000E+02  0.51100000000E-03 0.  1.
    9900012    2    1    2    0    0  0.44083072854E+01  0.43161759229E+02  0.11191545588E+01  0.47787272590E+02  0.20000007045E+02 0.  0.
         12    1    1    2    0    0 -0.44083072854E+01 -0.43161759229E+02 -0.11191545588E+01  0.43400727410E+02  0.00000000000E+00 0. -1.
         11    1    3    3    0    0 -0.13619986523E+01  0.22823144564E+02  0.77560767823E+01  0.24143481427E+02  0.51100000000E-03 0. -1.
        -11    1    3    3    0    0 -0.32919469494E+00  0.12495232787E+02 -0.19239801724E+01  0.12646774748E+02  0.51100000000E-03 0.  1.
        -12    1    3    3    0    0  0.60995006327E+01  0.78433818774E+01 -0.47129420512E+01  0.10997016415E+02  0.00000000000E+00 0.  1.
</event>
<event>
 7    1  0.2653124E-010  0.4778727E+02  0.7816164E-02  0.1312668E+00
        -11   -1    0    0    0    0  0.00000000000E+00  0.00000000000E+00  0.45593999997E+02  0.45594000000E+02  0.51100000000E-03 0.  1.
         11   -1    0    0    0    0 -0.00000000000E+00 -0.00000000000E+00 -0.45593999997E+02  0.45594000000E+02  0.51100000000E-03 0. -1.
    9900012    2    1    2    0    0  0.24597280129E+02 -0.23174565836E+02  0.27231167642E+02  0.47787272096E+02  0.20000004796E+02 0.  0.
         12    1    1    2    0    0 -0.24597280129E+02  0.23174565836E+02 -0.27231167642E+02  0.43400727904E+02  0.00000000000E+00 0. -1.
         11    1    3    3    0    0  0.15391646455E+02 -0.12897292405E+02  0.21973649528E+02  0.29767166573E+02  0.51100000000E-03 0. -1.
        -11    1    3    3    0    0  0.38370000441E+01  0.46108067073E+00  0.45839191140E+01  0.59956216882E+01  0.51100000000E-03 0.  1.
         12    1    3    3    0    0  0.53686336302E+01 -0.10738354103E+02  0.67359899971E+00  0.12024483835E+02  0.00000000000E+00 0. -1.
</event>
<event>
 7    1  0.2653124E-010  0.4778727E+02  0.7816164E-02  0.1312668E+00
        -11   -1    0    0    0    0  0.00000000000E+00  0.00000000000E+00  0.45593999997E+02  0.45594000000E+02  0.51100000000E-03 0.  1.
         11   -1    0    0    0    0 -0.00000000000E+00 -0.00000000000E+00 -0.45593999997E+02  0.45594000000E+02  0.51100000000E-03 0. -1.
    9900012    2    1    2    0    0 -0.41882273979E+02 -0.10456057282E+02  0.44910294881E+01  0.47787270128E+02  0.19999995823E+02 0.  0.
         12    1    1    2    0    0  0.41882273979E+02  0.10456057282E+02 -0.44910294881E+01  0.43400729872E+02  0.00000000000E+00 0. -1.
         11    1    3    3    0    0 -0.35068840183E+01  0.19408561276E+01 -0.13624958064E+00  0.40104516248E+01  0.51100000000E-03 0. -1.
        -11    1    3    3    0    0 -0.12543422054E+02 -0.12375181994E+02  0.58289821210E+00  0.17630154191E+02  0.51100000000E-03 0.  1.
        -12    1    3    3    0    0 -0.25831967906E+02 -0.21731415879E-01  0.40443808567E+01  0.26146664313E+02  0.00000000000E+00 0.  1.
</event>
<event>
 7    1  0.2690371E-010  0.4778727E+02  0.7816164E-02  0.1312668E+00
        -11   -1    0    0    0    0  0.00000000000E+00  0.00000000000E+00  0.45593999997E+02  0.45594000000E+02  0.51100000000E-03 0.  1.
         11   -1    0    0    0    0 -0.00000000000E+00 -0.00000000000E+00 -0.45593999997E+02  0.45594000000E+02  0.51100000000E-03 0. -1.
    9900012    2    1    2    0    0 -0.13623259705E+02 -0.39999963956E+02  0.99011556317E+01  0.47787271846E+02  0.20000003653E+02 0.  0.
         12    1    1    2    0    0  0.13623259705E+02  0.39999963956E+02 -0.99011556317E+01  0.43400728154E+02  0.00000000000E+00 0. -1.
         11    1    3    3    0    0 -0.68275939928E+01 -0.17213886724E+02  0.66039395961E+01  0.19660771967E+02  0.51100000000E-03 0. -1.
        -11    1    3    3    0    0 -0.10113317121E+02 -0.21845264872E+02  0.12261451221E+01  0.24103904511E+02  0.51100000000E-03 0.  1.
         12    1    3    3    0    0  0.33176514090E+01 -0.94081235970E+00  0.20710709136E+01  0.40225953683E+01  0.00000000000E+00 0. -1.
</event>
<event>
 7    1  0.2653124E-010  0.4778726E+02  0.7816164E-02  0.1312668E+00
        -11   -1    0    0    0    0  0.00000000000E+00  0.00000000000E+00  0.45593999997E+02  0.45594000000E+02  0.51100000000E-03 0.  1.
         11   -1    0    0    0    0 -0.00000000000E+00 -0.00000000000E+00 -0.45593999997E+02  0.45594000000E+02  0.51100000000E-03 0. -1.
    9900012    2    1    2    0    0 -0.62991689147E+00  0.35709078036E+01  0.43249001215E+02  0.47787259408E+02  0.19999946947E+02 0.  0.
         12    1    1    2    0    0  0.62991689147E+00 -0.35709078036E+01 -0.43249001215E+02  0.43400740592E+02  0.00000000000E+00 0. -1.
         11    1    3    3    0    0  0.88283249264E+01  0.40794032283E+01  0.27072457335E+02  0.28766278837E+02  0.51100000000E-03 0. -1.
        -11    1    3    3    0    0 -0.84339982545E+00 -0.60100020757E+00  0.38173275695E+01  0.39553147219E+01  0.51100000000E-03 0.  1.
         12    1    3    3    0    0 -0.86148419924E+01  0.92504782824E-01  0.12359216310E+02  0.15065665849E+02  0.00000000000E+00 0. -1.
</event>
<event>
 7    1  0.3763074E-010  0.4778727E+02  0.7816164E-02  0.1312668E+00
        -11   -1    0    0    0    0  0.00000000000E+00  0.00000000000E+00  0.45593999997E+02  0.45594000000E+02  0.51100000000E-03 0.  1.
         11   -1    0    0    0    0 -0.00000000000E+00 -0.00000000000E+00 -0.45593999997E+02  0.45594000000E+02  0.51100000000E-03 0. -1.
    9900012    2    1    2    0    0  0.13250371245E+02  0.20232658758E+02 -0.36037351567E+02  0.47787268134E+02  0.19999986729E+02 0.  0.
         12    1    1    2    0    0 -0.13250371245E+02 -0.20232658758E+02  0.36037351567E+02  0.43400731866E+02  0.00000000000E+00 0. -1.
         11    1    3    3    0    0  0.74940271437E+00 -0.19466460853E+01 -0.15733907050E+01  0.26127751494E+01  0.51100000000E-03 0. -1.
        -11    1    3    3    0    0  0.11653503463E+02  0.97526053878E+01 -0.26000718823E+02  0.30115690834E+02  0.51100000000E-03 0.  1.
         12    1    3    3    0    0  0.84746506737E+00  0.12426699455E+02 -0.84632420390E+01  0.15058802150E+02  0.00000000000E+00 0. -1.
</event>
<event>
 7    1  0.2653124E-010  0.4778727E+02  0.7816164E-02  0.1312668E+00
        -11   -1    0    0    0    0  0.00000000000E+00  0.00000000000E+00  0.45593999997E+02  0.45594000000E+02  0.51100000000E-03 0. -1.
         11   -1    0    0    0    0 -0.00000000000E+00 -0.00000000000E+00 -0.45593999997E+02  0.45594000000E+02  0.51100000000E-03 0.  1.
    9900012    2    1    2    0    0  0.19073479387E+02 -0.54317768528E+00  0.38981155235E+02  0.47787272801E+02  0.20000008008E+02 0.  0.
         12    1    1    2    0    0 -0.19073479387E+02  0.54317768528E+00 -0.38981155235E+02  0.43400727199E+02  0.00000000000E+00 0. -1.
         11    1    3    3    0    0  0.46160793575E+01 -0.43367268336E+00  0.20440835396E+01  0.50670048756E+01  0.51100000000E-03 0. -1.
        -11    1    3    3    0    0  0.40609699132E+01 -0.22669965695E+01  0.39590529581E+00  0.46677072901E+01  0.51100000000E-03 0.  1.
         12    1    3    3    0    0  0.10396430117E+02  0.21574915675E+01  0.36541166400E+02  0.38052560635E+02  0.00000000000E+00 0. -1.
</event>
<event>
 7    1  0.2653124E-010  0.4778727E+02  0.7816164E-02  0.1312668E+00
        -11   -1    0    0    0    0  0.00000000000E+00  0.00000000000E+00  0.45593999997E+02  0.45594000000E+02  0.51100000000E-03 0. -1.
         11   -1    0    0    0    0 -0.00000000000E+00 -0.00000000000E+00 -0.45593999997E+02  0.45594000000E+02  0.51100000000E-03 0.  1.
    9900012    2    1    2    0    0 -0.17200253295E+02  0.19472642819E+02 -0.34764795624E+02  0.47787267903E+02  0.19999985677E+02 0.  0.
         12    1    1    2    0    0  0.17200253295E+02 -0.19472642819E+02  0.34764795624E+02  0.43400732097E+02  0.00000000000E+00 0. -1.
         11    1    3    3    0    0 -0.16552039583E+01  0.50480961385E+00 -0.54766911482E+01  0.57435772027E+01  0.51100000000E-03 0. -1.
        -11    1    3    3    0    0 -0.18737015723E+02  0.12652858457E+02 -0.25264837476E+02  0.33904020385E+02  0.51100000000E-03 0.  1.
         12    1    3    3    0    0  0.31919663865E+01  0.63149747482E+01 -0.40232670002E+01  0.81396703150E+01  0.00000000000E+00 0. -1.
</event>
<event>
 7    1  0.2653124E-010  0.4778727E+02  0.7816164E-02  0.1312668E+00
        -11   -1    0    0    0    0  0.00000000000E+00  0.00000000000E+00  0.45593999997E+02  0.45594000000E+02  0.51100000000E-03 0.  1.
         11   -1    0    0    0    0 -0.00000000000E+00 -0.00000000000E+00 -0.45593999997E+02  0.45594000000E+02  0.51100000000E-03 0. -1.
    9900012    2    1    2    0    0 -0.38357335019E+02  0.11038531049E+02  0.17043747452E+02  0.47787266772E+02  0.19999980521E+02 0.  0.
         12    1    1    2    0    0  0.38357335019E+02 -0.11038531049E+02 -0.17043747452E+02  0.43400733228E+02  0.00000000000E+00 0. -1.
         11    1    3    3    0    0 -0.22468959145E+02  0.78083471769E+01  0.13652104444E+02  0.27426344392E+02  0.51100000000E-03 0. -1.
        -11    1    3    3    0    0 -0.82253628583E+01  0.31086220441E+01  0.75957159770E+01  0.11619596664E+02  0.51100000000E-03 0.  1.
         12    1    3    3    0    0 -0.76630130159E+01  0.12156182828E+00 -0.42040729687E+01  0.87413257167E+01  0.00000000000E+00 0. -1.
</event>
<event>
 7    1  0.2653124E-010  0.4778728E+02  0.7816164E-02  0.1312668E+00
        -11   -1    0    0    0    0  0.00000000000E+00  0.00000000000E+00  0.45593999997E+02  0.45594000000E+02  0.51100000000E-03 0. -1.
         11   -1    0    0    0    0 -0.00000000000E+00 -0.00000000000E+00 -0.45593999997E+02  0.45594000000E+02  0.51100000000E-03 0.  1.
    9900012    2    1    2    0    0 -0.36451912083E+02 -0.18925938371E+02 -0.14024601319E+02  0.47787280192E+02  0.20000041707E+02 0.  0.
         12    1    1    2    0    0  0.36451912083E+02  0.18925938371E+02  0.14024601319E+02  0.43400719808E+02  0.00000000000E+00 0. -1.
         11    1    3    3    0    0 -0.13159606027E+01  0.23307842740E+01 -0.72497524239E+00  0.27730663539E+01  0.51100000000E-03 0. -1.
        -11    1    3    3    0    0 -0.20340313672E+02 -0.18280933988E+02 -0.50358340724E+01  0.27807922124E+02  0.51100000000E-03 0.  1.
         12    1    3    3    0    0 -0.14795637807E+02 -0.29757886563E+01 -0.82637920046E+01  0.17206291714E+02  0.00000000000E+00 0. -1.
</event>
<event>
 7    1  0.2653124E-010  0.4778727E+02  0.7816164E-02  0.1312668E+00
        -11   -1    0    0    0    0  0.00000000000E+00  0.00000000000E+00  0.45593999997E+02  0.45594000000E+02  0.51100000000E-03 0.  1.
         11   -1    0    0    0    0 -0.00000000000E+00 -0.00000000000E+00 -0.45593999997E+02  0.45594000000E+02  0.51100000000E-03 0. -1.
    9900012    2    1    2    0    0  0.26900694831E+01  0.26064771745E+02  0.34597898128E+02  0.47787270113E+02  0.19999995751E+02 0.  0.
         12    1    1    2    0    0 -0.26900694831E+01 -0.26064771745E+02 -0.34597898128E+02  0.43400729887E+02  0.00000000000E+00 0. -1.
         11    1    3    3    0    0  0.75000434464E+01  0.13601225435E+02  0.16674184052E+02  0.22787549212E+02  0.51100000000E-03 0. -1.
        -11    1    3    3    0    0  0.10221972520E+01  0.11163565841E+02  0.13597161432E+02  0.17622510853E+02  0.51100000000E-03 0.  1.
         12    1    3    3    0    0 -0.58321712154E+01  0.12999804690E+01  0.43265526433E+01  0.73772100472E+01  0.00000000000E+00 0. -1.
</event>
<event>
 7    1  0.2653124E-010  0.4778726E+02  0.7816164E-02  0.1312668E+00
        -11   -1    0    0    0    0  0.00000000000E+00  0.00000000000E+00  0.45593999997E+02  0.45594000000E+02  0.51100000000E-03 0. -1.
         11   -1    0    0    0    0 -0.00000000000E+00 -0.00000000000E+00 -0.45593999997E+02  0.45594000000E+02  0.51100000000E-03 0.  1.
    9900012    2    1    2    0    0  0.15750062730E+02  0.25796596101E+02 -0.31146348409E+02  0.47787264227E+02  0.19999968916E+02 0.  0.
         12    1    1    2    0    0 -0.15750062730E+02 -0.25796596101E+02  0.31146348409E+02  0.43400735773E+02  0.00000000000E+00 0. -1.
         11    1    3    3    0    0  0.33621462449E+01  0.10712417667E+02 -0.16794450023E+02  0.20201818519E+02  0.51100000000E-03 0.  1.
        -11    1    3    3    0    0  0.53373441637E+01  0.15596676100E+02 -0.98050226830E+01  0.19180250733E+02  0.51100000000E-03 0. -1.
        -12    1    3    3    0    0  0.70505723212E+01 -0.51249766523E+00 -0.45468757030E+01  0.84051949752E+01  0.00000000000E+00 0.  1.
</event>
<event>
 7    1  0.2653124E-010  0.4778734E+02  0.7816164E-02  0.1312667E+00
        -11   -1    0    0    0    0  0.00000000000E+00  0.00000000000E+00  0.45593999997E+02  0.45594000000E+02  0.51100000000E-03 0.  1.
         11   -1    0    0    0    0 -0.00000000000E+00 -0.00000000000E+00 -0.45593999997E+02  0.45594000000E+02  0.51100000000E-03 0. -1.
    9900012    2    1    2    0    0 -0.43047557419E+02  0.41174059497E+01  0.36840839916E+01  0.47787335185E+02  0.20000292441E+02 0.  0.
         12    1    1    2    0    0  0.43047557419E+02 -0.41174059497E+01 -0.36840839916E+01  0.43400664815E+02  0.00000000000E+00 0. -1.
         11    1    3    3    0    0 -0.38820829002E+01 -0.14546812412E+01  0.52665579605E+00  0.41789988928E+01  0.51100000000E-03 0. -1.
        -11    1    3    3    0    0 -0.38029720655E+02  0.13220662078E+01  0.57763716430E+01  0.38488621459E+02  0.51100000000E-03 0.  1.
         12    1    3    3    0    0 -0.11357538635E+01  0.42500209831E+01 -0.26189434475E+01  0.51197148335E+01  0.00000000000E+00 0. -1.
</event>
<event>
 7    1  0.2653124E-010  0.4778727E+02  0.7816164E-02  0.1312668E+00
        -11   -1    0    0    0    0  0.00000000000E+00  0.00000000000E+00  0.45593999997E+02  0.45594000000E+02  0.51100000000E-03 0.  1.
         11   -1    0    0    0    0 -0.00000000000E+00 -0.00000000000E+00 -0.45593999997E+02  0.45594000000E+02  0.51100000000E-03 0. -1.
    9900012    2    1    2    0    0  0.30067664813E+02  0.25865993528E+02  0.17621280569E+02  0.47787267087E+02  0.19999981955E+02 0.  0.
         12    1    1    2    0    0 -0.30067664813E+02 -0.25865993528E+02 -0.17621280569E+02  0.43400732913E+02  0.00000000000E+00 0. -1.
         11    1    3    3    0    0  0.74054920150E+01  0.24076824713E+01  0.15819081980E+00  0.77886630087E+01  0.51100000000E-03 0. -1.
        -11    1    3    3    0    0  0.13780456914E+02  0.11073685903E+02  0.12127840379E+01  0.17719998804E+02  0.51100000000E-03 0.  1.
         12    1    3    3    0    0  0.88817158842E+01  0.12384625155E+02  0.16250305711E+02  0.22278605274E+02  0.00000000000E+00 0. -1.
</event>
<event>
 7    1  0.2653124E-010  0.4778727E+02  0.7816164E-02  0.1312668E+00
        -11   -1    0    0    0    0  0.00000000000E+00  0.00000000000E+00  0.45593999997E+02  0.45594000000E+02  0.51100000000E-03 0.  1.
         11   -1    0    0    0    0 -0.00000000000E+00 -0.00000000000E+00 -0.45593999997E+02  0.45594000000E+02  0.51100000000E-03 0. -1.
    9900012    2    1    2    0    0 -0.21488433613E+02  0.98670775013E+01  0.36393834656E+02  0.47787271912E+02  0.20000003957E+02 0.  0.
         12    1    1    2    0    0  0.21488433613E+02 -0.98670775013E+01 -0.36393834656E+02  0.43400728088E+02  0.00000000000E+00 0. -1.
         11    1    3    3    0    0 -0.52858030021E+01  0.35107224647E+01  0.10233007076E+01  0.64274435198E+01  0.51100000000E-03 0. -1.
        -11    1    3    3    0    0 -0.13636324992E+01  0.35327079661E+00 -0.92910439881E+00  0.16874623236E+01  0.51100000000E-03 0.  1.
        -12    1    3    3    0    0 -0.14838998112E+02  0.60030842400E+01  0.36299638347E+02  0.39672366069E+02  0.00000000000E+00 0.  1.
</event>
<event>
 7    1  0.2653124E-010  0.4778727E+02  0.7816164E-02  0.1312668E+00
        -11   -1    0    0    0    0  0.00000000000E+00  0.00000000000E+00  0.45593999997E+02  0.45594000000E+02  0.51100000000E-03 0. -1.
         11   -1    0    0    0    0 -0.00000000000E+00 -0.00000000000E+00 -0.45593999997E+02  0.45594000000E+02  0.51100000000E-03 0.  1.
    9900012    2    1    2    0    0  0.18982380523E+02 -0.39026843017E+02  0.44517716507E+00  0.47787269258E+02  0.19999991855E+02 0.  0.
         12    1    1    2    0    0 -0.18982380523E+02  0.39026843017E+02 -0.44517716507E+00  0.43400730742E+02  0.00000000000E+00 0. -1.
         11    1    3    3    0    0  0.10048967406E+02 -0.94656526300E+01 -0.22902794721E+01  0.13993773829E+02  0.51100000000E-03 0. -1.
        -11    1    3    3    0    0  0.97067712238E+01 -0.13586363983E+02 -0.26730211748E+01  0.16910225792E+02  0.51100000000E-03 0.  1.
         12    1    3    3    0    0 -0.77335810695E+00 -0.15974826404E+02  0.54084778120E+01  0.16883269637E+02  0.00000000000E+00 0. -1.
</event>
<event>
 7    1  0.2653124E-010  0.4778728E+02  0.7816164E-02  0.1312668E+00
        -11   -1    0    0    0    0  0.00000000000E+00  0.00000000000E+00  0.45593999997E+02  0.45594000000E+02  0.51100000000E-03 0. -1.
         11   -1    0    0    0    0 -0.00000000000E+00 -0.00000000000E+00 -0.45593999997E+02  0.45594000000E+02  0.51100000000E-03 0.  1.
    9900012    2    1    2    0    0 -0.37835133244E+02  0.38302077143E+01 -0.20915425951E+02  0.47787276027E+02  0.20000022715E+02 0.  0.
         12    1    1    2    0    0  0.37835133244E+02 -0.38302077143E+01  0.20915425951E+02  0.43400723973E+02  0.00000000000E+00 0. -1.
         11    1    3    3    0    0 -0.43670602742E+01  0.27360381556E+01  0.26662143219E+01  0.58022253747E+01  0.51100000000E-03 0. -1.
        -11    1    3    3    0    0 -0.46966146395E+01  0.27505364369E+01 -0.65237979178E+01  0.84960920014E+01  0.51100000000E-03 0.  1.
        -12    1    3    3    0    0 -0.28771458330E+02 -0.16563668782E+01 -0.17057842355E+02  0.33488958650E+02  0.00000000000E+00 0.  1.
</event>
<event>
 7    1  0.2653124E-010  0.4778727E+02  0.7816164E-02  0.1312668E+00
        -11   -1    0    0    0    0  0.00000000000E+00  0.00000000000E+00  0.45593999997E+02  0.45594000000E+02  0.51100000000E-03 0.  1.
         11   -1    0    0    0    0 -0.00000000000E+00 -0.00000000000E+00 -0.45593999997E+02  0.45594000000E+02  0.51100000000E-03 0. -1.
    9900012    2    1    2    0    0  0.25507347137E+02  0.33825461406E+02  0.94253201561E+01  0.47787271235E+02  0.20000000868E+02 0.  0.
         12    1    1    2    0    0 -0.25507347137E+02 -0.33825461406E+02 -0.94253201561E+01  0.43400728765E+02  0.00000000000E+00 0. -1.
         11    1    3    3    0    0  0.72131233722E+01  0.31815231787E+01 -0.17317614334E+01  0.80715696393E+01  0.51100000000E-03 0. -1.
        -11    1    3    3    0    0  0.88478472100E+01  0.81168428889E+01  0.93561790713E+01  0.15221879838E+02  0.51100000000E-03 0.  1.
        -12    1    3    3    0    0  0.94463765553E+01  0.22527095338E+02  0.18009025182E+01  0.24493821757E+02  0.00000000000E+00 0.  1.
</event>
<event>
 7    1  0.2653124E-010  0.4778727E+02  0.7816164E-02  0.1312668E+00
        -11   -1    0    0    0    0  0.00000000000E+00  0.00000000000E+00  0.45593999997E+02  0.45594000000E+02  0.51100000000E-03 0.  1.
         11   -1    0    0    0    0 -0.00000000000E+00 -0.00000000000E+00 -0.45593999997E+02  0.45594000000E+02  0.51100000000E-03 0. -1.
    9900012    2    1    2    0    0  0.26665734167E+02  0.17723104595E+02  0.29299372443E+02  0.47787273731E+02  0.20000012249E+02 0.  0.
         12    1    1    2    0    0 -0.26665734167E+02 -0.17723104595E+02 -0.29299372443E+02  0.43400726269E+02  0.00000000000E+00 0. -1.
         11    1    3    3    0    0 -0.28970774945E-01  0.64459143820E+01  0.28968522653E+01  0.70669940451E+01  0.51100000000E-03 0. -1.
        -11    1    3    3    0    0  0.11543048487E+02  0.50047709446E+01  0.45060728498E+01  0.13363921332E+02  0.51100000000E-03 0.  1.
         12    1    3    3    0    0  0.15151656455E+02  0.62724192680E+01  0.21896447328E+02  0.27356358354E+02  0.00000000000E+00 0. -1.
</event>
<event>
 7    1  0.2653124E-010  0.4778727E+02  0.7816164E-02  0.1312668E+00
        -11   -1    0    0    0    0  0.00000000000E+00  0.00000000000E+00  0.45593999997E+02  0.45594000000E+02  0.51100000000E-03 0.  1.
         11   -1    0    0    0    0 -0.00000000000E+00 -0.00000000000E+00 -0.45593999997E+02  0.45594000000E+02  0.51100000000E-03 0. -1.
    9900012    2    1    2    0    0  0.40867377951E+01  0.23834535183E+02  0.36039376079E+02  0.47787272802E+02  0.20000008012E+02 0.  0.
         12    1    1    2    0    0 -0.40867377951E+01 -0.23834535183E+02 -0.36039376079E+02  0.43400727198E+02  0.00000000000E+00 0. -1.
         11    1    3    3    0    0  0.21870077535E+01  0.95818269274E+01  0.72486847980E+01  0.12212200528E+02  0.51100000000E-03 0. -1.
        -11    1    3    3    0    0 -0.17953187203E+01  0.16449560748E+02  0.21807080478E+02  0.27374440220E+02  0.51100000000E-03 0.  1.
        -12    1    3    3    0    0  0.36950487619E+01 -0.21968524932E+01  0.69836108027E+01  0.82006320533E+01  0.00000000000E+00 0.  1.
</event>
<event>
 7    1  0.2653124E-010  0.4778727E+02  0.7816164E-02  0.1312668E+00
        -11   -1    0    0    0    0  0.00000000000E+00  0.00000000000E+00  0.45593999997E+02  0.45594000000E+02  0.51100000000E-03 0.  1.
         11   -1    0    0    0    0 -0.00000000000E+00 -0.00000000000E+00 -0.45593999997E+02  0.45594000000E+02  0.51100000000E-03 0. -1.
    9900012    2    1    2    0    0 -0.12577265527E+02 -0.38623254755E+02 -0.15286593475E+02  0.47787270097E+02  0.19999995682E+02 0.  0.
         12    1    1    2    0    0  0.12577265527E+02  0.38623254755E+02  0.15286593475E+02  0.43400729903E+02  0.00000000000E+00 0. -1.
         11    1    3    3    0    0 -0.45006851583E+01 -0.13903897289E+02 -0.40106106301E+01  0.15154521589E+02  0.51100000000E-03 0. -1.
        -11    1    3    3    0    0 -0.13067055359E+02 -0.17587433484E+02 -0.83994151669E+01  0.23465206748E+02  0.51100000000E-03 0.  1.
         12    1    3    3    0    0  0.49904749905E+01 -0.71319239831E+01 -0.28765676778E+01  0.91675417608E+01  0.00000000000E+00 0. -1.
</event>
<event>
 7    1  0.2653124E-010  0.4778727E+02  0.7816164E-02  0.1312668E+00
        -11   -1    0    0    0    0  0.00000000000E+00  0.00000000000E+00  0.45593999997E+02  0.45594000000E+02  0.51100000000E-03 0.  1.
         11   -1    0    0    0    0 -0.00000000000E+00 -0.00000000000E+00 -0.45593999997E+02  0.45594000000E+02  0.51100000000E-03 0. -1.
    9900012    2    1    2    0    0  0.27434769417E+02  0.14017206285E+02  0.30569178465E+02  0.47787270547E+02  0.19999997732E+02 0.  0.
         12    1    1    2    0    0 -0.27434769417E+02 -0.14017206285E+02 -0.30569178465E+02  0.43400729453E+02  0.00000000000E+00 0. -1.
         11    1    3    3    0    0  0.89513305578E+01  0.40637634535E+01  0.23945109305E+01  0.10118012405E+02  0.51100000000E-03 0. -1.
        -11    1    3    3    0    0  0.23814245185E+01  0.66321555288E+01  0.31308086944E+01  0.77109424221E+01  0.51100000000E-03 0.  1.
        -12    1    3    3    0    0  0.16102014341E+02  0.33212873027E+01  0.25043858840E+02  0.29958315720E+02  0.00000000000E+00 0.  1.
</event>
<event>
 7    1  0.2653124E-010  0.4778727E+02  0.7816164E-02  0.1312668E+00
        -11   -1    0    0    0    0  0.00000000000E+00  0.00000000000E+00  0.45593999997E+02  0.45594000000E+02  0.51100000000E-03 0.  1.
         11   -1    0    0    0    0 -0.00000000000E+00 -0.00000000000E+00 -0.45593999997E+02  0.45594000000E+02  0.51100000000E-03 0. -1.
    9900012    2    1    2    0    0 -0.39069377966E+02  0.17935707662E+02 -0.59596292590E+01  0.47787273222E+02  0.20000009928E+02 0.  0.
         12    1    1    2    0    0  0.39069377966E+02 -0.17935707662E+02  0.59596292590E+01  0.43400726778E+02  0.00000000000E+00 0. -1.
         11    1    3    3    0    0 -0.32883044012E+02  0.17044036169E+02 -0.14067000309E+01  0.37064437911E+02  0.51100000000E-03 0. -1.
        -11    1    3    3    0    0 -0.64036475604E+01  0.11064560068E+01 -0.34908669145E+00  0.65079035605E+01  0.51100000000E-03 0.  1.
        -12    1    3    3    0    0  0.21731360668E+00 -0.21478451337E+00 -0.42038425366E+01  0.42149317508E+01  0.00000000000E+00 0.  1.
</event>
<event>
 7    1  0.2653124E-010  0.4778727E+02  0.7816164E-02  0.1312668E+00
        -11   -1    0    0    0    0  0.00000000000E+00  0.00000000000E+00  0.45593999997E+02  0.45594000000E+02  0.51100000000E-03 0. -1.
         11   -1    0    0    0    0 -0.00000000000E+00 -0.00000000000E+00 -0.45593999997E+02  0.45594000000E+02  0.51100000000E-03 0.  1.
    9900012    2    1    2    0    0  0.22982560852E+01  0.41097913381E+02 -0.13758739973E+02  0.47787269695E+02  0.19999993849E+02 0.  0.
         12    1    1    2    0    0 -0.22982560852E+01 -0.41097913381E+02  0.13758739973E+02  0.43400730305E+02  0.00000000000E+00 0. -1.
         11    1    3    3    0    0 -0.36490910276E+01  0.37486878937E+01 -0.20967102169E+01  0.56360198941E+01  0.51100000000E-03 0. -1.
        -11    1    3    3    0    0  0.10196967169E+01  0.22400584613E+02 -0.13703566908E+02  0.26279530412E+02  0.51100000000E-03 0.  1.
        -12    1    3    3    0    0  0.49276503959E+01  0.14948640874E+02  0.20415371525E+01  0.15871719389E+02  0.00000000000E+00 0.  1.
</event>
<event>
 7    1  0.2653124E-010  0.4778728E+02  0.7816164E-02  0.1312668E+00
        -11   -1    0    0    0    0  0.00000000000E+00  0.00000000000E+00  0.45593999997E+02  0.45594000000E+02  0.51100000000E-03 0.  1.
         11   -1    0    0    0    0 -0.00000000000E+00 -0.00000000000E+00 -0.45593999997E+02  0.45594000000E+02  0.51100000000E-03 0. -1.
    9900012    2    1    2    0    0 -0.14376028528E+02 -0.12282241777E+02  0.39065320437E+02  0.47787275119E+02  0.20000018578E+02 0.  0.
         12    1    1    2    0    0  0.14376028528E+02  0.12282241777E+02 -0.39065320437E+02  0.43400724881E+02  0.00000000000E+00 0. -1.
         11    1    3    3    0    0 -0.56453275543E+01  0.14934161586E+01  0.65716878871E+01  0.87913080350E+01  0.51100000000E-03 0. -1.
        -11    1    3    3    0    0 -0.96369094765E+01 -0.52211377955E+01  0.26006411128E+02  0.28221688897E+02  0.51100000000E-03 0.  1.
        -12    1    3    3    0    0  0.90620850266E+00 -0.85545201406E+01  0.64872214219E+01  0.10774278188E+02  0.00000000000E+00 0.  1.
</event>
<event>
 7    1  0.2653124E-010  0.4778727E+02  0.7816164E-02  0.1312668E+00
        -11   -1    0    0    0    0  0.00000000000E+00  0.00000000000E+00  0.45593999997E+02  0.45594000000E+02  0.51100000000E-03 0.  1.
         11   -1    0    0    0    0 -0.00000000000E+00 -0.00000000000E+00 -0.45593999997E+02  0.45594000000E+02  0.51100000000E-03 0. -1.
    9900012    2    1    2    0    0  0.71352818700E+01 -0.27000033194E+02  0.33222117273E+02  0.47787272864E+02  0.20000008297E+02 0.  0.
         12    1    1    2    0    0 -0.71352818700E+01  0.27000033194E+02 -0.33222117273E+02  0.43400727136E+02  0.00000000000E+00 0. -1.
         11    1    3    3    0    0  0.30832528070E+01 -0.11009914520E+02  0.17234989626E+02  0.20682590101E+02  0.51100000000E-03 0.  1.
        -11    1    3    3    0    0  0.71015807132E+01 -0.11932996542E+02  0.45844853328E+01  0.14623486627E+02  0.51100000000E-03 0. -1.
         12    1    3    3    0    0 -0.30495516501E+01 -0.40571221317E+01  0.11402642314E+02  0.12481196136E+02  0.00000000000E+00 0. -1.
</event>
<event>
 7    1  0.2653124E-010  0.4778727E+02  0.7816164E-02  0.1312668E+00
        -11   -1    0    0    0    0  0.00000000000E+00  0.00000000000E+00  0.45593999997E+02  0.45594000000E+02  0.51100000000E-03 0.  1.
         11   -1    0    0    0    0 -0.00000000000E+00 -0.00000000000E+00 -0.45593999997E+02  0.45594000000E+02  0.51100000000E-03 0. -1.
    9900012    2    1    2    0    0 -0.26688094714E+01 -0.43518937830E+01  0.43099441016E+02  0.47787270290E+02  0.19999996560E+02 0.  0.
         12    1    1    2    0    0  0.26688094714E+01  0.43518937830E+01 -0.43099441016E+02  0.43400729710E+02  0.00000000000E+00 0. -1.
         11    1    3    3    0    0 -0.65640876650E+01  0.45191851763E+00  0.19602586348E+02  0.20677351596E+02  0.51100000000E-03 0. -1.
        -11    1    3    3    0    0 -0.26000616660E+01 -0.61151939523E+01  0.91665089107E+01  0.11321696146E+02  0.51100000000E-03 0.  1.
         12    1    3    3    0    0  0.64953398595E+01  0.13113816517E+01  0.14330345757E+02  0.15788222549E+02  0.00000000000E+00 0. -1.
</event>
<event>
 7    1  0.2653124E-010  0.4778727E+02  0.7816164E-02  0.1312668E+00
        -11   -1    0    0    0    0  0.00000000000E+00  0.00000000000E+00  0.45593999997E+02  0.45594000000E+02  0.51100000000E-03 0.  1.
         11   -1    0    0    0    0 -0.00000000000E+00 -0.00000000000E+00 -0.45593999997E+02  0.45594000000E+02  0.51100000000E-03 0. -1.
    9900012    2    1    2    0    0 -0.12627284625E+02 -0.30749557801E+02  0.27904114516E+02  0.47787271563E+02  0.20000002364E+02 0.  0.
         12    1    1    2    0    0  0.12627284625E+02  0.30749557801E+02 -0.27904114516E+02  0.43400728437E+02  0.00000000000E+00 0. -1.
         11    1    3    3    0    0 -0.15979556842E+01 -0.29254143080E+01 -0.14994698797E+01  0.36551226277E+01  0.51100000000E-03 0. -1.
        -11    1    3    3    0    0 -0.17460097440E+01 -0.10480000050E+01 -0.12468633996E+01  0.23877861368E+01  0.51100000000E-03 0.  1.
        -12    1    3    3    0    0 -0.92833191967E+01 -0.26776143488E+02  0.30650447795E+02  0.41744362798E+02  0.00000000000E+00 0.  1.
</event>
<event>
 7    1  0.2653124E-010  0.4778727E+02  0.7816164E-02  0.1312668E+00
        -11   -1    0    0    0    0  0.00000000000E+00  0.00000000000E+00  0.45593999997E+02  0.45594000000E+02  0.51100000000E-03 0.  1.
         11   -1    0    0    0    0 -0.00000000000E+00 -0.00000000000E+00 -0.45593999997E+02  0.45594000000E+02  0.51100000000E-03 0. -1.
    9900012    2    1    2    0    0  0.35617575140E+02 -0.22490485625E+01  0.24697231551E+02  0.47787272764E+02  0.20000007841E+02 0.  0.
         12    1    1    2    0    0 -0.35617575140E+02  0.22490485625E+01 -0.24697231551E+02  0.43400727236E+02  0.00000000000E+00 0. -1.
         11    1    3    3    0    0  0.90919568926E+01  0.47732673207E+01  0.10212601748E+02  0.14482575592E+02  0.51100000000E-03 0. -1.
        -11    1    3    3    0    0  0.95830477746E+01 -0.90957154952E+00  0.11583162010E+02  0.15060935146E+02  0.51100000000E-03 0.  1.
         12    1    3    3    0    0  0.16942570473E+02 -0.61127443337E+01  0.29014677930E+01  0.18243762026E+02  0.00000000000E+00 0. -1.
</event>
<event>
 7    1  0.2653124E-010  0.4778728E+02  0.7816164E-02  0.1312668E+00
        -11   -1    0    0    0    0  0.00000000000E+00  0.00000000000E+00  0.45593999997E+02  0.45594000000E+02  0.51100000000E-03 0.  1.
         11   -1    0    0    0    0 -0.00000000000E+00 -0.00000000000E+00 -0.45593999997E+02  0.45594000000E+02  0.51100000000E-03 0. -1.
    9900012    2    1    2    0    0 -0.86211607924E+01 -0.28570181798E+02  0.31512586352E+02  0.47787276504E+02  0.20000024894E+02 0.  0.
         12    1    1    2    0    0  0.86211607924E+01  0.28570181798E+02 -0.31512586352E+02  0.43400723496E+02  0.00000000000E+00 0. -1.
         11    1    3    3    0    0  0.52146344800E+01 -0.14612833222E+02  0.14788955098E+02  0.21434563226E+02  0.51100000000E-03 0. -1.
        -11    1    3    3    0    0 -0.10703905865E+00 -0.10927532423E+01 -0.11453764636E+00  0.11039411861E+01  0.51100000000E-03 0.  1.
        -12    1    3    3    0    0 -0.13728756214E+02 -0.12864595333E+02  0.16838168901E+02  0.25248772093E+02  0.00000000000E+00 0.  1.
</event>
<event>
 7    1  0.2653124E-010  0.4778727E+02  0.7816164E-02  0.1312668E+00
        -11   -1    0    0    0    0  0.00000000000E+00  0.00000000000E+00  0.45593999997E+02  0.45594000000E+02  0.51100000000E-03 0. -1.
         11   -1    0    0    0    0 -0.00000000000E+00 -0.00000000000E+00 -0.45593999997E+02  0.45594000000E+02  0.51100000000E-03 0.  1.
    9900012    2    1    2    0    0  0.29832668304E+02  0.86856862683E+01 -0.30301719020E+02  0.47787269365E+02  0.19999992343E+02 0.  0.
         12    1    1    2    0    0 -0.29832668304E+02 -0.86856862683E+01  0.30301719020E+02  0.43400730635E+02  0.00000000000E+00 0. -1.
         11    1    3    3    0    0  0.81393707389E+01  0.17843025170E+01 -0.18368551259E+02  0.20170195019E+02  0.51100000000E-03 0.  1.
        -11    1    3    3    0    0  0.11767530668E+02 -0.56264781658E+00 -0.90811321798E+01  0.14874754200E+02  0.51100000000E-03 0. -1.
        -12    1    3    3    0    0  0.99257668975E+01  0.74640315679E+01 -0.28520355814E+01  0.12742320146E+02  0.00000000000E+00 0.  1.
</event>
<event>
 7    1  0.2653124E-010  0.4778728E+02  0.7816164E-02  0.1312668E+00
        -11   -1    0    0    0    0  0.00000000000E+00  0.00000000000E+00  0.45593999997E+02  0.45594000000E+02  0.51100000000E-03 0.  1.
         11   -1    0    0    0    0 -0.00000000000E+00 -0.00000000000E+00 -0.45593999997E+02  0.45594000000E+02  0.51100000000E-03 0. -1.
    9900012    2    1    2    0    0  0.21548825469E+01  0.43072573260E+02 -0.48716244202E+01  0.47787276382E+02  0.20000024336E+02 0.  0.
         12    1    1    2    0    0 -0.21548825469E+01 -0.43072573260E+02  0.48716244202E+01  0.43400723618E+02  0.00000000000E+00 0. -1.
         11    1    3    3    0    0  0.97884515516E+00  0.10298102269E+02 -0.55069243859E+01  0.11719012955E+02  0.51100000000E-03 0. -1.
        -11    1    3    3    0    0  0.54434994804E+01  0.29251086342E+02 -0.22294828308E+01  0.29836694400E+02  0.51100000000E-03 0.  1.
        -12    1    3    3    0    0 -0.42674620886E+01  0.35233846488E+01  0.28647827965E+01  0.62315690265E+01  0.00000000000E+00 0.  1.
</event>
<event>
 7    1  0.2653124E-010  0.4778727E+02  0.7816164E-02  0.1312668E+00
        -11   -1    0    0    0    0  0.00000000000E+00  0.00000000000E+00  0.45593999997E+02  0.45594000000E+02  0.51100000000E-03 0.  1.
         11   -1    0    0    0    0 -0.00000000000E+00 -0.00000000000E+00 -0.45593999997E+02  0.45594000000E+02  0.51100000000E-03 0. -1.
    9900012    2    1    2    0    0  0.78568829043E+01  0.70849657820E+01  0.42091518886E+02  0.47787270614E+02  0.19999998038E+02 0.  0.
         12    1    1    2    0    0 -0.78568829043E+01 -0.70849657820E+01 -0.42091518886E+02  0.43400729386E+02  0.00000000000E+00 0. -1.
         11    1    3    3    0    0  0.63090183228E+01  0.93456456313E+01  0.19338875210E+02  0.22386087178E+02  0.51100000000E-03 0. -1.
        -11    1    3    3    0    0 -0.21409633719E+01  0.36581968831E+01  0.10107164723E+02  0.10959968412E+02  0.51100000000E-03 0.  1.
        -12    1    3    3    0    0  0.36888279534E+01 -0.59188767324E+01  0.12645478953E+02  0.14441215025E+02  0.00000000000E+00 0.  1.
</event>
<event>
 7    1  0.2653124E-010  0.4778726E+02  0.7816164E-02  0.1312668E+00
        -11   -1    0    0    0    0  0.00000000000E+00  0.00000000000E+00  0.45593999997E+02  0.45594000000E+02  0.51100000000E-03 0.  1.
         11   -1    0    0    0    0 -0.00000000000E+00 -0.00000000000E+00 -0.45593999997E+02  0.45594000000E+02  0.51100000000E-03 0. -1.
    9900012    2    1    2    0    0 -0.68789742801E+01  0.33254496008E+02  0.27026700993E+02  0.47787258550E+02  0.19999943031E+02 0.  0.
         12    1    1    2    0    0  0.68789742801E+01 -0.33254496008E+02 -0.27026700993E+02  0.43400741450E+02  0.00000000000E+00 0. -1.
         11    1    3    3    0    0  0.40525647976E+01  0.42415032439E+01  0.97258350992E+00  0.59463896737E+01  0.51100000000E-03 0.  1.
        -11    1    3    3    0    0  0.14095876753E+01  0.44413443043E+01  0.12863617058E+01  0.48339635231E+01  0.51100000000E-03 0. -1.
        -12    1    3    3    0    0 -0.12341126753E+02  0.24571648460E+02  0.24767755777E+02  0.37006905353E+02  0.00000000000E+00 0.  1.
</event>
<event>
 7    1  0.2653124E-010  0.4778727E+02  0.7816164E-02  0.1312668E+00
        -11   -1    0    0    0    0  0.00000000000E+00  0.00000000000E+00  0.45593999997E+02  0.45594000000E+02  0.51100000000E-03 0.  1.
         11   -1    0    0    0    0 -0.00000000000E+00 -0.00000000000E+00 -0.45593999997E+02  0.45594000000E+02  0.51100000000E-03 0. -1.
    9900012    2    1    2    0    0 -0.12438804606E+02  0.41266833594E+02 -0.50939149574E+01  0.47787269770E+02  0.19999994191E+02 0.  0.
         12    1    1    2    0    0  0.12438804606E+02 -0.41266833594E+02  0.50939149574E+01  0.43400730230E+02  0.00000000000E+00 0. -1.
         11    1    3    3    0    0 -0.17536303205E+01  0.24437497570E+01  0.25333509466E+01  0.39325563513E+01  0.51100000000E-03 0. -1.
        -11    1    3    3    0    0 -0.91074696487E+01  0.14822272547E+02 -0.93322493673E+01  0.19741748792E+02  0.51100000000E-03 0.  1.
        -12    1    3    3    0    0 -0.15777046370E+01  0.24000811290E+02  0.17049834633E+01  0.24112964627E+02  0.00000000000E+00 0.  1.
</event>
<event>
 7    1  0.2653124E-010  0.4778728E+02  0.7816164E-02  0.1312668E+00
        -11   -1    0    0    0    0  0.00000000000E+00  0.00000000000E+00  0.45593999997E+02  0.45594000000E+02  0.51100000000E-03 0.  1.
         11   -1    0    0    0    0 -0.00000000000E+00 -0.00000000000E+00 -0.45593999997E+02  0.45594000000E+02  0.51100000000E-03 0. -1.
    9900012    2    1    2    0    0 -0.24951915372E+02 -0.33598095948E+02  0.11497511996E+02  0.47787275189E+02  0.20000018897E+02 0.  0.
         12    1    1    2    0    0  0.24951915372E+02  0.33598095948E+02 -0.11497511996E+02  0.43400724811E+02  0.00000000000E+00 0. -1.
         11    1    3    3    0    0  0.18622939850E+01 -0.16053112833E+01  0.10700366938E+01  0.26814440121E+01  0.51100000000E-03 0. -1.
        -11    1    3    3    0    0  0.15611114178E+01 -0.19341152680E+01  0.11628761372E+01  0.27441122244E+01  0.51100000000E-03 0.  1.
        -12    1    3    3    0    0 -0.28375320774E+02 -0.30058669396E+02  0.92645991648E+01  0.42361718953E+02  0.00000000000E+00 0.  1.
</event>
<event>
 7    1  0.4915642E-010  0.4778728E+02  0.7816164E-02  0.1312668E+00
        -11   -1    0    0    0    0  0.00000000000E+00  0.00000000000E+00  0.45593999997E+02  0.45594000000E+02  0.51100000000E-03 0. -1.
         11   -1    0    0    0    0 -0.00000000000E+00 -0.00000000000E+00 -0.45593999997E+02  0.45594000000E+02  0.51100000000E-03 0.  1.
    9900012    2    1    2    0    0 -0.32688239103E+02  0.16169053561E+02 -0.23530057616E+02  0.47787275580E+02  0.20000020680E+02 0.  0.
         12    1    1    2    0    0  0.32688239103E+02 -0.16169053561E+02  0.23530057616E+02  0.43400724420E+02  0.00000000000E+00 0. -1.
         11    1    3    3    0    0 -0.97607892632E+01  0.63524171389E-02 -0.71273659192E+00  0.97867788932E+01  0.51100000000E-03 0. -1.
        -11    1    3    3    0    0 -0.19410106202E+02  0.92593784271E+01 -0.11795454265E+02  0.24527964718E+02  0.51100000000E-03 0.  1.
         12    1    3    3    0    0 -0.35173436385E+01  0.69033227166E+01 -0.11021866759E+02  0.13472531969E+02  0.00000000000E+00 0. -1.
</event>
<event>
 7    1  0.2653124E-010  0.4778727E+02  0.7816164E-02  0.1312668E+00
        -11   -1    0    0    0    0  0.00000000000E+00  0.00000000000E+00  0.45593999997E+02  0.45594000000E+02  0.51100000000E-03 0.  1.
         11   -1    0    0    0    0 -0.00000000000E+00 -0.00000000000E+00 -0.45593999997E+02  0.45594000000E+02  0.51100000000E-03 0. -1.
    9900012    2    1    2    0    0  0.13687106470E+02 -0.36202042622E+02  0.19639210909E+02  0.47787269838E+02  0.19999994497E+02 0.  0.
         12    1    1    2    0    0 -0.13687106470E+02  0.36202042622E+02 -0.19639210909E+02  0.43400730162E+02  0.00000000000E+00 0. -1.
         11    1    3    3    0    0  0.80036766751E+01 -0.95085166443E+01 -0.88393310926E+00  0.12460018744E+02  0.51100000000E-03 0. -1.
        -11    1    3    3    0    0 -0.22042691419E+01 -0.55029339216E+01  0.25948240755E+01  0.64710274640E+01  0.51100000000E-03 0.  1.
        -12    1    3    3    0    0  0.78876989365E+01 -0.21190592056E+02  0.17928319943E+02  0.28856223630E+02  0.00000000000E+00 0.  1.
</event>
<event>
 7    1  0.2653124E-010  0.4778727E+02  0.7816164E-02  0.1312668E+00
        -11   -1    0    0    0    0  0.00000000000E+00  0.00000000000E+00  0.45593999997E+02  0.45594000000E+02  0.51100000000E-03 0. -1.
         11   -1    0    0    0    0 -0.00000000000E+00 -0.00000000000E+00 -0.45593999997E+02  0.45594000000E+02  0.51100000000E-03 0.  1.
    9900012    2    1    2    0    0  0.25392482910E+02  0.28596204526E+02 -0.20520777145E+02  0.47787269635E+02  0.19999993573E+02 0.  0.
         12    1    1    2    0    0 -0.25392482910E+02 -0.28596204526E+02  0.20520777145E+02  0.43400730365E+02  0.00000000000E+00 0. -1.
         11    1    3    3    0    0  0.57937276785E+01  0.80931929128E+01 -0.12982777819E+02  0.16359082251E+02  0.51100000000E-03 0. -1.
        -11    1    3    3    0    0  0.14720668304E+02  0.13082786976E+02 -0.10171753369E+02  0.22165783479E+02  0.51100000000E-03 0.  1.
         12    1    3    3    0    0  0.48780869266E+01  0.74202246375E+01  0.26337540429E+01  0.92624039047E+01  0.00000000000E+00 0. -1.
</event>
<event>
 7    1  0.2653124E-010  0.4778727E+02  0.7816164E-02  0.1312668E+00
        -11   -1    0    0    0    0  0.00000000000E+00  0.00000000000E+00  0.45593999997E+02  0.45594000000E+02  0.51100000000E-03 0.  1.
         11   -1    0    0    0    0 -0.00000000000E+00 -0.00000000000E+00 -0.45593999997E+02  0.45594000000E+02  0.51100000000E-03 0. -1.
    9900012    2    1    2    0    0 -0.40742446862E+02  0.24608481233E+01  0.14751955646E+02  0.47787274832E+02  0.20000017268E+02 0.  0.
         12    1    1    2    0    0  0.40742446862E+02 -0.24608481233E+01 -0.14751955646E+02  0.43400725168E+02  0.00000000000E+00 0. -1.
         11    1    3    3    0    0 -0.10472986419E+01 -0.19996095053E+01  0.98469268787E+00  0.24627002598E+01  0.51100000000E-03 0. -1.
        -11    1    3    3    0    0 -0.86403585250E+01 -0.20684014880E+01 -0.30710423785E+01  0.94002862567E+01  0.51100000000E-03 0.  1.
         12    1    3    3    0    0 -0.31054789695E+02  0.65288591166E+01  0.16838305336E+02  0.35924288315E+02  0.00000000000E+00 0. -1.
</event>
<event>
 7    1  0.2653124E-010  0.4778727E+02  0.7816164E-02  0.1312668E+00
        -11   -1    0    0    0    0  0.00000000000E+00  0.00000000000E+00  0.45593999997E+02  0.45594000000E+02  0.51100000000E-03 0.  1.
         11   -1    0    0    0    0 -0.00000000000E+00 -0.00000000000E+00 -0.45593999997E+02  0.45594000000E+02  0.51100000000E-03 0. -1.
    9900012    2    1    2    0    0 -0.15398974376E+02 -0.11187491224E+02  0.39004289054E+02  0.47787274933E+02  0.20000017730E+02 0.  0.
         12    1    1    2    0    0  0.15398974376E+02  0.11187491224E+02 -0.39004289054E+02  0.43400725067E+02  0.00000000000E+00 0. -1.
         11    1    3    3    0    0 -0.23243851937E+01 -0.39578053352E+01  0.63444605707E+01  0.78306557704E+01  0.51100000000E-03 0. -1.
        -11    1    3    3    0    0 -0.15556893014E+02 -0.98139006122E+01  0.21812146481E+02  0.28532425411E+02  0.51100000000E-03 0.  1.
         12    1    3    3    0    0  0.24823038311E+01  0.25842147240E+01  0.10847682002E+02  0.11424193751E+02  0.00000000000E+00 0. -1.
</event>
<event>
 7    1  0.2653124E-010  0.4778727E+02  0.7816164E-02  0.1312668E+00
        -11   -1    0    0    0    0  0.00000000000E+00  0.00000000000E+00  0.45593999997E+02  0.45594000000E+02  0.51100000000E-03 0.  1.
         11   -1    0    0    0    0 -0.00000000000E+00 -0.00000000000E+00 -0.45593999997E+02  0.45594000000E+02  0.51100000000E-03 0. -1.
    9900012    2    1    2    0    0  0.26901183156E+02  0.14880088282E+02  0.30635481322E+02  0.47787269611E+02  0.19999993463E+02 0.  0.
         12    1    1    2    0    0 -0.26901183156E+02 -0.14880088282E+02 -0.30635481322E+02  0.43400730389E+02  0.00000000000E+00 0. -1.
         11    1    3    3    0    0  0.53360328477E+01  0.15529851603E-01  0.26654624304E+01  0.59647445844E+01  0.51100000000E-03 0. -1.
        -11    1    3    3    0    0  0.13016695940E+02  0.24777618398E+01  0.21895400512E+02  0.25592620826E+02  0.51100000000E-03 0.  1.
         12    1    3    3    0    0  0.85484543686E+01  0.12386796591E+02  0.60746183799E+01  0.16229904200E+02  0.00000000000E+00 0. -1.
</event>
<event>
 7    1  0.2653124E-010  0.4778727E+02  0.7816164E-02  0.1312668E+00
        -11   -1    0    0    0    0  0.00000000000E+00  0.00000000000E+00  0.45593999997E+02  0.45594000000E+02  0.51100000000E-03 0.  1.
         11   -1    0    0    0    0 -0.00000000000E+00 -0.00000000000E+00 -0.45593999997E+02  0.45594000000E+02  0.51100000000E-03 0. -1.
    9900012    2    1    2    0    0 -0.60195853608E+01  0.34100206587E+02  0.26164166607E+02  0.47787272916E+02  0.20000008532E+02 0.  0.
         12    1    1    2    0    0  0.60195853608E+01 -0.34100206587E+02 -0.26164166607E+02  0.43400727084E+02  0.00000000000E+00 0. -1.
         11    1    3    3    0    0  0.24449127041E+01  0.88421363361E+01  0.16344766192E+02  0.18743328286E+02  0.51100000000E-03 0. -1.
        -11    1    3    3    0    0 -0.41559736724E+01  0.16273585128E+02  0.89766640131E+01  0.19044216633E+02  0.51100000000E-03 0.  1.
         12    1    3    3    0    0 -0.43085243925E+01  0.89844851233E+01  0.84273640181E+00  0.99997279970E+01  0.00000000000E+00 0. -1.
</event>
<event>
 7    1  0.2653124E-010  0.4778727E+02  0.7816164E-02  0.1312668E+00
        -11   -1    0    0    0    0  0.00000000000E+00  0.00000000000E+00  0.45593999997E+02  0.45594000000E+02  0.51100000000E-03 0.  1.
         11   -1    0    0    0    0 -0.00000000000E+00 -0.00000000000E+00 -0.45593999997E+02  0.45594000000E+02  0.51100000000E-03 0. -1.
    9900012    2    1    2    0    0  0.21355310289E+02  0.20093585440E+02  0.31997217220E+02  0.47787270015E+02  0.19999995307E+02 0.  0.
         12    1    1    2    0    0 -0.21355310289E+02 -0.20093585440E+02 -0.31997217220E+02  0.43400729985E+02  0.00000000000E+00 0. -1.
         11    1    3    3    0    0  0.62362443023E+01  0.20199839759E+01  0.78218312063E+01  0.10205494694E+02  0.51100000000E-03 0. -1.
        -11    1    3    3    0    0  0.11582589666E+02  0.13406697813E+02  0.25987519517E+02  0.31452298811E+02  0.51100000000E-03 0.  1.
         12    1    3    3    0    0  0.35364763204E+01  0.46669036516E+01 -0.18121335026E+01  0.61294765103E+01  0.00000000000E+00 0. -1.
</event>
<event>
 7    1  0.2653124E-010  0.4778727E+02  0.7816164E-02  0.1312668E+00
        -11   -1    0    0    0    0  0.00000000000E+00  0.00000000000E+00  0.45593999997E+02  0.45594000000E+02  0.51100000000E-03 0.  1.
         11   -1    0    0    0    0 -0.00000000000E+00 -0.00000000000E+00 -0.45593999997E+02  0.45594000000E+02  0.51100000000E-03 0. -1.
    9900012    2    1    2    0    0  0.12912690059E+02 -0.31409737480E+02  0.27024322408E+02  0.47787272186E+02  0.20000005207E+02 0.  0.
         12    1    1    2    0    0 -0.12912690059E+02  0.31409737480E+02 -0.27024322408E+02  0.43400727814E+02  0.00000000000E+00 0. -1.
         11    1    3    3    0    0  0.42343851783E+01 -0.78999187753E+01  0.80862741960E+01  0.12071725855E+02  0.51100000000E-03 0.  1.
        -11    1    3    3    0    0  0.59097461310E+00 -0.11063473968E+02  0.17620376250E+02  0.20814114602E+02  0.51100000000E-03 0. -1.
         12    1    3    3    0    0  0.80873302673E+01 -0.12446344737E+02  0.13176719625E+01  0.14901431729E+02  0.00000000000E+00 0. -1.
</event>
<event>
 7    1  0.2653124E-010  0.4778727E+02  0.7816164E-02  0.1312668E+00
        -11   -1    0    0    0    0  0.00000000000E+00  0.00000000000E+00  0.45593999997E+02  0.45594000000E+02  0.51100000000E-03 0.  1.
         11   -1    0    0    0    0 -0.00000000000E+00 -0.00000000000E+00 -0.45593999997E+02  0.45594000000E+02  0.51100000000E-03 0. -1.
    9900012    2    1    2    0    0  0.37768962700E+02 -0.20071496089E+02  0.73663878175E+01  0.47787272263E+02  0.20000005554E+02 0.  0.
         12    1    1    2    0    0 -0.37768962700E+02  0.20071496089E+02 -0.73663878175E+01  0.43400727737E+02  0.00000000000E+00 0. -1.
         11    1    3    3    0    0  0.85245798936E+01 -0.56239532799E+01 -0.24923250823E+01  0.10512325976E+02  0.51100000000E-03 0. -1.
        -11    1    3    3    0    0  0.39008807252E+01 -0.68166445747E+01 -0.22490941986E+01  0.81695739586E+01  0.51100000000E-03 0.  1.
        -12    1    3    3    0    0  0.25343502081E+02 -0.76308982344E+01  0.12107807098E+02  0.29105372328E+02  0.00000000000E+00 0.  1.
</event>
<event>
 7    1  0.2653124E-010  0.4778727E+02  0.7816164E-02  0.1312668E+00
        -11   -1    0    0    0    0  0.00000000000E+00  0.00000000000E+00  0.45593999997E+02  0.45594000000E+02  0.51100000000E-03 0.  1.
         11   -1    0    0    0    0 -0.00000000000E+00 -0.00000000000E+00 -0.45593999997E+02  0.45594000000E+02  0.51100000000E-03 0. -1.
    9900012    2    1    2    0    0 -0.22248892427E+02 -0.48369990982E+00  0.37260914646E+02  0.47787274890E+02  0.20000017534E+02 0.  0.
         12    1    1    2    0    0  0.22248892427E+02  0.48369990982E+00 -0.37260914646E+02  0.43400725110E+02  0.00000000000E+00 0. -1.
         11    1    3    3    0    0 -0.70165524472E+01 -0.21865727402E+01  0.83474859903E+01  0.11121763853E+02  0.51100000000E-03 0.  1.
        -11    1    3    3    0    0 -0.35987783842E+01  0.33669531469E+01 -0.53649492115E+00  0.49573588143E+01  0.51100000000E-03 0. -1.
        -12    1    3    3    0    0 -0.11633561596E+02 -0.16640803164E+01  0.29449923576E+02  0.31708152222E+02  0.00000000000E+00 0.  1.
</event>
<event>
 7    1  0.2653124E-010  0.4778727E+02  0.7816164E-02  0.1312668E+00
        -11   -1    0    0    0    0  0.00000000000E+00  0.00000000000E+00  0.45593999997E+02  0.45594000000E+02  0.51100000000E-03 0.  1.
         11   -1    0    0    0    0 -0.00000000000E+00 -0.00000000000E+00 -0.45593999997E+02  0.45594000000E+02  0.51100000000E-03 0. -1.
    9900012    2    1    2    0    0 -0.40451192944E+02  0.11679620309E+02  0.10531427827E+02  0.47787268287E+02  0.19999987427E+02 0.  0.
         12    1    1    2    0    0  0.40451192944E+02 -0.11679620309E+02 -0.10531427827E+02  0.43400731713E+02  0.00000000000E+00 0. -1.
         11    1    3    3    0    0 -0.73893787941E+01  0.48830172178E+01 -0.49953788402E+01  0.10168607876E+02  0.51100000000E-03 0. -1.
        -11    1    3    3    0    0 -0.63048341556E+01  0.32583739836E+01  0.17209499634E+01  0.73027120842E+01  0.51100000000E-03 0.  1.
        -12    1    3    3    0    0 -0.26756979994E+02  0.35382291078E+01  0.13805856704E+02  0.30315948327E+02  0.00000000000E+00 0.  1.
</event>
<event>
 7    1  0.2653124E-010  0.4778727E+02  0.7816164E-02  0.1312668E+00
        -11   -1    0    0    0    0  0.00000000000E+00  0.00000000000E+00  0.45593999997E+02  0.45594000000E+02  0.51100000000E-03 0.  1.
         11   -1    0    0    0    0 -0.00000000000E+00 -0.00000000000E+00 -0.45593999997E+02  0.45594000000E+02  0.51100000000E-03 0. -1.
    9900012    2    1    2    0    0 -0.30358154083E+02  0.23656854227E+02  0.20058888664E+02  0.47787270908E+02  0.19999999380E+02 0.  0.
         12    1    1    2    0    0  0.30358154083E+02 -0.23656854227E+02 -0.20058888664E+02  0.43400729092E+02  0.00000000000E+00 0. -1.
         11    1    3    3    0    0 -0.50330480426E+01 -0.33102853394E+01  0.91708086645E+00  0.60934882624E+01  0.51100000000E-03 0. -1.
        -11    1    3    3    0    0 -0.38838803649E+01  0.32169607055E+01  0.25867565053E+01  0.56678631201E+01  0.51100000000E-03 0.  1.
         12    1    3    3    0    0 -0.21441225676E+02  0.23750178861E+02  0.16555051292E+02  0.36025919526E+02  0.00000000000E+00 0. -1.
</event>
<event>
 7    1  0.2653124E-010  0.4778727E+02  0.7816164E-02  0.1312668E+00
        -11   -1    0    0    0    0  0.00000000000E+00  0.00000000000E+00  0.45593999997E+02  0.45594000000E+02  0.51100000000E-03 0. -1.
         11   -1    0    0    0    0 -0.00000000000E+00 -0.00000000000E+00 -0.45593999997E+02  0.45594000000E+02  0.51100000000E-03 0.  1.
    9900012    2    1    2    0    0  0.35999801514E+02  0.10324937065E+02 -0.21932470739E+02  0.47787270661E+02  0.19999998252E+02 0.  0.
         12    1    1    2    0    0 -0.35999801514E+02 -0.10324937065E+02  0.21932470739E+02  0.43400729339E+02  0.00000000000E+00 0. -1.
         11    1    3    3    0    0  0.58153691071E+01  0.35644090784E+01  0.23213023826E+01  0.72049965263E+01  0.51100000000E-03 0. -1.
        -11    1    3    3    0    0  0.23763401838E+01 -0.11214428256E+01  0.31645163183E+00  0.26466523339E+01  0.51100000000E-03 0.  1.
         12    1    3    3    0    0  0.27808092223E+02  0.78819708119E+01 -0.24570224754E+02  0.37935621801E+02  0.00000000000E+00 0. -1.
</event>
<event>
 7    1  0.2653124E-010  0.4778728E+02  0.7816164E-02  0.1312668E+00
        -11   -1    0    0    0    0  0.00000000000E+00  0.00000000000E+00  0.45593999997E+02  0.45594000000E+02  0.51100000000E-03 0. -1.
         11   -1    0    0    0    0 -0.00000000000E+00 -0.00000000000E+00 -0.45593999997E+02  0.45594000000E+02  0.51100000000E-03 0.  1.
    9900012    2    1    2    0    0  0.14948173452E+02  0.18691246130E+02 -0.36205139802E+02  0.47787277431E+02  0.20000029119E+02 0.  0.
         12    1    1    2    0    0 -0.14948173452E+02 -0.18691246130E+02  0.36205139802E+02  0.43400722569E+02  0.00000000000E+00 0. -1.
         11    1    3    3    0    0  0.14445515687E+01 -0.39344037265E+01 -0.78889846095E+01  0.89332155659E+01  0.51100000000E-03 0. -1.
        -11    1    3    3    0    0  0.49674952656E+01  0.53056913554E+01 -0.69662581142E+01  0.10067528115E+02  0.51100000000E-03 0.  1.
        -12    1    3    3    0    0  0.85361266178E+01  0.17319958501E+02 -0.21349897078E+02  0.28786533750E+02  0.00000000000E+00 0.  1.
</event>
<event>
 7    1  0.2653124E-010  0.4778729E+02  0.7816164E-02  0.1312668E+00
        -11   -1    0    0    0    0  0.00000000000E+00  0.00000000000E+00  0.45593999997E+02  0.45594000000E+02  0.51100000000E-03 0. -1.
         11   -1    0    0    0    0 -0.00000000000E+00 -0.00000000000E+00 -0.45593999997E+02  0.45594000000E+02  0.51100000000E-03 0.  1.
    9900012    2    1    2    0    0 -0.59617880385E+01  0.38935141486E+02  0.18224532674E+02  0.47787288597E+02  0.20000080027E+02 0.  0.
         12    1    1    2    0    0  0.59617880385E+01 -0.38935141486E+02 -0.18224532674E+02  0.43400711403E+02  0.00000000000E+00 0. -1.
         11    1    3    3    0    0  0.10080733596E+01  0.10362272617E+01  0.59126384851E+01  0.60868113945E+01  0.51100000000E-03 0. -1.
        -11    1    3    3    0    0 -0.14483154983E+01  0.97839114046E+01  0.80100474506E+01  0.12727269958E+02  0.51100000000E-03 0.  1.
        -12    1    3    3    0    0 -0.55215458998E+01  0.28115002819E+02  0.43018467385E+01  0.28973207244E+02  0.00000000000E+00 0.  1.
</event>
<event>
 7    1  0.2653124E-010  0.4778726E+02  0.7816164E-02  0.1312668E+00
        -11   -1    0    0    0    0  0.00000000000E+00  0.00000000000E+00  0.45593999997E+02  0.45594000000E+02  0.51100000000E-03 0. -1.
         11   -1    0    0    0    0 -0.00000000000E+00 -0.00000000000E+00 -0.45593999997E+02  0.45594000000E+02  0.51100000000E-03 0.  1.
    9900012    2    1    2    0    0  0.42643739372E+02 -0.44092918488E+01 -0.67596965461E+01  0.47787264297E+02  0.19999969234E+02 0.  0.
         12    1    1    2    0    0 -0.42643739372E+02  0.44092918488E+01  0.67596965461E+01  0.43400735703E+02  0.00000000000E+00 0. -1.
         11    1    3    3    0    0  0.10219385887E+02  0.23817932036E+01 -0.62936840693E+01  0.12235981620E+02  0.51100000000E-03 0. -1.
        -11    1    3    3    0    0  0.19547932397E+02  0.22121337563E+01 -0.19523985699E+01  0.19769346403E+02  0.51100000000E-03 0.  1.
         12    1    3    3    0    0  0.12876421087E+02 -0.90032188087E+01  0.14863860931E+01  0.15781936274E+02  0.00000000000E+00 0. -1.
</event>
<event>
 7    1  0.2653124E-010  0.4778727E+02  0.7816164E-02  0.1312668E+00
        -11   -1    0    0    0    0  0.00000000000E+00  0.00000000000E+00  0.45593999997E+02  0.45594000000E+02  0.51100000000E-03 0. -1.
         11   -1    0    0    0    0 -0.00000000000E+00 -0.00000000000E+00 -0.45593999997E+02  0.45594000000E+02  0.51100000000E-03 0.  1.
    9900012    2    1    2    0    0  0.34596635192E+02  0.19514157183E+02  0.17489834094E+02  0.47787265055E+02  0.19999972690E+02 0.  0.
         12    1    1    2    0    0 -0.34596635192E+02 -0.19514157183E+02 -0.17489834094E+02  0.43400734945E+02  0.00000000000E+00 0. -1.
         11    1    3    3    0    0  0.94872055875E+01  0.11197657403E+01  0.44308446800E+01  0.10530590202E+02  0.51100000000E-03 0. -1.
        -11    1    3    3    0    0  0.12528528964E+02  0.61495602956E+01 -0.20350987879E+01  0.14103997914E+02  0.51100000000E-03 0.  1.
         12    1    3    3    0    0  0.12580900640E+02  0.12244831147E+02  0.15094088202E+02  0.23152676938E+02  0.00000000000E+00 0. -1.
</event>
<event>
 7    1  0.2653124E-010  0.4778727E+02  0.7816164E-02  0.1312668E+00
        -11   -1    0    0    0    0  0.00000000000E+00  0.00000000000E+00  0.45593999997E+02  0.45594000000E+02  0.51100000000E-03 0.  1.
         11   -1    0    0    0    0 -0.00000000000E+00 -0.00000000000E+00 -0.45593999997E+02  0.45594000000E+02  0.51100000000E-03 0. -1.
    9900012    2    1    2    0    0  0.94389998950E+01  0.40750701704E+02  0.11571898719E+02  0.47787271338E+02  0.20000001338E+02 0.  0.
         12    1    1    2    0    0 -0.94389998950E+01 -0.40750701704E+02 -0.11571898719E+02  0.43400728662E+02  0.00000000000E+00 0. -1.
         11    1    3    3    0    0 -0.53237168394E+01  0.13128852868E+02  0.29743521150E+01  0.14476032239E+02  0.51100000000E-03 0. -1.
        -11    1    3    3    0    0 -0.27484521968E+00  0.20290768346E+00 -0.62117055737E+00  0.70891786919E+00  0.51100000000E-03 0.  1.
        -12    1    3    3    0    0  0.15037561954E+02  0.27418941153E+02  0.92187171618E+01  0.32602321230E+02  0.00000000000E+00 0.  1.
</event>
<event>
 7    1  0.2653124E-010  0.4778727E+02  0.7816164E-02  0.1312668E+00
        -11   -1    0    0    0    0  0.00000000000E+00  0.00000000000E+00  0.45593999997E+02  0.45594000000E+02  0.51100000000E-03 0. -1.
         11   -1    0    0    0    0 -0.00000000000E+00 -0.00000000000E+00 -0.45593999997E+02  0.45594000000E+02  0.51100000000E-03 0.  1.
    9900012    2    1    2    0    0 -0.35281967770E+02 -0.25078223272E+02  0.31446475559E+01  0.47787270277E+02  0.19999996501E+02 0.  0.
         12    1    1    2    0    0  0.35281967770E+02  0.25078223272E+02 -0.31446475559E+01  0.43400729723E+02  0.00000000000E+00 0. -1.
         11    1    3    3    0    0 -0.92082540343E+01  0.20049718257E+01  0.10224254047E+01  0.94793042124E+01  0.51100000000E-03 0. -1.
        -11    1    3    3    0    0 -0.13003048263E+02 -0.90635108522E+01  0.24866606239E+01  0.16044001197E+02  0.51100000000E-03 0.  1.
         12    1    3    3    0    0 -0.13070665473E+02 -0.18019684246E+02 -0.36443847280E+00  0.22263964868E+02  0.00000000000E+00 0. -1.
</event>
<event>
 7    1  0.2653124E-010  0.4778727E+02  0.7816164E-02  0.1312668E+00
        -11   -1    0    0    0    0  0.00000000000E+00  0.00000000000E+00  0.45593999997E+02  0.45594000000E+02  0.51100000000E-03 0.  1.
         11   -1    0    0    0    0 -0.00000000000E+00 -0.00000000000E+00 -0.45593999997E+02  0.45594000000E+02  0.51100000000E-03 0. -1.
    9900012    2    1    2    0    0 -0.13366631746E+02 -0.41260806492E+02 -0.15818474116E+01  0.47787271459E+02  0.20000001892E+02 0.  0.
         12    1    1    2    0    0  0.13366631746E+02  0.41260806492E+02  0.15818474116E+01  0.43400728541E+02  0.00000000000E+00 0. -1.
         11    1    3    3    0    0 -0.54857605848E+01 -0.30096055982E+02 -0.56566570692E+01  0.31110511476E+02  0.51100000000E-03 0. -1.
        -11    1    3    3    0    0 -0.49790824660E+01 -0.57013852392E+01 -0.21824040696E+01  0.78778133789E+01  0.51100000000E-03 0.  1.
        -12    1    3    3    0    0 -0.29017886953E+01 -0.54633652713E+01  0.62572137273E+01  0.87989466045E+01  0.00000000000E+00 0.  1.
</event>
<event>
 7    1  0.2653124E-010  0.4778727E+02  0.7816164E-02  0.1312668E+00
        -11   -1    0    0    0    0  0.00000000000E+00  0.00000000000E+00  0.45593999997E+02  0.45594000000E+02  0.51100000000E-03 0.  1.
         11   -1    0    0    0    0 -0.00000000000E+00 -0.00000000000E+00 -0.45593999997E+02  0.45594000000E+02  0.51100000000E-03 0. -1.
    9900012    2    1    2    0    0  0.35707419856E+02 -0.10121665433E+02  0.22497901972E+02  0.47787268013E+02  0.19999986179E+02 0.  0.
         12    1    1    2    0    0 -0.35707419856E+02  0.10121665433E+02 -0.22497901972E+02  0.43400731987E+02  0.00000000000E+00 0. -1.
         11    1    3    3    0    0 -0.26001288161E+00 -0.26831593884E+01  0.15946452154E+01  0.31320671491E+01  0.51100000000E-03 0. -1.
        -11    1    3    3    0    0  0.22471678818E+02 -0.97237271077E+01  0.18659163752E+02  0.30784600208E+02  0.51100000000E-03 0.  1.
        -12    1    3    3    0    0  0.13495753919E+02  0.22852210635E+01  0.22440930040E+01  0.13870600656E+02  0.00000000000E+00 0.  1.
</event>
<event>
 7    1  0.2653124E-010  0.4778727E+02  0.7816164E-02  0.1312668E+00
        -11   -1    0    0    0    0  0.00000000000E+00  0.00000000000E+00  0.45593999997E+02  0.45594000000E+02  0.51100000000E-03 0.  1.
         11   -1    0    0    0    0 -0.00000000000E+00 -0.00000000000E+00 -0.45593999997E+02  0.45594000000E+02  0.51100000000E-03 0. -1.
    9900012    2    1    2    0    0  0.43295616683E+02 -0.28189953703E+01  0.10798846508E+01  0.47787270632E+02  0.19999998119E+02 0.  0.
         12    1    1    2    0    0 -0.43295616683E+02  0.28189953703E+01 -0.10798846508E+01  0.43400729368E+02  0.00000000000E+00 0. -1.
         11    1    3    3    0    0  0.96438787525E+01  0.13973193620E+01 -0.72227494686E+00  0.97713141466E+01  0.51100000000E-03 0. -1.
        -11    1    3    3    0    0  0.18780314708E+02 -0.10140936229E+02  0.44171541925E+01  0.21795643132E+02  0.51100000000E-03 0.  1.
        -12    1    3    3    0    0  0.14871423222E+02  0.59246214968E+01 -0.26149945949E+01  0.16220313353E+02  0.00000000000E+00 0.  1.
</event>
<event>
 7    1  0.2653124E-010  0.4778727E+02  0.7816164E-02  0.1312668E+00
        -11   -1    0    0    0    0  0.00000000000E+00  0.00000000000E+00  0.45593999997E+02  0.45594000000E+02  0.51100000000E-03 0. -1.
         11   -1    0    0    0    0 -0.00000000000E+00 -0.00000000000E+00 -0.45593999997E+02  0.45594000000E+02  0.51100000000E-03 0.  1.
    9900012    2    1    2    0    0  0.17378961977E+02 -0.85175786237E+01 -0.38846443672E+02  0.47787266701E+02  0.19999980194E+02 0.  0.
         12    1    1    2    0    0 -0.17378961977E+02  0.85175786237E+01  0.38846443672E+02  0.43400733299E+02  0.00000000000E+00 0. -1.
         11    1    3    3    0    0  0.77930573816E+01 -0.61759478769E+01 -0.29836646780E+02  0.31449953369E+02  0.51100000000E-03 0.  1.
        -11    1    3    3    0    0  0.85612860328E+00 -0.43716637671E+01 -0.43888272501E+01  0.62534954362E+01  0.51100000000E-03 0. -1.
        -12    1    3    3    0    0  0.87297759917E+01  0.20300330203E+01 -0.46209696412E+01  0.10083817896E+02  0.00000000000E+00 0.  1.
</event>
<event>
 7    1  0.2653124E-010  0.4778727E+02  0.7816164E-02  0.1312668E+00
        -11   -1    0    0    0    0  0.00000000000E+00  0.00000000000E+00  0.45593999997E+02  0.45594000000E+02  0.51100000000E-03 0.  1.
         11   -1    0    0    0    0 -0.00000000000E+00 -0.00000000000E+00 -0.45593999997E+02  0.45594000000E+02  0.51100000000E-03 0. -1.
    9900012    2    1    2    0    0  0.62866242284E+01 -0.42938789997E+02 -0.60164637089E+00  0.47787270641E+02  0.19999998160E+02 0.  0.
         12    1    1    2    0    0 -0.62866242284E+01  0.42938789997E+02  0.60164637089E+00  0.43400729359E+02  0.00000000000E+00 0. -1.
         11    1    3    3    0    0 -0.53842510622E+01 -0.17221990888E+02 -0.20928004135E+01  0.18164992251E+02  0.51100000000E-03 0. -1.
        -11    1    3    3    0    0 -0.15744054491E+00 -0.13091987273E+01 -0.18742106986E+01  0.22916052968E+01  0.51100000000E-03 0.  1.
        -12    1    3    3    0    0  0.11828315836E+02 -0.24407600382E+02  0.33653647412E+01  0.27330673093E+02  0.00000000000E+00 0.  1.
</event>
<event>
 7    1  0.2653124E-010  0.4778727E+02  0.7816164E-02  0.1312668E+00
        -11   -1    0    0    0    0  0.00000000000E+00  0.00000000000E+00  0.45593999997E+02  0.45594000000E+02  0.51100000000E-03 0.  1.
         11   -1    0    0    0    0 -0.00000000000E+00 -0.00000000000E+00 -0.45593999997E+02  0.45594000000E+02  0.51100000000E-03 0. -1.
    9900012    2    1    2    0    0 -0.40174649060E+02 -0.16419899414E+02  0.87697948565E-01  0.47787271725E+02  0.20000003104E+02 0.  0.
         12    1    1    2    0    0  0.40174649060E+02  0.16419899414E+02 -0.87697948565E-01  0.43400728275E+02  0.00000000000E+00 0. -1.
         11    1    3    3    0    0 -0.23860477768E+02 -0.17040955931E+02  0.29457962625E+00  0.29322403649E+02  0.51100000000E-03 0. -1.
        -11    1    3    3    0    0 -0.13744688156E+02 -0.25182894163E+01 -0.18351708913E+01  0.14093476738E+02  0.51100000000E-03 0.  1.
        -12    1    3    3    0    0 -0.25694831355E+01  0.31393459326E+01  0.16282892136E+01  0.43713913382E+01  0.00000000000E+00 0.  1.
</event>
<event>
 7    1  0.2653124E-010  0.4778727E+02  0.7816164E-02  0.1312668E+00
        -11   -1    0    0    0    0  0.00000000000E+00  0.00000000000E+00  0.45593999997E+02  0.45594000000E+02  0.51100000000E-03 0.  1.
         11   -1    0    0    0    0 -0.00000000000E+00 -0.00000000000E+00 -0.45593999997E+02  0.45594000000E+02  0.51100000000E-03 0. -1.
    9900012    2    1    2    0    0  0.43331844057E+00 -0.30705047451E+01  0.43289811375E+02  0.47787268057E+02  0.19999986380E+02 0.  0.
         12    1    1    2    0    0 -0.43331844057E+00  0.30705047451E+01 -0.43289811375E+02  0.43400731943E+02  0.00000000000E+00 0. -1.
         11    1    3    3    0    0 -0.88963526843E+00  0.53067565789E+00  0.16334969922E+01  0.19342647826E+01  0.51100000000E-03 0. -1.
        -11    1    3    3    0    0  0.18279574404E+01 -0.82594901480E+01  0.39997745177E+02  0.40882517356E+02  0.51100000000E-03 0.  1.
        -12    1    3    3    0    0 -0.50500373136E+00  0.46583097450E+01  0.16585692064E+01  0.49704859180E+01  0.00000000000E+00 0.  1.
</event>
<event>
 7    1  0.2653124E-010  0.4778727E+02  0.7816164E-02  0.1312668E+00
        -11   -1    0    0    0    0  0.00000000000E+00  0.00000000000E+00  0.45593999997E+02  0.45594000000E+02  0.51100000000E-03 0.  1.
         11   -1    0    0    0    0 -0.00000000000E+00 -0.00000000000E+00 -0.45593999997E+02  0.45594000000E+02  0.51100000000E-03 0. -1.
    9900012    2    1    2    0    0  0.28248151235E+02 -0.17790057719E+02  0.27734084076E+02  0.47787267041E+02  0.19999981746E+02 0.  0.
         12    1    1    2    0    0 -0.28248151235E+02  0.17790057719E+02 -0.27734084076E+02  0.43400732959E+02  0.00000000000E+00 0. -1.
         11    1    3    3    0    0  0.61804396983E+01 -0.10037368195E+02  0.99587434952E+01  0.15431239983E+02  0.51100000000E-03 0. -1.
        -11    1    3    3    0    0  0.15837634154E+02 -0.82586574458E+01  0.18900367913E+02  0.26004999249E+02  0.51100000000E-03 0.  1.
         12    1    3    3    0    0  0.62300773825E+01  0.50596792209E+00 -0.11250273323E+01  0.63510278089E+01  0.00000000000E+00 0. -1.
</event>
<event>
 7    1  0.2653124E-010  0.4778726E+02  0.7816164E-02  0.1312668E+00
        -11   -1    0    0    0    0  0.00000000000E+00  0.00000000000E+00  0.45593999997E+02  0.45594000000E+02  0.51100000000E-03 0. -1.
         11   -1    0    0    0    0 -0.00000000000E+00 -0.00000000000E+00 -0.45593999997E+02  0.45594000000E+02  0.51100000000E-03 0.  1.
    9900012    2    1    2    0    0 -0.18622954531E+02 -0.24283237306E+02 -0.30775544440E+02  0.47787260547E+02  0.19999952136E+02 0.  0.
         12    1    1    2    0    0  0.18622954531E+02  0.24283237306E+02  0.30775544440E+02  0.43400739453E+02  0.00000000000E+00 0. -1.
         11    1    3    3    0    0 -0.99919263263E+00  0.12217028594E+01 -0.17472626900E+01  0.23545426228E+01  0.51100000000E-03 0. -1.
        -11    1    3    3    0    0 -0.15375054617E+02 -0.19060660082E+02 -0.12381207438E+02  0.27440761016E+02  0.51100000000E-03 0.  1.
        -12    1    3    3    0    0 -0.22487072816E+01 -0.64442800831E+01 -0.16647074312E+02  0.17991956908E+02  0.00000000000E+00 0.  1.
</event>
<event>
 7    1  0.2653124E-010  0.4778727E+02  0.7816164E-02  0.1312668E+00
        -11   -1    0    0    0    0  0.00000000000E+00  0.00000000000E+00  0.45593999997E+02  0.45594000000E+02  0.51100000000E-03 0. -1.
         11   -1    0    0    0    0 -0.00000000000E+00 -0.00000000000E+00 -0.45593999997E+02  0.45594000000E+02  0.51100000000E-03 0.  1.
    9900012    2    1    2    0    0  0.83208477071E+01  0.18491574881E+02 -0.38372496592E+02  0.47787270250E+02  0.19999996378E+02 0.  0.
         12    1    1    2    0    0 -0.83208477071E+01 -0.18491574881E+02  0.38372496592E+02  0.43400729750E+02  0.00000000000E+00 0. -1.
         11    1    3    3    0    0 -0.34966721683E+01  0.10129801009E+01 -0.92782242590E+01  0.99668596157E+01  0.51100000000E-03 0. -1.
        -11    1    3    3    0    0 -0.92579198379E+00  0.52449369127E+01 -0.24751035587E+01  0.58730394093E+01  0.51100000000E-03 0.  1.
        -12    1    3    3    0    0  0.12743311859E+02  0.12233657867E+02 -0.26619168774E+02  0.31947371225E+02  0.00000000000E+00 0.  1.
</event>
<event>
 7    1  0.2653124E-010  0.4778727E+02  0.7816164E-02  0.1312668E+00
        -11   -1    0    0    0    0  0.00000000000E+00  0.00000000000E+00  0.45593999997E+02  0.45594000000E+02  0.51100000000E-03 0.  1.
         11   -1    0    0    0    0 -0.00000000000E+00 -0.00000000000E+00 -0.45593999997E+02  0.45594000000E+02  0.51100000000E-03 0. -1.
    9900012    2    1    2    0    0 -0.14290617072E+02  0.19877491938E+02  0.35836948081E+02  0.47787271091E+02  0.20000000211E+02 0.  0.
         12    1    1    2    0    0  0.14290617072E+02 -0.19877491938E+02 -0.35836948081E+02  0.43400728909E+02  0.00000000000E+00 0. -1.
         11    1    3    3    0    0 -0.11781993270E+02  0.21577246052E+01  0.11084407007E+02  0.16319780019E+02  0.51100000000E-03 0. -1.
        -11    1    3    3    0    0 -0.25677282569E+01  0.46913906856E+01  0.12442634691E+02  0.13543320615E+02  0.51100000000E-03 0.  1.
        -12    1    3    3    0    0  0.59104455355E-01  0.13028376648E+02  0.12309906383E+02  0.17924170457E+02  0.00000000000E+00 0.  1.
</event>
<event>
 7    1  0.2653124E-010  0.4778727E+02  0.7816164E-02  0.1312668E+00
        -11   -1    0    0    0    0  0.00000000000E+00  0.00000000000E+00  0.45593999997E+02  0.45594000000E+02  0.51100000000E-03 0.  1.
         11   -1    0    0    0    0 -0.00000000000E+00 -0.00000000000E+00 -0.45593999997E+02  0.45594000000E+02  0.51100000000E-03 0. -1.
    9900012    2    1    2    0    0 -0.17041735084E+02  0.81558000812E+01  0.39072823201E+02  0.47787270484E+02  0.19999997445E+02 0.  0.
         12    1    1    2    0    0  0.17041735084E+02 -0.81558000812E+01 -0.39072823201E+02  0.43400729516E+02  0.00000000000E+00 0. -1.
         11    1    3    3    0    0 -0.49702490566E+01  0.16850821615E+01  0.26744540702E+02  0.27254602092E+02  0.51100000000E-03 0.  1.
        -11    1    3    3    0    0 -0.46590330592E+01 -0.20793129879E+01  0.36893988244E+01  0.62961730834E+01  0.51100000000E-03 0. -1.
        -12    1    3    3    0    0 -0.74124529686E+01  0.85500309076E+01  0.86388836740E+01  0.14236495308E+02  0.00000000000E+00 0.  1.
</event>
<event>
 7    1  0.2653124E-010  0.4778727E+02  0.7816164E-02  0.1312668E+00
        -11   -1    0    0    0    0  0.00000000000E+00  0.00000000000E+00  0.45593999997E+02  0.45594000000E+02  0.51100000000E-03 0.  1.
         11   -1    0    0    0    0 -0.00000000000E+00 -0.00000000000E+00 -0.45593999997E+02  0.45594000000E+02  0.51100000000E-03 0. -1.
    9900012    2    1    2    0    0 -0.13806260472E+02 -0.37577983090E+02  0.16760239181E+02  0.47787271218E+02  0.20000000793E+02 0.  0.
         12    1    1    2    0    0  0.13806260472E+02  0.37577983090E+02 -0.16760239181E+02  0.43400728782E+02  0.00000000000E+00 0. -1.
         11    1    3    3    0    0 -0.55904129106E+01 -0.59706996404E+01  0.25810382592E+01  0.85769300722E+01  0.51100000000E-03 0. -1.
        -11    1    3    3    0    0 -0.99471458865E+01 -0.12345033000E+02  0.11718164976E+02  0.19714485581E+02  0.51100000000E-03 0.  1.
        -12    1    3    3    0    0  0.17312983251E+01 -0.19262250450E+02  0.24610359460E+01  0.19495855565E+02  0.00000000000E+00 0.  1.
</event>
<event>
 7    1  0.2653124E-010  0.4778727E+02  0.7816164E-02  0.1312668E+00
        -11   -1    0    0    0    0  0.00000000000E+00  0.00000000000E+00  0.45593999997E+02  0.45594000000E+02  0.51100000000E-03 0. -1.
         11   -1    0    0    0    0 -0.00000000000E+00 -0.00000000000E+00 -0.45593999997E+02  0.45594000000E+02  0.51100000000E-03 0.  1.
    9900012    2    1    2    0    0  0.96152209936E+01 -0.44231370405E+01 -0.42090459391E+02  0.47787269733E+02  0.19999994019E+02 0.  0.
         12    1    1    2    0    0 -0.96152209936E+01  0.44231370405E+01  0.42090459391E+02  0.43400730267E+02  0.00000000000E+00 0. -1.
         11    1    3    3    0    0  0.35614264822E+01 -0.38690920893E+01 -0.34206474741E+01  0.62733134457E+01  0.51100000000E-03 0. -1.
        -11    1    3    3    0    0  0.79488531462E+01 -0.28830853361E+01 -0.12023549036E+02  0.14699053680E+02  0.51100000000E-03 0.  1.
         12    1    3    3    0    0 -0.18950586348E+01  0.23290403850E+01 -0.26646262880E+02  0.26814902607E+02  0.00000000000E+00 0. -1.
</event>
<event>
 7    1  0.2653124E-010  0.4778727E+02  0.7816164E-02  0.1312668E+00
        -11   -1    0    0    0    0  0.00000000000E+00  0.00000000000E+00  0.45593999997E+02  0.45594000000E+02  0.51100000000E-03 0. -1.
         11   -1    0    0    0    0 -0.00000000000E+00 -0.00000000000E+00 -0.45593999997E+02  0.45594000000E+02  0.51100000000E-03 0.  1.
    9900012    2    1    2    0    0 -0.22420498256E+02  0.91759080043E+01 -0.36010376335E+02  0.47787271509E+02  0.20000002118E+02 0.  0.
         12    1    1    2    0    0  0.22420498256E+02 -0.91759080043E+01  0.36010376335E+02  0.43400728491E+02  0.00000000000E+00 0. -1.
         11    1    3    3    0    0 -0.13032651521E+02  0.12481650660E+02 -0.27099523242E+02  0.32558036935E+02  0.51100000000E-03 0. -1.
        -11    1    3    3    0    0 -0.57721245309E+01  0.18422410741E+01 -0.43196638501E+01  0.74411537959E+01  0.51100000000E-03 0.  1.
         12    1    3    3    0    0 -0.36157222044E+01 -0.51479837299E+01 -0.45911892431E+01  0.77880807782E+01  0.00000000000E+00 0. -1.
</event>
<event>
 7    1  0.2653124E-010  0.4778725E+02  0.7816164E-02  0.1312668E+00
        -11   -1    0    0    0    0  0.00000000000E+00  0.00000000000E+00  0.45593999997E+02  0.45594000000E+02  0.51100000000E-03 0.  1.
         11   -1    0    0    0    0 -0.00000000000E+00 -0.00000000000E+00 -0.45593999997E+02  0.45594000000E+02  0.51100000000E-03 0. -1.
    9900012    2    1    2    0    0  0.19573909239E+02  0.48473851113E+01  0.38431626711E+02  0.47787251194E+02  0.19999909493E+02 0.  0.
         12    1    1    2    0    0 -0.19573909239E+02 -0.48473851113E+01 -0.38431626711E+02  0.43400748806E+02  0.00000000000E+00 0. -1.
         11    1    3    3    0    0  0.63339218641E+01  0.57712501968E+01  0.28267045663E+02  0.29537294490E+02  0.51100000000E-03 0. -1.
        -11    1    3    3    0    0  0.69791755703E+01 -0.23427174863E+00  0.96755709287E+01  0.11932327851E+02  0.51100000000E-03 0.  1.
         12    1    3    3    0    0  0.62608118045E+01 -0.68959333683E+00  0.48901011881E+00  0.63176288525E+01  0.00000000000E+00 0. -1.
</event>
<event>
 7    1  0.2653124E-010  0.4778726E+02  0.7816164E-02  0.1312668E+00
        -11   -1    0    0    0    0  0.00000000000E+00  0.00000000000E+00  0.45593999997E+02  0.45594000000E+02  0.51100000000E-03 0.  1.
         11   -1    0    0    0    0 -0.00000000000E+00 -0.00000000000E+00 -0.45593999997E+02  0.45594000000E+02  0.51100000000E-03 0. -1.
    9900012    2    1    2    0    0 -0.24515135030E+02  0.32012430389E+02  0.16057290042E+02  0.47787261429E+02  0.19999956161E+02 0.  0.
         12    1    1    2    0    0  0.24515135030E+02 -0.32012430389E+02 -0.16057290042E+02  0.43400738571E+02  0.00000000000E+00 0. -1.
         11    1    3    3    0    0  0.65570490847E+00 -0.83321069155E+00  0.13360849335E+01  0.17056705995E+01  0.51100000000E-03 0. -1.
        -11    1    3    3    0    0 -0.95404746781E+01  0.87553723777E+01 -0.16054017445E+01  0.13048161463E+02  0.51100000000E-03 0.  1.
        -12    1    3    3    0    0 -0.15630365261E+02  0.24090268703E+02  0.16326606853E+02  0.33033429366E+02  0.00000000000E+00 0.  1.
</event>
<event>
 7    1  0.2653124E-010  0.4778727E+02  0.7816164E-02  0.1312668E+00
        -11   -1    0    0    0    0  0.00000000000E+00  0.00000000000E+00  0.45593999997E+02  0.45594000000E+02  0.51100000000E-03 0.  1.
         11   -1    0    0    0    0 -0.00000000000E+00 -0.00000000000E+00 -0.45593999997E+02  0.45594000000E+02  0.51100000000E-03 0. -1.
    9900012    2    1    2    0    0  0.21836954030E+02 -0.30969177694E+02  0.21158467185E+02  0.47787271182E+02  0.20000000628E+02 0.  0.
         12    1    1    2    0    0 -0.21836954030E+02  0.30969177694E+02 -0.21158467185E+02  0.43400728818E+02  0.00000000000E+00 0. -1.
         11    1    3    3    0    0  0.59177837164E+01 -0.11692095769E+02  0.26828274438E+01  0.13376203906E+02  0.51100000000E-03 0. -1.
        -11    1    3    3    0    0  0.81007240574E+01 -0.19578938754E+02  0.14020792231E+02  0.25407463234E+02  0.51100000000E-03 0.  1.
         12    1    3    3    0    0  0.78184462558E+01  0.30185682875E+00  0.44548475101E+01  0.90036040417E+01  0.00000000000E+00 0. -1.
</event>
<event>
 7    1  0.2653124E-010  0.4778726E+02  0.7816164E-02  0.1312668E+00
        -11   -1    0    0    0    0  0.00000000000E+00  0.00000000000E+00  0.45593999997E+02  0.45594000000E+02  0.51100000000E-03 0.  1.
         11   -1    0    0    0    0 -0.00000000000E+00 -0.00000000000E+00 -0.45593999997E+02  0.45594000000E+02  0.51100000000E-03 0. -1.
    9900012    2    1    2    0    0  0.14980461161E+02 -0.99361312368E+00  0.40721284113E+02  0.47787257340E+02  0.19999937515E+02 0.  0.
         12    1    1    2    0    0 -0.14980461161E+02  0.99361312368E+00 -0.40721284113E+02  0.43400742660E+02  0.00000000000E+00 0. -1.
         11    1    3    3    0    0  0.41208171239E+01  0.13301512428E+01  0.10144268572E+01  0.44474147779E+01  0.51100000000E-03 0. -1.
        -11    1    3    3    0    0  0.11128211221E+02 -0.14586237291E+01  0.15609870407E+02  0.19225834769E+02  0.51100000000E-03 0.  1.
        -12    1    3    3    0    0 -0.26856718391E+00 -0.86514063740E+00  0.24096986849E+02  0.24114007793E+02  0.00000000000E+00 0.  1.
</event>
<event>
 7    1  0.2653124E-010  0.4778727E+02  0.7816164E-02  0.1312668E+00
        -11   -1    0    0    0    0  0.00000000000E+00  0.00000000000E+00  0.45593999997E+02  0.45594000000E+02  0.51100000000E-03 0.  1.
         11   -1    0    0    0    0 -0.00000000000E+00 -0.00000000000E+00 -0.45593999997E+02  0.45594000000E+02  0.51100000000E-03 0. -1.
    9900012    2    1    2    0    0  0.21899829371E+02 -0.86967757840E+01  0.36447038304E+02  0.47787273778E+02  0.20000012461E+02 0.  0.
         12    1    1    2    0    0 -0.21899829371E+02  0.86967757840E+01 -0.36447038304E+02  0.43400726222E+02  0.00000000000E+00 0. -1.
         11    1    3    3    0    0  0.11054977741E+02 -0.51172074131E+01  0.21344022581E+02  0.24575712497E+02  0.51100000000E-03 0. -1.
        -11    1    3    3    0    0  0.10519514411E+02  0.21116686771E+01  0.13587560838E+02  0.17313033756E+02  0.51100000000E-03 0.  1.
         12    1    3    3    0    0  0.32533721854E+00 -0.56912370480E+01  0.15154548849E+01  0.58985275239E+01  0.00000000000E+00 0. -1.
</event>
<event>
 7    1  0.2653124E-010  0.4778727E+02  0.7816164E-02  0.1312668E+00
        -11   -1    0    0    0    0  0.00000000000E+00  0.00000000000E+00  0.45593999997E+02  0.45594000000E+02  0.51100000000E-03 0.  1.
         11   -1    0    0    0    0 -0.00000000000E+00 -0.00000000000E+00 -0.45593999997E+02  0.45594000000E+02  0.51100000000E-03 0. -1.
    9900012    2    1    2    0    0 -0.26571739293E+01  0.37166737798E+02  0.22252999191E+02  0.47787274835E+02  0.20000017282E+02 0.  0.
         12    1    1    2    0    0  0.26571739293E+01 -0.37166737798E+02 -0.22252999191E+02  0.43400725165E+02  0.00000000000E+00 0. -1.
         11    1    3    3    0    0  0.27502196287E+01  0.64898929645E+01 -0.13310655976E+01  0.71731551345E+01  0.51100000000E-03 0. -1.
        -11    1    3    3    0    0 -0.54808617989E+01  0.64121101941E+01  0.35677011459E+01  0.91587933118E+01  0.51100000000E-03 0.  1.
        -12    1    3    3    0    0  0.73468240833E-01  0.24264734640E+02  0.20016363643E+02  0.31455326389E+02  0.00000000000E+00 0.  1.
</event>
<event>
 7    1  0.2653124E-010  0.4778726E+02  0.7816164E-02  0.1312668E+00
        -11   -1    0    0    0    0  0.00000000000E+00  0.00000000000E+00  0.45593999997E+02  0.45594000000E+02  0.51100000000E-03 0. -1.
         11   -1    0    0    0    0 -0.00000000000E+00 -0.00000000000E+00 -0.45593999997E+02  0.45594000000E+02  0.51100000000E-03 0.  1.
    9900012    2    1    2    0    0 -0.30552805845E+02  0.12588370615E+02 -0.28136865270E+02  0.47787260295E+02  0.19999950989E+02 0.  0.
         12    1    1    2    0    0  0.30552805845E+02 -0.12588370615E+02  0.28136865270E+02  0.43400739705E+02  0.00000000000E+00 0. -1.
         11    1    3    3    0    0 -0.52182078042E+01  0.63199768476E+01 -0.88901714011E+01  0.12091606504E+02  0.51100000000E-03 0. -1.
        -11    1    3    3    0    0 -0.99426758371E+01 -0.23387383577E+00 -0.15746030446E+02  0.18623881841E+02  0.51100000000E-03 0.  1.
        -12    1    3    3    0    0 -0.15391922204E+02  0.65022676031E+01 -0.35006634226E+01  0.17071771950E+02  0.00000000000E+00 0.  1.
</event>
<event>
 7    1  0.2653124E-010  0.4778726E+02  0.7816164E-02  0.1312668E+00
        -11   -1    0    0    0    0  0.00000000000E+00  0.00000000000E+00  0.45593999997E+02  0.45594000000E+02  0.51100000000E-03 0. -1.
         11   -1    0    0    0    0 -0.00000000000E+00 -0.00000000000E+00 -0.45593999997E+02  0.45594000000E+02  0.51100000000E-03 0.  1.
    9900012    2    1    2    0    0 -0.29650376323E+02 -0.29818567520E+01 -0.31552935547E+02  0.47787262363E+02  0.19999960419E+02 0.  0.
         12    1    1    2    0    0  0.29650376323E+02  0.29818567520E+01  0.31552935547E+02  0.43400737637E+02  0.00000000000E+00 0. -1.
         11    1    3    3    0    0 -0.99193119809E+00  0.25644358784E+01  0.86859913935E+00  0.28835262444E+01  0.51100000000E-03 0. -1.
        -11    1    3    3    0    0 -0.20576059200E+01  0.14561045071E+01 -0.18647964034E+00  0.25275991326E+01  0.51100000000E-03 0.  1.
        -12    1    3    3    0    0 -0.26600839205E+02 -0.70023971374E+01 -0.32235055046E+02  0.42376136986E+02  0.00000000000E+00 0.  1.
</event>
<event>
 7    1  0.2653124E-010  0.4778727E+02  0.7816164E-02  0.1312668E+00
        -11   -1    0    0    0    0  0.00000000000E+00  0.00000000000E+00  0.45593999997E+02  0.45594000000E+02  0.51100000000E-03 0.  1.
         11   -1    0    0    0    0 -0.00000000000E+00 -0.00000000000E+00 -0.45593999997E+02  0.45594000000E+02  0.51100000000E-03 0. -1.
    9900012    2    1    2    0    0  0.14456332645E+02 -0.38791601403E+02  0.13032630174E+02  0.47787270257E+02  0.19999996410E+02 0.  0.
         12    1    1    2    0    0 -0.14456332645E+02  0.38791601403E+02 -0.13032630174E+02  0.43400729743E+02  0.00000000000E+00 0. -1.
         11    1    3    3    0    0  0.29209353824E+01 -0.27054905294E+02  0.11514734088E+02  0.29548077185E+02  0.51100000000E-03 0. -1.
        -11    1    3    3    0    0  0.45129876733E+01 -0.99541355902E+01  0.80198949992E+00  0.10958789190E+02  0.51100000000E-03 0.  1.
        -12    1    3    3    0    0  0.70224095894E+01 -0.17825605193E+01  0.71590658588E+00  0.72804038821E+01  0.00000000000E+00 0.  1.
</event>
<event>
 7    1  0.2653124E-010  0.4778727E+02  0.7816164E-02  0.1312668E+00
        -11   -1    0    0    0    0  0.00000000000E+00  0.00000000000E+00  0.45593999997E+02  0.45594000000E+02  0.51100000000E-03 0.  1.
         11   -1    0    0    0    0 -0.00000000000E+00 -0.00000000000E+00 -0.45593999997E+02  0.45594000000E+02  0.51100000000E-03 0. -1.
    9900012    2    1    2    0    0 -0.40906893426E+01  0.34389263993E+02  0.26158521124E+02  0.47787269076E+02  0.19999991027E+02 0.  0.
         12    1    1    2    0    0  0.40906893426E+01 -0.34389263993E+02 -0.26158521124E+02  0.43400730924E+02  0.00000000000E+00 0. -1.
         11    1    3    3    0    0 -0.38845045546E+01  0.11002476474E+02  0.21667221861E+01  0.11867541847E+02  0.51100000000E-03 0. -1.
        -11    1    3    3    0    0 -0.22809216048E+01  0.16676819973E+02  0.83841028676E+01  0.18804576808E+02  0.51100000000E-03 0.  1.
         12    1    3    3    0    0  0.20747368168E+01  0.67099675470E+01  0.15607696070E+02  0.17115150422E+02  0.00000000000E+00 0. -1.
</event>
<event>
 7    1  0.2653124E-010  0.4778726E+02  0.7816164E-02  0.1312668E+00
        -11   -1    0    0    0    0  0.00000000000E+00  0.00000000000E+00  0.45593999997E+02  0.45594000000E+02  0.51100000000E-03 0.  1.
         11   -1    0    0    0    0 -0.00000000000E+00 -0.00000000000E+00 -0.45593999997E+02  0.45594000000E+02  0.51100000000E-03 0. -1.
    9900012    2    1    2    0    0  0.38773453698E+02 -0.13999868309E+02  0.13573757478E+02  0.47787263642E+02  0.19999966248E+02 0.  0.
         12    1    1    2    0    0 -0.38773453698E+02  0.13999868309E+02 -0.13573757478E+02  0.43400736358E+02  0.00000000000E+00 0. -1.
         11    1    3    3    0    0  0.12399121030E+02 -0.93301631717E+01  0.11817291800E+02  0.19504833577E+02  0.51100000000E-03 0.  1.
        -11    1    3    3    0    0  0.11694893941E+01  0.16974135821E+01 -0.68325376443E+00  0.21715787527E+01  0.51100000000E-03 0. -1.
        -12    1    3    3    0    0  0.25204843274E+02 -0.63671187197E+01  0.24397194428E+01  0.26110851312E+02  0.00000000000E+00 0.  1.
</event>
<event>
 7    1  0.2653124E-010  0.4778727E+02  0.7816164E-02  0.1312668E+00
        -11   -1    0    0    0    0  0.00000000000E+00  0.00000000000E+00  0.45593999997E+02  0.45594000000E+02  0.51100000000E-03 0. -1.
         11   -1    0    0    0    0 -0.00000000000E+00 -0.00000000000E+00 -0.45593999997E+02  0.45594000000E+02  0.51100000000E-03 0.  1.
    9900012    2    1    2    0    0  0.20403847689E+02  0.14253428418E+02 -0.35554832252E+02  0.47787270529E+02  0.19999997648E+02 0.  0.
         12    1    1    2    0    0 -0.20403847689E+02 -0.14253428418E+02  0.35554832252E+02  0.43400729471E+02  0.00000000000E+00 0. -1.
         11    1    3    3    0    0  0.92533110552E+01 -0.18334614616E+01 -0.20556673285E+02  0.22617740011E+02  0.51100000000E-03 0. -1.
        -11    1    3    3    0    0  0.22494088338E+01  0.40207184720E+01 -0.63977937054E+01  0.78840206551E+01  0.51100000000E-03 0.  1.
         12    1    3    3    0    0  0.89011278002E+01  0.12066171408E+02 -0.86003652616E+01  0.17285509862E+02  0.00000000000E+00 0. -1.
</event>
<event>
 7    1  0.2653124E-010  0.4778727E+02  0.7816164E-02  0.1312668E+00
        -11   -1    0    0    0    0  0.00000000000E+00  0.00000000000E+00  0.45593999997E+02  0.45594000000E+02  0.51100000000E-03 0.  1.
         11   -1    0    0    0    0 -0.00000000000E+00 -0.00000000000E+00 -0.45593999997E+02  0.45594000000E+02  0.51100000000E-03 0. -1.
    9900012    2    1    2    0    0 -0.88229662334E+01 -0.27729879548E+02  0.32199882193E+02  0.47787269982E+02  0.19999995155E+02 0.  0.
         12    1    1    2    0    0  0.88229662334E+01  0.27729879548E+02 -0.32199882193E+02  0.43400730018E+02  0.00000000000E+00 0. -1.
         11    1    3    3    0    0  0.42198967523E+01 -0.13021642351E+02  0.96624445109E+01  0.16755104664E+02  0.51100000000E-03 0. -1.
        -11    1    3    3    0    0  0.85324244241E+00 -0.30081044616E+01  0.26690488958E+01  0.41110263179E+01  0.51100000000E-03 0.  1.
        -12    1    3    3    0    0 -0.13896105428E+02 -0.11700132735E+02  0.19868388786E+02  0.26921139000E+02  0.00000000000E+00 0.  1.
</event>
<event>
 7    1  0.2653124E-010  0.4778727E+02  0.7816164E-02  0.1312668E+00
        -11   -1    0    0    0    0  0.00000000000E+00  0.00000000000E+00  0.45593999997E+02  0.45594000000E+02  0.51100000000E-03 0.  1.
         11   -1    0    0    0    0 -0.00000000000E+00 -0.00000000000E+00 -0.45593999997E+02  0.45594000000E+02  0.51100000000E-03 0. -1.
    9900012    2    1    2    0    0 -0.32436326327E+02 -0.87780588702E+01  0.27467319285E+02  0.47787271759E+02  0.20000003260E+02 0.  0.
         12    1    1    2    0    0  0.32436326327E+02  0.87780588702E+01 -0.27467319285E+02  0.43400728241E+02  0.00000000000E+00 0. -1.
         11    1    3    3    0    0 -0.19711013597E+02  0.42600222476E+00  0.65139406512E+01  0.20763837747E+02  0.51100000000E-03 0. -1.
        -11    1    3    3    0    0  0.55852818416E+00  0.24811575075E+00  0.22406435756E+00  0.65093798147E+00  0.51100000000E-03 0.  1.
        -12    1    3    3    0    0 -0.13283840914E+02 -0.94521768458E+01  0.20729314276E+02  0.26372496031E+02  0.00000000000E+00 0.  1.
</event>
<event>
 7    1  0.2653124E-010  0.4778727E+02  0.7816164E-02  0.1312668E+00
        -11   -1    0    0    0    0  0.00000000000E+00  0.00000000000E+00  0.45593999997E+02  0.45594000000E+02  0.51100000000E-03 0.  1.
         11   -1    0    0    0    0 -0.00000000000E+00 -0.00000000000E+00 -0.45593999997E+02  0.45594000000E+02  0.51100000000E-03 0. -1.
    9900012    2    1    2    0    0 -0.35434529792E+02 -0.37925981479E+01  0.24771633353E+02  0.47787268194E+02  0.19999987004E+02 0.  0.
         12    1    1    2    0    0  0.35434529792E+02  0.37925981479E+01 -0.24771633353E+02  0.43400731806E+02  0.00000000000E+00 0. -1.
         11    1    3    3    0    0 -0.53609371238E+01 -0.64859402548E+01  0.10101885805E+01  0.84751135133E+01  0.51100000000E-03 0. -1.
        -11    1    3    3    0    0 -0.88408274244E+01  0.46529819154E+01  0.72605626374E+01  0.12350151429E+02  0.51100000000E-03 0.  1.
        -12    1    3    3    0    0 -0.21232765244E+02 -0.19596398085E+01  0.16500882135E+02  0.26962003251E+02  0.00000000000E+00 0.  1.
</event>
<event>
 7    1  0.2653124E-010  0.4778727E+02  0.7816164E-02  0.1312668E+00
        -11   -1    0    0    0    0  0.00000000000E+00  0.00000000000E+00  0.45593999997E+02  0.45594000000E+02  0.51100000000E-03 0. -1.
         11   -1    0    0    0    0 -0.00000000000E+00 -0.00000000000E+00 -0.45593999997E+02  0.45594000000E+02  0.51100000000E-03 0.  1.
    9900012    2    1    2    0    0  0.22889427830E+02  0.26599861019E+02 -0.25537120183E+02  0.47787273971E+02  0.20000013342E+02 0.  0.
         12    1    1    2    0    0 -0.22889427830E+02 -0.26599861019E+02  0.25537120183E+02  0.43400726029E+02  0.00000000000E+00 0. -1.
         11    1    3    3    0    0  0.16485448043E+02  0.15241351272E+02 -0.18914984255E+02  0.29357203808E+02  0.51100000000E-03 0. -1.
        -11    1    3    3    0    0  0.59225709257E+01  0.12095047736E+02 -0.87957183822E+01  0.16085138738E+02  0.51100000000E-03 0.  1.
         12    1    3    3    0    0  0.48140886104E+00 -0.73653798863E+00  0.21735824543E+01  0.23449314246E+01  0.00000000000E+00 0. -1.
</event>
<event>
 7    1  0.2653124E-010  0.4778727E+02  0.7816164E-02  0.1312668E+00
        -11   -1    0    0    0    0  0.00000000000E+00  0.00000000000E+00  0.45593999997E+02  0.45594000000E+02  0.51100000000E-03 0.  1.
         11   -1    0    0    0    0 -0.00000000000E+00 -0.00000000000E+00 -0.45593999997E+02  0.45594000000E+02  0.51100000000E-03 0. -1.
    9900012    2    1    2    0    0 -0.74654433557E+01  0.39068316676E+02  0.17365402004E+02  0.47787269601E+02  0.19999993421E+02 0.  0.
         12    1    1    2    0    0  0.74654433557E+01 -0.39068316676E+02 -0.17365402004E+02  0.43400730399E+02  0.00000000000E+00 0. -1.
         11    1    3    3    0    0 -0.23553693951E+00  0.13605761969E+02 -0.11801123211E+01  0.13658876299E+02  0.51100000000E-03 0. -1.
        -11    1    3    3    0    0 -0.26838188494E+00 -0.70718846085E+00  0.25886204260E+01  0.26968686150E+01  0.51100000000E-03 0.  1.
        -12    1    3    3    0    0 -0.69615245313E+01  0.26169743167E+02  0.15956893899E+02  0.31431524687E+02  0.00000000000E+00 0.  1.
</event>
<event>
 7    1  0.2653124E-010  0.4778727E+02  0.7816164E-02  0.1312668E+00
        -11   -1    0    0    0    0  0.00000000000E+00  0.00000000000E+00  0.45593999997E+02  0.45594000000E+02  0.51100000000E-03 0.  1.
         11   -1    0    0    0    0 -0.00000000000E+00 -0.00000000000E+00 -0.45593999997E+02  0.45594000000E+02  0.51100000000E-03 0. -1.
    9900012    2    1    2    0    0  0.41395675819E+02  0.27618943692E+01  0.12743369793E+02  0.47787268316E+02  0.19999987561E+02 0.  0.
         12    1    1    2    0    0 -0.41395675819E+02 -0.27618943692E+01 -0.12743369793E+02  0.43400731684E+02  0.00000000000E+00 0. -1.
         11    1    3    3    0    0  0.17948430931E+02 -0.62954500940E+00 -0.21661912639E+01  0.18089634730E+02  0.51100000000E-03 0. -1.
        -11    1    3    3    0    0  0.16101564018E+02  0.11549245178E+01  0.44925380874E+01  0.16756405140E+02  0.51100000000E-03 0.  1.
         12    1    3    3    0    0  0.73456808690E+01  0.22365148608E+01  0.10417022969E+02  0.12941228446E+02  0.00000000000E+00 0. -1.
</event>
<event>
 7    1  0.2653124E-010  0.4778727E+02  0.7816164E-02  0.1312668E+00
        -11   -1    0    0    0    0  0.00000000000E+00  0.00000000000E+00  0.45593999997E+02  0.45594000000E+02  0.51100000000E-03 0.  1.
         11   -1    0    0    0    0 -0.00000000000E+00 -0.00000000000E+00 -0.45593999997E+02  0.45594000000E+02  0.51100000000E-03 0. -1.
    9900012    2    1    2    0    0  0.31160472605E+01 -0.80529144413E+01  0.42533094583E+02  0.47787270555E+02  0.19999997767E+02 0.  0.
         12    1    1    2    0    0 -0.31160472605E+01  0.80529144413E+01 -0.42533094583E+02  0.43400729445E+02  0.00000000000E+00 0. -1.
         11    1    3    3    0    0 -0.32414043920E+01 -0.21437795443E+01  0.29875717762E+01  0.49018444025E+01  0.51100000000E-03 0. -1.
        -11    1    3    3    0    0 -0.32727808279E+01  0.33362933518E+00  0.19596509186E+02  0.19870721563E+02  0.51100000000E-03 0.  1.
        -12    1    3    3    0    0  0.96302324805E+01 -0.62427642322E+01  0.19949013621E+02  0.23014704590E+02  0.00000000000E+00 0.  1.
</event>
<event>
 7    1  0.2653124E-010  0.4778727E+02  0.7816164E-02  0.1312668E+00
        -11   -1    0    0    0    0  0.00000000000E+00  0.00000000000E+00  0.45593999997E+02  0.45594000000E+02  0.51100000000E-03 0. -1.
         11   -1    0    0    0    0 -0.00000000000E+00 -0.00000000000E+00 -0.45593999997E+02  0.45594000000E+02  0.51100000000E-03 0.  1.
    9900012    2    1    2    0    0  0.38202759613E+02 -0.84785593088E+01 -0.18769296493E+02  0.47787270734E+02  0.19999998585E+02 0.  0.
         12    1    1    2    0    0 -0.38202759613E+02  0.84785593088E+01  0.18769296493E+02  0.43400729266E+02  0.00000000000E+00 0. -1.
         11    1    3    3    0    0  0.31649752789E+01 -0.38683443096E+01 -0.32699337441E+01  0.59727400048E+01  0.51100000000E-03 0. -1.
        -11    1    3    3    0    0  0.11369875725E+02 -0.22145097544E+01  0.26620873063E+01  0.11885488485E+02  0.51100000000E-03 0.  1.
         12    1    3    3    0    0  0.23667908609E+02 -0.23957052447E+01 -0.18161450055E+02  0.29929042244E+02  0.00000000000E+00 0. -1.
</event>
<event>
 7    1  0.2653124E-010  0.4778727E+02  0.7816164E-02  0.1312668E+00
        -11   -1    0    0    0    0  0.00000000000E+00  0.00000000000E+00  0.45593999997E+02  0.45594000000E+02  0.51100000000E-03 0.  1.
         11   -1    0    0    0    0 -0.00000000000E+00 -0.00000000000E+00 -0.45593999997E+02  0.45594000000E+02  0.51100000000E-03 0. -1.
    9900012    2    1    2    0    0 -0.33906264405E+02 -0.10562678901E+02  0.24948310478E+02  0.47787272505E+02  0.20000006657E+02 0.  0.
         12    1    1    2    0    0  0.33906264405E+02  0.10562678901E+02 -0.24948310478E+02  0.43400727495E+02  0.00000000000E+00 0. -1.
         11    1    3    3    0    0 -0.10027858832E+02 -0.54935134879E+01  0.34774513541E+01  0.11951121762E+02  0.51100000000E-03 0. -1.
        -11    1    3    3    0    0 -0.17898822569E+02 -0.98079209692E+01  0.18810388033E+02  0.27755969832E+02  0.51100000000E-03 0.  1.
        -12    1    3    3    0    0 -0.59795830034E+01  0.47387555562E+01  0.26604710903E+01  0.80801809099E+01  0.00000000000E+00 0.  1.
</event>
<event>
 7    1  0.2653124E-010  0.4778727E+02  0.7816164E-02  0.1312668E+00
        -11   -1    0    0    0    0  0.00000000000E+00  0.00000000000E+00  0.45593999997E+02  0.45594000000E+02  0.51100000000E-03 0.  1.
         11   -1    0    0    0    0 -0.00000000000E+00 -0.00000000000E+00 -0.45593999997E+02  0.45594000000E+02  0.51100000000E-03 0. -1.
    9900012    2    1    2    0    0  0.11388034916E+02 -0.12376531024E+02  0.40009464334E+02  0.47787273097E+02  0.20000009356E+02 0.  0.
         12    1    1    2    0    0 -0.11388034916E+02  0.12376531024E+02 -0.40009464334E+02  0.43400726903E+02  0.00000000000E+00 0. -1.
         11    1    3    3    0    0 -0.37673186093E+01 -0.11911640346E+00  0.87317535894E+01  0.95105414793E+01  0.51100000000E-03 0. -1.
        -11    1    3    3    0    0  0.42277869040E+01 -0.50983459602E+01  0.19829887141E+02  0.20906739055E+02  0.51100000000E-03 0.  1.
         12    1    3    3    0    0  0.10927566621E+02 -0.71590686599E+01  0.11447823604E+02  0.17369992562E+02  0.00000000000E+00 0. -1.
</event>
<event>
 7    1  0.2687925E-010  0.4778727E+02  0.7816164E-02  0.1312668E+00
        -11   -1    0    0    0    0  0.00000000000E+00  0.00000000000E+00  0.45593999997E+02  0.45594000000E+02  0.51100000000E-03 0. -1.
         11   -1    0    0    0    0 -0.00000000000E+00 -0.00000000000E+00 -0.45593999997E+02  0.45594000000E+02  0.51100000000E-03 0.  1.
    9900012    2    1    2    0    0 -0.17148344298E+02  0.25938338656E+02 -0.30278046645E+02  0.47787271515E+02  0.20000002147E+02 0.  0.
         12    1    1    2    0    0  0.17148344298E+02 -0.25938338656E+02  0.30278046645E+02  0.43400728485E+02  0.00000000000E+00 0. -1.
         11    1    3    3    0    0 -0.73557339406E+01  0.59333198065E+01 -0.34380953855E+01  0.10056421126E+02  0.51100000000E-03 0. -1.
        -11    1    3    3    0    0 -0.12073744590E+02  0.17646477217E+02 -0.16871879039E+02  0.27236625510E+02  0.51100000000E-03 0.  1.
         12    1    3    3    0    0  0.22811342328E+01  0.23585416320E+01 -0.99680722204E+01  0.10494224879E+02  0.00000000000E+00 0. -1.
</event>
<event>
 7    1  0.2653124E-010  0.4778727E+02  0.7816164E-02  0.1312668E+00
        -11   -1    0    0    0    0  0.00000000000E+00  0.00000000000E+00  0.45593999997E+02  0.45594000000E+02  0.51100000000E-03 0.  1.
         11   -1    0    0    0    0 -0.00000000000E+00 -0.00000000000E+00 -0.45593999997E+02  0.45594000000E+02  0.51100000000E-03 0. -1.
    9900012    2    1    2    0    0  0.41225247963E+02 -0.13522940776E+02 -0.11101151329E+01  0.47787270139E+02  0.19999995872E+02 0.  0.
         12    1    1    2    0    0 -0.41225247963E+02  0.13522940776E+02  0.11101151329E+01  0.43400729861E+02  0.00000000000E+00 0. -1.
         11    1    3    3    0    0  0.89615003162E+01 -0.30834723364E+01  0.68153644448E+01  0.11673280702E+02  0.51100000000E-03 0.  1.
        -11    1    3    3    0    0  0.13056294919E+01  0.97105586052E+00  0.10305481228E+01  0.19260445345E+01  0.51100000000E-03 0. -1.
        -12    1    3    3    0    0  0.30958118155E+02 -0.11410524300E+02 -0.89560277005E+01  0.34187944903E+02  0.00000000000E+00 0.  1.
</event>
<event>
 7    1  0.2653124E-010  0.4778727E+02  0.7816164E-02  0.1312668E+00
        -11   -1    0    0    0    0  0.00000000000E+00  0.00000000000E+00  0.45593999997E+02  0.45594000000E+02  0.51100000000E-03 0. -1.
         11   -1    0    0    0    0 -0.00000000000E+00 -0.00000000000E+00 -0.45593999997E+02  0.45594000000E+02  0.51100000000E-03 0.  1.
    9900012    2    1    2    0    0  0.25178437248E+02 -0.35155634654E+02 -0.37082391544E+01  0.47787269732E+02  0.19999994014E+02 0.  0.
         12    1    1    2    0    0 -0.25178437248E+02  0.35155634654E+02  0.37082391544E+01  0.43400730268E+02  0.00000000000E+00 0. -1.
         11    1    3    3    0    0  0.14415238905E+02 -0.16303214400E+02  0.59880556599E+00  0.21770449716E+02  0.51100000000E-03 0. -1.
        -11    1    3    3    0    0  0.10849121233E+01 -0.45657642523E+01  0.46224325792E+01  0.65871177865E+01  0.51100000000E-03 0.  1.
        -12    1    3    3    0    0  0.96782862199E+01 -0.14286656002E+02 -0.89294772996E+01  0.19429702229E+02  0.00000000000E+00 0.  1.
</event>
<event>
 7    1  0.2653124E-010  0.4778725E+02  0.7816164E-02  0.1312668E+00
        -11   -1    0    0    0    0  0.00000000000E+00  0.00000000000E+00  0.45593999997E+02  0.45594000000E+02  0.51100000000E-03 0.  1.
         11   -1    0    0    0    0 -0.00000000000E+00 -0.00000000000E+00 -0.45593999997E+02  0.45594000000E+02  0.51100000000E-03 0. -1.
    9900012    2    1    2    0    0  0.23935240237E+02 -0.48055674092E+01  0.35883641002E+02  0.47787252370E+02  0.19999914854E+02 0.  0.
         12    1    1    2    0    0 -0.23935240237E+02  0.48055674092E+01 -0.35883641002E+02  0.43400747630E+02  0.00000000000E+00 0. -1.
         11    1    3    3    0    0  0.48547185945E+01  0.15112945846E+01  0.16940702488E+02  0.17687275228E+02  0.51100000000E-03 0. -1.
        -11    1    3    3    0    0  0.77553639979E+01  0.87763323581E+00  0.13555007918E+02  0.15641424192E+02  0.51100000000E-03 0.  1.
         12    1    3    3    0    0  0.11325157644E+02 -0.71944952296E+01  0.53879305960E+01  0.14458552949E+02  0.00000000000E+00 0. -1.
</event>
<event>
 7    1  0.2653124E-010  0.4778727E+02  0.7816164E-02  0.1312668E+00
        -11   -1    0    0    0    0  0.00000000000E+00  0.00000000000E+00  0.45593999997E+02  0.45594000000E+02  0.51100000000E-03 0.  1.
         11   -1    0    0    0    0 -0.00000000000E+00 -0.00000000000E+00 -0.45593999997E+02  0.45594000000E+02  0.51100000000E-03 0. -1.
    9900012    2    1    2    0    0  0.39735531859E+01  0.42036042014E+02  0.10040183340E+02  0.47787271496E+02  0.20000002061E+02 0.  0.
         12    1    1    2    0    0 -0.39735531859E+01 -0.42036042014E+02 -0.10040183340E+02  0.43400728504E+02  0.00000000000E+00 0. -1.
         11    1    3    3    0    0  0.31516941911E+00  0.55699771223E+00  0.26348792660E+01  0.27114880088E+01  0.51100000000E-03 0. -1.
        -11    1    3    3    0    0  0.92182402054E+01  0.19415197449E+02  0.13735949579E+01  0.21536309058E+02  0.51100000000E-03 0.  1.
        -12    1    3    3    0    0 -0.55598564386E+01  0.22063846853E+02  0.60317091159E+01  0.23539474430E+02  0.00000000000E+00 0.  1.
</event>
<event>
 7    1  0.2653124E-010  0.4778727E+02  0.7816164E-02  0.1312668E+00
        -11   -1    0    0    0    0  0.00000000000E+00  0.00000000000E+00  0.45593999997E+02  0.45594000000E+02  0.51100000000E-03 0.  1.
         11   -1    0    0    0    0 -0.00000000000E+00 -0.00000000000E+00 -0.45593999997E+02  0.45594000000E+02  0.51100000000E-03 0. -1.
    9900012    2    1    2    0    0 -0.11050120235E+01  0.37727235681E+02  0.21425639454E+02  0.47787269710E+02  0.19999993914E+02 0.  0.
         12    1    1    2    0    0  0.11050120235E+01 -0.37727235681E+02 -0.21425639454E+02  0.43400730290E+02  0.00000000000E+00 0. -1.
         11    1    3    3    0    0 -0.17499377783E+01  0.10989641915E+01  0.56430687834E+00  0.21420660672E+01  0.51100000000E-03 0. -1.
        -11    1    3    3    0    0 -0.66639465413E+01  0.24723438342E+02  0.18224477828E+02  0.31429097654E+02  0.51100000000E-03 0.  1.
        -12    1    3    3    0    0  0.73088722961E+01  0.11904833148E+02  0.26368547476E+01  0.14216105989E+02  0.00000000000E+00 0.  1.
</event>
<event>
 7    1  0.2653124E-010  0.4778727E+02  0.7816164E-02  0.1312668E+00
        -11   -1    0    0    0    0  0.00000000000E+00  0.00000000000E+00  0.45593999997E+02  0.45594000000E+02  0.51100000000E-03 0.  1.
         11   -1    0    0    0    0 -0.00000000000E+00 -0.00000000000E+00 -0.45593999997E+02  0.45594000000E+02  0.51100000000E-03 0. -1.
    9900012    2    1    2    0    0 -0.34812099837E+01  0.89020447962E+01  0.42335072059E+02  0.47787267855E+02  0.19999985459E+02 0.  0.
         12    1    1    2    0    0  0.34812099837E+01 -0.89020447962E+01 -0.42335072059E+02  0.43400732145E+02  0.00000000000E+00 0. -1.
         11    1    3    3    0    0  0.15252807315E+01  0.42240599080E+00  0.15176113842E+01  0.21927272301E+01  0.51100000000E-03 0. -1.
        -11    1    3    3    0    0 -0.34243936668E+01  0.13521362607E+02  0.35295518760E+02  0.37951645070E+02  0.51100000000E-03 0.  1.
        -12    1    3    3    0    0 -0.15820970484E+01 -0.50417238013E+01  0.55219419139E+01  0.76428955547E+01  0.00000000000E+00 0.  1.
</event>
<event>
 7    1  0.2653124E-010  0.4778727E+02  0.7816164E-02  0.1312668E+00
        -11   -1    0    0    0    0  0.00000000000E+00  0.00000000000E+00  0.45593999997E+02  0.45594000000E+02  0.51100000000E-03 0.  1.
         11   -1    0    0    0    0 -0.00000000000E+00 -0.00000000000E+00 -0.45593999997E+02  0.45594000000E+02  0.51100000000E-03 0. -1.
    9900012    2    1    2    0    0  0.33465717150E+02 -0.25836812153E+02  0.98045095802E+01  0.47787268501E+02  0.19999988401E+02 0.  0.
         12    1    1    2    0    0 -0.33465717150E+02  0.25836812153E+02 -0.98045095802E+01  0.43400731499E+02  0.00000000000E+00 0. -1.
         11    1    3    3    0    0  0.11990392950E+00 -0.44265174144E+01  0.88278539561E+00  0.45152789158E+01  0.51100000000E-03 0. -1.
        -11    1    3    3    0    0  0.16419323076E+02 -0.12144106708E+02 -0.29220487234E+01  0.20630362746E+02  0.51100000000E-03 0.  1.
         12    1    3    3    0    0  0.16926490144E+02 -0.92661880299E+01  0.11843772908E+02  0.22641626839E+02  0.00000000000E+00 0. -1.
</event>
<event>
 7    1  0.2653124E-010  0.4778728E+02  0.7816164E-02  0.1312668E+00
        -11   -1    0    0    0    0  0.00000000000E+00  0.00000000000E+00  0.45593999997E+02  0.45594000000E+02  0.51100000000E-03 0.  1.
         11   -1    0    0    0    0 -0.00000000000E+00 -0.00000000000E+00 -0.45593999997E+02  0.45594000000E+02  0.51100000000E-03 0. -1.
    9900012    2    1    2    0    0 -0.56205541823E+01  0.42986464188E+02  0.20484484940E+01  0.47787275652E+02  0.20000021010E+02 0.  0.
         12    1    1    2    0    0  0.56205541823E+01 -0.42986464188E+02 -0.20484484940E+01  0.43400724348E+02  0.00000000000E+00 0. -1.
         11    1    3    3    0    0 -0.19321703486E+01  0.12287002396E+02 -0.83505895519E+01  0.14981190081E+02  0.51100000000E-03 0. -1.
        -11    1    3    3    0    0 -0.19169389500E+01  0.50895335096E+01  0.16045364096E+01  0.56703212990E+01  0.51100000000E-03 0.  1.
         12    1    3    3    0    0 -0.17714448837E+01  0.25609928282E+02  0.87945016363E+01  0.27135764272E+02  0.00000000000E+00 0. -1.
</event>
<event>
 7    1  0.2653124E-010  0.4778728E+02  0.7816164E-02  0.1312668E+00
        -11   -1    0    0    0    0  0.00000000000E+00  0.00000000000E+00  0.45593999997E+02  0.45594000000E+02  0.51100000000E-03 0. -1.
         11   -1    0    0    0    0 -0.00000000000E+00 -0.00000000000E+00 -0.45593999997E+02  0.45594000000E+02  0.51100000000E-03 0.  1.
    9900012    2    1    2    0    0 -0.41448860647E+02  0.97271992582E+01 -0.84258910568E+01  0.47787284632E+02  0.20000061951E+02 0.  0.
         12    1    1    2    0    0  0.41448860647E+02 -0.97271992582E+01  0.84258910568E+01  0.43400715368E+02  0.00000000000E+00 0. -1.
         11    1    3    3    0    0 -0.22460722655E+02  0.29960027169E+01 -0.63853067794E+01  0.23542137485E+02  0.51100000000E-03 0. -1.
        -11    1    3    3    0    0 -0.21062576392E+02  0.58761923152E+01 -0.13996039061E+01  0.21911655614E+02  0.51100000000E-03 0.  1.
         12    1    3    3    0    0  0.20744383991E+01  0.85500422613E+00 -0.64098037136E+00  0.23334915330E+01  0.00000000000E+00 0. -1.
</event>
<event>
 7    1  0.2653124E-010  0.4778727E+02  0.7816164E-02  0.1312668E+00
        -11   -1    0    0    0    0  0.00000000000E+00  0.00000000000E+00  0.45593999997E+02  0.45594000000E+02  0.51100000000E-03 0. -1.
         11   -1    0    0    0    0 -0.00000000000E+00 -0.00000000000E+00 -0.45593999997E+02  0.45594000000E+02  0.51100000000E-03 0.  1.
    9900012    2    1    2    0    0 -0.17275663358E+02 -0.34137631849E+02  0.20488936537E+02  0.47787274509E+02  0.20000015798E+02 0.  0.
         12    1    1    2    0    0  0.17275663358E+02  0.34137631849E+02 -0.20488936537E+02  0.43400725491E+02  0.00000000000E+00 0. -1.
         11    1    3    3    0    0 -0.10693595500E+02 -0.30760633952E+02  0.20142288902E+02  0.38292053853E+02  0.51100000000E-03 0. -1.
        -11    1    3    3    0    0 -0.57664334171E+01 -0.38478394573E+01  0.23186770030E+01  0.73098485722E+01  0.51100000000E-03 0.  1.
         12    1    3    3    0    0 -0.81563444120E+00  0.47084156013E+00 -0.19720293683E+01  0.21853720840E+01  0.00000000000E+00 0. -1.
</event>
<event>
 7    1  0.2653124E-010  0.4778728E+02  0.7816164E-02  0.1312668E+00
        -11   -1    0    0    0    0  0.00000000000E+00  0.00000000000E+00  0.45593999997E+02  0.45594000000E+02  0.51100000000E-03 0.  1.
         11   -1    0    0    0    0 -0.00000000000E+00 -0.00000000000E+00 -0.45593999997E+02  0.45594000000E+02  0.51100000000E-03 0. -1.
    9900012    2    1    2    0    0 -0.27312926171E+01  0.35979844872E+02  0.24116661861E+02  0.47787279088E+02  0.20000036675E+02 0.  0.
         12    1    1    2    0    0  0.27312926171E+01 -0.35979844872E+02 -0.24116661861E+02  0.43400720912E+02  0.00000000000E+00 0. -1.
         11    1    3    3    0    0  0.11934694664E+01  0.28107002551E+02  0.23969298874E+02  0.36958831834E+02  0.51100000000E-03 0. -1.
        -11    1    3    3    0    0  0.89544098731E+00 -0.33319535075E+00  0.85909408492E+00  0.12848644331E+01  0.51100000000E-03 0.  1.
         12    1    3    3    0    0 -0.48202030708E+01  0.82060376717E+01 -0.71173109813E+00  0.95435828214E+01  0.00000000000E+00 0. -1.
</event>
<event>
 7    1  0.2653124E-010  0.4778727E+02  0.7816164E-02  0.1312668E+00
        -11   -1    0    0    0    0  0.00000000000E+00  0.00000000000E+00  0.45593999997E+02  0.45594000000E+02  0.51100000000E-03 0.  1.
         11   -1    0    0    0    0 -0.00000000000E+00 -0.00000000000E+00 -0.45593999997E+02  0.45594000000E+02  0.51100000000E-03 0. -1.
    9900012    2    1    2    0    0  0.38566178863E+02  0.19388338153E+02 -0.45128518100E+01  0.47787266828E+02  0.19999980775E+02 0.  0.
         12    1    1    2    0    0 -0.38566178863E+02 -0.19388338153E+02  0.45128518100E+01  0.43400733172E+02  0.00000000000E+00 0. -1.
         11    1    3    3    0    0  0.15105784598E+02  0.54027508131E+01 -0.10920000334E+02  0.19406721831E+02  0.51100000000E-03 0. -1.
        -11    1    3    3    0    0  0.97980437859E+01  0.45672597470E+01  0.70176035658E+00  0.10833004730E+02  0.51100000000E-03 0.  1.
         12    1    3    3    0    0  0.13662350479E+02  0.94183275928E+01  0.57053881676E+01  0.17547540267E+02  0.00000000000E+00 0. -1.
</event>
<event>
 7    1  0.2653124E-010  0.4778727E+02  0.7816164E-02  0.1312668E+00
        -11   -1    0    0    0    0  0.00000000000E+00  0.00000000000E+00  0.45593999997E+02  0.45594000000E+02  0.51100000000E-03 0.  1.
         11   -1    0    0    0    0 -0.00000000000E+00 -0.00000000000E+00 -0.45593999997E+02  0.45594000000E+02  0.51100000000E-03 0. -1.
    9900012    2    1    2    0    0  0.14518918183E+02 -0.12359666206E+02  0.38987982285E+02  0.47787273087E+02  0.20000009312E+02 0.  0.
         12    1    1    2    0    0 -0.14518918183E+02  0.12359666206E+02 -0.38987982285E+02  0.43400726913E+02  0.00000000000E+00 0. -1.
         11    1    3    3    0    0  0.18666474822E+01  0.85815921348E+00  0.46934910549E+01  0.51234430417E+01  0.51100000000E-03 0. -1.
        -11    1    3    3    0    0  0.13315261336E+02 -0.82551410825E+01  0.34243107693E+02  0.37656791731E+02  0.51100000000E-03 0.  1.
         12    1    3    3    0    0 -0.66299063465E+00 -0.49626843370E+01  0.51383537139E-01  0.50070383140E+01  0.00000000000E+00 0. -1.
</event>
<event>
 7    1  0.2653124E-010  0.4778727E+02  0.7816164E-02  0.1312668E+00
        -11   -1    0    0    0    0  0.00000000000E+00  0.00000000000E+00  0.45593999997E+02  0.45594000000E+02  0.51100000000E-03 0.  1.
         11   -1    0    0    0    0 -0.00000000000E+00 -0.00000000000E+00 -0.45593999997E+02  0.45594000000E+02  0.51100000000E-03 0. -1.
    9900012    2    1    2    0    0  0.10438782894E+02 -0.10698833776E+02  0.40745428572E+02  0.47787272103E+02  0.20000004824E+02 0.  0.
         12    1    1    2    0    0 -0.10438782894E+02  0.10698833776E+02 -0.40745428572E+02  0.43400727897E+02  0.00000000000E+00 0. -1.
         11    1    3    3    0    0  0.23845649957E+01 -0.20859691872E+00  0.22650627145E+02  0.22776755107E+02  0.51100000000E-03 0. -1.
        -11    1    3    3    0    0 -0.25445419400E+01 -0.34235918336E+00  0.31892184414E+01  0.40942664816E+01  0.51100000000E-03 0.  1.
         12    1    3    3    0    0  0.10598759838E+02 -0.10147877674E+02  0.14905582986E+02  0.20916250514E+02  0.00000000000E+00 0. -1.
</event>
<event>
 7    1  0.2653124E-010  0.4778727E+02  0.7816164E-02  0.1312668E+00
        -11   -1    0    0    0    0  0.00000000000E+00  0.00000000000E+00  0.45593999997E+02  0.45594000000E+02  0.51100000000E-03 0.  1.
         11   -1    0    0    0    0 -0.00000000000E+00 -0.00000000000E+00 -0.45593999997E+02  0.45594000000E+02  0.51100000000E-03 0. -1.
    9900012    2    1    2    0    0  0.12470568939E+02 -0.20082241716E+00  0.41570034810E+02  0.47787271741E+02  0.20000003175E+02 0.  0.
         12    1    1    2    0    0 -0.12470568939E+02  0.20082241716E+00 -0.41570034810E+02  0.43400728259E+02  0.00000000000E+00 0. -1.
         11    1    3    3    0    0  0.70677323478E+01 -0.40816119092E+01  0.23400439129E+02  0.24782916454E+02  0.51100000000E-03 0. -1.
        -11    1    3    3    0    0  0.56611812579E+01 -0.29522500333E+01  0.12821956980E+02  0.14323663448E+02  0.51100000000E-03 0.  1.
         12    1    3    3    0    0 -0.25834466678E+00  0.68330395253E+01  0.53476387014E+01  0.86806918389E+01  0.00000000000E+00 0. -1.
</event>
<event>
 7    1  0.2653124E-010  0.4778727E+02  0.7816164E-02  0.1312668E+00
        -11   -1    0    0    0    0  0.00000000000E+00  0.00000000000E+00  0.45593999997E+02  0.45594000000E+02  0.51100000000E-03 0.  1.
         11   -1    0    0    0    0 -0.00000000000E+00 -0.00000000000E+00 -0.45593999997E+02  0.45594000000E+02  0.51100000000E-03 0. -1.
    9900012    2    1    2    0    0  0.23836364562E+02 -0.33132001111E+02  0.14755391479E+02  0.47787270157E+02  0.19999995955E+02 0.  0.
         12    1    1    2    0    0 -0.23836364562E+02  0.33132001111E+02 -0.14755391479E+02  0.43400729843E+02  0.00000000000E+00 0. -1.
         11    1    3    3    0    0  0.14259110172E+02 -0.17032171265E+02  0.87420891788E+01  0.23871346932E+02  0.51100000000E-03 0. -1.
        -11    1    3    3    0    0  0.13004413261E+02 -0.13447982981E+02  0.57651677530E+01  0.19575499227E+02  0.51100000000E-03 0.  1.
         12    1    3    3    0    0 -0.34271588710E+01 -0.26518468654E+01  0.24813454758E+00  0.43404239976E+01  0.00000000000E+00 0. -1.
</event>
<event>
 7    1  0.2653124E-010  0.4778727E+02  0.7816164E-02  0.1312668E+00
        -11   -1    0    0    0    0  0.00000000000E+00  0.00000000000E+00  0.45593999997E+02  0.45594000000E+02  0.51100000000E-03 0. -1.
         11   -1    0    0    0    0 -0.00000000000E+00 -0.00000000000E+00 -0.45593999997E+02  0.45594000000E+02  0.51100000000E-03 0.  1.
    9900012    2    1    2    0    0  0.34579613256E+02  0.81149250694E+01 -0.24940363329E+02  0.47787269766E+02  0.19999994172E+02 0.  0.
         12    1    1    2    0    0 -0.34579613256E+02 -0.81149250694E+01  0.24940363329E+02  0.43400730234E+02  0.00000000000E+00 0. -1.
         11    1    3    3    0    0  0.32554665339E+01  0.33956900126E+01 -0.14250785831E+01  0.49152438642E+01  0.51100000000E-03 0. -1.
        -11    1    3    3    0    0  0.27075698876E+02  0.72265382268E+01 -0.12269428320E+02  0.30591750455E+02  0.51100000000E-03 0.  1.
         12    1    3    3    0    0  0.42484478469E+01 -0.25073031700E+01 -0.11245856426E+02  0.12280275447E+02  0.00000000000E+00 0. -1.
</event>
<event>
 7    1  0.2653124E-010  0.4778727E+02  0.7816164E-02  0.1312668E+00
        -11   -1    0    0    0    0  0.00000000000E+00  0.00000000000E+00  0.45593999997E+02  0.45594000000E+02  0.51100000000E-03 0. -1.
         11   -1    0    0    0    0 -0.00000000000E+00 -0.00000000000E+00 -0.45593999997E+02  0.45594000000E+02  0.51100000000E-03 0.  1.
    9900012    2    1    2    0    0  0.54163748418E+01  0.31468501631E+02  0.29394206962E+02  0.47787272883E+02  0.20000008385E+02 0.  0.
         12    1    1    2    0    0 -0.54163748418E+01 -0.31468501631E+02 -0.29394206962E+02  0.43400727117E+02  0.00000000000E+00 0. -1.
         11    1    3    3    0    0  0.67520700692E+00  0.26408742443E+01  0.63247738961E+01  0.68871537208E+01  0.51100000000E-03 0. -1.
        -11    1    3    3    0    0 -0.17129990269E+00  0.39201498801E+01 -0.26708378439E+01  0.47466086618E+01  0.51100000000E-03 0.  1.
        -12    1    3    3    0    0  0.49124677376E+01  0.24907477506E+02  0.25740270910E+02  0.36153510501E+02  0.00000000000E+00 0.  1.
</event>
<event>
 7    1  0.2653124E-010  0.4778727E+02  0.7816164E-02  0.1312668E+00
        -11   -1    0    0    0    0  0.00000000000E+00  0.00000000000E+00  0.45593999997E+02  0.45594000000E+02  0.51100000000E-03 0.  1.
         11   -1    0    0    0    0 -0.00000000000E+00 -0.00000000000E+00 -0.45593999997E+02  0.45594000000E+02  0.51100000000E-03 0. -1.
    9900012    2    1    2    0    0 -0.91766686698E+01  0.31042093489E+02  0.28910208582E+02  0.47787274473E+02  0.20000015631E+02 0.  0.
         12    1    1    2    0    0  0.91766686698E+01 -0.31042093489E+02 -0.28910208582E+02  0.43400725527E+02  0.00000000000E+00 0. -1.
         11    1    3    3    0    0 -0.17366074961E+01  0.11022316002E+02  0.16097113561E+02  0.19586329950E+02  0.51100000000E-03 0. -1.
        -11    1    3    3    0    0 -0.23004990210E+01 -0.10727050632E+01  0.40705025437E+01  0.47970806870E+01  0.51100000000E-03 0.  1.
         12    1    3    3    0    0 -0.51395621526E+01  0.21092482550E+02  0.87425924774E+01  0.23403863836E+02  0.00000000000E+00 0. -1.
</event>
<event>
 7    1  0.2653124E-010  0.4778727E+02  0.7816164E-02  0.1312668E+00
        -11   -1    0    0    0    0  0.00000000000E+00  0.00000000000E+00  0.45593999997E+02  0.45594000000E+02  0.51100000000E-03 0.  1.
         11   -1    0    0    0    0 -0.00000000000E+00 -0.00000000000E+00 -0.45593999997E+02  0.45594000000E+02  0.51100000000E-03 0. -1.
    9900012    2    1    2    0    0  0.28196857730E+02 -0.27352523697E+02 -0.18449933745E+02  0.47787269665E+02  0.19999993709E+02 0.  0.
         12    1    1    2    0    0 -0.28196857730E+02  0.27352523697E+02  0.18449933745E+02  0.43400730335E+02  0.00000000000E+00 0. -1.
         11    1    3    3    0    0  0.18012868916E+01  0.58422010566E+00  0.77384996560E+00  0.20456763254E+01  0.51100000000E-03 0. -1.
        -11    1    3    3    0    0  0.96120423327E+01 -0.94031610106E+00 -0.34569275014E+01  0.10257967644E+02  0.51100000000E-03 0.  1.
         12    1    3    3    0    0  0.16783528505E+02 -0.26996427702E+02 -0.15766856209E+02  0.35483625695E+02  0.00000000000E+00 0. -1.
</event>
<event>
 7    1  0.2653124E-010  0.4778727E+02  0.7816164E-02  0.1312668E+00
        -11   -1    0    0    0    0  0.00000000000E+00  0.00000000000E+00  0.45593999997E+02  0.45594000000E+02  0.51100000000E-03 0. -1.
         11   -1    0    0    0    0 -0.00000000000E+00 -0.00000000000E+00 -0.45593999997E+02  0.45594000000E+02  0.51100000000E-03 0.  1.
    9900012    2    1    2    0    0 -0.35371752445E+02  0.24273266595E+02 -0.65780580106E+01  0.47787272018E+02  0.20000004439E+02 0.  0.
         12    1    1    2    0    0  0.35371752445E+02 -0.24273266595E+02  0.65780580106E+01  0.43400727982E+02  0.00000000000E+00 0. -1.
         11    1    3    3    0    0 -0.17425804248E+02  0.17361752170E+02 -0.33560941121E+01  0.24826446787E+02  0.51100000000E-03 0.  1.
        -11    1    3    3    0    0 -0.89161309057E+01  0.93185655936E+01  0.48790528610E+00  0.12906242942E+02  0.51100000000E-03 0. -1.
         12    1    3    3    0    0 -0.90298172909E+01 -0.24070511692E+01 -0.37098691846E+01  0.10054582289E+02  0.00000000000E+00 0. -1.
</event>
<event>
 7    1  0.2653124E-010  0.4778727E+02  0.7816164E-02  0.1312668E+00
        -11   -1    0    0    0    0  0.00000000000E+00  0.00000000000E+00  0.45593999997E+02  0.45594000000E+02  0.51100000000E-03 0.  1.
         11   -1    0    0    0    0 -0.00000000000E+00 -0.00000000000E+00 -0.45593999997E+02  0.45594000000E+02  0.51100000000E-03 0. -1.
    9900012    2    1    2    0    0 -0.76009131375E+01  0.89025363658E+01  0.41792273765E+02  0.47787272117E+02  0.20000004892E+02 0.  0.
         12    1    1    2    0    0  0.76009131375E+01 -0.89025363658E+01 -0.41792273765E+02  0.43400727883E+02  0.00000000000E+00 0. -1.
         11    1    3    3    0    0 -0.20090309745E+01  0.11079279109E+02  0.17999644614E+02  0.21231435127E+02  0.51100000000E-03 0. -1.
        -11    1    3    3    0    0 -0.47577074652E+01  0.13517625533E+01  0.21927646524E+02  0.22478539203E+02  0.51100000000E-03 0.  1.
        -12    1    3    3    0    0 -0.83417469785E+00 -0.35285052967E+01  0.18649826269E+01  0.40772977882E+01  0.00000000000E+00 0.  1.
</event>
<event>
 7    1  0.2653124E-010  0.4778727E+02  0.7816164E-02  0.1312668E+00
        -11   -1    0    0    0    0  0.00000000000E+00  0.00000000000E+00  0.45593999997E+02  0.45594000000E+02  0.51100000000E-03 0. -1.
         11   -1    0    0    0    0 -0.00000000000E+00 -0.00000000000E+00 -0.45593999997E+02  0.45594000000E+02  0.51100000000E-03 0.  1.
    9900012    2    1    2    0    0 -0.25095246233E+02 -0.29428790663E+02 -0.19692591342E+02  0.47787271237E+02  0.20000000879E+02 0.  0.
         12    1    1    2    0    0  0.25095246233E+02  0.29428790663E+02  0.19692591342E+02  0.43400728763E+02  0.00000000000E+00 0. -1.
         11    1    3    3    0    0 -0.18373671876E+01 -0.72386836651E+01 -0.29223394194E+01  0.80196338649E+01  0.51100000000E-03 0. -1.
        -11    1    3    3    0    0 -0.67264808226E+01 -0.44169621136E+01 -0.12876889869E+02  0.15184511567E+02  0.51100000000E-03 0.  1.
         12    1    3    3    0    0 -0.16531398223E+02 -0.17773144884E+02 -0.38933620537E+01  0.24583125805E+02  0.00000000000E+00 0. -1.
</event>
<event>
 7    1  0.2653124E-010  0.4778727E+02  0.7816164E-02  0.1312668E+00
        -11   -1    0    0    0    0  0.00000000000E+00  0.00000000000E+00  0.45593999997E+02  0.45594000000E+02  0.51100000000E-03 0.  1.
         11   -1    0    0    0    0 -0.00000000000E+00 -0.00000000000E+00 -0.45593999997E+02  0.45594000000E+02  0.51100000000E-03 0. -1.
    9900012    2    1    2    0    0 -0.23863624974E+02  0.32697945822E+02  0.15652317495E+02  0.47787270733E+02  0.19999998582E+02 0.  0.
         12    1    1    2    0    0  0.23863624974E+02 -0.32697945822E+02 -0.15652317495E+02  0.43400729267E+02  0.00000000000E+00 0. -1.
         11    1    3    3    0    0 -0.12849499265E+02  0.69748290750E+01  0.60083922324E+01  0.15806917773E+02  0.51100000000E-03 0. -1.
        -11    1    3    3    0    0  0.73312183619E+00 -0.15916935394E+00  0.25875774039E+01  0.26941342937E+01  0.51100000000E-03 0.  1.
        -12    1    3    3    0    0 -0.11747247544E+02  0.25882286101E+02  0.70563478592E+01  0.29286218667E+02  0.00000000000E+00 0.  1.
</event>
<event>
 7    1  0.2653124E-010  0.4778728E+02  0.7816164E-02  0.1312668E+00
        -11   -1    0    0    0    0  0.00000000000E+00  0.00000000000E+00  0.45593999997E+02  0.45594000000E+02  0.51100000000E-03 0.  1.
         11   -1    0    0    0    0 -0.00000000000E+00 -0.00000000000E+00 -0.45593999997E+02  0.45594000000E+02  0.51100000000E-03 0. -1.
    9900012    2    1    2    0    0 -0.17276214859E+02 -0.34428662019E+02  0.19995561418E+02  0.47787275989E+02  0.20000022543E+02 0.  0.
         12    1    1    2    0    0  0.17276214859E+02  0.34428662019E+02 -0.19995561418E+02  0.43400724011E+02  0.00000000000E+00 0. -1.
         11    1    3    3    0    0 -0.10011958762E+02 -0.27947829642E+02  0.14886133497E+02  0.33210201305E+02  0.51100000000E-03 0.  1.
        -11    1    3    3    0    0  0.20538834092E+01 -0.27106132373E+01  0.24123046040E+01  0.41695413350E+01  0.51100000000E-03 0. -1.
         12    1    3    3    0    0 -0.93181395059E+01 -0.37702191396E+01  0.26971233167E+01  0.10407533348E+02  0.00000000000E+00 0. -1.
</event>
<event>
 7    1  0.2653124E-010  0.4778727E+02  0.7816164E-02  0.1312668E+00
        -11   -1    0    0    0    0  0.00000000000E+00  0.00000000000E+00  0.45593999997E+02  0.45594000000E+02  0.51100000000E-03 0.  1.
         11   -1    0    0    0    0 -0.00000000000E+00 -0.00000000000E+00 -0.45593999997E+02  0.45594000000E+02  0.51100000000E-03 0. -1.
    9900012    2    1    2    0    0 -0.16997928410E+02 -0.34593227018E+02  0.19949993831E+02  0.47787272130E+02  0.20000004952E+02 0.  0.
         12    1    1    2    0    0  0.16997928410E+02  0.34593227018E+02 -0.19949993831E+02  0.43400727870E+02  0.00000000000E+00 0. -1.
         11    1    3    3    0    0  0.85181111615E+00 -0.48084665946E+00  0.25086770707E+01  0.26926300514E+01  0.51100000000E-03 0. -1.
        -11    1    3    3    0    0 -0.63071435335E+01 -0.35508486816E+01  0.86203804285E+01  0.11256089237E+02  0.51100000000E-03 0.  1.
         12    1    3    3    0    0 -0.11542595993E+02 -0.30561531677E+02  0.88209363313E+01  0.33838552842E+02  0.00000000000E+00 0. -1.
</event>
<event>
 7    1  0.2653124E-010  0.4778727E+02  0.7816164E-02  0.1312668E+00
        -11   -1    0    0    0    0  0.00000000000E+00  0.00000000000E+00  0.45593999997E+02  0.45594000000E+02  0.51100000000E-03 0.  1.
         11   -1    0    0    0    0 -0.00000000000E+00 -0.00000000000E+00 -0.45593999997E+02  0.45594000000E+02  0.51100000000E-03 0. -1.
    9900012    2    1    2    0    0 -0.55631946839E+01  0.33820378760E+02  0.26624347179E+02  0.47787274001E+02  0.20000013480E+02 0.  0.
         12    1    1    2    0    0  0.55631946839E+01 -0.33820378760E+02 -0.26624347179E+02  0.43400725999E+02  0.00000000000E+00 0. -1.
         11    1    3    3    0    0 -0.24116282439E+01 -0.87256817478E+00  0.27898264801E+01  0.37895195021E+01  0.51100000000E-03 0. -1.
        -11    1    3    3    0    0 -0.51746423363E+01  0.49183581439E+01  0.45309432709E+01  0.84555672385E+01  0.51100000000E-03 0.  1.
         12    1    3    3    0    0  0.20230758963E+01  0.29774588791E+02  0.19303577428E+02  0.35542187260E+02  0.00000000000E+00 0. -1.
</event>
<event>
 7    1  0.2653124E-010  0.4778726E+02  0.7816164E-02  0.1312668E+00
        -11   -1    0    0    0    0  0.00000000000E+00  0.00000000000E+00  0.45593999997E+02  0.45594000000E+02  0.51100000000E-03 0. -1.
         11   -1    0    0    0    0 -0.00000000000E+00 -0.00000000000E+00 -0.45593999997E+02  0.45594000000E+02  0.51100000000E-03 0.  1.
    9900012    2    1    2    0    0 -0.23875857085E+01 -0.21419024106E+02 -0.37671597354E+02  0.47787257998E+02  0.19999940515E+02 0.  0.
         12    1    1    2    0    0  0.23875857085E+01  0.21419024106E+02  0.37671597354E+02  0.43400742002E+02  0.00000000000E+00 0. -1.
         11    1    3    3    0    0  0.30378023129E+01 -0.45754120607E+01 -0.62817623089E+01  0.83440503584E+01  0.51100000000E-03 0. -1.
        -11    1    3    3    0    0 -0.33413079760E+01 -0.19896035389E+02 -0.26993871239E+02  0.33699935429E+02  0.51100000000E-03 0.  1.
         12    1    3    3    0    0 -0.20840800453E+01  0.30524233435E+01 -0.43959638060E+01  0.57432722108E+01  0.00000000000E+00 0. -1.
</event>
<event>
 7    1  0.2653124E-010  0.4778727E+02  0.7816164E-02  0.1312668E+00
        -11   -1    0    0    0    0  0.00000000000E+00  0.00000000000E+00  0.45593999997E+02  0.45594000000E+02  0.51100000000E-03 0. -1.
         11   -1    0    0    0    0 -0.00000000000E+00 -0.00000000000E+00 -0.45593999997E+02  0.45594000000E+02  0.51100000000E-03 0.  1.
    9900012    2    1    2    0    0  0.31103637067E+02 -0.21048034709E+02 -0.21752407992E+02  0.47787271235E+02  0.20000000868E+02 0.  0.
         12    1    1    2    0    0 -0.31103637067E+02  0.21048034709E+02  0.21752407992E+02  0.43400728765E+02  0.00000000000E+00 0. -1.
         11    1    3    3    0    0  0.13725480990E+01 -0.89113022640E+01 -0.45112479667E+01  0.10081991609E+02  0.51100000000E-03 0. -1.
        -11    1    3    3    0    0  0.20566718842E+02 -0.11905780603E+02 -0.91067931283E+01  0.25449385396E+02  0.51100000000E-03 0.  1.
        -12    1    3    3    0    0  0.91643701259E+01 -0.23095184242E+00 -0.81343668974E+01  0.12255894230E+02  0.00000000000E+00 0.  1.
</event>
<event>
 7    1  0.2653124E-010  0.4778727E+02  0.7816164E-02  0.1312668E+00
        -11   -1    0    0    0    0  0.00000000000E+00  0.00000000000E+00  0.45593999997E+02  0.45594000000E+02  0.51100000000E-03 0.  1.
         11   -1    0    0    0    0 -0.00000000000E+00 -0.00000000000E+00 -0.45593999997E+02  0.45594000000E+02  0.51100000000E-03 0. -1.
    9900012    2    1    2    0    0 -0.90928180941E+01 -0.42053166581E+02  0.56986961797E+01  0.47787270761E+02  0.19999998706E+02 0.  0.
         12    1    1    2    0    0  0.90928180941E+01  0.42053166581E+02 -0.56986961797E+01  0.43400729239E+02  0.00000000000E+00 0. -1.
         11    1    3    3    0    0 -0.56215391823E+00 -0.64092126680E+01  0.59291184977E+01  0.87491982760E+01  0.51100000000E-03 0. -1.
        -11    1    3    3    0    0 -0.43135170280E+01 -0.14452178810E+01  0.46825352401E+00  0.45732204734E+01  0.51100000000E-03 0.  1.
         12    1    3    3    0    0 -0.42171471478E+01 -0.34198736032E+02 -0.69867584198E+00  0.34464852011E+02  0.00000000000E+00 0. -1.
</event>
<event>
 7    1  0.2653124E-010  0.4778727E+02  0.7816164E-02  0.1312668E+00
        -11   -1    0    0    0    0  0.00000000000E+00  0.00000000000E+00  0.45593999997E+02  0.45594000000E+02  0.51100000000E-03 0.  1.
         11   -1    0    0    0    0 -0.00000000000E+00 -0.00000000000E+00 -0.45593999997E+02  0.45594000000E+02  0.51100000000E-03 0. -1.
    9900012    2    1    2    0    0 -0.42142980434E+02 -0.70672959356E+01  0.75924781352E+01  0.47787271942E+02  0.20000004092E+02 0.  0.
         12    1    1    2    0    0  0.42142980434E+02  0.70672959356E+01 -0.75924781352E+01  0.43400728058E+02  0.00000000000E+00 0. -1.
         11    1    3    3    0    0 -0.11799079154E+02 -0.23317347949E+01  0.79835989445E+01  0.14435827250E+02  0.51100000000E-03 0. -1.
        -11    1    3    3    0    0 -0.14615820632E+00 -0.28881540023E+01 -0.10865930448E+01  0.30892524126E+01  0.51100000000E-03 0.  1.
        -12    1    3    3    0    0 -0.30197743074E+02 -0.18474071384E+01  0.69547223549E+00  0.30262192279E+02  0.00000000000E+00 0.  1.
</event>
<event>
 7    1  0.2653124E-010  0.4778727E+02  0.7816164E-02  0.1312668E+00
        -11   -1    0    0    0    0  0.00000000000E+00  0.00000000000E+00  0.45593999997E+02  0.45594000000E+02  0.51100000000E-03 0.  1.
         11   -1    0    0    0    0 -0.00000000000E+00 -0.00000000000E+00 -0.45593999997E+02  0.45594000000E+02  0.51100000000E-03 0. -1.
    9900012    2    1    2    0    0 -0.74966269336E+01  0.38074372295E+02 -0.19436201372E+02  0.47787272301E+02  0.20000005730E+02 0.  0.
         12    1    1    2    0    0  0.74966269336E+01 -0.38074372295E+02  0.19436201372E+02  0.43400727699E+02  0.00000000000E+00 0. -1.
         11    1    3    3    0    0 -0.11558732063E+02  0.34009504824E+02 -0.19074150990E+02  0.40670307861E+02  0.51100000000E-03 0.  1.
        -11    1    3    3    0    0  0.16234503900E+01 -0.67897767781E+00  0.10330113784E+00  0.17627459380E+01  0.51100000000E-03 0. -1.
        -12    1    3    3    0    0  0.24386547392E+01  0.47438451484E+01 -0.46535152040E+00  0.53542185020E+01  0.00000000000E+00 0.  1.
</event>
<event>
 7    1  0.2653124E-010  0.4778727E+02  0.7816164E-02  0.1312668E+00
        -11   -1    0    0    0    0  0.00000000000E+00  0.00000000000E+00  0.45593999997E+02  0.45594000000E+02  0.51100000000E-03 0.  1.
         11   -1    0    0    0    0 -0.00000000000E+00 -0.00000000000E+00 -0.45593999997E+02  0.45594000000E+02  0.51100000000E-03 0. -1.
    9900012    2    1    2    0    0 -0.39075651420E+02  0.12052284039E+01  0.18848448766E+02  0.47787272699E+02  0.20000007543E+02 0.  0.
         12    1    1    2    0    0  0.39075651420E+02 -0.12052284039E+01 -0.18848448766E+02  0.43400727301E+02  0.00000000000E+00 0. -1.
         11    1    3    3    0    0 -0.16669101840E+02  0.56225111391E+01  0.69705155799E+01  0.18922464833E+02  0.51100000000E-03 0. -1.
        -11    1    3    3    0    0 -0.69475914969E+01 -0.72625469268E+00 -0.25134191344E+01  0.74238635152E+01  0.51100000000E-03 0.  1.
         12    1    3    3    0    0 -0.15458958083E+02 -0.36910280425E+01  0.14391352321E+02  0.21440944350E+02  0.00000000000E+00 0. -1.
</event>
<event>
 7    1  0.2653124E-010  0.4778727E+02  0.7816164E-02  0.1312668E+00
        -11   -1    0    0    0    0  0.00000000000E+00  0.00000000000E+00  0.45593999997E+02  0.45594000000E+02  0.51100000000E-03 0.  1.
         11   -1    0    0    0    0 -0.00000000000E+00 -0.00000000000E+00 -0.45593999997E+02  0.45594000000E+02  0.51100000000E-03 0. -1.
    9900012    2    1    2    0    0 -0.32056934917E+02  0.28287830008E+01  0.29119993421E+02  0.47787272974E+02  0.20000008797E+02 0.  0.
         12    1    1    2    0    0  0.32056934917E+02 -0.28287830008E+01 -0.29119993421E+02  0.43400727026E+02  0.00000000000E+00 0. -1.
         11    1    3    3    0    0  0.15609673218E+01  0.84789290939E-01  0.14711967946E+01  0.21466784746E+01  0.51100000000E-03 0. -1.
        -11    1    3    3    0    0 -0.15541879478E+02  0.74179541729E+01  0.16740103124E+02  0.24016809003E+02  0.51100000000E-03 0.  1.
        -12    1    3    3    0    0 -0.18076022761E+02 -0.46739604630E+01  0.10908693503E+02  0.21623785496E+02  0.00000000000E+00 0.  1.
</event>
<event>
 7    1  0.3348083E-010  0.4778727E+02  0.7816164E-02  0.1312668E+00
        -11   -1    0    0    0    0  0.00000000000E+00  0.00000000000E+00  0.45593999997E+02  0.45594000000E+02  0.51100000000E-03 0. -1.
         11   -1    0    0    0    0 -0.00000000000E+00 -0.00000000000E+00 -0.45593999997E+02  0.45594000000E+02  0.51100000000E-03 0.  1.
    9900012    2    1    2    0    0  0.44761086068E+01  0.24127227566E+02 -0.35797553367E+02  0.47787268608E+02  0.19999988893E+02 0.  0.
         12    1    1    2    0    0 -0.44761086068E+01 -0.24127227566E+02  0.35797553367E+02  0.43400731392E+02  0.00000000000E+00 0. -1.
         11    1    3    3    0    0 -0.55750359360E+01  0.65425358229E+01 -0.95438642298E+01  0.12844109365E+02  0.51100000000E-03 0. -1.
        -11    1    3    3    0    0  0.30717432801E+01  0.15461369221E+02 -0.17774076010E+02  0.23757258327E+02  0.51100000000E-03 0.  1.
         12    1    3    3    0    0  0.69794012628E+01  0.21233225226E+01 -0.84796131273E+01  0.11185900916E+02  0.00000000000E+00 0. -1.
</event>
<event>
 7    1  0.2653124E-010  0.4778725E+02  0.7816164E-02  0.1312668E+00
        -11   -1    0    0    0    0  0.00000000000E+00  0.00000000000E+00  0.45593999997E+02  0.45594000000E+02  0.51100000000E-03 0.  1.
         11   -1    0    0    0    0 -0.00000000000E+00 -0.00000000000E+00 -0.45593999997E+02  0.45594000000E+02  0.51100000000E-03 0. -1.
    9900012    2    1    2    0    0 -0.10217660138E+02  0.40665064775E+02  0.11206100473E+02  0.47787253928E+02  0.19999921958E+02 0.  0.
         12    1    1    2    0    0  0.10217660138E+02 -0.40665064775E+02 -0.11206100473E+02  0.43400746072E+02  0.00000000000E+00 0. -1.
         11    1    3    3    0    0 -0.11029722413E+02  0.12906388221E+02  0.78319885018E+01  0.18696782546E+02  0.51100000000E-03 0. -1.
        -11    1    3    3    0    0 -0.34215000674E+01  0.85231558769E+01  0.65242129625E+00  0.92074156321E+01  0.51100000000E-03 0.  1.
        -12    1    3    3    0    0  0.42335623430E+01  0.19235520676E+02  0.27216906751E+01  0.19883055749E+02  0.00000000000E+00 0.  1.
</event>
<event>
 7    1  0.2653124E-010  0.4778727E+02  0.7816164E-02  0.1312668E+00
        -11   -1    0    0    0    0  0.00000000000E+00  0.00000000000E+00  0.45593999997E+02  0.45594000000E+02  0.51100000000E-03 0. -1.
         11   -1    0    0    0    0 -0.00000000000E+00 -0.00000000000E+00 -0.45593999997E+02  0.45594000000E+02  0.51100000000E-03 0.  1.
    9900012    2    1    2    0    0  0.68991462560E+01  0.51975268824E+01 -0.42532468396E+02  0.47787269907E+02  0.19999994814E+02 0.  0.
         12    1    1    2    0    0 -0.68991462560E+01 -0.51975268824E+01  0.42532468396E+02  0.43400730093E+02  0.00000000000E+00 0. -1.
         11    1    3    3    0    0  0.34688152095E+01  0.24764064373E+01 -0.14158317609E+02  0.14785913079E+02  0.51100000000E-03 0. -1.
        -11    1    3    3    0    0  0.88878487556E+01 -0.59333958559E+00 -0.92598098377E+01  0.12848734796E+02  0.51100000000E-03 0.  1.
         12    1    3    3    0    0 -0.54575177090E+01  0.33144600307E+01 -0.19114340950E+02  0.20152622032E+02  0.00000000000E+00 0. -1.
</event>
<event>
 7    1  0.2653124E-010  0.4778727E+02  0.7816164E-02  0.1312668E+00
        -11   -1    0    0    0    0  0.00000000000E+00  0.00000000000E+00  0.45593999997E+02  0.45594000000E+02  0.51100000000E-03 0. -1.
         11   -1    0    0    0    0 -0.00000000000E+00 -0.00000000000E+00 -0.45593999997E+02  0.45594000000E+02  0.51100000000E-03 0.  1.
    9900012    2    1    2    0    0  0.19885053185E+01 -0.43066326840E+02 -0.49960598034E+01  0.47787271038E+02  0.19999999971E+02 0.  0.
         12    1    1    2    0    0 -0.19885053185E+01  0.43066326840E+02  0.49960598034E+01  0.43400728962E+02  0.00000000000E+00 0. -1.
         11    1    3    3    0    0  0.60373658613E+01 -0.23379614143E+02 -0.73700540707E+01  0.25246263908E+02  0.51100000000E-03 0. -1.
        -11    1    3    3    0    0  0.12919433363E+01 -0.15195660404E+02  0.29718778452E+01  0.15537350832E+02  0.51100000000E-03 0.  1.
         12    1    3    3    0    0 -0.53408038791E+01 -0.44910522925E+01 -0.59788357785E+00  0.70036562981E+01  0.00000000000E+00 0. -1.
</event>
<event>
 7    1  0.2653124E-010  0.4778728E+02  0.7816164E-02  0.1312668E+00
        -11   -1    0    0    0    0  0.00000000000E+00  0.00000000000E+00  0.45593999997E+02  0.45594000000E+02  0.51100000000E-03 0.  1.
         11   -1    0    0    0    0 -0.00000000000E+00 -0.00000000000E+00 -0.45593999997E+02  0.45594000000E+02  0.51100000000E-03 0. -1.
    9900012    2    1    2    0    0 -0.17349675456E+01  0.17326208009E+02  0.39754435893E+02  0.47787276855E+02  0.20000026492E+02 0.  0.
         12    1    1    2    0    0  0.17349675456E+01 -0.17326208009E+02 -0.39754435893E+02  0.43400723145E+02  0.00000000000E+00 0. -1.
         11    1    3    3    0    0 -0.14888680902E+01 -0.78124336522E+00  0.42971177778E+01  0.46143570346E+01  0.51100000000E-03 0. -1.
        -11    1    3    3    0    0 -0.38696263813E+01  0.78446484049E+01  0.35144203114E+01  0.94267527449E+01  0.51100000000E-03 0.  1.
         12    1    3    3    0    0  0.36235269258E+01  0.10262802969E+02  0.31942897804E+02  0.33746167075E+02  0.00000000000E+00 0. -1.
</event>
<event>
 7    1  0.2653124E-010  0.4778727E+02  0.7816164E-02  0.1312668E+00
        -11   -1    0    0    0    0  0.00000000000E+00  0.00000000000E+00  0.45593999997E+02  0.45594000000E+02  0.51100000000E-03 0.  1.
         11   -1    0    0    0    0 -0.00000000000E+00 -0.00000000000E+00 -0.45593999997E+02  0.45594000000E+02  0.51100000000E-03 0. -1.
    9900012    2    1    2    0    0 -0.55159703500E+01  0.22283363887E+02  0.36832714528E+02  0.47787273111E+02  0.20000009421E+02 0.  0.
         12    1    1    2    0    0  0.55159703500E+01 -0.22283363887E+02 -0.36832714528E+02  0.43400726889E+02  0.00000000000E+00 0. -1.
         11    1    3    3    0    0  0.37295212876E+01  0.36613677535E+01  0.10776832903E+02  0.11977273085E+02  0.51100000000E-03 0. -1.
        -11    1    3    3    0    0 -0.17192584078E+01  0.16658391512E+02  0.18728882321E+02  0.25124268954E+02  0.51100000000E-03 0.  1.
        -12    1    3    3    0    0 -0.75262332298E+01  0.19636046215E+01  0.73269993035E+01  0.10685731071E+02  0.00000000000E+00 0.  1.
</event>
<event>
 7    1  0.2653124E-010  0.4778727E+02  0.7816164E-02  0.1312668E+00
        -11   -1    0    0    0    0  0.00000000000E+00  0.00000000000E+00  0.45593999997E+02  0.45594000000E+02  0.51100000000E-03 0.  1.
         11   -1    0    0    0    0 -0.00000000000E+00 -0.00000000000E+00 -0.45593999997E+02  0.45594000000E+02  0.51100000000E-03 0. -1.
    9900012    2    1    2    0    0 -0.16929413863E+02  0.30430361671E+01  0.39846687185E+02  0.47787267259E+02  0.19999982741E+02 0.  0.
         12    1    1    2    0    0  0.16929413863E+02 -0.30430361671E+01 -0.39846687185E+02  0.43400732741E+02  0.00000000000E+00 0. -1.
         11    1    3    3    0    0 -0.10072545835E+01  0.52534313681E+01  0.11193900357E+02  0.12406309218E+02  0.51100000000E-03 0. -1.
        -11    1    3    3    0    0  0.13738778044E+01 -0.30950610171E+01  0.38106949929E+01  0.50978759804E+01  0.51100000000E-03 0.  1.
        -12    1    3    3    0    0 -0.17296037084E+02  0.88466581611E+00  0.24842091834E+02  0.30283082061E+02  0.00000000000E+00 0.  1.
</event>
<event>
 7    1  0.2653124E-010  0.4778727E+02  0.7816164E-02  0.1312668E+00
        -11   -1    0    0    0    0  0.00000000000E+00  0.00000000000E+00  0.45593999997E+02  0.45594000000E+02  0.51100000000E-03 0.  1.
         11   -1    0    0    0    0 -0.00000000000E+00 -0.00000000000E+00 -0.45593999997E+02  0.45594000000E+02  0.51100000000E-03 0. -1.
    9900012    2    1    2    0    0  0.21018012692E+02  0.76837365537E+01  0.37186374602E+02  0.47787272806E+02  0.20000008030E+02 0.  0.
         12    1    1    2    0    0 -0.21018012692E+02 -0.76837365537E+01 -0.37186374602E+02  0.43400727194E+02  0.00000000000E+00 0. -1.
         11    1    3    3    0    0  0.25094091423E+01 -0.12059846166E+01  0.62176167015E+01  0.68125098787E+01  0.51100000000E-03 0. -1.
        -11    1    3    3    0    0  0.35133141372E+01 -0.28332639277E+01 -0.12805248485E+00  0.45152141046E+01  0.51100000000E-03 0.  1.
        -12    1    3    3    0    0  0.14995289413E+02  0.11722985098E+02  0.31096810386E+02  0.36459548822E+02  0.00000000000E+00 0.  1.
</event>
<event>
 7    1  0.2653124E-010  0.4778728E+02  0.7816164E-02  0.1312668E+00
        -11   -1    0    0    0    0  0.00000000000E+00  0.00000000000E+00  0.45593999997E+02  0.45594000000E+02  0.51100000000E-03 0.  1.
         11   -1    0    0    0    0 -0.00000000000E+00 -0.00000000000E+00 -0.45593999997E+02  0.45594000000E+02  0.51100000000E-03 0. -1.
    9900012    2    1    2    0    0 -0.18152010736E+00  0.59532737322E+01  0.42990088533E+02  0.47787284225E+02  0.20000060097E+02 0.  0.
         12    1    1    2    0    0  0.18152010736E+00 -0.59532737322E+01 -0.42990088533E+02  0.43400715775E+02  0.00000000000E+00 0. -1.
         11    1    3    3    0    0 -0.18050415678E+01  0.27380482588E+00  0.19848039788E+01  0.26967742285E+01  0.51100000000E-03 0. -1.
        -11    1    3    3    0    0  0.31791542750E+00  0.10908948374E+02  0.36400518679E+02  0.38001368202E+02  0.51100000000E-03 0.  1.
         12    1    3    3    0    0  0.13056060330E+01 -0.52294794681E+01  0.46047658747E+01  0.70891417945E+01  0.00000000000E+00 0. -1.
</event>
<event>
 7    1  0.2653124E-010  0.4778727E+02  0.7816164E-02  0.1312668E+00
        -11   -1    0    0    0    0  0.00000000000E+00  0.00000000000E+00  0.45593999997E+02  0.45594000000E+02  0.51100000000E-03 0.  1.
         11   -1    0    0    0    0 -0.00000000000E+00 -0.00000000000E+00 -0.45593999997E+02  0.45594000000E+02  0.51100000000E-03 0. -1.
    9900012    2    1    2    0    0  0.85715457250E+01 -0.11710331586E+02  0.40902570103E+02  0.47787268405E+02  0.19999987965E+02 0.  0.
         12    1    1    2    0    0 -0.85715457250E+01  0.11710331586E+02 -0.40902570103E+02  0.43400731595E+02  0.00000000000E+00 0. -1.
         11    1    3    3    0    0  0.24889761561E+00 -0.13912143782E+01 -0.22951113522E+00  0.14318181070E+01  0.51100000000E-03 0. -1.
        -11    1    3    3    0    0 -0.35310317111E+01 -0.22324839620E+01  0.22254943118E+02  0.22643645091E+02  0.51100000000E-03 0.  1.
        -12    1    3    3    0    0  0.11853679820E+02 -0.80866332453E+01  0.18877138120E+02  0.23711805206E+02  0.00000000000E+00 0.  1.
</event>
<event>
 7    1  0.2653124E-010  0.4778727E+02  0.7816164E-02  0.1312668E+00
        -11   -1    0    0    0    0  0.00000000000E+00  0.00000000000E+00  0.45593999997E+02  0.45594000000E+02  0.51100000000E-03 0.  1.
         11   -1    0    0    0    0 -0.00000000000E+00 -0.00000000000E+00 -0.45593999997E+02  0.45594000000E+02  0.51100000000E-03 0. -1.
    9900012    2    1    2    0    0 -0.25058518237E+02  0.34511646282E+02  0.80399126768E+01  0.47787271191E+02  0.20000000669E+02 0.  0.
         12    1    1    2    0    0  0.25058518237E+02 -0.34511646282E+02 -0.80399126768E+01  0.43400728809E+02  0.00000000000E+00 0. -1.
         11    1    3    3    0    0 -0.80731142779E+01  0.79134426023E+01 -0.43569030892E+01  0.12115294167E+02  0.51100000000E-03 0. -1.
        -11    1    3    3    0    0 -0.24507793422E+01 -0.44786391801E+00  0.21862022626E+01  0.33145711740E+01  0.51100000000E-03 0.  1.
        -12    1    3    3    0    0 -0.14534624617E+02  0.27046067597E+02  0.10210613503E+02  0.32357405850E+02  0.00000000000E+00 0.  1.
</event>
<event>
 7    1  0.2653124E-010  0.4778727E+02  0.7816164E-02  0.1312668E+00
        -11   -1    0    0    0    0  0.00000000000E+00  0.00000000000E+00  0.45593999997E+02  0.45594000000E+02  0.51100000000E-03 0.  1.
         11   -1    0    0    0    0 -0.00000000000E+00 -0.00000000000E+00 -0.45593999997E+02  0.45594000000E+02  0.51100000000E-03 0. -1.
    9900012    2    1    2    0    0 -0.14516117751E+02 -0.25822925500E+02  0.31718796426E+02  0.47787271865E+02  0.20000003742E+02 0.  0.
         12    1    1    2    0    0  0.14516117751E+02  0.25822925500E+02 -0.31718796426E+02  0.43400728135E+02  0.00000000000E+00 0. -1.
         11    1    3    3    0    0 -0.25928917245E+01 -0.10614780348E+02  0.16644602782E+02  0.19910787312E+02  0.51100000000E-03 0.  1.
        -11    1    3    3    0    0  0.16546066348E+01 -0.62919773947E+01  0.75749176767E+01  0.99852932217E+01  0.51100000000E-03 0. -1.
         12    1    3    3    0    0 -0.13577832661E+02 -0.89161677567E+01  0.74992759673E+01  0.17891191332E+02  0.00000000000E+00 0. -1.
</event>
<event>
 7    1  0.2653124E-010  0.4778728E+02  0.7816164E-02  0.1312668E+00
        -11   -1    0    0    0    0  0.00000000000E+00  0.00000000000E+00  0.45593999997E+02  0.45594000000E+02  0.51100000000E-03 0.  1.
         11   -1    0    0    0    0 -0.00000000000E+00 -0.00000000000E+00 -0.45593999997E+02  0.45594000000E+02  0.51100000000E-03 0. -1.
    9900012    2    1    2    0    0 -0.40712378651E+02  0.30351209583E+01  0.14727949631E+02  0.47787283013E+02  0.20000054571E+02 0.  0.
         12    1    1    2    0    0  0.40712378651E+02 -0.30351209583E+01 -0.14727949631E+02  0.43400716987E+02  0.00000000000E+00 0. -1.
         11    1    3    3    0    0 -0.15925471862E+02 -0.27232683939E+01  0.95904490664E+01  0.18788655043E+02  0.51100000000E-03 0. -1.
        -11    1    3    3    0    0 -0.21896776523E+02  0.49959384830E+01  0.89301401998E+01  0.24169725437E+02  0.51100000000E-03 0.  1.
         12    1    3    3    0    0 -0.28901302657E+01  0.76245086924E+00 -0.37926396350E+01  0.48289025339E+01  0.00000000000E+00 0. -1.
</event>
<event>
 7    1  0.2653124E-010  0.4778728E+02  0.7816164E-02  0.1312668E+00
        -11   -1    0    0    0    0  0.00000000000E+00  0.00000000000E+00  0.45593999997E+02  0.45594000000E+02  0.51100000000E-03 0.  1.
         11   -1    0    0    0    0 -0.00000000000E+00 -0.00000000000E+00 -0.45593999997E+02  0.45594000000E+02  0.51100000000E-03 0. -1.
    9900012    2    1    2    0    0 -0.40392516745E+02  0.10532611305E+02  0.11879861280E+02  0.47787280951E+02  0.20000045169E+02 0.  0.
         12    1    1    2    0    0  0.40392516745E+02 -0.10532611305E+02 -0.11879861280E+02  0.43400719049E+02  0.00000000000E+00 0. -1.
         11    1    3    3    0    0 -0.13537545455E+02 -0.91546500556E+00  0.63357417467E+01  0.14974806739E+02  0.51100000000E-03 0. -1.
        -11    1    3    3    0    0  0.54544611622E+00 -0.10674067187E+01  0.21982240819E+01  0.25038086877E+01  0.51100000000E-03 0.  1.
         12    1    3    3    0    0 -0.27400417406E+02  0.12515483030E+02  0.33458954514E+01  0.30308665525E+02  0.00000000000E+00 0. -1.
</event>
<event>
 7    1  0.2653124E-010  0.4778728E+02  0.7816164E-02  0.1312668E+00
        -11   -1    0    0    0    0  0.00000000000E+00  0.00000000000E+00  0.45593999997E+02  0.45594000000E+02  0.51100000000E-03 0.  1.
         11   -1    0    0    0    0 -0.00000000000E+00 -0.00000000000E+00 -0.45593999997E+02  0.45594000000E+02  0.51100000000E-03 0. -1.
    9900012    2    1    2    0    0  0.10984407108E+02  0.51321580048E+01  0.41672853064E+02  0.47787275032E+02  0.20000018179E+02 0.  0.
         12    1    1    2    0    0 -0.10984407108E+02 -0.51321580048E+01 -0.41672853064E+02  0.43400724968E+02  0.00000000000E+00 0. -1.
         11    1    3    3    0    0  0.11911777623E+01  0.16686396140E+01  0.11905376626E+02  0.12080614864E+02  0.51100000000E-03 0. -1.
        -11    1    3    3    0    0  0.13477229858E+02  0.29532688234E+01  0.28689130142E+02  0.31834316545E+02  0.51100000000E-03 0.  1.
         12    1    3    3    0    0 -0.36840005120E+01  0.51024956744E+00  0.10783462962E+01  0.38723436221E+01  0.00000000000E+00 0. -1.
</event>
<event>
 7    1  0.2653124E-010  0.4778728E+02  0.7816164E-02  0.1312668E+00
        -11   -1    0    0    0    0  0.00000000000E+00  0.00000000000E+00  0.45593999997E+02  0.45594000000E+02  0.51100000000E-03 0. -1.
         11   -1    0    0    0    0 -0.00000000000E+00 -0.00000000000E+00 -0.45593999997E+02  0.45594000000E+02  0.51100000000E-03 0.  1.
    9900012    2    1    2    0    0 -0.39336811074E+00  0.29176979786E+02 -0.32127433119E+02  0.47787275965E+02  0.20000022437E+02 0.  0.
         12    1    1    2    0    0  0.39336811074E+00 -0.29176979786E+02  0.32127433119E+02  0.43400724035E+02  0.00000000000E+00 0. -1.
         11    1    3    3    0    0  0.87384838523E+00 -0.12559328132E+01 -0.52547233297E+01  0.54729421488E+01  0.51100000000E-03 0. -1.
        -11    1    3    3    0    0 -0.29356619526E+01  0.48038535234E+01 -0.10329867051E+02  0.11764407054E+02  0.51100000000E-03 0.  1.
         12    1    3    3    0    0  0.16684454566E+01  0.25629059076E+02 -0.16542842738E+02  0.30549926763E+02  0.00000000000E+00 0. -1.
</event>
<event>
 7    1  0.2653124E-010  0.4778727E+02  0.7816164E-02  0.1312668E+00
        -11   -1    0    0    0    0  0.00000000000E+00  0.00000000000E+00  0.45593999997E+02  0.45594000000E+02  0.51100000000E-03 0.  1.
         11   -1    0    0    0    0 -0.00000000000E+00 -0.00000000000E+00 -0.45593999997E+02  0.45594000000E+02  0.51100000000E-03 0. -1.
    9900012    2    1    2    0    0 -0.11640421319E+02 -0.20869891475E+02  0.36229426564E+02  0.47787272727E+02  0.20000007673E+02 0.  0.
         12    1    1    2    0    0  0.11640421319E+02  0.20869891475E+02 -0.36229426564E+02  0.43400727273E+02  0.00000000000E+00 0. -1.
         11    1    3    3    0    0 -0.69581263774E+01 -0.70521919737E+01  0.22072363144E+02  0.24193762612E+02  0.51100000000E-03 0.  1.
        -11    1    3    3    0    0 -0.48909972952E+00 -0.19797723722E+01  0.10235736874E+02  0.10436906956E+02  0.51100000000E-03 0. -1.
         12    1    3    3    0    0 -0.41931952124E+01 -0.11837927129E+02  0.39213265456E+01  0.13156603159E+02  0.00000000000E+00 0. -1.
</event>
<event>
 7    1  0.2653124E-010  0.4778727E+02  0.7816164E-02  0.1312668E+00
        -11   -1    0    0    0    0  0.00000000000E+00  0.00000000000E+00  0.45593999997E+02  0.45594000000E+02  0.51100000000E-03 0.  1.
         11   -1    0    0    0    0 -0.00000000000E+00 -0.00000000000E+00 -0.45593999997E+02  0.45594000000E+02  0.51100000000E-03 0. -1.
    9900012    2    1    2    0    0 -0.62636671600E+01 -0.73878267761E+01  0.42306142619E+02  0.47787271734E+02  0.20000003142E+02 0.  0.
         12    1    1    2    0    0  0.62636671600E+01  0.73878267761E+01 -0.42306142619E+02  0.43400728266E+02  0.00000000000E+00 0. -1.
         11    1    3    3    0    0  0.85869252754E+00  0.12905295814E+01 -0.23152815707E+00  0.15672986333E+01  0.51100000000E-03 0. -1.
        -11    1    3    3    0    0  0.88862428134E+00 -0.61171713578E+00 -0.84630521782E+00  0.13711614604E+01  0.51100000000E-03 0.  1.
        -12    1    3    3    0    0 -0.80109839689E+01 -0.80666392217E+01  0.43383975994E+02  0.44848811640E+02  0.00000000000E+00 0.  1.
</event>
<event>
 7    1  0.2653124E-010  0.4778727E+02  0.7816164E-02  0.1312668E+00
        -11   -1    0    0    0    0  0.00000000000E+00  0.00000000000E+00  0.45593999997E+02  0.45594000000E+02  0.51100000000E-03 0.  1.
         11   -1    0    0    0    0 -0.00000000000E+00 -0.00000000000E+00 -0.45593999997E+02  0.45594000000E+02  0.51100000000E-03 0. -1.
    9900012    2    1    2    0    0  0.42778084172E+02 -0.25250336860E+01  0.68762709829E+01  0.47787269785E+02  0.19999994258E+02 0.  0.
         12    1    1    2    0    0 -0.42778084172E+02  0.25250336860E+01 -0.68762709829E+01  0.43400730215E+02  0.00000000000E+00 0. -1.
         11    1    3    3    0    0  0.19135838654E+02  0.49898383636E+01  0.20403886189E+01  0.19880693998E+02  0.51100000000E-03 0. -1.
        -11    1    3    3    0    0  0.15551937137E+02  0.11020254011E+01  0.37610269329E+01  0.16038158640E+02  0.51100000000E-03 0.  1.
         12    1    3    3    0    0  0.80903083817E+01 -0.86168974506E+01  0.10748554311E+01  0.11868417147E+02  0.00000000000E+00 0. -1.
</event>
<event>
 7    1  0.2653124E-010  0.4778727E+02  0.7816164E-02  0.1312668E+00
        -11   -1    0    0    0    0  0.00000000000E+00  0.00000000000E+00  0.45593999997E+02  0.45594000000E+02  0.51100000000E-03 0.  1.
         11   -1    0    0    0    0 -0.00000000000E+00 -0.00000000000E+00 -0.45593999997E+02  0.45594000000E+02  0.51100000000E-03 0. -1.
    9900012    2    1    2    0    0 -0.21813003337E+02 -0.13798632286E+01  0.37495499585E+02  0.47787266985E+02  0.19999981492E+02 0.  0.
         12    1    1    2    0    0  0.21813003337E+02  0.13798632286E+01 -0.37495499585E+02  0.43400733015E+02  0.00000000000E+00 0. -1.
         11    1    3    3    0    0 -0.76270156279E+01 -0.90239429135E+00  0.12891547302E+02  0.15005921329E+02  0.51100000000E-03 0. -1.
        -11    1    3    3    0    0 -0.10514687441E+02  0.68716862384E+01  0.10122829323E+02  0.16132278125E+02  0.51100000000E-03 0.  1.
         12    1    3    3    0    0 -0.36713002675E+01 -0.73491551756E+01  0.14481122960E+02  0.16649067531E+02  0.00000000000E+00 0. -1.
</event>
<event>
 7    1  0.2653124E-010  0.4778727E+02  0.7816164E-02  0.1312668E+00
        -11   -1    0    0    0    0  0.00000000000E+00  0.00000000000E+00  0.45593999997E+02  0.45594000000E+02  0.51100000000E-03 0. -1.
         11   -1    0    0    0    0 -0.00000000000E+00 -0.00000000000E+00 -0.45593999997E+02  0.45594000000E+02  0.51100000000E-03 0.  1.
    9900012    2    1    2    0    0  0.14364808440E+02  0.39739574109E+02 -0.99016237729E+01  0.47787266996E+02  0.19999981543E+02 0.  0.
         12    1    1    2    0    0 -0.14364808440E+02 -0.39739574109E+02  0.99016237729E+01  0.43400733004E+02  0.00000000000E+00 0. -1.
         11    1    3    3    0    0  0.10183268380E+02  0.22899333032E+02 -0.75549561567E+01  0.26175480339E+02  0.51100000000E-03 0. -1.
        -11    1    3    3    0    0  0.66292922133E+01  0.16962921298E+02  0.91525791050E-02  0.18212311722E+02  0.51100000000E-03 0.  1.
         12    1    3    3    0    0 -0.24477521533E+01 -0.12268022079E+00 -0.23558201953E+01  0.33994749350E+01  0.00000000000E+00 0. -1.
</event>
<event>
 7    1  0.2653124E-010  0.4778728E+02  0.7816164E-02  0.1312668E+00
        -11   -1    0    0    0    0  0.00000000000E+00  0.00000000000E+00  0.45593999997E+02  0.45594000000E+02  0.51100000000E-03 0.  1.
         11   -1    0    0    0    0 -0.00000000000E+00 -0.00000000000E+00 -0.45593999997E+02  0.45594000000E+02  0.51100000000E-03 0. -1.
    9900012    2    1    2    0    0 -0.72444107472E+01 -0.28568889883E+02  0.31858434277E+02  0.47787276610E+02  0.20000025373E+02 0.  0.
         12    1    1    2    0    0  0.72444107472E+01  0.28568889883E+02 -0.31858434277E+02  0.43400723390E+02  0.00000000000E+00 0. -1.
         11    1    3    3    0    0 -0.61795096396E+01 -0.11192892503E+02  0.12250656663E+02  0.17707223692E+02  0.51100000000E-03 0. -1.
        -11    1    3    3    0    0 -0.24576652448E+01 -0.18904563742E+02  0.20348563785E+02  0.27883448444E+02  0.51100000000E-03 0.  1.
         12    1    3    3    0    0  0.13927641372E+01  0.15285663620E+01 -0.74078616983E+00  0.21966044738E+01  0.00000000000E+00 0. -1.
</event>
<event>
 7    1  0.2653124E-010  0.4778727E+02  0.7816164E-02  0.1312668E+00
        -11   -1    0    0    0    0  0.00000000000E+00  0.00000000000E+00  0.45593999997E+02  0.45594000000E+02  0.51100000000E-03 0.  1.
         11   -1    0    0    0    0 -0.00000000000E+00 -0.00000000000E+00 -0.45593999997E+02  0.45594000000E+02  0.51100000000E-03 0. -1.
    9900012    2    1    2    0    0  0.40650885220E+02 -0.14851990961E+02  0.32476737717E+01  0.47787268559E+02  0.19999988667E+02 0.  0.
         12    1    1    2    0    0 -0.40650885220E+02  0.14851990961E+02 -0.32476737717E+01  0.43400731441E+02  0.00000000000E+00 0. -1.
         11    1    3    3    0    0  0.17876023936E+02 -0.33860715937E+01 -0.53840191064E+01  0.18973807593E+02  0.51100000000E-03 0. -1.
        -11    1    3    3    0    0  0.16313683713E+02 -0.39431969587E+01  0.20424055040E+01  0.16907291298E+02  0.51100000000E-03 0.  1.
         12    1    3    3    0    0  0.64611775720E+01 -0.75227224089E+01  0.65892873741E+01  0.11906169668E+02  0.00000000000E+00 0. -1.
</event>
<event>
 7    1  0.2653124E-010  0.4778730E+02  0.7816164E-02  0.1312668E+00
        -11   -1    0    0    0    0  0.00000000000E+00  0.00000000000E+00  0.45593999997E+02  0.45594000000E+02  0.51100000000E-03 0. -1.
         11   -1    0    0    0    0 -0.00000000000E+00 -0.00000000000E+00 -0.45593999997E+02  0.45594000000E+02  0.51100000000E-03 0.  1.
    9900012    2    1    2    0    0 -0.35795181513E+01  0.30564164253E+02 -0.30604569590E+02  0.47787299931E+02  0.20000131704E+02 0.  0.
         12    1    1    2    0    0  0.35795181513E+01 -0.30564164253E+02  0.30604569590E+02  0.43400700069E+02  0.00000000000E+00 0. -1.
         11    1    3    3    0    0 -0.48558619270E+01  0.28393695538E+01 -0.10733530403E+02  0.12118171879E+02  0.51100000000E-03 0. -1.
        -11    1    3    3    0    0 -0.96182183053E-01  0.63366835873E+01 -0.10529730238E+02  0.12289753010E+02  0.51100000000E-03 0.  1.
        -12    1    3    3    0    0  0.13725259588E+01  0.21388111112E+02 -0.93413089489E+01  0.23379375041E+02  0.00000000000E+00 0.  1.
</event>
<event>
 7    1  0.2653124E-010  0.4778727E+02  0.7816164E-02  0.1312668E+00
        -11   -1    0    0    0    0  0.00000000000E+00  0.00000000000E+00  0.45593999997E+02  0.45594000000E+02  0.51100000000E-03 0.  1.
         11   -1    0    0    0    0 -0.00000000000E+00 -0.00000000000E+00 -0.45593999997E+02  0.45594000000E+02  0.51100000000E-03 0. -1.
    9900012    2    1    2    0    0  0.38171765848E+02  0.18172664144E+02 -0.98129444356E+01  0.47787270646E+02  0.19999998181E+02 0.  0.
         12    1    1    2    0    0 -0.38171765848E+02 -0.18172664144E+02  0.98129444356E+01  0.43400729354E+02  0.00000000000E+00 0. -1.
         11    1    3    3    0    0  0.10350941335E+01  0.28312803936E+01 -0.17923880673E+01  0.35071674864E+01  0.51100000000E-03 0. -1.
        -11    1    3    3    0    0  0.36525524724E+02  0.13147391853E+02 -0.11168790295E+02  0.40394427163E+02  0.51100000000E-03 0.  1.
         12    1    3    3    0    0  0.61114699013E+00  0.21939918973E+01  0.31482339271E+01  0.38856759963E+01  0.00000000000E+00 0. -1.
</event>
<event>
 7    1  0.2653124E-010  0.4778727E+02  0.7816164E-02  0.1312668E+00
        -11   -1    0    0    0    0  0.00000000000E+00  0.00000000000E+00  0.45593999997E+02  0.45594000000E+02  0.51100000000E-03 0.  1.
         11   -1    0    0    0    0 -0.00000000000E+00 -0.00000000000E+00 -0.45593999997E+02  0.45594000000E+02  0.51100000000E-03 0. -1.
    9900012    2    1    2    0    0 -0.49434302695E+01 -0.42052368102E+02  0.95280617096E+01  0.47787272750E+02  0.20000007778E+02 0.  0.
         12    1    1    2    0    0  0.49434302695E+01  0.42052368102E+02 -0.95280617096E+01  0.43400727250E+02  0.00000000000E+00 0. -1.
         11    1    3    3    0    0 -0.82324164050E+00 -0.91092140242E+01 -0.27706329836E+01  0.95567732174E+01  0.51100000000E-03 0. -1.
        -11    1    3    3    0    0  0.37490079922E-01 -0.22361782196E+02  0.12804220059E+01  0.22398441670E+02  0.51100000000E-03 0.  1.
         12    1    3    3    0    0 -0.41576787089E+01 -0.10581371883E+02  0.11018272687E+02  0.15832057863E+02  0.00000000000E+00 0. -1.
</event>
<event>
 7    1  0.2653124E-010  0.4778727E+02  0.7816164E-02  0.1312668E+00
        -11   -1    0    0    0    0  0.00000000000E+00  0.00000000000E+00  0.45593999997E+02  0.45594000000E+02  0.51100000000E-03 0.  1.
         11   -1    0    0    0    0 -0.00000000000E+00 -0.00000000000E+00 -0.45593999997E+02  0.45594000000E+02  0.51100000000E-03 0. -1.
    9900012    2    1    2    0    0  0.88573694086E+01  0.36060812325E+02  0.22467486499E+02  0.47787272726E+02  0.20000007667E+02 0.  0.
         12    1    1    2    0    0 -0.88573694086E+01 -0.36060812325E+02 -0.22467486499E+02  0.43400727274E+02  0.00000000000E+00 0. -1.
         11    1    3    3    0    0  0.84606898043E+01  0.19002120696E+02  0.47716919094E+01  0.21340874088E+02  0.51100000000E-03 0. -1.
        -11    1    3    3    0    0 -0.29316710134E+01  0.44015179534E+01  0.12600839748E+01  0.54365307972E+01  0.51100000000E-03 0.  1.
        -12    1    3    3    0    0  0.33283506177E+01  0.12657173676E+02  0.16435710614E+02  0.21009867841E+02  0.00000000000E+00 0.  1.
</event>
<event>
 7    1  0.2653124E-010  0.4778727E+02  0.7816164E-02  0.1312668E+00
        -11   -1    0    0    0    0  0.00000000000E+00  0.00000000000E+00  0.45593999997E+02  0.45594000000E+02  0.51100000000E-03 0.  1.
         11   -1    0    0    0    0 -0.00000000000E+00 -0.00000000000E+00 -0.45593999997E+02  0.45594000000E+02  0.51100000000E-03 0. -1.
    9900012    2    1    2    0    0 -0.13086043760E+01  0.24012840939E+01  0.43314483735E+02  0.47787272910E+02  0.20000008506E+02 0.  0.
         12    1    1    2    0    0  0.13086043760E+01 -0.24012840939E+01 -0.43314483735E+02  0.43400727090E+02  0.00000000000E+00 0. -1.
         11    1    3    3    0    0 -0.24031844360E+00  0.50124651348E+01  0.15640729779E+02  0.16426046023E+02  0.51100000000E-03 0. -1.
        -11    1    3    3    0    0 -0.11839616048E+01  0.40317005405E+01  0.22637701005E+02  0.23024375809E+02  0.51100000000E-03 0.  1.
        -12    1    3    3    0    0  0.11567567239E+00 -0.66428815814E+01  0.50360529508E+01  0.83368510776E+01  0.00000000000E+00 0.  1.
</event>
<event>
 7    1  0.2653124E-010  0.4778726E+02  0.7816164E-02  0.1312668E+00
        -11   -1    0    0    0    0  0.00000000000E+00  0.00000000000E+00  0.45593999997E+02  0.45594000000E+02  0.51100000000E-03 0.  1.
         11   -1    0    0    0    0 -0.00000000000E+00 -0.00000000000E+00 -0.45593999997E+02  0.45594000000E+02  0.51100000000E-03 0. -1.
    9900012    2    1    2    0    0  0.33524090507E+02 -0.11973062444E+02  0.24827503515E+02  0.47787264990E+02  0.19999972396E+02 0.  0.
         12    1    1    2    0    0 -0.33524090507E+02  0.11973062444E+02 -0.24827503515E+02  0.43400735010E+02  0.00000000000E+00 0. -1.
         11    1    3    3    0    0  0.10558982244E+02 -0.37462097675E+01  0.95599191975E+01  0.14728144791E+02  0.51100000000E-03 0. -1.
        -11    1    3    3    0    0  0.14898750392E+02 -0.12953276537E+02  0.12254692607E+02  0.23236557995E+02  0.51100000000E-03 0.  1.
         12    1    3    3    0    0  0.80663578710E+01  0.47264238604E+01  0.30128917103E+01  0.98225622049E+01  0.00000000000E+00 0. -1.
</event>
<event>
 7    1  0.2653124E-010  0.4778727E+02  0.7816164E-02  0.1312668E+00
        -11   -1    0    0    0    0  0.00000000000E+00  0.00000000000E+00  0.45593999997E+02  0.45594000000E+02  0.51100000000E-03 0.  1.
         11   -1    0    0    0    0 -0.00000000000E+00 -0.00000000000E+00 -0.45593999997E+02  0.45594000000E+02  0.51100000000E-03 0. -1.
    9900012    2    1    2    0    0  0.13107732745E+02 -0.30095707688E+02  0.28391179211E+02  0.47787270329E+02  0.19999996740E+02 0.  0.
         12    1    1    2    0    0 -0.13107732745E+02  0.30095707688E+02 -0.28391179211E+02  0.43400729671E+02  0.00000000000E+00 0. -1.
         11    1    3    3    0    0  0.58845762636E+01 -0.53485262972E+01  0.84107572406E+01  0.11574791963E+02  0.51100000000E-03 0. -1.
        -11    1    3    3    0    0  0.65950743540E+01 -0.27027796503E+02  0.18098066261E+02  0.33189407831E+02  0.51100000000E-03 0.  1.
         12    1    3    3    0    0  0.62808212727E+00  0.22806151121E+01  0.18823557095E+01  0.30230705360E+01  0.00000000000E+00 0. -1.
</event>
<event>
 7    1  0.2653124E-010  0.4778727E+02  0.7816164E-02  0.1312668E+00
        -11   -1    0    0    0    0  0.00000000000E+00  0.00000000000E+00  0.45593999997E+02  0.45594000000E+02  0.51100000000E-03 0.  1.
         11   -1    0    0    0    0 -0.00000000000E+00 -0.00000000000E+00 -0.45593999997E+02  0.45594000000E+02  0.51100000000E-03 0. -1.
    9900012    2    1    2    0    0 -0.20480165230E+02  0.25327367240E+02  0.28682933979E+02  0.47787269582E+02  0.19999993333E+02 0.  0.
         12    1    1    2    0    0  0.20480165230E+02 -0.25327367240E+02 -0.28682933979E+02  0.43400730418E+02  0.00000000000E+00 0. -1.
         11    1    3    3    0    0 -0.32350964356E+01  0.15709273461E+02  0.20146957096E+02  0.25751640765E+02  0.51100000000E-03 0.  1.
        -11    1    3    3    0    0 -0.43112239084E+01  0.49441328716E+01  0.29310430165E+01  0.71848531555E+01  0.51100000000E-03 0. -1.
        -12    1    3    3    0    0 -0.12933844886E+02  0.46739609080E+01  0.56049338669E+01  0.14850775662E+02  0.00000000000E+00 0.  1.
</event>
<event>
 7    1  0.2653124E-010  0.4778727E+02  0.7816164E-02  0.1312668E+00
        -11   -1    0    0    0    0  0.00000000000E+00  0.00000000000E+00  0.45593999997E+02  0.45594000000E+02  0.51100000000E-03 0.  1.
         11   -1    0    0    0    0 -0.00000000000E+00 -0.00000000000E+00 -0.45593999997E+02  0.45594000000E+02  0.51100000000E-03 0. -1.
    9900012    2    1    2    0    0  0.15104572491E+02  0.39315531444E+02  0.10476837575E+02  0.47787271338E+02  0.20000001338E+02 0.  0.
         12    1    1    2    0    0 -0.15104572491E+02 -0.39315531444E+02 -0.10476837575E+02  0.43400728662E+02  0.00000000000E+00 0. -1.
         11    1    3    3    0    0  0.10628675976E+02  0.21380994799E+02  0.11587358789E+01  0.23905195266E+02  0.51100000000E-03 0. -1.
        -11    1    3    3    0    0  0.13990892781E+01  0.18625695828E+02  0.89354472459E+01  0.20705463377E+02  0.51100000000E-03 0.  1.
         12    1    3    3    0    0  0.30768072364E+01 -0.69115918373E+00  0.38265444997E+00  0.31766126952E+01  0.00000000000E+00 0. -1.
</event>
<event>
 7    1  0.2653124E-010  0.4778726E+02  0.7816164E-02  0.1312668E+00
        -11   -1    0    0    0    0  0.00000000000E+00  0.00000000000E+00  0.45593999997E+02  0.45594000000E+02  0.51100000000E-03 0.  1.
         11   -1    0    0    0    0 -0.00000000000E+00 -0.00000000000E+00 -0.45593999997E+02  0.45594000000E+02  0.51100000000E-03 0. -1.
    9900012    2    1    2    0    0  0.75046439647E+01 -0.19211729239E+02  0.38186563603E+02  0.47787264278E+02  0.19999969151E+02 0.  0.
         12    1    1    2    0    0 -0.75046439647E+01  0.19211729239E+02 -0.38186563603E+02  0.43400735722E+02  0.00000000000E+00 0. -1.
         11    1    3    3    0    0 -0.39451555021E+00 -0.53984345752E+01  0.73980067199E+01  0.91667465368E+01  0.51100000000E-03 0. -1.
        -11    1    3    3    0    0  0.34950077583E+00  0.17977331774E+01  0.15178740385E+02  0.15288824523E+02  0.51100000000E-03 0.  1.
         12    1    3    3    0    0  0.75496587391E+01 -0.15611027841E+02  0.15609816498E+02  0.23331693218E+02  0.00000000000E+00 0. -1.
</event>
<event>
 7    1  0.2653124E-010  0.4778727E+02  0.7816164E-02  0.1312668E+00
        -11   -1    0    0    0    0  0.00000000000E+00  0.00000000000E+00  0.45593999997E+02  0.45594000000E+02  0.51100000000E-03 0. -1.
         11   -1    0    0    0    0 -0.00000000000E+00 -0.00000000000E+00 -0.45593999997E+02  0.45594000000E+02  0.51100000000E-03 0.  1.
    9900012    2    1    2    0    0  0.35742611992E+02  0.21086383867E+02 -0.12706428947E+02  0.47787271513E+02  0.20000002136E+02 0.  0.
         12    1    1    2    0    0 -0.35742611992E+02 -0.21086383867E+02  0.12706428947E+02  0.43400728487E+02  0.00000000000E+00 0. -1.
         11    1    3    3    0    0  0.10576281228E+01 -0.21869943683E+00  0.19552571161E+01  0.22337048464E+01  0.51100000000E-03 0.  1.
        -11    1    3    3    0    0 -0.25725433023E+00  0.37417768418E+01  0.10121659849E+00  0.37519753177E+01  0.51100000000E-03 0. -1.
        -12    1    3    3    0    0  0.34942238200E+02  0.17563306462E+02 -0.14762902662E+02  0.41801591349E+02  0.00000000000E+00 0.  1.
</event>
<event>
 7    1  0.2653124E-010  0.4778727E+02  0.7816164E-02  0.1312668E+00
        -11   -1    0    0    0    0  0.00000000000E+00  0.00000000000E+00  0.45593999997E+02  0.45594000000E+02  0.51100000000E-03 0.  1.
         11   -1    0    0    0    0 -0.00000000000E+00 -0.00000000000E+00 -0.45593999997E+02  0.45594000000E+02  0.51100000000E-03 0. -1.
    9900012    2    1    2    0    0  0.38960052131E+02 -0.15753273584E+02  0.10843054981E+02  0.47787272679E+02  0.20000007455E+02 0.  0.
         12    1    1    2    0    0 -0.38960052131E+02  0.15753273584E+02 -0.10843054981E+02  0.43400727321E+02  0.00000000000E+00 0. -1.
         11    1    3    3    0    0  0.11938209019E+02 -0.71590404407E+01 -0.29371326210E+01  0.14226715816E+02  0.51100000000E-03 0. -1.
        -11    1    3    3    0    0  0.60885316984E+01 -0.74437499671E+01  0.37816894589E+01  0.10333479919E+02  0.51100000000E-03 0.  1.
        -12    1    3    3    0    0  0.20933311414E+02 -0.11504831759E+01  0.99984981428E+01  0.23227076945E+02  0.00000000000E+00 0.  1.
</event>
<event>
 7    1  0.2653124E-010  0.4778727E+02  0.7816164E-02  0.1312668E+00
        -11   -1    0    0    0    0  0.00000000000E+00  0.00000000000E+00  0.45593999997E+02  0.45594000000E+02  0.51100000000E-03 0. -1.
         11   -1    0    0    0    0 -0.00000000000E+00 -0.00000000000E+00 -0.45593999997E+02  0.45594000000E+02  0.51100000000E-03 0.  1.
    9900012    2    1    2    0    0  0.16798615078E+01  0.19924665580E+02 -0.38520242708E+02  0.47787270381E+02  0.19999996977E+02 0.  0.
         12    1    1    2    0    0 -0.16798615078E+01 -0.19924665580E+02  0.38520242708E+02  0.43400729619E+02  0.00000000000E+00 0. -1.
         11    1    3    3    0    0 -0.15697061562E+01  0.76831487463E+00 -0.41343833146E+01  0.44885867282E+01  0.51100000000E-03 0. -1.
        -11    1    3    3    0    0  0.53203861926E+01  0.21666439378E+02 -0.25752644634E+02  0.34072566832E+02  0.51100000000E-03 0.  1.
        -12    1    3    3    0    0 -0.20708185286E+01 -0.25100886735E+01 -0.86332147593E+01  0.92261168216E+01  0.00000000000E+00 0.  1.
</event>
<event>
 7    1  0.2653124E-010  0.4778727E+02  0.7816164E-02  0.1312668E+00
        -11   -1    0    0    0    0  0.00000000000E+00  0.00000000000E+00  0.45593999997E+02  0.45594000000E+02  0.51100000000E-03 0.  1.
         11   -1    0    0    0    0 -0.00000000000E+00 -0.00000000000E+00 -0.45593999997E+02  0.45594000000E+02  0.51100000000E-03 0. -1.
    9900012    2    1    2    0    0  0.76384127100E+01 -0.15381765981E+01  0.42695572497E+02  0.47787271356E+02  0.20000001419E+02 0.  0.
         12    1    1    2    0    0 -0.76384127100E+01  0.15381765981E+01 -0.42695572497E+02  0.43400728644E+02  0.00000000000E+00 0. -1.
         11    1    3    3    0    0  0.22351143096E+01 -0.36499997918E+01  0.17956953298E+01  0.46414175028E+01  0.51100000000E-03 0. -1.
        -11    1    3    3    0    0  0.17649098659E+01 -0.48375432358E+01  0.23530164371E+02  0.24087037323E+02  0.51100000000E-03 0.  1.
        -12    1    3    3    0    0  0.36383885345E+01  0.69493664296E+01  0.17369712797E+02  0.19058816530E+02  0.00000000000E+00 0.  1.
</event>
<event>
 7    1  0.2653124E-010  0.4778727E+02  0.7816164E-02  0.1312668E+00
        -11   -1    0    0    0    0  0.00000000000E+00  0.00000000000E+00  0.45593999997E+02  0.45594000000E+02  0.51100000000E-03 0. -1.
         11   -1    0    0    0    0 -0.00000000000E+00 -0.00000000000E+00 -0.45593999997E+02  0.45594000000E+02  0.51100000000E-03 0.  1.
    9900012    2    1    2    0    0  0.12862042017E+02  0.41450987695E+02 -0.80886472701E-01  0.47787273643E+02  0.20000011846E+02 0.  0.
         12    1    1    2    0    0 -0.12862042017E+02 -0.41450987695E+02  0.80886472701E-01  0.43400726357E+02  0.00000000000E+00 0. -1.
         11    1    3    3    0    0 -0.75227184831E+00  0.51225828471E+01  0.65379251205E+00  0.52186409025E+01  0.51100000000E-03 0. -1.
        -11    1    3    3    0    0 -0.21699464180E+01  0.12358354077E+02  0.46240968433E+01  0.13372354124E+02  0.51100000000E-03 0.  1.
         12    1    3    3    0    0  0.15784260283E+02  0.23970050771E+02 -0.53587758280E+01  0.29196278616E+02  0.00000000000E+00 0. -1.
</event>
<event>
 7    1  0.2653124E-010  0.4778727E+02  0.7816164E-02  0.1312668E+00
        -11   -1    0    0    0    0  0.00000000000E+00  0.00000000000E+00  0.45593999997E+02  0.45594000000E+02  0.51100000000E-03 0.  1.
         11   -1    0    0    0    0 -0.00000000000E+00 -0.00000000000E+00 -0.45593999997E+02  0.45594000000E+02  0.51100000000E-03 0. -1.
    9900012    2    1    2    0    0 -0.14822327921E+01  0.33058410786E+02  0.28081450443E+02  0.47787269629E+02  0.19999993546E+02 0.  0.
         12    1    1    2    0    0  0.14822327921E+01 -0.33058410786E+02 -0.28081450443E+02  0.43400730371E+02  0.00000000000E+00 0. -1.
         11    1    3    3    0    0  0.63190552497E+01  0.22234584201E+02  0.13686993469E+02  0.26863376264E+02  0.51100000000E-03 0. -1.
        -11    1    3    3    0    0 -0.19607441958E+01  0.50932100888E+01  0.15131254166E+01  0.56634667473E+01  0.51100000000E-03 0.  1.
        -12    1    3    3    0    0 -0.58405438460E+01  0.57306164965E+01  0.12881331558E+02  0.15260426617E+02  0.00000000000E+00 0.  1.
</event>
<event>
 7    1  0.3768518E-010  0.4778727E+02  0.7816164E-02  0.1312668E+00
        -11   -1    0    0    0    0  0.00000000000E+00  0.00000000000E+00  0.45593999997E+02  0.45594000000E+02  0.51100000000E-03 0. -1.
         11   -1    0    0    0    0 -0.00000000000E+00 -0.00000000000E+00 -0.45593999997E+02  0.45594000000E+02  0.51100000000E-03 0.  1.
    9900012    2    1    2    0    0 -0.19254997725E+02 -0.37345316079E+02 -0.10871776012E+02  0.47787273231E+02  0.20000009968E+02 0.  0.
         12    1    1    2    0    0  0.19254997725E+02  0.37345316079E+02  0.10871776012E+02  0.43400726769E+02  0.00000000000E+00 0. -1.
         11    1    3    3    0    0 -0.21327236547E+00 -0.34426327902E+01  0.39103810085E+01  0.52142387290E+01  0.51100000000E-03 0. -1.
        -11    1    3    3    0    0 -0.12861240425E+01 -0.76588401125E+01 -0.56289112989E+01  0.95914852652E+01  0.51100000000E-03 0.  1.
         12    1    3    3    0    0 -0.17755601317E+02 -0.26243843177E+02 -0.91532457213E+01  0.32981549237E+02  0.00000000000E+00 0. -1.
</event>
<event>
 7    1  0.2653124E-010  0.4778727E+02  0.7816164E-02  0.1312668E+00
        -11   -1    0    0    0    0  0.00000000000E+00  0.00000000000E+00  0.45593999997E+02  0.45594000000E+02  0.51100000000E-03 0.  1.
         11   -1    0    0    0    0 -0.00000000000E+00 -0.00000000000E+00 -0.45593999997E+02  0.45594000000E+02  0.51100000000E-03 0. -1.
    9900012    2    1    2    0    0  0.10985639509E+02 -0.32509321030E+02  0.26572228448E+02  0.47787267818E+02  0.19999985288E+02 0.  0.
         12    1    1    2    0    0 -0.10985639509E+02  0.32509321030E+02 -0.26572228448E+02  0.43400732182E+02  0.00000000000E+00 0. -1.
         11    1    3    3    0    0  0.47711976826E+01 -0.17414610691E+01  0.50075687055E+01  0.71325141839E+01  0.51100000000E-03 0. -1.
        -11    1    3    3    0    0  0.58438267853E+01 -0.28206705219E+02  0.23697968518E+02  0.37300968392E+02  0.51100000000E-03 0.  1.
         12    1    3    3    0    0  0.37061504109E+00 -0.25611547418E+01 -0.21333087752E+01  0.33537852421E+01  0.00000000000E+00 0. -1.
</event>
<event>
 7    1  0.2653124E-010  0.4778727E+02  0.7816164E-02  0.1312668E+00
        -11   -1    0    0    0    0  0.00000000000E+00  0.00000000000E+00  0.45593999997E+02  0.45594000000E+02  0.51100000000E-03 0. -1.
         11   -1    0    0    0    0 -0.00000000000E+00 -0.00000000000E+00 -0.45593999997E+02  0.45594000000E+02  0.51100000000E-03 0.  1.
    9900012    2    1    2    0    0 -0.22063998539E+02 -0.19489638962E+02 -0.31889766436E+02  0.47787271184E+02  0.20000000637E+02 0.  0.
         12    1    1    2    0    0  0.22063998539E+02  0.19489638962E+02  0.31889766436E+02  0.43400728816E+02  0.00000000000E+00 0. -1.
         11    1    3    3    0    0  0.13673605413E+01 -0.62425484551E+01 -0.90867919122E+01  0.11108954657E+02  0.51100000000E-03 0. -1.
        -11    1    3    3    0    0 -0.72316857470E+01 -0.90386216199E+01 -0.63254866814E+01  0.13191123589E+02  0.51100000000E-03 0.  1.
         12    1    3    3    0    0 -0.16199673334E+02 -0.42084688872E+01 -0.16477487842E+02  0.23487192937E+02  0.00000000000E+00 0. -1.
</event>
<event>
 7    1  0.2653124E-010  0.4778727E+02  0.7816164E-02  0.1312668E+00
        -11   -1    0    0    0    0  0.00000000000E+00  0.00000000000E+00  0.45593999997E+02  0.45594000000E+02  0.51100000000E-03 0. -1.
         11   -1    0    0    0    0 -0.00000000000E+00 -0.00000000000E+00 -0.45593999997E+02  0.45594000000E+02  0.51100000000E-03 0.  1.
    9900012    2    1    2    0    0  0.24569585273E+02  0.22375878162E+01 -0.35706469012E+02  0.47787271331E+02  0.20000001306E+02 0.  0.
         12    1    1    2    0    0 -0.24569585273E+02 -0.22375878162E+01  0.35706469012E+02  0.43400728669E+02  0.00000000000E+00 0. -1.
         11    1    3    3    0    0  0.23286685845E+01 -0.19603228875E+01 -0.13001538758E+00  0.30467142074E+01  0.51100000000E-03 0. -1.
        -11    1    3    3    0    0  0.13375911643E+02 -0.44820937214E+01 -0.14146286535E+02  0.19978027916E+02  0.51100000000E-03 0.  1.
        -12    1    3    3    0    0  0.88650050452E+01  0.86800044251E+01 -0.21430167090E+02  0.24762529208E+02  0.00000000000E+00 0.  1.
</event>
<event>
 7    1  0.2847961E-010  0.4778727E+02  0.7816164E-02  0.1312668E+00
        -11   -1    0    0    0    0  0.00000000000E+00  0.00000000000E+00  0.45593999997E+02  0.45594000000E+02  0.51100000000E-03 0.  1.
         11   -1    0    0    0    0 -0.00000000000E+00 -0.00000000000E+00 -0.45593999997E+02  0.45594000000E+02  0.51100000000E-03 0. -1.
    9900012    2    1    2    0    0  0.23523029866E+02  0.36149193876E+02  0.48503940505E+01  0.47787268734E+02  0.19999989468E+02 0.  0.
         12    1    1    2    0    0 -0.23523029866E+02 -0.36149193876E+02 -0.48503940505E+01  0.43400731266E+02  0.00000000000E+00 0. -1.
         11    1    3    3    0    0  0.15617793722E+00 -0.88832332487E+00 -0.24767046560E+01  0.26358255048E+01  0.51100000000E-03 0. -1.
        -11    1    3    3    0    0  0.10517546575E+02  0.11064314450E+02  0.15970675746E-01  0.15265585332E+02  0.51100000000E-03 0.  1.
         12    1    3    3    0    0  0.12849305354E+02  0.25973202750E+02  0.73111280308E+01  0.29885857897E+02  0.00000000000E+00 0. -1.
</event>
<event>
 7    1  0.2653124E-010  0.4778727E+02  0.7816164E-02  0.1312668E+00
        -11   -1    0    0    0    0  0.00000000000E+00  0.00000000000E+00  0.45593999997E+02  0.45594000000E+02  0.51100000000E-03 0.  1.
         11   -1    0    0    0    0 -0.00000000000E+00 -0.00000000000E+00 -0.45593999997E+02  0.45594000000E+02  0.51100000000E-03 0. -1.
    9900012    2    1    2    0    0  0.22391057663E+02 -0.14352197524E+01  0.37151094841E+02  0.47787272277E+02  0.20000005618E+02 0.  0.
         12    1    1    2    0    0 -0.22391057663E+02  0.14352197524E+01 -0.37151094841E+02  0.43400727723E+02  0.00000000000E+00 0. -1.
         11    1    3    3    0    0  0.18133009151E+02 -0.67085726317E+00  0.17281579493E+02  0.25058113664E+02  0.51100000000E-03 0. -1.
        -11    1    3    3    0    0  0.42650877511E+01  0.41314813715E+01  0.13016567124E+02  0.14307030852E+02  0.51100000000E-03 0.  1.
         12    1    3    3    0    0 -0.70392388565E-02 -0.48958438607E+01  0.68529482240E+01  0.84221277609E+01  0.00000000000E+00 0. -1.
</event>
<event>
 7    1  0.2653124E-010  0.4778727E+02  0.7816164E-02  0.1312668E+00
        -11   -1    0    0    0    0  0.00000000000E+00  0.00000000000E+00  0.45593999997E+02  0.45594000000E+02  0.51100000000E-03 0.  1.
         11   -1    0    0    0    0 -0.00000000000E+00 -0.00000000000E+00 -0.45593999997E+02  0.45594000000E+02  0.51100000000E-03 0. -1.
    9900012    2    1    2    0    0 -0.25160259164E+02  0.14684380723E+02  0.32170690325E+02  0.47787274264E+02  0.20000014678E+02 0.  0.
         12    1    1    2    0    0  0.25160259164E+02 -0.14684380723E+02 -0.32170690325E+02  0.43400725736E+02  0.00000000000E+00 0. -1.
         11    1    3    3    0    0 -0.15276602521E+01 -0.25244882753E+01  0.42350653739E+00  0.29809637614E+01  0.51100000000E-03 0. -1.
        -11    1    3    3    0    0 -0.42919402856E+01  0.21492904038E+00  0.10772458116E+02  0.11597965340E+02  0.51100000000E-03 0.  1.
         12    1    3    3    0    0 -0.19340658627E+02  0.16993939958E+02  0.20974725672E+02  0.33208345163E+02  0.00000000000E+00 0. -1.
</event>
<event>
 7    1  0.2653124E-010  0.4778727E+02  0.7816164E-02  0.1312668E+00
        -11   -1    0    0    0    0  0.00000000000E+00  0.00000000000E+00  0.45593999997E+02  0.45594000000E+02  0.51100000000E-03 0.  1.
         11   -1    0    0    0    0 -0.00000000000E+00 -0.00000000000E+00 -0.45593999997E+02  0.45594000000E+02  0.51100000000E-03 0. -1.
    9900012    2    1    2    0    0  0.15472109963E+02  0.21954599450E+02  0.34091533783E+02  0.47787270750E+02  0.19999998660E+02 0.  0.
         12    1    1    2    0    0 -0.15472109963E+02 -0.21954599450E+02 -0.34091533783E+02  0.43400729250E+02  0.00000000000E+00 0. -1.
         11    1    3    3    0    0  0.21467400194E+00  0.34172010174E+00  0.99471411759E+01  0.99553239721E+01  0.51100000000E-03 0. -1.
        -11    1    3    3    0    0  0.26555174235E+01  0.52380206635E+01  0.13205320412E+02  0.14452305030E+02  0.51100000000E-03 0.  1.
        -12    1    3    3    0    0  0.12601918538E+02  0.16374858684E+02  0.10939072196E+02  0.23379641748E+02  0.00000000000E+00 0.  1.
</event>
<event>
 7    1  0.2653124E-010  0.4778727E+02  0.7816164E-02  0.1312668E+00
        -11   -1    0    0    0    0  0.00000000000E+00  0.00000000000E+00  0.45593999997E+02  0.45594000000E+02  0.51100000000E-03 0.  1.
         11   -1    0    0    0    0 -0.00000000000E+00 -0.00000000000E+00 -0.45593999997E+02  0.45594000000E+02  0.51100000000E-03 0. -1.
    9900012    2    1    2    0    0 -0.16508745894E+02  0.36417164486E+02 -0.16878238431E+02  0.47787268523E+02  0.19999988505E+02 0.  0.
         12    1    1    2    0    0  0.16508745894E+02 -0.36417164486E+02  0.16878238431E+02  0.43400731477E+02  0.00000000000E+00 0. -1.
         11    1    3    3    0    0 -0.93250866714E+01  0.13423876889E+02 -0.74828891487E+01  0.17976410722E+02  0.51100000000E-03 0. -1.
        -11    1    3    3    0    0 -0.63520496463E+01  0.12037013113E+02 -0.12408267951E+02  0.18417473583E+02  0.51100000000E-03 0.  1.
         12    1    3    3    0    0 -0.83160957648E+00  0.10956274483E+02  0.30129186681E+01  0.11393384218E+02  0.00000000000E+00 0. -1.
</event>
<event>
 7    1  0.2653124E-010  0.4778727E+02  0.7816164E-02  0.1312668E+00
        -11   -1    0    0    0    0  0.00000000000E+00  0.00000000000E+00  0.45593999997E+02  0.45594000000E+02  0.51100000000E-03 0. -1.
         11   -1    0    0    0    0 -0.00000000000E+00 -0.00000000000E+00 -0.45593999997E+02  0.45594000000E+02  0.51100000000E-03 0.  1.
    9900012    2    1    2    0    0 -0.52330910713E+01 -0.43054372921E+02  0.15996731018E+01  0.47787271621E+02  0.20000002630E+02 0.  0.
         12    1    1    2    0    0  0.52330910713E+01  0.43054372921E+02 -0.15996731018E+01  0.43400728379E+02  0.00000000000E+00 0. -1.
         11    1    3    3    0    0  0.11317236074E+01  0.54060223390E+00 -0.27398349097E+01  0.30132614710E+01  0.51100000000E-03 0. -1.
        -11    1    3    3    0    0  0.97293921217E+00 -0.13453280737E+02  0.31541851319E+00  0.13492103706E+02  0.51100000000E-03 0.  1.
        -12    1    3    3    0    0 -0.73377538909E+01 -0.30141694417E+02  0.40240894983E+01  0.31281906444E+02  0.00000000000E+00 0.  1.
</event>
<event>
 7    1  0.2653124E-010  0.4778727E+02  0.7816164E-02  0.1312668E+00
        -11   -1    0    0    0    0  0.00000000000E+00  0.00000000000E+00  0.45593999997E+02  0.45594000000E+02  0.51100000000E-03 0. -1.
         11   -1    0    0    0    0 -0.00000000000E+00 -0.00000000000E+00 -0.45593999997E+02  0.45594000000E+02  0.51100000000E-03 0.  1.
    9900012    2    1    2    0    0 -0.24367810652E+02  0.89316730062E+01 -0.34785890200E+02  0.47787272637E+02  0.20000007260E+02 0.  0.
         12    1    1    2    0    0  0.24367810652E+02 -0.89316730062E+01  0.34785890200E+02  0.43400727363E+02  0.00000000000E+00 0. -1.
         11    1    3    3    0    0 -0.82338371678E+01  0.59168050829E+01 -0.12597364047E+02  0.16170907151E+02  0.51100000000E-03 0. -1.
        -11    1    3    3    0    0  0.26896219769E+01  0.25282511763E+01 -0.37623284639E+01  0.52707908439E+01  0.51100000000E-03 0.  1.
        -12    1    3    3    0    0 -0.18823595461E+02  0.48661674707E+00 -0.18426197689E+02  0.26345574642E+02  0.00000000000E+00 0.  1.
</event>
<event>
 7    1  0.2754492E-010  0.4778727E+02  0.7816164E-02  0.1312668E+00
        -11   -1    0    0    0    0  0.00000000000E+00  0.00000000000E+00  0.45593999997E+02  0.45594000000E+02  0.51100000000E-03 0. -1.
         11   -1    0    0    0    0 -0.00000000000E+00 -0.00000000000E+00 -0.45593999997E+02  0.45594000000E+02  0.51100000000E-03 0.  1.
    9900012    2    1    2    0    0  0.67260777757E+01  0.11540285568E+02 -0.41294124697E+02  0.47787273650E+02  0.20000011878E+02 0.  0.
         12    1    1    2    0    0 -0.67260777757E+01 -0.11540285568E+02  0.41294124697E+02  0.43400726350E+02  0.00000000000E+00 0. -1.
         11    1    3    3    0    0  0.67522594807E+01  0.11564324251E+02 -0.17474827886E+02  0.22015817345E+02  0.51100000000E-03 0. -1.
        -11    1    3    3    0    0  0.47412436533E+01 -0.10298423881E+01 -0.99207748984E+01  0.11043629004E+02  0.51100000000E-03 0.  1.
         12    1    3    3    0    0 -0.47674253583E+01  0.10058037051E+01 -0.13898521912E+02  0.14727827300E+02  0.00000000000E+00 0. -1.
</event>
<event>
 7    1  0.2653124E-010  0.4778727E+02  0.7816164E-02  0.1312668E+00
        -11   -1    0    0    0    0  0.00000000000E+00  0.00000000000E+00  0.45593999997E+02  0.45594000000E+02  0.51100000000E-03 0. -1.
         11   -1    0    0    0    0 -0.00000000000E+00 -0.00000000000E+00 -0.45593999997E+02  0.45594000000E+02  0.51100000000E-03 0.  1.
    9900012    2    1    2    0    0  0.34012507097E+02  0.26706833270E+02  0.36766319714E+01  0.47787271838E+02  0.20000003619E+02 0.  0.
         12    1    1    2    0    0 -0.34012507097E+02 -0.26706833270E+02 -0.36766319714E+01  0.43400728162E+02  0.00000000000E+00 0. -1.
         11    1    3    3    0    0  0.17370942955E+00 -0.42256027968E+00  0.11663163641E+01  0.12526077910E+01  0.51100000000E-03 0. -1.
        -11    1    3    3    0    0  0.28207628114E+02  0.24092358972E+02 -0.41160918885E+01  0.37323642070E+02  0.51100000000E-03 0.  1.
         12    1    3    3    0    0  0.56311695537E+01  0.30370345771E+01  0.66264074958E+01  0.92110219772E+01  0.00000000000E+00 0. -1.
</event>
<event>
 7    1  0.2653124E-010  0.4778727E+02  0.7816164E-02  0.1312668E+00
        -11   -1    0    0    0    0  0.00000000000E+00  0.00000000000E+00  0.45593999997E+02  0.45594000000E+02  0.51100000000E-03 0. -1.
         11   -1    0    0    0    0 -0.00000000000E+00 -0.00000000000E+00 -0.45593999997E+02  0.45594000000E+02  0.51100000000E-03 0.  1.
    9900012    2    1    2    0    0 -0.38942198501E+02 -0.19097809676E+02  0.15498807750E+01  0.47787270871E+02  0.19999999210E+02 0.  0.
         12    1    1    2    0    0  0.38942198501E+02  0.19097809676E+02 -0.15498807750E+01  0.43400729129E+02  0.00000000000E+00 0. -1.
         11    1    3    3    0    0 -0.18216920098E+02 -0.13464645007E+02 -0.51920111343E+01  0.23240262970E+02  0.51100000000E-03 0.  1.
        -11    1    3    3    0    0 -0.39214343905E+01 -0.22948949437E+01 -0.23890781599E+01  0.51334087307E+01  0.51100000000E-03 0. -1.
        -12    1    3    3    0    0 -0.16803844012E+02 -0.33382697251E+01  0.91309700693E+01  0.19413599171E+02  0.00000000000E+00 0.  1.
</event>
<event>
 7    1  0.2653124E-010  0.4778727E+02  0.7816164E-02  0.1312668E+00
        -11   -1    0    0    0    0  0.00000000000E+00  0.00000000000E+00  0.45593999997E+02  0.45594000000E+02  0.51100000000E-03 0.  1.
         11   -1    0    0    0    0 -0.00000000000E+00 -0.00000000000E+00 -0.45593999997E+02  0.45594000000E+02  0.51100000000E-03 0. -1.
    9900012    2    1    2    0    0 -0.27369183240E+02 -0.24392755446E+02  0.23228100188E+02  0.47787270193E+02  0.19999996117E+02 0.  0.
         12    1    1    2    0    0  0.27369183240E+02  0.24392755446E+02 -0.23228100188E+02  0.43400729807E+02  0.00000000000E+00 0. -1.
         11    1    3    3    0    0 -0.24872622747E+01 -0.59411306222E+01  0.52294422772E+00  0.64619639135E+01  0.51100000000E-03 0. -1.
        -11    1    3    3    0    0 -0.17759587590E+02 -0.57786755631E+01  0.70526286681E+01  0.19963356783E+02  0.51100000000E-03 0.  1.
         12    1    3    3    0    0 -0.71223333746E+01 -0.12672949260E+02  0.15652527293E+02  0.21361949497E+02  0.00000000000E+00 0. -1.
</event>
<event>
 7    1  0.2653124E-010  0.4778722E+02  0.7816164E-02  0.1312668E+00
        -11   -1    0    0    0    0  0.00000000000E+00  0.00000000000E+00  0.45593999997E+02  0.45594000000E+02  0.51100000000E-03 0.  1.
         11   -1    0    0    0    0 -0.00000000000E+00 -0.00000000000E+00 -0.45593999997E+02  0.45594000000E+02  0.51100000000E-03 0. -1.
    9900012    2    1    2    0    0 -0.39536363835E+02 -0.13119815694E+02  0.12180894730E+02  0.47787218606E+02  0.19999760913E+02 0.  0.
         12    1    1    2    0    0  0.39536363835E+02  0.13119815694E+02 -0.12180894730E+02  0.43400781394E+02  0.00000000000E+00 0. -1.
         11    1    3    3    0    0 -0.13322233875E+00  0.10455175846E+01  0.74268325969E+00  0.12893540617E+01  0.51100000000E-03 0. -1.
        -11    1    3    3    0    0 -0.20874395603E+02 -0.16142309049E+02  0.77516045947E+01  0.27502761811E+02  0.51100000000E-03 0.  1.
        -12    1    3    3    0    0 -0.18528745894E+02  0.19769757701E+01  0.36866068755E+01  0.18995102733E+02  0.00000000000E+00 0.  1.
</event>
<event>
 7    1  0.2653124E-010  0.4778727E+02  0.7816164E-02  0.1312668E+00
        -11   -1    0    0    0    0  0.00000000000E+00  0.00000000000E+00  0.45593999997E+02  0.45594000000E+02  0.51100000000E-03 0.  1.
         11   -1    0    0    0    0 -0.00000000000E+00 -0.00000000000E+00 -0.45593999997E+02  0.45594000000E+02  0.51100000000E-03 0. -1.
    9900012    2    1    2    0    0 -0.27864036246E+02  0.16856318038E+02  0.28689426932E+02  0.47787271994E+02  0.20000004331E+02 0.  0.
         12    1    1    2    0    0  0.27864036246E+02 -0.16856318038E+02 -0.28689426932E+02  0.43400728006E+02  0.00000000000E+00 0. -1.
         11    1    3    3    0    0 -0.54596738834E+01  0.19300718066E+01  0.45764075072E+01  0.73808347784E+01  0.51100000000E-03 0.  1.
        -11    1    3    3    0    0 -0.10781377035E+02  0.17180894818E+02  0.12521311350E+02  0.23837039995E+02  0.51100000000E-03 0. -1.
         12    1    3    3    0    0 -0.11622985328E+02 -0.22546485865E+01  0.11591708075E+02  0.16569397221E+02  0.00000000000E+00 0. -1.
</event>
<event>
 7    1  0.2684829E-010  0.4778727E+02  0.7816164E-02  0.1312668E+00
        -11   -1    0    0    0    0  0.00000000000E+00  0.00000000000E+00  0.45593999997E+02  0.45594000000E+02  0.51100000000E-03 0. -1.
         11   -1    0    0    0    0 -0.00000000000E+00 -0.00000000000E+00 -0.45593999997E+02  0.45594000000E+02  0.51100000000E-03 0.  1.
    9900012    2    1    2    0    0  0.18213509359E+02  0.33299500935E+02 -0.21048397832E+02  0.47787265709E+02  0.19999975674E+02 0.  0.
         12    1    1    2    0    0 -0.18213509359E+02 -0.33299500935E+02  0.21048397832E+02  0.43400734291E+02  0.00000000000E+00 0. -1.
         11    1    3    3    0    0  0.45487464481E+01  0.69596123041E+01 -0.12239632513E+02  0.14796482757E+02  0.51100000000E-03 0. -1.
        -11    1    3    3    0    0  0.92620947351E+01  0.18804061857E+02 -0.11433666843E+02  0.23876931942E+02  0.51100000000E-03 0.  1.
         12    1    3    3    0    0  0.44026681755E+01  0.75358267740E+01  0.26249015238E+01  0.91138510104E+01  0.00000000000E+00 0. -1.
</event>
<event>
 7    1  0.2653124E-010  0.4778727E+02  0.7816164E-02  0.1312668E+00
        -11   -1    0    0    0    0  0.00000000000E+00  0.00000000000E+00  0.45593999997E+02  0.45594000000E+02  0.51100000000E-03 0.  1.
         11   -1    0    0    0    0 -0.00000000000E+00 -0.00000000000E+00 -0.45593999997E+02  0.45594000000E+02  0.51100000000E-03 0. -1.
    9900012    2    1    2    0    0 -0.25319803985E+02 -0.11317047949E+02  0.33383461822E+02  0.47787267617E+02  0.19999984374E+02 0.  0.
         12    1    1    2    0    0  0.25319803985E+02  0.11317047949E+02 -0.33383461822E+02  0.43400732383E+02  0.00000000000E+00 0. -1.
         11    1    3    3    0    0 -0.64945197183E+01 -0.78785788494E+01  0.40643852565E+01  0.10989541339E+02  0.51100000000E-03 0. -1.
        -11    1    3    3    0    0 -0.11699344709E+02 -0.68542310450E+01  0.13602506249E+02  0.19206335579E+02  0.51100000000E-03 0.  1.
        -12    1    3    3    0    0 -0.71259395576E+01  0.34157619453E+01  0.15716570317E+02  0.17591390700E+02  0.00000000000E+00 0.  1.
</event>
<event>
 7    1  0.2653124E-010  0.4778727E+02  0.7816164E-02  0.1312668E+00
        -11   -1    0    0    0    0  0.00000000000E+00  0.00000000000E+00  0.45593999997E+02  0.45594000000E+02  0.51100000000E-03 0.  1.
         11   -1    0    0    0    0 -0.00000000000E+00 -0.00000000000E+00 -0.45593999997E+02  0.45594000000E+02  0.51100000000E-03 0. -1.
    9900012    2    1    2    0    0 -0.39640097514E+02  0.88500437057E+01  0.15295838399E+02  0.47787271011E+02  0.19999999846E+02 0.  0.
         12    1    1    2    0    0  0.39640097514E+02 -0.88500437057E+01 -0.15295838399E+02  0.43400728989E+02  0.00000000000E+00 0. -1.
         11    1    3    3    0    0 -0.47056765949E+01  0.42042473727E+01  0.46709881524E+01  0.78509374452E+01  0.51100000000E-03 0. -1.
        -11    1    3    3    0    0 -0.35672022952E+02  0.67085480565E+01  0.10218575470E+02  0.37708316370E+02  0.51100000000E-03 0.  1.
        -12    1    3    3    0    0  0.73760203318E+00 -0.20627517235E+01  0.40627477570E+00  0.22280171960E+01  0.00000000000E+00 0.  1.
</event>
<event>
 7    1  0.2653124E-010  0.4778727E+02  0.7816164E-02  0.1312668E+00
        -11   -1    0    0    0    0  0.00000000000E+00  0.00000000000E+00  0.45593999997E+02  0.45594000000E+02  0.51100000000E-03 0.  1.
         11   -1    0    0    0    0 -0.00000000000E+00 -0.00000000000E+00 -0.45593999997E+02  0.45594000000E+02  0.51100000000E-03 0. -1.
    9900012    2    1    2    0    0  0.15925642684E+02  0.21688978362E+02  0.34052685733E+02  0.47787270940E+02  0.19999999523E+02 0.  0.
         12    1    1    2    0    0 -0.15925642684E+02 -0.21688978362E+02 -0.34052685733E+02  0.43400729060E+02  0.00000000000E+00 0. -1.
         11    1    3    3    0    0 -0.17765046007E+01  0.10677209776E+01  0.12302045674E+01  0.24102697403E+01  0.51100000000E-03 0. -1.
        -11    1    3    3    0    0  0.10092352499E+01  0.81622247929E+01  0.18065728761E+02  0.19849710962E+02  0.51100000000E-03 0.  1.
         12    1    3    3    0    0  0.16692912035E+02  0.12459032592E+02  0.14756752405E+02  0.25527290238E+02  0.00000000000E+00 0. -1.
</event>
<event>
 7    1  0.2653124E-010  0.4778727E+02  0.7816164E-02  0.1312668E+00
        -11   -1    0    0    0    0  0.00000000000E+00  0.00000000000E+00  0.45593999997E+02  0.45594000000E+02  0.51100000000E-03 0. -1.
         11   -1    0    0    0    0 -0.00000000000E+00 -0.00000000000E+00 -0.45593999997E+02  0.45594000000E+02  0.51100000000E-03 0.  1.
    9900012    2    1    2    0    0 -0.14937729717E+02 -0.40121529754E+02 -0.71239259009E+01  0.47787271444E+02  0.20000001823E+02 0.  0.
         12    1    1    2    0    0  0.14937729717E+02  0.40121529754E+02  0.71239259009E+01  0.43400728556E+02  0.00000000000E+00 0. -1.
         11    1    3    3    0    0 -0.43453474336E+01 -0.11731498639E+02 -0.42204474495E+01  0.13203116358E+02  0.51100000000E-03 0. -1.
        -11    1    3    3    0    0 -0.10156920041E+02 -0.18817999415E+02 -0.90284088108E+01  0.23211899806E+02  0.51100000000E-03 0.  1.
         12    1    3    3    0    0 -0.43546224259E+00 -0.95720317012E+01  0.61249303595E+01  0.11372255280E+02  0.00000000000E+00 0. -1.
</event>
<event>
 7    1  0.4371043E-010  0.4778727E+02  0.7816164E-02  0.1312668E+00
        -11   -1    0    0    0    0  0.00000000000E+00  0.00000000000E+00  0.45593999997E+02  0.45594000000E+02  0.51100000000E-03 0. -1.
         11   -1    0    0    0    0 -0.00000000000E+00 -0.00000000000E+00 -0.45593999997E+02  0.45594000000E+02  0.51100000000E-03 0.  1.
    9900012    2    1    2    0    0  0.22795712676E+01  0.16039867379E+02 -0.40263503469E+02  0.47787268413E+02  0.19999988001E+02 0.  0.
         12    1    1    2    0    0 -0.22795712676E+01 -0.16039867379E+02  0.40263503469E+02  0.43400731587E+02  0.00000000000E+00 0. -1.
         11    1    3    3    0    0  0.72084278824E+01  0.90502906195E+01 -0.14168810816E+02  0.18292741539E+02  0.51100000000E-03 0. -1.
        -11    1    3    3    0    0 -0.21600600887E+01  0.96298098989E+01 -0.17603557467E+02  0.20181286729E+02  0.51100000000E-03 0.  1.
         12    1    3    3    0    0 -0.27687965261E+01 -0.26402331399E+01 -0.84911351866E+01  0.93132401447E+01  0.00000000000E+00 0. -1.
</event>
<event>
 7    1  0.2653124E-010  0.4778727E+02  0.7816164E-02  0.1312668E+00
        -11   -1    0    0    0    0  0.00000000000E+00  0.00000000000E+00  0.45593999997E+02  0.45594000000E+02  0.51100000000E-03 0. -1.
         11   -1    0    0    0    0 -0.00000000000E+00 -0.00000000000E+00 -0.45593999997E+02  0.45594000000E+02  0.51100000000E-03 0.  1.
    9900012    2    1    2    0    0  0.37116937193E+02  0.14848850680E+02 -0.16895789671E+02  0.47787273028E+02  0.20000009044E+02 0.  0.
         12    1    1    2    0    0 -0.37116937193E+02 -0.14848850680E+02  0.16895789671E+02  0.43400726972E+02  0.00000000000E+00 0. -1.
         11    1    3    3    0    0  0.10297842342E+02  0.75834011984E+01 -0.30179304339E+01  0.13140069825E+02  0.51100000000E-03 0. -1.
        -11    1    3    3    0    0  0.22507383724E+02  0.36694526538E+01 -0.38113365834E+01  0.23120845393E+02  0.51100000000E-03 0.  1.
         12    1    3    3    0    0  0.43117111265E+01  0.35959968277E+01 -0.10066522654E+02  0.11526357810E+02  0.00000000000E+00 0. -1.
</event>
<event>
 7    1  0.2653124E-010  0.4778728E+02  0.7816164E-02  0.1312668E+00
        -11   -1    0    0    0    0  0.00000000000E+00  0.00000000000E+00  0.45593999997E+02  0.45594000000E+02  0.51100000000E-03 0.  1.
         11   -1    0    0    0    0 -0.00000000000E+00 -0.00000000000E+00 -0.45593999997E+02  0.45594000000E+02  0.51100000000E-03 0. -1.
    9900012    2    1    2    0    0 -0.20697802923E+02  0.34437469051E+02 -0.16409889863E+02  0.47787276437E+02  0.20000024588E+02 0.  0.
         12    1    1    2    0    0  0.20697802923E+02 -0.34437469051E+02  0.16409889863E+02  0.43400723563E+02  0.00000000000E+00 0. -1.
         11    1    3    3    0    0 -0.74166006657E+01  0.12773962332E+02 -0.70210409677E+01  0.16354665868E+02  0.51100000000E-03 0.  1.
        -11    1    3    3    0    0 -0.12506506896E+01  0.16786419806E+02 -0.35736887004E+01  0.17208116348E+02  0.51100000000E-03 0. -1.
         12    1    3    3    0    0 -0.12030551568E+02  0.48770869121E+01 -0.58151601947E+01  0.14224494222E+02  0.00000000000E+00 0. -1.
</event>
<event>
 7    1  0.2653124E-010  0.4778727E+02  0.7816164E-02  0.1312668E+00
        -11   -1    0    0    0    0  0.00000000000E+00  0.00000000000E+00  0.45593999997E+02  0.45594000000E+02  0.51100000000E-03 0. -1.
         11   -1    0    0    0    0 -0.00000000000E+00 -0.00000000000E+00 -0.45593999997E+02  0.45594000000E+02  0.51100000000E-03 0.  1.
    9900012    2    1    2    0    0 -0.35492469867E+02 -0.15288190184E+02 -0.19752945071E+02  0.47787274023E+02  0.20000013582E+02 0.  0.
         12    1    1    2    0    0  0.35492469867E+02  0.15288190184E+02  0.19752945071E+02  0.43400725977E+02  0.00000000000E+00 0. -1.
         11    1    3    3    0    0 -0.12352033314E+02  0.25243002324E-01 -0.38455928590E+01  0.12936844627E+02  0.51100000000E-03 0. -1.
        -11    1    3    3    0    0 -0.36618118255E+01 -0.12516587952E+01  0.24809748881E+01  0.45968197965E+01  0.51100000000E-03 0.  1.
        -12    1    3    3    0    0 -0.19478624727E+02 -0.14061774391E+02 -0.18388327100E+02  0.30253609600E+02  0.00000000000E+00 0.  1.
</event>
<event>
 7    1  0.2653124E-010  0.4778727E+02  0.7816164E-02  0.1312668E+00
        -11   -1    0    0    0    0  0.00000000000E+00  0.00000000000E+00  0.45593999997E+02  0.45594000000E+02  0.51100000000E-03 0. -1.
         11   -1    0    0    0    0 -0.00000000000E+00 -0.00000000000E+00 -0.45593999997E+02  0.45594000000E+02  0.51100000000E-03 0.  1.
    9900012    2    1    2    0    0 -0.43277542430E+02  0.24795431864E+01 -0.21283309182E+01  0.47787267222E+02  0.19999982570E+02 0.  0.
         12    1    1    2    0    0  0.43277542430E+02 -0.24795431864E+01  0.21283309182E+01  0.43400732778E+02  0.00000000000E+00 0. -1.
         11    1    3    3    0    0 -0.12509375583E+02  0.67101116410E+01  0.43406333278E+01  0.14844230316E+02  0.51100000000E-03 0. -1.
        -11    1    3    3    0    0 -0.12982810832E+02 -0.14115990655E+01  0.16997630383E+01  0.13169479248E+02  0.51100000000E-03 0.  1.
        -12    1    3    3    0    0 -0.17785356015E+02 -0.28189693891E+01 -0.81687272842E+01  0.19773557658E+02  0.00000000000E+00 0.  1.
</event>
<event>
 7    1  0.2653124E-010  0.4778727E+02  0.7816164E-02  0.1312668E+00
        -11   -1    0    0    0    0  0.00000000000E+00  0.00000000000E+00  0.45593999997E+02  0.45594000000E+02  0.51100000000E-03 0.  1.
         11   -1    0    0    0    0 -0.00000000000E+00 -0.00000000000E+00 -0.45593999997E+02  0.45594000000E+02  0.51100000000E-03 0. -1.
    9900012    2    1    2    0    0  0.42162453871E+02  0.77834048676E+01 -0.67356961569E+01  0.47787268319E+02  0.19999987572E+02 0.  0.
         12    1    1    2    0    0 -0.42162453871E+02 -0.77834048676E+01  0.67356961569E+01  0.43400731681E+02  0.00000000000E+00 0. -1.
         11    1    3    3    0    0  0.21264701533E+02 -0.23533996632E+01 -0.42460870149E+01  0.21811815066E+02  0.51100000000E-03 0. -1.
        -11    1    3    3    0    0  0.11701698394E+02  0.34437238971E+01 -0.66154974966E+01  0.13876375138E+02  0.51100000000E-03 0.  1.
        -12    1    3    3    0    0  0.91960539439E+01  0.66930806337E+01  0.41258883546E+01  0.12099078115E+02  0.00000000000E+00 0.  1.
</event>
<event>
 7    1  0.2653124E-010  0.4778727E+02  0.7816164E-02  0.1312668E+00
        -11   -1    0    0    0    0  0.00000000000E+00  0.00000000000E+00  0.45593999997E+02  0.45594000000E+02  0.51100000000E-03 0.  1.
         11   -1    0    0    0    0 -0.00000000000E+00 -0.00000000000E+00 -0.45593999997E+02  0.45594000000E+02  0.51100000000E-03 0. -1.
    9900012    2    1    2    0    0  0.31003515474E+02  0.13694801774E+01  0.30340228893E+02  0.47787274925E+02  0.20000017695E+02 0.  0.
         12    1    1    2    0    0 -0.31003515474E+02 -0.13694801774E+01 -0.30340228893E+02  0.43400725075E+02  0.00000000000E+00 0. -1.
         11    1    3    3    0    0  0.18035049029E+02  0.56916199354E+00  0.16704432374E+02  0.24589123613E+02  0.51100000000E-03 0. -1.
        -11    1    3    3    0    0  0.15789857636E+02  0.14676544752E+01  0.11801531366E+02  0.19767391246E+02  0.51100000000E-03 0.  1.
         12    1    3    3    0    0 -0.28213911914E+01 -0.66733629131E+00  0.18342651531E+01  0.34307600663E+01  0.00000000000E+00 0. -1.
</event>
<event>
 7    1  0.3374254E-010  0.4778733E+02  0.7816164E-02  0.1312668E+00
        -11   -1    0    0    0    0  0.00000000000E+00  0.00000000000E+00  0.45593999997E+02  0.45594000000E+02  0.51100000000E-03 0.  1.
         11   -1    0    0    0    0 -0.00000000000E+00 -0.00000000000E+00 -0.45593999997E+02  0.45594000000E+02  0.51100000000E-03 0. -1.
    9900012    2    1    2    0    0 -0.36589876811E+02 -0.23286621226E+02  0.15914426388E+01  0.47787326009E+02  0.20000250604E+02 0.  0.
         12    1    1    2    0    0  0.36589876811E+02  0.23286621226E+02 -0.15914426388E+01  0.43400673991E+02  0.00000000000E+00 0. -1.
         11    1    3    3    0    0 -0.78641126964E+01  0.72839888973E+00  0.13480039215E+01  0.80119877857E+01  0.51100000000E-03 0. -1.
        -11    1    3    3    0    0 -0.24088831405E+02 -0.15160438230E+02  0.46713274462E+01  0.28843231201E+02  0.51100000000E-03 0.  1.
         12    1    3    3    0    0 -0.46369327099E+01 -0.88545818865E+01 -0.44278887289E+01  0.10932107022E+02  0.00000000000E+00 0. -1.
</event>
<event>
 7    1  0.2653124E-010  0.4778726E+02  0.7816164E-02  0.1312668E+00
        -11   -1    0    0    0    0  0.00000000000E+00  0.00000000000E+00  0.45593999997E+02  0.45594000000E+02  0.51100000000E-03 0.  1.
         11   -1    0    0    0    0 -0.00000000000E+00 -0.00000000000E+00 -0.45593999997E+02  0.45594000000E+02  0.51100000000E-03 0. -1.
    9900012    2    1    2    0    0 -0.97879914040E+01 -0.38471955790E+02 -0.17542168297E+02  0.47787264677E+02  0.19999970968E+02 0.  0.
         12    1    1    2    0    0  0.97879914040E+01  0.38471955790E+02  0.17542168297E+02  0.43400735323E+02  0.00000000000E+00 0. -1.
         11    1    3    3    0    0  0.22654217402E+01 -0.13766926981E+02 -0.80335249715E+01  0.16099625396E+02  0.51100000000E-03 0. -1.
        -11    1    3    3    0    0 -0.24723315845E+01 -0.18641240140E+02 -0.47805455641E+01  0.19402625430E+02  0.51100000000E-03 0.  1.
        -12    1    3    3    0    0 -0.95810815596E+01 -0.60637886687E+01 -0.47280977612E+01  0.12285013851E+02  0.00000000000E+00 0.  1.
</event>
<event>
 7    1  0.2653124E-010  0.4778727E+02  0.7816164E-02  0.1312668E+00
        -11   -1    0    0    0    0  0.00000000000E+00  0.00000000000E+00  0.45593999997E+02  0.45594000000E+02  0.51100000000E-03 0.  1.
         11   -1    0    0    0    0 -0.00000000000E+00 -0.00000000000E+00 -0.45593999997E+02  0.45594000000E+02  0.51100000000E-03 0. -1.
    9900012    2    1    2    0    0 -0.20581769879E+02  0.11452894512E+01  0.38192964956E+02  0.47787268308E+02  0.19999987524E+02 0.  0.
         12    1    1    2    0    0  0.20581769879E+02 -0.11452894512E+01 -0.38192964956E+02  0.43400731692E+02  0.00000000000E+00 0. -1.
         11    1    3    3    0    0 -0.28532149308E+01  0.44069366711E+01  0.39068018342E+01  0.65440833657E+01  0.51100000000E-03 0. -1.
        -11    1    3    3    0    0  0.20318702204E+01  0.58166394545E-01  0.76281901873E+01  0.78943755748E+01  0.51100000000E-03 0.  1.
        -12    1    3    3    0    0 -0.19760425168E+02 -0.33198136145E+01  0.26657972934E+02  0.33348809368E+02  0.00000000000E+00 0.  1.
</event>
<event>
 7    1  0.2653124E-010  0.4778727E+02  0.7816164E-02  0.1312668E+00
        -11   -1    0    0    0    0  0.00000000000E+00  0.00000000000E+00  0.45593999997E+02  0.45594000000E+02  0.51100000000E-03 0.  1.
         11   -1    0    0    0    0 -0.00000000000E+00 -0.00000000000E+00 -0.45593999997E+02  0.45594000000E+02  0.51100000000E-03 0. -1.
    9900012    2    1    2    0    0  0.34641810829E+02 -0.22835146636E+01  0.26045226610E+02  0.47787270445E+02  0.19999997267E+02 0.  0.
         12    1    1    2    0    0 -0.34641810829E+02  0.22835146636E+01 -0.26045226610E+02  0.43400729555E+02  0.00000000000E+00 0. -1.
         11    1    3    3    0    0  0.66979610678E+01 -0.65095462251E+01  0.30782423484E+01  0.98342488650E+01  0.51100000000E-03 0. -1.
        -11    1    3    3    0    0 -0.75736856790E+00  0.67544379210E+00 -0.12558897256E-01  0.10148839594E+01  0.51100000000E-03 0.  1.
        -12    1    3    3    0    0  0.28701218329E+02  0.35505877694E+01  0.22979543159E+02  0.36938137621E+02  0.00000000000E+00 0.  1.
</event>
<event>
 7    1  0.2653124E-010  0.4778727E+02  0.7816164E-02  0.1312668E+00
        -11   -1    0    0    0    0  0.00000000000E+00  0.00000000000E+00  0.45593999997E+02  0.45594000000E+02  0.51100000000E-03 0. -1.
         11   -1    0    0    0    0 -0.00000000000E+00 -0.00000000000E+00 -0.45593999997E+02  0.45594000000E+02  0.51100000000E-03 0.  1.
    9900012    2    1    2    0    0  0.28824087110E+02  0.67155056626E+01 -0.31744249904E+02  0.47787269407E+02  0.19999992537E+02 0.  0.
         12    1    1    2    0    0 -0.28824087110E+02 -0.67155056626E+01  0.31744249904E+02  0.43400730593E+02  0.00000000000E+00 0. -1.
         11    1    3    3    0    0  0.26417280615E+02  0.60988915543E+01 -0.32983477615E+02  0.42696358031E+02  0.51100000000E-03 0.  1.
        -11    1    3    3    0    0  0.10747474362E+01  0.93149708279E+00 -0.14762916350E+01  0.20499283206E+01  0.51100000000E-03 0. -1.
         12    1    3    3    0    0  0.13320590583E+01 -0.31488297447E+00  0.27155193465E+01  0.30409830555E+01  0.00000000000E+00 0. -1.
</event>
<event>
 7    1  0.2653124E-010  0.4778722E+02  0.7816164E-02  0.1312668E+00
        -11   -1    0    0    0    0  0.00000000000E+00  0.00000000000E+00  0.45593999997E+02  0.45594000000E+02  0.51100000000E-03 0. -1.
         11   -1    0    0    0    0 -0.00000000000E+00 -0.00000000000E+00 -0.45593999997E+02  0.45594000000E+02  0.51100000000E-03 0.  1.
    9900012    2    1    2    0    0 -0.22999618822E+02  0.28852113486E+02 -0.22851706601E+02  0.47787223358E+02  0.19999782577E+02 0.  0.
         12    1    1    2    0    0  0.22999618822E+02 -0.28852113486E+02  0.22851706601E+02  0.43400776642E+02  0.00000000000E+00 0. -1.
         11    1    3    3    0    0 -0.14526408561E+01  0.48825039034E+01 -0.55155068043E+01  0.75079841098E+01  0.51100000000E-03 0. -1.
        -11    1    3    3    0    0 -0.14170169344E+02  0.24899561304E+02 -0.11686906736E+02  0.30941325791E+02  0.51100000000E-03 0.  1.
        -12    1    3    3    0    0 -0.73768086226E+01 -0.92995172167E+00 -0.56492930601E+01  0.93379134574E+01  0.00000000000E+00 0.  1.
</event>
<event>
 7    1  0.2653124E-010  0.4778729E+02  0.7816164E-02  0.1312668E+00
        -11   -1    0    0    0    0  0.00000000000E+00  0.00000000000E+00  0.45593999997E+02  0.45594000000E+02  0.51100000000E-03 0. -1.
         11   -1    0    0    0    0 -0.00000000000E+00 -0.00000000000E+00 -0.45593999997E+02  0.45594000000E+02  0.51100000000E-03 0.  1.
    9900012    2    1    2    0    0 -0.27852719090E+02 -0.21198690855E+02 -0.25660545278E+02  0.47787285275E+02  0.20000064885E+02 0.  0.
         12    1    1    2    0    0  0.27852719090E+02  0.21198690855E+02  0.25660545278E+02  0.43400714725E+02  0.00000000000E+00 0. -1.
         11    1    3    3    0    0 -0.14611749939E+02 -0.53087217733E+01 -0.84350396201E+01  0.17687160790E+02  0.51100000000E-03 0. -1.
        -11    1    3    3    0    0 -0.14425650000E+02 -0.89034532354E+01 -0.88302177020E+01  0.19113963544E+02  0.51100000000E-03 0.  1.
         12    1    3    3    0    0  0.11846808490E+01 -0.69865158465E+01 -0.83952879554E+01  0.10986160942E+02  0.00000000000E+00 0. -1.
</event>
<event>
 7    1  0.2653124E-010  0.4778727E+02  0.7816164E-02  0.1312668E+00
        -11   -1    0    0    0    0  0.00000000000E+00  0.00000000000E+00  0.45593999997E+02  0.45594000000E+02  0.51100000000E-03 0.  1.
         11   -1    0    0    0    0 -0.00000000000E+00 -0.00000000000E+00 -0.45593999997E+02  0.45594000000E+02  0.51100000000E-03 0. -1.
    9900012    2    1    2    0    0  0.21031979666E+02 -0.87476053880E+01  0.36942637365E+02  0.47787271617E+02  0.20000002611E+02 0.  0.
         12    1    1    2    0    0 -0.21031979666E+02  0.87476053880E+01 -0.36942637365E+02  0.43400728383E+02  0.00000000000E+00 0. -1.
         11    1    3    3    0    0  0.12625572472E+02 -0.72595933930E+01  0.11040637775E+02  0.18275734164E+02  0.51100000000E-03 0. -1.
        -11    1    3    3    0    0  0.10017071579E+02 -0.24968547468E+01  0.13656657640E+02  0.17119588336E+02  0.51100000000E-03 0.  1.
         12    1    3    3    0    0 -0.16106643851E+01  0.10088427519E+01  0.12245341949E+02  0.12391949117E+02  0.00000000000E+00 0. -1.
</event>
<event>
 7    1  0.2653124E-010  0.4778727E+02  0.7816164E-02  0.1312668E+00
        -11   -1    0    0    0    0  0.00000000000E+00  0.00000000000E+00  0.45593999997E+02  0.45594000000E+02  0.51100000000E-03 0. -1.
         11   -1    0    0    0    0 -0.00000000000E+00 -0.00000000000E+00 -0.45593999997E+02  0.45594000000E+02  0.51100000000E-03 0.  1.
    9900012    2    1    2    0    0 -0.17735795213E+02 -0.13960318833E+02 -0.37069858542E+02  0.47787270212E+02  0.19999996206E+02 0.  0.
         12    1    1    2    0    0  0.17735795213E+02  0.13960318833E+02  0.37069858542E+02  0.43400729788E+02  0.00000000000E+00 0. -1.
         11    1    3    3    0    0 -0.97277413600E+01 -0.71476115304E+01 -0.52859666276E+01  0.13177964411E+02  0.51100000000E-03 0. -1.
        -11    1    3    3    0    0 -0.95031424426E+00  0.19892883745E+01 -0.32624662574E+01  0.39375184751E+01  0.51100000000E-03 0.  1.
        -12    1    3    3    0    0 -0.70577396092E+01 -0.88019956774E+01 -0.28521425657E+02  0.30671787327E+02  0.00000000000E+00 0.  1.
</event>
<event>
 7    1  0.2653124E-010  0.4778727E+02  0.7816164E-02  0.1312668E+00
        -11   -1    0    0    0    0  0.00000000000E+00  0.00000000000E+00  0.45593999997E+02  0.45594000000E+02  0.51100000000E-03 0.  1.
         11   -1    0    0    0    0 -0.00000000000E+00 -0.00000000000E+00 -0.45593999997E+02  0.45594000000E+02  0.51100000000E-03 0. -1.
    9900012    2    1    2    0    0  0.17814936652E+02  0.14167294511E+02  0.36953198433E+02  0.47787273323E+02  0.20000010390E+02 0.  0.
         12    1    1    2    0    0 -0.17814936652E+02 -0.14167294511E+02 -0.36953198433E+02  0.43400726677E+02  0.00000000000E+00 0. -1.
         11    1    3    3    0    0  0.32951230772E+01  0.49144243002E+00  0.13499744684E+02  0.13904763880E+02  0.51100000000E-03 0. -1.
        -11    1    3    3    0    0  0.13217004180E+02  0.96096496848E+01  0.24534097203E+02  0.29478067990E+02  0.51100000000E-03 0.  1.
         12    1    3    3    0    0  0.13028093943E+01  0.40662023959E+01 -0.10806434548E+01  0.44044414537E+01  0.00000000000E+00 0. -1.
</event>
<event>
 7    1  0.2653124E-010  0.4778727E+02  0.7816164E-02  0.1312668E+00
        -11   -1    0    0    0    0  0.00000000000E+00  0.00000000000E+00  0.45593999997E+02  0.45594000000E+02  0.51100000000E-03 0.  1.
         11   -1    0    0    0    0 -0.00000000000E+00 -0.00000000000E+00 -0.45593999997E+02  0.45594000000E+02  0.51100000000E-03 0. -1.
    9900012    2    1    2    0    0 -0.19536640325E+02  0.12887668940E+02  0.36549297045E+02  0.47787269126E+02  0.19999991254E+02 0.  0.
         12    1    1    2    0    0  0.19536640325E+02 -0.12887668940E+02 -0.36549297045E+02  0.43400730874E+02  0.00000000000E+00 0. -1.
         11    1    3    3    0    0  0.73079663284E-01 -0.13558034544E+01  0.51691314774E+01  0.53444797816E+01  0.51100000000E-03 0. -1.
        -11    1    3    3    0    0 -0.10844709601E+02 -0.89253934802E+00  0.14558754389E+02  0.18175854380E+02  0.51100000000E-03 0.  1.
         12    1    3    3    0    0 -0.87650103868E+01  0.15136011742E+02  0.16821411179E+02  0.24266934965E+02  0.00000000000E+00 0. -1.
</event>
<event>
 7    1  0.2653124E-010  0.4778727E+02  0.7816164E-02  0.1312668E+00
        -11   -1    0    0    0    0  0.00000000000E+00  0.00000000000E+00  0.45593999997E+02  0.45594000000E+02  0.51100000000E-03 0.  1.
         11   -1    0    0    0    0 -0.00000000000E+00 -0.00000000000E+00 -0.45593999997E+02  0.45594000000E+02  0.51100000000E-03 0. -1.
    9900012    2    1    2    0    0 -0.71618522229E+01  0.38926707775E+02  0.17805687947E+02  0.47787271565E+02  0.20000002372E+02 0.  0.
         12    1    1    2    0    0  0.71618522229E+01 -0.38926707775E+02 -0.17805687947E+02  0.43400728435E+02  0.00000000000E+00 0. -1.
         11    1    3    3    0    0 -0.32531657492E+00  0.31864504735E+02  0.80602223665E+01  0.32869738023E+02  0.51100000000E-03 0. -1.
        -11    1    3    3    0    0 -0.15445206123E+01  0.55773209751E+01  0.46756192317E+01  0.74399911721E+01  0.51100000000E-03 0.  1.
         12    1    3    3    0    0 -0.52920150356E+01  0.14848820651E+01  0.50698463485E+01  0.74775423691E+01  0.00000000000E+00 0. -1.
</event>
<event>
 7    1  0.2653124E-010  0.4778727E+02  0.7816164E-02  0.1312668E+00
        -11   -1    0    0    0    0  0.00000000000E+00  0.00000000000E+00  0.45593999997E+02  0.45594000000E+02  0.51100000000E-03 0. -1.
         11   -1    0    0    0    0 -0.00000000000E+00 -0.00000000000E+00 -0.45593999997E+02  0.45594000000E+02  0.51100000000E-03 0.  1.
    9900012    2    1    2    0    0 -0.28335054631E+02 -0.22139726408E+01 -0.32800095230E+02  0.47787271401E+02  0.20000001628E+02 0.  0.
         12    1    1    2    0    0  0.28335054631E+02  0.22139726408E+01  0.32800095230E+02  0.43400728599E+02  0.00000000000E+00 0. -1.
         11    1    3    3    0    0 -0.11585267055E+02 -0.82182387985E+01 -0.72921538620E+01  0.15966633017E+02  0.51100000000E-03 0. -1.
        -11    1    3    3    0    0 -0.53575645735E-01  0.16282444577E+01 -0.34242587060E+01  0.37920440808E+01  0.51100000000E-03 0.  1.
        -12    1    3    3    0    0 -0.16696211931E+02  0.43760216999E+01 -0.22083682662E+02  0.28028594304E+02  0.00000000000E+00 0.  1.
</event>
<event>
 7    1  0.2653124E-010  0.4778727E+02  0.7816164E-02  0.1312668E+00
        -11   -1    0    0    0    0  0.00000000000E+00  0.00000000000E+00  0.45593999997E+02  0.45594000000E+02  0.51100000000E-03 0. -1.
         11   -1    0    0    0    0 -0.00000000000E+00 -0.00000000000E+00 -0.45593999997E+02  0.45594000000E+02  0.51100000000E-03 0.  1.
    9900012    2    1    2    0    0  0.17549441515E+02  0.29650489939E+01 -0.39583443001E+02  0.47787269904E+02  0.19999994799E+02 0.  0.
         12    1    1    2    0    0 -0.17549441515E+02 -0.29650489939E+01  0.39583443001E+02  0.43400730096E+02  0.00000000000E+00 0. -1.
         11    1    3    3    0    0  0.13597021334E+01 -0.12077996843E+01  0.50075198101E+00  0.18863517108E+01  0.51100000000E-03 0. -1.
        -11    1    3    3    0    0  0.10755784175E+02  0.32092029924E+01 -0.91585430444E+01  0.14486710738E+02  0.51100000000E-03 0.  1.
         12    1    3    3    0    0  0.54339552072E+01  0.96364568580E+00 -0.30925651938E+02  0.31414207454E+02  0.00000000000E+00 0. -1.
</event>
<event>
 7    1  0.2653124E-010  0.4778727E+02  0.7816164E-02  0.1312668E+00
        -11   -1    0    0    0    0  0.00000000000E+00  0.00000000000E+00  0.45593999997E+02  0.45594000000E+02  0.51100000000E-03 0.  1.
         11   -1    0    0    0    0 -0.00000000000E+00 -0.00000000000E+00 -0.45593999997E+02  0.45594000000E+02  0.51100000000E-03 0. -1.
    9900012    2    1    2    0    0 -0.34764927822E+02 -0.37192939267E+01  0.25713618293E+02  0.47787268214E+02  0.19999987097E+02 0.  0.
         12    1    1    2    0    0  0.34764927822E+02  0.37192939267E+01 -0.25713618293E+02  0.43400731786E+02  0.00000000000E+00 0. -1.
         11    1    3    3    0    0 -0.25229335828E+01 -0.26822547123E+01 -0.80716636108E+00  0.37697747944E+01  0.51100000000E-03 0. -1.
        -11    1    3    3    0    0 -0.24043161981E+02 -0.69342558477E+01  0.18454824926E+02  0.31092412347E+02  0.51100000000E-03 0.  1.
         12    1    3    3    0    0 -0.81988322584E+01  0.58972166334E+01  0.80659597278E+01  0.12925081073E+02  0.00000000000E+00 0. -1.
</event>
<event>
 7    1  0.2653124E-010  0.4778728E+02  0.7816164E-02  0.1312668E+00
        -11   -1    0    0    0    0  0.00000000000E+00  0.00000000000E+00  0.45593999997E+02  0.45594000000E+02  0.51100000000E-03 0.  1.
         11   -1    0    0    0    0 -0.00000000000E+00 -0.00000000000E+00 -0.45593999997E+02  0.45594000000E+02  0.51100000000E-03 0. -1.
    9900012    2    1    2    0    0  0.20771203737E+01  0.36698925184E+02  0.23075893470E+02  0.47787281133E+02  0.20000045998E+02 0.  0.
         12    1    1    2    0    0 -0.20771203737E+01 -0.36698925184E+02 -0.23075893470E+02  0.43400718867E+02  0.00000000000E+00 0. -1.
         11    1    3    3    0    0 -0.22445672403E-01 -0.40341681714E+00 -0.14484914095E+01  0.15037874055E+01  0.51100000000E-03 0. -1.
        -11    1    3    3    0    0  0.59506302893E+01  0.92547849113E+01  0.86718545269E+01  0.14009357794E+02  0.51100000000E-03 0.  1.
         12    1    3    3    0    0 -0.38510642432E+01  0.27847557090E+02  0.15852530353E+02  0.32274135934E+02  0.00000000000E+00 0. -1.
</event>
<event>
 7    1  0.2653124E-010  0.4778727E+02  0.7816164E-02  0.1312668E+00
        -11   -1    0    0    0    0  0.00000000000E+00  0.00000000000E+00  0.45593999997E+02  0.45594000000E+02  0.51100000000E-03 0. -1.
         11   -1    0    0    0    0 -0.00000000000E+00 -0.00000000000E+00 -0.45593999997E+02  0.45594000000E+02  0.51100000000E-03 0.  1.
    9900012    2    1    2    0    0  0.25410298689E+02  0.18413035947E+02 -0.29981666992E+02  0.47787268119E+02  0.19999986661E+02 0.  0.
         12    1    1    2    0    0 -0.25410298689E+02 -0.18413035947E+02  0.29981666992E+02  0.43400731881E+02  0.00000000000E+00 0. -1.
         11    1    3    3    0    0  0.55528687489E+01  0.38181816339E+00 -0.42612056732E+01  0.70098509615E+01  0.51100000000E-03 0. -1.
        -11    1    3    3    0    0  0.13233893271E+02  0.12052847220E+01 -0.82952406749E+01  0.15665237326E+02  0.51100000000E-03 0.  1.
         12    1    3    3    0    0  0.66235366686E+01  0.16825933061E+02 -0.17425220644E+02  0.25112179831E+02  0.00000000000E+00 0. -1.
</event>
<event>
 7    1  0.2653124E-010  0.4778727E+02  0.7816164E-02  0.1312668E+00
        -11   -1    0    0    0    0  0.00000000000E+00  0.00000000000E+00  0.45593999997E+02  0.45594000000E+02  0.51100000000E-03 0.  1.
         11   -1    0    0    0    0 -0.00000000000E+00 -0.00000000000E+00 -0.45593999997E+02  0.45594000000E+02  0.51100000000E-03 0. -1.
    9900012    2    1    2    0    0  0.20853001403E+02 -0.22180491924E+02 -0.30932210134E+02  0.47787268286E+02  0.19999987423E+02 0.  0.
         12    1    1    2    0    0 -0.20853001403E+02  0.22180491924E+02  0.30932210134E+02  0.43400731714E+02  0.00000000000E+00 0. -1.
         11    1    3    3    0    0  0.58783865046E+01 -0.41983854555E+01 -0.55642502271E+01  0.91182645926E+01  0.51100000000E-03 0. -1.
        -11    1    3    3    0    0  0.14145115923E+02 -0.20269558643E+02 -0.26273596727E+02  0.36072720957E+02  0.51100000000E-03 0.  1.
         12    1    3    3    0    0  0.82949897491E+00  0.22874521736E+01  0.90563681959E+00  0.25962827359E+01  0.00000000000E+00 0. -1.
</event>
<event>
 7    1  0.2653124E-010  0.4778727E+02  0.7816164E-02  0.1312668E+00
        -11   -1    0    0    0    0  0.00000000000E+00  0.00000000000E+00  0.45593999997E+02  0.45594000000E+02  0.51100000000E-03 0. -1.
         11   -1    0    0    0    0 -0.00000000000E+00 -0.00000000000E+00 -0.45593999997E+02  0.45594000000E+02  0.51100000000E-03 0.  1.
    9900012    2    1    2    0    0  0.36289598224E+02 -0.53662581673E+01 -0.23192490278E+02  0.47787271074E+02  0.20000000137E+02 0.  0.
         12    1    1    2    0    0 -0.36289598224E+02  0.53662581673E+01  0.23192490278E+02  0.43400728926E+02  0.00000000000E+00 0. -1.
         11    1    3    3    0    0  0.41001336136E+01  0.41490998147E+01  0.96994966507E+00  0.59132839891E+01  0.51100000000E-03 0. -1.
        -11    1    3    3    0    0  0.56260634000E+01 -0.24871928099E+00 -0.17276869930E+01  0.58906156952E+01  0.51100000000E-03 0.  1.
        -12    1    3    3    0    0  0.26563401211E+02 -0.92666387010E+01 -0.22434752950E+02  0.35983371390E+02  0.00000000000E+00 0.  1.
</event>
<event>
 7    1  0.2653124E-010  0.4778725E+02  0.7816164E-02  0.1312668E+00
        -11   -1    0    0    0    0  0.00000000000E+00  0.00000000000E+00  0.45593999997E+02  0.45594000000E+02  0.51100000000E-03 0.  1.
         11   -1    0    0    0    0 -0.00000000000E+00 -0.00000000000E+00 -0.45593999997E+02  0.45594000000E+02  0.51100000000E-03 0. -1.
    9900012    2    1    2    0    0 -0.80641749493E+00 -0.35401340884E+02  0.25094224506E+02  0.47787247136E+02  0.19999890994E+02 0.  0.
         12    1    1    2    0    0  0.80641749493E+00  0.35401340884E+02 -0.25094224506E+02  0.43400752864E+02  0.00000000000E+00 0. -1.
         11    1    3    3    0    0 -0.10401631532E+01 -0.21284193272E+02  0.71527781223E+01  0.22478012763E+02  0.51100000000E-03 0. -1.
        -11    1    3    3    0    0 -0.37472134085E+01 -0.38082695109E+01  0.15910482979E+01  0.55745815936E+01  0.51100000000E-03 0.  1.
        -12    1    3    3    0    0  0.39809590668E+01 -0.10308878101E+02  0.16350398086E+02  0.19734652780E+02  0.00000000000E+00 0.  1.
</event>
<event>
 7    1  0.2653124E-010  0.4778727E+02  0.7816164E-02  0.1312668E+00
        -11   -1    0    0    0    0  0.00000000000E+00  0.00000000000E+00  0.45593999997E+02  0.45594000000E+02  0.51100000000E-03 0. -1.
         11   -1    0    0    0    0 -0.00000000000E+00 -0.00000000000E+00 -0.45593999997E+02  0.45594000000E+02  0.51100000000E-03 0.  1.
    9900012    2    1    2    0    0 -0.30085700587E+02 -0.25507454723E+02 -0.18106451229E+02  0.47787271868E+02  0.20000003757E+02 0.  0.
         12    1    1    2    0    0  0.30085700587E+02  0.25507454723E+02  0.18106451229E+02  0.43400728132E+02  0.00000000000E+00 0. -1.
         11    1    3    3    0    0 -0.56355490746E+01 -0.55138197851E+01 -0.85575946288E+01  0.11635894812E+02  0.51100000000E-03 0. -1.
        -11    1    3    3    0    0 -0.15443062590E+02 -0.20668443854E+02 -0.77732550610E+01  0.26946173161E+02  0.51100000000E-03 0.  1.
         12    1    3    3    0    0 -0.90070889224E+01  0.67480891631E+00 -0.17756015389E+01  0.92052038953E+01  0.00000000000E+00 0. -1.
</event>
<event>
 7    1  0.2653124E-010  0.4778727E+02  0.7816164E-02  0.1312668E+00
        -11   -1    0    0    0    0  0.00000000000E+00  0.00000000000E+00  0.45593999997E+02  0.45594000000E+02  0.51100000000E-03 0. -1.
         11   -1    0    0    0    0 -0.00000000000E+00 -0.00000000000E+00 -0.45593999997E+02  0.45594000000E+02  0.51100000000E-03 0.  1.
    9900012    2    1    2    0    0 -0.10560955521E+02  0.32928283688E+02 -0.26226284647E+02  0.47787266659E+02  0.19999980005E+02 0.  0.
         12    1    1    2    0    0  0.10560955521E+02 -0.32928283688E+02  0.26226284647E+02  0.43400733341E+02  0.00000000000E+00 0. -1.
         11    1    3    3    0    0 -0.35651635685E+01  0.39309544079E+01 -0.70960538421E+00  0.53540950580E+01  0.51100000000E-03 0. -1.
        -11    1    3    3    0    0 -0.69592233236E+01  0.54427518942E+01 -0.18180984353E+01  0.90199678287E+01  0.51100000000E-03 0.  1.
        -12    1    3    3    0    0 -0.36568628648E-01  0.23554577386E+02 -0.23698580827E+02  0.33413203772E+02  0.00000000000E+00 0.  1.
</event>
<event>
 7    1  0.2653124E-010  0.4778726E+02  0.7816164E-02  0.1312668E+00
        -11   -1    0    0    0    0  0.00000000000E+00  0.00000000000E+00  0.45593999997E+02  0.45594000000E+02  0.51100000000E-03 0.  1.
         11   -1    0    0    0    0 -0.00000000000E+00 -0.00000000000E+00 -0.45593999997E+02  0.45594000000E+02  0.51100000000E-03 0. -1.
    9900012    2    1    2    0    0 -0.24080774000E+02  0.22306233810E+02  0.28393172129E+02  0.47787263062E+02  0.19999963606E+02 0.  0.
         12    1    1    2    0    0  0.24080774000E+02 -0.22306233810E+02 -0.28393172129E+02  0.43400736938E+02  0.00000000000E+00 0. -1.
         11    1    3    3    0    0 -0.91697645934E+01  0.26601301429E+01  0.25890491506E+01  0.98926260842E+01  0.51100000000E-03 0. -1.
        -11    1    3    3    0    0 -0.13352901543E+02  0.71585249891E+01  0.14744103366E+02  0.21140790997E+02  0.51100000000E-03 0.  1.
         12    1    3    3    0    0 -0.15581078630E+01  0.12487578678E+02  0.11060019612E+02  0.16753845981E+02  0.00000000000E+00 0. -1.
</event>
<event>
 7    1  0.2653124E-010  0.4778727E+02  0.7816164E-02  0.1312668E+00
        -11   -1    0    0    0    0  0.00000000000E+00  0.00000000000E+00  0.45593999997E+02  0.45594000000E+02  0.51100000000E-03 0.  1.
         11   -1    0    0    0    0 -0.00000000000E+00 -0.00000000000E+00 -0.45593999997E+02  0.45594000000E+02  0.51100000000E-03 0. -1.
    9900012    2    1    2    0    0 -0.10280870706E+02 -0.52902574829E+01  0.41832285394E+02  0.47787271573E+02  0.20000002412E+02 0.  0.
         12    1    1    2    0    0  0.10280870706E+02  0.52902574829E+01 -0.41832285394E+02  0.43400728427E+02  0.00000000000E+00 0. -1.
         11    1    3    3    0    0 -0.27836660179E+00 -0.84840138988E+01  0.23585069963E+02  0.25066142608E+02  0.51100000000E-03 0. -1.
        -11    1    3    3    0    0 -0.29767287182E+01  0.33005692945E-01  0.13151815126E+02  0.13484518702E+02  0.51100000000E-03 0.  1.
         12    1    3    3    0    0 -0.70257753864E+01  0.31607507229E+01  0.50954003041E+01  0.92366102641E+01  0.00000000000E+00 0. -1.
</event>
<event>
 7    1  0.2653124E-010  0.4778727E+02  0.7816164E-02  0.1312668E+00
        -11   -1    0    0    0    0  0.00000000000E+00  0.00000000000E+00  0.45593999997E+02  0.45594000000E+02  0.51100000000E-03 0. -1.
         11   -1    0    0    0    0 -0.00000000000E+00 -0.00000000000E+00 -0.45593999997E+02  0.45594000000E+02  0.51100000000E-03 0.  1.
    9900012    2    1    2    0    0  0.40462575796E+02  0.10070975893E+01  0.15664897440E+02  0.47787270774E+02  0.19999998765E+02 0.  0.
         12    1    1    2    0    0 -0.40462575796E+02 -0.10070975893E+01 -0.15664897440E+02  0.43400729226E+02  0.00000000000E+00 0. -1.
         11    1    3    3    0    0  0.12035757750E+02 -0.36951770511E+00  0.10245137914E+02  0.15810087257E+02  0.51100000000E-03 0. -1.
        -11    1    3    3    0    0  0.20489192340E+02 -0.52614894180E+01  0.40717036880E+01  0.21542261832E+02  0.51100000000E-03 0.  1.
        -12    1    3    3    0    0  0.79376257062E+01  0.66381047125E+01  0.13480558385E+01  0.10434921685E+02  0.00000000000E+00 0.  1.
</event>
<event>
 7    1  0.2653124E-010  0.4778727E+02  0.7816164E-02  0.1312668E+00
        -11   -1    0    0    0    0  0.00000000000E+00  0.00000000000E+00  0.45593999997E+02  0.45594000000E+02  0.51100000000E-03 0. -1.
         11   -1    0    0    0    0 -0.00000000000E+00 -0.00000000000E+00 -0.45593999997E+02  0.45594000000E+02  0.51100000000E-03 0.  1.
    9900012    2    1    2    0    0 -0.11917208300E+02 -0.37023119105E+02 -0.19258554874E+02  0.47787272612E+02  0.20000007148E+02 0.  0.
         12    1    1    2    0    0  0.11917208300E+02  0.37023119105E+02  0.19258554874E+02  0.43400727388E+02  0.00000000000E+00 0. -1.
         11    1    3    3    0    0 -0.16521757638E+01 -0.90280497372E+01 -0.82944270766E+01  0.12370646208E+02  0.51100000000E-03 0. -1.
        -11    1    3    3    0    0 -0.47082164244E+01 -0.27263033512E+02 -0.11099785508E+02  0.29810158281E+02  0.51100000000E-03 0.  1.
         12    1    3    3    0    0 -0.55568161121E+01 -0.73203585587E+00  0.13565771058E+00  0.56064681229E+01  0.00000000000E+00 0. -1.
</event>
<event>
 7    1  0.2653124E-010  0.4778727E+02  0.7816164E-02  0.1312668E+00
        -11   -1    0    0    0    0  0.00000000000E+00  0.00000000000E+00  0.45593999997E+02  0.45594000000E+02  0.51100000000E-03 0.  1.
         11   -1    0    0    0    0 -0.00000000000E+00 -0.00000000000E+00 -0.45593999997E+02  0.45594000000E+02  0.51100000000E-03 0. -1.
    9900012    2    1    2    0    0  0.16754643910E+02 -0.23713875690E+02  0.32257667494E+02  0.47787272990E+02  0.20000008873E+02 0.  0.
         12    1    1    2    0    0 -0.16754643910E+02  0.23713875690E+02 -0.32257667494E+02  0.43400727010E+02  0.00000000000E+00 0. -1.
         11    1    3    3    0    0  0.11495291137E+02 -0.12437263770E+02  0.11163718122E+02  0.20284374553E+02  0.51100000000E-03 0. -1.
        -11    1    3    3    0    0  0.63484614776E+01 -0.13227908370E+02  0.14870831058E+02  0.20890718983E+02  0.51100000000E-03 0.  1.
         12    1    3    3    0    0 -0.10891087047E+01  0.19512964501E+01  0.62231183133E+01  0.66121794552E+01  0.00000000000E+00 0. -1.
</event>
<event>
 7    1  0.2653124E-010  0.4778727E+02  0.7816164E-02  0.1312668E+00
        -11   -1    0    0    0    0  0.00000000000E+00  0.00000000000E+00  0.45593999997E+02  0.45594000000E+02  0.51100000000E-03 0.  1.
         11   -1    0    0    0    0 -0.00000000000E+00 -0.00000000000E+00 -0.45593999997E+02  0.45594000000E+02  0.51100000000E-03 0. -1.
    9900012    2    1    2    0    0  0.12007521063E+02  0.27889902209E+01  0.41613275181E+02  0.47787266138E+02  0.19999977627E+02 0.  0.
         12    1    1    2    0    0 -0.12007521063E+02 -0.27889902209E+01 -0.41613275181E+02  0.43400733862E+02  0.00000000000E+00 0. -1.
         11    1    3    3    0    0  0.74878437384E+01  0.44008669739E+01  0.17736304162E+02  0.19748719441E+02  0.51100000000E-03 0.  1.
        -11    1    3    3    0    0  0.44711566574E+01  0.52884986325E+00  0.46210663627E+00  0.45259768931E+01  0.51100000000E-03 0. -1.
         12    1    3    3    0    0  0.48520666839E-01 -0.21407266163E+01  0.23414864383E+02  0.23512569804E+02  0.00000000000E+00 0. -1.
</event>
<event>
 7    1  0.2653124E-010  0.4778727E+02  0.7816164E-02  0.1312668E+00
        -11   -1    0    0    0    0  0.00000000000E+00  0.00000000000E+00  0.45593999997E+02  0.45594000000E+02  0.51100000000E-03 0.  1.
         11   -1    0    0    0    0 -0.00000000000E+00 -0.00000000000E+00 -0.45593999997E+02  0.45594000000E+02  0.51100000000E-03 0. -1.
    9900012    2    1    2    0    0  0.42328798198E+02  0.93792681987E+01 -0.19812490402E+01  0.47787272165E+02  0.20000005111E+02 0.  0.
         12    1    1    2    0    0 -0.42328798198E+02 -0.93792681987E+01  0.19812490402E+01  0.43400727835E+02  0.00000000000E+00 0. -1.
         11    1    3    3    0    0  0.12194577825E+02 -0.20676836328E+01  0.81137307418E+00  0.12395215628E+02  0.51100000000E-03 0. -1.
        -11    1    3    3    0    0  0.13033410610E+02 -0.17563369774E+01  0.18881844708E+01  0.13286073632E+02  0.51100000000E-03 0.  1.
         12    1    3    3    0    0  0.17100809763E+02  0.13203288809E+02 -0.46808065852E+01  0.22105982905E+02  0.00000000000E+00 0. -1.
</event>
<event>
 7    1  0.2653124E-010  0.4778728E+02  0.7816164E-02  0.1312668E+00
        -11   -1    0    0    0    0  0.00000000000E+00  0.00000000000E+00  0.45593999997E+02  0.45594000000E+02  0.51100000000E-03 0. -1.
         11   -1    0    0    0    0 -0.00000000000E+00 -0.00000000000E+00 -0.45593999997E+02  0.45594000000E+02  0.51100000000E-03 0.  1.
    9900012    2    1    2    0    0 -0.32081510836E+02  0.28094577401E+02  0.80680996686E+01  0.47787275938E+02  0.20000022312E+02 0.  0.
         12    1    1    2    0    0  0.32081510836E+02 -0.28094577401E+02 -0.80680996686E+01  0.43400724062E+02  0.00000000000E+00 0. -1.
         11    1    3    3    0    0 -0.84315852164E+01  0.61267177679E+01 -0.28676393701E+01  0.10809794433E+02  0.51100000000E-03 0. -1.
        -11    1    3    3    0    0 -0.40604378605E-01  0.77700557633E+01  0.21845915692E+01  0.80714221712E+01  0.51100000000E-03 0.  1.
        -12    1    3    3    0    0 -0.23609321241E+02  0.14197803869E+02  0.87511474695E+01  0.28906059334E+02  0.00000000000E+00 0.  1.
</event>
<event>
 7    1  0.2653124E-010  0.4778726E+02  0.7816164E-02  0.1312668E+00
        -11   -1    0    0    0    0  0.00000000000E+00  0.00000000000E+00  0.45593999997E+02  0.45594000000E+02  0.51100000000E-03 0. -1.
         11   -1    0    0    0    0 -0.00000000000E+00 -0.00000000000E+00 -0.45593999997E+02  0.45594000000E+02  0.51100000000E-03 0.  1.
    9900012    2    1    2    0    0 -0.28374065791E+01 -0.28451968770E+02 -0.32650551986E+02  0.47787263279E+02  0.19999964593E+02 0.  0.
         12    1    1    2    0    0  0.28374065791E+01  0.28451968770E+02  0.32650551986E+02  0.43400736721E+02  0.00000000000E+00 0. -1.
         11    1    3    3    0    0  0.23763783579E+01 -0.49714400165E+01 -0.42362822505E+01  0.69504300230E+01  0.51100000000E-03 0. -1.
        -11    1    3    3    0    0  0.54105994116E+01 -0.91470064542E+01 -0.60543479933E+01  0.12231003350E+02  0.51100000000E-03 0.  1.
        -12    1    3    3    0    0 -0.10624384349E+02 -0.14333522299E+02 -0.22359921742E+02  0.28605829906E+02  0.00000000000E+00 0.  1.
</event>
<event>
 7    1  0.2653124E-010  0.4778727E+02  0.7816164E-02  0.1312668E+00
        -11   -1    0    0    0    0  0.00000000000E+00  0.00000000000E+00  0.45593999997E+02  0.45594000000E+02  0.51100000000E-03 0.  1.
         11   -1    0    0    0    0 -0.00000000000E+00 -0.00000000000E+00 -0.45593999997E+02  0.45594000000E+02  0.51100000000E-03 0. -1.
    9900012    2    1    2    0    0 -0.18667080784E+02  0.20851788155E+02  0.33171766528E+02  0.47787273406E+02  0.20000010769E+02 0.  0.
         12    1    1    2    0    0  0.18667080784E+02 -0.20851788155E+02 -0.33171766528E+02  0.43400726594E+02  0.00000000000E+00 0. -1.
         11    1    3    3    0    0 -0.36001929500E+01  0.55286089515E+00 -0.17056455074E+01  0.40219735584E+01  0.51100000000E-03 0.  1.
        -11    1    3    3    0    0 -0.12142640624E+01  0.23635529118E+01  0.68404932760E+00  0.27438555581E+01  0.51100000000E-03 0. -1.
        -12    1    3    3    0    0 -0.13852623772E+02  0.17935374348E+02  0.34193362708E+02  0.41021444290E+02  0.00000000000E+00 0.  1.
</event>
<event>
 7    1  0.2653124E-010  0.4778727E+02  0.7816164E-02  0.1312668E+00
        -11   -1    0    0    0    0  0.00000000000E+00  0.00000000000E+00  0.45593999997E+02  0.45594000000E+02  0.51100000000E-03 0. -1.
         11   -1    0    0    0    0 -0.00000000000E+00 -0.00000000000E+00 -0.45593999997E+02  0.45594000000E+02  0.51100000000E-03 0.  1.
    9900012    2    1    2    0    0  0.10541973935E+02 -0.84173885204E+01 -0.41250915035E+02  0.47787266882E+02  0.19999981020E+02 0.  0.
         12    1    1    2    0    0 -0.10541973935E+02  0.84173885204E+01  0.41250915035E+02  0.43400733118E+02  0.00000000000E+00 0. -1.
         11    1    3    3    0    0  0.56455297976E+01  0.46027707406E+00 -0.14161193784E+02  0.15251992372E+02  0.51100000000E-03 0. -1.
        -11    1    3    3    0    0  0.23876257040E+01  0.20216036203E+01  0.10522184338E+00  0.31302890597E+01  0.51100000000E-03 0.  1.
        -12    1    3    3    0    0  0.25088184333E+01 -0.10899269215E+02 -0.27194943095E+02  0.29404985450E+02  0.00000000000E+00 0.  1.
</event>
<event>
 7    1  0.2653124E-010  0.4778727E+02  0.7816164E-02  0.1312668E+00
        -11   -1    0    0    0    0  0.00000000000E+00  0.00000000000E+00  0.45593999997E+02  0.45594000000E+02  0.51100000000E-03 0. -1.
         11   -1    0    0    0    0 -0.00000000000E+00 -0.00000000000E+00 -0.45593999997E+02  0.45594000000E+02  0.51100000000E-03 0.  1.
    9900012    2    1    2    0    0  0.11281417090E+02  0.21260035079E+02 -0.36115973536E+02  0.47787274113E+02  0.20000013989E+02 0.  0.
         12    1    1    2    0    0 -0.11281417090E+02 -0.21260035079E+02  0.36115973536E+02  0.43400725887E+02  0.00000000000E+00 0. -1.
         11    1    3    3    0    0  0.42456258561E+00  0.26004233364E+01 -0.19244073654E+01  0.32627900464E+01  0.51100000000E-03 0. -1.
        -11    1    3    3    0    0  0.74970647809E+01  0.11289013776E+02 -0.33799199815E+02  0.36414745925E+02  0.51100000000E-03 0.  1.
        -12    1    3    3    0    0  0.33597897237E+01  0.73705979661E+01 -0.39236635553E+00  0.81097381414E+01  0.00000000000E+00 0.  1.
</event>
<event>
 7    1  0.2653124E-010  0.4778727E+02  0.7816164E-02  0.1312668E+00
        -11   -1    0    0    0    0  0.00000000000E+00  0.00000000000E+00  0.45593999997E+02  0.45594000000E+02  0.51100000000E-03 0.  1.
         11   -1    0    0    0    0 -0.00000000000E+00 -0.00000000000E+00 -0.45593999997E+02  0.45594000000E+02  0.51100000000E-03 0. -1.
    9900012    2    1    2    0    0 -0.31420693329E+02 -0.26081007258E+02 -0.14701861226E+02  0.47787266915E+02  0.19999981171E+02 0.  0.
         12    1    1    2    0    0  0.31420693329E+02  0.26081007258E+02  0.14701861226E+02  0.43400733085E+02  0.00000000000E+00 0. -1.
         11    1    3    3    0    0 -0.77072590680E+01 -0.13030314878E+02 -0.94652685690E+01  0.17854474439E+02  0.51100000000E-03 0. -1.
        -11    1    3    3    0    0 -0.13579797942E+02 -0.11376352398E+02 -0.77848787580E+01  0.19350365463E+02  0.51100000000E-03 0.  1.
         12    1    3    3    0    0 -0.10133636319E+02 -0.16743399822E+01  0.25482861011E+01  0.10582427012E+02  0.00000000000E+00 0. -1.
</event>
<event>
 7    1  0.2653124E-010  0.4778727E+02  0.7816164E-02  0.1312668E+00
        -11   -1    0    0    0    0  0.00000000000E+00  0.00000000000E+00  0.45593999997E+02  0.45594000000E+02  0.51100000000E-03 0.  1.
         11   -1    0    0    0    0 -0.00000000000E+00 -0.00000000000E+00 -0.45593999997E+02  0.45594000000E+02  0.51100000000E-03 0. -1.
    9900012    2    1    2    0    0  0.60530608321E+01 -0.23461557662E+02  0.36007485986E+02  0.47787270970E+02  0.19999999659E+02 0.  0.
         12    1    1    2    0    0 -0.60530608321E+01  0.23461557662E+02 -0.36007485986E+02  0.43400729030E+02  0.00000000000E+00 0. -1.
         11    1    3    3    0    0 -0.69722859861E-01 -0.29874436572E+01  0.14633635845E+02  0.14935627847E+02  0.51100000000E-03 0. -1.
        -11    1    3    3    0    0 -0.23392472145E+01 -0.23161634287E+01 -0.33867139749E+00  0.33092883126E+01  0.51100000000E-03 0.  1.
        -12    1    3    3    0    0  0.84620309064E+01 -0.18157950576E+02  0.21712521539E+02  0.29542354810E+02  0.00000000000E+00 0.  1.
</event>
<event>
 7    1  0.2653124E-010  0.4778727E+02  0.7816164E-02  0.1312668E+00
        -11   -1    0    0    0    0  0.00000000000E+00  0.00000000000E+00  0.45593999997E+02  0.45594000000E+02  0.51100000000E-03 0. -1.
         11   -1    0    0    0    0 -0.00000000000E+00 -0.00000000000E+00 -0.45593999997E+02  0.45594000000E+02  0.51100000000E-03 0.  1.
    9900012    2    1    2    0    0  0.29925193332E+02  0.27661884220E+02  0.14930720568E+02  0.47787269001E+02  0.19999990682E+02 0.  0.
         12    1    1    2    0    0 -0.29925193332E+02 -0.27661884220E+02 -0.14930720568E+02  0.43400730999E+02  0.00000000000E+00 0. -1.
         11    1    3    3    0    0 -0.12587123634E+01  0.26529367364E+01 -0.11198304402E+01  0.31426820738E+01  0.51100000000E-03 0. -1.
        -11    1    3    3    0    0  0.12038192516E+02  0.13882329085E+02  0.21527390517E+01  0.18500579060E+02  0.51100000000E-03 0.  1.
         12    1    3    3    0    0  0.19145713180E+02  0.11126618399E+02  0.13897811957E+02  0.26144007867E+02  0.00000000000E+00 0. -1.
</event>
<event>
 7    1  0.2653124E-010  0.4778728E+02  0.7816164E-02  0.1312668E+00
        -11   -1    0    0    0    0  0.00000000000E+00  0.00000000000E+00  0.45593999997E+02  0.45594000000E+02  0.51100000000E-03 0.  1.
         11   -1    0    0    0    0 -0.00000000000E+00 -0.00000000000E+00 -0.45593999997E+02  0.45594000000E+02  0.51100000000E-03 0. -1.
    9900012    2    1    2    0    0 -0.31367253010E+01  0.10547621416E+02  0.41982505111E+02  0.47787284585E+02  0.20000061737E+02 0.  0.
         12    1    1    2    0    0  0.31367253010E+01 -0.10547621416E+02 -0.41982505111E+02  0.43400715415E+02  0.00000000000E+00 0. -1.
         11    1    3    3    0    0 -0.75733257630E+01  0.69175687581E+01  0.17275558776E+02  0.20091116243E+02  0.51100000000E-03 0. -1.
        -11    1    3    3    0    0 -0.27273237633E+01 -0.18602036175E+01  0.46581676499E+01  0.57093938841E+01  0.51100000000E-03 0.  1.
         12    1    3    3    0    0  0.71639242254E+01  0.54902562756E+01  0.20048778685E+02  0.21986774458E+02  0.00000000000E+00 0. -1.
</event>
<event>
 7    1  0.2653124E-010  0.4778721E+02  0.7816164E-02  0.1312668E+00
        -11   -1    0    0    0    0  0.00000000000E+00  0.00000000000E+00  0.45593999997E+02  0.45594000000E+02  0.51100000000E-03 0. -1.
         11   -1    0    0    0    0 -0.00000000000E+00 -0.00000000000E+00 -0.45593999997E+02  0.45594000000E+02  0.51100000000E-03 0.  1.
    9900012    2    1    2    0    0 -0.19759853698E+02 -0.37196058628E+02 -0.10470424793E+02  0.47787212093E+02  0.19999731214E+02 0.  0.
         12    1    1    2    0    0  0.19759853698E+02  0.37196058628E+02  0.10470424793E+02  0.43400787907E+02  0.00000000000E+00 0. -1.
         11    1    3    3    0    0 -0.33298502980E+01 -0.24482298862E+01  0.29960865351E+01  0.51047299017E+01  0.51100000000E-03 0. -1.
        -11    1    3    3    0    0 -0.11804306522E+02 -0.16928648413E+02 -0.14305332938E+01  0.20687368497E+02  0.51100000000E-03 0.  1.
         12    1    3    3    0    0 -0.46256968785E+01 -0.17819180329E+02 -0.12035978034E+02  0.21995113694E+02  0.00000000000E+00 0. -1.
</event>
<event>
 7    1  0.2653124E-010  0.4778726E+02  0.7816164E-02  0.1312668E+00
        -11   -1    0    0    0    0  0.00000000000E+00  0.00000000000E+00  0.45593999997E+02  0.45594000000E+02  0.51100000000E-03 0.  1.
         11   -1    0    0    0    0 -0.00000000000E+00 -0.00000000000E+00 -0.45593999997E+02  0.45594000000E+02  0.51100000000E-03 0. -1.
    9900012    2    1    2    0    0  0.92438254503E+01 -0.37103809727E+02  0.20530053066E+02  0.47787261710E+02  0.19999957439E+02 0.  0.
         12    1    1    2    0    0 -0.92438254503E+01  0.37103809727E+02 -0.20530053066E+02  0.43400738290E+02  0.00000000000E+00 0. -1.
         11    1    3    3    0    0  0.65205225958E+01 -0.14918861207E+02  0.46515522626E+01  0.16933002491E+02  0.51100000000E-03 0.  1.
        -11    1    3    3    0    0  0.61974036432E+01 -0.80298323548E+01  0.12115755656E+02  0.15801188403E+02  0.51100000000E-03 0. -1.
         12    1    3    3    0    0 -0.34741007887E+01 -0.14155116165E+02  0.37627451477E+01  0.15053070816E+02  0.00000000000E+00 0. -1.
</event>
<event>
 7    1  0.4104393E-010  0.4778727E+02  0.7816164E-02  0.1312668E+00
        -11   -1    0    0    0    0  0.00000000000E+00  0.00000000000E+00  0.45593999997E+02  0.45594000000E+02  0.51100000000E-03 0. -1.
         11   -1    0    0    0    0 -0.00000000000E+00 -0.00000000000E+00 -0.45593999997E+02  0.45594000000E+02  0.51100000000E-03 0.  1.
    9900012    2    1    2    0    0 -0.35656844148E+02 -0.76042448621E+01 -0.23545457385E+02  0.47787266850E+02  0.19999980875E+02 0.  0.
         12    1    1    2    0    0  0.35656844148E+02  0.76042448621E+01  0.23545457385E+02  0.43400733150E+02  0.00000000000E+00 0. -1.
         11    1    3    3    0    0 -0.12574270290E+02 -0.20545295782E+01 -0.42567758763E+01  0.13433298413E+02  0.51100000000E-03 0. -1.
        -11    1    3    3    0    0 -0.20742915755E+02 -0.10064016719E+02 -0.13790200261E+02  0.26864895496E+02  0.51100000000E-03 0.  1.
         12    1    3    3    0    0 -0.23396581025E+01  0.45143014348E+01 -0.54984812482E+01  0.74890729411E+01  0.00000000000E+00 0. -1.
</event>
<event>
 7    1  0.2653124E-010  0.4778724E+02  0.7816164E-02  0.1312668E+00
        -11   -1    0    0    0    0  0.00000000000E+00  0.00000000000E+00  0.45593999997E+02  0.45594000000E+02  0.51100000000E-03 0. -1.
         11   -1    0    0    0    0 -0.00000000000E+00 -0.00000000000E+00 -0.45593999997E+02  0.45594000000E+02  0.51100000000E-03 0.  1.
    9900012    2    1    2    0    0 -0.28374039629E+02  0.11452510985E+02 -0.30779538714E+02  0.47787238069E+02  0.19999849653E+02 0.  0.
         12    1    1    2    0    0  0.28374039629E+02 -0.11452510985E+02  0.30779538714E+02  0.43400761931E+02  0.00000000000E+00 0. -1.
         11    1    3    3    0    0 -0.19509462803E+02  0.12477341509E+02 -0.29340797314E+02  0.37378945641E+02  0.51100000000E-03 0. -1.
        -11    1    3    3    0    0 -0.61611844005E+01  0.63488625687E+00 -0.29892501836E+01  0.68774188979E+01  0.51100000000E-03 0.  1.
         12    1    3    3    0    0 -0.27033924255E+01 -0.16597167811E+01  0.15505087831E+01  0.35308735302E+01  0.00000000000E+00 0. -1.
</event>
<event>
 7    1  0.2653124E-010  0.4778727E+02  0.7816164E-02  0.1312668E+00
        -11   -1    0    0    0    0  0.00000000000E+00  0.00000000000E+00  0.45593999997E+02  0.45594000000E+02  0.51100000000E-03 0. -1.
         11   -1    0    0    0    0 -0.00000000000E+00 -0.00000000000E+00 -0.45593999997E+02  0.45594000000E+02  0.51100000000E-03 0.  1.
    9900012    2    1    2    0    0  0.25068299281E+02  0.31592787890E+02  0.16034318639E+02  0.47787271323E+02  0.20000001268E+02 0.  0.
         12    1    1    2    0    0 -0.25068299281E+02 -0.31592787890E+02 -0.16034318639E+02  0.43400728677E+02  0.00000000000E+00 0. -1.
         11    1    3    3    0    0  0.10034388046E+02  0.79842876339E+01  0.58792436132E+01  0.14106852881E+02  0.51100000000E-03 0. -1.
        -11    1    3    3    0    0  0.18075946144E+02  0.21461835399E+02  0.10457168330E+02  0.29944992527E+02  0.51100000000E-03 0.  1.
         12    1    3    3    0    0 -0.30420349093E+01  0.21466648573E+01 -0.30209330445E+00  0.37354259146E+01  0.00000000000E+00 0. -1.
</event>
<event>
 7    1  0.2653124E-010  0.4778727E+02  0.7816164E-02  0.1312668E+00
        -11   -1    0    0    0    0  0.00000000000E+00  0.00000000000E+00  0.45593999997E+02  0.45594000000E+02  0.51100000000E-03 0.  1.
         11   -1    0    0    0    0 -0.00000000000E+00 -0.00000000000E+00 -0.45593999997E+02  0.45594000000E+02  0.51100000000E-03 0. -1.
    9900012    2    1    2    0    0 -0.32296132535E+01  0.11122179159E+02  0.41826910496E+02  0.47787265989E+02  0.19999976952E+02 0.  0.
         12    1    1    2    0    0  0.32296132535E+01 -0.11122179159E+02 -0.41826910496E+02  0.43400734011E+02  0.00000000000E+00 0. -1.
         11    1    3    3    0    0 -0.20320233227E+01  0.74572396778E+01  0.11087157789E+02  0.13515347221E+02  0.51100000000E-03 0. -1.
        -11    1    3    3    0    0 -0.30263472828E+01  0.89773959895E+01  0.17773764098E+02  0.20140980788E+02  0.51100000000E-03 0.  1.
        -12    1    3    3    0    0  0.18287573520E+01 -0.53124565081E+01  0.12965988609E+02  0.14130937980E+02  0.00000000000E+00 0.  1.
</event>
<event>
 7    1  0.2653124E-010  0.4778727E+02  0.7816164E-02  0.1312668E+00
        -11   -1    0    0    0    0  0.00000000000E+00  0.00000000000E+00  0.45593999997E+02  0.45594000000E+02  0.51100000000E-03 0. -1.
         11   -1    0    0    0    0 -0.00000000000E+00 -0.00000000000E+00 -0.45593999997E+02  0.45594000000E+02  0.51100000000E-03 0.  1.
    9900012    2    1    2    0    0 -0.33433095679E+02  0.13548850691E+02 -0.24130486913E+02  0.47787266822E+02  0.19999980748E+02 0.  0.
         12    1    1    2    0    0  0.33433095679E+02 -0.13548850691E+02  0.24130486913E+02  0.43400733178E+02  0.00000000000E+00 0. -1.
         11    1    3    3    0    0 -0.10189108949E+02  0.68919198590E+01 -0.13618539609E+02  0.18351597257E+02  0.51100000000E-03 0. -1.
        -11    1    3    3    0    0 -0.21100536723E+02  0.87821022340E+01 -0.12272132111E+02  0.25941534196E+02  0.51100000000E-03 0.  1.
         12    1    3    3    0    0 -0.21434500070E+01 -0.21251714020E+01  0.17601848074E+01  0.34941353690E+01  0.00000000000E+00 0. -1.
</event>
<event>
 7    1  0.2653124E-010  0.4778728E+02  0.7816164E-02  0.1312668E+00
        -11   -1    0    0    0    0  0.00000000000E+00  0.00000000000E+00  0.45593999997E+02  0.45594000000E+02  0.51100000000E-03 0.  1.
         11   -1    0    0    0    0 -0.00000000000E+00 -0.00000000000E+00 -0.45593999997E+02  0.45594000000E+02  0.51100000000E-03 0. -1.
    9900012    2    1    2    0    0  0.30444336629E+02  0.11062307355E+02  0.28885816123E+02  0.47787278233E+02  0.20000032775E+02 0.  0.
         12    1    1    2    0    0 -0.30444336629E+02 -0.11062307355E+02 -0.28885816123E+02  0.43400721767E+02  0.00000000000E+00 0. -1.
         11    1    3    3    0    0  0.17921130118E+01  0.47900760085E+01  0.68259395991E+01  0.85293580582E+01  0.51100000000E-03 0. -1.
        -11    1    3    3    0    0  0.35003830102E+01 -0.38801231018E+01  0.48889813012E+01  0.71561284874E+01  0.51100000000E-03 0.  1.
        -12    1    3    3    0    0  0.25151840607E+02  0.10152354449E+02  0.17170895223E+02  0.32101791687E+02  0.00000000000E+00 0.  1.
</event>
<event>
 7    1  0.2653124E-010  0.4778727E+02  0.7816164E-02  0.1312668E+00
        -11   -1    0    0    0    0  0.00000000000E+00  0.00000000000E+00  0.45593999997E+02  0.45594000000E+02  0.51100000000E-03 0.  1.
         11   -1    0    0    0    0 -0.00000000000E+00 -0.00000000000E+00 -0.45593999997E+02  0.45594000000E+02  0.51100000000E-03 0. -1.
    9900012    2    1    2    0    0 -0.89199179257E+01  0.13562790176E+02  0.40250583244E+02  0.47787266543E+02  0.19999979475E+02 0.  0.
         12    1    1    2    0    0  0.89199179257E+01 -0.13562790176E+02 -0.40250583244E+02  0.43400733457E+02  0.00000000000E+00 0. -1.
         11    1    3    3    0    0 -0.12468129303E+01  0.57706393562E+01  0.75154603719E+01  0.95570375078E+01  0.51100000000E-03 0. -1.
        -11    1    3    3    0    0 -0.39930451735E+01  0.76751621759E+01  0.44924578808E+01  0.97485743705E+01  0.51100000000E-03 0.  1.
         12    1    3    3    0    0 -0.36800598219E+01  0.11698864403E+00  0.28242664991E+02  0.28481654665E+02  0.00000000000E+00 0. -1.
</event>
<event>
 7    1  0.2653124E-010  0.4778728E+02  0.7816164E-02  0.1312668E+00
        -11   -1    0    0    0    0  0.00000000000E+00  0.00000000000E+00  0.45593999997E+02  0.45594000000E+02  0.51100000000E-03 0.  1.
         11   -1    0    0    0    0 -0.00000000000E+00 -0.00000000000E+00 -0.45593999997E+02  0.45594000000E+02  0.51100000000E-03 0. -1.
    9900012    2    1    2    0    0  0.36668783257E+02  0.17668586429E+02  0.15061344878E+02  0.47787277408E+02  0.20000029016E+02 0.  0.
         12    1    1    2    0    0 -0.36668783257E+02 -0.17668586429E+02 -0.15061344878E+02  0.43400722592E+02  0.00000000000E+00 0. -1.
         11    1    3    3    0    0  0.74201458361E+01  0.34505545316E+01 -0.19437709511E+01  0.84108939225E+01  0.51100000000E-03 0.  1.
        -11    1    3    3    0    0 -0.67563921264E+00  0.33715120214E+01  0.35966432306E+00  0.34573024662E+01  0.51100000000E-03 0. -1.
        -12    1    3    3    0    0  0.29924276634E+02  0.10846519876E+02  0.16645451506E+02  0.35919081020E+02  0.00000000000E+00 0.  1.
</event>
<event>
 7    1  0.2653124E-010  0.4778727E+02  0.7816164E-02  0.1312668E+00
        -11   -1    0    0    0    0  0.00000000000E+00  0.00000000000E+00  0.45593999997E+02  0.45594000000E+02  0.51100000000E-03 0.  1.
         11   -1    0    0    0    0 -0.00000000000E+00 -0.00000000000E+00 -0.45593999997E+02  0.45594000000E+02  0.51100000000E-03 0. -1.
    9900012    2    1    2    0    0  0.37698017063E+02 -0.94089498570E+01  0.19337898176E+02  0.47787272659E+02  0.20000007360E+02 0.  0.
         12    1    1    2    0    0 -0.37698017063E+02  0.94089498570E+01 -0.19337898176E+02  0.43400727341E+02  0.00000000000E+00 0. -1.
         11    1    3    3    0    0  0.25246313058E+02 -0.15059722966E+02  0.11125321018E+02  0.31431581997E+02  0.51100000000E-03 0. -1.
        -11    1    3    3    0    0  0.28930229548E+01  0.71328235024E+00  0.35376642555E+01  0.46253023873E+01  0.51100000000E-03 0.  1.
         12    1    3    3    0    0  0.95586810502E+01  0.49374907591E+01  0.46749129023E+01  0.11730388274E+02  0.00000000000E+00 0. -1.
</event>
<event>
 7    1  0.2653124E-010  0.4778729E+02  0.7816164E-02  0.1312668E+00
        -11   -1    0    0    0    0  0.00000000000E+00  0.00000000000E+00  0.45593999997E+02  0.45594000000E+02  0.51100000000E-03 0.  1.
         11   -1    0    0    0    0 -0.00000000000E+00 -0.00000000000E+00 -0.45593999997E+02  0.45594000000E+02  0.51100000000E-03 0. -1.
    9900012    2    1    2    0    0 -0.35492267327E+02 -0.24867769052E+02 -0.23484070457E+01  0.47787285797E+02  0.20000067265E+02 0.  0.
         12    1    1    2    0    0  0.35492267327E+02  0.24867769052E+02  0.23484070457E+01  0.43400714203E+02  0.00000000000E+00 0. -1.
         11    1    3    3    0    0 -0.26079492738E+01 -0.39203882661E+01 -0.50649928441E+01  0.69155618964E+01  0.51100000000E-03 0.  1.
        -11    1    3    3    0    0 -0.23052505443E+01 -0.49618271604E+01  0.32473374307E+01  0.63623195056E+01  0.51100000000E-03 0. -1.
        -12    1    3    3    0    0 -0.30579067509E+02 -0.15985553626E+02 -0.53075163223E+00  0.34509404395E+02  0.00000000000E+00 0.  1.
</event>
<event>
 7    1  0.2653124E-010  0.4778728E+02  0.7816164E-02  0.1312668E+00
        -11   -1    0    0    0    0  0.00000000000E+00  0.00000000000E+00  0.45593999997E+02  0.45594000000E+02  0.51100000000E-03 0.  1.
         11   -1    0    0    0    0 -0.00000000000E+00 -0.00000000000E+00 -0.45593999997E+02  0.45594000000E+02  0.51100000000E-03 0. -1.
    9900012    2    1    2    0    0 -0.10194125504E+02 -0.12139251279E+02  0.40402238041E+02  0.47787280476E+02  0.20000043003E+02 0.  0.
         12    1    1    2    0    0  0.10194125504E+02  0.12139251279E+02 -0.40402238041E+02  0.43400719524E+02  0.00000000000E+00 0. -1.
         11    1    3    3    0    0 -0.43840123515E+01 -0.10275456315E+02  0.26589878560E+02  0.28841397485E+02  0.51100000000E-03 0. -1.
        -11    1    3    3    0    0 -0.54324747873E+01 -0.63903238568E+01  0.96420349045E+01  0.12779548453E+02  0.51100000000E-03 0.  1.
         12    1    3    3    0    0 -0.37763836568E+00  0.45265288932E+01  0.41703245768E+01  0.61663345378E+01  0.00000000000E+00 0. -1.
</event>
<event>
 7    1  0.2653124E-010  0.4778727E+02  0.7816164E-02  0.1312668E+00
        -11   -1    0    0    0    0  0.00000000000E+00  0.00000000000E+00  0.45593999997E+02  0.45594000000E+02  0.51100000000E-03 0. -1.
         11   -1    0    0    0    0 -0.00000000000E+00 -0.00000000000E+00 -0.45593999997E+02  0.45594000000E+02  0.51100000000E-03 0.  1.
    9900012    2    1    2    0    0 -0.42023556301E+02  0.31612683833E+01 -0.10375473232E+02  0.47787270205E+02  0.19999996171E+02 0.  0.
         12    1    1    2    0    0  0.42023556301E+02 -0.31612683833E+01  0.10375473232E+02  0.43400729795E+02  0.00000000000E+00 0. -1.
         11    1    3    3    0    0 -0.18518147690E+01 -0.33594886271E+01 -0.40449488192E+00  0.38573304428E+01  0.51100000000E-03 0. -1.
        -11    1    3    3    0    0 -0.11524668603E+02  0.11170534303E+01 -0.91642818166E+01  0.14766511309E+02  0.51100000000E-03 0.  1.
        -12    1    3    3    0    0 -0.28647072930E+02  0.54037035801E+01 -0.80669653328E+00  0.29163428453E+02  0.00000000000E+00 0.  1.
</event>
<event>
 7    1  0.2653124E-010  0.4778727E+02  0.7816164E-02  0.1312668E+00
        -11   -1    0    0    0    0  0.00000000000E+00  0.00000000000E+00  0.45593999997E+02  0.45594000000E+02  0.51100000000E-03 0. -1.
         11   -1    0    0    0    0 -0.00000000000E+00 -0.00000000000E+00 -0.45593999997E+02  0.45594000000E+02  0.51100000000E-03 0.  1.
    9900012    2    1    2    0    0 -0.95336082315E+01 -0.26604065681E+02 -0.32938690838E+02  0.47787270159E+02  0.19999995961E+02 0.  0.
         12    1    1    2    0    0  0.95336082315E+01  0.26604065681E+02  0.32938690838E+02  0.43400729841E+02  0.00000000000E+00 0. -1.
         11    1    3    3    0    0  0.12274104462E+01 -0.16746350067E+02 -0.89034130432E+01  0.19005723903E+02  0.51100000000E-03 0. -1.
        -11    1    3    3    0    0 -0.43508705519E+01 -0.80498097183E+01 -0.14660160147E+02  0.17281487403E+02  0.51100000000E-03 0.  1.
         12    1    3    3    0    0 -0.64101481258E+01 -0.18079058952E+01 -0.93751176471E+01  0.11500058853E+02  0.00000000000E+00 0. -1.
</event>
<event>
 7    1  0.2653124E-010  0.4778728E+02  0.7816164E-02  0.1312668E+00
        -11   -1    0    0    0    0  0.00000000000E+00  0.00000000000E+00  0.45593999997E+02  0.45594000000E+02  0.51100000000E-03 0. -1.
         11   -1    0    0    0    0 -0.00000000000E+00 -0.00000000000E+00 -0.45593999997E+02  0.45594000000E+02  0.51100000000E-03 0.  1.
    9900012    2    1    2    0    0 -0.71759152483E+01 -0.17910676619E+01 -0.42765885875E+02  0.47787277912E+02  0.20000031314E+02 0.  0.
         12    1    1    2    0    0  0.71759152483E+01  0.17910676619E+01  0.42765885875E+02  0.43400722088E+02  0.00000000000E+00 0. -1.
         11    1    3    3    0    0  0.57282959757E+00  0.52099202574E+01 -0.24947406262E+01  0.58047509757E+01  0.51100000000E-03 0. -1.
        -11    1    3    3    0    0  0.58351369974E+00 -0.18625053507E+01 -0.92403310671E+01  0.94442116087E+01  0.51100000000E-03 0.  1.
        -12    1    3    3    0    0 -0.83322585456E+01 -0.51384825686E+01 -0.31030814182E+02  0.32538315328E+02  0.00000000000E+00 0.  1.
</event>
<event>
 7    1  0.2653124E-010  0.4778727E+02  0.7816164E-02  0.1312668E+00
        -11   -1    0    0    0    0  0.00000000000E+00  0.00000000000E+00  0.45593999997E+02  0.45594000000E+02  0.51100000000E-03 0. -1.
         11   -1    0    0    0    0 -0.00000000000E+00 -0.00000000000E+00 -0.45593999997E+02  0.45594000000E+02  0.51100000000E-03 0.  1.
    9900012    2    1    2    0    0  0.10977516251E+02 -0.40610429791E+02  0.10672885105E+02  0.47787270198E+02  0.19999996142E+02 0.  0.
         12    1    1    2    0    0 -0.10977516251E+02  0.40610429791E+02 -0.10672885105E+02  0.43400729802E+02  0.00000000000E+00 0. -1.
         11    1    3    3    0    0  0.31696891724E+01 -0.79601889337E+00  0.57201635531E+01  0.65879319110E+01  0.51100000000E-03 0. -1.
        -11    1    3    3    0    0  0.53964205955E+00 -0.17479690170E+00 -0.12327039958E+00  0.58048545357E+00  0.51100000000E-03 0.  1.
        -12    1    3    3    0    0  0.72681850187E+01 -0.39639613996E+02  0.50759919513E+01  0.40618852834E+02  0.00000000000E+00 0.  1.
</event>
<event>
 7    1  0.2653124E-010  0.4778727E+02  0.7816164E-02  0.1312668E+00
        -11   -1    0    0    0    0  0.00000000000E+00  0.00000000000E+00  0.45593999997E+02  0.45594000000E+02  0.51100000000E-03 0. -1.
         11   -1    0    0    0    0 -0.00000000000E+00 -0.00000000000E+00 -0.45593999997E+02  0.45594000000E+02  0.51100000000E-03 0.  1.
    9900012    2    1    2    0    0  0.36025382366E+02 -0.75864073207E+01 -0.22983511086E+02  0.47787268065E+02  0.19999986415E+02 0.  0.
         12    1    1    2    0    0 -0.36025382366E+02  0.75864073207E+01  0.22983511086E+02  0.43400731935E+02  0.00000000000E+00 0. -1.
         11    1    3    3    0    0  0.51058246703E+01 -0.45482797774E+01 -0.17209248471E+01  0.70510904893E+01  0.51100000000E-03 0. -1.
        -11    1    3    3    0    0  0.26409079576E+02 -0.40077506375E+01 -0.99247965435E+01  0.28495668722E+02  0.51100000000E-03 0.  1.
         12    1    3    3    0    0  0.45104781195E+01  0.96962309417E+00 -0.11337789695E+02  0.12240508853E+02  0.00000000000E+00 0. -1.
</event>
<event>
 7    1  0.2653124E-010  0.4778727E+02  0.7816164E-02  0.1312668E+00
        -11   -1    0    0    0    0  0.00000000000E+00  0.00000000000E+00  0.45593999997E+02  0.45594000000E+02  0.51100000000E-03 0.  1.
         11   -1    0    0    0    0 -0.00000000000E+00 -0.00000000000E+00 -0.45593999997E+02  0.45594000000E+02  0.51100000000E-03 0. -1.
    9900012    2    1    2    0    0 -0.36936865270E+02  0.59872242654E+01  0.21987377834E+02  0.47787266661E+02  0.19999980015E+02 0.  0.
         12    1    1    2    0    0  0.36936865270E+02 -0.59872242654E+01 -0.21987377834E+02  0.43400733339E+02  0.00000000000E+00 0. -1.
         11    1    3    3    0    0 -0.27775577681E+02 -0.21575945880E+01  0.99494013628E+01  0.29582571181E+02  0.51100000000E-03 0.  1.
        -11    1    3    3    0    0  0.58863613705E+00  0.60456297953E+00 -0.16555151440E+00  0.85988165644E+00  0.51100000000E-03 0. -1.
        -12    1    3    3    0    0 -0.97499237256E+01  0.75402558739E+01  0.12203527985E+02  0.17344813824E+02  0.00000000000E+00 0.  1.
</event>
<event>
 7    1  0.2653124E-010  0.4778727E+02  0.7816164E-02  0.1312668E+00
        -11   -1    0    0    0    0  0.00000000000E+00  0.00000000000E+00  0.45593999997E+02  0.45594000000E+02  0.51100000000E-03 0.  1.
         11   -1    0    0    0    0 -0.00000000000E+00 -0.00000000000E+00 -0.45593999997E+02  0.45594000000E+02  0.51100000000E-03 0. -1.
    9900012    2    1    2    0    0  0.89940575895E+01  0.69392891472E+01  0.41887665271E+02  0.47787270656E+02  0.19999998228E+02 0.  0.
         12    1    1    2    0    0 -0.89940575895E+01 -0.69392891472E+01 -0.41887665271E+02  0.43400729344E+02  0.00000000000E+00 0. -1.
         11    1    3    3    0    0  0.35739169802E+01  0.57355434592E+01  0.24668380538E+01  0.71940691961E+01  0.51100000000E-03 0. -1.
        -11    1    3    3    0    0 -0.10984534855E+00 -0.38952486454E+00 -0.27052738110E+00  0.48680688752E+00  0.51100000000E-03 0.  1.
        -12    1    3    3    0    0  0.55299859578E+01  0.15932705525E+01  0.39691354598E+02  0.40106394572E+02  0.00000000000E+00 0.  1.
</event>
<event>
 7    1  0.2653124E-010  0.4778728E+02  0.7816164E-02  0.1312668E+00
        -11   -1    0    0    0    0  0.00000000000E+00  0.00000000000E+00  0.45593999997E+02  0.45594000000E+02  0.51100000000E-03 0. -1.
         11   -1    0    0    0    0 -0.00000000000E+00 -0.00000000000E+00 -0.45593999997E+02  0.45594000000E+02  0.51100000000E-03 0.  1.
    9900012    2    1    2    0    0 -0.39102354941E+02 -0.91832798526E+01 -0.16440679710E+02  0.47787277193E+02  0.20000028035E+02 0.  0.
         12    1    1    2    0    0  0.39102354941E+02  0.91832798526E+01  0.16440679710E+02  0.43400722807E+02  0.00000000000E+00 0. -1.
         11    1    3    3    0    0 -0.14055069393E+02 -0.34139597647E+01 -0.12487905718E+02  0.19108843146E+02  0.51100000000E-03 0. -1.
        -11    1    3    3    0    0 -0.67925156011E+00 -0.19630508012E+01 -0.34292979773E+01  0.40093685298E+01  0.51100000000E-03 0.  1.
        -12    1    3    3    0    0 -0.24368033989E+02 -0.38062692868E+01 -0.52347601507E+00  0.24669065517E+02  0.00000000000E+00 0.  1.
</event>
<event>
 7    1  0.2653124E-010  0.4778727E+02  0.7816164E-02  0.1312668E+00
        -11   -1    0    0    0    0  0.00000000000E+00  0.00000000000E+00  0.45593999997E+02  0.45594000000E+02  0.51100000000E-03 0.  1.
         11   -1    0    0    0    0 -0.00000000000E+00 -0.00000000000E+00 -0.45593999997E+02  0.45594000000E+02  0.51100000000E-03 0. -1.
    9900012    2    1    2    0    0 -0.16100270450E+02 -0.14153271987E+02  0.37737112730E+02  0.47787268512E+02  0.19999988455E+02 0.  0.
         12    1    1    2    0    0  0.16100270450E+02  0.14153271987E+02 -0.37737112730E+02  0.43400731488E+02  0.00000000000E+00 0. -1.
         11    1    3    3    0    0 -0.98820279391E+01  0.80362492561E+00  0.84473676959E+01  0.13025295024E+02  0.51100000000E-03 0. -1.
        -11    1    3    3    0    0 -0.28693896844E+01 -0.15460144764E+01  0.12325906399E+01  0.34846574967E+01  0.51100000000E-03 0.  1.
        -12    1    3    3    0    0 -0.33488528266E+01 -0.13410882436E+02  0.28057154394E+02  0.31277315992E+02  0.00000000000E+00 0.  1.
</event>
<event>
 7    1  0.2653124E-010  0.4778727E+02  0.7816164E-02  0.1312668E+00
        -11   -1    0    0    0    0  0.00000000000E+00  0.00000000000E+00  0.45593999997E+02  0.45594000000E+02  0.51100000000E-03 0.  1.
         11   -1    0    0    0    0 -0.00000000000E+00 -0.00000000000E+00 -0.45593999997E+02  0.45594000000E+02  0.51100000000E-03 0. -1.
    9900012    2    1    2    0    0  0.23551793384E+02  0.21931830275E+02  0.29119256154E+02  0.47787271552E+02  0.20000002316E+02 0.  0.
         12    1    1    2    0    0 -0.23551793384E+02 -0.21931830275E+02 -0.29119256154E+02  0.43400728448E+02  0.00000000000E+00 0. -1.
         11    1    3    3    0    0 -0.17627526551E+01  0.77216115217E+01  0.67049226078E+01  0.10377213925E+02  0.51100000000E-03 0. -1.
        -11    1    3    3    0    0  0.12466162848E+02  0.91587444383E+01  0.78666809522E+01  0.17354321805E+02  0.51100000000E-03 0.  1.
        -12    1    3    3    0    0  0.12848383191E+02  0.50514743149E+01  0.14547652594E+02  0.20055735822E+02  0.00000000000E+00 0.  1.
</event>
<event>
 7    1  0.2653124E-010  0.4778727E+02  0.7816164E-02  0.1312668E+00
        -11   -1    0    0    0    0  0.00000000000E+00  0.00000000000E+00  0.45593999997E+02  0.45594000000E+02  0.51100000000E-03 0.  1.
         11   -1    0    0    0    0 -0.00000000000E+00 -0.00000000000E+00 -0.45593999997E+02  0.45594000000E+02  0.51100000000E-03 0. -1.
    9900012    2    1    2    0    0 -0.35239443319E+02  0.22265795458E+02  0.12084661326E+02  0.47787273598E+02  0.20000011643E+02 0.  0.
         12    1    1    2    0    0  0.35239443319E+02 -0.22265795458E+02 -0.12084661326E+02  0.43400726402E+02  0.00000000000E+00 0. -1.
         11    1    3    3    0    0 -0.23157199878E+02  0.78586734133E+01  0.24876821853E+01  0.24580545497E+02  0.51100000000E-03 0. -1.
        -11    1    3    3    0    0 -0.79038765087E+01  0.33148463558E+01  0.70149478642E+01  0.11075602197E+02  0.51100000000E-03 0.  1.
        -12    1    3    3    0    0 -0.41783669327E+01  0.11092275689E+02  0.25820312765E+01  0.12131125904E+02  0.00000000000E+00 0.  1.
</event>
<event>
 7    1  0.2653124E-010  0.4778727E+02  0.7816164E-02  0.1312668E+00
        -11   -1    0    0    0    0  0.00000000000E+00  0.00000000000E+00  0.45593999997E+02  0.45594000000E+02  0.51100000000E-03 0.  1.
         11   -1    0    0    0    0 -0.00000000000E+00 -0.00000000000E+00 -0.45593999997E+02  0.45594000000E+02  0.51100000000E-03 0. -1.
    9900012    2    1    2    0    0  0.22780962541E+02  0.22778177857E+02  0.29082743946E+02  0.47787266871E+02  0.19999980970E+02 0.  0.
         12    1    1    2    0    0 -0.22780962541E+02 -0.22778177857E+02 -0.29082743946E+02  0.43400733129E+02  0.00000000000E+00 0. -1.
         11    1    3    3    0    0 -0.14326922367E+01  0.58742942814E+01  0.17512659820E+01  0.62949879389E+01  0.51100000000E-03 0. -1.
        -11    1    3    3    0    0  0.49711363339E+01  0.92207555418E+01  0.84248953435E+01  0.13442968088E+02  0.51100000000E-03 0.  1.
        -12    1    3    3    0    0  0.19242518444E+02  0.76831280333E+01  0.18906582620E+02  0.28049310844E+02  0.00000000000E+00 0.  1.
</event>
<event>
 7    1  0.2653124E-010  0.4778728E+02  0.7816164E-02  0.1312668E+00
        -11   -1    0    0    0    0  0.00000000000E+00  0.00000000000E+00  0.45593999997E+02  0.45594000000E+02  0.51100000000E-03 0.  1.
         11   -1    0    0    0    0 -0.00000000000E+00 -0.00000000000E+00 -0.45593999997E+02  0.45594000000E+02  0.51100000000E-03 0. -1.
    9900012    2    1    2    0    0 -0.12314399166E+01  0.33017550796E+02  0.28141567534E+02  0.47787275028E+02  0.20000018164E+02 0.  0.
         12    1    1    2    0    0  0.12314399166E+01 -0.33017550796E+02 -0.28141567534E+02  0.43400724972E+02  0.00000000000E+00 0. -1.
         11    1    3    3    0    0  0.10488479216E+01  0.15169130167E+01 -0.24442836233E-01  0.18443711059E+01  0.51100000000E-03 0. -1.
        -11    1    3    3    0    0 -0.10061654680E+02  0.15704865781E+02  0.13458891131E+02  0.23000466404E+02  0.51100000000E-03 0.  1.
         12    1    3    3    0    0  0.77813668417E+01  0.15795771998E+02  0.14707119239E+02  0.22942437518E+02  0.00000000000E+00 0. -1.
</event>
<event>
 7    1  0.2653124E-010  0.4778727E+02  0.7816164E-02  0.1312668E+00
        -11   -1    0    0    0    0  0.00000000000E+00  0.00000000000E+00  0.45593999997E+02  0.45594000000E+02  0.51100000000E-03 0. -1.
         11   -1    0    0    0    0 -0.00000000000E+00 -0.00000000000E+00 -0.45593999997E+02  0.45594000000E+02  0.51100000000E-03 0.  1.
    9900012    2    1    2    0    0  0.42543775930E+01  0.19386559817E+02 -0.38596436319E+02  0.47787270435E+02  0.19999997222E+02 0.  0.
         12    1    1    2    0    0 -0.42543775930E+01 -0.19386559817E+02  0.38596436319E+02  0.43400729565E+02  0.00000000000E+00 0. -1.
         11    1    3    3    0    0  0.88783166491E+01  0.82452417497E+01 -0.17798660300E+02  0.21531391659E+02  0.51100000000E-03 0. -1.
        -11    1    3    3    0    0  0.75857633335E+00  0.17418656731E+01 -0.12414796002E+02  0.12559326977E+02  0.51100000000E-03 0.  1.
        -12    1    3    3    0    0 -0.53825153894E+01  0.93994523947E+01 -0.83829800166E+01  0.13696551799E+02  0.00000000000E+00 0.  1.
</event>
<event>
 7    1  0.2653124E-010  0.4778727E+02  0.7816164E-02  0.1312668E+00
        -11   -1    0    0    0    0  0.00000000000E+00  0.00000000000E+00  0.45593999997E+02  0.45594000000E+02  0.51100000000E-03 0.  1.
         11   -1    0    0    0    0 -0.00000000000E+00 -0.00000000000E+00 -0.45593999997E+02  0.45594000000E+02  0.51100000000E-03 0. -1.
    9900012    2    1    2    0    0  0.11395284704E+02 -0.40612138589E+02  0.10218870550E+02  0.47787266947E+02  0.19999981318E+02 0.  0.
         12    1    1    2    0    0 -0.11395284704E+02  0.40612138589E+02 -0.10218870550E+02  0.43400733053E+02  0.00000000000E+00 0. -1.
         11    1    3    3    0    0  0.25093438016E+01 -0.50025928757E+01  0.91636349830E+01  0.10737548517E+02  0.51100000000E-03 0. -1.
        -11    1    3    3    0    0  0.23845042972E+00  0.18242087159E-01 -0.27365020757E+00  0.36342272686E+00  0.51100000000E-03 0.  1.
        -12    1    3    3    0    0  0.86474904726E+01 -0.35627787800E+02  0.13288857747E+01  0.36686295703E+02  0.00000000000E+00 0.  1.
</event>
<event>
 7    1  0.2653124E-010  0.4778730E+02  0.7816164E-02  0.1312668E+00
        -11   -1    0    0    0    0  0.00000000000E+00  0.00000000000E+00  0.45593999997E+02  0.45594000000E+02  0.51100000000E-03 0. -1.
         11   -1    0    0    0    0 -0.00000000000E+00 -0.00000000000E+00 -0.45593999997E+02  0.45594000000E+02  0.51100000000E-03 0.  1.
    9900012    2    1    2    0    0 -0.43329156581E+02 -0.13198530483E+01 -0.21126655948E+01  0.47787295190E+02  0.20000110087E+02 0.  0.
         12    1    1    2    0    0  0.43329156581E+02  0.13198530483E+01  0.21126655948E+01  0.43400704810E+02  0.00000000000E+00 0. -1.
         11    1    3    3    0    0 -0.11450666526E+02  0.31379952130E+01  0.23032179976E+01  0.12094196594E+02  0.51100000000E-03 0. -1.
        -11    1    3    3    0    0 -0.18297564151E+02  0.41047731613E+01  0.91952666734E+00  0.18774864743E+02  0.51100000000E-03 0.  1.
         12    1    3    3    0    0 -0.13580925905E+02 -0.85626214227E+01 -0.53354102598E+01  0.16918233853E+02  0.00000000000E+00 0. -1.
</event>
<event>
 7    1  0.2883444E-010  0.4778727E+02  0.7816164E-02  0.1312668E+00
        -11   -1    0    0    0    0  0.00000000000E+00  0.00000000000E+00  0.45593999997E+02  0.45594000000E+02  0.51100000000E-03 0. -1.
         11   -1    0    0    0    0 -0.00000000000E+00 -0.00000000000E+00 -0.45593999997E+02  0.45594000000E+02  0.51100000000E-03 0.  1.
    9900012    2    1    2    0    0  0.20976522231E+02 -0.31214364525E+02 -0.21662693397E+02  0.47787270480E+02  0.19999997428E+02 0.  0.
         12    1    1    2    0    0 -0.20976522231E+02  0.31214364525E+02  0.21662693397E+02  0.43400729520E+02  0.00000000000E+00 0. -1.
         11    1    3    3    0    0  0.42429686100E+01 -0.11037418633E+02 -0.27191740126E+01  0.12133478490E+02  0.51100000000E-03 0.  1.
        -11    1    3    3    0    0  0.16821810603E+02 -0.20452890314E+02 -0.12640470711E+02  0.29344088574E+02  0.51100000000E-03 0. -1.
         12    1    3    3    0    0 -0.88256982534E-01  0.27594442143E+00 -0.63030486737E+01  0.63097034163E+01  0.00000000000E+00 0. -1.
</event>
<event>
 7    1  0.2653124E-010  0.4778727E+02  0.7816164E-02  0.1312668E+00
        -11   -1    0    0    0    0  0.00000000000E+00  0.00000000000E+00  0.45593999997E+02  0.45594000000E+02  0.51100000000E-03 0. -1.
         11   -1    0    0    0    0 -0.00000000000E+00 -0.00000000000E+00 -0.45593999997E+02  0.45594000000E+02  0.51100000000E-03 0.  1.
    9900012    2    1    2    0    0  0.40668402117E+02 -0.24941730976E+01 -0.14949366778E+02  0.47787269624E+02  0.19999993521E+02 0.  0.
         12    1    1    2    0    0 -0.40668402117E+02  0.24941730976E+01  0.14949366778E+02  0.43400730376E+02  0.00000000000E+00 0. -1.
         11    1    3    3    0    0  0.16629431055E+01 -0.99010120267E+00 -0.26034926294E+01  0.32440490588E+01  0.51100000000E-03 0. -1.
        -11    1    3    3    0    0  0.39893494699E+02 -0.39179286861E+00 -0.14073387427E+02  0.42304901074E+02  0.51100000000E-03 0.  1.
         12    1    3    3    0    0 -0.88803568742E+00 -0.11122790263E+01  0.17275132791E+01  0.22383194910E+01  0.00000000000E+00 0. -1.
</event>
<event>
 7    1  0.2653124E-010  0.4778727E+02  0.7816164E-02  0.1312668E+00
        -11   -1    0    0    0    0  0.00000000000E+00  0.00000000000E+00  0.45593999997E+02  0.45594000000E+02  0.51100000000E-03 0.  1.
         11   -1    0    0    0    0 -0.00000000000E+00 -0.00000000000E+00 -0.45593999997E+02  0.45594000000E+02  0.51100000000E-03 0. -1.
    9900012    2    1    2    0    0 -0.33749897308E+02 -0.69415971686E+01  0.26389045263E+02  0.47787273630E+02  0.20000011789E+02 0.  0.
         12    1    1    2    0    0  0.33749897308E+02  0.69415971686E+01 -0.26389045263E+02  0.43400726370E+02  0.00000000000E+00 0. -1.
         11    1    3    3    0    0 -0.13513700229E+01 -0.64051375029E+00 -0.10034475507E+01  0.18009347715E+01  0.51100000000E-03 0. -1.
        -11    1    3    3    0    0 -0.22094583133E+02 -0.11134717788E+02  0.23018124705E+02  0.33793292371E+02  0.51100000000E-03 0.  1.
        -12    1    3    3    0    0 -0.10303944152E+02  0.48336343700E+01  0.43743681084E+01  0.12193046488E+02  0.00000000000E+00 0.  1.
</event>
<event>
 7    1  0.2653124E-010  0.4778727E+02  0.7816164E-02  0.1312668E+00
        -11   -1    0    0    0    0  0.00000000000E+00  0.00000000000E+00  0.45593999997E+02  0.45594000000E+02  0.51100000000E-03 0.  1.
         11   -1    0    0    0    0 -0.00000000000E+00 -0.00000000000E+00 -0.45593999997E+02  0.45594000000E+02  0.51100000000E-03 0. -1.
    9900012    2    1    2    0    0  0.17466554154E+01 -0.42675497813E+02  0.77054795365E+01  0.47787270356E+02  0.19999996862E+02 0.  0.
         12    1    1    2    0    0 -0.17466554154E+01  0.42675497813E+02 -0.77054795365E+01  0.43400729644E+02  0.00000000000E+00 0. -1.
         11    1    3    3    0    0  0.68054826103E+00  0.10709979545E+01  0.72687547419E+00  0.14623716252E+01  0.51100000000E-03 0. -1.
        -11    1    3    3    0    0 -0.40347684045E+01 -0.38902402926E+01  0.53586336557E+00  0.56303175239E+01  0.51100000000E-03 0.  1.
        -12    1    3    3    0    0  0.51008755589E+01 -0.39856255475E+02  0.64427406967E+01  0.40694581207E+02  0.00000000000E+00 0.  1.
</event>
<event>
 7    1  0.2653124E-010  0.4778727E+02  0.7816164E-02  0.1312668E+00
        -11   -1    0    0    0    0  0.00000000000E+00  0.00000000000E+00  0.45593999997E+02  0.45594000000E+02  0.51100000000E-03 0. -1.
         11   -1    0    0    0    0 -0.00000000000E+00 -0.00000000000E+00 -0.45593999997E+02  0.45594000000E+02  0.51100000000E-03 0.  1.
    9900012    2    1    2    0    0 -0.72831617383E+01 -0.29388310526E+02 -0.31095110949E+02  0.47787272294E+02  0.20000005696E+02 0.  0.
         12    1    1    2    0    0  0.72831617383E+01  0.29388310526E+02  0.31095110949E+02  0.43400727706E+02  0.00000000000E+00 0. -1.
         11    1    3    3    0    0 -0.24140703137E+01 -0.10930443134E+02 -0.17299765890E+02  0.20605441580E+02  0.51100000000E-03 0. -1.
        -11    1    3    3    0    0 -0.10370156698E+01 -0.93746266689E+01 -0.14500569156E+02  0.17298136685E+02  0.51100000000E-03 0.  1.
         12    1    3    3    0    0 -0.38320757549E+01 -0.90832407233E+01  0.70522409659E+00  0.98836940288E+01  0.00000000000E+00 0. -1.
</event>
<event>
 7    1  0.2653124E-010  0.4778728E+02  0.7816164E-02  0.1312668E+00
        -11   -1    0    0    0    0  0.00000000000E+00  0.00000000000E+00  0.45593999997E+02  0.45594000000E+02  0.51100000000E-03 0.  1.
         11   -1    0    0    0    0 -0.00000000000E+00 -0.00000000000E+00 -0.45593999997E+02  0.45594000000E+02  0.51100000000E-03 0. -1.
    9900012    2    1    2    0    0 -0.28379084012E+02  0.95702236723E+00  0.32822770331E+02  0.47787279345E+02  0.20000037845E+02 0.  0.
         12    1    1    2    0    0  0.28379084012E+02 -0.95702236723E+00 -0.32822770331E+02  0.43400720655E+02  0.00000000000E+00 0. -1.
         11    1    3    3    0    0 -0.11259892938E+02  0.96124485445E+01  0.17649618983E+02  0.23036783770E+02  0.51100000000E-03 0. -1.
        -11    1    3    3    0    0 -0.34085830265E+01 -0.13992763696E+00  0.24900654148E+01  0.42235582183E+01  0.51100000000E-03 0.  1.
        -12    1    3    3    0    0 -0.13710608048E+02 -0.85154985403E+01  0.12683085934E+02  0.20526937356E+02  0.00000000000E+00 0.  1.
</event>
<event>
 7    1  0.2653124E-010  0.4778727E+02  0.7816164E-02  0.1312668E+00
        -11   -1    0    0    0    0  0.00000000000E+00  0.00000000000E+00  0.45593999997E+02  0.45594000000E+02  0.51100000000E-03 0. -1.
         11   -1    0    0    0    0 -0.00000000000E+00 -0.00000000000E+00 -0.45593999997E+02  0.45594000000E+02  0.51100000000E-03 0.  1.
    9900012    2    1    2    0    0  0.15457518823E+02  0.17204216831E+02 -0.36724697663E+02  0.47787269783E+02  0.19999994248E+02 0.  0.
         12    1    1    2    0    0 -0.15457518823E+02 -0.17204216831E+02  0.36724697663E+02  0.43400730217E+02  0.00000000000E+00 0. -1.
         11    1    3    3    0    0  0.12025735265E+02  0.35971488271E+01 -0.82683427712E+01  0.15030744518E+02  0.51100000000E-03 0. -1.
        -11    1    3    3    0    0  0.31337011556E+00  0.20686768586E+01 -0.23126273472E+00  0.21050195933E+01  0.51100000000E-03 0.  1.
        -12    1    3    3    0    0  0.31184134426E+01  0.11538391145E+02 -0.28225092157E+02  0.30651505671E+02  0.00000000000E+00 0.  1.
</event>
<event>
 7    1  0.2653124E-010  0.4778727E+02  0.7816164E-02  0.1312668E+00
        -11   -1    0    0    0    0  0.00000000000E+00  0.00000000000E+00  0.45593999997E+02  0.45594000000E+02  0.51100000000E-03 0.  1.
         11   -1    0    0    0    0 -0.00000000000E+00 -0.00000000000E+00 -0.45593999997E+02  0.45594000000E+02  0.51100000000E-03 0. -1.
    9900012    2    1    2    0    0 -0.77366633657E+01 -0.25400693166E-01  0.42705582189E+02  0.47787270106E+02  0.19999995719E+02 0.  0.
         12    1    1    2    0    0  0.77366633657E+01  0.25400693166E-01 -0.42705582189E+02  0.43400729894E+02  0.00000000000E+00 0. -1.
         11    1    3    3    0    0 -0.40270949144E+01  0.46664275083E+01  0.13962560266E+02  0.15262572804E+02  0.51100000000E-03 0. -1.
        -11    1    3    3    0    0  0.25454755172E+01 -0.38856224491E+00  0.22633343896E+02  0.22779347716E+02  0.51100000000E-03 0.  1.
         12    1    3    3    0    0 -0.62550439685E+01 -0.43032659565E+01  0.61096780278E+01  0.97453495855E+01  0.00000000000E+00 0. -1.
</event>
<event>
 7    1  0.2653124E-010  0.4778727E+02  0.7816164E-02  0.1312668E+00
        -11   -1    0    0    0    0  0.00000000000E+00  0.00000000000E+00  0.45593999997E+02  0.45594000000E+02  0.51100000000E-03 0.  1.
         11   -1    0    0    0    0 -0.00000000000E+00 -0.00000000000E+00 -0.45593999997E+02  0.45594000000E+02  0.51100000000E-03 0. -1.
    9900012    2    1    2    0    0  0.11857715360E+02  0.20050570295E+02  0.36619565714E+02  0.47787269871E+02  0.19999994648E+02 0.  0.
         12    1    1    2    0    0 -0.11857715360E+02 -0.20050570295E+02 -0.36619565714E+02  0.43400730129E+02  0.00000000000E+00 0. -1.
         11    1    3    3    0    0 -0.26384815213E+01  0.86029059729E+00  0.57488799642E+00  0.28341102871E+01  0.51100000000E-03 0. -1.
        -11    1    3    3    0    0  0.63779248412E+01  0.90124674800E+01  0.68657674905E+01  0.13001586782E+02  0.51100000000E-03 0.  1.
         12    1    3    3    0    0  0.81182720397E+01  0.10177812218E+02  0.29178910227E+02  0.31951572801E+02  0.00000000000E+00 0. -1.
</event>
<event>
 7    1  0.2653124E-010  0.4778727E+02  0.7816164E-02  0.1312668E+00
        -11   -1    0    0    0    0  0.00000000000E+00  0.00000000000E+00  0.45593999997E+02  0.45594000000E+02  0.51100000000E-03 0.  1.
         11   -1    0    0    0    0 -0.00000000000E+00 -0.00000000000E+00 -0.45593999997E+02  0.45594000000E+02  0.51100000000E-03 0. -1.
    9900012    2    1    2    0    0  0.53890108753E+01 -0.27636503729E+02  0.33027351691E+02  0.47787265717E+02  0.19999975710E+02 0.  0.
         12    1    1    2    0    0 -0.53890108753E+01  0.27636503729E+02 -0.33027351691E+02  0.43400734283E+02  0.00000000000E+00 0. -1.
         11    1    3    3    0    0  0.47293814007E+01 -0.46452000426E+01  0.15969245556E+01  0.68187315658E+01  0.51100000000E-03 0. -1.
        -11    1    3    3    0    0  0.56961263705E+01 -0.18522838857E+02  0.21212425650E+02  0.28731662277E+02  0.51100000000E-03 0.  1.
        -12    1    3    3    0    0 -0.50364968959E+01 -0.44684648290E+01  0.10218001485E+02  0.12236871874E+02  0.00000000000E+00 0.  1.
</event>
<event>
 7    1  0.2653124E-010  0.4778731E+02  0.7816164E-02  0.1312668E+00
        -11   -1    0    0    0    0  0.00000000000E+00  0.00000000000E+00  0.45593999997E+02  0.45594000000E+02  0.51100000000E-03 0.  1.
         11   -1    0    0    0    0 -0.00000000000E+00 -0.00000000000E+00 -0.45593999997E+02  0.45594000000E+02  0.51100000000E-03 0. -1.
    9900012    2    1    2    0    0  0.42558879424E+02  0.81115238231E+01 -0.25621297433E+01  0.47787313999E+02  0.20000195847E+02 0.  0.
         12    1    1    2    0    0 -0.42558879424E+02 -0.81115238231E+01  0.25621297433E+01  0.43400686001E+02  0.00000000000E+00 0. -1.
         11    1    3    3    0    0  0.17122347366E+02  0.37773138625E+01 -0.67702945689E+01  0.18795738031E+02  0.51100000000E-03 0. -1.
        -11    1    3    3    0    0  0.77632511439E+01  0.13040970122E+01 -0.44895613115E+01  0.90622788730E+01  0.51100000000E-03 0.  1.
        -12    1    3    3    0    0  0.17673280914E+02  0.30301129484E+01  0.86977261370E+01  0.19929297095E+02  0.00000000000E+00 0.  1.
</event>
<event>
 7    1  0.2653124E-010  0.4778727E+02  0.7816164E-02  0.1312668E+00
        -11   -1    0    0    0    0  0.00000000000E+00  0.00000000000E+00  0.45593999997E+02  0.45594000000E+02  0.51100000000E-03 0.  1.
         11   -1    0    0    0    0 -0.00000000000E+00 -0.00000000000E+00 -0.45593999997E+02  0.45594000000E+02  0.51100000000E-03 0. -1.
    9900012    2    1    2    0    0 -0.23160063738E+02  0.29093399473E+02  0.22378766105E+02  0.47787267084E+02  0.19999981945E+02 0.  0.
         12    1    1    2    0    0  0.23160063738E+02 -0.29093399473E+02 -0.22378766105E+02  0.43400732916E+02  0.00000000000E+00 0. -1.
         11    1    3    3    0    0 -0.12150082248E+01  0.61407057432E+00  0.39987360623E+01  0.42241233426E+01  0.51100000000E-03 0. -1.
        -11    1    3    3    0    0 -0.75146365484E+01  0.54175476171E+01 -0.21152721479E+01  0.95023134635E+01  0.51100000000E-03 0.  1.
        -12    1    3    3    0    0 -0.14430418965E+02  0.23061781281E+02  0.20495302191E+02  0.34060830278E+02  0.00000000000E+00 0.  1.
</event>
<event>
 7    1  0.2653124E-010  0.4778728E+02  0.7816164E-02  0.1312668E+00
        -11   -1    0    0    0    0  0.00000000000E+00  0.00000000000E+00  0.45593999997E+02  0.45594000000E+02  0.51100000000E-03 0.  1.
         11   -1    0    0    0    0 -0.00000000000E+00 -0.00000000000E+00 -0.45593999997E+02  0.45594000000E+02  0.51100000000E-03 0. -1.
    9900012    2    1    2    0    0  0.32396067156E+02 -0.23076373519E+02  0.17366596693E+02  0.47787275782E+02  0.20000021600E+02 0.  0.
         12    1    1    2    0    0 -0.32396067156E+02  0.23076373519E+02 -0.17366596693E+02  0.43400724218E+02  0.00000000000E+00 0. -1.
         11    1    3    3    0    0  0.68710945598E+01 -0.38387815508E+01 -0.15033396968E+01  0.80130028547E+01  0.51100000000E-03 0. -1.
        -11    1    3    3    0    0  0.15909367148E+02 -0.16207264859E+02  0.61220537980E+01  0.23521542046E+02  0.51100000000E-03 0.  1.
         12    1    3    3    0    0  0.96156054489E+01 -0.30303271090E+01  0.12747882592E+02  0.16252730882E+02  0.00000000000E+00 0. -1.
</event>
<event>
 7    1  0.2653124E-010  0.4778727E+02  0.7816164E-02  0.1312668E+00
        -11   -1    0    0    0    0  0.00000000000E+00  0.00000000000E+00  0.45593999997E+02  0.45594000000E+02  0.51100000000E-03 0.  1.
         11   -1    0    0    0    0 -0.00000000000E+00 -0.00000000000E+00 -0.45593999997E+02  0.45594000000E+02  0.51100000000E-03 0. -1.
    9900012    2    1    2    0    0  0.27709310592E+02 -0.24092046590E+02  0.23138510468E+02  0.47787271100E+02  0.20000000255E+02 0.  0.
         12    1    1    2    0    0 -0.27709310592E+02  0.24092046590E+02 -0.23138510468E+02  0.43400728900E+02  0.00000000000E+00 0. -1.
         11    1    3    3    0    0  0.25183157973E+02 -0.15694041888E+02  0.11877946547E+02  0.31962165301E+02  0.51100000000E-03 0. -1.
        -11    1    3    3    0    0  0.49045324699E+01 -0.57702833561E+01  0.78031607159E+01  0.10873818381E+02  0.51100000000E-03 0.  1.
        -12    1    3    3    0    0 -0.23783798511E+01 -0.26277213454E+01  0.34574032045E+01  0.49512874188E+01  0.00000000000E+00 0.  1.
</event>
<event>
 7    1  0.2653124E-010  0.4778727E+02  0.7816164E-02  0.1312668E+00
        -11   -1    0    0    0    0  0.00000000000E+00  0.00000000000E+00  0.45593999997E+02  0.45594000000E+02  0.51100000000E-03 0. -1.
         11   -1    0    0    0    0 -0.00000000000E+00 -0.00000000000E+00 -0.45593999997E+02  0.45594000000E+02  0.51100000000E-03 0.  1.
    9900012    2    1    2    0    0 -0.42433473362E+02 -0.60186836857E+01  0.68409875730E+01  0.47787270445E+02  0.19999997269E+02 0.  0.
         12    1    1    2    0    0  0.42433473362E+02  0.60186836857E+01 -0.68409875730E+01  0.43400729555E+02  0.00000000000E+00 0. -1.
         11    1    3    3    0    0 -0.20094805378E+02  0.26318549798E+01  0.29320217932E+01  0.20477417217E+02  0.51100000000E-03 0. -1.
        -11    1    3    3    0    0 -0.14259399717E+02  0.11634105314E+01  0.16964833874E+01  0.14407014281E+02  0.51100000000E-03 0.  1.
         12    1    3    3    0    0 -0.80792682678E+01 -0.98139491969E+01  0.22124823924E+01  0.12902838948E+02  0.00000000000E+00 0. -1.
</event>
<event>
 7    1  0.2653124E-010  0.4778727E+02  0.7816164E-02  0.1312668E+00
        -11   -1    0    0    0    0  0.00000000000E+00  0.00000000000E+00  0.45593999997E+02  0.45594000000E+02  0.51100000000E-03 0. -1.
         11   -1    0    0    0    0 -0.00000000000E+00 -0.00000000000E+00 -0.45593999997E+02  0.45594000000E+02  0.51100000000E-03 0.  1.
    9900012    2    1    2    0    0 -0.40031638342E+02 -0.16558965269E+02  0.26252364307E+01  0.47787271142E+02  0.20000000444E+02 0.  0.
         12    1    1    2    0    0  0.40031638342E+02  0.16558965269E+02 -0.26252364307E+01  0.43400728858E+02  0.00000000000E+00 0. -1.
         11    1    3    3    0    0 -0.10472318543E+02  0.15133556931E+01  0.13953129225E+01  0.10672703478E+02  0.51100000000E-03 0. -1.
        -11    1    3    3    0    0 -0.11741271211E+02 -0.27179645093E+00 -0.12296760538E+01  0.11808616618E+02  0.51100000000E-03 0.  1.
         12    1    3    3    0    0 -0.17818048587E+02 -0.17800524511E+02  0.24595995620E+01  0.25305951046E+02  0.00000000000E+00 0. -1.
</event>
<event>
 7    1  0.2653124E-010  0.4778727E+02  0.7816164E-02  0.1312668E+00
        -11   -1    0    0    0    0  0.00000000000E+00  0.00000000000E+00  0.45593999997E+02  0.45594000000E+02  0.51100000000E-03 0.  1.
         11   -1    0    0    0    0 -0.00000000000E+00 -0.00000000000E+00 -0.45593999997E+02  0.45594000000E+02  0.51100000000E-03 0. -1.
    9900012    2    1    2    0    0 -0.11602829245E+02 -0.21177924355E+02  0.36062349882E+02  0.47787271832E+02  0.20000003590E+02 0.  0.
         12    1    1    2    0    0  0.11602829245E+02  0.21177924355E+02 -0.36062349882E+02  0.43400728168E+02  0.00000000000E+00 0. -1.
         11    1    3    3    0    0 -0.41093805534E+01 -0.60911745832E+01  0.68303380781E+00  0.73794276052E+01  0.51100000000E-03 0. -1.
        -11    1    3    3    0    0 -0.48923592051E+01 -0.11500299896E+02  0.14865188577E+02  0.19420759717E+02  0.51100000000E-03 0.  1.
         12    1    3    3    0    0 -0.26010894870E+01 -0.35864498757E+01  0.20514127497E+02  0.20987084509E+02  0.00000000000E+00 0. -1.
</event>
<event>
 7    1  0.2653124E-010  0.4778727E+02  0.7816164E-02  0.1312668E+00
        -11   -1    0    0    0    0  0.00000000000E+00  0.00000000000E+00  0.45593999997E+02  0.45594000000E+02  0.51100000000E-03 0.  1.
         11   -1    0    0    0    0 -0.00000000000E+00 -0.00000000000E+00 -0.45593999997E+02  0.45594000000E+02  0.51100000000E-03 0. -1.
    9900012    2    1    2    0    0 -0.15604958337E+02 -0.31014730611E+02  0.26042179474E+02  0.47787270152E+02  0.19999995933E+02 0.  0.
         12    1    1    2    0    0  0.15604958337E+02  0.31014730611E+02 -0.26042179474E+02  0.43400729848E+02  0.00000000000E+00 0. -1.
         11    1    3    3    0    0 -0.66251424026E+01 -0.19727652035E+01  0.16056904099E+01  0.70966581118E+01  0.51100000000E-03 0. -1.
        -11    1    3    3    0    0 -0.61024700921E+01 -0.12292789777E+02  0.43884588419E+01  0.14408726279E+02  0.51100000000E-03 0.  1.
        -12    1    3    3    0    0 -0.28773458424E+01 -0.16749175630E+02  0.20048030222E+02  0.26281885761E+02  0.00000000000E+00 0.  1.
</event>
<event>
 7    1  0.2653124E-010  0.4778727E+02  0.7816164E-02  0.1312668E+00
        -11   -1    0    0    0    0  0.00000000000E+00  0.00000000000E+00  0.45593999997E+02  0.45594000000E+02  0.51100000000E-03 0.  1.
         11   -1    0    0    0    0 -0.00000000000E+00 -0.00000000000E+00 -0.45593999997E+02  0.45594000000E+02  0.51100000000E-03 0. -1.
    9900012    2    1    2    0    0 -0.13484976994E+01  0.34952918368E+02  0.25692381347E+02  0.47787269502E+02  0.19999992968E+02 0.  0.
         12    1    1    2    0    0  0.13484976994E+01 -0.34952918368E+02 -0.25692381347E+02  0.43400730498E+02  0.00000000000E+00 0. -1.
         11    1    3    3    0    0 -0.19216404272E+01  0.60274283444E+01 -0.57700636036E+00  0.63526003321E+01  0.51100000000E-03 0. -1.
        -11    1    3    3    0    0  0.50508428297E+01  0.21053337210E+02  0.12639128203E+02  0.25069933845E+02  0.51100000000E-03 0.  1.
        -12    1    3    3    0    0 -0.44777001018E+01  0.78721528128E+01  0.13630259504E+02  0.16364735325E+02  0.00000000000E+00 0.  1.
</event>
<event>
 7    1  0.5157739E-010  0.4778733E+02  0.7816164E-02  0.1312668E+00
        -11   -1    0    0    0    0  0.00000000000E+00  0.00000000000E+00  0.45593999997E+02  0.45594000000E+02  0.51100000000E-03 0. -1.
         11   -1    0    0    0    0 -0.00000000000E+00 -0.00000000000E+00 -0.45593999997E+02  0.45594000000E+02  0.51100000000E-03 0.  1.
    9900012    2    1    2    0    0  0.21780893624E+02  0.26724695687E+02 -0.26362883968E+02  0.47787327911E+02  0.20000259277E+02 0.  0.
         12    1    1    2    0    0 -0.21780893624E+02 -0.26724695687E+02  0.26362883968E+02  0.43400672089E+02  0.00000000000E+00 0. -1.
         11    1    3    3    0    0  0.12634845664E+02  0.10350335452E+02 -0.54361758888E+01  0.17213970416E+02  0.51100000000E-03 0. -1.
        -11    1    3    3    0    0  0.88389984625E+01  0.17659029906E+02 -0.15832845067E+02  0.25311029498E+02  0.51100000000E-03 0.  1.
         12    1    3    3    0    0  0.30704949756E+00 -0.12846696719E+01 -0.50938630126E+01  0.52623279973E+01  0.00000000000E+00 0. -1.
</event>
<event>
 7    1  0.2653124E-010  0.4778727E+02  0.7816164E-02  0.1312668E+00
        -11   -1    0    0    0    0  0.00000000000E+00  0.00000000000E+00  0.45593999997E+02  0.45594000000E+02  0.51100000000E-03 0.  1.
         11   -1    0    0    0    0 -0.00000000000E+00 -0.00000000000E+00 -0.45593999997E+02  0.45594000000E+02  0.51100000000E-03 0. -1.
    9900012    2    1    2    0    0 -0.23553667823E+02 -0.26135388537E+01  0.36359561546E+02  0.47787267644E+02  0.19999984495E+02 0.  0.
         12    1    1    2    0    0  0.23553667823E+02  0.26135388537E+01 -0.36359561546E+02  0.43400732356E+02  0.00000000000E+00 0. -1.
         11    1    3    3    0    0  0.66469106762E+00 -0.10765227943E+01  0.81326650560E+01  0.82304894579E+01  0.51100000000E-03 0. -1.
        -11    1    3    3    0    0  0.24985818315E+00 -0.17518770365E+01  0.68183045633E+01  0.70442018456E+01  0.51100000000E-03 0.  1.
        -12    1    3    3    0    0 -0.24468217074E+02  0.21486097715E+00  0.21408591926E+02  0.32512576340E+02  0.00000000000E+00 0.  1.
</event>
<event>
 7    1  0.2653124E-010  0.4778730E+02  0.7816164E-02  0.1312668E+00
        -11   -1    0    0    0    0  0.00000000000E+00  0.00000000000E+00  0.45593999997E+02  0.45594000000E+02  0.51100000000E-03 0.  1.
         11   -1    0    0    0    0 -0.00000000000E+00 -0.00000000000E+00 -0.45593999997E+02  0.45594000000E+02  0.51100000000E-03 0. -1.
    9900012    2    1    2    0    0  0.67475975941E+01 -0.14499512410E+02  0.40346684935E+02  0.47787298178E+02  0.20000123711E+02 0.  0.
         12    1    1    2    0    0 -0.67475975941E+01  0.14499512410E+02 -0.40346684935E+02  0.43400701822E+02  0.00000000000E+00 0. -1.
         11    1    3    3    0    0  0.10913835176E+02 -0.76784246959E+01  0.22111255214E+02  0.25825909693E+02  0.51100000000E-03 0. -1.
        -11    1    3    3    0    0  0.11407603029E+01 -0.47287009636E+01  0.30540940961E+01  0.57436432585E+01  0.51100000000E-03 0.  1.
        -12    1    3    3    0    0 -0.53069978850E+01 -0.20923867503E+01  0.15181335625E+02  0.16217745226E+02  0.00000000000E+00 0.  1.
</event>
<event>
 7    1  0.2653124E-010  0.4778727E+02  0.7816164E-02  0.1312668E+00
        -11   -1    0    0    0    0  0.00000000000E+00  0.00000000000E+00  0.45593999997E+02  0.45594000000E+02  0.51100000000E-03 0.  1.
         11   -1    0    0    0    0 -0.00000000000E+00 -0.00000000000E+00 -0.45593999997E+02  0.45594000000E+02  0.51100000000E-03 0. -1.
    9900012    2    1    2    0    0 -0.37971493495E+02 -0.20459952670E+02 -0.48144939475E+01  0.47787270358E+02  0.19999996870E+02 0.  0.
         12    1    1    2    0    0  0.37971493495E+02  0.20459952670E+02  0.48144939475E+01  0.43400729642E+02  0.00000000000E+00 0. -1.
         11    1    3    3    0    0 -0.80704644955E+01 -0.90370562258E+01 -0.20287049087E+01  0.12284804690E+02  0.51100000000E-03 0. -1.
        -11    1    3    3    0    0 -0.16494443882E+02 -0.78317294051E+01 -0.89276508610E+01  0.20324999745E+02  0.51100000000E-03 0.  1.
        -12    1    3    3    0    0 -0.13406585117E+02 -0.35911670388E+01  0.61418618222E+01  0.15177465923E+02  0.00000000000E+00 0.  1.
</event>
<event>
 7    1  0.2653124E-010  0.4778728E+02  0.7816164E-02  0.1312668E+00
        -11   -1    0    0    0    0  0.00000000000E+00  0.00000000000E+00  0.45593999997E+02  0.45594000000E+02  0.51100000000E-03 0.  1.
         11   -1    0    0    0    0 -0.00000000000E+00 -0.00000000000E+00 -0.45593999997E+02  0.45594000000E+02  0.51100000000E-03 0. -1.
    9900012    2    1    2    0    0 -0.96872050238E+01 -0.30744481905E+02  0.29061275991E+02  0.47787275686E+02  0.20000021162E+02 0.  0.
         12    1    1    2    0    0  0.96872050238E+01  0.30744481905E+02 -0.29061275991E+02  0.43400724314E+02  0.00000000000E+00 0. -1.
         11    1    3    3    0    0 -0.49085270420E+00 -0.16303071101E+01  0.76468256564E+01  0.78340781545E+01  0.51100000000E-03 0.  1.
        -11    1    3    3    0    0 -0.85997444782E+00 -0.10916650768E+02  0.15692091205E+02  0.19135165186E+02  0.51100000000E-03 0. -1.
         12    1    3    3    0    0 -0.83363778718E+01 -0.18197524027E+02  0.57223591296E+01  0.20818032345E+02  0.00000000000E+00 0. -1.
</event>
<event>
 7    1  0.2653124E-010  0.4778727E+02  0.7816164E-02  0.1312668E+00
        -11   -1    0    0    0    0  0.00000000000E+00  0.00000000000E+00  0.45593999997E+02  0.45594000000E+02  0.51100000000E-03 0.  1.
         11   -1    0    0    0    0 -0.00000000000E+00 -0.00000000000E+00 -0.45593999997E+02  0.45594000000E+02  0.51100000000E-03 0. -1.
    9900012    2    1    2    0    0  0.88810799630E+01  0.17048549925E+02  0.38911396877E+02  0.47787269099E+02  0.19999991128E+02 0.  0.
         12    1    1    2    0    0 -0.88810799630E+01 -0.17048549925E+02 -0.38911396877E+02  0.43400730901E+02  0.00000000000E+00 0. -1.
         11    1    3    3    0    0  0.42728726773E+01  0.13355306572E+02  0.27167204541E+02  0.30572514738E+02  0.51100000000E-03 0. -1.
        -11    1    3    3    0    0  0.56910673377E+01  0.22755507366E+01  0.13428619573E+02  0.14761239870E+02  0.51100000000E-03 0.  1.
         12    1    3    3    0    0 -0.10828600520E+01  0.14176926158E+01 -0.16844272364E+01  0.24535144915E+01  0.00000000000E+00 0. -1.
</event>
<event>
 7    1  0.2653124E-010  0.4778727E+02  0.7816164E-02  0.1312668E+00
        -11   -1    0    0    0    0  0.00000000000E+00  0.00000000000E+00  0.45593999997E+02  0.45594000000E+02  0.51100000000E-03 0.  1.
         11   -1    0    0    0    0 -0.00000000000E+00 -0.00000000000E+00 -0.45593999997E+02  0.45594000000E+02  0.51100000000E-03 0. -1.
    9900012    2    1    2    0    0  0.15928307295E+02  0.29035008795E+02  0.28051398729E+02  0.47787266369E+02  0.19999978684E+02 0.  0.
         12    1    1    2    0    0 -0.15928307295E+02 -0.29035008795E+02 -0.28051398729E+02  0.43400733631E+02  0.00000000000E+00 0. -1.
         11    1    3    3    0    0  0.66026239146E+01  0.16207710554E+01  0.26064789793E+01  0.72811588571E+01  0.51100000000E-03 0. -1.
        -11    1    3    3    0    0 -0.14904292003E+00 -0.26273584950E+00 -0.10162608693E+01  0.10602029684E+01  0.51100000000E-03 0.  1.
        -12    1    3    3    0    0  0.94747263009E+01  0.27676973590E+02  0.26461180619E+02  0.39445904544E+02  0.00000000000E+00 0.  1.
</event>
<event>
 7    1  0.2653124E-010  0.4778727E+02  0.7816164E-02  0.1312668E+00
        -11   -1    0    0    0    0  0.00000000000E+00  0.00000000000E+00  0.45593999997E+02  0.45594000000E+02  0.51100000000E-03 0. -1.
         11   -1    0    0    0    0 -0.00000000000E+00 -0.00000000000E+00 -0.45593999997E+02  0.45594000000E+02  0.51100000000E-03 0.  1.
    9900012    2    1    2    0    0 -0.43472831226E+01 -0.31511394835E+02  0.29525524438E+02  0.47787268804E+02  0.19999989785E+02 0.  0.
         12    1    1    2    0    0  0.43472831226E+01  0.31511394835E+02 -0.29525524438E+02  0.43400731196E+02  0.00000000000E+00 0. -1.
         11    1    3    3    0    0  0.75049219821E+00 -0.47911029402E+00  0.42530264058E+00  0.98674607200E+00  0.51100000000E-03 0. -1.
        -11    1    3    3    0    0  0.70938937904E+01 -0.14054036956E+02  0.12009191499E+02  0.19800504150E+02  0.51100000000E-03 0.  1.
        -12    1    3    3    0    0 -0.12191669111E+02 -0.16978247584E+02  0.17091030299E+02  0.27000018582E+02  0.00000000000E+00 0.  1.
</event>
<event>
 7    1  0.2653124E-010  0.4778725E+02  0.7816164E-02  0.1312668E+00
        -11   -1    0    0    0    0  0.00000000000E+00  0.00000000000E+00  0.45593999997E+02  0.45594000000E+02  0.51100000000E-03 0.  1.
         11   -1    0    0    0    0 -0.00000000000E+00 -0.00000000000E+00 -0.45593999997E+02  0.45594000000E+02  0.51100000000E-03 0. -1.
    9900012    2    1    2    0    0  0.85435650655E+01  0.18695200192E+02  0.38224627130E+02  0.47787249621E+02  0.19999902322E+02 0.  0.
         12    1    1    2    0    0 -0.85435650655E+01 -0.18695200192E+02 -0.38224627130E+02  0.43400750379E+02  0.00000000000E+00 0. -1.
         11    1    3    3    0    0  0.13713711802E+01 -0.21058353351E+01  0.13131422425E+02  0.13369721633E+02  0.51100000000E-03 0.  1.
        -11    1    3    3    0    0 -0.19319183831E+01  0.36508035616E+01  0.40475157680E+01  0.57829974440E+01  0.51100000000E-03 0. -1.
        -12    1    3    3    0    0  0.91041122684E+01  0.17150231966E+02  0.21045688936E+02  0.28634530544E+02  0.00000000000E+00 0.  1.
</event>
<event>
 7    1  0.2653124E-010  0.4778727E+02  0.7816164E-02  0.1312668E+00
        -11   -1    0    0    0    0  0.00000000000E+00  0.00000000000E+00  0.45593999997E+02  0.45594000000E+02  0.51100000000E-03 0.  1.
         11   -1    0    0    0    0 -0.00000000000E+00 -0.00000000000E+00 -0.45593999997E+02  0.45594000000E+02  0.51100000000E-03 0. -1.
    9900012    2    1    2    0    0 -0.43064237925E+01 -0.32416714999E+02  0.28534797264E+02  0.47787270143E+02  0.19999995892E+02 0.  0.
         12    1    1    2    0    0  0.43064237925E+01  0.32416714999E+02 -0.28534797264E+02  0.43400729857E+02  0.00000000000E+00 0. -1.
         11    1    3    3    0    0  0.39642535748E+01 -0.35802021748E+01  0.20071180535E+01  0.57062840063E+01  0.51100000000E-03 0. -1.
        -11    1    3    3    0    0 -0.34969823676E+01 -0.30570458080E+01 -0.18949987355E+00  0.46486906989E+01  0.51100000000E-03 0.  1.
        -12    1    3    3    0    0 -0.47736949998E+01 -0.25779467016E+02  0.26717179084E+02  0.37432295438E+02  0.00000000000E+00 0.  1.
</event>
<event>
 7    1  0.2653124E-010  0.4778728E+02  0.7816164E-02  0.1312668E+00
        -11   -1    0    0    0    0  0.00000000000E+00  0.00000000000E+00  0.45593999997E+02  0.45594000000E+02  0.51100000000E-03 0.  1.
         11   -1    0    0    0    0 -0.00000000000E+00 -0.00000000000E+00 -0.45593999997E+02  0.45594000000E+02  0.51100000000E-03 0. -1.
    9900012    2    1    2    0    0 -0.32144515006E+02  0.28332759004E+01  0.29022837353E+02  0.47787281281E+02  0.20000046671E+02 0.  0.
         12    1    1    2    0    0  0.32144515006E+02 -0.28332759004E+01 -0.29022837353E+02  0.43400718719E+02  0.00000000000E+00 0. -1.
         11    1    3    3    0    0 -0.60185667651E+01  0.42474856515E+01  0.36877879371E+01  0.82379645785E+01  0.51100000000E-03 0. -1.
        -11    1    3    3    0    0 -0.20514016239E+02  0.56494645854E+01  0.18994051263E+02  0.28522189537E+02  0.51100000000E-03 0.  1.
         12    1    3    3    0    0 -0.56119320021E+01 -0.70636743365E+01  0.63409981534E+01  0.11027127165E+02  0.00000000000E+00 0. -1.
</event>
<event>
 7    1  0.2653124E-010  0.4778727E+02  0.7816164E-02  0.1312668E+00
        -11   -1    0    0    0    0  0.00000000000E+00  0.00000000000E+00  0.45593999997E+02  0.45594000000E+02  0.51100000000E-03 0. -1.
         11   -1    0    0    0    0 -0.00000000000E+00 -0.00000000000E+00 -0.45593999997E+02  0.45594000000E+02  0.51100000000E-03 0.  1.
    9900012    2    1    2    0    0 -0.20834864642E+01  0.31175225099E+02 -0.30122881839E+02  0.47787267448E+02  0.19999983601E+02 0.  0.
         12    1    1    2    0    0  0.20834864642E+01 -0.31175225099E+02  0.30122881839E+02  0.43400732552E+02  0.00000000000E+00 0. -1.
         11    1    3    3    0    0 -0.38812857193E+01  0.70547709024E+01 -0.40659303000E+01  0.90203082423E+01  0.51100000000E-03 0. -1.
        -11    1    3    3    0    0 -0.63391563502E+01  0.15776098999E+02 -0.14363995438E+02  0.22257460952E+02  0.51100000000E-03 0.  1.
        -12    1    3    3    0    0  0.81369556053E+01  0.83443551974E+01 -0.11692956101E+02  0.16509498253E+02  0.00000000000E+00 0.  1.
</event>
<event>
 7    1  0.2653124E-010  0.4778727E+02  0.7816164E-02  0.1312668E+00
        -11   -1    0    0    0    0  0.00000000000E+00  0.00000000000E+00  0.45593999997E+02  0.45594000000E+02  0.51100000000E-03 0.  1.
         11   -1    0    0    0    0 -0.00000000000E+00 -0.00000000000E+00 -0.45593999997E+02  0.45594000000E+02  0.51100000000E-03 0. -1.
    9900012    2    1    2    0    0 -0.14950324263E+02  0.37209967259E+02  0.16599081785E+02  0.47787269878E+02  0.19999994684E+02 0.  0.
         12    1    1    2    0    0  0.14950324263E+02 -0.37209967259E+02 -0.16599081785E+02  0.43400730122E+02  0.00000000000E+00 0. -1.
         11    1    3    3    0    0 -0.41450459845E+01  0.28287745606E+01  0.10762440406E+01  0.51324139764E+01  0.51100000000E-03 0. -1.
        -11    1    3    3    0    0  0.25777358257E+01  0.12799057697E+02  0.10531604341E+02  0.16774244846E+02  0.51100000000E-03 0.  1.
        -12    1    3    3    0    0 -0.13383014104E+02  0.21582135001E+02  0.49912334039E+01  0.25880611056E+02  0.00000000000E+00 0.  1.
</event>
<event>
 7    1  0.2653124E-010  0.4778727E+02  0.7816164E-02  0.1312668E+00
        -11   -1    0    0    0    0  0.00000000000E+00  0.00000000000E+00  0.45593999997E+02  0.45594000000E+02  0.51100000000E-03 0.  1.
         11   -1    0    0    0    0 -0.00000000000E+00 -0.00000000000E+00 -0.45593999997E+02  0.45594000000E+02  0.51100000000E-03 0. -1.
    9900012    2    1    2    0    0  0.12438607276E+02  0.20812179281E+02  0.35996628144E+02  0.47787274256E+02  0.20000014643E+02 0.  0.
         12    1    1    2    0    0 -0.12438607276E+02 -0.20812179281E+02 -0.35996628144E+02  0.43400725744E+02  0.00000000000E+00 0. -1.
         11    1    3    3    0    0 -0.20965667485E+01 -0.19385674545E+01  0.10949665005E+01  0.30582000923E+01  0.51100000000E-03 0. -1.
        -11    1    3    3    0    0  0.55554383351E+01  0.41694766799E+01  0.12278671356E+02  0.14107203884E+02  0.51100000000E-03 0.  1.
         12    1    3    3    0    0  0.89797356896E+01  0.18581270056E+02  0.22622990287E+02  0.30621870280E+02  0.00000000000E+00 0. -1.
</event>
<event>
 7    1  0.2653124E-010  0.4778727E+02  0.7816164E-02  0.1312668E+00
        -11   -1    0    0    0    0  0.00000000000E+00  0.00000000000E+00  0.45593999997E+02  0.45594000000E+02  0.51100000000E-03 0.  1.
         11   -1    0    0    0    0 -0.00000000000E+00 -0.00000000000E+00 -0.45593999997E+02  0.45594000000E+02  0.51100000000E-03 0. -1.
    9900012    2    1    2    0    0 -0.54870397358E+01 -0.67670818125E+00  0.43047155821E+02  0.47787272318E+02  0.20000005806E+02 0.  0.
         12    1    1    2    0    0  0.54870397358E+01  0.67670818125E+00 -0.43047155821E+02  0.43400727682E+02  0.00000000000E+00 0. -1.
         11    1    3    3    0    0  0.18228935815E+01 -0.51268204528E+00  0.63803360920E+00  0.19982169644E+01  0.51100000000E-03 0.  1.
        -11    1    3    3    0    0  0.12711020072E+01 -0.35938372028E+01  0.19381199921E+01  0.42764091851E+01  0.51100000000E-03 0. -1.
        -12    1    3    3    0    0 -0.85810353245E+01  0.34298110669E+01  0.40471002220E+02  0.41512646168E+02  0.00000000000E+00 0.  1.
</event>
<event>
 7    1  0.2653124E-010  0.4778727E+02  0.7816164E-02  0.1312668E+00
        -11   -1    0    0    0    0  0.00000000000E+00  0.00000000000E+00  0.45593999997E+02  0.45594000000E+02  0.51100000000E-03 0.  1.
         11   -1    0    0    0    0 -0.00000000000E+00 -0.00000000000E+00 -0.45593999997E+02  0.45594000000E+02  0.51100000000E-03 0. -1.
    9900012    2    1    2    0    0  0.37918951549E+02 -0.59307121837E+00  0.21105078197E+02  0.47787274824E+02  0.20000017234E+02 0.  0.
         12    1    1    2    0    0 -0.37918951549E+02  0.59307121837E+00 -0.21105078197E+02  0.43400725176E+02  0.00000000000E+00 0. -1.
         11    1    3    3    0    0  0.24611954627E+01  0.34730543907E+01  0.15510350689E+01  0.45304856199E+01  0.51100000000E-03 0. -1.
        -11    1    3    3    0    0  0.46208307407E+01 -0.38227765117E+01  0.86954788830E+01  0.10563003846E+02  0.51100000000E-03 0.  1.
         12    1    3    3    0    0  0.30836925346E+02 -0.24334909738E+00  0.10858564245E+02  0.32693785358E+02  0.00000000000E+00 0. -1.
</event>
<event>
 7    1  0.2766529E-010  0.4778727E+02  0.7816164E-02  0.1312668E+00
        -11   -1    0    0    0    0  0.00000000000E+00  0.00000000000E+00  0.45593999997E+02  0.45594000000E+02  0.51100000000E-03 0.  1.
         11   -1    0    0    0    0 -0.00000000000E+00 -0.00000000000E+00 -0.45593999997E+02  0.45594000000E+02  0.51100000000E-03 0. -1.
    9900012    2    1    2    0    0  0.36037510623E+02  0.19162576656E+02 -0.14755229684E+02  0.47787270524E+02  0.19999997628E+02 0.  0.
         12    1    1    2    0    0 -0.36037510623E+02 -0.19162576656E+02  0.14755229684E+02  0.43400729476E+02  0.00000000000E+00 0. -1.
         11    1    3    3    0    0  0.22330995817E+02  0.81328540692E+01 -0.67323699061E+01  0.24701042373E+02  0.51100000000E-03 0. -1.
        -11    1    3    3    0    0  0.14279195799E+02  0.10752346626E+02 -0.10362697270E+02  0.20661410542E+02  0.51100000000E-03 0.  1.
         12    1    3    3    0    0 -0.57268099326E+00  0.27737596127E+00  0.23398374926E+01  0.24248176087E+01  0.00000000000E+00 0. -1.
</event>
<event>
 7    1  0.2653124E-010  0.4778727E+02  0.7816164E-02  0.1312668E+00
        -11   -1    0    0    0    0  0.00000000000E+00  0.00000000000E+00  0.45593999997E+02  0.45594000000E+02  0.51100000000E-03 0.  1.
         11   -1    0    0    0    0 -0.00000000000E+00 -0.00000000000E+00 -0.45593999997E+02  0.45594000000E+02  0.51100000000E-03 0. -1.
    9900012    2    1    2    0    0  0.16476272187E+01 -0.20865172921E+02  0.38020430073E+02  0.47787271672E+02  0.20000002859E+02 0.  0.
         12    1    1    2    0    0 -0.16476272187E+01  0.20865172921E+02 -0.38020430073E+02  0.43400728328E+02  0.00000000000E+00 0. -1.
         11    1    3    3    0    0 -0.21602313014E+01 -0.14801994107E+02  0.19985948105E+02  0.24964049165E+02  0.51100000000E-03 0. -1.
        -11    1    3    3    0    0  0.20329538385E+00 -0.73725270825E+01  0.17449130104E+02  0.18943801790E+02  0.51100000000E-03 0.  1.
         12    1    3    3    0    0  0.36045631362E+01  0.13093482682E+01  0.58535186420E+00  0.38794207165E+01  0.00000000000E+00 0. -1.
</event>
<event>
 7    1  0.2653124E-010  0.4778728E+02  0.7816164E-02  0.1312668E+00
        -11   -1    0    0    0    0  0.00000000000E+00  0.00000000000E+00  0.45593999997E+02  0.45594000000E+02  0.51100000000E-03 0. -1.
         11   -1    0    0    0    0 -0.00000000000E+00 -0.00000000000E+00 -0.45593999997E+02  0.45594000000E+02  0.51100000000E-03 0.  1.
    9900012    2    1    2    0    0  0.34468782486E+02  0.33363939177E+01 -0.26160932560E+02  0.47787275550E+02  0.20000020541E+02 0.  0.
         12    1    1    2    0    0 -0.34468782486E+02 -0.33363939177E+01  0.26160932560E+02  0.43400724450E+02  0.00000000000E+00 0. -1.
         11    1    3    3    0    0  0.63517237606E+01  0.52376262290E+01 -0.36876715604E+01  0.90208672002E+01  0.51100000000E-03 0. -1.
        -11    1    3    3    0    0  0.79472770655E+01 -0.66899421553E+01 -0.10756951218E+02  0.14954147872E+02  0.51100000000E-03 0.  1.
         12    1    3    3    0    0  0.20169781659E+02  0.47887098440E+01 -0.11716309781E+02  0.23812260478E+02  0.00000000000E+00 0. -1.
</event>
<event>
 7    1  0.2653124E-010  0.4778727E+02  0.7816164E-02  0.1312668E+00
        -11   -1    0    0    0    0  0.00000000000E+00  0.00000000000E+00  0.45593999997E+02  0.45594000000E+02  0.51100000000E-03 0.  1.
         11   -1    0    0    0    0 -0.00000000000E+00 -0.00000000000E+00 -0.45593999997E+02  0.45594000000E+02  0.51100000000E-03 0. -1.
    9900012    2    1    2    0    0 -0.48591463356E+01  0.41733433628E+02 -0.10878061173E+02  0.47787274196E+02  0.20000014367E+02 0.  0.
         12    1    1    2    0    0  0.48591463356E+01 -0.41733433628E+02  0.10878061173E+02  0.43400725804E+02  0.00000000000E+00 0. -1.
         11    1    3    3    0    0  0.51149262753E+01  0.19420295097E+02 -0.66302689332E+01  0.21148777715E+02  0.51100000000E-03 0. -1.
        -11    1    3    3    0    0 -0.34325821287E+00 -0.43161981725E+00 -0.17241272033E+01  0.18101758869E+01  0.51100000000E-03 0.  1.
        -12    1    3    3    0    0 -0.96308143980E+01  0.22744758348E+02 -0.25236650360E+01  0.24828320594E+02  0.00000000000E+00 0.  1.
</event>
<event>
 7    1  0.2653124E-010  0.4778727E+02  0.7816164E-02  0.1312668E+00
        -11   -1    0    0    0    0  0.00000000000E+00  0.00000000000E+00  0.45593999997E+02  0.45594000000E+02  0.51100000000E-03 0. -1.
         11   -1    0    0    0    0 -0.00000000000E+00 -0.00000000000E+00 -0.45593999997E+02  0.45594000000E+02  0.51100000000E-03 0.  1.
    9900012    2    1    2    0    0  0.54483636685E+01  0.21344925442E+02 -0.37394287714E+02  0.47787271176E+02  0.20000000601E+02 0.  0.
         12    1    1    2    0    0 -0.54483636685E+01 -0.21344925442E+02  0.37394287714E+02  0.43400728824E+02  0.00000000000E+00 0. -1.
         11    1    3    3    0    0  0.16347728512E+00  0.38996474795E+01  0.55354473018E-02  0.39030765032E+01  0.51100000000E-03 0. -1.
        -11    1    3    3    0    0  0.44988473661E+01  0.61675613763E+01 -0.39907131678E+01  0.86141878783E+01  0.51100000000E-03 0.  1.
         12    1    3    3    0    0  0.78603901722E+00  0.11277716586E+02 -0.33409109994E+02  0.35270006795E+02  0.00000000000E+00 0. -1.
</event>
<event>
 7    1  0.2653124E-010  0.4778727E+02  0.7816164E-02  0.1312668E+00
        -11   -1    0    0    0    0  0.00000000000E+00  0.00000000000E+00  0.45593999997E+02  0.45594000000E+02  0.51100000000E-03 0.  1.
         11   -1    0    0    0    0 -0.00000000000E+00 -0.00000000000E+00 -0.45593999997E+02  0.45594000000E+02  0.51100000000E-03 0. -1.
    9900012    2    1    2    0    0 -0.10869160912E+02  0.14803394414E+02  0.39323584096E+02  0.47787269461E+02  0.19999992781E+02 0.  0.
         12    1    1    2    0    0  0.10869160912E+02 -0.14803394414E+02 -0.39323584096E+02  0.43400730539E+02  0.00000000000E+00 0. -1.
         11    1    3    3    0    0 -0.64727420088E+01  0.11377452021E+02  0.13135160229E+02  0.18543873331E+02  0.51100000000E-03 0. -1.
        -11    1    3    3    0    0  0.11209928278E+01  0.54087325829E+01  0.57193227706E+01  0.79512053355E+01  0.51100000000E-03 0.  1.
         12    1    3    3    0    0 -0.55174117313E+01 -0.19827901892E+01  0.20469101097E+02  0.21292190795E+02  0.00000000000E+00 0. -1.
</event>
<event>
 7    1  0.2653124E-010  0.4778727E+02  0.7816164E-02  0.1312668E+00
        -11   -1    0    0    0    0  0.00000000000E+00  0.00000000000E+00  0.45593999997E+02  0.45594000000E+02  0.51100000000E-03 0.  1.
         11   -1    0    0    0    0 -0.00000000000E+00 -0.00000000000E+00 -0.45593999997E+02  0.45594000000E+02  0.51100000000E-03 0. -1.
    9900012    2    1    2    0    0  0.16953851367E+02  0.38700599275E+02  0.99223947965E+01  0.47787269834E+02  0.19999994481E+02 0.  0.
         12    1    1    2    0    0 -0.16953851367E+02 -0.38700599275E+02 -0.99223947965E+01  0.43400730166E+02  0.00000000000E+00 0. -1.
         11    1    3    3    0    0  0.59475542509E+01  0.12804097527E+02  0.43327222189E+01  0.14767897519E+02  0.51100000000E-03 0. -1.
        -11    1    3    3    0    0  0.15345760633E+02  0.19529083962E+02  0.42081504127E+01  0.25190990850E+02  0.51100000000E-03 0.  1.
         12    1    3    3    0    0 -0.43394635170E+01  0.63674177862E+01  0.13815221649E+01  0.78283814656E+01  0.00000000000E+00 0. -1.
</event>
<event>
 7    1  0.2653124E-010  0.4778725E+02  0.7816164E-02  0.1312668E+00
        -11   -1    0    0    0    0  0.00000000000E+00  0.00000000000E+00  0.45593999997E+02  0.45594000000E+02  0.51100000000E-03 0. -1.
         11   -1    0    0    0    0 -0.00000000000E+00 -0.00000000000E+00 -0.45593999997E+02  0.45594000000E+02  0.51100000000E-03 0.  1.
    9900012    2    1    2    0    0 -0.38266616047E+01  0.16158550990E+02 -0.40098421123E+02  0.47787245563E+02  0.19999883818E+02 0.  0.
         12    1    1    2    0    0  0.38266616047E+01 -0.16158550990E+02  0.40098421123E+02  0.43400754437E+02  0.00000000000E+00 0. -1.
         11    1    3    3    0    0 -0.13295396010E+01 -0.64279240821E+00 -0.69090792188E+00  0.16304022965E+01  0.51100000000E-03 0. -1.
        -11    1    3    3    0    0  0.19632557832E+01  0.16069451302E+02 -0.17713161258E+02  0.23996618937E+02  0.51100000000E-03 0.  1.
        -12    1    3    3    0    0 -0.44603777868E+01  0.73189209616E+00 -0.21694351944E+02  0.22160224329E+02  0.00000000000E+00 0.  1.
</event>
<event>
 7    1  0.2653124E-010  0.4778727E+02  0.7816164E-02  0.1312668E+00
        -11   -1    0    0    0    0  0.00000000000E+00  0.00000000000E+00  0.45593999997E+02  0.45594000000E+02  0.51100000000E-03 0. -1.
         11   -1    0    0    0    0 -0.00000000000E+00 -0.00000000000E+00 -0.45593999997E+02  0.45594000000E+02  0.51100000000E-03 0.  1.
    9900012    2    1    2    0    0  0.39468904941E+02 -0.16560355901E+02 -0.71821514706E+01  0.47787272534E+02  0.20000006792E+02 0.  0.
         12    1    1    2    0    0 -0.39468904941E+02  0.16560355901E+02  0.71821514706E+01  0.43400727466E+02  0.00000000000E+00 0. -1.
         11    1    3    3    0    0  0.67976776158E+01  0.42309461254E+01 -0.20418118660E+01  0.82630697711E+01  0.51100000000E-03 0. -1.
        -11    1    3    3    0    0  0.32965225806E+01 -0.45315757814E+01 -0.42088618347E+00  0.56195538637E+01  0.51100000000E-03 0.  1.
         12    1    3    3    0    0  0.29374704745E+02 -0.16259726245E+02 -0.47194534211E+01  0.33904648899E+02  0.00000000000E+00 0. -1.
</event>
<event>
 7    1  0.2653124E-010  0.4778727E+02  0.7816164E-02  0.1312668E+00
        -11   -1    0    0    0    0  0.00000000000E+00  0.00000000000E+00  0.45593999997E+02  0.45594000000E+02  0.51100000000E-03 0.  1.
         11   -1    0    0    0    0 -0.00000000000E+00 -0.00000000000E+00 -0.45593999997E+02  0.45594000000E+02  0.51100000000E-03 0. -1.
    9900012    2    1    2    0    0  0.48569822540E+01  0.36115793415E+02  0.23572916600E+02  0.47787271807E+02  0.20000003479E+02 0.  0.
         12    1    1    2    0    0 -0.48569822540E+01 -0.36115793415E+02 -0.23572916600E+02  0.43400728193E+02  0.00000000000E+00 0. -1.
         11    1    3    3    0    0  0.73255068793E+00 -0.45145278020E+00 -0.11326564194E+01  0.14224454115E+01  0.51100000000E-03 0. -1.
        -11    1    3    3    0    0 -0.62734034497E+00  0.15680944023E+00 -0.12438002495E+01  0.14018503596E+01  0.51100000000E-03 0.  1.
        -12    1    3    3    0    0  0.47517719110E+01  0.36410436755E+02  0.25949373268E+02  0.44962976036E+02  0.00000000000E+00 0.  1.
</event>
<event>
 7    1  0.2653124E-010  0.4778727E+02  0.7816164E-02  0.1312668E+00
        -11   -1    0    0    0    0  0.00000000000E+00  0.00000000000E+00  0.45593999997E+02  0.45594000000E+02  0.51100000000E-03 0.  1.
         11   -1    0    0    0    0 -0.00000000000E+00 -0.00000000000E+00 -0.45593999997E+02  0.45594000000E+02  0.51100000000E-03 0. -1.
    9900012    2    1    2    0    0 -0.55713692431E+01  0.77250255466E+00  0.43034708275E+02  0.47787273833E+02  0.20000012716E+02 0.  0.
         12    1    1    2    0    0  0.55713692431E+01 -0.77250255466E+00 -0.43034708275E+02  0.43400726167E+02  0.00000000000E+00 0. -1.
         11    1    3    3    0    0 -0.10712217881E+02 -0.33833115338E-01  0.12844033281E+02  0.16724890068E+02  0.51100000000E-03 0. -1.
        -11    1    3    3    0    0 -0.66882273278E+00 -0.10151900890E+01  0.47047195147E+01  0.48592510470E+01  0.51100000000E-03 0.  1.
        -12    1    3    3    0    0  0.58096713708E+01  0.18215257590E+01  0.25485955480E+02  0.26203132718E+02  0.00000000000E+00 0.  1.
</event>
<event>
 7    1  0.2653124E-010  0.4778727E+02  0.7816164E-02  0.1312668E+00
        -11   -1    0    0    0    0  0.00000000000E+00  0.00000000000E+00  0.45593999997E+02  0.45594000000E+02  0.51100000000E-03 0.  1.
         11   -1    0    0    0    0 -0.00000000000E+00 -0.00000000000E+00 -0.45593999997E+02  0.45594000000E+02  0.51100000000E-03 0. -1.
    9900012    2    1    2    0    0  0.33208834015E+01 -0.65938541687E+01  0.42768167267E+02  0.47787270619E+02  0.19999998062E+02 0.  0.
         12    1    1    2    0    0 -0.33208834015E+01  0.65938541687E+01 -0.42768167267E+02  0.43400729381E+02  0.00000000000E+00 0. -1.
         11    1    3    3    0    0  0.35907699459E+01 -0.50068324901E+01  0.47367501419E+01  0.77716666524E+01  0.51100000000E-03 0. -1.
        -11    1    3    3    0    0  0.18810115939E+01 -0.55128761349E+01  0.95628129946E+01  0.11197205032E+02  0.51100000000E-03 0.  1.
        -12    1    3    3    0    0 -0.21508981384E+01  0.39258544564E+01  0.28468604131E+02  0.28818398935E+02  0.00000000000E+00 0.  1.
</event>
<event>
 7    1  0.2653124E-010  0.4778727E+02  0.7816164E-02  0.1312668E+00
        -11   -1    0    0    0    0  0.00000000000E+00  0.00000000000E+00  0.45593999997E+02  0.45594000000E+02  0.51100000000E-03 0.  1.
         11   -1    0    0    0    0 -0.00000000000E+00 -0.00000000000E+00 -0.45593999997E+02  0.45594000000E+02  0.51100000000E-03 0. -1.
    9900012    2    1    2    0    0 -0.40211932430E+02 -0.14057956502E+02  0.83064618965E+01  0.47787274660E+02  0.20000016485E+02 0.  0.
         12    1    1    2    0    0  0.40211932430E+02  0.14057956502E+02 -0.83064618965E+01  0.43400725340E+02  0.00000000000E+00 0. -1.
         11    1    3    3    0    0 -0.10159249445E+02  0.21193279817E+01  0.36098827886E+01  0.10987863959E+02  0.51100000000E-03 0. -1.
        -11    1    3    3    0    0 -0.44129637540E+01 -0.31689388086E+01  0.59038517143E+01  0.80232093076E+01  0.51100000000E-03 0.  1.
         12    1    3    3    0    0 -0.25639719232E+02 -0.13008345675E+02 -0.12072726065E+01  0.28776201394E+02  0.00000000000E+00 0. -1.
</event>
<event>
 7    1  0.2653124E-010  0.4778727E+02  0.7816164E-02  0.1312668E+00
        -11   -1    0    0    0    0  0.00000000000E+00  0.00000000000E+00  0.45593999997E+02  0.45594000000E+02  0.51100000000E-03 0. -1.
         11   -1    0    0    0    0 -0.00000000000E+00 -0.00000000000E+00 -0.45593999997E+02  0.45594000000E+02  0.51100000000E-03 0.  1.
    9900012    2    1    2    0    0  0.23093051960E+01 -0.42153359489E+02 -0.10068996056E+02  0.47787270879E+02  0.19999999244E+02 0.  0.
         12    1    1    2    0    0 -0.23093051960E+01  0.42153359489E+02  0.10068996056E+02  0.43400729121E+02  0.00000000000E+00 0. -1.
         11    1    3    3    0    0  0.38763970847E+01 -0.24190484931E+01  0.13336046221E+01  0.47599108730E+01  0.51100000000E-03 0. -1.
        -11    1    3    3    0    0 -0.37804013166E+01 -0.88242951347E+01 -0.66442736069E+01  0.11675015664E+02  0.51100000000E-03 0.  1.
        -12    1    3    3    0    0  0.22133094279E+01 -0.30910015861E+02 -0.47583270711E+01  0.31352344341E+02  0.00000000000E+00 0.  1.
</event>
<event>
 7    1  0.2653124E-010  0.4778727E+02  0.7816164E-02  0.1312668E+00
        -11   -1    0    0    0    0  0.00000000000E+00  0.00000000000E+00  0.45593999997E+02  0.45594000000E+02  0.51100000000E-03 0.  1.
         11   -1    0    0    0    0 -0.00000000000E+00 -0.00000000000E+00 -0.45593999997E+02  0.45594000000E+02  0.51100000000E-03 0. -1.
    9900012    2    1    2    0    0 -0.12332115887E+02 -0.35898477669E+02  0.21043803501E+02  0.47787269050E+02  0.19999990905E+02 0.  0.
         12    1    1    2    0    0  0.12332115887E+02  0.35898477669E+02 -0.21043803501E+02  0.43400730950E+02  0.00000000000E+00 0. -1.
         11    1    3    3    0    0 -0.15912174575E+01 -0.57843806054E+01  0.61764267379E+01  0.86104169176E+01  0.51100000000E-03 0. -1.
        -11    1    3    3    0    0 -0.14355781403E+01 -0.22315690712E+02  0.15187421836E+02  0.27031624421E+02  0.51100000000E-03 0.  1.
         12    1    3    3    0    0 -0.93053202888E+01 -0.77984063523E+01 -0.32004507274E+00  0.12145227711E+02  0.00000000000E+00 0. -1.
</event>
<event>
 7    1  0.2653124E-010  0.4778728E+02  0.7816164E-02  0.1312668E+00
        -11   -1    0    0    0    0  0.00000000000E+00  0.00000000000E+00  0.45593999997E+02  0.45594000000E+02  0.51100000000E-03 0. -1.
         11   -1    0    0    0    0 -0.00000000000E+00 -0.00000000000E+00 -0.45593999997E+02  0.45594000000E+02  0.51100000000E-03 0.  1.
    9900012    2    1    2    0    0 -0.17107011118E+02 -0.29379577628E+02  0.26978014324E+02  0.47787278026E+02  0.20000031832E+02 0.  0.
         12    1    1    2    0    0  0.17107011118E+02  0.29379577628E+02 -0.26978014324E+02  0.43400721974E+02  0.00000000000E+00 0. -1.
         11    1    3    3    0    0 -0.18562276748E+01 -0.68311442005E+01  0.11917847097E+01  0.71784722138E+01  0.51100000000E-03 0. -1.
        -11    1    3    3    0    0 -0.78092147236E+01 -0.17757204273E+02  0.84805935775E+01  0.21171268405E+02  0.51100000000E-03 0.  1.
        -12    1    3    3    0    0 -0.74415687191E+01 -0.47912291547E+01  0.17305636037E+02  0.19437537407E+02  0.00000000000E+00 0.  1.
</event>
<event>
 7    1  0.2653124E-010  0.4778727E+02  0.7816164E-02  0.1312668E+00
        -11   -1    0    0    0    0  0.00000000000E+00  0.00000000000E+00  0.45593999997E+02  0.45594000000E+02  0.51100000000E-03 0. -1.
         11   -1    0    0    0    0 -0.00000000000E+00 -0.00000000000E+00 -0.45593999997E+02  0.45594000000E+02  0.51100000000E-03 0.  1.
    9900012    2    1    2    0    0 -0.99170659996E+01 -0.31157546691E+02 -0.28539138436E+02  0.47787270323E+02  0.19999996710E+02 0.  0.
         12    1    1    2    0    0  0.99170659996E+01  0.31157546691E+02  0.28539138436E+02  0.43400729677E+02  0.00000000000E+00 0. -1.
         11    1    3    3    0    0 -0.33446603938E+01 -0.47886686821E+01 -0.19704255075E+01  0.61644689827E+01  0.51100000000E-03 0.  1.
        -11    1    3    3    0    0 -0.19374820177E+01 -0.24200257940E+02 -0.27209210707E+02  0.36465702633E+02  0.51100000000E-03 0. -1.
         12    1    3    3    0    0 -0.46349235881E+01 -0.21686200691E+01  0.64049777901E+00  0.51570987072E+01  0.00000000000E+00 0. -1.
</event>
<event>
 7    1  0.2653124E-010  0.4778726E+02  0.7816164E-02  0.1312668E+00
        -11   -1    0    0    0    0  0.00000000000E+00  0.00000000000E+00  0.45593999997E+02  0.45594000000E+02  0.51100000000E-03 0.  1.
         11   -1    0    0    0    0 -0.00000000000E+00 -0.00000000000E+00 -0.45593999997E+02  0.45594000000E+02  0.51100000000E-03 0. -1.
    9900012    2    1    2    0    0 -0.81624986302E+01  0.14289126128E+02  0.40159912460E+02  0.47787261778E+02  0.19999957750E+02 0.  0.
         12    1    1    2    0    0  0.81624986302E+01 -0.14289126128E+02 -0.40159912460E+02  0.43400738222E+02  0.00000000000E+00 0. -1.
         11    1    3    3    0    0  0.18482455751E+01  0.30194601350E+00  0.31732749531E+01  0.36846787228E+01  0.51100000000E-03 0. -1.
        -11    1    3    3    0    0 -0.80492871044E+01  0.17872221098E+02  0.28918196993E+02  0.34935217581E+02  0.51100000000E-03 0.  1.
         12    1    3    3    0    0 -0.19614571010E+01 -0.38850409830E+01  0.80684405145E+01  0.91673654740E+01  0.00000000000E+00 0. -1.
</event>
<event>
 7    1  0.2765380E-010  0.4778727E+02  0.7816164E-02  0.1312668E+00
        -11   -1    0    0    0    0  0.00000000000E+00  0.00000000000E+00  0.45593999997E+02  0.45594000000E+02  0.51100000000E-03 0. -1.
         11   -1    0    0    0    0 -0.00000000000E+00 -0.00000000000E+00 -0.45593999997E+02  0.45594000000E+02  0.51100000000E-03 0.  1.
    9900012    2    1    2    0    0  0.23465807847E+02 -0.22299257023E+02 -0.28908866518E+02  0.47787267690E+02  0.19999984706E+02 0.  0.
         12    1    1    2    0    0 -0.23465807847E+02  0.22299257023E+02  0.28908866518E+02  0.43400732310E+02  0.00000000000E+00 0. -1.
         11    1    3    3    0    0  0.57784234232E+01 -0.43498239336E+01 -0.31543341020E+01  0.78905620458E+01  0.51100000000E-03 0. -1.
        -11    1    3    3    0    0  0.20407387367E+02 -0.17718865402E+02 -0.20312926208E+02  0.33808795034E+02  0.51100000000E-03 0.  1.
         12    1    3    3    0    0 -0.27200029437E+01 -0.23056768770E+00 -0.54416062081E+01  0.60879106101E+01  0.00000000000E+00 0. -1.
</event>
<event>
 7    1  0.2653124E-010  0.4778727E+02  0.7816164E-02  0.1312668E+00
        -11   -1    0    0    0    0  0.00000000000E+00  0.00000000000E+00  0.45593999997E+02  0.45594000000E+02  0.51100000000E-03 0.  1.
         11   -1    0    0    0    0 -0.00000000000E+00 -0.00000000000E+00 -0.45593999997E+02  0.45594000000E+02  0.51100000000E-03 0. -1.
    9900012    2    1    2    0    0  0.65389523221E+00 -0.24169364114E+02  0.36042163268E+02  0.47787271047E+02  0.20000000011E+02 0.  0.
         12    1    1    2    0    0 -0.65389523221E+00  0.24169364114E+02 -0.36042163268E+02  0.43400728953E+02  0.00000000000E+00 0. -1.
         11    1    3    3    0    0 -0.19139971100E+01 -0.53857954321E+01  0.41038635185E+01  0.70364673959E+01  0.51100000000E-03 0. -1.
        -11    1    3    3    0    0  0.16550026572E+00 -0.13702909244E+02  0.32332708897E+02  0.35116964233E+02  0.51100000000E-03 0.  1.
         12    1    3    3    0    0  0.24023920764E+01 -0.50806594377E+01 -0.39440914717E+00  0.56338394179E+01  0.00000000000E+00 0. -1.
</event>
<event>
 7    1  0.2653124E-010  0.4778727E+02  0.7816164E-02  0.1312668E+00
        -11   -1    0    0    0    0  0.00000000000E+00  0.00000000000E+00  0.45593999997E+02  0.45594000000E+02  0.51100000000E-03 0. -1.
         11   -1    0    0    0    0 -0.00000000000E+00 -0.00000000000E+00 -0.45593999997E+02  0.45594000000E+02  0.51100000000E-03 0.  1.
    9900012    2    1    2    0    0 -0.30594854662E+02  0.30647765070E+02 -0.28796624470E+01  0.47787273147E+02  0.20000009588E+02 0.  0.
         12    1    1    2    0    0  0.30594854662E+02 -0.30647765070E+02  0.28796624470E+01  0.43400726853E+02  0.00000000000E+00 0. -1.
         11    1    3    3    0    0 -0.51168798057E+01  0.86914786073E+01  0.45019687862E+01  0.11044998078E+02  0.51100000000E-03 0. -1.
        -11    1    3    3    0    0 -0.27721250811E+01  0.78736085767E+00  0.28533247740E+01  0.40553763219E+01  0.51100000000E-03 0.  1.
        -12    1    3    3    0    0 -0.22705849775E+02  0.21168925605E+02 -0.10234956007E+02  0.32686898747E+02  0.00000000000E+00 0.  1.
</event>
<event>
 7    1  0.2653124E-010  0.4778727E+02  0.7816164E-02  0.1312668E+00
        -11   -1    0    0    0    0  0.00000000000E+00  0.00000000000E+00  0.45593999997E+02  0.45594000000E+02  0.51100000000E-03 0.  1.
         11   -1    0    0    0    0 -0.00000000000E+00 -0.00000000000E+00 -0.45593999997E+02  0.45594000000E+02  0.51100000000E-03 0. -1.
    9900012    2    1    2    0    0  0.21974986162E+02  0.32962575728E+02 -0.17725463240E+02  0.47787268872E+02  0.19999990094E+02 0.  0.
         12    1    1    2    0    0 -0.21974986162E+02 -0.32962575728E+02  0.17725463240E+02  0.43400731128E+02  0.00000000000E+00 0. -1.
         11    1    3    3    0    0  0.12142890297E+02  0.24945453118E+02 -0.73894469845E+01  0.28711136220E+02  0.51100000000E-03 0. -1.
        -11    1    3    3    0    0 -0.19341597520E+01  0.21211257091E+01 -0.17399461707E+01  0.33567188084E+01  0.51100000000E-03 0.  1.
        -12    1    3    3    0    0  0.11766255616E+02  0.58959969000E+01 -0.85960700849E+01  0.15719413843E+02  0.00000000000E+00 0.  1.
</event>
<event>
 7    1  0.2653124E-010  0.4778727E+02  0.7816164E-02  0.1312668E+00
        -11   -1    0    0    0    0  0.00000000000E+00  0.00000000000E+00  0.45593999997E+02  0.45594000000E+02  0.51100000000E-03 0.  1.
         11   -1    0    0    0    0 -0.00000000000E+00 -0.00000000000E+00 -0.45593999997E+02  0.45594000000E+02  0.51100000000E-03 0. -1.
    9900012    2    1    2    0    0 -0.14998077199E+02 -0.33132040277E+02  0.23684360889E+02  0.47787270015E+02  0.19999995304E+02 0.  0.
         12    1    1    2    0    0  0.14998077199E+02  0.33132040277E+02 -0.23684360889E+02  0.43400729985E+02  0.00000000000E+00 0. -1.
         11    1    3    3    0    0 -0.10739897601E+02 -0.26900635811E+02  0.10265487330E+02  0.30730601002E+02  0.51100000000E-03 0. -1.
        -11    1    3    3    0    0 -0.34478960233E+01 -0.31659028803E+01  0.18035642353E+01  0.50163504909E+01  0.51100000000E-03 0.  1.
         12    1    3    3    0    0 -0.81028357403E+00 -0.30655015852E+01  0.11615309323E+02  0.12040318522E+02  0.00000000000E+00 0. -1.
</event>
<event>
 7    1  0.2653124E-010  0.4778727E+02  0.7816164E-02  0.1312668E+00
        -11   -1    0    0    0    0  0.00000000000E+00  0.00000000000E+00  0.45593999997E+02  0.45594000000E+02  0.51100000000E-03 0.  1.
         11   -1    0    0    0    0 -0.00000000000E+00 -0.00000000000E+00 -0.45593999997E+02  0.45594000000E+02  0.51100000000E-03 0. -1.
    9900012    2    1    2    0    0  0.32993748279E+02  0.23369776657E+02  0.15776225603E+02  0.47787272117E+02  0.20000004889E+02 0.  0.
         12    1    1    2    0    0 -0.32993748279E+02 -0.23369776657E+02 -0.15776225603E+02  0.43400727883E+02  0.00000000000E+00 0. -1.
         11    1    3    3    0    0  0.47685388006E+01 -0.18187005268E+00 -0.19711367736E+01  0.51630823594E+01  0.51100000000E-03 0. -1.
        -11    1    3    3    0    0  0.33847171858E+00 -0.13291124682E+01  0.80659071214E+00  0.15911291260E+01  0.51100000000E-03 0.  1.
        -12    1    3    3    0    0  0.27886737760E+02  0.24880759178E+02  0.16940771664E+02  0.41033060631E+02  0.00000000000E+00 0.  1.
</event>
<event>
 7    1  0.2653124E-010  0.4778727E+02  0.7816164E-02  0.1312668E+00
        -11   -1    0    0    0    0  0.00000000000E+00  0.00000000000E+00  0.45593999997E+02  0.45594000000E+02  0.51100000000E-03 0.  1.
         11   -1    0    0    0    0 -0.00000000000E+00 -0.00000000000E+00 -0.45593999997E+02  0.45594000000E+02  0.51100000000E-03 0. -1.
    9900012    2    1    2    0    0  0.19565631661E+02 -0.52821466729E+01  0.38378486986E+02  0.47787270984E+02  0.19999999726E+02 0.  0.
         12    1    1    2    0    0 -0.19565631661E+02  0.52821466729E+01 -0.38378486986E+02  0.43400729016E+02  0.00000000000E+00 0. -1.
         11    1    3    3    0    0  0.87997833806E+01  0.21347643774E+01  0.56628742468E+01  0.10679960276E+02  0.51100000000E-03 0. -1.
        -11    1    3    3    0    0  0.29366921998E+01 -0.44075174951E+01  0.27058565628E+01  0.59474390745E+01  0.51100000000E-03 0.  1.
        -12    1    3    3    0    0  0.78291560807E+01 -0.30093935552E+01  0.30009756176E+02  0.31159871634E+02  0.00000000000E+00 0.  1.
</event>
<event>
 7    1  0.2653124E-010  0.4778727E+02  0.7816164E-02  0.1312668E+00
        -11   -1    0    0    0    0  0.00000000000E+00  0.00000000000E+00  0.45593999997E+02  0.45594000000E+02  0.51100000000E-03 0. -1.
         11   -1    0    0    0    0 -0.00000000000E+00 -0.00000000000E+00 -0.45593999997E+02  0.45594000000E+02  0.51100000000E-03 0.  1.
    9900012    2    1    2    0    0 -0.21114910241E+02  0.21966835399E+02 -0.30906991187E+02  0.47787269636E+02  0.19999993577E+02 0.  0.
         12    1    1    2    0    0  0.21114910241E+02 -0.21966835399E+02  0.30906991187E+02  0.43400730364E+02  0.00000000000E+00 0. -1.
         11    1    3    3    0    0 -0.32694139417E+01  0.42460366105E+01 -0.85061425054E+01  0.10053474773E+02  0.51100000000E-03 0. -1.
        -11    1    3    3    0    0 -0.21387613849E+01  0.19364923769E+01 -0.13414544057E+02  0.13721308083E+02  0.51100000000E-03 0.  1.
         12    1    3    3    0    0 -0.15706734914E+02  0.15784306412E+02 -0.89863046240E+01  0.24012486780E+02  0.00000000000E+00 0. -1.
</event>
<event>
 7    1  0.2653124E-010  0.4778727E+02  0.7816164E-02  0.1312668E+00
        -11   -1    0    0    0    0  0.00000000000E+00  0.00000000000E+00  0.45593999997E+02  0.45594000000E+02  0.51100000000E-03 0.  1.
         11   -1    0    0    0    0 -0.00000000000E+00 -0.00000000000E+00 -0.45593999997E+02  0.45594000000E+02  0.51100000000E-03 0. -1.
    9900012    2    1    2    0    0  0.42405927224E+01 -0.13712650629E+02  0.40958562235E+02  0.47787271501E+02  0.20000002080E+02 0.  0.
         12    1    1    2    0    0 -0.42405927224E+01  0.13712650629E+02 -0.40958562235E+02  0.43400728499E+02  0.00000000000E+00 0. -1.
         11    1    3    3    0    0 -0.20078136028E+01 -0.32624578995E+01  0.50199458008E+01  0.63146498805E+01  0.51100000000E-03 0. -1.
        -11    1    3    3    0    0  0.77946648415E+01 -0.14432962967E+02  0.29264689696E+02  0.33548312674E+02  0.51100000000E-03 0.  1.
         12    1    3    3    0    0 -0.15462585163E+01  0.39827702379E+01  0.66739267379E+01  0.79243089459E+01  0.00000000000E+00 0. -1.
</event>
<event>
 7    1  0.2653124E-010  0.4778727E+02  0.7816164E-02  0.1312668E+00
        -11   -1    0    0    0    0  0.00000000000E+00  0.00000000000E+00  0.45593999997E+02  0.45594000000E+02  0.51100000000E-03 0.  1.
         11   -1    0    0    0    0 -0.00000000000E+00 -0.00000000000E+00 -0.45593999997E+02  0.45594000000E+02  0.51100000000E-03 0. -1.
    9900012    2    1    2    0    0 -0.31576832586E+01 -0.23855849313E+02  0.36118568999E+02  0.47787268018E+02  0.19999986203E+02 0.  0.
         12    1    1    2    0    0  0.31576832586E+01  0.23855849313E+02 -0.36118568999E+02  0.43400731982E+02  0.00000000000E+00 0. -1.
         11    1    3    3    0    0  0.12056739829E+01 -0.99332335527E+00  0.91357864266E+00  0.18096870554E+01  0.51100000000E-03 0. -1.
        -11    1    3    3    0    0 -0.11244207160E+02 -0.14261635349E+02  0.25442174602E+02  0.31259089658E+02  0.51100000000E-03 0.  1.
        -12    1    3    3    0    0  0.68808499181E+01 -0.86008906084E+01  0.97628157545E+01  0.14718491305E+02  0.00000000000E+00 0.  1.
</event>
<event>
 7    1 -0.2653124E-010  0.4778727E+02  0.7816164E-02  0.1312668E+00
        -11   -1    0    0    0    0  0.00000000000E+00  0.00000000000E+00  0.45593999997E+02  0.45594000000E+02  0.51100000000E-03 0. -1.
         11   -1    0    0    0    0 -0.00000000000E+00 -0.00000000000E+00 -0.45593999997E+02  0.45594000000E+02  0.51100000000E-03 0.  1.
    9900012    2    1    2    0    0  0.28672843584E+01  0.13980212990E+02 -0.40987260358E+02  0.47787272051E+02  0.20000004588E+02 0.  0.
         12    1    1    2    0    0 -0.28672843584E+01 -0.13980212990E+02  0.40987260358E+02  0.43400727949E+02  0.00000000000E+00 0. -1.
         11    1    3    3    0    0 -0.19848243335E+01 -0.13013218325E+00 -0.24802608408E+01  0.31793326532E+01  0.51100000000E-03 0. -1.
        -11    1    3    3    0    0 -0.16264924354E+01  0.38668970642E+01 -0.28733277407E+02  0.29037899397E+02  0.51100000000E-03 0.  1.
        -12    1    3    3    0    0  0.64786011273E+01  0.10243448109E+02 -0.97737221101E+01  0.15570040001E+02  0.00000000000E+00 0.  1.
</event>
<event>
 7    1  0.2653124E-010  0.4778728E+02  0.7816164E-02  0.1312668E+00
        -11   -1    0    0    0    0  0.00000000000E+00  0.00000000000E+00  0.45593999997E+02  0.45594000000E+02  0.51100000000E-03 0. -1.
         11   -1    0    0    0    0 -0.00000000000E+00 -0.00000000000E+00 -0.45593999997E+02  0.45594000000E+02  0.51100000000E-03 0.  1.
    9900012    2    1    2    0    0 -0.21738772029E+02 -0.33652387639E+02 -0.16690269489E+02  0.47787279974E+02  0.20000040715E+02 0.  0.
         12    1    1    2    0    0  0.21738772029E+02  0.33652387639E+02  0.16690269489E+02  0.43400720026E+02  0.00000000000E+00 0. -1.
         11    1    3    3    0    0 -0.88242311749E+01 -0.54566247085E+01  0.11620585371E+01  0.10439932440E+02  0.51100000000E-03 0. -1.
        -11    1    3    3    0    0 -0.49923356559E+01 -0.14169794088E+02 -0.27634569425E+01  0.15275574435E+02  0.51100000000E-03 0.  1.
         12    1    3    3    0    0 -0.79222051984E+01 -0.14025968842E+02 -0.15088871084E+02  0.22071773099E+02  0.00000000000E+00 0. -1.
</event>
<event>
 7    1  0.2653124E-010  0.4778728E+02  0.7816164E-02  0.1312668E+00
        -11   -1    0    0    0    0  0.00000000000E+00  0.00000000000E+00  0.45593999997E+02  0.45594000000E+02  0.51100000000E-03 0.  1.
         11   -1    0    0    0    0 -0.00000000000E+00 -0.00000000000E+00 -0.45593999997E+02  0.45594000000E+02  0.51100000000E-03 0. -1.
    9900012    2    1    2    0    0  0.69465593312E+00  0.43125421493E+02  0.48309824781E+01  0.47787275150E+02  0.20000018718E+02 0.  0.
         12    1    1    2    0    0 -0.69465593312E+00 -0.43125421493E+02 -0.48309824781E+01  0.43400724850E+02  0.00000000000E+00 0. -1.
         11    1    3    3    0    0  0.27005771297E+01  0.22925880702E+02  0.39495285625E-01  0.23084425116E+02  0.51100000000E-03 0. -1.
        -11    1    3    3    0    0 -0.22367856603E+01  0.17513478383E+02 -0.16374603138E+01  0.17731509008E+02  0.51100000000E-03 0.  1.
         12    1    3    3    0    0  0.23086446364E+00  0.26860624083E+01  0.64289475062E+01  0.69713410259E+01  0.00000000000E+00 0. -1.
</event>
<event>
 7    1  0.2653124E-010  0.4778727E+02  0.7816164E-02  0.1312668E+00
        -11   -1    0    0    0    0  0.00000000000E+00  0.00000000000E+00  0.45593999997E+02  0.45594000000E+02  0.51100000000E-03 0.  1.
         11   -1    0    0    0    0 -0.00000000000E+00 -0.00000000000E+00 -0.45593999997E+02  0.45594000000E+02  0.51100000000E-03 0. -1.
    9900012    2    1    2    0    0  0.13026837671E+02  0.30274840181E+02  0.28237548081E+02  0.47787267641E+02  0.19999984481E+02 0.  0.
         12    1    1    2    0    0 -0.13026837671E+02 -0.30274840181E+02 -0.28237548081E+02  0.43400732359E+02  0.00000000000E+00 0. -1.
         11    1    3    3    0    0 -0.26256498353E+01 -0.21203338007E+00  0.27879065257E+01  0.38355466715E+01  0.51100000000E-03 0. -1.
        -11    1    3    3    0    0  0.36354240698E+01  0.75265657023E+01  0.12353643084E+02  0.14915696335E+02  0.51100000000E-03 0.  1.
         12    1    3    3    0    0  0.12017063437E+02  0.22960307859E+02  0.13095998471E+02  0.29036024635E+02  0.00000000000E+00 0. -1.
</event>
<event>
 7    1  0.2653124E-010  0.4778728E+02  0.7816164E-02  0.1312668E+00
        -11   -1    0    0    0    0  0.00000000000E+00  0.00000000000E+00  0.45593999997E+02  0.45594000000E+02  0.51100000000E-03 0.  1.
         11   -1    0    0    0    0 -0.00000000000E+00 -0.00000000000E+00 -0.45593999997E+02  0.45594000000E+02  0.51100000000E-03 0. -1.
    9900012    2    1    2    0    0 -0.54941791412E+01  0.41977651253E+02 -0.95558190647E+01  0.47787275500E+02  0.20000020315E+02 0.  0.
         12    1    1    2    0    0  0.54941791412E+01 -0.41977651253E+02  0.95558190647E+01  0.43400724500E+02  0.00000000000E+00 0. -1.
         11    1    3    3    0    0  0.26395277333E+01  0.15252422033E+02  0.45223360770E+01  0.16126221144E+02  0.51100000000E-03 0. -1.
        -11    1    3    3    0    0 -0.22485095779E+00  0.81242830073E+01 -0.35170133958E+01  0.88557278540E+01  0.51100000000E-03 0.  1.
         12    1    3    3    0    0 -0.79088559167E+01  0.18600946212E+02 -0.10561141746E+02  0.22805326503E+02  0.00000000000E+00 0. -1.
</event>
<event>
 7    1  0.2653124E-010  0.4778727E+02  0.7816164E-02  0.1312668E+00
        -11   -1    0    0    0    0  0.00000000000E+00  0.00000000000E+00  0.45593999997E+02  0.45594000000E+02  0.51100000000E-03 0. -1.
         11   -1    0    0    0    0 -0.00000000000E+00 -0.00000000000E+00 -0.45593999997E+02  0.45594000000E+02  0.51100000000E-03 0.  1.
    9900012    2    1    2    0    0  0.17153577592E+02 -0.32932825565E+02 -0.22467915017E+02  0.47787269257E+02  0.19999991848E+02 0.  0.
         12    1    1    2    0    0 -0.17153577592E+02  0.32932825565E+02  0.22467915017E+02  0.43400730743E+02  0.00000000000E+00 0. -1.
         11    1    3    3    0    0  0.45121297710E+00 -0.11504390913E+02 -0.62925594485E+01  0.13120629105E+02  0.51100000000E-03 0. -1.
        -11    1    3    3    0    0  0.13675798425E+02 -0.20167867952E+02 -0.18544724380E+02  0.30621514706E+02  0.51100000000E-03 0.  1.
         12    1    3    3    0    0  0.30265661901E+01 -0.12605666990E+01  0.23693688116E+01  0.40451254456E+01  0.00000000000E+00 0. -1.
</event>
<event>
 7    1  0.2653124E-010  0.4778728E+02  0.7816164E-02  0.1312668E+00
        -11   -1    0    0    0    0  0.00000000000E+00  0.00000000000E+00  0.45593999997E+02  0.45594000000E+02  0.51100000000E-03 0. -1.
         11   -1    0    0    0    0 -0.00000000000E+00 -0.00000000000E+00 -0.45593999997E+02  0.45594000000E+02  0.51100000000E-03 0.  1.
    9900012    2    1    2    0    0 -0.17687160391E+02  0.39559260205E+02  0.24189856124E+01  0.47787283392E+02  0.20000056300E+02 0.  0.
         12    1    1    2    0    0  0.17687160391E+02 -0.39559260205E+02 -0.24189856124E+01  0.43400716608E+02  0.00000000000E+00 0. -1.
         11    1    3    3    0    0  0.47006067453E+00  0.49236337298E+01  0.61309736853E+01  0.78773069468E+01  0.51100000000E-03 0. -1.
        -11    1    3    3    0    0 -0.10576716688E+02  0.25934000788E+02 -0.85387279130E+00  0.28020857085E+02  0.51100000000E-03 0.  1.
        -12    1    3    3    0    0 -0.75805043771E+01  0.87016256875E+01 -0.28581152816E+01  0.11889119361E+02  0.00000000000E+00 0.  1.
</event>
<event>
 7    1  0.2653124E-010  0.4778727E+02  0.7816164E-02  0.1312668E+00
        -11   -1    0    0    0    0  0.00000000000E+00  0.00000000000E+00  0.45593999997E+02  0.45594000000E+02  0.51100000000E-03 0.  1.
         11   -1    0    0    0    0 -0.00000000000E+00 -0.00000000000E+00 -0.45593999997E+02  0.45594000000E+02  0.51100000000E-03 0. -1.
    9900012    2    1    2    0    0 -0.35794406030E+02  0.22537757817E+02  0.97176757642E+01  0.47787271288E+02  0.20000001111E+02 0.  0.
         12    1    1    2    0    0  0.35794406030E+02 -0.22537757817E+02 -0.97176757642E+01  0.43400728712E+02  0.00000000000E+00 0. -1.
         11    1    3    3    0    0  0.14451191183E+01  0.25447517903E-01 -0.10303411685E+01  0.17749985991E+01  0.51100000000E-03 0. -1.
        -11    1    3    3    0    0 -0.13305591789E+02  0.46916189306E+01 -0.51438963836E+00  0.14117884331E+02  0.51100000000E-03 0.  1.
         12    1    3    3    0    0 -0.23933933360E+02  0.17820691368E+02  0.11262406571E+02  0.31894388358E+02  0.00000000000E+00 0. -1.
</event>
<event>
 7    1  0.2653124E-010  0.4778726E+02  0.7816164E-02  0.1312668E+00
        -11   -1    0    0    0    0  0.00000000000E+00  0.00000000000E+00  0.45593999997E+02  0.45594000000E+02  0.51100000000E-03 0.  1.
         11   -1    0    0    0    0 -0.00000000000E+00 -0.00000000000E+00 -0.45593999997E+02  0.45594000000E+02  0.51100000000E-03 0. -1.
    9900012    2    1    2    0    0  0.27793824775E+02 -0.27098423530E+02  0.19411410904E+02  0.47787261219E+02  0.19999955202E+02 0.  0.
         12    1    1    2    0    0 -0.27793824775E+02  0.27098423530E+02 -0.19411410904E+02  0.43400738781E+02  0.00000000000E+00 0. -1.
         11    1    3    3    0    0  0.87393085022E+00 -0.92431383491E+00 -0.22207148757E+01  0.25592354360E+01  0.51100000000E-03 0. -1.
        -11    1    3    3    0    0  0.51522175564E+01 -0.93360163902E+01  0.12042494378E+02  0.16085030895E+02  0.51100000000E-03 0.  1.
        -12    1    3    3    0    0  0.21767676369E+02 -0.16838093305E+02  0.95896314017E+01  0.29142994888E+02  0.00000000000E+00 0.  1.
</event>
<event>
 7    1  0.2653124E-010  0.4778727E+02  0.7816164E-02  0.1312668E+00
        -11   -1    0    0    0    0  0.00000000000E+00  0.00000000000E+00  0.45593999997E+02  0.45594000000E+02  0.51100000000E-03 0.  1.
         11   -1    0    0    0    0 -0.00000000000E+00 -0.00000000000E+00 -0.45593999997E+02  0.45594000000E+02  0.51100000000E-03 0. -1.
    9900012    2    1    2    0    0 -0.20568866147E+01 -0.28322270938E+02  0.32821355488E+02  0.47787272015E+02  0.20000004424E+02 0.  0.
         12    1    1    2    0    0  0.20568866147E+01  0.28322270938E+02 -0.32821355488E+02  0.43400727985E+02  0.00000000000E+00 0. -1.
         11    1    3    3    0    0  0.29402137582E+00  0.13307716631E+01 -0.58207402816E+00  0.14819622884E+01  0.51100000000E-03 0. -1.
        -11    1    3    3    0    0  0.35242359984E+01 -0.88318638182E+01  0.15680668790E+02  0.18338632224E+02  0.51100000000E-03 0.  1.
         12    1    3    3    0    0 -0.58751439890E+01 -0.20821178782E+02  0.17722760726E+02  0.27966677502E+02  0.00000000000E+00 0. -1.
</event>
<event>
 7    1  0.2653124E-010  0.4778727E+02  0.7816164E-02  0.1312668E+00
        -11   -1    0    0    0    0  0.00000000000E+00  0.00000000000E+00  0.45593999997E+02  0.45594000000E+02  0.51100000000E-03 0. -1.
         11   -1    0    0    0    0 -0.00000000000E+00 -0.00000000000E+00 -0.45593999997E+02  0.45594000000E+02  0.51100000000E-03 0.  1.
    9900012    2    1    2    0    0  0.42724526388E+02 -0.15920720069E+01  0.74634669346E+01  0.47787272045E+02  0.20000004561E+02 0.  0.
         12    1    1    2    0    0 -0.42724526388E+02  0.15920720069E+01 -0.74634669346E+01  0.43400727955E+02  0.00000000000E+00 0. -1.
         11    1    3    3    0    0 -0.14562235895E+01 -0.12969622018E+01  0.17766815538E+00  0.19581277614E+01  0.51100000000E-03 0. -1.
        -11    1    3    3    0    0  0.25056796632E+01 -0.23579007373E+01 -0.15798231383E+00  0.34442829637E+01  0.51100000000E-03 0.  1.
        -12    1    3    3    0    0  0.41675070314E+02  0.20627909321E+01  0.74437810931E+01  0.42384861320E+02  0.00000000000E+00 0.  1.
</event>
<event>
 7    1  0.2653124E-010  0.4778727E+02  0.7816164E-02  0.1312668E+00
        -11   -1    0    0    0    0  0.00000000000E+00  0.00000000000E+00  0.45593999997E+02  0.45594000000E+02  0.51100000000E-03 0.  1.
         11   -1    0    0    0    0 -0.00000000000E+00 -0.00000000000E+00 -0.45593999997E+02  0.45594000000E+02  0.51100000000E-03 0. -1.
    9900012    2    1    2    0    0  0.42827176629E+02 -0.70052629910E+01 -0.61844768188E+00  0.47787271375E+02  0.20000001509E+02 0.  0.
         12    1    1    2    0    0 -0.42827176629E+02  0.70052629910E+01  0.61844768188E+00  0.43400728625E+02  0.00000000000E+00 0. -1.
         11    1    3    3    0    0  0.16643280961E+02 -0.34082423920E+01 -0.46908781088E+01  0.17624393749E+02  0.51100000000E-03 0. -1.
        -11    1    3    3    0    0 -0.70786169327E-01  0.91704635100E+00 -0.25511460802E+01  0.27118870322E+01  0.51100000000E-03 0.  1.
        -12    1    3    3    0    0  0.26254681838E+02 -0.45140669500E+01  0.66235765071E+01  0.27450990594E+02  0.00000000000E+00 0.  1.
</event>
<event>
 7    1  0.2653124E-010  0.4778727E+02  0.7816164E-02  0.1312668E+00
        -11   -1    0    0    0    0  0.00000000000E+00  0.00000000000E+00  0.45593999997E+02  0.45594000000E+02  0.51100000000E-03 0. -1.
         11   -1    0    0    0    0 -0.00000000000E+00 -0.00000000000E+00 -0.45593999997E+02  0.45594000000E+02  0.51100000000E-03 0.  1.
    9900012    2    1    2    0    0  0.36570071333E+02 -0.21495496983E+01  0.23273006129E+02  0.47787268492E+02  0.19999988362E+02 0.  0.
         12    1    1    2    0    0 -0.36570071333E+02  0.21495496983E+01 -0.23273006129E+02  0.43400731508E+02  0.00000000000E+00 0. -1.
         11    1    3    3    0    0  0.73354613893E+01  0.41543612444E+01  0.14073120757E+02  0.16404890711E+02  0.51100000000E-03 0. -1.
        -11    1    3    3    0    0  0.71249149013E+01 -0.14417986090E+01  0.33299775165E+01  0.79957455000E+01  0.51100000000E-03 0.  1.
         12    1    3    3    0    0  0.22109695042E+02 -0.48621123337E+01  0.58699078548E+01  0.23386632280E+02  0.00000000000E+00 0. -1.
</event>
<event>
 7    1  0.3260546E-010  0.4778728E+02  0.7816164E-02  0.1312668E+00
        -11   -1    0    0    0    0  0.00000000000E+00  0.00000000000E+00  0.45593999997E+02  0.45594000000E+02  0.51100000000E-03 0. -1.
         11   -1    0    0    0    0 -0.00000000000E+00 -0.00000000000E+00 -0.45593999997E+02  0.45594000000E+02  0.51100000000E-03 0.  1.
    9900012    2    1    2    0    0 -0.39371505158E+01  0.30758975217E+02 -0.30364570647E+02  0.47787275799E+02  0.20000021679E+02 0.  0.
         12    1    1    2    0    0  0.39371505158E+01 -0.30758975217E+02  0.30364570647E+02  0.43400724201E+02  0.00000000000E+00 0. -1.
         11    1    3    3    0    0 -0.19741079481E-01  0.10345102555E+02  0.62085102149E+00  0.10363734503E+02  0.51100000000E-03 0. -1.
        -11    1    3    3    0    0 -0.23054817213E+01  0.65012003903E+01 -0.87048987836E+01  0.11106579832E+02  0.51100000000E-03 0.  1.
         12    1    3    3    0    0 -0.16119277151E+01  0.13912672272E+02 -0.22280522885E+02  0.26316961464E+02  0.00000000000E+00 0. -1.
</event>
<event>
 7    1  0.2653124E-010  0.4778727E+02  0.7816164E-02  0.1312668E+00
        -11   -1    0    0    0    0  0.00000000000E+00  0.00000000000E+00  0.45593999997E+02  0.45594000000E+02  0.51100000000E-03 0.  1.
         11   -1    0    0    0    0 -0.00000000000E+00 -0.00000000000E+00 -0.45593999997E+02  0.45594000000E+02  0.51100000000E-03 0. -1.
    9900012    2    1    2    0    0  0.15586442717E+02 -0.33509632944E+02  0.22755011668E+02  0.47787271290E+02  0.20000001119E+02 0.  0.
         12    1    1    2    0    0 -0.15586442717E+02  0.33509632944E+02 -0.22755011668E+02  0.43400728710E+02  0.00000000000E+00 0. -1.
         11    1    3    3    0    0  0.76922371512E+01 -0.13635805026E+02  0.67912202893E+01  0.17065355677E+02  0.51100000000E-03 0.  1.
        -11    1    3    3    0    0  0.12072371296E+02 -0.11196354905E+02  0.11644826960E+02  0.20166866565E+02  0.51100000000E-03 0. -1.
         12    1    3    3    0    0 -0.41781657303E+01 -0.86774730125E+01  0.43189644185E+01  0.10555049048E+02  0.00000000000E+00 0. -1.
</event>
<event>
 7    1  0.2653124E-010  0.4778727E+02  0.7816164E-02  0.1312668E+00
        -11   -1    0    0    0    0  0.00000000000E+00  0.00000000000E+00  0.45593999997E+02  0.45594000000E+02  0.51100000000E-03 0. -1.
         11   -1    0    0    0    0 -0.00000000000E+00 -0.00000000000E+00 -0.45593999997E+02  0.45594000000E+02  0.51100000000E-03 0.  1.
    9900012    2    1    2    0    0  0.65135635709E+01  0.37874575602E+02 -0.20167126260E+02  0.47787274557E+02  0.20000016014E+02 0.  0.
         12    1    1    2    0    0 -0.65135635709E+01 -0.37874575602E+02  0.20167126260E+02  0.43400725443E+02  0.00000000000E+00 0. -1.
         11    1    3    3    0    0  0.86873678453E+01  0.10549125391E+02 -0.49703785871E+01  0.14541632307E+02  0.51100000000E-03 0. -1.
        -11    1    3    3    0    0  0.42304439351E+01  0.15747818123E+02 -0.91576778449E+01  0.18701697658E+02  0.51100000000E-03 0.  1.
         12    1    3    3    0    0 -0.64042482095E+01  0.11577632088E+02 -0.60390698281E+01  0.14543944592E+02  0.00000000000E+00 0. -1.
</event>
<event>
 7    1  0.3371760E-010  0.4778727E+02  0.7816164E-02  0.1312668E+00
        -11   -1    0    0    0    0  0.00000000000E+00  0.00000000000E+00  0.45593999997E+02  0.45594000000E+02  0.51100000000E-03 0. -1.
         11   -1    0    0    0    0 -0.00000000000E+00 -0.00000000000E+00 -0.45593999997E+02  0.45594000000E+02  0.51100000000E-03 0.  1.
    9900012    2    1    2    0    0  0.27479054433E+02  0.33593060119E+02  0.17610577354E+00  0.47787272656E+02  0.20000007348E+02 0.  0.
         12    1    1    2    0    0 -0.27479054433E+02 -0.33593060119E+02 -0.17610577354E+00  0.43400727344E+02  0.00000000000E+00 0. -1.
         11    1    3    3    0    0  0.23099797788E+01  0.45780208498E+00  0.36399307963E+01  0.43352838189E+01  0.51100000000E-03 0. -1.
        -11    1    3    3    0    0  0.12719400101E+02  0.19194945171E+02  0.39163452342E+01  0.23357371840E+02  0.51100000000E-03 0.  1.
         12    1    3    3    0    0  0.12449674554E+02  0.13940312864E+02 -0.73801702569E+01  0.20094616997E+02  0.00000000000E+00 0. -1.
</event>
<event>
 7    1  0.2653124E-010  0.4778726E+02  0.7816164E-02  0.1312668E+00
        -11   -1    0    0    0    0  0.00000000000E+00  0.00000000000E+00  0.45593999997E+02  0.45594000000E+02  0.51100000000E-03 0.  1.
         11   -1    0    0    0    0 -0.00000000000E+00 -0.00000000000E+00 -0.45593999997E+02  0.45594000000E+02  0.51100000000E-03 0. -1.
    9900012    2    1    2    0    0  0.31522363557E+01  0.41811321426E+02  0.11202727156E+02  0.47787259348E+02  0.19999946672E+02 0.  0.
         12    1    1    2    0    0 -0.31522363557E+01 -0.41811321426E+02 -0.11202727156E+02  0.43400740652E+02  0.00000000000E+00 0. -1.
         11    1    3    3    0    0  0.36436621799E+01  0.23510211588E+02  0.12066146361E+00  0.23791193380E+02  0.51100000000E-03 0. -1.
        -11    1    3    3    0    0  0.42084166760E+01  0.30941393494E+01  0.15727240070E+01  0.54550829779E+01  0.51100000000E-03 0.  1.
        -12    1    3    3    0    0 -0.46998425002E+01  0.15206970488E+02  0.95093416850E+01  0.18540982990E+02  0.00000000000E+00 0.  1.
</event>
<event>
 7    1  0.2653124E-010  0.4778727E+02  0.7816164E-02  0.1312668E+00
        -11   -1    0    0    0    0  0.00000000000E+00  0.00000000000E+00  0.45593999997E+02  0.45594000000E+02  0.51100000000E-03 0. -1.
         11   -1    0    0    0    0 -0.00000000000E+00 -0.00000000000E+00 -0.45593999997E+02  0.45594000000E+02  0.51100000000E-03 0.  1.
    9900012    2    1    2    0    0 -0.12661565445E+02 -0.23721574416E+02 -0.34067511310E+02  0.47787266606E+02  0.19999979764E+02 0.  0.
         12    1    1    2    0    0  0.12661565445E+02  0.23721574416E+02  0.34067511310E+02  0.43400733394E+02  0.00000000000E+00 0. -1.
         11    1    3    3    0    0 -0.44505244558E+01 -0.10355275178E+02 -0.38932931150E+01  0.11924622572E+02  0.51100000000E-03 0. -1.
        -11    1    3    3    0    0  0.19114036438E+01 -0.71595242101E+01 -0.98822608861E+01  0.12351976817E+02  0.51100000000E-03 0.  1.
        -12    1    3    3    0    0 -0.10122444633E+02 -0.62067750280E+01 -0.20291957309E+02  0.23510667217E+02  0.00000000000E+00 0.  1.
</event>
<event>
 7    1  0.2653124E-010  0.4778727E+02  0.7816164E-02  0.1312668E+00
        -11   -1    0    0    0    0  0.00000000000E+00  0.00000000000E+00  0.45593999997E+02  0.45594000000E+02  0.51100000000E-03 0. -1.
         11   -1    0    0    0    0 -0.00000000000E+00 -0.00000000000E+00 -0.45593999997E+02  0.45594000000E+02  0.51100000000E-03 0.  1.
    9900012    2    1    2    0    0 -0.92794280314E+01  0.39989370214E+02 -0.14084241626E+02  0.47787269858E+02  0.19999994589E+02 0.  0.
         12    1    1    2    0    0  0.92794280314E+01 -0.39989370214E+02  0.14084241626E+02  0.43400730142E+02  0.00000000000E+00 0. -1.
         11    1    3    3    0    0 -0.58976568305E+01  0.10759488054E+02 -0.37366617317E+01  0.12826206782E+02  0.51100000000E-03 0. -1.
        -11    1    3    3    0    0 -0.14534367702E+00  0.29153396124E+00 -0.54182310508E+01  0.54280148135E+01  0.51100000000E-03 0.  1.
         12    1    3    3    0    0 -0.32364275239E+01  0.28938348199E+02 -0.49293488435E+01  0.29533048262E+02  0.00000000000E+00 0. -1.
</event>
<event>
 7    1  0.3346507E-010  0.4778727E+02  0.7816164E-02  0.1312668E+00
        -11   -1    0    0    0    0  0.00000000000E+00  0.00000000000E+00  0.45593999997E+02  0.45594000000E+02  0.51100000000E-03 0.  1.
         11   -1    0    0    0    0 -0.00000000000E+00 -0.00000000000E+00 -0.45593999997E+02  0.45594000000E+02  0.51100000000E-03 0. -1.
    9900012    2    1    2    0    0  0.41045794693E+02 -0.12462422495E+02 -0.65995311963E+01  0.47787273641E+02  0.20000011839E+02 0.  0.
         12    1    1    2    0    0 -0.41045794693E+02  0.12462422495E+02  0.65995311963E+01  0.43400726359E+02  0.00000000000E+00 0. -1.
         11    1    3    3    0    0  0.17402858520E+02 -0.89800647056E+01  0.11656131218E+01  0.19617841395E+02  0.51100000000E-03 0.  1.
        -11    1    3    3    0    0  0.24736995872E+02 -0.31817371849E+01 -0.53601952356E+01  0.25510274587E+02  0.51100000000E-03 0. -1.
         12    1    3    3    0    0 -0.10940596978E+01 -0.30062060448E+00 -0.24049490825E+01  0.26591576598E+01  0.00000000000E+00 0. -1.
</event>
<event>
 7    1  0.2653124E-010  0.4778727E+02  0.7816164E-02  0.1312668E+00
        -11   -1    0    0    0    0  0.00000000000E+00  0.00000000000E+00  0.45593999997E+02  0.45594000000E+02  0.51100000000E-03 0. -1.
         11   -1    0    0    0    0 -0.00000000000E+00 -0.00000000000E+00 -0.45593999997E+02  0.45594000000E+02  0.51100000000E-03 0.  1.
    9900012    2    1    2    0    0 -0.86425661385E-01 -0.20893243251E+02 -0.38040612054E+02  0.47787271338E+02  0.20000001339E+02 0.  0.
         12    1    1    2    0    0  0.86425661385E-01  0.20893243251E+02  0.38040612054E+02  0.43400728662E+02  0.00000000000E+00 0. -1.
         11    1    3    3    0    0 -0.15704717299E+01 -0.66040902969E+01 -0.19941187759E+01  0.70750901096E+01  0.51100000000E-03 0. -1.
        -11    1    3    3    0    0 -0.39582128914E+01 -0.20699424477E+01 -0.40392777337E+01  0.60222816193E+01  0.51100000000E-03 0.  1.
        -12    1    3    3    0    0  0.54422589599E+01 -0.12219210506E+02 -0.32007215545E+02  0.34689899609E+02  0.00000000000E+00 0.  1.
</event>
<event>
 7    1  0.2653124E-010  0.4778728E+02  0.7816164E-02  0.1312668E+00
        -11   -1    0    0    0    0  0.00000000000E+00  0.00000000000E+00  0.45593999997E+02  0.45594000000E+02  0.51100000000E-03 0.  1.
         11   -1    0    0    0    0 -0.00000000000E+00 -0.00000000000E+00 -0.45593999997E+02  0.45594000000E+02  0.51100000000E-03 0. -1.
    9900012    2    1    2    0    0  0.29131655758E+02 -0.23755064242E+02  0.21694846409E+02  0.47787276446E+02  0.20000024626E+02 0.  0.
         12    1    1    2    0    0 -0.29131655758E+02  0.23755064242E+02 -0.21694846409E+02  0.43400723554E+02  0.00000000000E+00 0. -1.
         11    1    3    3    0    0  0.21227986752E+01 -0.99863262918E+01  0.50103884594E+01  0.11372641725E+02  0.51100000000E-03 0. -1.
        -11    1    3    3    0    0  0.18392849230E+02 -0.14892516651E+02  0.12647840411E+02  0.26833781364E+02  0.51100000000E-03 0.  1.
         12    1    3    3    0    0  0.86160078532E+01  0.11237787007E+01  0.40366175382E+01  0.95808533568E+01  0.00000000000E+00 0. -1.
</event>
<event>
 7    1  0.2653124E-010  0.4778728E+02  0.7816164E-02  0.1312668E+00
        -11   -1    0    0    0    0  0.00000000000E+00  0.00000000000E+00  0.45593999997E+02  0.45594000000E+02  0.51100000000E-03 0. -1.
         11   -1    0    0    0    0 -0.00000000000E+00 -0.00000000000E+00 -0.45593999997E+02  0.45594000000E+02  0.51100000000E-03 0.  1.
    9900012    2    1    2    0    0 -0.14567347235E+02  0.39194750730E+02 -0.11626964947E+02  0.47787281064E+02  0.20000045684E+02 0.  0.
         12    1    1    2    0    0  0.14567347235E+02 -0.39194750730E+02  0.11626964947E+02  0.43400718936E+02  0.00000000000E+00 0. -1.
         11    1    3    3    0    0 -0.81542811597E+00  0.13893668213E+01 -0.62089162589E+01  0.64145073503E+01  0.51100000000E-03 0. -1.
        -11    1    3    3    0    0 -0.68438955115E+01  0.86185087790E+01 -0.91397143570E+00  0.11043230659E+02  0.51100000000E-03 0.  1.
         12    1    3    3    0    0 -0.69080236070E+01  0.29186875130E+02 -0.45040772521E+01  0.30329543055E+02  0.00000000000E+00 0. -1.
</event>
<event>
 7    1  0.2653124E-010  0.4778726E+02  0.7816164E-02  0.1312668E+00
        -11   -1    0    0    0    0  0.00000000000E+00  0.00000000000E+00  0.45593999997E+02  0.45594000000E+02  0.51100000000E-03 0. -1.
         11   -1    0    0    0    0 -0.00000000000E+00 -0.00000000000E+00 -0.45593999997E+02  0.45594000000E+02  0.51100000000E-03 0.  1.
    9900012    2    1    2    0    0  0.37652621680E+02 -0.20980779756E+02  0.50706607097E+01  0.47787255322E+02  0.19999928313E+02 0.  0.
         12    1    1    2    0    0 -0.37652621680E+02  0.20980779756E+02 -0.50706607097E+01  0.43400744678E+02  0.00000000000E+00 0. -1.
         11    1    3    3    0    0  0.49859843474E+01 -0.36341891867E+01 -0.61385881423E+01  0.87034266584E+01  0.51100000000E-03 0. -1.
        -11    1    3    3    0    0  0.80382588398E+01 -0.25569319021E+01  0.58881585401E+00  0.84556614347E+01  0.51100000000E-03 0.  1.
         12    1    3    3    0    0  0.24628378493E+02 -0.14789658668E+02  0.10620432998E+02  0.30628167229E+02  0.00000000000E+00 0. -1.
</event>
<event>
 7    1  0.2653124E-010  0.4778727E+02  0.7816164E-02  0.1312668E+00
        -11   -1    0    0    0    0  0.00000000000E+00  0.00000000000E+00  0.45593999997E+02  0.45594000000E+02  0.51100000000E-03 0. -1.
         11   -1    0    0    0    0 -0.00000000000E+00 -0.00000000000E+00 -0.45593999997E+02  0.45594000000E+02  0.51100000000E-03 0.  1.
    9900012    2    1    2    0    0 -0.25965374483E+02  0.21392121807E+02 -0.27418964264E+02  0.47787272486E+02  0.20000006570E+02 0.  0.
         12    1    1    2    0    0  0.25965374483E+02 -0.21392121807E+02  0.27418964264E+02  0.43400727514E+02  0.00000000000E+00 0. -1.
         11    1    3    3    0    0 -0.43072715195E+01  0.90421374244E+01 -0.55119156226E+01  0.11432149896E+02  0.51100000000E-03 0. -1.
        -11    1    3    3    0    0 -0.18198822724E+02  0.97225465731E+01 -0.85940675593E+01  0.22351354721E+02  0.51100000000E-03 0.  1.
         12    1    3    3    0    0 -0.34592802400E+01  0.26274378097E+01 -0.13312981082E+02  0.14003767869E+02  0.00000000000E+00 0. -1.
</event>
<event>
 7    1  0.2653124E-010  0.4778727E+02  0.7816164E-02  0.1312668E+00
        -11   -1    0    0    0    0  0.00000000000E+00  0.00000000000E+00  0.45593999997E+02  0.45594000000E+02  0.51100000000E-03 0.  1.
         11   -1    0    0    0    0 -0.00000000000E+00 -0.00000000000E+00 -0.45593999997E+02  0.45594000000E+02  0.51100000000E-03 0. -1.
    9900012    2    1    2    0    0 -0.10352373684E+02  0.20767839692E+02  0.36676266767E+02  0.47787270164E+02  0.19999995984E+02 0.  0.
         12    1    1    2    0    0  0.10352373684E+02 -0.20767839692E+02 -0.36676266767E+02  0.43400729836E+02  0.00000000000E+00 0. -1.
         11    1    3    3    0    0  0.33999806409E+01  0.20873909853E+01  0.46863979757E+01  0.61546239310E+01  0.51100000000E-03 0.  1.
        -11    1    3    3    0    0 -0.23482637061E+01 -0.15597858218E+01  0.68217757531E+01  0.73813209475E+01  0.51100000000E-03 0. -1.
        -12    1    3    3    0    0 -0.11404090618E+02  0.20240234529E+02  0.25168093038E+02  0.34251325285E+02  0.00000000000E+00 0.  1.
</event>
<event>
 7    1  0.2653124E-010  0.4778728E+02  0.7816164E-02  0.1312668E+00
        -11   -1    0    0    0    0  0.00000000000E+00  0.00000000000E+00  0.45593999997E+02  0.45594000000E+02  0.51100000000E-03 0.  1.
         11   -1    0    0    0    0 -0.00000000000E+00 -0.00000000000E+00 -0.45593999997E+02  0.45594000000E+02  0.51100000000E-03 0. -1.
    9900012    2    1    2    0    0  0.39446029721E+02  0.18096583557E+02 -0.38363826140E+00  0.47787276786E+02  0.20000026178E+02 0.  0.
         12    1    1    2    0    0 -0.39446029721E+02 -0.18096583557E+02  0.38363826140E+00  0.43400723214E+02  0.00000000000E+00 0. -1.
         11    1    3    3    0    0 -0.58888930174E+00 -0.20761731832E+01 -0.93006381270E+00  0.23499584365E+01  0.51100000000E-03 0. -1.
        -11    1    3    3    0    0  0.64828716476E+01  0.11254976079E+01  0.18458991404E+01  0.68338651993E+01  0.51100000000E-03 0.  1.
         12    1    3    3    0    0  0.33552047375E+02  0.19047259132E+02 -0.12994735891E+01  0.38603453150E+02  0.00000000000E+00 0. -1.
</event>
<event>
 7    1  0.2653124E-010  0.4778727E+02  0.7816164E-02  0.1312668E+00
        -11   -1    0    0    0    0  0.00000000000E+00  0.00000000000E+00  0.45593999997E+02  0.45594000000E+02  0.51100000000E-03 0.  1.
         11   -1    0    0    0    0 -0.00000000000E+00 -0.00000000000E+00 -0.45593999997E+02  0.45594000000E+02  0.51100000000E-03 0. -1.
    9900012    2    1    2    0    0 -0.28103531513E+02 -0.32120454186E+02  0.78797783123E+01  0.47787274581E+02  0.20000016126E+02 0.  0.
         12    1    1    2    0    0  0.28103531513E+02  0.32120454186E+02 -0.78797783123E+01  0.43400725419E+02  0.00000000000E+00 0. -1.
         11    1    3    3    0    0  0.16996271015E+00 -0.45799203556E+00 -0.17598607613E+01  0.18264047163E+01  0.51100000000E-03 0. -1.
        -11    1    3    3    0    0  0.12583817682E+01  0.29941443437E+00 -0.29036438466E+00  0.13257018575E+01  0.51100000000E-03 0.  1.
        -12    1    3    3    0    0 -0.29531875991E+02 -0.31961876585E+02  0.99300034583E+01  0.44635168008E+02  0.00000000000E+00 0.  1.
</event>
<event>
 7    1  0.2653124E-010  0.4778722E+02  0.7816164E-02  0.1312668E+00
        -11   -1    0    0    0    0  0.00000000000E+00  0.00000000000E+00  0.45593999997E+02  0.45594000000E+02  0.51100000000E-03 0.  1.
         11   -1    0    0    0    0 -0.00000000000E+00 -0.00000000000E+00 -0.45593999997E+02  0.45594000000E+02  0.51100000000E-03 0. -1.
    9900012    2    1    2    0    0  0.13269982347E+02 -0.18160433239E+02  0.37117840302E+02  0.47787218491E+02  0.19999760387E+02 0.  0.
         12    1    1    2    0    0 -0.13269982347E+02  0.18160433239E+02 -0.37117840302E+02  0.43400781509E+02  0.00000000000E+00 0. -1.
         11    1    3    3    0    0 -0.40236372533E+00 -0.38861339879E+01  0.23138278726E+02  0.23465802279E+02  0.51100000000E-03 0. -1.
        -11    1    3    3    0    0  0.15445323018E+01 -0.27877665545E+01  0.19447846718E+01  0.37335519381E+01  0.51100000000E-03 0.  1.
         12    1    3    3    0    0  0.12127813771E+02 -0.11486532696E+02  0.12034776904E+02  0.20587864274E+02  0.00000000000E+00 0. -1.
</event>
<event>
 7    1  0.2653124E-010  0.4778728E+02  0.7816164E-02  0.1312668E+00
        -11   -1    0    0    0    0  0.00000000000E+00  0.00000000000E+00  0.45593999997E+02  0.45594000000E+02  0.51100000000E-03 0. -1.
         11   -1    0    0    0    0 -0.00000000000E+00 -0.00000000000E+00 -0.45593999997E+02  0.45594000000E+02  0.51100000000E-03 0.  1.
    9900012    2    1    2    0    0  0.11562756846E+02  0.19130126444E+02 -0.37201660132E+02  0.47787278806E+02  0.20000035387E+02 0.  0.
         12    1    1    2    0    0 -0.11562756846E+02 -0.19130126444E+02  0.37201660132E+02  0.43400721194E+02  0.00000000000E+00 0. -1.
         11    1    3    3    0    0  0.15915092075E+01  0.15024954088E+02 -0.14044739752E+02  0.20628544832E+02  0.51100000000E-03 0. -1.
        -11    1    3    3    0    0  0.22267858437E+01  0.51657852731E+01 -0.14182679251E+02  0.15257532686E+02  0.51100000000E-03 0.  1.
        -12    1    3    3    0    0  0.77444617945E+01 -0.10606129177E+01 -0.89742411289E+01  0.11901201288E+02  0.00000000000E+00 0.  1.
</event>
<event>
 7    1  0.2653124E-010  0.4778727E+02  0.7816164E-02  0.1312668E+00
        -11   -1    0    0    0    0  0.00000000000E+00  0.00000000000E+00  0.45593999997E+02  0.45594000000E+02  0.51100000000E-03 0.  1.
         11   -1    0    0    0    0 -0.00000000000E+00 -0.00000000000E+00 -0.45593999997E+02  0.45594000000E+02  0.51100000000E-03 0. -1.
    9900012    2    1    2    0    0  0.26181759163E+02 -0.32087704368E+02  0.12981462912E+02  0.47787266552E+02  0.19999979518E+02 0.  0.
         12    1    1    2    0    0 -0.26181759163E+02  0.32087704368E+02 -0.12981462912E+02  0.43400733448E+02  0.00000000000E+00 0. -1.
         11    1    3    3    0    0  0.29906795180E+01 -0.24347551857E+00 -0.23180373898E+00  0.30095145027E+01  0.51100000000E-03 0. -1.
        -11    1    3    3    0    0  0.10247893128E+02 -0.35176949846E+01  0.73354210468E+01  0.13084414154E+02  0.51100000000E-03 0.  1.
         12    1    3    3    0    0  0.12943186518E+02 -0.28326533865E+02  0.58778456047E+01  0.31693337895E+02  0.00000000000E+00 0. -1.
</event>
<event>
 7    1  0.2653124E-010  0.4778728E+02  0.7816164E-02  0.1312668E+00
        -11   -1    0    0    0    0  0.00000000000E+00  0.00000000000E+00  0.45593999997E+02  0.45594000000E+02  0.51100000000E-03 0.  1.
         11   -1    0    0    0    0 -0.00000000000E+00 -0.00000000000E+00 -0.45593999997E+02  0.45594000000E+02  0.51100000000E-03 0. -1.
    9900012    2    1    2    0    0  0.28423158434E+02  0.16952806612E+02  0.28077554813E+02  0.47787277982E+02  0.20000031631E+02 0.  0.
         12    1    1    2    0    0 -0.28423158434E+02 -0.16952806612E+02 -0.28077554813E+02  0.43400722018E+02  0.00000000000E+00 0. -1.
         11    1    3    3    0    0  0.10452078106E+02  0.35298606639E+01  0.79339581385E+01  0.13588728603E+02  0.51100000000E-03 0. -1.
        -11    1    3    3    0    0  0.13344932142E+02  0.13852021935E+01  0.15480262727E+02  0.20485227198E+02  0.51100000000E-03 0.  1.
         12    1    3    3    0    0  0.46261481869E+01  0.12037743755E+02  0.46633339475E+01  0.13713322182E+02  0.00000000000E+00 0. -1.
</event>
<event>
 7    1  0.2653124E-010  0.4778727E+02  0.7816164E-02  0.1312668E+00
        -11   -1    0    0    0    0  0.00000000000E+00  0.00000000000E+00  0.45593999997E+02  0.45594000000E+02  0.51100000000E-03 0. -1.
         11   -1    0    0    0    0 -0.00000000000E+00 -0.00000000000E+00 -0.45593999997E+02  0.45594000000E+02  0.51100000000E-03 0.  1.
    9900012    2    1    2    0    0 -0.94557516759E+01 -0.18678190020E+02 -0.38017591308E+02  0.47787271077E+02  0.20000000148E+02 0.  0.
         12    1    1    2    0    0  0.94557516759E+01  0.18678190020E+02  0.38017591308E+02  0.43400728923E+02  0.00000000000E+00 0. -1.
         11    1    3    3    0    0 -0.20596756836E+01 -0.87059886691E+01 -0.79476642896E+01  0.11966698398E+02  0.51100000000E-03 0. -1.
        -11    1    3    3    0    0 -0.40105831417E+01 -0.13093042453E+02 -0.16231115807E+02  0.21235857845E+02  0.51100000000E-03 0.  1.
         12    1    3    3    0    0 -0.33854928505E+01  0.31208411023E+01 -0.13838811212E+02  0.14584714834E+02  0.00000000000E+00 0. -1.
</event>
<event>
 7    1  0.2653124E-010  0.4778727E+02  0.7816164E-02  0.1312668E+00
        -11   -1    0    0    0    0  0.00000000000E+00  0.00000000000E+00  0.45593999997E+02  0.45594000000E+02  0.51100000000E-03 0.  1.
         11   -1    0    0    0    0 -0.00000000000E+00 -0.00000000000E+00 -0.45593999997E+02  0.45594000000E+02  0.51100000000E-03 0. -1.
    9900012    2    1    2    0    0  0.24590363863E+02 -0.10743713172E+02  0.34110267655E+02  0.47787265822E+02  0.19999976189E+02 0.  0.
         12    1    1    2    0    0 -0.24590363863E+02  0.10743713172E+02 -0.34110267655E+02  0.43400734178E+02  0.00000000000E+00 0. -1.
         11    1    3    3    0    0  0.72771780733E+01 -0.24541138036E+01  0.11450793403E+02  0.13787699775E+02  0.51100000000E-03 0. -1.
        -11    1    3    3    0    0  0.17841445184E+02 -0.84191489859E+01  0.24857779482E+02  0.31734971828E+02  0.51100000000E-03 0.  1.
         12    1    3    3    0    0 -0.52825939365E+00  0.12954961704E+00 -0.21983052301E+01  0.22645942186E+01  0.00000000000E+00 0. -1.
</event>
<event>
 7    1  0.2653124E-010  0.4778722E+02  0.7816164E-02  0.1312668E+00
        -11   -1    0    0    0    0  0.00000000000E+00  0.00000000000E+00  0.45593999997E+02  0.45594000000E+02  0.51100000000E-03 0. -1.
         11   -1    0    0    0    0 -0.00000000000E+00 -0.00000000000E+00 -0.45593999997E+02  0.45594000000E+02  0.51100000000E-03 0.  1.
    9900012    2    1    2    0    0 -0.35672509405E+01  0.33087319445E+02 -0.27859139988E+02  0.47787220420E+02  0.19999769180E+02 0.  0.
         12    1    1    2    0    0  0.35672509405E+01 -0.33087319445E+02  0.27859139988E+02  0.43400779580E+02  0.00000000000E+00 0. -1.
         11    1    3    3    0    0  0.25664701464E+00  0.28118568922E+01  0.18652093275E+01  0.33839936419E+01  0.51100000000E-03 0. -1.
        -11    1    3    3    0    0 -0.23836774832E+01  0.15198099990E+01 -0.75511987130E+01  0.80630231949E+01  0.51100000000E-03 0.  1.
         12    1    3    3    0    0 -0.14402204720E+01  0.28755652554E+02 -0.22173150602E+02  0.36340203583E+02  0.00000000000E+00 0. -1.
</event>
<event>
 7    1  0.2653124E-010  0.4778727E+02  0.7816164E-02  0.1312668E+00
        -11   -1    0    0    0    0  0.00000000000E+00  0.00000000000E+00  0.45593999997E+02  0.45594000000E+02  0.51100000000E-03 0.  1.
         11   -1    0    0    0    0 -0.00000000000E+00 -0.00000000000E+00 -0.45593999997E+02  0.45594000000E+02  0.51100000000E-03 0. -1.
    9900012    2    1    2    0    0 -0.57523078425E+01 -0.38510886895E+02  0.19168877240E+02  0.47787270633E+02  0.19999998126E+02 0.  0.
         12    1    1    2    0    0  0.57523078425E+01  0.38510886895E+02 -0.19168877240E+02  0.43400729367E+02  0.00000000000E+00 0. -1.
         11    1    3    3    0    0  0.36671146178E+01 -0.27351663248E+02  0.17787665525E+02  0.32832335542E+02  0.51100000000E-03 0. -1.
        -11    1    3    3    0    0 -0.20615114503E+01 -0.15617273991E+01 -0.71017826861E+00  0.26820095755E+01  0.51100000000E-03 0.  1.
         12    1    3    3    0    0 -0.73579110100E+01 -0.95974962472E+01  0.20913899832E+01  0.12272925515E+02  0.00000000000E+00 0. -1.
</event>
<event>
 7    1  0.2653124E-010  0.4778727E+02  0.7816164E-02  0.1312668E+00
        -11   -1    0    0    0    0  0.00000000000E+00  0.00000000000E+00  0.45593999997E+02  0.45594000000E+02  0.51100000000E-03 0.  1.
         11   -1    0    0    0    0 -0.00000000000E+00 -0.00000000000E+00 -0.45593999997E+02  0.45594000000E+02  0.51100000000E-03 0. -1.
    9900012    2    1    2    0    0  0.29301947433E+02  0.27495070755E+02  0.16402453957E+02  0.47787268036E+02  0.19999986284E+02 0.  0.
         12    1    1    2    0    0 -0.29301947433E+02 -0.27495070755E+02 -0.16402453957E+02  0.43400731964E+02  0.00000000000E+00 0. -1.
         11    1    3    3    0    0  0.12993391937E+00  0.60426920448E+00  0.29389254577E+00  0.68439548834E+00  0.51100000000E-03 0. -1.
        -11    1    3    3    0    0  0.13549510005E+02  0.20928583832E+02  0.16315518518E+01  0.24985131664E+02  0.51100000000E-03 0.  1.
         12    1    3    3    0    0  0.15622503509E+02  0.59622177190E+01  0.14477009559E+02  0.22117740884E+02  0.00000000000E+00 0. -1.
</event>
<event>
 7    1  0.2653124E-010  0.4778727E+02  0.7816164E-02  0.1312668E+00
        -11   -1    0    0    0    0  0.00000000000E+00  0.00000000000E+00  0.45593999997E+02  0.45594000000E+02  0.51100000000E-03 0. -1.
         11   -1    0    0    0    0 -0.00000000000E+00 -0.00000000000E+00 -0.45593999997E+02  0.45594000000E+02  0.51100000000E-03 0.  1.
    9900012    2    1    2    0    0  0.17436702693E+02  0.20340784055E+02 -0.34144357160E+02  0.47787271634E+02  0.20000002690E+02 0.  0.
         12    1    1    2    0    0 -0.17436702693E+02 -0.20340784055E+02  0.34144357160E+02  0.43400728366E+02  0.00000000000E+00 0. -1.
         11    1    3    3    0    0  0.38248723049E+01  0.73978191662E+01 -0.14944195555E+02  0.17108078724E+02  0.51100000000E-03 0. -1.
        -11    1    3    3    0    0 -0.13582636002E+01  0.79368309247E+01 -0.77756297433E+01  0.11193684974E+02  0.51100000000E-03 0.  1.
         12    1    3    3    0    0  0.14970093988E+02  0.50061339645E+01 -0.11424531862E+02  0.19485507937E+02  0.00000000000E+00 0. -1.
</event>
<event>
 7    1  0.2653124E-010  0.4778727E+02  0.7816164E-02  0.1312668E+00
        -11   -1    0    0    0    0  0.00000000000E+00  0.00000000000E+00  0.45593999997E+02  0.45594000000E+02  0.51100000000E-03 0.  1.
         11   -1    0    0    0    0 -0.00000000000E+00 -0.00000000000E+00 -0.45593999997E+02  0.45594000000E+02  0.51100000000E-03 0. -1.
    9900012    2    1    2    0    0 -0.39723531968E+01  0.38791075431E+02  0.19055077897E+02  0.47787272855E+02  0.20000008255E+02 0.  0.
         12    1    1    2    0    0  0.39723531968E+01 -0.38791075431E+02 -0.19055077897E+02  0.43400727145E+02  0.00000000000E+00 0. -1.
         11    1    3    3    0    0 -0.39888691113E+01  0.17139693358E+02  0.13823981155E+02  0.22378172857E+02  0.51100000000E-03 0. -1.
        -11    1    3    3    0    0 -0.76682476967E+00  0.21123302113E+02  0.79097796925E+01  0.22568706818E+02  0.51100000000E-03 0.  1.
         12    1    3    3    0    0  0.78334068420E+00  0.52807996010E+00 -0.26786829497E+01  0.28403931800E+01  0.00000000000E+00 0. -1.
</event>
<event>
 7    1  0.2653124E-010  0.4778726E+02  0.7816164E-02  0.1312668E+00
        -11   -1    0    0    0    0  0.00000000000E+00  0.00000000000E+00  0.45593999997E+02  0.45594000000E+02  0.51100000000E-03 0.  1.
         11   -1    0    0    0    0 -0.00000000000E+00 -0.00000000000E+00 -0.45593999997E+02  0.45594000000E+02  0.51100000000E-03 0. -1.
    9900012    2    1    2    0    0 -0.86678832084E+01  0.42353556192E+02  0.38299041212E+01  0.47787261677E+02  0.19999957288E+02 0.  0.
         12    1    1    2    0    0  0.86678832084E+01 -0.42353556192E+02 -0.38299041212E+01  0.43400738323E+02  0.00000000000E+00 0. -1.
         11    1    3    3    0    0  0.76801786181E-01  0.16247035027E+01 -0.22829526138E+01  0.28031112864E+01  0.51100000000E-03 0. -1.
        -11    1    3    3    0    0 -0.35959893322E+01  0.10106726187E+02  0.87178874880E+01  0.13823118896E+02  0.51100000000E-03 0.  1.
        -12    1    3    3    0    0 -0.51486956624E+01  0.30622126502E+02 -0.26050307531E+01  0.31161031494E+02  0.00000000000E+00 0.  1.
</event>
<event>
 7    1  0.2653124E-010  0.4778727E+02  0.7816164E-02  0.1312668E+00
        -11   -1    0    0    0    0  0.00000000000E+00  0.00000000000E+00  0.45593999997E+02  0.45594000000E+02  0.51100000000E-03 0. -1.
         11   -1    0    0    0    0 -0.00000000000E+00 -0.00000000000E+00 -0.45593999997E+02  0.45594000000E+02  0.51100000000E-03 0.  1.
    9900012    2    1    2    0    0  0.15478003172E+02 -0.29047644143E+02 -0.28289384921E+02  0.47787268305E+02  0.19999987509E+02 0.  0.
         12    1    1    2    0    0 -0.15478003172E+02  0.29047644143E+02  0.28289384921E+02  0.43400731695E+02  0.00000000000E+00 0. -1.
         11    1    3    3    0    0 -0.20070091976E+01 -0.18729694264E+01  0.58630547943E+00  0.28071079010E+01  0.51100000000E-03 0. -1.
        -11    1    3    3    0    0  0.99258773678E+01 -0.14800980997E+02 -0.79313553999E+01  0.19506370209E+02  0.51100000000E-03 0.  1.
        -12    1    3    3    0    0  0.75591350016E+01 -0.12373693719E+02 -0.20944335001E+02  0.25473790194E+02  0.00000000000E+00 0.  1.
</event>
<event>
 7    1  0.2653124E-010  0.4778727E+02  0.7816164E-02  0.1312668E+00
        -11   -1    0    0    0    0  0.00000000000E+00  0.00000000000E+00  0.45593999997E+02  0.45594000000E+02  0.51100000000E-03 0. -1.
         11   -1    0    0    0    0 -0.00000000000E+00 -0.00000000000E+00 -0.45593999997E+02  0.45594000000E+02  0.51100000000E-03 0.  1.
    9900012    2    1    2    0    0 -0.36460663812E+00  0.37079010574E+02 -0.22552985576E+02  0.47787272799E+02  0.20000008002E+02 0.  0.
         12    1    1    2    0    0  0.36460663812E+00 -0.37079010574E+02  0.22552985576E+02  0.43400727201E+02  0.00000000000E+00 0. -1.
         11    1    3    3    0    0  0.24255271473E+01  0.11511080656E+02 -0.89156723701E+01  0.14760669832E+02  0.51100000000E-03 0. -1.
        -11    1    3    3    0    0 -0.43628753877E+01  0.26934883446E+02 -0.10449990952E+02  0.29218571817E+02  0.51100000000E-03 0.  1.
         12    1    3    3    0    0  0.15727416023E+01 -0.13669535274E+01 -0.31873222538E+01  0.38080311505E+01  0.00000000000E+00 0. -1.
</event>
<event>
 7    1  0.2653124E-010  0.4778726E+02  0.7816164E-02  0.1312668E+00
        -11   -1    0    0    0    0  0.00000000000E+00  0.00000000000E+00  0.45593999997E+02  0.45594000000E+02  0.51100000000E-03 0.  1.
         11   -1    0    0    0    0 -0.00000000000E+00 -0.00000000000E+00 -0.45593999997E+02  0.45594000000E+02  0.51100000000E-03 0. -1.
    9900012    2    1    2    0    0  0.14150005430E+02 -0.19502462058E+02  0.36097859228E+02  0.47787261287E+02  0.19999955512E+02 0.  0.
         12    1    1    2    0    0 -0.14150005430E+02  0.19502462058E+02 -0.36097859228E+02  0.43400738713E+02  0.00000000000E+00 0. -1.
         11    1    3    3    0    0  0.80528957062E+01 -0.36163808277E+01  0.91214200933E+01  0.12693606435E+02  0.51100000000E-03 0. -1.
        -11    1    3    3    0    0  0.55340331236E+01 -0.31644873182E+01  0.14063484308E+01  0.65281941432E+01  0.51100000000E-03 0.  1.
         12    1    3    3    0    0  0.56307660006E+00 -0.12721593912E+02  0.25570090704E+02  0.28565460709E+02  0.00000000000E+00 0. -1.
</event>
<event>
 7    1  0.2653124E-010  0.4778727E+02  0.7816164E-02  0.1312668E+00
        -11   -1    0    0    0    0  0.00000000000E+00  0.00000000000E+00  0.45593999997E+02  0.45594000000E+02  0.51100000000E-03 0.  1.
         11   -1    0    0    0    0 -0.00000000000E+00 -0.00000000000E+00 -0.45593999997E+02  0.45594000000E+02  0.51100000000E-03 0. -1.
    9900012    2    1    2    0    0 -0.20777721429E+02 -0.26395671458E+02  0.27480511061E+02  0.47787266507E+02  0.19999979312E+02 0.  0.
         12    1    1    2    0    0  0.20777721429E+02  0.26395671458E+02 -0.27480511061E+02  0.43400733493E+02  0.00000000000E+00 0. -1.
         11    1    3    3    0    0 -0.28572357437E+00  0.25580475365E+00  0.54545159125E+01  0.54679811754E+01  0.51100000000E-03 0. -1.
        -11    1    3    3    0    0 -0.48871199825E+01 -0.80484443728E+01  0.13752430868E+02  0.16667055936E+02  0.51100000000E-03 0.  1.
         12    1    3    3    0    0 -0.15604877872E+02 -0.18603031839E+02  0.82735642808E+01  0.25652229395E+02  0.00000000000E+00 0. -1.
</event>
<event>
 7    1  0.2653124E-010  0.4778726E+02  0.7816164E-02  0.1312668E+00
        -11   -1    0    0    0    0  0.00000000000E+00  0.00000000000E+00  0.45593999997E+02  0.45594000000E+02  0.51100000000E-03 0. -1.
         11   -1    0    0    0    0 -0.00000000000E+00 -0.00000000000E+00 -0.45593999997E+02  0.45594000000E+02  0.51100000000E-03 0.  1.
    9900012    2    1    2    0    0 -0.11115964051E+02  0.20832025667E+02 -0.36415461933E+02  0.47787264776E+02  0.19999971421E+02 0.  0.
         12    1    1    2    0    0  0.11115964051E+02 -0.20832025667E+02  0.36415461933E+02  0.43400735224E+02  0.00000000000E+00 0. -1.
         11    1    3    3    0    0 -0.22944080735E+01  0.77908968637E+01 -0.17143498241E+02  0.18970026741E+02  0.51100000000E-03 0. -1.
        -11    1    3    3    0    0  0.30245603780E+01  0.78207322212E+01 -0.89131926885E+01  0.12237516992E+02  0.51100000000E-03 0.  1.
         12    1    3    3    0    0 -0.11846116356E+02  0.52203965823E+01 -0.10358771003E+02  0.16579721043E+02  0.00000000000E+00 0. -1.
</event>
<event>
 7    1  0.2653124E-010  0.4778727E+02  0.7816164E-02  0.1312668E+00
        -11   -1    0    0    0    0  0.00000000000E+00  0.00000000000E+00  0.45593999997E+02  0.45594000000E+02  0.51100000000E-03 0.  1.
         11   -1    0    0    0    0 -0.00000000000E+00 -0.00000000000E+00 -0.45593999997E+02  0.45594000000E+02  0.51100000000E-03 0. -1.
    9900012    2    1    2    0    0  0.13498967262E+02  0.23042275999E+02  0.34211908814E+02  0.47787270686E+02  0.19999998364E+02 0.  0.
         12    1    1    2    0    0 -0.13498967262E+02 -0.23042275999E+02 -0.34211908814E+02  0.43400729314E+02  0.00000000000E+00 0. -1.
         11    1    3    3    0    0 -0.20082886201E+01  0.20688684827E+01  0.46785374276E+01  0.54956485243E+01  0.51100000000E-03 0. -1.
        -11    1    3    3    0    0  0.16997476742E+01  0.25122820039E+01  0.14397277683E+02  0.14713337757E+02  0.51100000000E-03 0.  1.
         12    1    3    3    0    0  0.13807508208E+02  0.18461125512E+02  0.15136093704E+02  0.27578284404E+02  0.00000000000E+00 0. -1.
</event>
<event>
 7    1  0.2653124E-010  0.4778727E+02  0.7816164E-02  0.1312668E+00
        -11   -1    0    0    0    0  0.00000000000E+00  0.00000000000E+00  0.45593999997E+02  0.45594000000E+02  0.51100000000E-03 0. -1.
         11   -1    0    0    0    0 -0.00000000000E+00 -0.00000000000E+00 -0.45593999997E+02  0.45594000000E+02  0.51100000000E-03 0.  1.
    9900012    2    1    2    0    0  0.99976397506E+00  0.40699537896E+02 -0.15038992205E+02  0.47787271902E+02  0.20000003908E+02 0.  0.
         12    1    1    2    0    0 -0.99976397506E+00 -0.40699537896E+02  0.15038992205E+02  0.43400728098E+02  0.00000000000E+00 0. -1.
         11    1    3    3    0    0 -0.69766868239E+01  0.72182096477E+01 -0.66268818459E+01  0.12028810116E+02  0.51100000000E-03 0. -1.
        -11    1    3    3    0    0  0.30103735733E+01  0.22427510617E+02 -0.58467707570E+01  0.23371784486E+02  0.51100000000E-03 0.  1.
        -12    1    3    3    0    0  0.49660772257E+01  0.11053817631E+02 -0.25653396021E+01  0.12386677299E+02  0.00000000000E+00 0.  1.
</event>
<event>
 7    1  0.2653124E-010  0.4778727E+02  0.7816164E-02  0.1312668E+00
        -11   -1    0    0    0    0  0.00000000000E+00  0.00000000000E+00  0.45593999997E+02  0.45594000000E+02  0.51100000000E-03 0.  1.
         11   -1    0    0    0    0 -0.00000000000E+00 -0.00000000000E+00 -0.45593999997E+02  0.45594000000E+02  0.51100000000E-03 0. -1.
    9900012    2    1    2    0    0 -0.24971031433E+01  0.20317332290E+02  0.38270016100E+02  0.47787266737E+02  0.19999980362E+02 0.  0.
         12    1    1    2    0    0  0.24971031433E+01 -0.20317332290E+02 -0.38270016100E+02  0.43400733263E+02  0.00000000000E+00 0. -1.
         11    1    3    3    0    0  0.15106072123E+01 -0.32763256932E+00  0.55912484918E+01  0.58009772633E+01  0.51100000000E-03 0. -1.
        -11    1    3    3    0    0  0.24280952814E+01  0.40569293406E+01  0.18899230733E+02  0.19481664326E+02  0.51100000000E-03 0.  1.
         12    1    3    3    0    0 -0.64358056370E+01  0.16588035518E+02  0.13779536875E+02  0.22504625148E+02  0.00000000000E+00 0. -1.
</event>
<event>
 7    1  0.2653124E-010  0.4778727E+02  0.7816164E-02  0.1312668E+00
        -11   -1    0    0    0    0  0.00000000000E+00  0.00000000000E+00  0.45593999997E+02  0.45594000000E+02  0.51100000000E-03 0.  1.
         11   -1    0    0    0    0 -0.00000000000E+00 -0.00000000000E+00 -0.45593999997E+02  0.45594000000E+02  0.51100000000E-03 0. -1.
    9900012    2    1    2    0    0  0.26336240440E+02 -0.24139721289E+02  0.24643447004E+02  0.47787272072E+02  0.20000004684E+02 0.  0.
         12    1    1    2    0    0 -0.26336240440E+02  0.24139721289E+02 -0.24643447004E+02  0.43400727928E+02  0.00000000000E+00 0. -1.
         11    1    3    3    0    0 -0.25687665892E+01 -0.54880497904E+01  0.27079966976E+01  0.66370549694E+01  0.51100000000E-03 0. -1.
        -11    1    3    3    0    0  0.81264159540E+01 -0.59673311151E+01  0.93268311902E+01  0.13734535202E+02  0.51100000000E-03 0.  1.
         12    1    3    3    0    0  0.20778591076E+02 -0.12684340384E+02  0.12608619116E+02  0.27415681901E+02  0.00000000000E+00 0. -1.
</event>
<event>
 7    1  0.2653124E-010  0.4778727E+02  0.7816164E-02  0.1312668E+00
        -11   -1    0    0    0    0  0.00000000000E+00  0.00000000000E+00  0.45593999997E+02  0.45594000000E+02  0.51100000000E-03 0.  1.
         11   -1    0    0    0    0 -0.00000000000E+00 -0.00000000000E+00 -0.45593999997E+02  0.45594000000E+02  0.51100000000E-03 0. -1.
    9900012    2    1    2    0    0  0.14231756297E+02  0.28194524258E+02  0.29768260069E+02  0.47787269672E+02  0.19999993743E+02 0.  0.
         12    1    1    2    0    0 -0.14231756297E+02 -0.28194524258E+02 -0.29768260069E+02  0.43400730328E+02  0.00000000000E+00 0. -1.
         11    1    3    3    0    0  0.41231543677E+01  0.57215777138E+01  0.97677693794E+01  0.12047662528E+02  0.51100000000E-03 0. -1.
        -11    1    3    3    0    0  0.13369491350E+02  0.17556265025E+02  0.10223521469E+02  0.24320487908E+02  0.51100000000E-03 0.  1.
         12    1    3    3    0    0 -0.32608894213E+01  0.49166815198E+01  0.97769692212E+01  0.11419119236E+02  0.00000000000E+00 0. -1.
</event>
<event>
 7    1  0.2653124E-010  0.4778727E+02  0.7816164E-02  0.1312668E+00
        -11   -1    0    0    0    0  0.00000000000E+00  0.00000000000E+00  0.45593999997E+02  0.45594000000E+02  0.51100000000E-03 0. -1.
         11   -1    0    0    0    0 -0.00000000000E+00 -0.00000000000E+00 -0.45593999997E+02  0.45594000000E+02  0.51100000000E-03 0.  1.
    9900012    2    1    2    0    0  0.23338743311E+02  0.26179599425E+02 -0.25564718238E+02  0.47787272080E+02  0.20000004720E+02 0.  0.
         12    1    1    2    0    0 -0.23338743311E+02 -0.26179599425E+02  0.25564718238E+02  0.43400727920E+02  0.00000000000E+00 0. -1.
         11    1    3    3    0    0  0.82483082843E+01  0.16977707577E+02 -0.16244677795E+02  0.24903146408E+02  0.51100000000E-03 0. -1.
        -11    1    3    3    0    0  0.24364676550E+01  0.48180434377E+01 -0.76862668169E+01  0.93930088386E+01  0.51100000000E-03 0.  1.
         12    1    3    3    0    0  0.12653967372E+02  0.43838484108E+01 -0.16337736268E+01  0.13491116833E+02  0.00000000000E+00 0. -1.
</event>
<event>
 7    1  0.2653124E-010  0.4778727E+02  0.7816164E-02  0.1312668E+00
        -11   -1    0    0    0    0  0.00000000000E+00  0.00000000000E+00  0.45593999997E+02  0.45594000000E+02  0.51100000000E-03 0.  1.
         11   -1    0    0    0    0 -0.00000000000E+00 -0.00000000000E+00 -0.45593999997E+02  0.45594000000E+02  0.51100000000E-03 0. -1.
    9900012    2    1    2    0    0 -0.12560145828E+02 -0.11845492991E+02  0.39818971112E+02  0.47787269271E+02  0.19999991914E+02 0.  0.
         12    1    1    2    0    0  0.12560145828E+02  0.11845492991E+02 -0.39818971112E+02  0.43400730729E+02  0.00000000000E+00 0. -1.
         11    1    3    3    0    0 -0.11262045108E+02 -0.64321335811E+01  0.13830909552E+02  0.18960486853E+02  0.51100000000E-03 0. -1.
        -11    1    3    3    0    0 -0.86429628239E+00 -0.69846131778E+01  0.75679332691E+01  0.10334671912E+02  0.51100000000E-03 0.  1.
         12    1    3    3    0    0 -0.43380443682E+00  0.15712537676E+01  0.18420128291E+02  0.18492110506E+02  0.00000000000E+00 0. -1.
</event>
<event>
 7    1  0.2653124E-010  0.4778727E+02  0.7816164E-02  0.1312668E+00
        -11   -1    0    0    0    0  0.00000000000E+00  0.00000000000E+00  0.45593999997E+02  0.45594000000E+02  0.51100000000E-03 0.  1.
         11   -1    0    0    0    0 -0.00000000000E+00 -0.00000000000E+00 -0.45593999997E+02  0.45594000000E+02  0.51100000000E-03 0. -1.
    9900012    2    1    2    0    0  0.36224917625E+01  0.26185967937E+02  0.34420861445E+02  0.47787273439E+02  0.20000010920E+02 0.  0.
         12    1    1    2    0    0 -0.36224917625E+01 -0.26185967937E+02 -0.34420861445E+02  0.43400726561E+02  0.00000000000E+00 0. -1.
         11    1    3    3    0    0 -0.16249859720E+01  0.53758501901E+01  0.13076959359E+02  0.14231908200E+02  0.51100000000E-03 0. -1.
        -11    1    3    3    0    0  0.50060825320E+01  0.69886711477E+01  0.17025889332E+02  0.19073103956E+02  0.51100000000E-03 0.  1.
         12    1    3    3    0    0  0.24139520239E+00  0.13821446599E+02  0.43180127545E+01  0.14482261283E+02  0.00000000000E+00 0. -1.
</event>
<event>
 7    1  0.2653124E-010  0.4778727E+02  0.7816164E-02  0.1312668E+00
        -11   -1    0    0    0    0  0.00000000000E+00  0.00000000000E+00  0.45593999997E+02  0.45594000000E+02  0.51100000000E-03 0.  1.
         11   -1    0    0    0    0 -0.00000000000E+00 -0.00000000000E+00 -0.45593999997E+02  0.45594000000E+02  0.51100000000E-03 0. -1.
    9900012    2    1    2    0    0  0.11626174292E+02 -0.17342204224E+02  0.38048697206E+02  0.47787270339E+02  0.19999996785E+02 0.  0.
         12    1    1    2    0    0 -0.11626174292E+02  0.17342204224E+02 -0.38048697206E+02  0.43400729661E+02  0.00000000000E+00 0. -1.
         11    1    3    3    0    0  0.93819361935E+01 -0.79759686025E+01  0.12813003277E+02  0.17771039787E+02  0.51100000000E-03 0. -1.
        -11    1    3    3    0    0  0.35676447405E+01 -0.23033699709E+01  0.52140960104E+00  0.42784892720E+01  0.51100000000E-03 0.  1.
        -12    1    3    3    0    0 -0.13234066425E+01 -0.70628656509E+01  0.24714284328E+02  0.25737741280E+02  0.00000000000E+00 0.  1.
</event>
<event>
 7    1  0.2653124E-010  0.4778727E+02  0.7816164E-02  0.1312668E+00
        -11   -1    0    0    0    0  0.00000000000E+00  0.00000000000E+00  0.45593999997E+02  0.45594000000E+02  0.51100000000E-03 0.  1.
         11   -1    0    0    0    0 -0.00000000000E+00 -0.00000000000E+00 -0.45593999997E+02  0.45594000000E+02  0.51100000000E-03 0. -1.
    9900012    2    1    2    0    0  0.24264713306E+01 -0.31133265681E+02  0.30140592206E+02  0.47787270817E+02  0.19999998962E+02 0.  0.
         12    1    1    2    0    0 -0.24264713306E+01  0.31133265681E+02 -0.30140592206E+02  0.43400729183E+02  0.00000000000E+00 0. -1.
         11    1    3    3    0    0  0.82159301777E+00 -0.34595202574E+00  0.99080469620E+00  0.13328136022E+01  0.51100000000E-03 0. -1.
        -11    1    3    3    0    0  0.55592027030E+00 -0.29344036750E+02  0.31790934296E+02  0.43267135840E+02  0.51100000000E-03 0.  1.
         12    1    3    3    0    0  0.10489580426E+01 -0.14432769054E+01 -0.26411467858E+01  0.31873213746E+01  0.00000000000E+00 0. -1.
</event>
<event>
 7    1  0.2653124E-010  0.4778728E+02  0.7816164E-02  0.1312668E+00
        -11   -1    0    0    0    0  0.00000000000E+00  0.00000000000E+00  0.45593999997E+02  0.45594000000E+02  0.51100000000E-03 0.  1.
         11   -1    0    0    0    0 -0.00000000000E+00 -0.00000000000E+00 -0.45593999997E+02  0.45594000000E+02  0.51100000000E-03 0. -1.
    9900012    2    1    2    0    0  0.36332523112E+02  0.22987786940E+02  0.59272310133E+01  0.47787278214E+02  0.20000032687E+02 0.  0.
         12    1    1    2    0    0 -0.36332523112E+02 -0.22987786940E+02 -0.59272310133E+01  0.43400721786E+02  0.00000000000E+00 0. -1.
         11    1    3    3    0    0 -0.87008196559E+00 -0.12630721633E+01 -0.13913604820E-01  0.15338147757E+01  0.51100000000E-03 0. -1.
        -11    1    3    3    0    0  0.77620366565E+01  0.40937774800E+01 -0.33344768904E+01  0.93875962582E+01  0.51100000000E-03 0.  1.
        -12    1    3    3    0    0  0.29440568421E+02  0.20157081624E+02  0.92756215084E+01  0.36865867180E+02  0.00000000000E+00 0.  1.
</event>
<event>
 7    1  0.2653124E-010  0.4778727E+02  0.7816164E-02  0.1312668E+00
        -11   -1    0    0    0    0  0.00000000000E+00  0.00000000000E+00  0.45593999997E+02  0.45594000000E+02  0.51100000000E-03 0.  1.
         11   -1    0    0    0    0 -0.00000000000E+00 -0.00000000000E+00 -0.45593999997E+02  0.45594000000E+02  0.51100000000E-03 0. -1.
    9900012    2    1    2    0    0  0.35533522789E+01 -0.25772269738E+02  0.34738841297E+02  0.47787270806E+02  0.19999998914E+02 0.  0.
         12    1    1    2    0    0 -0.35533522789E+01  0.25772269738E+02 -0.34738841297E+02  0.43400729194E+02  0.00000000000E+00 0. -1.
         11    1    3    3    0    0  0.32254825603E+00 -0.10350502552E+02  0.83532206007E+01  0.13304632093E+02  0.51100000000E-03 0. -1.
        -11    1    3    3    0    0  0.75442514623E+01 -0.14567157166E+02  0.14813972469E+02  0.22103655322E+02  0.51100000000E-03 0.  1.
         12    1    3    3    0    0 -0.43134474394E+01 -0.85461001984E+00  0.11571648228E+02  0.12378983392E+02  0.00000000000E+00 0. -1.
</event>
<event>
 7    1  0.2653124E-010  0.4778731E+02  0.7816164E-02  0.1312668E+00
        -11   -1    0    0    0    0  0.00000000000E+00  0.00000000000E+00  0.45593999997E+02  0.45594000000E+02  0.51100000000E-03 0.  1.
         11   -1    0    0    0    0 -0.00000000000E+00 -0.00000000000E+00 -0.45593999997E+02  0.45594000000E+02  0.51100000000E-03 0. -1.
    9900012    2    1    2    0    0  0.16786515087E+02 -0.28095931679E+02  0.28503538324E+02  0.47787306888E+02  0.20000163424E+02 0.  0.
         12    1    1    2    0    0 -0.16786515087E+02  0.28095931679E+02 -0.28503538324E+02  0.43400693112E+02  0.00000000000E+00 0. -1.
         11    1    3    3    0    0  0.11510901869E+02 -0.84472606565E+01  0.72650914229E+01  0.16019944697E+02  0.51100000000E-03 0. -1.
        -11    1    3    3    0    0  0.75505000641E+01 -0.56308597963E+01  0.81889681442E+01  0.12481018900E+02  0.51100000000E-03 0.  1.
        -12    1    3    3    0    0 -0.22748868464E+01 -0.14017811226E+02  0.13049478756E+02  0.19286343291E+02  0.00000000000E+00 0.  1.
</event>
<event>
 7    1  0.2653124E-010  0.4778729E+02  0.7816164E-02  0.1312668E+00
        -11   -1    0    0    0    0  0.00000000000E+00  0.00000000000E+00  0.45593999997E+02  0.45594000000E+02  0.51100000000E-03 0.  1.
         11   -1    0    0    0    0 -0.00000000000E+00 -0.00000000000E+00 -0.45593999997E+02  0.45594000000E+02  0.51100000000E-03 0. -1.
    9900012    2    1    2    0    0  0.99601851475E+01  0.10379846514E+02  0.40947221683E+02  0.47787291880E+02  0.20000094995E+02 0.  0.
         12    1    1    2    0    0 -0.99601851475E+01 -0.10379846514E+02 -0.40947221683E+02  0.43400708120E+02  0.00000000000E+00 0. -1.
         11    1    3    3    0    0 -0.53720777589E+00 -0.75095434418E+00 -0.10693035876E+01  0.14127756528E+01  0.51100000000E-03 0. -1.
        -11    1    3    3    0    0  0.76283687466E+01  0.35229300231E+01  0.87597374522E+01  0.12138206053E+02  0.51100000000E-03 0.  1.
        -12    1    3    3    0    0  0.28690241768E+01  0.76078708354E+01  0.33256787818E+02  0.34236310174E+02  0.00000000000E+00 0.  1.
</event>
<event>
 7    1  0.2689610E-010  0.4778727E+02  0.7816164E-02  0.1312668E+00
        -11   -1    0    0    0    0  0.00000000000E+00  0.00000000000E+00  0.45593999997E+02  0.45594000000E+02  0.51100000000E-03 0. -1.
         11   -1    0    0    0    0 -0.00000000000E+00 -0.00000000000E+00 -0.45593999997E+02  0.45594000000E+02  0.51100000000E-03 0.  1.
    9900012    2    1    2    0    0 -0.28110019450E+02 -0.92747771443E+01 -0.31740023072E+02  0.47787265569E+02  0.19999975034E+02 0.  0.
         12    1    1    2    0    0  0.28110019450E+02  0.92747771443E+01  0.31740023072E+02  0.43400734431E+02  0.00000000000E+00 0. -1.
         11    1    3    3    0    0 -0.10146332282E+02 -0.41829926996E+01 -0.88666335232E+01  0.14108957332E+02  0.51100000000E-03 0. -1.
        -11    1    3    3    0    0 -0.15024780640E+02 -0.72193007764E+01 -0.24555757269E+02  0.29679076002E+02  0.51100000000E-03 0.  1.
         12    1    3    3    0    0 -0.29389065280E+01  0.21275163317E+01  0.16823677204E+01  0.39992322349E+01  0.00000000000E+00 0. -1.
</event>
<event>
 7    1  0.2653124E-010  0.4778728E+02  0.7816164E-02  0.1312668E+00
        -11   -1    0    0    0    0  0.00000000000E+00  0.00000000000E+00  0.45593999997E+02  0.45594000000E+02  0.51100000000E-03 0.  1.
         11   -1    0    0    0    0 -0.00000000000E+00 -0.00000000000E+00 -0.45593999997E+02  0.45594000000E+02  0.51100000000E-03 0. -1.
    9900012    2    1    2    0    0  0.82627632854E+00 -0.26438834147E+02  0.34408256306E+02  0.47787276669E+02  0.20000025645E+02 0.  0.
         12    1    1    2    0    0 -0.82627632854E+00  0.26438834147E+02 -0.34408256306E+02  0.43400723331E+02  0.00000000000E+00 0. -1.
         11    1    3    3    0    0  0.42891193416E+01 -0.90466543732E+00  0.47492897294E+01  0.64630269592E+01  0.51100000000E-03 0. -1.
        -11    1    3    3    0    0 -0.56059562847E+00 -0.42842540094E+01  0.14316536763E+02  0.14954341343E+02  0.51100000000E-03 0.  1.
        -12    1    3    3    0    0 -0.29022473846E+01 -0.21249914701E+02  0.15342429814E+02  0.26369908366E+02  0.00000000000E+00 0.  1.
</event>
<event>
 7    1  0.2653124E-010  0.4778727E+02  0.7816164E-02  0.1312668E+00
        -11   -1    0    0    0    0  0.00000000000E+00  0.00000000000E+00  0.45593999997E+02  0.45594000000E+02  0.51100000000E-03 0. -1.
         11   -1    0    0    0    0 -0.00000000000E+00 -0.00000000000E+00 -0.45593999997E+02  0.45594000000E+02  0.51100000000E-03 0.  1.
    9900012    2    1    2    0    0  0.29551399646E+02  0.30325446585E+02 -0.95239542356E+01  0.47787266874E+02  0.19999980984E+02 0.  0.
         12    1    1    2    0    0 -0.29551399646E+02 -0.30325446585E+02  0.95239542356E+01  0.43400733126E+02  0.00000000000E+00 0. -1.
         11    1    3    3    0    0  0.11119559118E+01  0.53681152031E+01 -0.74375543889E+00  0.55322942074E+01  0.51100000000E-03 0.  1.
        -11    1    3    3    0    0  0.13564548398E+02  0.21022959763E+02 -0.97173160340E+01  0.26840045484E+02  0.51100000000E-03 0. -1.
         12    1    3    3    0    0  0.14874895337E+02  0.39343716189E+01  0.93711723730E+00  0.15414927182E+02  0.00000000000E+00 0. -1.
</event>
<event>
 7    1  0.2653124E-010  0.4778726E+02  0.7816164E-02  0.1312668E+00
        -11   -1    0    0    0    0  0.00000000000E+00  0.00000000000E+00  0.45593999997E+02  0.45594000000E+02  0.51100000000E-03 0.  1.
         11   -1    0    0    0    0 -0.00000000000E+00 -0.00000000000E+00 -0.45593999997E+02  0.45594000000E+02  0.51100000000E-03 0. -1.
    9900012    2    1    2    0    0  0.26699277013E+02  0.31714729294E+02  0.12843246400E+02  0.47787257779E+02  0.19999939518E+02 0.  0.
         12    1    1    2    0    0 -0.26699277013E+02 -0.31714729294E+02 -0.12843246400E+02  0.43400742221E+02  0.00000000000E+00 0. -1.
         11    1    3    3    0    0 -0.99311658075E+00  0.16026523028E-01  0.15940183741E+01  0.18781459556E+01  0.51100000000E-03 0. -1.
        -11    1    3    3    0    0 -0.14843160294E+01  0.33844152575E+01  0.20439986163E+01  0.42231968122E+01  0.51100000000E-03 0.  1.
        -12    1    3    3    0    0  0.29176709623E+02  0.28314287514E+02  0.92052294099E+01  0.41685915011E+02  0.00000000000E+00 0.  1.
</event>
<event>
 7    1  0.2653124E-010  0.4778728E+02  0.7816164E-02  0.1312668E+00
        -11   -1    0    0    0    0  0.00000000000E+00  0.00000000000E+00  0.45593999997E+02  0.45594000000E+02  0.51100000000E-03 0.  1.
         11   -1    0    0    0    0 -0.00000000000E+00 -0.00000000000E+00 -0.45593999997E+02  0.45594000000E+02  0.51100000000E-03 0. -1.
    9900012    2    1    2    0    0  0.15282263854E+02 -0.40615356838E+02  0.68397193684E+00  0.47787278609E+02  0.20000034491E+02 0.  0.
         12    1    1    2    0    0 -0.15282263854E+02  0.40615356838E+02 -0.68397193684E+00  0.43400721391E+02  0.00000000000E+00 0. -1.
         11    1    3    3    0    0  0.32546612019E+01 -0.27199042909E+02  0.20199676936E+01  0.27467453912E+02  0.51100000000E-03 0. -1.
        -11    1    3    3    0    0  0.12236975122E+01 -0.20284672386E+01  0.31988427103E+01  0.39805414061E+01  0.51100000000E-03 0.  1.
        -12    1    3    3    0    0  0.10803905140E+02 -0.11387846691E+02 -0.45348384670E+01  0.16339283291E+02  0.00000000000E+00 0.  1.
</event>
<event>
 7    1  0.2653124E-010  0.4778727E+02  0.7816164E-02  0.1312668E+00
        -11   -1    0    0    0    0  0.00000000000E+00  0.00000000000E+00  0.45593999997E+02  0.45594000000E+02  0.51100000000E-03 0. -1.
         11   -1    0    0    0    0 -0.00000000000E+00 -0.00000000000E+00 -0.45593999997E+02  0.45594000000E+02  0.51100000000E-03 0.  1.
    9900012    2    1    2    0    0  0.18359191559E+01  0.31315775186E+02 -0.29992914711E+02  0.47787270657E+02  0.19999998236E+02 0.  0.
         12    1    1    2    0    0 -0.18359191559E+01 -0.31315775186E+02  0.29992914711E+02  0.43400729343E+02  0.00000000000E+00 0. -1.
         11    1    3    3    0    0  0.23427450496E+01 -0.76213496645E+00 -0.37986973534E+01  0.45276269632E+01  0.51100000000E-03 0. -1.
        -11    1    3    3    0    0 -0.91545830158E+00  0.11110768390E+01 -0.62732639444E+01  0.64363340824E+01  0.51100000000E-03 0.  1.
        -12    1    3    3    0    0  0.40863240789E+00  0.30966833313E+02 -0.19920953413E+02  0.36823309612E+02  0.00000000000E+00 0.  1.
</event>
<event>
 7    1  0.2653124E-010  0.4778727E+02  0.7816164E-02  0.1312668E+00
        -11   -1    0    0    0    0  0.00000000000E+00  0.00000000000E+00  0.45593999997E+02  0.45594000000E+02  0.51100000000E-03 0. -1.
         11   -1    0    0    0    0 -0.00000000000E+00 -0.00000000000E+00 -0.45593999997E+02  0.45594000000E+02  0.51100000000E-03 0.  1.
    9900012    2    1    2    0    0  0.26229808722E+00  0.25153838476E+02 -0.35367203013E+02  0.47787269139E+02  0.19999991310E+02 0.  0.
         12    1    1    2    0    0 -0.26229808722E+00 -0.25153838476E+02  0.35367203013E+02  0.43400730861E+02  0.00000000000E+00 0. -1.
         11    1    3    3    0    0 -0.26799547240E+01  0.47047808790E+01 -0.10559527492E+01  0.55165348646E+01  0.51100000000E-03 0. -1.
        -11    1    3    3    0    0 -0.43429050321E+01  0.30151601174E+01 -0.11451024400E+02  0.12612611733E+02  0.51100000000E-03 0.  1.
         12    1    3    3    0    0  0.72851578433E+01  0.17433897479E+02 -0.22860225864E+02  0.29658122541E+02  0.00000000000E+00 0. -1.
</event>
<event>
 7    1  0.2653124E-010  0.4778727E+02  0.7816164E-02  0.1312668E+00
        -11   -1    0    0    0    0  0.00000000000E+00  0.00000000000E+00  0.45593999997E+02  0.45594000000E+02  0.51100000000E-03 0.  1.
         11   -1    0    0    0    0 -0.00000000000E+00 -0.00000000000E+00 -0.45593999997E+02  0.45594000000E+02  0.51100000000E-03 0. -1.
    9900012    2    1    2    0    0  0.29712983865E+02  0.12934401274E+02  0.28869762294E+02  0.47787270497E+02  0.19999997503E+02 0.  0.
         12    1    1    2    0    0 -0.29712983865E+02 -0.12934401274E+02 -0.28869762294E+02  0.43400729503E+02  0.00000000000E+00 0. -1.
         11    1    3    3    0    0  0.25861879854E+01 -0.19716427268E+01  0.73583392420E+01  0.80449300804E+01  0.51100000000E-03 0. -1.
        -11    1    3    3    0    0  0.12987033536E+02  0.10643862127E+02  0.17891619722E+02  0.24537010771E+02  0.51100000000E-03 0.  1.
        -12    1    3    3    0    0  0.14139762344E+02  0.42621818744E+01  0.36198033302E+01  0.15205329645E+02  0.00000000000E+00 0.  1.
</event>
<event>
 7    1 -0.1435421E-009  0.4778729E+02  0.7816164E-02  0.1312668E+00
        -11   -1    0    0    0    0  0.00000000000E+00  0.00000000000E+00  0.45593999997E+02  0.45594000000E+02  0.51100000000E-03 0.  1.
         11   -1    0    0    0    0 -0.00000000000E+00 -0.00000000000E+00 -0.45593999997E+02  0.45594000000E+02  0.51100000000E-03 0. -1.
    9900012    2    1    2    0    0  0.17911589761E+02 -0.95762651961E+01  0.38354814354E+02  0.47787289326E+02  0.20000083352E+02 0.  0.
         12    1    1    2    0    0 -0.17911589761E+02  0.95762651961E+01 -0.38354814354E+02  0.43400710674E+02  0.00000000000E+00 0. -1.
         11    1    3    3    0    0  0.33209064078E+01  0.18079145357E+01  0.20112352232E+01  0.42827609929E+01  0.51100000000E-03 0. -1.
        -11    1    3    3    0    0  0.15687668428E+02 -0.10458968806E+02  0.21518345777E+02  0.28610001301E+02  0.51100000000E-03 0.  1.
        -12    1    3    3    0    0 -0.10969850751E+01 -0.92521092584E+00  0.14825233354E+02  0.14894527032E+02  0.00000000000E+00 0.  1.
</event>
<event>
 7    1  0.2982684E-010  0.4778727E+02  0.7816164E-02  0.1312668E+00
        -11   -1    0    0    0    0  0.00000000000E+00  0.00000000000E+00  0.45593999997E+02  0.45594000000E+02  0.51100000000E-03 0.  1.
         11   -1    0    0    0    0 -0.00000000000E+00 -0.00000000000E+00 -0.45593999997E+02  0.45594000000E+02  0.51100000000E-03 0. -1.
    9900012    2    1    2    0    0 -0.23424850815E+02  0.35418457530E+02 -0.89684422775E+01  0.47787265831E+02  0.19999976230E+02 0.  0.
         12    1    1    2    0    0  0.23424850815E+02 -0.35418457530E+02  0.89684422775E+01  0.43400734169E+02  0.00000000000E+00 0. -1.
         11    1    3    3    0    0 -0.24848876284E+01  0.11301607469E+02  0.14397319682E+01  0.11660781548E+02  0.51100000000E-03 0. -1.
        -11    1    3    3    0    0 -0.15525468318E+02  0.24006525470E+02 -0.61649912409E+01  0.29246547640E+02  0.51100000000E-03 0.  1.
         12    1    3    3    0    0 -0.54144948686E+01  0.11032459149E+00 -0.42431830048E+01  0.68799366428E+01  0.00000000000E+00 0. -1.
</event>
<event>
 7    1  0.2653124E-010  0.4778729E+02  0.7816164E-02  0.1312668E+00
        -11   -1    0    0    0    0  0.00000000000E+00  0.00000000000E+00  0.45593999997E+02  0.45594000000E+02  0.51100000000E-03 0.  1.
         11   -1    0    0    0    0 -0.00000000000E+00 -0.00000000000E+00 -0.45593999997E+02  0.45594000000E+02  0.51100000000E-03 0. -1.
    9900012    2    1    2    0    0  0.10458258052E+02  0.47649855800E+00  0.42119111032E+02  0.47787288871E+02  0.20000081278E+02 0.  0.
         12    1    1    2    0    0 -0.10458258052E+02 -0.47649855800E+00 -0.42119111032E+02  0.43400711129E+02  0.00000000000E+00 0. -1.
         11    1    3    3    0    0  0.17890067608E+01  0.10655415680E+01  0.11939185125E+02  0.12119408638E+02  0.51100000000E-03 0. -1.
        -11    1    3    3    0    0  0.13083564340E+02 -0.22861217696E+01  0.26616652833E+02  0.29746465620E+02  0.51100000000E-03 0.  1.
         12    1    3    3    0    0 -0.44143130497E+01  0.16970787596E+01  0.35632730747E+01  0.59214146132E+01  0.00000000000E+00 0. -1.
</event>
<event>
 7    1  0.2653124E-010  0.4778728E+02  0.7816164E-02  0.1312668E+00
        -11   -1    0    0    0    0  0.00000000000E+00  0.00000000000E+00  0.45593999997E+02  0.45594000000E+02  0.51100000000E-03 0.  1.
         11   -1    0    0    0    0 -0.00000000000E+00 -0.00000000000E+00 -0.45593999997E+02  0.45594000000E+02  0.51100000000E-03 0. -1.
    9900012    2    1    2    0    0 -0.39875034278E+01 -0.39743557041E+02  0.16975641893E+02  0.47787275034E+02  0.20000018192E+02 0.  0.
         12    1    1    2    0    0  0.39875034278E+01  0.39743557041E+02 -0.16975641893E+02  0.43400724966E+02  0.00000000000E+00 0. -1.
         11    1    3    3    0    0 -0.11359634023E+01  0.11313237920E+01  0.30825272940E+00  0.16325827330E+01  0.51100000000E-03 0. -1.
        -11    1    3    3    0    0 -0.46911365695E+00 -0.94888907287E+01  0.10352689586E+02  0.14051238266E+02  0.51100000000E-03 0.  1.
        -12    1    3    3    0    0 -0.23824263685E+01 -0.31385990104E+02  0.63146995769E+01  0.32103454035E+02  0.00000000000E+00 0.  1.
</event>
<event>
 7    1  0.2653124E-010  0.4778727E+02  0.7816164E-02  0.1312668E+00
        -11   -1    0    0    0    0  0.00000000000E+00  0.00000000000E+00  0.45593999997E+02  0.45594000000E+02  0.51100000000E-03 0.  1.
         11   -1    0    0    0    0 -0.00000000000E+00 -0.00000000000E+00 -0.45593999997E+02  0.45594000000E+02  0.51100000000E-03 0. -1.
    9900012    2    1    2    0    0 -0.16908814616E+01 -0.13167699853E+02  0.41320410416E+02  0.47787265945E+02  0.19999976749E+02 0.  0.
         12    1    1    2    0    0  0.16908814616E+01  0.13167699853E+02 -0.41320410416E+02  0.43400734055E+02  0.00000000000E+00 0. -1.
         11    1    3    3    0    0  0.42895628644E+00  0.99622378922E+00 -0.37030175363E+00  0.11461190967E+01  0.51100000000E-03 0. -1.
        -11    1    3    3    0    0 -0.30040639831E+01 -0.97367035481E+01  0.88641575404E+01  0.13505594602E+02  0.51100000000E-03 0.  1.
        -12    1    3    3    0    0  0.88422623500E+00 -0.44272200945E+01  0.32826554630E+02  0.33135552246E+02  0.00000000000E+00 0.  1.
</event>
<event>
 7    1  0.2653124E-010  0.4778727E+02  0.7816164E-02  0.1312668E+00
        -11   -1    0    0    0    0  0.00000000000E+00  0.00000000000E+00  0.45593999997E+02  0.45594000000E+02  0.51100000000E-03 0. -1.
         11   -1    0    0    0    0 -0.00000000000E+00 -0.00000000000E+00 -0.45593999997E+02  0.45594000000E+02  0.51100000000E-03 0.  1.
    9900012    2    1    2    0    0 -0.20090915837E+02  0.95618077940E+00 -0.38458598177E+02  0.47787274722E+02  0.20000016769E+02 0.  0.
         12    1    1    2    0    0  0.20090915837E+02 -0.95618077940E+00  0.38458598177E+02  0.43400725278E+02  0.00000000000E+00 0. -1.
         11    1    3    3    0    0 -0.13504632294E+02  0.34500237113E+01 -0.17876683300E+02  0.22668338340E+02  0.51100000000E-03 0. -1.
        -11    1    3    3    0    0 -0.37643489428E+01  0.33609510547E+01 -0.19915317128E+01  0.54251740782E+01  0.51100000000E-03 0.  1.
        -12    1    3    3    0    0 -0.28219346008E+01 -0.58547939867E+01 -0.18590383164E+02  0.19693762305E+02  0.00000000000E+00 0.  1.
</event>
<event>
 7    1  0.2653124E-010  0.4778727E+02  0.7816164E-02  0.1312668E+00
        -11   -1    0    0    0    0  0.00000000000E+00  0.00000000000E+00  0.45593999997E+02  0.45594000000E+02  0.51100000000E-03 0. -1.
         11   -1    0    0    0    0 -0.00000000000E+00 -0.00000000000E+00 -0.45593999997E+02  0.45594000000E+02  0.51100000000E-03 0.  1.
    9900012    2    1    2    0    0 -0.21805251851E+02  0.36066166479E+02 -0.10362718626E+02  0.47787270627E+02  0.19999998096E+02 0.  0.
         12    1    1    2    0    0  0.21805251851E+02 -0.36066166479E+02  0.10362718626E+02  0.43400729373E+02  0.00000000000E+00 0. -1.
         11    1    3    3    0    0 -0.13344759752E+02  0.95766205104E+01 -0.16029902279E+01  0.16503449675E+02  0.51100000000E-03 0. -1.
        -11    1    3    3    0    0 -0.33627144030E+01  0.82128356627E+01  0.25001435947E+01  0.92200453380E+01  0.51100000000E-03 0.  1.
         12    1    3    3    0    0 -0.50977776958E+01  0.18276710306E+02 -0.11259871993E+02  0.22063775614E+02  0.00000000000E+00 0. -1.
</event>
<event>
 7    1  0.2653124E-010  0.4778727E+02  0.7816164E-02  0.1312668E+00
        -11   -1    0    0    0    0  0.00000000000E+00  0.00000000000E+00  0.45593999997E+02  0.45594000000E+02  0.51100000000E-03 0. -1.
         11   -1    0    0    0    0 -0.00000000000E+00 -0.00000000000E+00 -0.45593999997E+02  0.45594000000E+02  0.51100000000E-03 0.  1.
    9900012    2    1    2    0    0 -0.57434067320E+01  0.35854430838E+02 -0.23771751110E+02  0.47787273250E+02  0.20000010054E+02 0.  0.
         12    1    1    2    0    0  0.57434067320E+01 -0.35854430838E+02  0.23771751110E+02  0.43400726750E+02  0.00000000000E+00 0. -1.
         11    1    3    3    0    0 -0.10446363314E+00  0.16869082083E+02 -0.60618131031E+01  0.17925468511E+02  0.51100000000E-03 0.  1.
        -11    1    3    3    0    0 -0.32655131278E+00  0.76605602826E+01 -0.15312930617E+02  0.17125322302E+02  0.51100000000E-03 0. -1.
         12    1    3    3    0    0 -0.53123917861E+01  0.11324788473E+02 -0.23970073899E+01  0.12736482437E+02  0.00000000000E+00 0. -1.
</event>
<event>
 7    1  0.2653124E-010  0.4778728E+02  0.7816164E-02  0.1312668E+00
        -11   -1    0    0    0    0  0.00000000000E+00  0.00000000000E+00  0.45593999997E+02  0.45594000000E+02  0.51100000000E-03 0. -1.
         11   -1    0    0    0    0 -0.00000000000E+00 -0.00000000000E+00 -0.45593999997E+02  0.45594000000E+02  0.51100000000E-03 0.  1.
    9900012    2    1    2    0    0  0.37716116613E+02  0.67056482217E+01 -0.20399791802E+02  0.47787277933E+02  0.20000031405E+02 0.  0.
         12    1    1    2    0    0 -0.37716116613E+02 -0.67056482217E+01  0.20399791802E+02  0.43400722067E+02  0.00000000000E+00 0. -1.
         11    1    3    3    0    0  0.60058084926E+01 -0.34063479179E+01 -0.20913531762E-01  0.69045911845E+01  0.51100000000E-03 0. -1.
        -11    1    3    3    0    0  0.11490877723E+02 -0.19448881527E+01 -0.45315011776E+01  0.12504293821E+02  0.51100000000E-03 0.  1.
        -12    1    3    3    0    0  0.20219430397E+02  0.12056884292E+02 -0.15847377093E+02  0.28378392927E+02  0.00000000000E+00 0.  1.
</event>
<event>
 7    1  0.2653124E-010  0.4778727E+02  0.7816164E-02  0.1312668E+00
        -11   -1    0    0    0    0  0.00000000000E+00  0.00000000000E+00  0.45593999997E+02  0.45594000000E+02  0.51100000000E-03 0.  1.
         11   -1    0    0    0    0 -0.00000000000E+00 -0.00000000000E+00 -0.45593999997E+02  0.45594000000E+02  0.51100000000E-03 0. -1.
    9900012    2    1    2    0    0  0.29226612681E+02 -0.28911531536E+02  0.13912291176E+02  0.47787269703E+02  0.19999993884E+02 0.  0.
         12    1    1    2    0    0 -0.29226612681E+02  0.28911531536E+02 -0.13912291176E+02  0.43400730297E+02  0.00000000000E+00 0. -1.
         11    1    3    3    0    0 -0.24281123015E+01 -0.38565445161E+01 -0.10469423454E+01  0.46759762071E+01  0.51100000000E-03 0. -1.
        -11    1    3    3    0    0  0.13965151426E+02 -0.12419184408E+02  0.72591152000E+01  0.20048849080E+02  0.51100000000E-03 0.  1.
        -12    1    3    3    0    0  0.17689573556E+02 -0.12635802613E+02  0.77001183211E+01  0.23062444416E+02  0.00000000000E+00 0.  1.
</event>
<event>
 7    1  0.2653124E-010  0.4778727E+02  0.7816164E-02  0.1312668E+00
        -11   -1    0    0    0    0  0.00000000000E+00  0.00000000000E+00  0.45593999997E+02  0.45594000000E+02  0.51100000000E-03 0.  1.
         11   -1    0    0    0    0 -0.00000000000E+00 -0.00000000000E+00 -0.45593999997E+02  0.45594000000E+02  0.51100000000E-03 0. -1.
    9900012    2    1    2    0    0  0.17370834661E+02 -0.18826705914E+01  0.39728241331E+02  0.47787268386E+02  0.19999987879E+02 0.  0.
         12    1    1    2    0    0 -0.17370834661E+02  0.18826705914E+01 -0.39728241331E+02  0.43400731614E+02  0.00000000000E+00 0. -1.
         11    1    3    3    0    0  0.70005631057E+01 -0.68798374517E+00  0.10619740105E+02  0.12738135091E+02  0.51100000000E-03 0. -1.
        -11    1    3    3    0    0  0.46218160551E+01 -0.55892282371E+01  0.28176482989E+01  0.77807324932E+01  0.51100000000E-03 0.  1.
        -12    1    3    3    0    0  0.57484555004E+01  0.43945413909E+01  0.26290852927E+02  0.27268400802E+02  0.00000000000E+00 0.  1.
</event>
<event>
 7    1  0.2653124E-010  0.4778727E+02  0.7816164E-02  0.1312668E+00
        -11   -1    0    0    0    0  0.00000000000E+00  0.00000000000E+00  0.45593999997E+02  0.45594000000E+02  0.51100000000E-03 0.  1.
         11   -1    0    0    0    0 -0.00000000000E+00 -0.00000000000E+00 -0.45593999997E+02  0.45594000000E+02  0.51100000000E-03 0. -1.
    9900012    2    1    2    0    0 -0.16139945365E+01 -0.12423542768E+02  0.41553265559E+02  0.47787271067E+02  0.20000000104E+02 0.  0.
         12    1    1    2    0    0  0.16139945365E+01  0.12423542768E+02 -0.41553265559E+02  0.43400728933E+02  0.00000000000E+00 0. -1.
         11    1    3    3    0    0 -0.63984726862E+01 -0.41126629037E+01  0.20394015771E+02  0.21766265835E+02  0.51100000000E-03 0. -1.
        -11    1    3    3    0    0  0.36679395599E+01 -0.35315881879E+01  0.20435091107E+02  0.21059887098E+02  0.51100000000E-03 0.  1.
         12    1    3    3    0    0  0.11165385898E+01 -0.47792916764E+01  0.72415868085E+00  0.49611181346E+01  0.00000000000E+00 0. -1.
</event>
<event>
 7    1  0.2653124E-010  0.4778731E+02  0.7816164E-02  0.1312668E+00
        -11   -1    0    0    0    0  0.00000000000E+00  0.00000000000E+00  0.45593999997E+02  0.45594000000E+02  0.51100000000E-03 0. -1.
         11   -1    0    0    0    0 -0.00000000000E+00 -0.00000000000E+00 -0.45593999997E+02  0.45594000000E+02  0.51100000000E-03 0.  1.
    9900012    2    1    2    0    0 -0.27829955755E+01 -0.99731276915E+01 -0.42147501208E+02  0.47787306475E+02  0.20000161543E+02 0.  0.
         12    1    1    2    0    0  0.27829955755E+01  0.99731276915E+01  0.42147501208E+02  0.43400693525E+02  0.00000000000E+00 0. -1.
         11    1    3    3    0    0  0.22485784734E+00  0.22232840558E+01 -0.10944066374E+02  0.11169876548E+02  0.51100000000E-03 0. -1.
        -11    1    3    3    0    0 -0.35704916481E+01 -0.15278306253E+02 -0.28235347719E+02  0.32301856195E+02  0.51100000000E-03 0.  1.
         12    1    3    3    0    0  0.56263822524E+00  0.30818945055E+01 -0.29680871152E+01  0.43155737323E+01  0.00000000000E+00 0. -1.
</event>
<event>
 7    1  0.2653124E-010  0.4778727E+02  0.7816164E-02  0.1312668E+00
        -11   -1    0    0    0    0  0.00000000000E+00  0.00000000000E+00  0.45593999997E+02  0.45594000000E+02  0.51100000000E-03 0.  1.
         11   -1    0    0    0    0 -0.00000000000E+00 -0.00000000000E+00 -0.45593999997E+02  0.45594000000E+02  0.51100000000E-03 0. -1.
    9900012    2    1    2    0    0 -0.75891890669E+01  0.17120752742E+02  0.39152360228E+02  0.47787271014E+02  0.19999999860E+02 0.  0.
         12    1    1    2    0    0  0.75891890669E+01 -0.17120752742E+02 -0.39152360228E+02  0.43400728986E+02  0.00000000000E+00 0. -1.
         11    1    3    3    0    0  0.12245503775E+01  0.10546251453E+02  0.32281221572E+02  0.33982351445E+02  0.51100000000E-03 0. -1.
        -11    1    3    3    0    0 -0.52374696402E+01  0.26748011531E+01  0.60729891411E+01  0.84538066461E+01  0.51100000000E-03 0.  1.
         12    1    3    3    0    0 -0.35762698042E+01  0.38997001353E+01  0.79814951503E+00  0.53511129222E+01  0.00000000000E+00 0. -1.
</event>
<event>
 7    1  0.2653124E-010  0.4778727E+02  0.7816164E-02  0.1312668E+00
        -11   -1    0    0    0    0  0.00000000000E+00  0.00000000000E+00  0.45593999997E+02  0.45594000000E+02  0.51100000000E-03 0.  1.
         11   -1    0    0    0    0 -0.00000000000E+00 -0.00000000000E+00 -0.45593999997E+02  0.45594000000E+02  0.51100000000E-03 0. -1.
    9900012    2    1    2    0    0 -0.74084055743E+01  0.36523508631E+02  0.22243473015E+02  0.47787271346E+02  0.20000001377E+02 0.  0.
         12    1    1    2    0    0  0.74084055743E+01 -0.36523508631E+02 -0.22243473015E+02  0.43400728654E+02  0.00000000000E+00 0. -1.
         11    1    3    3    0    0 -0.28824034165E+01  0.17512903147E+01  0.18572804690E+00  0.33778339791E+01  0.51100000000E-03 0. -1.
        -11    1    3    3    0    0 -0.10070576528E+02  0.16620655726E+02  0.12988294680E+02  0.23374312980E+02  0.51100000000E-03 0.  1.
         12    1    3    3    0    0  0.55445743702E+01  0.18151562591E+02  0.90694502888E+01  0.21035124387E+02  0.00000000000E+00 0. -1.
</event>
<event>
 7    1  0.2653124E-010  0.4778727E+02  0.7816164E-02  0.1312668E+00
        -11   -1    0    0    0    0  0.00000000000E+00  0.00000000000E+00  0.45593999997E+02  0.45594000000E+02  0.51100000000E-03 0.  1.
         11   -1    0    0    0    0 -0.00000000000E+00 -0.00000000000E+00 -0.45593999997E+02  0.45594000000E+02  0.51100000000E-03 0. -1.
    9900012    2    1    2    0    0 -0.36221746899E+02 -0.93865089936E+01  0.21988668516E+02  0.47787273709E+02  0.20000012149E+02 0.  0.
         12    1    1    2    0    0  0.36221746899E+02  0.93865089936E+01 -0.21988668516E+02  0.43400726291E+02  0.00000000000E+00 0. -1.
         11    1    3    3    0    0 -0.78842071179E+01 -0.17203925357E+01  0.14626571603E+02  0.16705001331E+02  0.51100000000E-03 0. -1.
        -11    1    3    3    0    0 -0.14546475854E+02 -0.33751489636E+01  0.73393973027E+01  0.16639060771E+02  0.51100000000E-03 0.  1.
         12    1    3    3    0    0 -0.13791063926E+02 -0.42909674943E+01  0.22699610798E-01  0.14443211607E+02  0.00000000000E+00 0. -1.
</event>
<event>
 7    1  0.2653124E-010  0.4778727E+02  0.7816164E-02  0.1312668E+00
        -11   -1    0    0    0    0  0.00000000000E+00  0.00000000000E+00  0.45593999997E+02  0.45594000000E+02  0.51100000000E-03 0.  1.
         11   -1    0    0    0    0 -0.00000000000E+00 -0.00000000000E+00 -0.45593999997E+02  0.45594000000E+02  0.51100000000E-03 0. -1.
    9900012    2    1    2    0    0 -0.11542866397E+02  0.21043868366E+02  0.36159935351E+02  0.47787273220E+02  0.20000009918E+02 0.  0.
         12    1    1    2    0    0  0.11542866397E+02 -0.21043868366E+02 -0.36159935351E+02  0.43400726780E+02  0.00000000000E+00 0. -1.
         11    1    3    3    0    0 -0.49247426810E+01  0.37528076375E+01  0.13041425078E+01  0.63275148028E+01  0.51100000000E-03 0. -1.
        -11    1    3    3    0    0 -0.12676050948E+01 -0.16352143275E+01  0.74160582544E+01  0.76992641769E+01  0.51100000000E-03 0.  1.
         12    1    3    3    0    0 -0.53505186209E+01  0.18926275056E+02  0.27439734589E+02  0.33760494240E+02  0.00000000000E+00 0. -1.
</event>
<event>
 7    1  0.2653124E-010  0.4778727E+02  0.7816164E-02  0.1312668E+00
        -11   -1    0    0    0    0  0.00000000000E+00  0.00000000000E+00  0.45593999997E+02  0.45594000000E+02  0.51100000000E-03 0.  1.
         11   -1    0    0    0    0 -0.00000000000E+00 -0.00000000000E+00 -0.45593999997E+02  0.45594000000E+02  0.51100000000E-03 0. -1.
    9900012    2    1    2    0    0 -0.15345168023E+02 -0.38682776769E+02  0.12320378359E+02  0.47787272781E+02  0.20000007918E+02 0.  0.
         12    1    1    2    0    0  0.15345168023E+02  0.38682776769E+02 -0.12320378359E+02  0.43400727219E+02  0.00000000000E+00 0. -1.
         11    1    3    3    0    0 -0.15981622464E+02 -0.32539344582E+02  0.13029923028E+02  0.38522721825E+02  0.51100000000E-03 0. -1.
        -11    1    3    3    0    0 -0.26238534531E+00 -0.67410019731E+01  0.14046339030E+01  0.68907873522E+01  0.51100000000E-03 0.  1.
         12    1    3    3    0    0  0.89883978657E+00  0.59756978575E+00 -0.21141785725E+01  0.23737636039E+01  0.00000000000E+00 0. -1.
</event>
<event>
 7    1  0.3219279E-010  0.4778727E+02  0.7816164E-02  0.1312668E+00
        -11   -1    0    0    0    0  0.00000000000E+00  0.00000000000E+00  0.45593999997E+02  0.45594000000E+02  0.51100000000E-03 0. -1.
         11   -1    0    0    0    0 -0.00000000000E+00 -0.00000000000E+00 -0.45593999997E+02  0.45594000000E+02  0.51100000000E-03 0.  1.
    9900012    2    1    2    0    0 -0.27976357655E+02  0.23761550754E+02 -0.23158917025E+02  0.47787270518E+02  0.19999997598E+02 0.  0.
         12    1    1    2    0    0  0.27976357655E+02 -0.23761550754E+02  0.23158917025E+02  0.43400729482E+02  0.00000000000E+00 0. -1.
         11    1    3    3    0    0 -0.92673241304E+01  0.12711156707E+02 -0.36758652439E+01  0.16154528372E+02  0.51100000000E-03 0. -1.
        -11    1    3    3    0    0 -0.13468423652E+02  0.10647422261E+02 -0.78719619681E+01  0.18887398496E+02  0.51100000000E-03 0.  1.
         12    1    3    3    0    0 -0.52406098727E+01  0.40297178566E+00 -0.11611089813E+02  0.12745343649E+02  0.00000000000E+00 0. -1.
</event>
<event>
 7    1  0.2653124E-010  0.4778727E+02  0.7816164E-02  0.1312668E+00
        -11   -1    0    0    0    0  0.00000000000E+00  0.00000000000E+00  0.45593999997E+02  0.45594000000E+02  0.51100000000E-03 0.  1.
         11   -1    0    0    0    0 -0.00000000000E+00 -0.00000000000E+00 -0.45593999997E+02  0.45594000000E+02  0.51100000000E-03 0. -1.
    9900012    2    1    2    0    0 -0.31731174363E+02  0.28990544973E+02  0.60252903911E+01  0.47787271336E+02  0.20000001330E+02 0.  0.
         12    1    1    2    0    0  0.31731174363E+02 -0.28990544973E+02 -0.60252903911E+01  0.43400728664E+02  0.00000000000E+00 0. -1.
         11    1    3    3    0    0 -0.53821401548E+00  0.63097061015E+00  0.26676620385E+01  0.27936032736E+01  0.51100000000E-03 0. -1.
        -11    1    3    3    0    0 -0.63234678938E+01 -0.89222133178E+00  0.14666110382E+01  0.65523471602E+01  0.51100000000E-03 0.  1.
        -12    1    3    3    0    0 -0.24869492453E+02  0.29251795694E+02  0.18910173144E+01  0.38441320902E+02  0.00000000000E+00 0.  1.
</event>
<event>
 7    1  0.2653124E-010  0.4778727E+02  0.7816164E-02  0.1312668E+00
        -11   -1    0    0    0    0  0.00000000000E+00  0.00000000000E+00  0.45593999997E+02  0.45594000000E+02  0.51100000000E-03 0. -1.
         11   -1    0    0    0    0 -0.00000000000E+00 -0.00000000000E+00 -0.45593999997E+02  0.45594000000E+02  0.51100000000E-03 0.  1.
    9900012    2    1    2    0    0  0.38141448010E+02 -0.10384022455E+02 -0.17917181482E+02  0.47787269927E+02  0.19999994904E+02 0.  0.
         12    1    1    2    0    0 -0.38141448010E+02  0.10384022455E+02  0.17917181482E+02  0.43400730073E+02  0.00000000000E+00 0. -1.
         11    1    3    3    0    0  0.17422796491E+01 -0.51191245707E+01 -0.32752642146E+01  0.63220511452E+01  0.51100000000E-03 0. -1.
        -11    1    3    3    0    0  0.69576904662E+01 -0.51035709955E+01 -0.68294009078E+01  0.11004390512E+02  0.51100000000E-03 0.  1.
        -12    1    3    3    0    0  0.29441477894E+02 -0.16132688900E+00 -0.78125163599E+01  0.30460828269E+02  0.00000000000E+00 0.  1.
</event>
<event>
 7    1  0.2653124E-010  0.4778727E+02  0.7816164E-02  0.1312668E+00
        -11   -1    0    0    0    0  0.00000000000E+00  0.00000000000E+00  0.45593999997E+02  0.45594000000E+02  0.51100000000E-03 0.  1.
         11   -1    0    0    0    0 -0.00000000000E+00 -0.00000000000E+00 -0.45593999997E+02  0.45594000000E+02  0.51100000000E-03 0. -1.
    9900012    2    1    2    0    0 -0.30537305989E+02 -0.27199188167E+02  0.14536185701E+02  0.47787267417E+02  0.19999983460E+02 0.  0.
         12    1    1    2    0    0  0.30537305989E+02  0.27199188167E+02 -0.14536185701E+02  0.43400732583E+02  0.00000000000E+00 0. -1.
         11    1    3    3    0    0  0.94240058140E+00 -0.18356514962E+01  0.22819550917E+01  0.30765328818E+01  0.51100000000E-03 0. -1.
        -11    1    3    3    0    0 -0.19868833533E+02 -0.20198425179E+02  0.14465451300E+02  0.31811887829E+02  0.51100000000E-03 0.  1.
        -12    1    3    3    0    0 -0.11610873037E+02 -0.51651114926E+01 -0.22112206901E+01  0.12898846706E+02  0.00000000000E+00 0.  1.
</event>
<event>
 7    1  0.2653124E-010  0.4778729E+02  0.7816164E-02  0.1312668E+00
        -11   -1    0    0    0    0  0.00000000000E+00  0.00000000000E+00  0.45593999997E+02  0.45594000000E+02  0.51100000000E-03 0.  1.
         11   -1    0    0    0    0 -0.00000000000E+00 -0.00000000000E+00 -0.45593999997E+02  0.45594000000E+02  0.51100000000E-03 0. -1.
    9900012    2    1    2    0    0 -0.15115919414E+02 -0.21894860417E+01  0.40624333918E+02  0.47787292919E+02  0.20000099733E+02 0.  0.
         12    1    1    2    0    0  0.15115919414E+02  0.21894860417E+01 -0.40624333918E+02  0.43400707081E+02  0.00000000000E+00 0. -1.
         11    1    3    3    0    0 -0.30694606304E+01  0.48157259676E+00 -0.74482594992E+00  0.31950378221E+01  0.51100000000E-03 0. -1.
        -11    1    3    3    0    0 -0.13557879282E+02 -0.32894863505E+01  0.29748615936E+02  0.32857525187E+02  0.51100000000E-03 0.  1.
         12    1    3    3    0    0  0.15114204985E+01  0.61842771207E+00  0.11620543933E+02  0.11734729909E+02  0.00000000000E+00 0. -1.
</event>
<event>
 7    1  0.2653124E-010  0.4778727E+02  0.7816164E-02  0.1312668E+00
        -11   -1    0    0    0    0  0.00000000000E+00  0.00000000000E+00  0.45593999997E+02  0.45594000000E+02  0.51100000000E-03 0.  1.
         11   -1    0    0    0    0 -0.00000000000E+00 -0.00000000000E+00 -0.45593999997E+02  0.45594000000E+02  0.51100000000E-03 0. -1.
    9900012    2    1    2    0    0 -0.13455007374E+02  0.23719851644E+02  0.33763212310E+02  0.47787273152E+02  0.20000009607E+02 0.  0.
         12    1    1    2    0    0  0.13455007374E+02 -0.23719851644E+02 -0.33763212310E+02  0.43400726848E+02  0.00000000000E+00 0. -1.
         11    1    3    3    0    0 -0.43701407890E+00  0.32596314811E+01  0.82464872644E+01  0.88781040296E+01  0.51100000000E-03 0. -1.
        -11    1    3    3    0    0  0.31172274625E+00  0.14179902785E+02  0.91107562176E+01  0.16857422495E+02  0.51100000000E-03 0.  1.
         12    1    3    3    0    0 -0.13329716041E+02  0.62803173787E+01  0.16405968828E+02  0.22051746627E+02  0.00000000000E+00 0. -1.
</event>
<event>
 7    1  0.2653124E-010  0.4778727E+02  0.7816164E-02  0.1312668E+00
        -11   -1    0    0    0    0  0.00000000000E+00  0.00000000000E+00  0.45593999997E+02  0.45594000000E+02  0.51100000000E-03 0.  1.
         11   -1    0    0    0    0 -0.00000000000E+00 -0.00000000000E+00 -0.45593999997E+02  0.45594000000E+02  0.51100000000E-03 0. -1.
    9900012    2    1    2    0    0  0.38837475612E+02  0.28451135562E+01  0.19161920571E+02  0.47787269787E+02  0.19999994266E+02 0.  0.
         12    1    1    2    0    0 -0.38837475612E+02 -0.28451135562E+01 -0.19161920571E+02  0.43400730213E+02  0.00000000000E+00 0. -1.
         11    1    3    3    0    0  0.78310003566E+01 -0.16080671928E+01 -0.31305421798E+01  0.85854959835E+01  0.51100000000E-03 0. -1.
        -11    1    3    3    0    0  0.11887633106E+02  0.35812338001E+01  0.49213110483E+01  0.13355162264E+02  0.51100000000E-03 0.  1.
        -12    1    3    3    0    0  0.19118842149E+02  0.87194694890E+00  0.17371151702E+02  0.25846611539E+02  0.00000000000E+00 0.  1.
</event>
<event>
 7    1  0.2653124E-010  0.4778727E+02  0.7816164E-02  0.1312668E+00
        -11   -1    0    0    0    0  0.00000000000E+00  0.00000000000E+00  0.45593999997E+02  0.45594000000E+02  0.51100000000E-03 0.  1.
         11   -1    0    0    0    0 -0.00000000000E+00 -0.00000000000E+00 -0.45593999997E+02  0.45594000000E+02  0.51100000000E-03 0. -1.
    9900012    2    1    2    0    0 -0.44737812511E+01  0.23408047758E+02  0.36272190844E+02  0.47787271352E+02  0.20000001403E+02 0.  0.
         12    1    1    2    0    0  0.44737812511E+01 -0.23408047758E+02 -0.36272190844E+02  0.43400728648E+02  0.00000000000E+00 0. -1.
         11    1    3    3    0    0  0.48402593860E+01  0.46909580617E+01  0.72247114564E+01  0.98807719511E+01  0.51100000000E-03 0. -1.
        -11    1    3    3    0    0  0.24420295267E+01  0.60486293352E+01  0.11841062268E+02  0.13518882385E+02  0.51100000000E-03 0.  1.
        -12    1    3    3    0    0 -0.11756070164E+02  0.12668460361E+02  0.17206417119E+02  0.24387617016E+02  0.00000000000E+00 0.  1.
</event>
<event>
 7    1  0.2653124E-010  0.4778724E+02  0.7816164E-02  0.1312668E+00
        -11   -1    0    0    0    0  0.00000000000E+00  0.00000000000E+00  0.45593999997E+02  0.45594000000E+02  0.51100000000E-03 0.  1.
         11   -1    0    0    0    0 -0.00000000000E+00 -0.00000000000E+00 -0.45593999997E+02  0.45594000000E+02  0.51100000000E-03 0. -1.
    9900012    2    1    2    0    0  0.29837622600E+02  0.29484653890E+02  0.11135402110E+02  0.47787242892E+02  0.19999871640E+02 0.  0.
         12    1    1    2    0    0 -0.29837622600E+02 -0.29484653890E+02 -0.11135402110E+02  0.43400757108E+02  0.00000000000E+00 0. -1.
         11    1    3    3    0    0  0.29283871162E+01  0.50522308138E+00 -0.14343656255E+01  0.32997130895E+01  0.51100000000E-03 0. -1.
        -11    1    3    3    0    0  0.24859690940E+02  0.30444474871E+02  0.13834592953E+02  0.41668528246E+02  0.51100000000E-03 0.  1.
        -12    1    3    3    0    0  0.20495445438E+01 -0.14650440626E+01 -0.12648252167E+01  0.28190015557E+01  0.00000000000E+00 0.  1.
</event>
<event>
 7    1  0.2653124E-010  0.4778727E+02  0.7816164E-02  0.1312668E+00
        -11   -1    0    0    0    0  0.00000000000E+00  0.00000000000E+00  0.45593999997E+02  0.45594000000E+02  0.51100000000E-03 0.  1.
         11   -1    0    0    0    0 -0.00000000000E+00 -0.00000000000E+00 -0.45593999997E+02  0.45594000000E+02  0.51100000000E-03 0. -1.
    9900012    2    1    2    0    0 -0.55877572049E+01 -0.35202348059E+02  0.24762773115E+02  0.47787271069E+02  0.20000000111E+02 0.  0.
         12    1    1    2    0    0  0.55877572049E+01  0.35202348059E+02 -0.24762773115E+02  0.43400728931E+02  0.00000000000E+00 0. -1.
         11    1    3    3    0    0 -0.81026396710E+01 -0.86974499023E+01  0.73699550970E+01  0.13986230473E+02  0.51100000000E-03 0. -1.
        -11    1    3    3    0    0 -0.33018660067E+00 -0.34818622894E+01  0.80779851350E+01  0.88026264431E+01  0.51100000000E-03 0.  1.
         12    1    3    3    0    0  0.28450690668E+01 -0.23023035867E+02  0.93148328831E+01  0.24998414153E+02  0.00000000000E+00 0. -1.
</event>
<event>
 7    1  0.2653124E-010  0.4778727E+02  0.7816164E-02  0.1312668E+00
        -11   -1    0    0    0    0  0.00000000000E+00  0.00000000000E+00  0.45593999997E+02  0.45594000000E+02  0.51100000000E-03 0.  1.
         11   -1    0    0    0    0 -0.00000000000E+00 -0.00000000000E+00 -0.45593999997E+02  0.45594000000E+02  0.51100000000E-03 0. -1.
    9900012    2    1    2    0    0  0.42811537088E+02  0.15990551663E+01  0.69454022112E+01  0.47787270777E+02  0.19999998779E+02 0.  0.
         12    1    1    2    0    0 -0.42811537088E+02 -0.15990551663E+01 -0.69454022112E+01  0.43400729223E+02  0.00000000000E+00 0. -1.
         11    1    3    3    0    0  0.15778662892E+02  0.17954295486E+01 -0.52291393217E+00  0.15889090885E+02  0.51100000000E-03 0. -1.
        -11    1    3    3    0    0  0.23121519361E+02  0.29007903780E+00 -0.36820502828E+00  0.23126270313E+02  0.51100000000E-03 0.  1.
         12    1    3    3    0    0  0.39113548357E+01 -0.48645342007E+00  0.78365211716E+01  0.87719095786E+01  0.00000000000E+00 0. -1.
</event>
<event>
 7    1  0.2653124E-010  0.4778727E+02  0.7816164E-02  0.1312668E+00
        -11   -1    0    0    0    0  0.00000000000E+00  0.00000000000E+00  0.45593999997E+02  0.45594000000E+02  0.51100000000E-03 0.  1.
         11   -1    0    0    0    0 -0.00000000000E+00 -0.00000000000E+00 -0.45593999997E+02  0.45594000000E+02  0.51100000000E-03 0. -1.
    9900012    2    1    2    0    0  0.28186247768E+02 -0.85143931388E+01  0.31885174304E+02  0.47787265051E+02  0.19999972672E+02 0.  0.
         12    1    1    2    0    0 -0.28186247768E+02  0.85143931388E+01 -0.31885174304E+02  0.43400734949E+02  0.00000000000E+00 0. -1.
         11    1    3    3    0    0 -0.13991783795E+01 -0.29324220173E+01  0.72402886553E+01  0.79359044285E+01  0.51100000000E-03 0. -1.
        -11    1    3    3    0    0  0.10666873409E+02 -0.43624230066E+01  0.13915038060E+02  0.18067684060E+02  0.51100000000E-03 0.  1.
         12    1    3    3    0    0  0.18918552738E+02 -0.12195481150E+01  0.10729847589E+02  0.21783676563E+02  0.00000000000E+00 0. -1.
</event>
<event>
 7    1  0.2653124E-010  0.4778726E+02  0.7816164E-02  0.1312668E+00
        -11   -1    0    0    0    0  0.00000000000E+00  0.00000000000E+00  0.45593999997E+02  0.45594000000E+02  0.51100000000E-03 0.  1.
         11   -1    0    0    0    0 -0.00000000000E+00 -0.00000000000E+00 -0.45593999997E+02  0.45594000000E+02  0.51100000000E-03 0. -1.
    9900012    2    1    2    0    0 -0.10498756004E+02 -0.50659285916E+01  0.41805938144E+02  0.47787262976E+02  0.19999963214E+02 0.  0.
         12    1    1    2    0    0  0.10498756004E+02  0.50659285916E+01 -0.41805938144E+02  0.43400737024E+02  0.00000000000E+00 0. -1.
         11    1    3    3    0    0 -0.27007624460E+01 -0.93515448887E+00 -0.30673247987E+00  0.28744941787E+01  0.51100000000E-03 0. -1.
        -11    1    3    3    0    0 -0.67499946800E+01  0.19305425451E+01  0.10013098208E+02  0.12229127471E+02  0.51100000000E-03 0.  1.
        -12    1    3    3    0    0 -0.10479988781E+01 -0.60613166479E+01  0.32099572415E+02  0.32683641327E+02  0.00000000000E+00 0.  1.
</event>
<event>
 7    1  0.2653124E-010  0.4778727E+02  0.7816164E-02  0.1312668E+00
        -11   -1    0    0    0    0  0.00000000000E+00  0.00000000000E+00  0.45593999997E+02  0.45594000000E+02  0.51100000000E-03 0.  1.
         11   -1    0    0    0    0 -0.00000000000E+00 -0.00000000000E+00 -0.45593999997E+02  0.45594000000E+02  0.51100000000E-03 0. -1.
    9900012    2    1    2    0    0  0.30498052422E+02 -0.18992009205E+02  0.24347397087E+02  0.47787270051E+02  0.19999995469E+02 0.  0.
         12    1    1    2    0    0 -0.30498052422E+02  0.18992009205E+02 -0.24347397087E+02  0.43400729949E+02  0.00000000000E+00 0. -1.
         11    1    3    3    0    0  0.16350177112E+02 -0.40113856160E+01  0.22528804865E+01  0.16985139884E+02  0.51100000000E-03 0. -1.
        -11    1    3    3    0    0  0.29340478915E+01 -0.11366261065E+01  0.12612454095E+01  0.33898814404E+01  0.51100000000E-03 0.  1.
        -12    1    3    3    0    0  0.11213827419E+02 -0.13843997483E+02  0.20833271191E+02  0.27412248726E+02  0.00000000000E+00 0.  1.
</event>
<event>
 7    1  0.2653124E-010  0.4778727E+02  0.7816164E-02  0.1312668E+00
        -11   -1    0    0    0    0  0.00000000000E+00  0.00000000000E+00  0.45593999997E+02  0.45594000000E+02  0.51100000000E-03 0.  1.
         11   -1    0    0    0    0 -0.00000000000E+00 -0.00000000000E+00 -0.45593999997E+02  0.45594000000E+02  0.51100000000E-03 0. -1.
    9900012    2    1    2    0    0  0.14865770247E+02 -0.18185845507E+02  0.36495304022E+02  0.47787270542E+02  0.19999997711E+02 0.  0.
         12    1    1    2    0    0 -0.14865770247E+02  0.18185845507E+02 -0.36495304022E+02  0.43400729458E+02  0.00000000000E+00 0. -1.
         11    1    3    3    0    0  0.70025398508E+01 -0.46060128041E+01  0.43881086501E+01  0.94607830596E+01  0.51100000000E-03 0. -1.
        -11    1    3    3    0    0 -0.74926931962E-01 -0.59405677811E+01  0.20027907523E+01  0.62695399086E+01  0.51100000000E-03 0.  1.
        -12    1    3    3    0    0  0.79381573277E+01 -0.76392649214E+01  0.30104404619E+02  0.32056947574E+02  0.00000000000E+00 0.  1.
</event>
<event>
 7    1  0.2653124E-010  0.4778728E+02  0.7816164E-02  0.1312668E+00
        -11   -1    0    0    0    0  0.00000000000E+00  0.00000000000E+00  0.45593999997E+02  0.45594000000E+02  0.51100000000E-03 0.  1.
         11   -1    0    0    0    0 -0.00000000000E+00 -0.00000000000E+00 -0.45593999997E+02  0.45594000000E+02  0.51100000000E-03 0. -1.
    9900012    2    1    2    0    0  0.77497092813E+01  0.20132329223E+02  0.37659709050E+02  0.47787281577E+02  0.20000048021E+02 0.  0.
         12    1    1    2    0    0 -0.77497092813E+01 -0.20132329223E+02 -0.37659709050E+02  0.43400718423E+02  0.00000000000E+00 0. -1.
         11    1    3    3    0    0  0.55160626353E+00  0.70437227931E+01  0.42916957430E+01  0.82666167728E+01  0.51100000000E-03 0. -1.
        -11    1    3    3    0    0  0.25436441864E+01  0.15397808380E+01 -0.86240816333E+00  0.30959326345E+01  0.51100000000E-03 0.  1.
        -12    1    3    3    0    0  0.46544588314E+01  0.11548825592E+02  0.34230421471E+02  0.36424732170E+02  0.00000000000E+00 0.  1.
</event>
<event>
 7    1  0.2653124E-010  0.4778727E+02  0.7816164E-02  0.1312668E+00
        -11   -1    0    0    0    0  0.00000000000E+00  0.00000000000E+00  0.45593999997E+02  0.45594000000E+02  0.51100000000E-03 0.  1.
         11   -1    0    0    0    0 -0.00000000000E+00 -0.00000000000E+00 -0.45593999997E+02  0.45594000000E+02  0.51100000000E-03 0. -1.
    9900012    2    1    2    0    0  0.17835815136E+02 -0.36171933599E+02  0.16034275654E+02  0.47787273305E+02  0.20000010308E+02 0.  0.
         12    1    1    2    0    0 -0.17835815136E+02  0.36171933599E+02 -0.16034275654E+02  0.43400726695E+02  0.00000000000E+00 0. -1.
         11    1    3    3    0    0  0.40112822288E+01  0.14651605166E-01  0.18080470540E+01  0.43999584316E+01  0.51100000000E-03 0. -1.
        -11    1    3    3    0    0  0.15046961065E+02 -0.22387108769E+02  0.11202228784E+02  0.29207595011E+02  0.51100000000E-03 0.  1.
        -12    1    3    3    0    0 -0.12224281578E+01 -0.13799476436E+02  0.30239998159E+01  0.14179719863E+02  0.00000000000E+00 0.  1.
</event>
<event>
 7    1  0.2653124E-010  0.4778728E+02  0.7816164E-02  0.1312668E+00
        -11   -1    0    0    0    0  0.00000000000E+00  0.00000000000E+00  0.45593999997E+02  0.45594000000E+02  0.51100000000E-03 0. -1.
         11   -1    0    0    0    0 -0.00000000000E+00 -0.00000000000E+00 -0.45593999997E+02  0.45594000000E+02  0.51100000000E-03 0.  1.
    9900012    2    1    2    0    0  0.27423889013E+02  0.24810025609E+02 -0.22715981507E+02  0.47787275638E+02  0.20000020943E+02 0.  0.
         12    1    1    2    0    0 -0.27423889013E+02 -0.24810025609E+02  0.22715981507E+02  0.43400724362E+02  0.00000000000E+00 0. -1.
         11    1    3    3    0    0  0.13113701573E+01  0.66660331023E+01 -0.99647413338E+00  0.68664874550E+01  0.51100000000E-03 0. -1.
        -11    1    3    3    0    0  0.53913633338E+01  0.77102230947E+01 -0.13192504297E+02  0.16203595547E+02  0.51100000000E-03 0.  1.
        -12    1    3    3    0    0  0.20721155522E+02  0.10433769412E+02 -0.85270030762E+01  0.24717192635E+02  0.00000000000E+00 0.  1.
</event>
<event>
 7    1  0.2653124E-010  0.4778727E+02  0.7816164E-02  0.1312668E+00
        -11   -1    0    0    0    0  0.00000000000E+00  0.00000000000E+00  0.45593999997E+02  0.45594000000E+02  0.51100000000E-03 0.  1.
         11   -1    0    0    0    0 -0.00000000000E+00 -0.00000000000E+00 -0.45593999997E+02  0.45594000000E+02  0.51100000000E-03 0. -1.
    9900012    2    1    2    0    0 -0.66678725194E+01  0.21526215982E+02  0.37091573566E+02  0.47787270420E+02  0.19999997154E+02 0.  0.
         12    1    1    2    0    0  0.66678725194E+01 -0.21526215982E+02 -0.37091573566E+02  0.43400729580E+02  0.00000000000E+00 0. -1.
         11    1    3    3    0    0 -0.72037823349E+00  0.10326190687E+02  0.83187675667E+01  0.13279723378E+02  0.51100000000E-03 0. -1.
        -11    1    3    3    0    0  0.17793487557E+00  0.11154519448E+02  0.10830755753E+02  0.15548640950E+02  0.51100000000E-03 0.  1.
         12    1    3    3    0    0 -0.61254291615E+01  0.45505847226E-01  0.17942050246E+02  0.18958906092E+02  0.00000000000E+00 0. -1.
</event>
<event>
 7    1  0.2653124E-010  0.4778727E+02  0.7816164E-02  0.1312668E+00
        -11   -1    0    0    0    0  0.00000000000E+00  0.00000000000E+00  0.45593999997E+02  0.45594000000E+02  0.51100000000E-03 0.  1.
         11   -1    0    0    0    0 -0.00000000000E+00 -0.00000000000E+00 -0.45593999997E+02  0.45594000000E+02  0.51100000000E-03 0. -1.
    9900012    2    1    2    0    0 -0.28804800930E+02  0.20964282055E+02  0.24787208873E+02  0.47787269564E+02  0.19999993249E+02 0.  0.
         12    1    1    2    0    0  0.28804800930E+02 -0.20964282055E+02 -0.24787208873E+02  0.43400730436E+02  0.00000000000E+00 0. -1.
         11    1    3    3    0    0 -0.74644875260E+01 -0.40434367405E-01  0.51433831292E+01  0.90650206420E+01  0.51100000000E-03 0. -1.
        -11    1    3    3    0    0 -0.10229338826E+02  0.73731530592E+00  0.61385013744E+01  0.11952581565E+02  0.51100000000E-03 0.  1.
        -12    1    3    3    0    0 -0.11110974578E+02  0.20267401116E+02  0.13505324370E+02  0.26769667357E+02  0.00000000000E+00 0.  1.
</event>
<event>
 7    1  0.2653124E-010  0.4778725E+02  0.7816164E-02  0.1312668E+00
        -11   -1    0    0    0    0  0.00000000000E+00  0.00000000000E+00  0.45593999997E+02  0.45594000000E+02  0.51100000000E-03 0. -1.
         11   -1    0    0    0    0 -0.00000000000E+00 -0.00000000000E+00 -0.45593999997E+02  0.45594000000E+02  0.51100000000E-03 0.  1.
    9900012    2    1    2    0    0 -0.32267927198E+02  0.13420640857E+02 -0.25735034736E+02  0.47787254159E+02  0.19999923015E+02 0.  0.
         12    1    1    2    0    0  0.32267927198E+02 -0.13420640857E+02  0.25735034736E+02  0.43400745841E+02  0.00000000000E+00 0. -1.
         11    1    3    3    0    0 -0.15797100499E+02  0.61425810357E+01 -0.69766479010E+01  0.18329028947E+02  0.51100000000E-03 0. -1.
        -11    1    3    3    0    0 -0.18676264323E+02  0.80642658487E+01 -0.17259307903E+02  0.26678061067E+02  0.51100000000E-03 0.  1.
        -12    1    3    3    0    0  0.22054376239E+01 -0.78620602788E+00 -0.14990789322E+01  0.27801641455E+01  0.00000000000E+00 0.  1.
</event>
<event>
 7    1  0.2653124E-010  0.4778727E+02  0.7816164E-02  0.1312668E+00
        -11   -1    0    0    0    0  0.00000000000E+00  0.00000000000E+00  0.45593999997E+02  0.45594000000E+02  0.51100000000E-03 0.  1.
         11   -1    0    0    0    0 -0.00000000000E+00 -0.00000000000E+00 -0.45593999997E+02  0.45594000000E+02  0.51100000000E-03 0. -1.
    9900012    2    1    2    0    0  0.40270456167E+02  0.54480081040E+00  0.16174565010E+02  0.47787274187E+02  0.20000014328E+02 0.  0.
         12    1    1    2    0    0 -0.40270456167E+02 -0.54480081040E+00 -0.16174565010E+02  0.43400725813E+02  0.00000000000E+00 0. -1.
         11    1    3    3    0    0  0.27653323861E+02  0.28446242053E+01  0.11472002632E+02  0.30073327918E+02  0.51100000000E-03 0. -1.
        -11    1    3    3    0    0  0.89734096696E+01 -0.11723425488E+01  0.84394941180E+01  0.12374228436E+02  0.51100000000E-03 0.  1.
        -12    1    3    3    0    0  0.36437226364E+01 -0.11274808461E+01 -0.37369317396E+01  0.53397178330E+01  0.00000000000E+00 0.  1.
</event>
<event>
 7    1  0.2653124E-010  0.4778726E+02  0.7816164E-02  0.1312668E+00
        -11   -1    0    0    0    0  0.00000000000E+00  0.00000000000E+00  0.45593999997E+02  0.45594000000E+02  0.51100000000E-03 0.  1.
         11   -1    0    0    0    0 -0.00000000000E+00 -0.00000000000E+00 -0.45593999997E+02  0.45594000000E+02  0.51100000000E-03 0. -1.
    9900012    2    1    2    0    0  0.74996262625E+01  0.37085007978E+02  0.21262210324E+02  0.47787264998E+02  0.19999972434E+02 0.  0.
         12    1    1    2    0    0 -0.74996262625E+01 -0.37085007978E+02 -0.21262210324E+02  0.43400735002E+02  0.00000000000E+00 0. -1.
         11    1    3    3    0    0  0.53197782585E-01 -0.42365574015E+00  0.43151899625E+01  0.43362632374E+01  0.51100000000E-03 0. -1.
        -11    1    3    3    0    0 -0.31401710268E+01  0.63180055060E+01  0.34652130101E+01  0.78603797057E+01  0.51100000000E-03 0.  1.
        -12    1    3    3    0    0  0.10586599507E+02  0.31190658212E+02  0.13481807351E+02  0.35590622055E+02  0.00000000000E+00 0.  1.
</event>
<event>
 7    1  0.3883372E-010  0.4778727E+02  0.7816164E-02  0.1312668E+00
        -11   -1    0    0    0    0  0.00000000000E+00  0.00000000000E+00  0.45593999997E+02  0.45594000000E+02  0.51100000000E-03 0. -1.
         11   -1    0    0    0    0 -0.00000000000E+00 -0.00000000000E+00 -0.45593999997E+02  0.45594000000E+02  0.51100000000E-03 0.  1.
    9900012    2    1    2    0    0 -0.36643429351E+02  0.73158201515E+00 -0.23245367869E+02  0.47787271272E+02  0.20000001036E+02 0.  0.
         12    1    1    2    0    0  0.36643429351E+02 -0.73158201515E+00  0.23245367869E+02  0.43400728728E+02  0.00000000000E+00 0. -1.
         11    1    3    3    0    0 -0.14627283743E+02  0.31381330240E+01 -0.35090045105E+01  0.15366145303E+02  0.51100000000E-03 0. -1.
        -11    1    3    3    0    0 -0.19936441263E+02 -0.39339083782E+01 -0.10583968867E+02  0.22911955888E+02  0.51100000000E-03 0.  1.
         12    1    3    3    0    0 -0.20797043445E+01  0.15273573694E+01 -0.91523944913E+01  0.95091700804E+01  0.00000000000E+00 0. -1.
</event>
<event>
 7    1  0.2653124E-010  0.4778728E+02  0.7816164E-02  0.1312668E+00
        -11   -1    0    0    0    0  0.00000000000E+00  0.00000000000E+00  0.45593999997E+02  0.45594000000E+02  0.51100000000E-03 0.  1.
         11   -1    0    0    0    0 -0.00000000000E+00 -0.00000000000E+00 -0.45593999997E+02  0.45594000000E+02  0.51100000000E-03 0. -1.
    9900012    2    1    2    0    0 -0.69738544271E+01 -0.22106601515E+02  0.36691775117E+02  0.47787276073E+02  0.20000022929E+02 0.  0.
         12    1    1    2    0    0  0.69738544271E+01  0.22106601515E+02 -0.36691775117E+02  0.43400723927E+02  0.00000000000E+00 0. -1.
         11    1    3    3    0    0 -0.64230570159E+01 -0.25068139701E+02  0.28254753228E+02  0.38314466847E+02  0.51100000000E-03 0. -1.
        -11    1    3    3    0    0 -0.86870350603E+00 -0.37875719603E+00  0.16935090252E+01  0.19406380070E+01  0.51100000000E-03 0.  1.
         12    1    3    3    0    0  0.31790609485E+00  0.33402953828E+01  0.67435128643E+01  0.75321712195E+01  0.00000000000E+00 0. -1.
</event>
<event>
 7    1  0.2653124E-010  0.4778727E+02  0.7816164E-02  0.1312668E+00
        -11   -1    0    0    0    0  0.00000000000E+00  0.00000000000E+00  0.45593999997E+02  0.45594000000E+02  0.51100000000E-03 0.  1.
         11   -1    0    0    0    0 -0.00000000000E+00 -0.00000000000E+00 -0.45593999997E+02  0.45594000000E+02  0.51100000000E-03 0. -1.
    9900012    2    1    2    0    0  0.32570118616E+02 -0.28334593631E+02  0.44678102299E+01  0.47787272458E+02  0.20000006445E+02 0.  0.
         12    1    1    2    0    0 -0.32570118616E+02  0.28334593631E+02 -0.44678102299E+01  0.43400727542E+02  0.00000000000E+00 0. -1.
         11    1    3    3    0    0  0.24355422462E+01  0.16685707333E+01  0.28548057110E+01  0.41068126611E+01  0.51100000000E-03 0. -1.
        -11    1    3    3    0    0  0.12951143682E+02 -0.65309329510E+01 -0.50699408006E+00  0.14513519599E+02  0.51100000000E-03 0.  1.
         12    1    3    3    0    0  0.17183432688E+02 -0.23472231414E+02  0.21199985990E+01  0.29166940198E+02  0.00000000000E+00 0. -1.
</event>
<event>
 7    1  0.2653124E-010  0.4778727E+02  0.7816164E-02  0.1312668E+00
        -11   -1    0    0    0    0  0.00000000000E+00  0.00000000000E+00  0.45593999997E+02  0.45594000000E+02  0.51100000000E-03 0. -1.
         11   -1    0    0    0    0 -0.00000000000E+00 -0.00000000000E+00 -0.45593999997E+02  0.45594000000E+02  0.51100000000E-03 0.  1.
    9900012    2    1    2    0    0 -0.12676134049E+02  0.20080406828E+02 -0.36327899937E+02  0.47787269284E+02  0.19999991975E+02 0.  0.
         12    1    1    2    0    0  0.12676134049E+02 -0.20080406828E+02  0.36327899937E+02  0.43400730716E+02  0.00000000000E+00 0. -1.
         11    1    3    3    0    0  0.13169355809E+01  0.81555645417E+01 -0.85856374728E+01  0.11914727164E+02  0.51100000000E-03 0. -1.
        -11    1    3    3    0    0 -0.72104044483E+01  0.11557989861E+02 -0.10072131717E+02  0.16941809216E+02  0.51100000000E-03 0.  1.
         12    1    3    3    0    0 -0.67826651815E+01  0.36685242571E+00 -0.17670130747E+02  0.18930732904E+02  0.00000000000E+00 0. -1.
</event>
<event>
 7    1  0.2653124E-010  0.4778727E+02  0.7816164E-02  0.1312668E+00
        -11   -1    0    0    0    0  0.00000000000E+00  0.00000000000E+00  0.45593999997E+02  0.45594000000E+02  0.51100000000E-03 0.  1.
         11   -1    0    0    0    0 -0.00000000000E+00 -0.00000000000E+00 -0.45593999997E+02  0.45594000000E+02  0.51100000000E-03 0. -1.
    9900012    2    1    2    0    0 -0.37095525881E+02  0.67640145257E+01  0.21489381650E+02  0.47787268940E+02  0.19999990403E+02 0.  0.
         12    1    1    2    0    0  0.37095525881E+02 -0.67640145257E+01 -0.21489381650E+02  0.43400731060E+02  0.00000000000E+00 0. -1.
         11    1    3    3    0    0 -0.11786798638E+02  0.68681446170E+01  0.33674168412E+01  0.14051317698E+02  0.51100000000E-03 0. -1.
        -11    1    3    3    0    0 -0.18506948306E+02  0.21596362094E+01  0.58600576399E+01  0.19532317834E+02  0.51100000000E-03 0.  1.
        -12    1    3    3    0    0 -0.68017789372E+01 -0.22637663006E+01  0.12261907168E+02  0.14203633408E+02  0.00000000000E+00 0.  1.
</event>
<event>
 7    1  0.2653124E-010  0.4778726E+02  0.7816164E-02  0.1312668E+00
        -11   -1    0    0    0    0  0.00000000000E+00  0.00000000000E+00  0.45593999997E+02  0.45594000000E+02  0.51100000000E-03 0. -1.
         11   -1    0    0    0    0 -0.00000000000E+00 -0.00000000000E+00 -0.45593999997E+02  0.45594000000E+02  0.51100000000E-03 0.  1.
    9900012    2    1    2    0    0  0.74353688799E+01 -0.22037230189E+02 -0.36642865290E+02  0.47787264966E+02  0.19999972287E+02 0.  0.
         12    1    1    2    0    0 -0.74353688799E+01  0.22037230189E+02  0.36642865290E+02  0.43400735034E+02  0.00000000000E+00 0. -1.
         11    1    3    3    0    0 -0.28481586979E+01 -0.59998668719E+01 -0.18237868169E+02  0.19409540078E+02  0.51100000000E-03 0. -1.
        -11    1    3    3    0    0  0.52898134290E+01 -0.88757958830E+01 -0.16457862292E+02  0.19432527117E+02  0.51100000000E-03 0.  1.
        -12    1    3    3    0    0  0.49937141488E+01 -0.71615674343E+01 -0.19471348296E+01  0.89451977709E+01  0.00000000000E+00 0.  1.
</event>
<event>
 7    1  0.2653124E-010  0.4778727E+02  0.7816164E-02  0.1312668E+00
        -11   -1    0    0    0    0  0.00000000000E+00  0.00000000000E+00  0.45593999997E+02  0.45594000000E+02  0.51100000000E-03 0.  1.
         11   -1    0    0    0    0 -0.00000000000E+00 -0.00000000000E+00 -0.45593999997E+02  0.45594000000E+02  0.51100000000E-03 0. -1.
    9900012    2    1    2    0    0 -0.19206131863E+02  0.36358192979E+02  0.13886321077E+02  0.47787267162E+02  0.19999982299E+02 0.  0.
         12    1    1    2    0    0  0.19206131863E+02 -0.36358192979E+02 -0.13886321077E+02  0.43400732838E+02  0.00000000000E+00 0. -1.
         11    1    3    3    0    0 -0.11396651312E+02  0.43518875585E+01  0.37317138672E+01  0.12757283217E+02  0.51100000000E-03 0. -1.
        -11    1    3    3    0    0 -0.64625338832E+01  0.13484816431E+02  0.47221180429E+01  0.15681295145E+02  0.51100000000E-03 0.  1.
         12    1    3    3    0    0 -0.13469466682E+01  0.18521488990E+02  0.54324891666E+01  0.19348688800E+02  0.00000000000E+00 0. -1.
</event>
<event>
 7    1  0.2653124E-010  0.4778728E+02  0.7816164E-02  0.1312668E+00
        -11   -1    0    0    0    0  0.00000000000E+00  0.00000000000E+00  0.45593999997E+02  0.45594000000E+02  0.51100000000E-03 0. -1.
         11   -1    0    0    0    0 -0.00000000000E+00 -0.00000000000E+00 -0.45593999997E+02  0.45594000000E+02  0.51100000000E-03 0.  1.
    9900012    2    1    2    0    0 -0.24401329773E+02 -0.13474349230E+02 -0.33266195143E+02  0.47787277412E+02  0.20000029034E+02 0.  0.
         12    1    1    2    0    0  0.24401329773E+02  0.13474349230E+02  0.33266195143E+02  0.43400722588E+02  0.00000000000E+00 0. -1.
         11    1    3    3    0    0 -0.82069877025E+01 -0.96731148946E+01 -0.10637675451E+02  0.16555480609E+02  0.51100000000E-03 0. -1.
        -11    1    3    3    0    0 -0.25927268914E+01 -0.32228850228E+01 -0.15138657570E+02  0.15693571101E+02  0.51100000000E-03 0.  1.
        -12    1    3    3    0    0 -0.13601615179E+02 -0.57834931306E+00 -0.74898621210E+01  0.15538225703E+02  0.00000000000E+00 0.  1.
</event>
<event>
 7    1  0.2653124E-010  0.4778727E+02  0.7816164E-02  0.1312668E+00
        -11   -1    0    0    0    0  0.00000000000E+00  0.00000000000E+00  0.45593999997E+02  0.45594000000E+02  0.51100000000E-03 0.  1.
         11   -1    0    0    0    0 -0.00000000000E+00 -0.00000000000E+00 -0.45593999997E+02  0.45594000000E+02  0.51100000000E-03 0. -1.
    9900012    2    1    2    0    0 -0.19998216498E+02  0.25353008972E+02  0.28998614706E+02  0.47787269800E+02  0.19999994326E+02 0.  0.
         12    1    1    2    0    0  0.19998216498E+02 -0.25353008972E+02 -0.28998614706E+02  0.43400730200E+02  0.00000000000E+00 0. -1.
         11    1    3    3    0    0 -0.22699739947E+00  0.49124546246E+01 -0.55653880539E+00  0.49490881949E+01  0.51100000000E-03 0. -1.
        -11    1    3    3    0    0 -0.72078631602E+01  0.51643908006E+01  0.22961257756E+01  0.91594987590E+01  0.51100000000E-03 0.  1.
        -12    1    3    3    0    0 -0.12563355938E+02  0.15276163547E+02  0.27259027736E+02  0.33678682846E+02  0.00000000000E+00 0.  1.
</event>
<event>
 7    1  0.2653124E-010  0.4778729E+02  0.7816164E-02  0.1312668E+00
        -11   -1    0    0    0    0  0.00000000000E+00  0.00000000000E+00  0.45593999997E+02  0.45594000000E+02  0.51100000000E-03 0. -1.
         11   -1    0    0    0    0 -0.00000000000E+00 -0.00000000000E+00 -0.45593999997E+02  0.45594000000E+02  0.51100000000E-03 0.  1.
    9900012    2    1    2    0    0  0.13983627584E+02  0.13834988710E+02 -0.38686859425E+02  0.47787287504E+02  0.20000075044E+02 0.  0.
         12    1    1    2    0    0 -0.13983627584E+02 -0.13834988710E+02  0.38686859425E+02  0.43400712496E+02  0.00000000000E+00 0. -1.
         11    1    3    3    0    0 -0.11009083880E+01  0.18922727405E+01  0.53470482364E+00  0.22535760277E+01  0.51100000000E-03 0. -1.
        -11    1    3    3    0    0  0.63152360311E+01  0.31904796756E+01 -0.38499977824E+01  0.80550512025E+01  0.51100000000E-03 0.  1.
        -12    1    3    3    0    0  0.87692999405E+01  0.87522362941E+01 -0.35371566466E+02  0.37478660273E+02  0.00000000000E+00 0.  1.
</event>
<event>
 7    1  0.2653124E-010  0.4778727E+02  0.7816164E-02  0.1312668E+00
        -11   -1    0    0    0    0  0.00000000000E+00  0.00000000000E+00  0.45593999997E+02  0.45594000000E+02  0.51100000000E-03 0. -1.
         11   -1    0    0    0    0 -0.00000000000E+00 -0.00000000000E+00 -0.45593999997E+02  0.45594000000E+02  0.51100000000E-03 0.  1.
    9900012    2    1    2    0    0 -0.30583029863E+02 -0.30048510475E+02 -0.67370920197E+01  0.47787272976E+02  0.20000008805E+02 0.  0.
         12    1    1    2    0    0  0.30583029863E+02  0.30048510475E+02  0.67370920197E+01  0.43400727024E+02  0.00000000000E+00 0. -1.
         11    1    3    3    0    0 -0.33759978875E+01 -0.63859053219E+01 -0.36602447051E+01  0.80978108201E+01  0.51100000000E-03 0. -1.
        -11    1    3    3    0    0 -0.10950464331E+02 -0.18060020502E+02  0.32467511483E+01  0.21368631283E+02  0.51100000000E-03 0.  1.
         12    1    3    3    0    0 -0.16256567644E+02 -0.56025846509E+01 -0.63235984630E+01  0.18320830873E+02  0.00000000000E+00 0. -1.
</event>
<event>
 7    1  0.2653124E-010  0.4778728E+02  0.7816164E-02  0.1312668E+00
        -11   -1    0    0    0    0  0.00000000000E+00  0.00000000000E+00  0.45593999997E+02  0.45594000000E+02  0.51100000000E-03 0.  1.
         11   -1    0    0    0    0 -0.00000000000E+00 -0.00000000000E+00 -0.45593999997E+02  0.45594000000E+02  0.51100000000E-03 0. -1.
    9900012    2    1    2    0    0  0.42214609616E+02 -0.92992180398E+01 -0.38825498888E+01  0.47787275180E+02  0.20000018858E+02 0.  0.
         12    1    1    2    0    0 -0.42214609616E+02  0.92992180398E+01  0.38825498888E+01  0.43400724820E+02  0.00000000000E+00 0. -1.
         11    1    3    3    0    0  0.51249577315E+00  0.21828388112E+01 -0.29499375049E+00  0.22615169173E+01  0.51100000000E-03 0. -1.
        -11    1    3    3    0    0  0.11263838785E+02 -0.12858050021E+01  0.48559862774E+01  0.12333205652E+02  0.51100000000E-03 0.  1.
         12    1    3    3    0    0  0.30438275058E+02 -0.10196251849E+02 -0.84435424157E+01  0.33192552611E+02  0.00000000000E+00 0. -1.
</event>
<event>
 7    1  0.2653124E-010  0.4778726E+02  0.7816164E-02  0.1312668E+00
        -11   -1    0    0    0    0  0.00000000000E+00  0.00000000000E+00  0.45593999997E+02  0.45594000000E+02  0.51100000000E-03 0.  1.
         11   -1    0    0    0    0 -0.00000000000E+00 -0.00000000000E+00 -0.45593999997E+02  0.45594000000E+02  0.51100000000E-03 0. -1.
    9900012    2    1    2    0    0 -0.36271231508E+02 -0.64774953193E+01  0.22936082503E+02  0.47787261973E+02  0.19999958640E+02 0.  0.
         12    1    1    2    0    0  0.36271231508E+02  0.64774953193E+01 -0.22936082503E+02  0.43400738027E+02  0.00000000000E+00 0. -1.
         11    1    3    3    0    0 -0.38725236524E+00  0.23398489074E+00 -0.19884905357E+01  0.20393156193E+01  0.51100000000E-03 0. -1.
        -11    1    3    3    0    0 -0.81939706889E+01  0.19247553268E+01  0.10182810382E+02  0.13211187163E+02  0.51100000000E-03 0.  1.
         12    1    3    3    0    0 -0.27690008454E+02 -0.86362355369E+01  0.14741762657E+02  0.32536759191E+02  0.00000000000E+00 0. -1.
</event>
<event>
 7    1  0.2653124E-010  0.4778727E+02  0.7816164E-02  0.1312668E+00
        -11   -1    0    0    0    0  0.00000000000E+00  0.00000000000E+00  0.45593999997E+02  0.45594000000E+02  0.51100000000E-03 0.  1.
         11   -1    0    0    0    0 -0.00000000000E+00 -0.00000000000E+00 -0.45593999997E+02  0.45594000000E+02  0.51100000000E-03 0. -1.
    9900012    2    1    2    0    0 -0.18008151805E+02  0.14008821397E+02  0.36919950756E+02  0.47787269912E+02  0.19999994835E+02 0.  0.
         12    1    1    2    0    0  0.18008151805E+02 -0.14008821397E+02 -0.36919950756E+02  0.43400730088E+02  0.00000000000E+00 0. -1.
         11    1    3    3    0    0 -0.95214792332E+01  0.46641949583E+01  0.43608008671E+01  0.11464286540E+02  0.51100000000E-03 0. -1.
        -11    1    3    3    0    0 -0.83369349603E+01  0.26984363543E+01  0.13108574777E+02  0.15767713095E+02  0.51100000000E-03 0.  1.
         12    1    3    3    0    0 -0.14973761191E+00  0.66461900842E+01  0.19450575112E+02  0.20555270277E+02  0.00000000000E+00 0. -1.
</event>
<event>
 7    1  0.2653124E-010  0.4778727E+02  0.7816164E-02  0.1312668E+00
        -11   -1    0    0    0    0  0.00000000000E+00  0.00000000000E+00  0.45593999997E+02  0.45594000000E+02  0.51100000000E-03 0.  1.
         11   -1    0    0    0    0 -0.00000000000E+00 -0.00000000000E+00 -0.45593999997E+02  0.45594000000E+02  0.51100000000E-03 0. -1.
    9900012    2    1    2    0    0 -0.40104973329E+02 -0.20730546039E+00  0.16588297998E+02  0.47787268534E+02  0.19999988554E+02 0.  0.
         12    1    1    2    0    0  0.40104973329E+02  0.20730546039E+00 -0.16588297998E+02  0.43400731466E+02  0.00000000000E+00 0. -1.
         11    1    3    3    0    0 -0.33729148753E+01  0.15106014403E+01  0.24501842738E+01  0.44341712534E+01  0.51100000000E-03 0. -1.
        -11    1    3    3    0    0 -0.29540639439E+02 -0.86169949578E+01  0.85949898035E+01  0.31949582635E+02  0.51100000000E-03 0.  1.
         12    1    3    3    0    0 -0.71914190151E+01  0.68990880571E+01  0.55431239211E+01  0.11403514646E+02  0.00000000000E+00 0. -1.
</event>
<event>
 7    1  0.2653124E-010  0.4778726E+02  0.7816164E-02  0.1312668E+00
        -11   -1    0    0    0    0  0.00000000000E+00  0.00000000000E+00  0.45593999997E+02  0.45594000000E+02  0.51100000000E-03 0.  1.
         11   -1    0    0    0    0 -0.00000000000E+00 -0.00000000000E+00 -0.45593999997E+02  0.45594000000E+02  0.51100000000E-03 0. -1.
    9900012    2    1    2    0    0  0.21473248468E+02 -0.16700418114E+02  0.33817446857E+02  0.47787261793E+02  0.19999957819E+02 0.  0.
         12    1    1    2    0    0 -0.21473248468E+02  0.16700418114E+02 -0.33817446857E+02  0.43400738207E+02  0.00000000000E+00 0. -1.
         11    1    3    3    0    0  0.11323213595E+02 -0.73549407108E+01  0.10473542558E+02  0.17088165875E+02  0.51100000000E-03 0. -1.
        -11    1    3    3    0    0  0.12965933879E+02 -0.10431298700E+02  0.17670452192E+02  0.24272871994E+02  0.51100000000E-03 0.  1.
        -12    1    3    3    0    0 -0.28158990066E+01  0.10858212968E+01  0.56734521079E+01  0.64262239242E+01  0.00000000000E+00 0.  1.
</event>
<event>
 7    1  0.2653124E-010  0.4778727E+02  0.7816164E-02  0.1312668E+00
        -11   -1    0    0    0    0  0.00000000000E+00  0.00000000000E+00  0.45593999997E+02  0.45594000000E+02  0.51100000000E-03 0. -1.
         11   -1    0    0    0    0 -0.00000000000E+00 -0.00000000000E+00 -0.45593999997E+02  0.45594000000E+02  0.51100000000E-03 0.  1.
    9900012    2    1    2    0    0 -0.42509113790E+02  0.41286804422E+01 -0.77170370990E+01  0.47787269373E+02  0.19999992378E+02 0.  0.
         12    1    1    2    0    0  0.42509113790E+02 -0.41286804422E+01  0.77170370990E+01  0.43400730627E+02  0.00000000000E+00 0. -1.
         11    1    3    3    0    0 -0.56259725511E+01  0.11848050741E+01 -0.44730447745E+01  0.72844670378E+01  0.51100000000E-03 0. -1.
        -11    1    3    3    0    0 -0.14717561223E+02 -0.86410946903E+00 -0.90190968387E+01  0.17282864391E+02  0.51100000000E-03 0.  1.
         12    1    3    3    0    0 -0.22165580016E+02  0.38079848371E+01  0.57751045142E+01  0.23219937944E+02  0.00000000000E+00 0. -1.
</event>
<event>
 7    1  0.2653124E-010  0.4778727E+02  0.7816164E-02  0.1312668E+00
        -11   -1    0    0    0    0  0.00000000000E+00  0.00000000000E+00  0.45593999997E+02  0.45594000000E+02  0.51100000000E-03 0.  1.
         11   -1    0    0    0    0 -0.00000000000E+00 -0.00000000000E+00 -0.45593999997E+02  0.45594000000E+02  0.51100000000E-03 0. -1.
    9900012    2    1    2    0    0  0.19489850878E+02 -0.37851681539E+02  0.84273172869E+01  0.47787265453E+02  0.19999974506E+02 0.  0.
         12    1    1    2    0    0 -0.19489850878E+02  0.37851681539E+02 -0.84273172869E+01  0.43400734547E+02  0.00000000000E+00 0. -1.
         11    1    3    3    0    0 -0.19308948920E+00 -0.76623422659E+00  0.36908250646E+01  0.37744653077E+01  0.51100000000E-03 0. -1.
        -11    1    3    3    0    0  0.96444810683E+01 -0.74817562944E+01 -0.93918315819E+00  0.12242334646E+02  0.51100000000E-03 0.  1.
         12    1    3    3    0    0  0.10038459299E+02 -0.29603691018E+02  0.56756753805E+01  0.31770465499E+02  0.00000000000E+00 0. -1.
</event>
<event>
 7    1  0.2653124E-010  0.4778727E+02  0.7816164E-02  0.1312668E+00
        -11   -1    0    0    0    0  0.00000000000E+00  0.00000000000E+00  0.45593999997E+02  0.45594000000E+02  0.51100000000E-03 0. -1.
         11   -1    0    0    0    0 -0.00000000000E+00 -0.00000000000E+00 -0.45593999997E+02  0.45594000000E+02  0.51100000000E-03 0.  1.
    9900012    2    1    2    0    0  0.21547060260E+02 -0.26307348953E+02 -0.26967961144E+02  0.47787270248E+02  0.19999996367E+02 0.  0.
         12    1    1    2    0    0 -0.21547060260E+02  0.26307348953E+02  0.26967961144E+02  0.43400729752E+02  0.00000000000E+00 0. -1.
         11    1    3    3    0    0  0.41687733973E+01 -0.53513189696E+01 -0.51038382940E+00  0.68026302462E+01  0.51100000000E-03 0. -1.
        -11    1    3    3    0    0 -0.20954156795E+01 -0.27578201729E+01 -0.75481884484E+01  0.83049074702E+01  0.51100000000E-03 0.  1.
        -12    1    3    3    0    0  0.19473702543E+02 -0.18198209811E+02 -0.18909388866E+02  0.32679732531E+02  0.00000000000E+00 0.  1.
</event>
<event>
 7    1  0.2653124E-010  0.4778727E+02  0.7816164E-02  0.1312668E+00
        -11   -1    0    0    0    0  0.00000000000E+00  0.00000000000E+00  0.45593999997E+02  0.45594000000E+02  0.51100000000E-03 0.  1.
         11   -1    0    0    0    0 -0.00000000000E+00 -0.00000000000E+00 -0.45593999997E+02  0.45594000000E+02  0.51100000000E-03 0. -1.
    9900012    2    1    2    0    0  0.21739054437E+02 -0.76465720169E+01  0.36777256771E+02  0.47787272276E+02  0.20000005614E+02 0.  0.
         12    1    1    2    0    0 -0.21739054437E+02  0.76465720169E+01 -0.36777256771E+02  0.43400727724E+02  0.00000000000E+00 0. -1.
         11    1    3    3    0    0  0.15024413289E+01  0.20004161181E+01  0.32454216508E+01  0.40977745845E+01  0.51100000000E-03 0. -1.
        -11    1    3    3    0    0  0.36696374745E+01  0.11879330057E+01  0.18327253515E+02  0.18728738497E+02  0.51100000000E-03 0.  1.
         12    1    3    3    0    0  0.16566975634E+02 -0.10834921141E+02  0.15204581604E+02  0.24960759194E+02  0.00000000000E+00 0. -1.
</event>
<event>
 7    1  0.2653124E-010  0.4778727E+02  0.7816164E-02  0.1312668E+00
        -11   -1    0    0    0    0  0.00000000000E+00  0.00000000000E+00  0.45593999997E+02  0.45594000000E+02  0.51100000000E-03 0. -1.
         11   -1    0    0    0    0 -0.00000000000E+00 -0.00000000000E+00 -0.45593999997E+02  0.45594000000E+02  0.51100000000E-03 0.  1.
    9900012    2    1    2    0    0 -0.12776638280E+02 -0.34935885340E+02 -0.22357655622E+02  0.47787270339E+02  0.19999996782E+02 0.  0.
         12    1    1    2    0    0  0.12776638280E+02  0.34935885340E+02  0.22357655622E+02  0.43400729661E+02  0.00000000000E+00 0. -1.
         11    1    3    3    0    0 -0.11260725268E+01 -0.40648615493E+01  0.31427213080E+00  0.42296460826E+01  0.51100000000E-03 0. -1.
        -11    1    3    3    0    0 -0.10228300995E+02 -0.10315531894E+02 -0.16638639306E+02  0.22087839589E+02  0.51100000000E-03 0.  1.
        -12    1    3    3    0    0 -0.14222647586E+01 -0.20555491897E+02 -0.60332884462E+01  0.21469784667E+02  0.00000000000E+00 0.  1.
</event>
<event>
 7    1  0.2653124E-010  0.4778727E+02  0.7816164E-02  0.1312668E+00
        -11   -1    0    0    0    0  0.00000000000E+00  0.00000000000E+00  0.45593999997E+02  0.45594000000E+02  0.51100000000E-03 0.  1.
         11   -1    0    0    0    0 -0.00000000000E+00 -0.00000000000E+00 -0.45593999997E+02  0.45594000000E+02  0.51100000000E-03 0. -1.
    9900012    2    1    2    0    0  0.35656603382E+02  0.17325803030E+02  0.17664839876E+02  0.47787269785E+02  0.19999994258E+02 0.  0.
         12    1    1    2    0    0 -0.35656603382E+02 -0.17325803030E+02 -0.17664839876E+02  0.43400730215E+02  0.00000000000E+00 0. -1.
         11    1    3    3    0    0  0.28310983572E+01  0.53598020715E+01 -0.18385081821E+01  0.63342488703E+01  0.51100000000E-03 0. -1.
        -11    1    3    3    0    0  0.59346936201E+01 -0.17431429538E+01  0.50609124315E+01  0.79919941580E+01  0.51100000000E-03 0.  1.
         12    1    3    3    0    0  0.26890811405E+02  0.13709143912E+02  0.14442435626E+02  0.33461026757E+02  0.00000000000E+00 0. -1.
</event>
<event>
 7    1  0.2653124E-010  0.4778727E+02  0.7816164E-02  0.1312668E+00
        -11   -1    0    0    0    0  0.00000000000E+00  0.00000000000E+00  0.45593999997E+02  0.45594000000E+02  0.51100000000E-03 0.  1.
         11   -1    0    0    0    0 -0.00000000000E+00 -0.00000000000E+00 -0.45593999997E+02  0.45594000000E+02  0.51100000000E-03 0. -1.
    9900012    2    1    2    0    0  0.18896663634E+02  0.37763533038E+02  0.10022744443E+02  0.47787265787E+02  0.19999976030E+02 0.  0.
         12    1    1    2    0    0 -0.18896663634E+02 -0.37763533038E+02 -0.10022744443E+02  0.43400734213E+02  0.00000000000E+00 0. -1.
         11    1    3    3    0    0 -0.13282713864E+01  0.85198740550E+01 -0.48306251351E+00  0.86363133594E+01  0.51100000000E-03 0. -1.
        -11    1    3    3    0    0  0.10835510211E+02  0.21481716778E+02  0.17009228112E+01  0.24119817080E+02  0.51100000000E-03 0.  1.
        -12    1    3    3    0    0  0.93894248092E+01  0.77619422048E+01  0.88048841454E+01  0.15031135348E+02  0.00000000000E+00 0.  1.
</event>
<event>
 7    1  0.2653124E-010  0.4778727E+02  0.7816164E-02  0.1312668E+00
        -11   -1    0    0    0    0  0.00000000000E+00  0.00000000000E+00  0.45593999997E+02  0.45594000000E+02  0.51100000000E-03 0.  1.
         11   -1    0    0    0    0 -0.00000000000E+00 -0.00000000000E+00 -0.45593999997E+02  0.45594000000E+02  0.51100000000E-03 0. -1.
    9900012    2    1    2    0    0  0.15364303001E+02 -0.49093917575E+01  0.40292175429E+02  0.47787270342E+02  0.19999996795E+02 0.  0.
         12    1    1    2    0    0 -0.15364303001E+02  0.49093917575E+01 -0.40292175429E+02  0.43400729658E+02  0.00000000000E+00 0. -1.
         11    1    3    3    0    0  0.62866386593E+01 -0.10695914090E+02  0.24304974869E+02  0.27288389610E+02  0.51100000000E-03 0. -1.
        -11    1    3    3    0    0  0.35366805752E+01  0.41831803604E+00  0.10345216548E+02  0.10941051373E+02  0.51100000000E-03 0.  1.
        -12    1    3    3    0    0  0.55409837660E+01  0.53682042960E+01  0.56419840113E+01  0.95578293583E+01  0.00000000000E+00 0.  1.
</event>
<event>
 7    1  0.2653124E-010  0.4778727E+02  0.7816164E-02  0.1312668E+00
        -11   -1    0    0    0    0  0.00000000000E+00  0.00000000000E+00  0.45593999997E+02  0.45594000000E+02  0.51100000000E-03 0.  1.
         11   -1    0    0    0    0 -0.00000000000E+00 -0.00000000000E+00 -0.45593999997E+02  0.45594000000E+02  0.51100000000E-03 0. -1.
    9900012    2    1    2    0    0 -0.70501748033E+01 -0.18074487604E+02  0.38823077310E+02  0.47787269607E+02  0.19999993444E+02 0.  0.
         12    1    1    2    0    0  0.70501748033E+01  0.18074487604E+02 -0.38823077310E+02  0.43400730393E+02  0.00000000000E+00 0. -1.
         11    1    3    3    0    0 -0.76346111659E+01 -0.43696408559E+01  0.88284096590E+01  0.12462819353E+02  0.51100000000E-03 0. -1.
        -11    1    3    3    0    0 -0.52838427624E+01 -0.59901824796E+01  0.80790614725E+01  0.11361008539E+02  0.51100000000E-03 0.  1.
        -12    1    3    3    0    0  0.58682791250E+01 -0.77146642683E+01  0.21915606178E+02  0.23963441715E+02  0.00000000000E+00 0.  1.
</event>
<event>
 7    1  0.2653124E-010  0.4778727E+02  0.7816164E-02  0.1312668E+00
        -11   -1    0    0    0    0  0.00000000000E+00  0.00000000000E+00  0.45593999997E+02  0.45594000000E+02  0.51100000000E-03 0.  1.
         11   -1    0    0    0    0 -0.00000000000E+00 -0.00000000000E+00 -0.45593999997E+02  0.45594000000E+02  0.51100000000E-03 0. -1.
    9900012    2    1    2    0    0 -0.81605801892E+01 -0.98409333000E+01  0.41475102784E+02  0.47787272032E+02  0.20000004501E+02 0.  0.
         12    1    1    2    0    0  0.81605801892E+01  0.98409333000E+01 -0.41475102784E+02  0.43400727968E+02  0.00000000000E+00 0. -1.
         11    1    3    3    0    0 -0.49341082181E+00 -0.17178237720E+01  0.40412369190E+00  0.18323997845E+01  0.51100000000E-03 0. -1.
        -11    1    3    3    0    0 -0.12754020524E+02 -0.25383598428E+01  0.27607138483E+02  0.30516592301E+02  0.51100000000E-03 0.  1.
        -12    1    3    3    0    0  0.50868511563E+01 -0.55847496851E+01  0.13463840609E+02  0.15438279946E+02  0.00000000000E+00 0.  1.
</event>
<event>
 7    1  0.2653124E-010  0.4778727E+02  0.7816164E-02  0.1312668E+00
        -11   -1    0    0    0    0  0.00000000000E+00  0.00000000000E+00  0.45593999997E+02  0.45594000000E+02  0.51100000000E-03 0.  1.
         11   -1    0    0    0    0 -0.00000000000E+00 -0.00000000000E+00 -0.45593999997E+02  0.45594000000E+02  0.51100000000E-03 0. -1.
    9900012    2    1    2    0    0 -0.19199213859E+02  0.34059879633E+02  0.18839810413E+02  0.47787266483E+02  0.19999979203E+02 0.  0.
         12    1    1    2    0    0  0.19199213859E+02 -0.34059879633E+02 -0.18839810413E+02  0.43400733517E+02  0.00000000000E+00 0. -1.
         11    1    3    3    0    0 -0.30648876351E+01  0.45853041949E+01  0.10183501849E+02  0.11581116567E+02  0.51100000000E-03 0. -1.
        -11    1    3    3    0    0 -0.53477875238E+00  0.98518841457E+01  0.42996612265E+01  0.10762559940E+02  0.51100000000E-03 0.  1.
         12    1    3    3    0    0 -0.15599547471E+02  0.19622691292E+02  0.43566473378E+01  0.25443589976E+02  0.00000000000E+00 0. -1.
</event>
<event>
 7    1  0.2653124E-010  0.4778727E+02  0.7816164E-02  0.1312668E+00
        -11   -1    0    0    0    0  0.00000000000E+00  0.00000000000E+00  0.45593999997E+02  0.45594000000E+02  0.51100000000E-03 0.  1.
         11   -1    0    0    0    0 -0.00000000000E+00 -0.00000000000E+00 -0.45593999997E+02  0.45594000000E+02  0.51100000000E-03 0. -1.
    9900012    2    1    2    0    0  0.12973882923E+02  0.32606975514E+01  0.41287643973E+02  0.47787270382E+02  0.19999996978E+02 0.  0.
         12    1    1    2    0    0 -0.12973882923E+02 -0.32606975514E+01 -0.41287643973E+02  0.43400729618E+02  0.00000000000E+00 0. -1.
         11    1    3    3    0    0  0.42767174456E+00  0.39680955671E+01  0.15236463801E+01  0.42720234203E+01  0.51100000000E-03 0. -1.
        -11    1    3    3    0    0  0.99466064057E+01 -0.77304816210E+00  0.11893888495E+02  0.15524083427E+02  0.51100000000E-03 0.  1.
        -12    1    3    3    0    0  0.25996047724E+01  0.65650146360E-01  0.27870109097E+02  0.27991163534E+02  0.00000000000E+00 0.  1.
</event>
<event>
 7    1  0.2653124E-010  0.4778727E+02  0.7816164E-02  0.1312668E+00
        -11   -1    0    0    0    0  0.00000000000E+00  0.00000000000E+00  0.45593999997E+02  0.45594000000E+02  0.51100000000E-03 0.  1.
         11   -1    0    0    0    0 -0.00000000000E+00 -0.00000000000E+00 -0.45593999997E+02  0.45594000000E+02  0.51100000000E-03 0. -1.
    9900012    2    1    2    0    0 -0.38341354881E+02 -0.19929198717E+02 -0.40485235116E+01  0.47787274220E+02  0.20000014478E+02 0.  0.
         12    1    1    2    0    0  0.38341354881E+02  0.19929198717E+02  0.40485235116E+01  0.43400725780E+02  0.00000000000E+00 0. -1.
         11    1    3    3    0    0 -0.19465741364E+02 -0.17344296032E+02 -0.85842124177E+01  0.27448650145E+02  0.51100000000E-03 0. -1.
        -11    1    3    3    0    0 -0.47776074075E+01  0.21834606898E+00 -0.10860880679E+01  0.49043649027E+01  0.51100000000E-03 0.  1.
         12    1    3    3    0    0 -0.14098006110E+02 -0.28032487539E+01  0.56217769740E+01  0.15434259172E+02  0.00000000000E+00 0. -1.
</event>
<event>
 7    1  0.2761525E-010  0.4778727E+02  0.7816164E-02  0.1312668E+00
        -11   -1    0    0    0    0  0.00000000000E+00  0.00000000000E+00  0.45593999997E+02  0.45594000000E+02  0.51100000000E-03 0. -1.
         11   -1    0    0    0    0 -0.00000000000E+00 -0.00000000000E+00 -0.45593999997E+02  0.45594000000E+02  0.51100000000E-03 0.  1.
    9900012    2    1    2    0    0 -0.10196625749E+02 -0.34347781658E+02 -0.24492486823E+02  0.47787271985E+02  0.20000004288E+02 0.  0.
         12    1    1    2    0    0  0.10196625749E+02  0.34347781658E+02  0.24492486823E+02  0.43400728015E+02  0.00000000000E+00 0. -1.
         11    1    3    3    0    0 -0.25993474783E+01  0.37076238400E+00  0.15436262402E+01  0.30457928835E+01  0.51100000000E-03 0. -1.
        -11    1    3    3    0    0  0.14789936907E+01 -0.86922083099E+01 -0.59927184378E+01  0.10660890309E+02  0.51100000000E-03 0.  1.
         12    1    3    3    0    0 -0.90762719609E+01 -0.26026335732E+02 -0.20043394625E+02  0.34080588793E+02  0.00000000000E+00 0. -1.
</event>
<event>
 7    1  0.2653124E-010  0.4778727E+02  0.7816164E-02  0.1312668E+00
        -11   -1    0    0    0    0  0.00000000000E+00  0.00000000000E+00  0.45593999997E+02  0.45594000000E+02  0.51100000000E-03 0.  1.
         11   -1    0    0    0    0 -0.00000000000E+00 -0.00000000000E+00 -0.45593999997E+02  0.45594000000E+02  0.51100000000E-03 0. -1.
    9900012    2    1    2    0    0  0.43227837871E+02 -0.11372026169E+01  0.36991953680E+01  0.47787271398E+02  0.20000001612E+02 0.  0.
         12    1    1    2    0    0 -0.43227837871E+02  0.11372026169E+01 -0.36991953680E+01  0.43400728602E+02  0.00000000000E+00 0. -1.
         11    1    3    3    0    0 -0.50201197113E+00 -0.56673971779E+00  0.19125178046E+01  0.20569235623E+01  0.51100000000E-03 0. -1.
        -11    1    3    3    0    0  0.11110906256E+02 -0.58827828115E+01 -0.67363323764E+00  0.12590200691E+02  0.51100000000E-03 0.  1.
        -12    1    3    3    0    0  0.32618943587E+02  0.53123199124E+01  0.24603108011E+01  0.33140147145E+02  0.00000000000E+00 0.  1.
</event>
<event>
 7    1  0.2653124E-010  0.4778727E+02  0.7816164E-02  0.1312668E+00
        -11   -1    0    0    0    0  0.00000000000E+00  0.00000000000E+00  0.45593999997E+02  0.45594000000E+02  0.51100000000E-03 0.  1.
         11   -1    0    0    0    0 -0.00000000000E+00 -0.00000000000E+00 -0.45593999997E+02  0.45594000000E+02  0.51100000000E-03 0. -1.
    9900012    2    1    2    0    0 -0.29749920835E+02  0.10479981059E+02  0.29811666113E+02  0.47787271560E+02  0.20000002353E+02 0.  0.
         12    1    1    2    0    0  0.29749920835E+02 -0.10479981059E+02 -0.29811666113E+02  0.43400728440E+02  0.00000000000E+00 0. -1.
         11    1    3    3    0    0 -0.42510480949E+01  0.25809091305E+01 -0.22614078907E+01  0.54631920847E+01  0.51100000000E-03 0.  1.
        -11    1    3    3    0    0 -0.61368246884E+01  0.12483545369E+01  0.12595118890E+02  0.14066130471E+02  0.51100000000E-03 0. -1.
        -12    1    3    3    0    0 -0.19362048052E+02  0.66507173912E+01  0.19477955113E+02  0.28257949005E+02  0.00000000000E+00 0.  1.
</event>
<event>
 7    1  0.2653124E-010  0.4778727E+02  0.7816164E-02  0.1312668E+00
        -11   -1    0    0    0    0  0.00000000000E+00  0.00000000000E+00  0.45593999997E+02  0.45594000000E+02  0.51100000000E-03 0.  1.
         11   -1    0    0    0    0 -0.00000000000E+00 -0.00000000000E+00 -0.45593999997E+02  0.45594000000E+02  0.51100000000E-03 0. -1.
    9900012    2    1    2    0    0  0.21325740747E+02  0.30420247741E+02  0.22437572616E+02  0.47787270100E+02  0.19999995692E+02 0.  0.
         12    1    1    2    0    0 -0.21325740747E+02 -0.30420247741E+02 -0.22437572616E+02  0.43400729900E+02  0.00000000000E+00 0. -1.
         11    1    3    3    0    0  0.63372719043E+01  0.17334525012E+01  0.10119388651E+02  0.12065152287E+02  0.51100000000E-03 0. -1.
        -11    1    3    3    0    0  0.65137819407E+00  0.85691448804E+01  0.50660624685E+01  0.99759474102E+01  0.51100000000E-03 0.  1.
        -12    1    3    3    0    0  0.14337090648E+02  0.20117650359E+02  0.72521214961E+01  0.25746170403E+02  0.00000000000E+00 0.  1.
</event>
<event>
 7    1  0.2653124E-010  0.4778725E+02  0.7816164E-02  0.1312668E+00
        -11   -1    0    0    0    0  0.00000000000E+00  0.00000000000E+00  0.45593999997E+02  0.45594000000E+02  0.51100000000E-03 0.  1.
         11   -1    0    0    0    0 -0.00000000000E+00 -0.00000000000E+00 -0.45593999997E+02  0.45594000000E+02  0.51100000000E-03 0. -1.
    9900012    2    1    2    0    0  0.32864762604E+02 -0.82257639808E+01  0.27126905436E+02  0.47787253317E+02  0.19999919173E+02 0.  0.
         12    1    1    2    0    0 -0.32864762604E+02  0.82257639808E+01 -0.27126905436E+02  0.43400746683E+02  0.00000000000E+00 0. -1.
         11    1    3    3    0    0  0.17738808396E+02 -0.20863862266E+01  0.86764440791E+01  0.19856963840E+02  0.51100000000E-03 0. -1.
        -11    1    3    3    0    0  0.47602077403E+01  0.27782915674E+01  0.74864331255E+00  0.55622791044E+01  0.51100000000E-03 0.  1.
         12    1    3    3    0    0  0.10365746467E+02 -0.89176693215E+01  0.17701818045E+02  0.22368010373E+02  0.00000000000E+00 0. -1.
</event>
<event>
 7    1  0.2653124E-010  0.4778727E+02  0.7816164E-02  0.1312668E+00
        -11   -1    0    0    0    0  0.00000000000E+00  0.00000000000E+00  0.45593999997E+02  0.45594000000E+02  0.51100000000E-03 0.  1.
         11   -1    0    0    0    0 -0.00000000000E+00 -0.00000000000E+00 -0.45593999997E+02  0.45594000000E+02  0.51100000000E-03 0. -1.
    9900012    2    1    2    0    0 -0.25748847056E+02 -0.28183301897E+02  0.20647557861E+02  0.47787271018E+02  0.19999999880E+02 0.  0.
         12    1    1    2    0    0  0.25748847056E+02  0.28183301897E+02 -0.20647557861E+02  0.43400728982E+02  0.00000000000E+00 0. -1.
         11    1    3    3    0    0 -0.17766547556E+02 -0.12578098449E+02  0.71999321027E+01  0.22928100558E+02  0.51100000000E-03 0. -1.
        -11    1    3    3    0    0 -0.95022398381E+01 -0.12645401111E+02  0.14408079123E+02  0.21396062149E+02  0.51100000000E-03 0.  1.
         12    1    3    3    0    0  0.15199403385E+01 -0.29598023379E+01 -0.96045336461E+00  0.34631083115E+01  0.00000000000E+00 0. -1.
</event>
<event>
 7    1 -0.2653124E-010  0.4778726E+02  0.7816164E-02  0.1312668E+00
        -11   -1    0    0    0    0  0.00000000000E+00  0.00000000000E+00  0.45593999997E+02  0.45594000000E+02  0.51100000000E-03 0.  1.
         11   -1    0    0    0    0 -0.00000000000E+00 -0.00000000000E+00 -0.45593999997E+02  0.45594000000E+02  0.51100000000E-03 0. -1.
    9900012    2    1    2    0    0  0.40287146015E+01  0.26010471969E+02  0.34508675561E+02  0.47787264034E+02  0.19999968036E+02 0.  0.
         12    1    1    2    0    0 -0.40287146015E+01 -0.26010471969E+02 -0.34508675561E+02  0.43400735966E+02  0.00000000000E+00 0. -1.
         11    1    3    3    0    0  0.84173832966E+00  0.10255630620E+02  0.69183491599E+01  0.12399598307E+02  0.51100000000E-03 0. -1.
        -11    1    3    3    0    0 -0.38122142018E+01  0.12191777248E+02  0.22949659829E+02  0.26265172683E+02  0.51100000000E-03 0.  1.
        -12    1    3    3    0    0  0.69991904737E+01  0.35630641022E+01  0.46406665726E+01  0.91224930431E+01  0.00000000000E+00 0.  1.
</event>
<event>
 7    1  0.2653124E-010  0.4778725E+02  0.7816164E-02  0.1312668E+00
        -11   -1    0    0    0    0  0.00000000000E+00  0.00000000000E+00  0.45593999997E+02  0.45594000000E+02  0.51100000000E-03 0.  1.
         11   -1    0    0    0    0 -0.00000000000E+00 -0.00000000000E+00 -0.45593999997E+02  0.45594000000E+02  0.51100000000E-03 0. -1.
    9900012    2    1    2    0    0 -0.33844653028E+02  0.25772369581E+02  0.85993696280E+01  0.47787254264E+02  0.19999923492E+02 0.  0.
         12    1    1    2    0    0  0.33844653028E+02 -0.25772369581E+02 -0.85993696280E+01  0.43400745736E+02  0.00000000000E+00 0. -1.
         11    1    3    3    0    0 -0.67564907906E+01  0.32295985998E-01  0.10067223490E+01  0.68311566358E+01  0.51100000000E-03 0. -1.
        -11    1    3    3    0    0 -0.11021867097E+02  0.19932821288E+01 -0.34657697444E+00  0.11206018196E+02  0.51100000000E-03 0.  1.
        -12    1    3    3    0    0 -0.16066295141E+02  0.23746791466E+02  0.79392242535E+01  0.29750079432E+02  0.00000000000E+00 0.  1.
</event>
<event>
 7    1  0.2653124E-010  0.4778727E+02  0.7816164E-02  0.1312668E+00
        -11   -1    0    0    0    0  0.00000000000E+00  0.00000000000E+00  0.45593999997E+02  0.45594000000E+02  0.51100000000E-03 0.  1.
         11   -1    0    0    0    0 -0.00000000000E+00 -0.00000000000E+00 -0.45593999997E+02  0.45594000000E+02  0.51100000000E-03 0. -1.
    9900012    2    1    2    0    0 -0.29987743663E+02  0.31081360033E+02 -0.42787177485E+01  0.47787272621E+02  0.20000007186E+02 0.  0.
         12    1    1    2    0    0  0.29987743663E+02 -0.31081360033E+02  0.42787177485E+01  0.43400727379E+02  0.00000000000E+00 0. -1.
         11    1    3    3    0    0  0.84223190364E+00  0.67408201151E+00 -0.16472183875E+01  0.19690276318E+01  0.51100000000E-03 0. -1.
        -11    1    3    3    0    0 -0.45880327083E+00  0.70279749456E+01  0.17044024015E+01  0.72462348903E+01  0.51100000000E-03 0.  1.
        -12    1    3    3    0    0 -0.30371172296E+02  0.23379303076E+02 -0.43359017625E+01  0.38572010098E+02  0.00000000000E+00 0.  1.
</event>
<event>
 7    1  0.2653124E-010  0.4778727E+02  0.7816164E-02  0.1312668E+00
        -11   -1    0    0    0    0  0.00000000000E+00  0.00000000000E+00  0.45593999997E+02  0.45594000000E+02  0.51100000000E-03 0.  1.
         11   -1    0    0    0    0 -0.00000000000E+00 -0.00000000000E+00 -0.45593999997E+02  0.45594000000E+02  0.51100000000E-03 0. -1.
    9900012    2    1    2    0    0  0.14770610156E+02  0.20314451486E+02  0.35394565688E+02  0.47787272543E+02  0.20000006830E+02 0.  0.
         12    1    1    2    0    0 -0.14770610156E+02 -0.20314451486E+02 -0.35394565688E+02  0.43400727457E+02  0.00000000000E+00 0. -1.
         11    1    3    3    0    0  0.17547984722E+01  0.16388280518E+01 -0.15215727722E+01  0.28425796425E+01  0.51100000000E-03 0. -1.
        -11    1    3    3    0    0 -0.11454591206E+01  0.63576134824E+01  0.13236873362E+02  0.14729091705E+02  0.51100000000E-03 0.  1.
        -12    1    3    3    0    0  0.14161270804E+02  0.12318009952E+02  0.23679265099E+02  0.30215601195E+02  0.00000000000E+00 0.  1.
</event>
<event>
 7    1  0.2653124E-010  0.4778727E+02  0.7816164E-02  0.1312668E+00
        -11   -1    0    0    0    0  0.00000000000E+00  0.00000000000E+00  0.45593999997E+02  0.45594000000E+02  0.51100000000E-03 0. -1.
         11   -1    0    0    0    0 -0.00000000000E+00 -0.00000000000E+00 -0.45593999997E+02  0.45594000000E+02  0.51100000000E-03 0.  1.
    9900012    2    1    2    0    0  0.56612329299E+00 -0.14017016410E+02 -0.41070987262E+02  0.47787271442E+02  0.20000001815E+02 0.  0.
         12    1    1    2    0    0 -0.56612329299E+00  0.14017016410E+02  0.41070987262E+02  0.43400728558E+02  0.00000000000E+00 0. -1.
         11    1    3    3    0    0 -0.41939858812E+00  0.22975247489E+01 -0.60732931947E+00  0.24131647915E+01  0.51100000000E-03 0. -1.
        -11    1    3    3    0    0  0.16522754638E+01 -0.77867737390E+01 -0.33234948308E+02  0.34174927195E+02  0.51100000000E-03 0.  1.
         12    1    3    3    0    0 -0.66675358272E+00 -0.85277674197E+01 -0.72287096351E+01  0.11199179456E+02  0.00000000000E+00 0. -1.
</event>
<event>
 7    1  0.2653124E-010  0.4778726E+02  0.7816164E-02  0.1312668E+00
        -11   -1    0    0    0    0  0.00000000000E+00  0.00000000000E+00  0.45593999997E+02  0.45594000000E+02  0.51100000000E-03 0.  1.
         11   -1    0    0    0    0 -0.00000000000E+00 -0.00000000000E+00 -0.45593999997E+02  0.45594000000E+02  0.51100000000E-03 0. -1.
    9900012    2    1    2    0    0  0.56411396896E+01  0.17705035698E+02  0.39221589501E+02  0.47787264649E+02  0.19999970840E+02 0.  0.
         12    1    1    2    0    0 -0.56411396896E+01 -0.17705035698E+02 -0.39221589501E+02  0.43400735351E+02  0.00000000000E+00 0. -1.
         11    1    3    3    0    0 -0.18030860656E+01  0.94053378725E+01  0.19862288997E+02  0.22050442724E+02  0.51100000000E-03 0. -1.
        -11    1    3    3    0    0  0.66672217684E+01  0.11326268003E+02  0.18098784030E+02  0.22367435629E+02  0.51100000000E-03 0.  1.
         12    1    3    3    0    0  0.77700398671E+00 -0.30265701773E+01  0.12605164737E+01  0.33693862963E+01  0.00000000000E+00 0. -1.
</event>
<event>
 7    1  0.2653124E-010  0.4778728E+02  0.7816164E-02  0.1312668E+00
        -11   -1    0    0    0    0  0.00000000000E+00  0.00000000000E+00  0.45593999997E+02  0.45594000000E+02  0.51100000000E-03 0. -1.
         11   -1    0    0    0    0 -0.00000000000E+00 -0.00000000000E+00 -0.45593999997E+02  0.45594000000E+02  0.51100000000E-03 0.  1.
    9900012    2    1    2    0    0 -0.36978094030E+02  0.97366220157E+01 -0.20529041105E+02  0.47787276791E+02  0.20000026200E+02 0.  0.
         12    1    1    2    0    0  0.36978094030E+02 -0.97366220157E+01  0.20529041105E+02  0.43400723209E+02  0.00000000000E+00 0. -1.
         11    1    3    3    0    0 -0.44956746956E+01  0.75974742961E+01  0.17282287882E+00  0.88296418194E+01  0.51100000000E-03 0. -1.
        -11    1    3    3    0    0 -0.26477984141E+01  0.87262766182E-01 -0.37209985275E+01  0.45677435934E+01  0.51100000000E-03 0.  1.
         12    1    3    3    0    0 -0.29834620921E+02  0.20518849534E+01 -0.16980865457E+02  0.34389891378E+02  0.00000000000E+00 0. -1.
</event>
<event>
 7    1  0.2653124E-010  0.4778727E+02  0.7816164E-02  0.1312668E+00
        -11   -1    0    0    0    0  0.00000000000E+00  0.00000000000E+00  0.45593999997E+02  0.45594000000E+02  0.51100000000E-03 0.  1.
         11   -1    0    0    0    0 -0.00000000000E+00 -0.00000000000E+00 -0.45593999997E+02  0.45594000000E+02  0.51100000000E-03 0. -1.
    9900012    2    1    2    0    0  0.42216337301E+00 -0.25549549803E+02  0.35080843634E+02  0.47787270662E+02  0.19999998256E+02 0.  0.
         12    1    1    2    0    0 -0.42216337301E+00  0.25549549803E+02 -0.35080843634E+02  0.43400729338E+02  0.00000000000E+00 0. -1.
         11    1    3    3    0    0 -0.62441067523E+01 -0.14148585174E+02  0.17888124581E+02  0.23646486691E+02  0.51100000000E-03 0. -1.
        -11    1    3    3    0    0 -0.21050597269E+01 -0.20060901059E+01  0.74960751386E+01  0.80403244158E+01  0.51100000000E-03 0.  1.
         12    1    3    3    0    0  0.87713298522E+01 -0.93948745229E+01  0.96966439138E+01  0.16100459555E+02  0.00000000000E+00 0. -1.
</event>
<event>
 7    1  0.2653124E-010  0.4778727E+02  0.7816164E-02  0.1312668E+00
        -11   -1    0    0    0    0  0.00000000000E+00  0.00000000000E+00  0.45593999997E+02  0.45594000000E+02  0.51100000000E-03 0.  1.
         11   -1    0    0    0    0 -0.00000000000E+00 -0.00000000000E+00 -0.45593999997E+02  0.45594000000E+02  0.51100000000E-03 0. -1.
    9900012    2    1    2    0    0  0.12347934386E+02  0.13208318004E+02  0.39454933820E+02  0.47787274766E+02  0.20000016970E+02 0.  0.
         12    1    1    2    0    0 -0.12347934386E+02 -0.13208318004E+02 -0.39454933820E+02  0.43400725234E+02  0.00000000000E+00 0. -1.
         11    1    3    3    0    0  0.60434104177E+01  0.45237910266E+01  0.13983638739E+02  0.15891181434E+02  0.51100000000E-03 0.  1.
        -11    1    3    3    0    0  0.36629737746E+01  0.13004415490E+00  0.21984649812E+02  0.22288093592E+02  0.51100000000E-03 0. -1.
         12    1    3    3    0    0  0.26415501935E+01  0.85544828223E+01  0.34866452689E+01  0.96079997405E+01  0.00000000000E+00 0. -1.
</event>
<event>
 7    1  0.2653124E-010  0.4778727E+02  0.7816164E-02  0.1312668E+00
        -11   -1    0    0    0    0  0.00000000000E+00  0.00000000000E+00  0.45593999997E+02  0.45594000000E+02  0.51100000000E-03 0.  1.
         11   -1    0    0    0    0 -0.00000000000E+00 -0.00000000000E+00 -0.45593999997E+02  0.45594000000E+02  0.51100000000E-03 0. -1.
    9900012    2    1    2    0    0  0.26415934612E+02 -0.33252569072E+02  0.89492031706E+01  0.47787272026E+02  0.20000004476E+02 0.  0.
         12    1    1    2    0    0 -0.26415934612E+02  0.33252569072E+02 -0.89492031706E+01  0.43400727974E+02  0.00000000000E+00 0. -1.
         11    1    3    3    0    0  0.13435729098E+01 -0.37706032986E+01 -0.26214409520E+01  0.47848291845E+01  0.51100000000E-03 0. -1.
        -11    1    3    3    0    0 -0.12691292181E+01 -0.33656214130E+01 -0.11689046888E+01  0.37821204239E+01  0.51100000000E-03 0.  1.
        -12    1    3    3    0    0  0.26341490920E+02 -0.26116344360E+02  0.12739548811E+02  0.39220322418E+02  0.00000000000E+00 0.  1.
</event>
<event>
 7    1  0.2653124E-010  0.4778727E+02  0.7816164E-02  0.1312668E+00
        -11   -1    0    0    0    0  0.00000000000E+00  0.00000000000E+00  0.45593999997E+02  0.45594000000E+02  0.51100000000E-03 0. -1.
         11   -1    0    0    0    0 -0.00000000000E+00 -0.00000000000E+00 -0.45593999997E+02  0.45594000000E+02  0.51100000000E-03 0.  1.
    9900012    2    1    2    0    0  0.24190738769E+02  0.35301550540E+02  0.72271712716E+01  0.47787270544E+02  0.19999997718E+02 0.  0.
         12    1    1    2    0    0 -0.24190738769E+02 -0.35301550540E+02 -0.72271712716E+01  0.43400729456E+02  0.00000000000E+00 0. -1.
         11    1    3    3    0    0  0.13030521055E+02  0.15128984800E+02 -0.17101735935E+01  0.20040093663E+02  0.51100000000E-03 0. -1.
        -11    1    3    3    0    0  0.17350053280E+01  0.44829071044E+01 -0.32097892003E+01  0.57800905327E+01  0.51100000000E-03 0.  1.
        -12    1    3    3    0    0  0.94252123860E+01  0.15689658636E+02  0.12147134065E+02  0.21967086348E+02  0.00000000000E+00 0.  1.
</event>
<event>
 7    1  0.2653124E-010  0.4778727E+02  0.7816164E-02  0.1312668E+00
        -11   -1    0    0    0    0  0.00000000000E+00  0.00000000000E+00  0.45593999997E+02  0.45594000000E+02  0.51100000000E-03 0.  1.
         11   -1    0    0    0    0 -0.00000000000E+00 -0.00000000000E+00 -0.45593999997E+02  0.45594000000E+02  0.51100000000E-03 0. -1.
    9900012    2    1    2    0    0 -0.50496098160E+01 -0.23989342135E+02  0.35813909029E+02  0.47787272181E+02  0.20000005180E+02 0.  0.
         12    1    1    2    0    0  0.50496098160E+01  0.23989342135E+02 -0.35813909029E+02  0.43400727819E+02  0.00000000000E+00 0. -1.
         11    1    3    3    0    0  0.41942283347E+01 -0.12838872800E+01  0.35877081701E+01  0.56667069843E+01  0.51100000000E-03 0. -1.
        -11    1    3    3    0    0 -0.31240079830E+01 -0.93428368705E+01  0.46971124590E+01  0.10913793675E+02  0.51100000000E-03 0.  1.
        -12    1    3    3    0    0 -0.61198301677E+01 -0.13362617984E+02  0.27529088399E+02  0.31206771521E+02  0.00000000000E+00 0.  1.
</event>
<event>
 7    1  0.2653124E-010  0.4778727E+02  0.7816164E-02  0.1312668E+00
        -11   -1    0    0    0    0  0.00000000000E+00  0.00000000000E+00  0.45593999997E+02  0.45594000000E+02  0.51100000000E-03 0.  1.
         11   -1    0    0    0    0 -0.00000000000E+00 -0.00000000000E+00 -0.45593999997E+02  0.45594000000E+02  0.51100000000E-03 0. -1.
    9900012    2    1    2    0    0 -0.19820487918E+02 -0.17052292047E+02  0.34640884651E+02  0.47787270804E+02  0.19999998905E+02 0.  0.
         12    1    1    2    0    0  0.19820487918E+02  0.17052292047E+02 -0.34640884651E+02  0.43400729196E+02  0.00000000000E+00 0. -1.
         11    1    3    3    0    0 -0.83113705922E+01 -0.41308820702E+01  0.10512672860E+02  0.14023528754E+02  0.51100000000E-03 0.  1.
        -11    1    3    3    0    0 -0.58454643114E+01 -0.45857626339E+01 -0.19849053013E+00  0.74322318789E+01  0.51100000000E-03 0. -1.
         12    1    3    3    0    0 -0.56636530142E+01 -0.83356473428E+01  0.24326702321E+02  0.26331510171E+02  0.00000000000E+00 0. -1.
</event>
<event>
 7    1  0.2653124E-010  0.4778727E+02  0.7816164E-02  0.1312668E+00
        -11   -1    0    0    0    0  0.00000000000E+00  0.00000000000E+00  0.45593999997E+02  0.45594000000E+02  0.51100000000E-03 0. -1.
         11   -1    0    0    0    0 -0.00000000000E+00 -0.00000000000E+00 -0.45593999997E+02  0.45594000000E+02  0.51100000000E-03 0.  1.
    9900012    2    1    2    0    0  0.40390674495E+02  0.10444186423E+02 -0.11963943138E+02  0.47787267844E+02  0.19999985410E+02 0.  0.
         12    1    1    2    0    0 -0.40390674495E+02 -0.10444186423E+02  0.11963943138E+02  0.43400732156E+02  0.00000000000E+00 0. -1.
         11    1    3    3    0    0  0.20042807054E+01  0.23080599742E+01 -0.52729068273E+00  0.31019860921E+01  0.51100000000E-03 0. -1.
        -11    1    3    3    0    0  0.19865979735E+02  0.18578712999E+01 -0.14800080040E+02  0.24842528173E+02  0.51100000000E-03 0.  1.
         12    1    3    3    0    0  0.18520414055E+02  0.62782551491E+01  0.33634275842E+01  0.19842753579E+02  0.00000000000E+00 0. -1.
</event>
<event>
 7    1  0.2653124E-010  0.4778727E+02  0.7816164E-02  0.1312668E+00
        -11   -1    0    0    0    0  0.00000000000E+00  0.00000000000E+00  0.45593999997E+02  0.45594000000E+02  0.51100000000E-03 0.  1.
         11   -1    0    0    0    0 -0.00000000000E+00 -0.00000000000E+00 -0.45593999997E+02  0.45594000000E+02  0.51100000000E-03 0. -1.
    9900012    2    1    2    0    0  0.38665736048E+02 -0.15972214929E+02  0.11553031442E+02  0.47787270405E+02  0.19999997087E+02 0.  0.
         12    1    1    2    0    0 -0.38665736048E+02  0.15972214929E+02 -0.11553031442E+02  0.43400729595E+02  0.00000000000E+00 0. -1.
         11    1    3    3    0    0  0.10576891636E+02 -0.62920723956E+00  0.55735524742E+01  0.11972093630E+02  0.51100000000E-03 0. -1.
        -11    1    3    3    0    0 -0.16270464049E+01  0.36889922014E+00  0.60291324417E+00  0.17739422988E+01  0.51100000000E-03 0.  1.
        -12    1    3    3    0    0  0.29715890816E+02 -0.15711906910E+02  0.53765657234E+01  0.34041234477E+02  0.00000000000E+00 0.  1.
</event>
<event>
 7    1  0.2653124E-010  0.4778727E+02  0.7816164E-02  0.1312668E+00
        -11   -1    0    0    0    0  0.00000000000E+00  0.00000000000E+00  0.45593999997E+02  0.45594000000E+02  0.51100000000E-03 0. -1.
         11   -1    0    0    0    0 -0.00000000000E+00 -0.00000000000E+00 -0.45593999997E+02  0.45594000000E+02  0.51100000000E-03 0.  1.
    9900012    2    1    2    0    0 -0.32154816392E+02 -0.89322608249E+01  0.27747176824E+02  0.47787270486E+02  0.19999997452E+02 0.  0.
         12    1    1    2    0    0  0.32154816392E+02  0.89322608249E+01 -0.27747176824E+02  0.43400729514E+02  0.00000000000E+00 0. -1.
         11    1    3    3    0    0 -0.80453278240E+01 -0.70312662577E+01  0.28687546365E+01  0.11063261653E+02  0.51100000000E-03 0. -1.
        -11    1    3    3    0    0 -0.40104491903E+01 -0.49419878031E+01  0.36697934525E+01  0.73467224256E+01  0.51100000000E-03 0.  1.
        -12    1    3    3    0    0 -0.20099039378E+02  0.30409932360E+01  0.21208628735E+02  0.29377286407E+02  0.00000000000E+00 0.  1.
</event>
<event>
 7    1  0.2653124E-010  0.4778726E+02  0.7816164E-02  0.1312668E+00
        -11   -1    0    0    0    0  0.00000000000E+00  0.00000000000E+00  0.45593999997E+02  0.45594000000E+02  0.51100000000E-03 0. -1.
         11   -1    0    0    0    0 -0.00000000000E+00 -0.00000000000E+00 -0.45593999997E+02  0.45594000000E+02  0.51100000000E-03 0.  1.
    9900012    2    1    2    0    0 -0.37478449189E+02 -0.28481962471E+01 -0.21699710651E+02  0.47787264778E+02  0.19999971431E+02 0.  0.
         12    1    1    2    0    0  0.37478449189E+02  0.28481962471E+01  0.21699710651E+02  0.43400735222E+02  0.00000000000E+00 0. -1.
         11    1    3    3    0    0 -0.14130854478E+00  0.17362764536E+01 -0.20646238250E+01  0.27013507414E+01  0.51100000000E-03 0. -1.
        -11    1    3    3    0    0 -0.32878486705E+02  0.16088457639E+01 -0.16677618021E+02  0.36901574706E+02  0.51100000000E-03 0.  1.
         12    1    3    3    0    0 -0.44586539391E+01 -0.61933184646E+01 -0.29574688053E+01  0.81843393312E+01  0.00000000000E+00 0. -1.
</event>
<event>
 7    1  0.2653124E-010  0.4778727E+02  0.7816164E-02  0.1312668E+00
        -11   -1    0    0    0    0  0.00000000000E+00  0.00000000000E+00  0.45593999997E+02  0.45594000000E+02  0.51100000000E-03 0.  1.
         11   -1    0    0    0    0 -0.00000000000E+00 -0.00000000000E+00 -0.45593999997E+02  0.45594000000E+02  0.51100000000E-03 0. -1.
    9900012    2    1    2    0    0 -0.32629475770E+01  0.28446674262E+02  0.32615382408E+02  0.47787271053E+02  0.20000000040E+02 0.  0.
         12    1    1    2    0    0  0.32629475770E+01 -0.28446674262E+02 -0.32615382408E+02  0.43400728947E+02  0.00000000000E+00 0. -1.
         11    1    3    3    0    0 -0.14571246118E+01  0.78531479895E+00  0.67205939429E-01  0.16566376692E+01  0.51100000000E-03 0. -1.
        -11    1    3    3    0    0  0.22201617721E+01  0.14101227180E+02  0.27727922629E+02  0.31186718645E+02  0.51100000000E-03 0.  1.
        -12    1    3    3    0    0 -0.40259847374E+01  0.13560132284E+02  0.48202538403E+01  0.14943914739E+02  0.00000000000E+00 0.  1.
</event>
<event>
 7    1  0.2653124E-010  0.4778727E+02  0.7816164E-02  0.1312668E+00
        -11   -1    0    0    0    0  0.00000000000E+00  0.00000000000E+00  0.45593999997E+02  0.45594000000E+02  0.51100000000E-03 0.  1.
         11   -1    0    0    0    0 -0.00000000000E+00 -0.00000000000E+00 -0.45593999997E+02  0.45594000000E+02  0.51100000000E-03 0. -1.
    9900012    2    1    2    0    0 -0.23019625443E+02 -0.35775197782E+02  0.85939236453E+01  0.47787268952E+02  0.19999990460E+02 0.  0.
         12    1    1    2    0    0  0.23019625443E+02  0.35775197782E+02 -0.85939236453E+01  0.43400731048E+02  0.00000000000E+00 0. -1.
         11    1    3    3    0    0 -0.23226164393E+02 -0.26015927906E+02  0.10540445625E+01  0.34891176928E+02  0.51100000000E-03 0. -1.
        -11    1    3    3    0    0 -0.89173328568E+00 -0.13992411889E+01  0.11858892252E+00  0.16634685904E+01  0.51100000000E-03 0.  1.
         12    1    3    3    0    0  0.10982722360E+01 -0.83600286868E+01  0.74212901602E+01  0.11232623433E+02  0.00000000000E+00 0. -1.
</event>
<event>
 7    1  0.2653124E-010  0.4778728E+02  0.7816164E-02  0.1312668E+00
        -11   -1    0    0    0    0  0.00000000000E+00  0.00000000000E+00  0.45593999997E+02  0.45594000000E+02  0.51100000000E-03 0. -1.
         11   -1    0    0    0    0 -0.00000000000E+00 -0.00000000000E+00 -0.45593999997E+02  0.45594000000E+02  0.51100000000E-03 0.  1.
    9900012    2    1    2    0    0  0.24257693295E+02  0.62002681640E+01 -0.35450583490E+02  0.47787275593E+02  0.20000020736E+02 0.  0.
         12    1    1    2    0    0 -0.24257693295E+02 -0.62002681640E+01  0.35450583490E+02  0.43400724407E+02  0.00000000000E+00 0. -1.
         11    1    3    3    0    0  0.10187332506E+02 -0.68757818086E-01 -0.12417341330E+02  0.16061657361E+02  0.51100000000E-03 0. -1.
        -11    1    3    3    0    0  0.17461235380E+02  0.57012501570E+01 -0.19034166376E+02  0.26451814385E+02  0.51100000000E-03 0.  1.
         12    1    3    3    0    0 -0.33908745914E+01  0.56777582508E+00 -0.39990757845E+01  0.52738038466E+01  0.00000000000E+00 0. -1.
</event>
<event>
 7    1  0.2653124E-010  0.4778727E+02  0.7816164E-02  0.1312668E+00
        -11   -1    0    0    0    0  0.00000000000E+00  0.00000000000E+00  0.45593999997E+02  0.45594000000E+02  0.51100000000E-03 0.  1.
         11   -1    0    0    0    0 -0.00000000000E+00 -0.00000000000E+00 -0.45593999997E+02  0.45594000000E+02  0.51100000000E-03 0. -1.
    9900012    2    1    2    0    0  0.33901087794E+02  0.16248304223E+02  0.21687139409E+02  0.47787272362E+02  0.20000006009E+02 0.  0.
         12    1    1    2    0    0 -0.33901087794E+02 -0.16248304223E+02 -0.21687139409E+02  0.43400727638E+02  0.00000000000E+00 0. -1.
         11    1    3    3    0    0  0.13315005597E+02 -0.10153493459E+01  0.19940046959E+01  0.13501717051E+02  0.51100000000E-03 0. -1.
        -11    1    3    3    0    0  0.18345090228E+02  0.14471396580E+02  0.13111695098E+02  0.26793286530E+02  0.51100000000E-03 0.  1.
        -12    1    3    3    0    0  0.22409919695E+01  0.27922569885E+01  0.65814396145E+01  0.74922687816E+01  0.00000000000E+00 0.  1.
</event>
<event>
 7    1  0.2653124E-010  0.4778727E+02  0.7816164E-02  0.1312668E+00
        -11   -1    0    0    0    0  0.00000000000E+00  0.00000000000E+00  0.45593999997E+02  0.45594000000E+02  0.51100000000E-03 0.  1.
         11   -1    0    0    0    0 -0.00000000000E+00 -0.00000000000E+00 -0.45593999997E+02  0.45594000000E+02  0.51100000000E-03 0. -1.
    9900012    2    1    2    0    0  0.71379756811E+00 -0.25095473437E+02  0.35402413835E+02  0.47787271903E+02  0.20000003916E+02 0.  0.
         12    1    1    2    0    0 -0.71379756811E+00  0.25095473437E+02 -0.35402413835E+02  0.43400728097E+02  0.00000000000E+00 0. -1.
         11    1    3    3    0    0  0.34338147697E+01 -0.59970782222E+01  0.27775851411E+01  0.74478863145E+01  0.51100000000E-03 0. -1.
        -11    1    3    3    0    0 -0.40256657815E+01 -0.17474532006E+02  0.17447188817E+02  0.25019385518E+02  0.51100000000E-03 0.  1.
        -12    1    3    3    0    0  0.13056485799E+01 -0.16238632082E+01  0.15177639877E+02  0.15320000071E+02  0.00000000000E+00 0.  1.
</event>
<event>
 7    1  0.2653124E-010  0.4778727E+02  0.7816164E-02  0.1312668E+00
        -11   -1    0    0    0    0  0.00000000000E+00  0.00000000000E+00  0.45593999997E+02  0.45594000000E+02  0.51100000000E-03 0.  1.
         11   -1    0    0    0    0 -0.00000000000E+00 -0.00000000000E+00 -0.45593999997E+02  0.45594000000E+02  0.51100000000E-03 0. -1.
    9900012    2    1    2    0    0  0.12121943735E+02 -0.86350376089E+01  0.40769081631E+02  0.47787269459E+02  0.19999992773E+02 0.  0.
         12    1    1    2    0    0 -0.12121943735E+02  0.86350376089E+01 -0.40769081631E+02  0.43400730541E+02  0.00000000000E+00 0. -1.
         11    1    3    3    0    0  0.35960534446E+01  0.72721164569E+00  0.46123152274E+01  0.58935464002E+01  0.51100000000E-03 0. -1.
        -11    1    3    3    0    0  0.10478373920E+02 -0.71685554560E+01  0.11711325872E+02  0.17272511724E+02  0.51100000000E-03 0.  1.
         12    1    3    3    0    0 -0.19524836290E+01 -0.21936937986E+01  0.24445440532E+02  0.24621211335E+02  0.00000000000E+00 0. -1.
</event>
<event>
 7    1  0.2653124E-010  0.4778727E+02  0.7816164E-02  0.1312668E+00
        -11   -1    0    0    0    0  0.00000000000E+00  0.00000000000E+00  0.45593999997E+02  0.45594000000E+02  0.51100000000E-03 0.  1.
         11   -1    0    0    0    0 -0.00000000000E+00 -0.00000000000E+00 -0.45593999997E+02  0.45594000000E+02  0.51100000000E-03 0. -1.
    9900012    2    1    2    0    0 -0.27135243464E+02  0.71087422635E+01  0.33117482971E+02  0.47787270367E+02  0.19999996909E+02 0.  0.
         12    1    1    2    0    0  0.27135243464E+02 -0.71087422635E+01 -0.33117482971E+02  0.43400729633E+02  0.00000000000E+00 0. -1.
         11    1    3    3    0    0 -0.45622615821E+01  0.66849544848E+01  0.10303721165E+02  0.13102271456E+02  0.51100000000E-03 0. -1.
        -11    1    3    3    0    0  0.37264559063E+00  0.16485554947E+01 -0.68042377558E+00  0.18219705626E+01  0.51100000000E-03 0.  1.
        -12    1    3    3    0    0 -0.22945627472E+02 -0.12247677160E+01  0.23494185581E+02  0.32863028348E+02  0.00000000000E+00 0.  1.
</event>
<event>
 7    1  0.2653124E-010  0.4778727E+02  0.7816164E-02  0.1312668E+00
        -11   -1    0    0    0    0  0.00000000000E+00  0.00000000000E+00  0.45593999997E+02  0.45594000000E+02  0.51100000000E-03 0.  1.
         11   -1    0    0    0    0 -0.00000000000E+00 -0.00000000000E+00 -0.45593999997E+02  0.45594000000E+02  0.51100000000E-03 0. -1.
    9900012    2    1    2    0    0  0.29161035394E+02  0.30370243286E+02  0.10531175969E+02  0.47787270400E+02  0.19999997062E+02 0.  0.
         12    1    1    2    0    0 -0.29161035394E+02 -0.30370243286E+02 -0.10531175969E+02  0.43400729600E+02  0.00000000000E+00 0. -1.
         11    1    3    3    0    0  0.58695480229E+01  0.88719030842E+01 -0.10358038501E+01  0.10688084403E+02  0.51100000000E-03 0. -1.
        -11    1    3    3    0    0  0.12609668956E+02  0.20521295937E+02  0.52516191611E+01  0.24651710735E+02  0.51100000000E-03 0.  1.
         12    1    3    3    0    0  0.10681818415E+02  0.97704426532E+00  0.63153606581E+01  0.12447475262E+02  0.00000000000E+00 0. -1.
</event>
<event>
 7    1  0.2653124E-010  0.4778728E+02  0.7816164E-02  0.1312668E+00
        -11   -1    0    0    0    0  0.00000000000E+00  0.00000000000E+00  0.45593999997E+02  0.45594000000E+02  0.51100000000E-03 0.  1.
         11   -1    0    0    0    0 -0.00000000000E+00 -0.00000000000E+00 -0.45593999997E+02  0.45594000000E+02  0.51100000000E-03 0. -1.
    9900012    2    1    2    0    0  0.30080292269E+02 -0.27343183670E+02  0.15203586997E+02  0.47787277267E+02  0.20000028370E+02 0.  0.
         12    1    1    2    0    0 -0.30080292269E+02  0.27343183670E+02 -0.15203586997E+02  0.43400722733E+02  0.00000000000E+00 0. -1.
         11    1    3    3    0    0  0.13927833142E+02 -0.25134125705E+01  0.68898928424E+01  0.15740787859E+02  0.51100000000E-03 0. -1.
        -11    1    3    3    0    0  0.51350614284E+01 -0.22660662266E+01  0.30605814348E+01  0.63930486466E+01  0.51100000000E-03 0.  1.
        -12    1    3    3    0    0  0.11017397699E+02 -0.22563704873E+02  0.52531127193E+01  0.25653440761E+02  0.00000000000E+00 0.  1.
</event>
<event>
 7    1  0.2653124E-010  0.4778727E+02  0.7816164E-02  0.1312668E+00
        -11   -1    0    0    0    0  0.00000000000E+00  0.00000000000E+00  0.45593999997E+02  0.45594000000E+02  0.51100000000E-03 0.  1.
         11   -1    0    0    0    0 -0.00000000000E+00 -0.00000000000E+00 -0.45593999997E+02  0.45594000000E+02  0.51100000000E-03 0. -1.
    9900012    2    1    2    0    0 -0.99786347830E+01 -0.40265496455E+01  0.42045659541E+02  0.47787265670E+02  0.19999975494E+02 0.  0.
         12    1    1    2    0    0  0.99786347830E+01  0.40265496455E+01 -0.42045659541E+02  0.43400734330E+02  0.00000000000E+00 0. -1.
         11    1    3    3    0    0 -0.54650068757E+00  0.29580062769E+01  0.98106155433E+01  0.10261415192E+02  0.51100000000E-03 0. -1.
        -11    1    3    3    0    0 -0.11480081837E+02 -0.24568841173E+01  0.29723309989E+02  0.31957842786E+02  0.51100000000E-03 0.  1.
         12    1    3    3    0    0  0.20479477420E+01 -0.45276718052E+01  0.25117340089E+01  0.55680076922E+01  0.00000000000E+00 0. -1.
</event>
<event>
 7    1  0.2653124E-010  0.4778727E+02  0.7816164E-02  0.1312668E+00
        -11   -1    0    0    0    0  0.00000000000E+00  0.00000000000E+00  0.45593999997E+02  0.45594000000E+02  0.51100000000E-03 0.  1.
         11   -1    0    0    0    0 -0.00000000000E+00 -0.00000000000E+00 -0.45593999997E+02  0.45594000000E+02  0.51100000000E-03 0. -1.
    9900012    2    1    2    0    0  0.99367172613E+01  0.28172493452E+02  0.31483254442E+02  0.47787273653E+02  0.20000011893E+02 0.  0.
         12    1    1    2    0    0 -0.99367172613E+01 -0.28172493452E+02 -0.31483254442E+02  0.43400726347E+02  0.00000000000E+00 0. -1.
         11    1    3    3    0    0  0.52219857686E+01  0.46253722234E+00  0.54353282250E+01  0.75515474721E+01  0.51100000000E-03 0. -1.
        -11    1    3    3    0    0  0.88945779160E+01  0.19009788702E+02  0.17059233436E+02  0.27046312660E+02  0.51100000000E-03 0.  1.
         12    1    3    3    0    0 -0.41798464233E+01  0.87001675275E+01  0.89886927802E+01  0.13189413521E+02  0.00000000000E+00 0. -1.
</event>
<event>
 7    1  0.2653124E-010  0.4778727E+02  0.7816164E-02  0.1312668E+00
        -11   -1    0    0    0    0  0.00000000000E+00  0.00000000000E+00  0.45593999997E+02  0.45594000000E+02  0.51100000000E-03 0.  1.
         11   -1    0    0    0    0 -0.00000000000E+00 -0.00000000000E+00 -0.45593999997E+02  0.45594000000E+02  0.51100000000E-03 0. -1.
    9900012    2    1    2    0    0  0.25321600952E+02  0.41717021836E+00  0.35245793110E+02  0.47787269157E+02  0.19999991395E+02 0.  0.
         12    1    1    2    0    0 -0.25321600952E+02 -0.41717021836E+00 -0.35245793110E+02  0.43400730843E+02  0.00000000000E+00 0. -1.
         11    1    3    3    0    0 -0.15593472805E+01 -0.68190323338E+00  0.27117012651E+00  0.17233947486E+01  0.51100000000E-03 0. -1.
        -11    1    3    3    0    0  0.24147839586E+02  0.31179495986E+01  0.22562212733E+02  0.33194776849E+02  0.51100000000E-03 0.  1.
         12    1    3    3    0    0  0.27331086457E+01 -0.20188761469E+01  0.12412410250E+02  0.12869097559E+02  0.00000000000E+00 0. -1.
</event>
<event>
 7    1  0.2653124E-010  0.4778727E+02  0.7816164E-02  0.1312668E+00
        -11   -1    0    0    0    0  0.00000000000E+00  0.00000000000E+00  0.45593999997E+02  0.45594000000E+02  0.51100000000E-03 0. -1.
         11   -1    0    0    0    0 -0.00000000000E+00 -0.00000000000E+00 -0.45593999997E+02  0.45594000000E+02  0.51100000000E-03 0.  1.
    9900012    2    1    2    0    0 -0.28580341827E+02  0.15491739107E+02 -0.28754013403E+02  0.47787271823E+02  0.20000003550E+02 0.  0.
         12    1    1    2    0    0  0.28580341827E+02 -0.15491739107E+02  0.28754013403E+02  0.43400728177E+02  0.00000000000E+00 0. -1.
         11    1    3    3    0    0 -0.50280667414E+01 -0.26326887394E+00 -0.89454865161E+01  0.10265110566E+02  0.51100000000E-03 0. -1.
        -11    1    3    3    0    0 -0.74580472474E+01 -0.73785035506E+00 -0.59354047264E+00  0.75179240782E+01  0.51100000000E-03 0.  1.
        -12    1    3    3    0    0 -0.16094227839E+02  0.16492858336E+02 -0.19214986414E+02  0.30004237179E+02  0.00000000000E+00 0.  1.
</event>
<event>
 7    1  0.2653124E-010  0.4778729E+02  0.7816164E-02  0.1312668E+00
        -11   -1    0    0    0    0  0.00000000000E+00  0.00000000000E+00  0.45593999997E+02  0.45594000000E+02  0.51100000000E-03 0.  1.
         11   -1    0    0    0    0 -0.00000000000E+00 -0.00000000000E+00 -0.45593999997E+02  0.45594000000E+02  0.51100000000E-03 0. -1.
    9900012    2    1    2    0    0  0.14871833148E+02 -0.34799042158E+02  0.21247992761E+02  0.47787286266E+02  0.20000069400E+02 0.  0.
         12    1    1    2    0    0 -0.14871833148E+02  0.34799042158E+02 -0.21247992761E+02  0.43400713734E+02  0.00000000000E+00 0. -1.
         11    1    3    3    0    0  0.10802924098E+02 -0.17541172895E+02  0.13162997607E+02  0.24447094344E+02  0.51100000000E-03 0. -1.
        -11    1    3    3    0    0  0.43427817154E+01 -0.98680372819E+01  0.10989779153E+02  0.15395231694E+02  0.51100000000E-03 0.  1.
         12    1    3    3    0    0 -0.27387266575E+00 -0.73898319811E+01 -0.29047839986E+01  0.79449602280E+01  0.00000000000E+00 0. -1.
</event>
<event>
 7    1  0.2653124E-010  0.4778727E+02  0.7816164E-02  0.1312668E+00
        -11   -1    0    0    0    0  0.00000000000E+00  0.00000000000E+00  0.45593999997E+02  0.45594000000E+02  0.51100000000E-03 0.  1.
         11   -1    0    0    0    0 -0.00000000000E+00 -0.00000000000E+00 -0.45593999997E+02  0.45594000000E+02  0.51100000000E-03 0. -1.
    9900012    2    1    2    0    0  0.34187261971E+01  0.25554601945E+02  0.34912723104E+02  0.47787267242E+02  0.19999982665E+02 0.  0.
         12    1    1    2    0    0 -0.34187261971E+01 -0.25554601945E+02 -0.34912723104E+02  0.43400732758E+02  0.00000000000E+00 0. -1.
         11    1    3    3    0    0 -0.10784165834E+01  0.39805063843E+01  0.83052522673E+01  0.92727897036E+01  0.51100000000E-03 0. -1.
        -11    1    3    3    0    0  0.41437329353E+01  0.24525482999E+02  0.23844356347E+02  0.34456104957E+02  0.51100000000E-03 0.  1.
         12    1    3    3    0    0  0.35340984527E+00 -0.29513874382E+01  0.27631144893E+01  0.40583725815E+01  0.00000000000E+00 0. -1.
</event>
<event>
 7    1  0.2653124E-010  0.4778727E+02  0.7816164E-02  0.1312668E+00
        -11   -1    0    0    0    0  0.00000000000E+00  0.00000000000E+00  0.45593999997E+02  0.45594000000E+02  0.51100000000E-03 0.  1.
         11   -1    0    0    0    0 -0.00000000000E+00 -0.00000000000E+00 -0.45593999997E+02  0.45594000000E+02  0.51100000000E-03 0. -1.
    9900012    2    1    2    0    0  0.27457280499E+02 -0.23027951375E+02  0.24483346922E+02  0.47787273354E+02  0.20000010528E+02 0.  0.
         12    1    1    2    0    0 -0.27457280499E+02  0.23027951375E+02 -0.24483346922E+02  0.43400726646E+02  0.00000000000E+00 0. -1.
         11    1    3    3    0    0  0.35969531072E+01 -0.54720686046E+01  0.75206607936E+01  0.99720582380E+01  0.51100000000E-03 0. -1.
        -11    1    3    3    0    0  0.23095603538E+02 -0.15717313514E+02  0.19876632911E+02  0.34285877312E+02  0.51100000000E-03 0.  1.
         12    1    3    3    0    0  0.76472385404E+00 -0.18385692560E+01 -0.29139467826E+01  0.35293378038E+01  0.00000000000E+00 0. -1.
</event>
<event>
 7    1  0.2653124E-010  0.4778726E+02  0.7816164E-02  0.1312668E+00
        -11   -1    0    0    0    0  0.00000000000E+00  0.00000000000E+00  0.45593999997E+02  0.45594000000E+02  0.51100000000E-03 0.  1.
         11   -1    0    0    0    0 -0.00000000000E+00 -0.00000000000E+00 -0.45593999997E+02  0.45594000000E+02  0.51100000000E-03 0. -1.
    9900012    2    1    2    0    0 -0.20462806326E+02  0.29703039773E+02  0.24137668632E+02  0.47787261970E+02  0.19999958627E+02 0.  0.
         12    1    1    2    0    0  0.20462806326E+02 -0.29703039773E+02 -0.24137668632E+02  0.43400738030E+02  0.00000000000E+00 0. -1.
         11    1    3    3    0    0 -0.48678980154E+01 -0.58118038628E+00  0.74159508308E+01  0.88899116258E+01  0.51100000000E-03 0. -1.
        -11    1    3    3    0    0 -0.11403955846E+01  0.57554381127E+01  0.62217623427E+01  0.85519528102E+01  0.51100000000E-03 0.  1.
        -12    1    3    3    0    0 -0.14454512726E+02  0.24528782047E+02  0.10499955459E+02  0.30345397534E+02  0.00000000000E+00 0.  1.
</event>
<event>
 7    1  0.2653124E-010  0.4778727E+02  0.7816164E-02  0.1312668E+00
        -11   -1    0    0    0    0  0.00000000000E+00  0.00000000000E+00  0.45593999997E+02  0.45594000000E+02  0.51100000000E-03 0.  1.
         11   -1    0    0    0    0 -0.00000000000E+00 -0.00000000000E+00 -0.45593999997E+02  0.45594000000E+02  0.51100000000E-03 0. -1.
    9900012    2    1    2    0    0  0.30782701412E+02  0.21047806165E+02  0.22204468506E+02  0.47787271063E+02  0.20000000087E+02 0.  0.
         12    1    1    2    0    0 -0.30782701412E+02 -0.21047806165E+02 -0.22204468506E+02  0.43400728937E+02  0.00000000000E+00 0. -1.
         11    1    3    3    0    0  0.11518010513E+01 -0.96017561247E+00  0.15089926457E+01  0.21273556201E+01  0.51100000000E-03 0.  1.
        -11    1    3    3    0    0  0.12086726882E+02  0.10584849320E+02 -0.21873647780E+00  0.16067851374E+02  0.51100000000E-03 0. -1.
        -12    1    3    3    0    0  0.17544173478E+02  0.11423132457E+02  0.20914212338E+02  0.29592064070E+02  0.00000000000E+00 0.  1.
</event>
<event>
 7    1  0.2653124E-010  0.4778728E+02  0.7816164E-02  0.1312668E+00
        -11   -1    0    0    0    0  0.00000000000E+00  0.00000000000E+00  0.45593999997E+02  0.45594000000E+02  0.51100000000E-03 0.  1.
         11   -1    0    0    0    0 -0.00000000000E+00 -0.00000000000E+00 -0.45593999997E+02  0.45594000000E+02  0.51100000000E-03 0. -1.
    9900012    2    1    2    0    0 -0.30118297714E+01 -0.29107718629E+00  0.43295114717E+02  0.47787276470E+02  0.20000024739E+02 0.  0.
         12    1    1    2    0    0  0.30118297714E+01  0.29107718629E+00 -0.43295114717E+02  0.43400723530E+02  0.00000000000E+00 0. -1.
         11    1    3    3    0    0 -0.32812948036E+01  0.86517509238E+01  0.12348310101E+02  0.15430503953E+02  0.51100000000E-03 0. -1.
        -11    1    3    3    0    0  0.47393880643E+00 -0.71005087015E+01  0.19439115371E+02  0.20700749949E+02  0.51100000000E-03 0.  1.
         12    1    3    3    0    0 -0.20447377421E+00 -0.18423194086E+01  0.11507689246E+02  0.11656022568E+02  0.00000000000E+00 0. -1.
</event>
<event>
 7    1  0.2653124E-010  0.4778728E+02  0.7816164E-02  0.1312668E+00
        -11   -1    0    0    0    0  0.00000000000E+00  0.00000000000E+00  0.45593999997E+02  0.45594000000E+02  0.51100000000E-03 0.  1.
         11   -1    0    0    0    0 -0.00000000000E+00 -0.00000000000E+00 -0.45593999997E+02  0.45594000000E+02  0.51100000000E-03 0. -1.
    9900012    2    1    2    0    0 -0.19348602363E+02  0.64964916700E+01  0.38302088427E+02  0.47787276558E+02  0.20000025140E+02 0.  0.
         12    1    1    2    0    0  0.19348602363E+02 -0.64964916700E+01 -0.38302088427E+02  0.43400723442E+02  0.00000000000E+00 0. -1.
         11    1    3    3    0    0  0.16302303116E+01  0.23629504354E+01  0.12828118749E+01  0.31443269862E+01  0.51100000000E-03 0. -1.
        -11    1    3    3    0    0 -0.50443123172E+01 -0.34688068357E+01  0.43558683190E+01  0.75134077948E+01  0.51100000000E-03 0.  1.
        -12    1    3    3    0    0 -0.15934520357E+02  0.76023480703E+01  0.32663408233E+02  0.37129541777E+02  0.00000000000E+00 0.  1.
</event>
<event>
 7    1  0.2653124E-010  0.4778727E+02  0.7816164E-02  0.1312668E+00
        -11   -1    0    0    0    0  0.00000000000E+00  0.00000000000E+00  0.45593999997E+02  0.45594000000E+02  0.51100000000E-03 0.  1.
         11   -1    0    0    0    0 -0.00000000000E+00 -0.00000000000E+00 -0.45593999997E+02  0.45594000000E+02  0.51100000000E-03 0. -1.
    9900012    2    1    2    0    0  0.20899680026E+02  0.13743353250E+02  0.35467549479E+02  0.47787269018E+02  0.19999990758E+02 0.  0.
         12    1    1    2    0    0 -0.20899680026E+02 -0.13743353250E+02 -0.35467549479E+02  0.43400730982E+02  0.00000000000E+00 0. -1.
         11    1    3    3    0    0  0.32965223384E-01 -0.11542401961E+01  0.14641295717E+02  0.14686759264E+02  0.51100000000E-03 0. -1.
        -11    1    3    3    0    0  0.40358369851E+01  0.27856668327E+01  0.29498110132E+01  0.57227008613E+01  0.51100000000E-03 0.  1.
         12    1    3    3    0    0  0.16830877818E+02  0.12111926613E+02  0.17876442749E+02  0.27377808893E+02  0.00000000000E+00 0. -1.
</event>
<event>
 7    1  0.2653124E-010  0.4778726E+02  0.7816164E-02  0.1312668E+00
        -11   -1    0    0    0    0  0.00000000000E+00  0.00000000000E+00  0.45593999997E+02  0.45594000000E+02  0.51100000000E-03 0.  1.
         11   -1    0    0    0    0 -0.00000000000E+00 -0.00000000000E+00 -0.45593999997E+02  0.45594000000E+02  0.51100000000E-03 0. -1.
    9900012    2    1    2    0    0  0.21373698341E+02  0.10095911861E+02  0.36398652421E+02  0.47787259048E+02  0.19999945304E+02 0.  0.
         12    1    1    2    0    0 -0.21373698341E+02 -0.10095911861E+02 -0.36398652421E+02  0.43400740952E+02  0.00000000000E+00 0. -1.
         11    1    3    3    0    0  0.10039129634E+02  0.72932546219E+01  0.21489431995E+02  0.24814741073E+02  0.51100000000E-03 0. -1.
        -11    1    3    3    0    0  0.97998290449E+01  0.60538195158E+01  0.15518156449E+02  0.19326110832E+02  0.51100000000E-03 0.  1.
         12    1    3    3    0    0  0.15347396626E+01 -0.32511622763E+01 -0.60893602259E+00  0.36464071438E+01  0.00000000000E+00 0. -1.
</event>
<event>
 7    1  0.2653124E-010  0.4778727E+02  0.7816164E-02  0.1312668E+00
        -11   -1    0    0    0    0  0.00000000000E+00  0.00000000000E+00  0.45593999997E+02  0.45594000000E+02  0.51100000000E-03 0. -1.
         11   -1    0    0    0    0 -0.00000000000E+00 -0.00000000000E+00 -0.45593999997E+02  0.45594000000E+02  0.51100000000E-03 0.  1.
    9900012    2    1    2    0    0  0.18362428938E+02 -0.81618181374E+00 -0.39316387313E+02  0.47787271197E+02  0.20000000696E+02 0.  0.
         12    1    1    2    0    0 -0.18362428938E+02  0.81618181374E+00  0.39316387313E+02  0.43400728803E+02  0.00000000000E+00 0. -1.
         11    1    3    3    0    0  0.62261147065E-01 -0.31101702755E+00 -0.21387156356E+01  0.21621084323E+01  0.51100000000E-03 0. -1.
        -11    1    3    3    0    0  0.20930684449E+02 -0.42086365746E+01 -0.33744387816E+02  0.39931064131E+02  0.51100000000E-03 0.  1.
         12    1    3    3    0    0 -0.26305166578E+01  0.37034717884E+01 -0.34332838616E+01  0.56940986335E+01  0.00000000000E+00 0. -1.
</event>
<event>
 7    1  0.2653124E-010  0.4778727E+02  0.7816164E-02  0.1312668E+00
        -11   -1    0    0    0    0  0.00000000000E+00  0.00000000000E+00  0.45593999997E+02  0.45594000000E+02  0.51100000000E-03 0. -1.
         11   -1    0    0    0    0 -0.00000000000E+00 -0.00000000000E+00 -0.45593999997E+02  0.45594000000E+02  0.51100000000E-03 0.  1.
    9900012    2    1    2    0    0 -0.16610437970E+02 -0.28271622321E+02 -0.28432935545E+02  0.47787273025E+02  0.20000009032E+02 0.  0.
         12    1    1    2    0    0  0.16610437970E+02  0.28271622321E+02  0.28432935545E+02  0.43400726975E+02  0.00000000000E+00 0. -1.
         11    1    3    3    0    0  0.14512617768E+01 -0.36325799170E+00 -0.21001785056E+01  0.25785397281E+01  0.51100000000E-03 0. -1.
        -11    1    3    3    0    0  0.11675524294E+01  0.13184854454E+01 -0.13515968791E+01  0.22199993085E+01  0.51100000000E-03 0.  1.
         12    1    3    3    0    0 -0.19229252176E+02 -0.29226849774E+02 -0.24981160161E+02  0.42988733989E+02  0.00000000000E+00 0. -1.
</event>
<event>
 7    1  0.2653124E-010  0.4778727E+02  0.7816164E-02  0.1312668E+00
        -11   -1    0    0    0    0  0.00000000000E+00  0.00000000000E+00  0.45593999997E+02  0.45594000000E+02  0.51100000000E-03 0.  1.
         11   -1    0    0    0    0 -0.00000000000E+00 -0.00000000000E+00 -0.45593999997E+02  0.45594000000E+02  0.51100000000E-03 0. -1.
    9900012    2    1    2    0    0  0.34883296291E+02 -0.48074056408E+01  0.25370605763E+02  0.47787272518E+02  0.20000006720E+02 0.  0.
         12    1    1    2    0    0 -0.34883296291E+02  0.48074056408E+01 -0.25370605763E+02  0.43400727482E+02  0.00000000000E+00 0. -1.
         11    1    3    3    0    0  0.50183238356E+01 -0.37186346205E+01  0.17308454247E+00  0.62483418664E+01  0.51100000000E-03 0. -1.
        -11    1    3    3    0    0  0.11094914009E+02 -0.50175059104E+01  0.16436613700E+02  0.20455677759E+02  0.51100000000E-03 0.  1.
         12    1    3    3    0    0  0.18770058447E+02  0.39287348900E+01  0.87609075213E+01  0.21083252893E+02  0.00000000000E+00 0. -1.
</event>
<event>
 7    1  0.2653124E-010  0.4778728E+02  0.7816164E-02  0.1312668E+00
        -11   -1    0    0    0    0  0.00000000000E+00  0.00000000000E+00  0.45593999997E+02  0.45594000000E+02  0.51100000000E-03 0.  1.
         11   -1    0    0    0    0 -0.00000000000E+00 -0.00000000000E+00 -0.45593999997E+02  0.45594000000E+02  0.51100000000E-03 0. -1.
    9900012    2    1    2    0    0 -0.18641910707E+02  0.27718955160E+02  0.27708510612E+02  0.47787275693E+02  0.20000021196E+02 0.  0.
         12    1    1    2    0    0  0.18641910707E+02 -0.27718955160E+02 -0.27708510612E+02  0.43400724307E+02  0.00000000000E+00 0. -1.
         11    1    3    3    0    0 -0.52775610670E+01  0.90821703759E+01  0.16533612986E+02  0.19588231880E+02  0.51100000000E-03 0. -1.
        -11    1    3    3    0    0 -0.65408594389E+01  0.11177342746E+02  0.12504795356E+02  0.18002381516E+02  0.51100000000E-03 0.  1.
        -12    1    3    3    0    0 -0.68234902010E+01  0.74594420382E+01 -0.13298977299E+01  0.10196662298E+02  0.00000000000E+00 0.  1.
</event>
<event>
 7    1  0.2653124E-010  0.4778726E+02  0.7816164E-02  0.1312668E+00
        -11   -1    0    0    0    0  0.00000000000E+00  0.00000000000E+00  0.45593999997E+02  0.45594000000E+02  0.51100000000E-03 0.  1.
         11   -1    0    0    0    0 -0.00000000000E+00 -0.00000000000E+00 -0.45593999997E+02  0.45594000000E+02  0.51100000000E-03 0. -1.
    9900012    2    1    2    0    0  0.35453901304E+01  0.27858065467E+01  0.43165889231E+02  0.47787256891E+02  0.19999935470E+02 0.  0.
         12    1    1    2    0    0 -0.35453901304E+01 -0.27858065467E+01 -0.43165889231E+02  0.43400743109E+02  0.00000000000E+00 0. -1.
         11    1    3    3    0    0  0.17753783143E+01 -0.35095957631E+01  0.42741642407E+01  0.58084172368E+01  0.51100000000E-03 0. -1.
        -11    1    3    3    0    0  0.73263735792E+01  0.58569302970E+01  0.17298073736E+02  0.19677467763E+02  0.51100000000E-03 0.  1.
         12    1    3    3    0    0 -0.55563617631E+01  0.43847201276E+00  0.21593651254E+02  0.22301371891E+02  0.00000000000E+00 0. -1.
</event>
<event>
 7    1  0.2653124E-010  0.4778727E+02  0.7816164E-02  0.1312668E+00
        -11   -1    0    0    0    0  0.00000000000E+00  0.00000000000E+00  0.45593999997E+02  0.45594000000E+02  0.51100000000E-03 0.  1.
         11   -1    0    0    0    0 -0.00000000000E+00 -0.00000000000E+00 -0.45593999997E+02  0.45594000000E+02  0.51100000000E-03 0. -1.
    9900012    2    1    2    0    0 -0.17590136954E+02 -0.28262915615E+02  0.27846329274E+02  0.47787269923E+02  0.19999994888E+02 0.  0.
         12    1    1    2    0    0  0.17590136954E+02  0.28262915615E+02 -0.27846329274E+02  0.43400730077E+02  0.00000000000E+00 0. -1.
         11    1    3    3    0    0 -0.27274541598E+01 -0.49191137429E+01  0.10672011138E+02  0.12063519727E+02  0.51100000000E-03 0. -1.
        -11    1    3    3    0    0 -0.10023958847E+01 -0.83711223305E+01  0.12015854003E+02  0.14678597831E+02  0.51100000000E-03 0.  1.
        -12    1    3    3    0    0 -0.13860286910E+02 -0.14972679542E+02  0.51584641330E+01  0.21045152366E+02  0.00000000000E+00 0.  1.
</event>
<event>
 7    1  0.2653124E-010  0.4778728E+02  0.7816164E-02  0.1312668E+00
        -11   -1    0    0    0    0  0.00000000000E+00  0.00000000000E+00  0.45593999997E+02  0.45594000000E+02  0.51100000000E-03 0.  1.
         11   -1    0    0    0    0 -0.00000000000E+00 -0.00000000000E+00 -0.45593999997E+02  0.45594000000E+02  0.51100000000E-03 0. -1.
    9900012    2    1    2    0    0  0.39325783993E+02 -0.81574522676E+01  0.16448756277E+02  0.47787275384E+02  0.20000019784E+02 0.  0.
         12    1    1    2    0    0 -0.39325783993E+02  0.81574522676E+01 -0.16448756277E+02  0.43400724616E+02  0.00000000000E+00 0. -1.
         11    1    3    3    0    0  0.80922959382E+01  0.47443942720E+00  0.39051596303E+00  0.81155929727E+01  0.51100000000E-03 0. -1.
        -11    1    3    3    0    0  0.28136824653E+02 -0.41341004736E+01  0.18246154508E+02  0.33788960370E+02  0.51100000000E-03 0.  1.
         12    1    3    3    0    0  0.30966634019E+01 -0.44977912212E+01 -0.21879141937E+01  0.58827220411E+01  0.00000000000E+00 0. -1.
</event>
<event>
 7    1  0.2653124E-010  0.4778725E+02  0.7816164E-02  0.1312668E+00
        -11   -1    0    0    0    0  0.00000000000E+00  0.00000000000E+00  0.45593999997E+02  0.45594000000E+02  0.51100000000E-03 0. -1.
         11   -1    0    0    0    0 -0.00000000000E+00 -0.00000000000E+00 -0.45593999997E+02  0.45594000000E+02  0.51100000000E-03 0.  1.
    9900012    2    1    2    0    0 -0.42876925827E+02 -0.18669127564E+01 -0.64582454700E+01  0.47787250397E+02  0.19999905858E+02 0.  0.
         12    1    1    2    0    0  0.42876925827E+02  0.18669127564E+01  0.64582454700E+01  0.43400749603E+02  0.00000000000E+00 0. -1.
         11    1    3    3    0    0 -0.16369832845E+02 -0.33966764017E+01  0.31521096450E+01  0.17013072428E+02  0.51100000000E-03 0. -1.
        -11    1    3    3    0    0 -0.62438413266E+00 -0.29021418707E+01 -0.77234288394E+00  0.30673762036E+01  0.51100000000E-03 0.  1.
        -12    1    3    3    0    0 -0.25882708849E+02  0.44319055160E+01 -0.88380122311E+01  0.27706801765E+02  0.00000000000E+00 0.  1.
</event>
<event>
 7    1  0.2724856E-010  0.4778727E+02  0.7816164E-02  0.1312668E+00
        -11   -1    0    0    0    0  0.00000000000E+00  0.00000000000E+00  0.45593999997E+02  0.45594000000E+02  0.51100000000E-03 0. -1.
         11   -1    0    0    0    0 -0.00000000000E+00 -0.00000000000E+00 -0.45593999997E+02  0.45594000000E+02  0.51100000000E-03 0.  1.
    9900012    2    1    2    0    0  0.39293237146E+02  0.16224083261E+02 -0.87432257448E+01  0.47787270058E+02  0.19999995502E+02 0.  0.
         12    1    1    2    0    0 -0.39293237146E+02 -0.16224083261E+02  0.87432257448E+01  0.43400729942E+02  0.00000000000E+00 0. -1.
         11    1    3    3    0    0  0.14899713122E+02  0.10682928360E+02 -0.20075449324E+01  0.18443336097E+02  0.51100000000E-03 0. -1.
        -11    1    3    3    0    0  0.22482805944E+02  0.92549023674E+01 -0.64686171193E+01  0.25158950468E+02  0.51100000000E-03 0.  1.
         12    1    3    3    0    0  0.19107180802E+01 -0.37137474660E+01 -0.26706369313E+00  0.41849834933E+01  0.00000000000E+00 0. -1.
</event>
<event>
 7    1  0.2653124E-010  0.4778727E+02  0.7816164E-02  0.1312668E+00
        -11   -1    0    0    0    0  0.00000000000E+00  0.00000000000E+00  0.45593999997E+02  0.45594000000E+02  0.51100000000E-03 0.  1.
         11   -1    0    0    0    0 -0.00000000000E+00 -0.00000000000E+00 -0.45593999997E+02  0.45594000000E+02  0.51100000000E-03 0. -1.
    9900012    2    1    2    0    0 -0.26205032300E+01 -0.11559187096E+02  0.41750945603E+02  0.47787270717E+02  0.19999998508E+02 0.  0.
         12    1    1    2    0    0  0.26205032300E+01  0.11559187096E+02 -0.41750945603E+02  0.43400729283E+02  0.00000000000E+00 0. -1.
         11    1    3    3    0    0 -0.42498334948E+01 -0.30641606768E+01  0.11999325968E+02  0.13093280312E+02  0.51100000000E-03 0. -1.
        -11    1    3    3    0    0 -0.51105533237E+01 -0.57559991928E+00  0.29117593085E+01  0.59099418840E+01  0.51100000000E-03 0.  1.
        -12    1    3    3    0    0  0.67398835885E+01 -0.79194265002E+01  0.26839860327E+02  0.28784048521E+02  0.00000000000E+00 0.  1.
</event>
<event>
 7    1  0.2653124E-010  0.4778727E+02  0.7816164E-02  0.1312668E+00
        -11   -1    0    0    0    0  0.00000000000E+00  0.00000000000E+00  0.45593999997E+02  0.45594000000E+02  0.51100000000E-03 0. -1.
         11   -1    0    0    0    0 -0.00000000000E+00 -0.00000000000E+00 -0.45593999997E+02  0.45594000000E+02  0.51100000000E-03 0.  1.
    9900012    2    1    2    0    0 -0.80160505450E+01 -0.37831556937E+02  0.19701261511E+02  0.47787268765E+02  0.19999989608E+02 0.  0.
         12    1    1    2    0    0  0.80160505450E+01  0.37831556937E+02 -0.19701261511E+02  0.43400731235E+02  0.00000000000E+00 0. -1.
         11    1    3    3    0    0  0.64802772749E+00 -0.53934894996E+01  0.76594165047E+01  0.93902252567E+01  0.51100000000E-03 0. -1.
        -11    1    3    3    0    0 -0.20473465368E+01 -0.18781967197E+02  0.13398440983E+02  0.23161868246E+02  0.51100000000E-03 0.  1.
        -12    1    3    3    0    0 -0.66167317357E+01 -0.13656100240E+02 -0.13565959767E+01  0.15235175262E+02  0.00000000000E+00 0.  1.
</event>
<event>
 7    1  0.2653124E-010  0.4778727E+02  0.7816164E-02  0.1312668E+00
        -11   -1    0    0    0    0  0.00000000000E+00  0.00000000000E+00  0.45593999997E+02  0.45594000000E+02  0.51100000000E-03 0.  1.
         11   -1    0    0    0    0 -0.00000000000E+00 -0.00000000000E+00 -0.45593999997E+02  0.45594000000E+02  0.51100000000E-03 0. -1.
    9900012    2    1    2    0    0  0.14659656483E+01  0.17695302926E+02  0.39602406517E+02  0.47787269558E+02  0.19999993224E+02 0.  0.
         12    1    1    2    0    0 -0.14659656483E+01 -0.17695302926E+02 -0.39602406517E+02  0.43400730442E+02  0.00000000000E+00 0. -1.
         11    1    3    3    0    0 -0.28201578156E+01  0.23258680842E+01  0.46493322604E+00  0.36849851582E+01  0.51100000000E-03 0. -1.
        -11    1    3    3    0    0 -0.17632348047E+01  0.35202337450E+01  0.15525618086E+01  0.42321969503E+01  0.51100000000E-03 0.  1.
        -12    1    3    3    0    0  0.60493582686E+01  0.11849201097E+02  0.37584911483E+02  0.39870087450E+02  0.00000000000E+00 0.  1.
</event>
<event>
 7    1  0.2653124E-010  0.4778727E+02  0.7816164E-02  0.1312668E+00
        -11   -1    0    0    0    0  0.00000000000E+00  0.00000000000E+00  0.45593999997E+02  0.45594000000E+02  0.51100000000E-03 0.  1.
         11   -1    0    0    0    0 -0.00000000000E+00 -0.00000000000E+00 -0.45593999997E+02  0.45594000000E+02  0.51100000000E-03 0. -1.
    9900012    2    1    2    0    0 -0.43200700861E+02 -0.41389728014E+01  0.43752560007E+00  0.47787273285E+02  0.20000010214E+02 0.  0.
         12    1    1    2    0    0  0.43200700861E+02  0.41389728014E+01 -0.43752560007E+00  0.43400726715E+02  0.00000000000E+00 0. -1.
         11    1    3    3    0    0 -0.93289721153E+01  0.33856879958E+01 -0.44767326380E+01  0.10887320116E+02  0.51100000000E-03 0.  1.
        -11    1    3    3    0    0 -0.33705871188E+01  0.17524763442E+00 -0.29401858699E+01  0.44761883862E+01  0.51100000000E-03 0. -1.
        -12    1    3    3    0    0 -0.30501141627E+02 -0.76999084317E+01  0.78544441079E+01  0.32423764783E+02  0.00000000000E+00 0.  1.
</event>
<event>
 7    1  0.2653124E-010  0.4778728E+02  0.7816164E-02  0.1312668E+00
        -11   -1    0    0    0    0  0.00000000000E+00  0.00000000000E+00  0.45593999997E+02  0.45594000000E+02  0.51100000000E-03 0.  1.
         11   -1    0    0    0    0 -0.00000000000E+00 -0.00000000000E+00 -0.45593999997E+02  0.45594000000E+02  0.51100000000E-03 0. -1.
    9900012    2    1    2    0    0  0.41352553384E+02  0.55745346594E+01  0.11937914413E+02  0.47787275253E+02  0.20000019190E+02 0.  0.
         12    1    1    2    0    0 -0.41352553384E+02 -0.55745346594E+01 -0.11937914413E+02  0.43400724747E+02  0.00000000000E+00 0. -1.
         11    1    3    3    0    0  0.18600341057E+02 -0.49490560783E+01  0.58140365131E+01  0.20106438381E+02  0.51100000000E-03 0. -1.
        -11    1    3    3    0    0  0.14963958521E+02  0.15287393910E+01  0.42949846487E+01  0.15643017361E+02  0.51100000000E-03 0.  1.
        -12    1    3    3    0    0  0.77882538048E+01  0.89948513467E+01  0.18288932509E+01  0.12037819512E+02  0.00000000000E+00 0.  1.
</event>
<event>
 7    1  0.2653124E-010  0.4778727E+02  0.7816164E-02  0.1312668E+00
        -11   -1    0    0    0    0  0.00000000000E+00  0.00000000000E+00  0.45593999997E+02  0.45594000000E+02  0.51100000000E-03 0.  1.
         11   -1    0    0    0    0 -0.00000000000E+00 -0.00000000000E+00 -0.45593999997E+02  0.45594000000E+02  0.51100000000E-03 0. -1.
    9900012    2    1    2    0    0  0.67962062941E+01 -0.34166775961E+02  0.25885636515E+02  0.47787272156E+02  0.20000005070E+02 0.  0.
         12    1    1    2    0    0 -0.67962062941E+01  0.34166775961E+02 -0.25885636515E+02  0.43400727844E+02  0.00000000000E+00 0. -1.
         11    1    3    3    0    0  0.56549942156E+01 -0.99058709606E+01  0.58173683134E+01  0.12804179529E+02  0.51100000000E-03 0. -1.
        -11    1    3    3    0    0  0.71553485279E+00  0.38897358317E+00 -0.18333790426E+01  0.20061329839E+01  0.51100000000E-03 0.  1.
        -12    1    3    3    0    0  0.42567722572E+00 -0.24649878584E+02  0.21901647244E+02  0.32976959643E+02  0.00000000000E+00 0.  1.
</event>
<event>
 7    1  0.2653124E-010  0.4778727E+02  0.7816164E-02  0.1312668E+00
        -11   -1    0    0    0    0  0.00000000000E+00  0.00000000000E+00  0.45593999997E+02  0.45594000000E+02  0.51100000000E-03 0.  1.
         11   -1    0    0    0    0 -0.00000000000E+00 -0.00000000000E+00 -0.45593999997E+02  0.45594000000E+02  0.51100000000E-03 0. -1.
    9900012    2    1    2    0    0 -0.33567834321E+02 -0.12693526307E+02  0.24406932384E+02  0.47787268906E+02  0.19999990252E+02 0.  0.
         12    1    1    2    0    0  0.33567834321E+02  0.12693526307E+02 -0.24406932384E+02  0.43400731094E+02  0.00000000000E+00 0. -1.
         11    1    3    3    0    0 -0.11457884514E+02  0.39160056270E+01  0.10242612608E+02  0.15859676255E+02  0.51100000000E-03 0. -1.
        -11    1    3    3    0    0 -0.21415068952E+01  0.58933640540E+00  0.15615152068E+01  0.27150873252E+01  0.51100000000E-03 0.  1.
        -12    1    3    3    0    0 -0.19968442911E+02 -0.17198868339E+02  0.12602804569E+02  0.29212505326E+02  0.00000000000E+00 0.  1.
</event>
<event>
 7    1  0.2653124E-010  0.4778727E+02  0.7816164E-02  0.1312668E+00
        -11   -1    0    0    0    0  0.00000000000E+00  0.00000000000E+00  0.45593999997E+02  0.45594000000E+02  0.51100000000E-03 0.  1.
         11   -1    0    0    0    0 -0.00000000000E+00 -0.00000000000E+00 -0.45593999997E+02  0.45594000000E+02  0.51100000000E-03 0. -1.
    9900012    2    1    2    0    0 -0.18616156592E+01  0.42197898624E+02  0.99747178174E+01  0.47787271243E+02  0.20000000904E+02 0.  0.
         12    1    1    2    0    0  0.18616156592E+01 -0.42197898624E+02 -0.99747178174E+01  0.43400728757E+02  0.00000000000E+00 0. -1.
         11    1    3    3    0    0 -0.21474449004E+01  0.10132177720E+02  0.22087006286E+01  0.10590132373E+02  0.51100000000E-03 0. -1.
        -11    1    3    3    0    0 -0.55203981080E+01  0.29525421183E+02  0.65853866521E+01  0.30750489572E+02  0.51100000000E-03 0.  1.
         12    1    3    3    0    0  0.58062273492E+01  0.25402997206E+01  0.11806305368E+01  0.64466492975E+01  0.00000000000E+00 0. -1.
</event>
<event>
 7    1  0.2653124E-010  0.4778727E+02  0.7816164E-02  0.1312668E+00
        -11   -1    0    0    0    0  0.00000000000E+00  0.00000000000E+00  0.45593999997E+02  0.45594000000E+02  0.51100000000E-03 0.  1.
         11   -1    0    0    0    0 -0.00000000000E+00 -0.00000000000E+00 -0.45593999997E+02  0.45594000000E+02  0.51100000000E-03 0. -1.
    9900012    2    1    2    0    0  0.20512487604E+01 -0.22270574259E+02  0.37194583726E+02  0.47787272381E+02  0.20000006094E+02 0.  0.
         12    1    1    2    0    0 -0.20512487604E+01  0.22270574259E+02 -0.37194583726E+02  0.43400727619E+02  0.00000000000E+00 0. -1.
         11    1    3    3    0    0  0.20688717485E+01 -0.13511353067E+02  0.16395132164E+02  0.21345661174E+02  0.51100000000E-03 0. -1.
        -11    1    3    3    0    0 -0.23100988584E+01 -0.12042199906E+02  0.16618583509E+02  0.20652565299E+02  0.51100000000E-03 0.  1.
         12    1    3    3    0    0  0.22924758703E+01  0.32829787139E+01  0.41808680526E+01  0.57890459080E+01  0.00000000000E+00 0. -1.
</event>
<event>
 7    1  0.2653124E-010  0.4778727E+02  0.7816164E-02  0.1312668E+00
        -11   -1    0    0    0    0  0.00000000000E+00  0.00000000000E+00  0.45593999997E+02  0.45594000000E+02  0.51100000000E-03 0.  1.
         11   -1    0    0    0    0 -0.00000000000E+00 -0.00000000000E+00 -0.45593999997E+02  0.45594000000E+02  0.51100000000E-03 0. -1.
    9900012    2    1    2    0    0 -0.71455461515E+01 -0.20387480275E+02  0.37641931227E+02  0.47787272261E+02  0.20000005549E+02 0.  0.
         12    1    1    2    0    0  0.71455461515E+01  0.20387480275E+02 -0.37641931227E+02  0.43400727739E+02  0.00000000000E+00 0. -1.
         11    1    3    3    0    0 -0.29010612051E+01 -0.24170726292E+01  0.17071250317E+01  0.41439923197E+01  0.51100000000E-03 0. -1.
        -11    1    3    3    0    0 -0.88747590248E+01 -0.82663243811E+01  0.10547972852E+02  0.16073369219E+02  0.51100000000E-03 0.  1.
        -12    1    3    3    0    0  0.46302740784E+01 -0.97040832647E+01  0.25386833343E+02  0.27569910722E+02  0.00000000000E+00 0.  1.
</event>
<event>
 7    1  0.2653124E-010  0.4778728E+02  0.7816164E-02  0.1312668E+00
        -11   -1    0    0    0    0  0.00000000000E+00  0.00000000000E+00  0.45593999997E+02  0.45594000000E+02  0.51100000000E-03 0. -1.
         11   -1    0    0    0    0 -0.00000000000E+00 -0.00000000000E+00 -0.45593999997E+02  0.45594000000E+02  0.51100000000E-03 0.  1.
    9900012    2    1    2    0    0 -0.23310363724E+02 -0.36190306907E+02 -0.55237199735E+01  0.47787275889E+02  0.20000022090E+02 0.  0.
         12    1    1    2    0    0  0.23310363724E+02  0.36190306907E+02  0.55237199735E+01  0.43400724111E+02  0.00000000000E+00 0. -1.
         11    1    3    3    0    0 -0.75793649187E+01 -0.27606270722E+01 -0.11444358451E+01  0.81472429734E+01  0.51100000000E-03 0. -1.
        -11    1    3    3    0    0 -0.98067238639E+01 -0.14778902227E+02 -0.84585461000E+01  0.19650312627E+02  0.51100000000E-03 0.  1.
         12    1    3    3    0    0 -0.59242749415E+01 -0.18650777608E+02  0.40792619717E+01  0.19989720288E+02  0.00000000000E+00 0. -1.
</event>
<event>
 7    1  0.2653124E-010  0.4778727E+02  0.7816164E-02  0.1312668E+00
        -11   -1    0    0    0    0  0.00000000000E+00  0.00000000000E+00  0.45593999997E+02  0.45594000000E+02  0.51100000000E-03 0.  1.
         11   -1    0    0    0    0 -0.00000000000E+00 -0.00000000000E+00 -0.45593999997E+02  0.45594000000E+02  0.51100000000E-03 0. -1.
    9900012    2    1    2    0    0 -0.22548975872E+02 -0.27322326363E+02  0.25073044132E+02  0.47787269905E+02  0.19999994803E+02 0.  0.
         12    1    1    2    0    0  0.22548975872E+02  0.27322326363E+02 -0.25073044132E+02  0.43400730095E+02  0.00000000000E+00 0. -1.
         11    1    3    3    0    0 -0.77960265314E+01 -0.79087553053E+01  0.14037615832E+01  0.11193613670E+02  0.51100000000E-03 0. -1.
        -11    1    3    3    0    0 -0.14669921205E+02 -0.18043520771E+02  0.14680687418E+02  0.27500869319E+02  0.51100000000E-03 0.  1.
        -12    1    3    3    0    0 -0.83028136186E-01 -0.13700502861E+01  0.89885951311E+01  0.90927869154E+01  0.00000000000E+00 0.  1.
</event>
<event>
 7    1  0.2653124E-010  0.4778727E+02  0.7816164E-02  0.1312668E+00
        -11   -1    0    0    0    0  0.00000000000E+00  0.00000000000E+00  0.45593999997E+02  0.45594000000E+02  0.51100000000E-03 0.  1.
         11   -1    0    0    0    0 -0.00000000000E+00 -0.00000000000E+00 -0.45593999997E+02  0.45594000000E+02  0.51100000000E-03 0. -1.
    9900012    2    1    2    0    0 -0.30567475622E+02  0.30778163890E+02 -0.13990694227E+01  0.47787270356E+02  0.19999996862E+02 0.  0.
         12    1    1    2    0    0  0.30567475622E+02 -0.30778163890E+02  0.13990694227E+01  0.43400729644E+02  0.00000000000E+00 0. -1.
         11    1    3    3    0    0 -0.21969943644E+02  0.21375574387E+02 -0.14877376930E+01  0.30688873681E+02  0.51100000000E-03 0. -1.
        -11    1    3    3    0    0 -0.35418931941E+01  0.10648016142E+02  0.22772002392E+01  0.11450366647E+02  0.51100000000E-03 0.  1.
         12    1    3    3    0    0 -0.50556387839E+01 -0.12454266386E+01 -0.21885319689E+01  0.56480300286E+01  0.00000000000E+00 0. -1.
</event>
<event>
 7    1  0.2653124E-010  0.4778727E+02  0.7816164E-02  0.1312668E+00
        -11   -1    0    0    0    0  0.00000000000E+00  0.00000000000E+00  0.45593999997E+02  0.45594000000E+02  0.51100000000E-03 0. -1.
         11   -1    0    0    0    0 -0.00000000000E+00 -0.00000000000E+00 -0.45593999997E+02  0.45594000000E+02  0.51100000000E-03 0.  1.
    9900012    2    1    2    0    0  0.40415715626E+02 -0.14567108508E+02 -0.61637826916E+01  0.47787274927E+02  0.20000017701E+02 0.  0.
         12    1    1    2    0    0 -0.40415715626E+02  0.14567108508E+02  0.61637826916E+01  0.43400725073E+02  0.00000000000E+00 0. -1.
         11    1    3    3    0    0 -0.41587793711E+00 -0.26231523313E+01 -0.14159280359E+01  0.30097732599E+01  0.51100000000E-03 0. -1.
        -11    1    3    3    0    0  0.87210946381E+01 -0.49605360210E+00 -0.61102311417E+01  0.10660135352E+02  0.51100000000E-03 0.  1.
        -12    1    3    3    0    0  0.32110498925E+02 -0.11447902574E+02  0.13623764860E+01  0.34117366314E+02  0.00000000000E+00 0.  1.
</event>
<event>
 7    1  0.2653124E-010  0.4778728E+02  0.7816164E-02  0.1312668E+00
        -11   -1    0    0    0    0  0.00000000000E+00  0.00000000000E+00  0.45593999997E+02  0.45594000000E+02  0.51100000000E-03 0. -1.
         11   -1    0    0    0    0 -0.00000000000E+00 -0.00000000000E+00 -0.45593999997E+02  0.45594000000E+02  0.51100000000E-03 0.  1.
    9900012    2    1    2    0    0  0.18164267791E+02  0.37352538020E+02  0.12588483735E+02  0.47787278304E+02  0.20000033101E+02 0.  0.
         12    1    1    2    0    0 -0.18164267791E+02 -0.37352538020E+02 -0.12588483735E+02  0.43400721696E+02  0.00000000000E+00 0. -1.
         11    1    3    3    0    0  0.12750754126E+02  0.15536470212E+02  0.40394065074E+00  0.20102905405E+02  0.51100000000E-03 0. -1.
        -11    1    3    3    0    0 -0.14953770293E+01 -0.14257364643E+00 -0.24683550837E+00  0.15223034303E+01  0.51100000000E-03 0.  1.
        -12    1    3    3    0    0  0.69088906945E+01  0.21958641455E+02  0.12431378593E+02  0.26162069469E+02  0.00000000000E+00 0.  1.
</event>
<event>
 7    1  0.2653124E-010  0.4778727E+02  0.7816164E-02  0.1312668E+00
        -11   -1    0    0    0    0  0.00000000000E+00  0.00000000000E+00  0.45593999997E+02  0.45594000000E+02  0.51100000000E-03 0.  1.
         11   -1    0    0    0    0 -0.00000000000E+00 -0.00000000000E+00 -0.45593999997E+02  0.45594000000E+02  0.51100000000E-03 0. -1.
    9900012    2    1    2    0    0  0.24246834238E+02 -0.31459200167E+02 -0.17493800066E+02  0.47787270899E+02  0.19999999338E+02 0.  0.
         12    1    1    2    0    0 -0.24246834238E+02  0.31459200167E+02  0.17493800066E+02  0.43400729101E+02  0.00000000000E+00 0. -1.
         11    1    3    3    0    0  0.72728522756E+01 -0.11618637901E+02 -0.40701226947E+01  0.14298707141E+02  0.51100000000E-03 0. -1.
        -11    1    3    3    0    0  0.81363217536E+01 -0.12654400191E+02  0.10375010253E+01  0.15080118850E+02  0.51100000000E-03 0.  1.
         12    1    3    3    0    0  0.88376602086E+01 -0.71861620751E+01 -0.14461178396E+02  0.18408444908E+02  0.00000000000E+00 0. -1.
</event>
<event>
 7    1  0.2653124E-010  0.4778727E+02  0.7816164E-02  0.1312668E+00
        -11   -1    0    0    0    0  0.00000000000E+00  0.00000000000E+00  0.45593999997E+02  0.45594000000E+02  0.51100000000E-03 0.  1.
         11   -1    0    0    0    0 -0.00000000000E+00 -0.00000000000E+00 -0.45593999997E+02  0.45594000000E+02  0.51100000000E-03 0. -1.
    9900012    2    1    2    0    0  0.30582155761E+02 -0.27053038601E+02 -0.14713534318E+02  0.47787271427E+02  0.20000001744E+02 0.  0.
         12    1    1    2    0    0 -0.30582155761E+02  0.27053038601E+02  0.14713534318E+02  0.43400728573E+02  0.00000000000E+00 0. -1.
         11    1    3    3    0    0  0.21986188282E+01 -0.22863134350E+01 -0.49977337880E+01  0.59193324921E+01  0.51100000000E-03 0. -1.
        -11    1    3    3    0    0 -0.24092126537E+00 -0.61526068022E+01 -0.37408718209E+01  0.72046329372E+01  0.51100000000E-03 0.  1.
        -12    1    3    3    0    0  0.28624458198E+02 -0.18614118364E+02 -0.59749287089E+01  0.34663305998E+02  0.00000000000E+00 0.  1.
</event>
<event>
 7    1  0.2653124E-010  0.4778727E+02  0.7816164E-02  0.1312668E+00
        -11   -1    0    0    0    0  0.00000000000E+00  0.00000000000E+00  0.45593999997E+02  0.45594000000E+02  0.51100000000E-03 0.  1.
         11   -1    0    0    0    0 -0.00000000000E+00 -0.00000000000E+00 -0.45593999997E+02  0.45594000000E+02  0.51100000000E-03 0. -1.
    9900012    2    1    2    0    0 -0.24244744694E+02 -0.35658211025E+02 -0.49302502000E+01  0.47787273902E+02  0.20000013030E+02 0.  0.
         12    1    1    2    0    0  0.24244744694E+02  0.35658211025E+02  0.49302502000E+01  0.43400726098E+02  0.00000000000E+00 0. -1.
         11    1    3    3    0    0  0.13462541988E+01 -0.69290651359E+01 -0.15136439822E+01  0.72191039881E+01  0.51100000000E-03 0. -1.
        -11    1    3    3    0    0 -0.11310925802E+02 -0.20976305368E+02 -0.46182203709E+01  0.24274892153E+02  0.51100000000E-03 0.  1.
        -12    1    3    3    0    0 -0.14280073091E+02 -0.77528405207E+01  0.12016141531E+01  0.16293277761E+02  0.00000000000E+00 0.  1.
</event>
<event>
 7    1  0.2653124E-010  0.4778727E+02  0.7816164E-02  0.1312668E+00
        -11   -1    0    0    0    0  0.00000000000E+00  0.00000000000E+00  0.45593999997E+02  0.45594000000E+02  0.51100000000E-03 0. -1.
         11   -1    0    0    0    0 -0.00000000000E+00 -0.00000000000E+00 -0.45593999997E+02  0.45594000000E+02  0.51100000000E-03 0.  1.
    9900012    2    1    2    0    0 -0.31725865001E+02  0.26843924847E+02 -0.12509854674E+02  0.47787271029E+02  0.19999999928E+02 0.  0.
         12    1    1    2    0    0  0.31725865001E+02 -0.26843924847E+02  0.12509854674E+02  0.43400728971E+02  0.00000000000E+00 0. -1.
         11    1    3    3    0    0 -0.24389611259E+01  0.94654103563E+01 -0.69699895091E+01  0.12005135510E+02  0.51100000000E-03 0.  1.
        -11    1    3    3    0    0 -0.60006692000E+01  0.65902646911E+01  0.17924722867E+01  0.90913462538E+01  0.51100000000E-03 0. -1.
        -12    1    3    3    0    0 -0.23286234675E+02  0.10788249800E+02 -0.73323374517E+01  0.26690789265E+02  0.00000000000E+00 0.  1.
</event>
<event>
 7    1  0.2653124E-010  0.4778727E+02  0.7816164E-02  0.1312668E+00
        -11   -1    0    0    0    0  0.00000000000E+00  0.00000000000E+00  0.45593999997E+02  0.45594000000E+02  0.51100000000E-03 0. -1.
         11   -1    0    0    0    0 -0.00000000000E+00 -0.00000000000E+00 -0.45593999997E+02  0.45594000000E+02  0.51100000000E-03 0.  1.
    9900012    2    1    2    0    0 -0.85013437915E+01 -0.42466545002E+02  0.28182875095E+01  0.47787273794E+02  0.20000012537E+02 0.  0.
         12    1    1    2    0    0  0.85013437915E+01  0.42466545002E+02 -0.28182875095E+01  0.43400726206E+02  0.00000000000E+00 0. -1.
         11    1    3    3    0    0 -0.43177143001E+01 -0.11228689517E+01 -0.61997356281E+00  0.45042045846E+01  0.51100000000E-03 0. -1.
        -11    1    3    3    0    0  0.19870328231E+01 -0.82075366363E+00  0.33375366854E+00  0.21756212420E+01  0.51100000000E-03 0.  1.
        -12    1    3    3    0    0 -0.61706623144E+01 -0.40522922387E+02  0.31045074038E+01  0.41107447968E+02  0.00000000000E+00 0.  1.
</event>
<event>
 7    1  0.2653124E-010  0.4778727E+02  0.7816164E-02  0.1312668E+00
        -11   -1    0    0    0    0  0.00000000000E+00  0.00000000000E+00  0.45593999997E+02  0.45594000000E+02  0.51100000000E-03 0.  1.
         11   -1    0    0    0    0 -0.00000000000E+00 -0.00000000000E+00 -0.45593999997E+02  0.45594000000E+02  0.51100000000E-03 0. -1.
    9900012    2    1    2    0    0  0.18699834230E+02  0.21632338975E+02  0.32649366812E+02  0.47787273704E+02  0.20000012125E+02 0.  0.
         12    1    1    2    0    0 -0.18699834230E+02 -0.21632338975E+02 -0.32649366812E+02  0.43400726296E+02  0.00000000000E+00 0. -1.
         11    1    3    3    0    0 -0.38956239653E+00  0.10439297120E+02  0.14120337129E+02  0.17564583802E+02  0.51100000000E-03 0. -1.
        -11    1    3    3    0    0  0.27059611708E+01  0.21310440873E+01 -0.55424745204E+00  0.34886623883E+01  0.51100000000E-03 0.  1.
        -12    1    3    3    0    0  0.16383435456E+02  0.90619977680E+01  0.19083277135E+02  0.26734027514E+02  0.00000000000E+00 0.  1.
</event>
<event>
 7    1  0.2653124E-010  0.4778729E+02  0.7816164E-02  0.1312668E+00
        -11   -1    0    0    0    0  0.00000000000E+00  0.00000000000E+00  0.45593999997E+02  0.45594000000E+02  0.51100000000E-03 0.  1.
         11   -1    0    0    0    0 -0.00000000000E+00 -0.00000000000E+00 -0.45593999997E+02  0.45594000000E+02  0.51100000000E-03 0. -1.
    9900012    2    1    2    0    0  0.13183733955E+02 -0.56111704108E+01  0.40967368298E+02  0.47787293328E+02  0.20000101600E+02 0.  0.
         12    1    1    2    0    0 -0.13183733955E+02  0.56111704108E+01 -0.40967368298E+02  0.43400706672E+02  0.00000000000E+00 0. -1.
         11    1    3    3    0    0  0.45575406062E+01 -0.73732734354E+01  0.17148023319E+02  0.19214344682E+02  0.51100000000E-03 0. -1.
        -11    1    3    3    0    0  0.98795543952E+01  0.43153270922E+01  0.23311463543E+02  0.25683690852E+02  0.51100000000E-03 0.  1.
         12    1    3    3    0    0 -0.12533610464E+01 -0.25532240676E+01  0.50788143492E+00  0.28892577947E+01  0.00000000000E+00 0. -1.
</event>
<event>
 7    1  0.2653124E-010  0.4778727E+02  0.7816164E-02  0.1312668E+00
        -11   -1    0    0    0    0  0.00000000000E+00  0.00000000000E+00  0.45593999997E+02  0.45594000000E+02  0.51100000000E-03 0.  1.
         11   -1    0    0    0    0 -0.00000000000E+00 -0.00000000000E+00 -0.45593999997E+02  0.45594000000E+02  0.51100000000E-03 0. -1.
    9900012    2    1    2    0    0 -0.42375988081E+02  0.58019817514E+00 -0.93574857862E+01  0.47787268025E+02  0.19999986233E+02 0.  0.
         12    1    1    2    0    0  0.42375988081E+02 -0.58019817514E+00  0.93574857862E+01  0.43400731975E+02  0.00000000000E+00 0. -1.
         11    1    3    3    0    0  0.27183972982E+00 -0.31296204778E+00 -0.15076666369E+01  0.15636179301E+01  0.51100000000E-03 0. -1.
        -11    1    3    3    0    0 -0.38557865985E+02  0.12950266966E+00 -0.11964810336E+02  0.40371803117E+02  0.51100000000E-03 0.  1.
         12    1    3    3    0    0 -0.40899618253E+01  0.76365755326E+00  0.41149911863E+01  0.58518469781E+01  0.00000000000E+00 0. -1.
</event>
<event>
 7    1  0.2653124E-010  0.4778727E+02  0.7816164E-02  0.1312668E+00
        -11   -1    0    0    0    0  0.00000000000E+00  0.00000000000E+00  0.45593999997E+02  0.45594000000E+02  0.51100000000E-03 0.  1.
         11   -1    0    0    0    0 -0.00000000000E+00 -0.00000000000E+00 -0.45593999997E+02  0.45594000000E+02  0.51100000000E-03 0. -1.
    9900012    2    1    2    0    0 -0.38210671292E+02  0.20073732037E+02  0.45401721110E+01  0.47787270959E+02  0.19999999611E+02 0.  0.
         12    1    1    2    0    0  0.38210671292E+02 -0.20073732037E+02 -0.45401721110E+01  0.43400729041E+02  0.00000000000E+00 0. -1.
         11    1    3    3    0    0 -0.49255149296E+01  0.22235886882E+01  0.52983737599E-01  0.54044288795E+01  0.51100000000E-03 0.  1.
        -11    1    3    3    0    0 -0.20135420808E+02  0.31645694550E+01 -0.42498052931E+01  0.20820915355E+02  0.51100000000E-03 0. -1.
         12    1    3    3    0    0 -0.13149735555E+02  0.14685573893E+02  0.87369936665E+01  0.21561926724E+02  0.00000000000E+00 0. -1.
</event>
<event>
 7    1  0.2770150E-010  0.4778727E+02  0.7816164E-02  0.1312668E+00
        -11   -1    0    0    0    0  0.00000000000E+00  0.00000000000E+00  0.45593999997E+02  0.45594000000E+02  0.51100000000E-03 0.  1.
         11   -1    0    0    0    0 -0.00000000000E+00 -0.00000000000E+00 -0.45593999997E+02  0.45594000000E+02  0.51100000000E-03 0. -1.
    9900012    2    1    2    0    0 -0.16037194929E+02 -0.23001093699E+02  0.33126747479E+02  0.47787270385E+02  0.19999996994E+02 0.  0.
         12    1    1    2    0    0  0.16037194929E+02  0.23001093699E+02 -0.33126747479E+02  0.43400729615E+02  0.00000000000E+00 0. -1.
         11    1    3    3    0    0 -0.97277928391E+01 -0.29981916911E+01  0.39790589888E+01  0.10929410672E+02  0.51100000000E-03 0. -1.
        -11    1    3    3    0    0 -0.61222207283E+01 -0.65515752010E+01  0.13700192748E+02  0.16373759673E+02  0.51100000000E-03 0.  1.
         12    1    3    3    0    0 -0.18718136193E+00 -0.13451326807E+02  0.15447495743E+02  0.20484100040E+02  0.00000000000E+00 0. -1.
</event>
<event>
 7    1  0.2653124E-010  0.4778729E+02  0.7816164E-02  0.1312668E+00
        -11   -1    0    0    0    0  0.00000000000E+00  0.00000000000E+00  0.45593999997E+02  0.45594000000E+02  0.51100000000E-03 0. -1.
         11   -1    0    0    0    0 -0.00000000000E+00 -0.00000000000E+00 -0.45593999997E+02  0.45594000000E+02  0.51100000000E-03 0.  1.
    9900012    2    1    2    0    0 -0.22227540006E+02 -0.12069778806E+02 -0.35268664215E+02  0.47787288362E+02  0.20000078958E+02 0.  0.
         12    1    1    2    0    0  0.22227540006E+02  0.12069778806E+02  0.35268664215E+02  0.43400711638E+02  0.00000000000E+00 0. -1.
         11    1    3    3    0    0 -0.17151692579E+02 -0.39374962739E+01 -0.15751631894E+02  0.23617754821E+02  0.51100000000E-03 0. -1.
        -11    1    3    3    0    0 -0.73928783664E+01 -0.40706969368E+01 -0.16697763009E+02  0.18709369681E+02  0.51100000000E-03 0.  1.
         12    1    3    3    0    0  0.23170309389E+01 -0.40615855955E+01 -0.28192693131E+01  0.54601638603E+01  0.00000000000E+00 0. -1.
</event>
<event>
 7    1  0.2653124E-010  0.4778727E+02  0.7816164E-02  0.1312668E+00
        -11   -1    0    0    0    0  0.00000000000E+00  0.00000000000E+00  0.45593999997E+02  0.45594000000E+02  0.51100000000E-03 0. -1.
         11   -1    0    0    0    0 -0.00000000000E+00 -0.00000000000E+00 -0.45593999997E+02  0.45594000000E+02  0.51100000000E-03 0.  1.
    9900012    2    1    2    0    0  0.29835922572E+02  0.29972350112E+02  0.97518824120E+01  0.47787271232E+02  0.20000000857E+02 0.  0.
         12    1    1    2    0    0 -0.29835922572E+02 -0.29972350112E+02 -0.97518824120E+01  0.43400728768E+02  0.00000000000E+00 0. -1.
         11    1    3    3    0    0  0.66180287902E+01 -0.42489915394E+00  0.27418012815E+01  0.71760935674E+01  0.51100000000E-03 0. -1.
        -11    1    3    3    0    0  0.54506788831E+01  0.98902350663E+01  0.73532467866E+01  0.13475788976E+02  0.51100000000E-03 0.  1.
         12    1    3    3    0    0  0.17767214899E+02  0.20507014200E+02 -0.34316565610E+00  0.27135388689E+02  0.00000000000E+00 0. -1.
</event>
<event>
 7    1  0.2653124E-010  0.4778727E+02  0.7816164E-02  0.1312668E+00
        -11   -1    0    0    0    0  0.00000000000E+00  0.00000000000E+00  0.45593999997E+02  0.45594000000E+02  0.51100000000E-03 0. -1.
         11   -1    0    0    0    0 -0.00000000000E+00 -0.00000000000E+00 -0.45593999997E+02  0.45594000000E+02  0.51100000000E-03 0.  1.
    9900012    2    1    2    0    0  0.24723478801E+02 -0.27803024575E+02 -0.22346473623E+02  0.47787268867E+02  0.19999990071E+02 0.  0.
         12    1    1    2    0    0 -0.24723478801E+02  0.27803024575E+02  0.22346473623E+02  0.43400731133E+02  0.00000000000E+00 0. -1.
         11    1    3    3    0    0  0.14368348534E+01 -0.98389640115E+01 -0.10386260984E+02  0.14378599539E+02  0.51100000000E-03 0. -1.
        -11    1    3    3    0    0  0.58421644919E+01 -0.28726630984E+01 -0.74708509277E+01  0.99094244572E+01  0.51100000000E-03 0.  1.
        -12    1    3    3    0    0  0.17444479456E+02 -0.15091397465E+02 -0.44893617116E+01  0.23499244871E+02  0.00000000000E+00 0.  1.
</event>
<event>
 7    1  0.2653124E-010  0.4778727E+02  0.7816164E-02  0.1312668E+00
        -11   -1    0    0    0    0  0.00000000000E+00  0.00000000000E+00  0.45593999997E+02  0.45594000000E+02  0.51100000000E-03 0.  1.
         11   -1    0    0    0    0 -0.00000000000E+00 -0.00000000000E+00 -0.45593999997E+02  0.45594000000E+02  0.51100000000E-03 0. -1.
    9900012    2    1    2    0    0  0.28051457966E+02  0.33046700393E+02  0.21574691759E+01  0.47787269889E+02  0.19999994734E+02 0.  0.
         12    1    1    2    0    0 -0.28051457966E+02 -0.33046700393E+02 -0.21574691759E+01  0.43400730111E+02  0.00000000000E+00 0. -1.
         11    1    3    3    0    0  0.17951524005E+01 -0.57755373877E+00  0.28753156717E+01  0.34385434322E+01  0.51100000000E-03 0. -1.
        -11    1    3    3    0    0  0.22489746669E+01  0.11255013131E+02 -0.11254540954E+01  0.11532556300E+02  0.51100000000E-03 0.  1.
        -12    1    3    3    0    0  0.24007330898E+02  0.22369241001E+02  0.40760759955E+00  0.32816170157E+02  0.00000000000E+00 0.  1.
</event>
<event>
 7    1  0.2653124E-010  0.4778728E+02  0.7816164E-02  0.1312668E+00
        -11   -1    0    0    0    0  0.00000000000E+00  0.00000000000E+00  0.45593999997E+02  0.45594000000E+02  0.51100000000E-03 0. -1.
         11   -1    0    0    0    0 -0.00000000000E+00 -0.00000000000E+00 -0.45593999997E+02  0.45594000000E+02  0.51100000000E-03 0.  1.
    9900012    2    1    2    0    0  0.28594544473E+02  0.17410755032E+02 -0.27619566846E+02  0.47787276076E+02  0.20000022939E+02 0.  0.
         12    1    1    2    0    0 -0.28594544473E+02 -0.17410755032E+02  0.27619566846E+02  0.43400723924E+02  0.00000000000E+00 0. -1.
         11    1    3    3    0    0  0.34564326109E+01 -0.17913578406E+00  0.12073946889E+01  0.36656265793E+01  0.51100000000E-03 0. -1.
        -11    1    3    3    0    0 -0.15703069799E+01  0.12111077739E+01 -0.25513057524E+01  0.32313785533E+01  0.51100000000E-03 0.  1.
        -12    1    3    3    0    0  0.26708418842E+02  0.16378783043E+02 -0.26275655782E+02  0.40890270943E+02  0.00000000000E+00 0.  1.
</event>
<event>
 7    1  0.2653124E-010  0.4778727E+02  0.7816164E-02  0.1312668E+00
        -11   -1    0    0    0    0  0.00000000000E+00  0.00000000000E+00  0.45593999997E+02  0.45594000000E+02  0.51100000000E-03 0. -1.
         11   -1    0    0    0    0 -0.00000000000E+00 -0.00000000000E+00 -0.45593999997E+02  0.45594000000E+02  0.51100000000E-03 0.  1.
    9900012    2    1    2    0    0 -0.18430869676E+00  0.13570638914E+02 -0.41224105078E+02  0.47787273627E+02  0.20000011776E+02 0.  0.
         12    1    1    2    0    0  0.18430869676E+00 -0.13570638914E+02  0.41224105078E+02  0.43400726373E+02  0.00000000000E+00 0. -1.
         11    1    3    3    0    0  0.46050728535E+01  0.93901988416E+01 -0.23874258371E+02  0.26064587917E+02  0.51100000000E-03 0. -1.
        -11    1    3    3    0    0  0.58505373261E+00 -0.25035299684E+00 -0.13963090202E+02  0.13977583938E+02  0.51100000000E-03 0.  1.
         12    1    3    3    0    0 -0.53744352828E+01  0.44307930693E+01 -0.33867565043E+01  0.77451017715E+01  0.00000000000E+00 0. -1.
</event>
<event>
 7    1  0.2653124E-010  0.4778725E+02  0.7816164E-02  0.1312668E+00
        -11   -1    0    0    0    0  0.00000000000E+00  0.00000000000E+00  0.45593999997E+02  0.45594000000E+02  0.51100000000E-03 0. -1.
         11   -1    0    0    0    0 -0.00000000000E+00 -0.00000000000E+00 -0.45593999997E+02  0.45594000000E+02  0.51100000000E-03 0.  1.
    9900012    2    1    2    0    0  0.42369736972E+02 -0.73330041768E+01  0.58870446511E+01  0.47787252817E+02  0.19999916892E+02 0.  0.
         12    1    1    2    0    0 -0.42369736972E+02  0.73330041768E+01 -0.58870446511E+01  0.43400747183E+02  0.00000000000E+00 0. -1.
         11    1    3    3    0    0  0.59472743174E+01  0.32876076937E+01 -0.11937971827E+01  0.68995353559E+01  0.51100000000E-03 0. -1.
        -11    1    3    3    0    0  0.62865308004E+01  0.25050557751E+01  0.40294980572E+01  0.78760795320E+01  0.51100000000E-03 0.  1.
         12    1    3    3    0    0  0.30135931855E+02 -0.13125667646E+02  0.30513437766E+01  0.33011637929E+02  0.00000000000E+00 0. -1.
</event>
<event>
 7    1  0.2653124E-010  0.4778727E+02  0.7816164E-02  0.1312668E+00
        -11   -1    0    0    0    0  0.00000000000E+00  0.00000000000E+00  0.45593999997E+02  0.45594000000E+02  0.51100000000E-03 0. -1.
         11   -1    0    0    0    0 -0.00000000000E+00 -0.00000000000E+00 -0.45593999997E+02  0.45594000000E+02  0.51100000000E-03 0.  1.
    9900012    2    1    2    0    0  0.72629820597E+01  0.21497042877E+02 -0.36996613919E+02  0.47787271868E+02  0.20000003756E+02 0.  0.
         12    1    1    2    0    0 -0.72629820597E+01 -0.21497042877E+02  0.36996613919E+02  0.43400728132E+02  0.00000000000E+00 0. -1.
         11    1    3    3    0    0 -0.14544672654E+01  0.13792464864E+02 -0.87943895933E+01  0.16422206022E+02  0.51100000000E-03 0. -1.
        -11    1    3    3    0    0 -0.11856452618E+00  0.40777193657E+01 -0.10208779997E+02  0.10993681915E+02  0.51100000000E-03 0.  1.
        -12    1    3    3    0    0  0.88360138513E+01  0.36268586476E+01 -0.17993444329E+02  0.20371383931E+02  0.00000000000E+00 0.  1.
</event>
<event>
 7    1  0.2653124E-010  0.4778727E+02  0.7816164E-02  0.1312668E+00
        -11   -1    0    0    0    0  0.00000000000E+00  0.00000000000E+00  0.45593999997E+02  0.45594000000E+02  0.51100000000E-03 0. -1.
         11   -1    0    0    0    0 -0.00000000000E+00 -0.00000000000E+00 -0.45593999997E+02  0.45594000000E+02  0.51100000000E-03 0.  1.
    9900012    2    1    2    0    0  0.23852258167E+02  0.45266019222E-01 -0.36258669122E+02  0.47787270108E+02  0.19999995730E+02 0.  0.
         12    1    1    2    0    0 -0.23852258167E+02 -0.45266019222E-01  0.36258669122E+02  0.43400729892E+02  0.00000000000E+00 0. -1.
         11    1    3    3    0    0  0.19263680806E-01  0.77946849640E+00  0.10880772302E+01  0.13386017131E+01  0.51100000000E-03 0. -1.
        -11    1    3    3    0    0  0.68841724529E+01  0.57049062659E+01 -0.16913467156E+02  0.19131208989E+02  0.51100000000E-03 0.  1.
         12    1    3    3    0    0  0.16948822034E+02 -0.64391087431E+01 -0.20433279196E+02  0.27317459406E+02  0.00000000000E+00 0. -1.
</event>
<event>
 7    1  0.2653124E-010  0.4778727E+02  0.7816164E-02  0.1312668E+00
        -11   -1    0    0    0    0  0.00000000000E+00  0.00000000000E+00  0.45593999997E+02  0.45594000000E+02  0.51100000000E-03 0.  1.
         11   -1    0    0    0    0 -0.00000000000E+00 -0.00000000000E+00 -0.45593999997E+02  0.45594000000E+02  0.51100000000E-03 0. -1.
    9900012    2    1    2    0    0 -0.18380405787E+02 -0.72412970027E+01  0.38643853784E+02  0.47787272651E+02  0.20000007324E+02 0.  0.
         12    1    1    2    0    0  0.18380405787E+02  0.72412970027E+01 -0.38643853784E+02  0.43400727349E+02  0.00000000000E+00 0. -1.
         11    1    3    3    0    0 -0.64785673832E+01 -0.22937060684E+01  0.24409908143E+02  0.25358953817E+02  0.51100000000E-03 0.  1.
        -11    1    3    3    0    0 -0.57864438184E+01 -0.55017284872E+01  0.14196443573E+02  0.16287754872E+02  0.51100000000E-03 0. -1.
        -12    1    3    3    0    0 -0.61153945853E+01  0.55413755292E+00  0.37502068235E-01  0.61405639616E+01  0.00000000000E+00 0.  1.
</event>
<event>
 7    1  0.2653124E-010  0.4778727E+02  0.7816164E-02  0.1312668E+00
        -11   -1    0    0    0    0  0.00000000000E+00  0.00000000000E+00  0.45593999997E+02  0.45594000000E+02  0.51100000000E-03 0. -1.
         11   -1    0    0    0    0 -0.00000000000E+00 -0.00000000000E+00 -0.45593999997E+02  0.45594000000E+02  0.51100000000E-03 0.  1.
    9900012    2    1    2    0    0  0.66940563867E+01 -0.25257586207E+02 -0.34653529653E+02  0.47787272249E+02  0.20000005492E+02 0.  0.
         12    1    1    2    0    0 -0.66940563867E+01  0.25257586207E+02  0.34653529653E+02  0.43400727751E+02  0.00000000000E+00 0. -1.
         11    1    3    3    0    0  0.10723970239E+02 -0.12404168216E+02 -0.10167794821E+02  0.19293806742E+02  0.51100000000E-03 0. -1.
        -11    1    3    3    0    0 -0.13715368212E+01 -0.18322300577E+01 -0.11766585028E+01  0.25734618182E+01  0.51100000000E-03 0.  1.
        -12    1    3    3    0    0 -0.26583770312E+01 -0.11021187933E+02 -0.23309076329E+02  0.25920003689E+02  0.00000000000E+00 0.  1.
</event>
<event>
 7    1  0.2653124E-010  0.4778727E+02  0.7816164E-02  0.1312668E+00
        -11   -1    0    0    0    0  0.00000000000E+00  0.00000000000E+00  0.45593999997E+02  0.45594000000E+02  0.51100000000E-03 0.  1.
         11   -1    0    0    0    0 -0.00000000000E+00 -0.00000000000E+00 -0.45593999997E+02  0.45594000000E+02  0.51100000000E-03 0. -1.
    9900012    2    1    2    0    0  0.33184442013E+02 -0.96598083569E+01  0.26250795336E+02  0.47787270225E+02  0.19999996266E+02 0.  0.
         12    1    1    2    0    0 -0.33184442013E+02  0.96598083569E+01 -0.26250795336E+02  0.43400729775E+02  0.00000000000E+00 0. -1.
         11    1    3    3    0    0  0.21977966251E+01 -0.14603100715E+01 -0.16771302827E+01  0.31265926752E+01  0.51100000000E-03 0. -1.
        -11    1    3    3    0    0  0.21633233283E+02 -0.53268927686E+01  0.10401307170E+02  0.24587796972E+02  0.51100000000E-03 0.  1.
        -12    1    3    3    0    0  0.93534121045E+01 -0.28726055168E+01  0.17526618449E+02  0.20072880578E+02  0.00000000000E+00 0.  1.
</event>
<event>
 7    1  0.2653124E-010  0.4778728E+02  0.7816164E-02  0.1312668E+00
        -11   -1    0    0    0    0  0.00000000000E+00  0.00000000000E+00  0.45593999997E+02  0.45594000000E+02  0.51100000000E-03 0.  1.
         11   -1    0    0    0    0 -0.00000000000E+00 -0.00000000000E+00 -0.45593999997E+02  0.45594000000E+02  0.51100000000E-03 0. -1.
    9900012    2    1    2    0    0  0.14946247007E+01  0.39744140555E+02  0.17372169675E+02  0.47787275459E+02  0.20000020128E+02 0.  0.
         12    1    1    2    0    0 -0.14946247007E+01 -0.39744140555E+02 -0.17372169675E+02  0.43400724541E+02  0.00000000000E+00 0. -1.
         11    1    3    3    0    0 -0.43655115633E+01  0.74682585589E+01  0.63162035785E+01  0.10711069275E+02  0.51100000000E-03 0. -1.
        -11    1    3    3    0    0 -0.11840741530E+01  0.19488235512E+02  0.14039214759E+01  0.19574584306E+02  0.51100000000E-03 0.  1.
        -12    1    3    3    0    0  0.70442104171E+01  0.12787646484E+02  0.96520446202E+01  0.17501621878E+02  0.00000000000E+00 0.  1.
</event>
<event>
 7    1  0.2653124E-010  0.4778727E+02  0.7816164E-02  0.1312668E+00
        -11   -1    0    0    0    0  0.00000000000E+00  0.00000000000E+00  0.45593999997E+02  0.45594000000E+02  0.51100000000E-03 0.  1.
         11   -1    0    0    0    0 -0.00000000000E+00 -0.00000000000E+00 -0.45593999997E+02  0.45594000000E+02  0.51100000000E-03 0. -1.
    9900012    2    1    2    0    0  0.27474535667E+02  0.29053215392E+01  0.33471362555E+02  0.47787272878E+02  0.20000008362E+02 0.  0.
         12    1    1    2    0    0 -0.27474535667E+02 -0.29053215392E+01 -0.33471362555E+02  0.43400727122E+02  0.00000000000E+00 0. -1.
         11    1    3    3    0    0  0.12840259840E+02  0.26016763660E+01  0.58202516601E+01  0.14335840482E+02  0.51100000000E-03 0. -1.
        -11    1    3    3    0    0  0.82893022153E+01  0.51983985708E+01  0.96282339117E+01  0.13727300078E+02  0.51100000000E-03 0.  1.
        -12    1    3    3    0    0  0.63449736120E+01 -0.48947533975E+01  0.18022876983E+02  0.19724132318E+02  0.00000000000E+00 0.  1.
</event>
<event>
 7    1  0.3494307E-010  0.4778727E+02  0.7816164E-02  0.1312668E+00
        -11   -1    0    0    0    0  0.00000000000E+00  0.00000000000E+00  0.45593999997E+02  0.45594000000E+02  0.51100000000E-03 0. -1.
         11   -1    0    0    0    0 -0.00000000000E+00 -0.00000000000E+00 -0.45593999997E+02  0.45594000000E+02  0.51100000000E-03 0.  1.
    9900012    2    1    2    0    0 -0.56124625428E+01 -0.42823533350E+01 -0.42822715978E+02  0.47787270863E+02  0.19999999174E+02 0.  0.
         12    1    1    2    0    0  0.56124625428E+01  0.42823533350E+01  0.42822715978E+02  0.43400729137E+02  0.00000000000E+00 0. -1.
         11    1    3    3    0    0  0.59094537563E+01  0.11388575047E+01 -0.19016267151E+02  0.19945853121E+02  0.51100000000E-03 0. -1.
        -11    1    3    3    0    0 -0.32794430929E+01 -0.25937314512E+01 -0.14505993194E+02  0.15096556847E+02  0.51100000000E-03 0.  1.
         12    1    3    3    0    0 -0.82424732062E+01 -0.28274793884E+01 -0.93004556334E+01  0.12744860895E+02  0.00000000000E+00 0. -1.
</event>
<event>
 7    1  0.2653124E-010  0.4778726E+02  0.7816164E-02  0.1312668E+00
        -11   -1    0    0    0    0  0.00000000000E+00  0.00000000000E+00  0.45593999997E+02  0.45594000000E+02  0.51100000000E-03 0.  1.
         11   -1    0    0    0    0 -0.00000000000E+00 -0.00000000000E+00 -0.45593999997E+02  0.45594000000E+02  0.51100000000E-03 0. -1.
    9900012    2    1    2    0    0 -0.43046548780E+02  0.57028613491E+00  0.55039767533E+01  0.47787258667E+02  0.19999943567E+02 0.  0.
         12    1    1    2    0    0  0.43046548780E+02 -0.57028613491E+00 -0.55039767533E+01  0.43400741333E+02  0.00000000000E+00 0. -1.
         11    1    3    3    0    0  0.55184004924E+00 -0.51340756070E-01 -0.50777272878E+00  0.75166263603E+00  0.51100000000E-03 0. -1.
        -11    1    3    3    0    0 -0.27404200436E+02 -0.68757864661E+01  0.15652449788E+00  0.28254046458E+02  0.51100000000E-03 0.  1.
        -12    1    3    3    0    0 -0.16194188393E+02  0.74974133571E+01  0.58552249842E+01  0.18781549573E+02  0.00000000000E+00 0.  1.
</event>
<event>
 7    1  0.2653124E-010  0.4778727E+02  0.7816164E-02  0.1312668E+00
        -11   -1    0    0    0    0  0.00000000000E+00  0.00000000000E+00  0.45593999997E+02  0.45594000000E+02  0.51100000000E-03 0.  1.
         11   -1    0    0    0    0 -0.00000000000E+00 -0.00000000000E+00 -0.45593999997E+02  0.45594000000E+02  0.51100000000E-03 0. -1.
    9900012    2    1    2    0    0 -0.39547284328E+02 -0.52986226681E+01  0.17075125450E+02  0.47787274095E+02  0.20000013910E+02 0.  0.
         12    1    1    2    0    0  0.39547284328E+02  0.52986226681E+01 -0.17075125450E+02  0.43400725905E+02  0.00000000000E+00 0. -1.
         11    1    3    3    0    0 -0.36357704207E+01  0.13040053931E+01 -0.13105594101E+01  0.40788261603E+01  0.51100000000E-03 0. -1.
        -11    1    3    3    0    0 -0.22163615047E+02 -0.11037599556E+02  0.83941087482E+01  0.26144129319E+02  0.51100000000E-03 0.  1.
        -12    1    3    3    0    0 -0.13747898861E+02  0.44349714949E+01  0.99915761119E+01  0.17564318616E+02  0.00000000000E+00 0.  1.
</event>
<event>
 7    1  0.2653124E-010  0.4778726E+02  0.7816164E-02  0.1312668E+00
        -11   -1    0    0    0    0  0.00000000000E+00  0.00000000000E+00  0.45593999997E+02  0.45594000000E+02  0.51100000000E-03 0. -1.
         11   -1    0    0    0    0 -0.00000000000E+00 -0.00000000000E+00 -0.45593999997E+02  0.45594000000E+02  0.51100000000E-03 0.  1.
    9900012    2    1    2    0    0  0.42245021975E+02  0.68482563393E+01 -0.72169087779E+01  0.47787259582E+02  0.19999947738E+02 0.  0.
         12    1    1    2    0    0 -0.42245021975E+02 -0.68482563393E+01  0.72169087779E+01  0.43400740418E+02  0.00000000000E+00 0. -1.
         11    1    3    3    0    0  0.28045354790E+01  0.47198738611E+01 -0.17081307548E+01  0.57498121234E+01  0.51100000000E-03 0. -1.
        -11    1    3    3    0    0  0.27982385381E+02  0.67302529435E+01 -0.69451273687E+01  0.29606502508E+02  0.51100000000E-03 0.  1.
        -12    1    3    3    0    0  0.11458101114E+02 -0.46018704654E+01  0.14363493456E+01  0.12430944951E+02  0.00000000000E+00 0.  1.
</event>
<event>
 7    1  0.2653124E-010  0.4778727E+02  0.7816164E-02  0.1312668E+00
        -11   -1    0    0    0    0  0.00000000000E+00  0.00000000000E+00  0.45593999997E+02  0.45594000000E+02  0.51100000000E-03 0.  1.
         11   -1    0    0    0    0 -0.00000000000E+00 -0.00000000000E+00 -0.45593999997E+02  0.45594000000E+02  0.51100000000E-03 0. -1.
    9900012    2    1    2    0    0 -0.16725324854E+02  0.19911258676E+02  0.34748080116E+02  0.47787265153E+02  0.19999973137E+02 0.  0.
         12    1    1    2    0    0  0.16725324854E+02 -0.19911258676E+02 -0.34748080116E+02  0.43400734847E+02  0.00000000000E+00 0. -1.
         11    1    3    3    0    0 -0.20244120642E+01 -0.92349358599E+00  0.65443028408E+01  0.69122344102E+01  0.51100000000E-03 0. -1.
        -11    1    3    3    0    0 -0.11918413700E+02  0.11005917953E+02  0.25643183071E+02  0.30343889886E+02  0.51100000000E-03 0.  1.
         12    1    3    3    0    0 -0.27824990896E+01  0.98288343094E+01  0.25605942043E+01  0.10531140857E+02  0.00000000000E+00 0. -1.
</event>
<event>
 7    1  0.2653124E-010  0.4778728E+02  0.7816164E-02  0.1312668E+00
        -11   -1    0    0    0    0  0.00000000000E+00  0.00000000000E+00  0.45593999997E+02  0.45594000000E+02  0.51100000000E-03 0. -1.
         11   -1    0    0    0    0 -0.00000000000E+00 -0.00000000000E+00 -0.45593999997E+02  0.45594000000E+02  0.51100000000E-03 0.  1.
    9900012    2    1    2    0    0 -0.24630145370E+02 -0.34854871210E+01 -0.35564449713E+02  0.47787276909E+02  0.20000026740E+02 0.  0.
         12    1    1    2    0    0  0.24630145370E+02  0.34854871210E+01  0.35564449713E+02  0.43400723091E+02  0.00000000000E+00 0. -1.
         11    1    3    3    0    0 -0.16382966268E+02  0.33398959524E+01 -0.12825990900E+02  0.21072791261E+02  0.51100000000E-03 0. -1.
        -11    1    3    3    0    0 -0.73545444463E+01 -0.62449654599E+00 -0.15314769967E+02  0.17000632322E+02  0.51100000000E-03 0.  1.
         12    1    3    3    0    0 -0.89263465564E+00 -0.62008865274E+01 -0.74236888463E+01  0.97138533261E+01  0.00000000000E+00 0. -1.
</event>
<event>
 7    1  0.2653124E-010  0.4778727E+02  0.7816164E-02  0.1312668E+00
        -11   -1    0    0    0    0  0.00000000000E+00  0.00000000000E+00  0.45593999997E+02  0.45594000000E+02  0.51100000000E-03 0. -1.
         11   -1    0    0    0    0 -0.00000000000E+00 -0.00000000000E+00 -0.45593999997E+02  0.45594000000E+02  0.51100000000E-03 0.  1.
    9900012    2    1    2    0    0 -0.11850905852E+02 -0.13469541615E+02 -0.39518994490E+02  0.47787269058E+02  0.19999990941E+02 0.  0.
         12    1    1    2    0    0  0.11850905852E+02  0.13469541615E+02  0.39518994490E+02  0.43400730942E+02  0.00000000000E+00 0. -1.
         11    1    3    3    0    0 -0.24426709791E+00  0.16119268813E+01 -0.10795598169E+01  0.19553578560E+01  0.51100000000E-03 0.  1.
        -11    1    3    3    0    0 -0.79402350117E+01 -0.11407017445E+01 -0.50896356194E+01  0.95001538678E+01  0.51100000000E-03 0. -1.
        -12    1    3    3    0    0 -0.36664037426E+01 -0.13940766752E+02 -0.33349799054E+02  0.36331757334E+02  0.00000000000E+00 0.  1.
</event>
<event>
 7    1  0.2653124E-010  0.4778728E+02  0.7816164E-02  0.1312668E+00
        -11   -1    0    0    0    0  0.00000000000E+00  0.00000000000E+00  0.45593999997E+02  0.45594000000E+02  0.51100000000E-03 0.  1.
         11   -1    0    0    0    0 -0.00000000000E+00 -0.00000000000E+00 -0.45593999997E+02  0.45594000000E+02  0.51100000000E-03 0. -1.
    9900012    2    1    2    0    0 -0.40160675791E+02  0.91634625054E+01 -0.13666512372E+02  0.47787280127E+02  0.20000041412E+02 0.  0.
         12    1    1    2    0    0  0.40160675791E+02 -0.91634625054E+01  0.13666512372E+02  0.43400719873E+02  0.00000000000E+00 0. -1.
         11    1    3    3    0    0 -0.63739006702E+01  0.10333400512E+01  0.56958872635E+00  0.64821935326E+01  0.51100000000E-03 0. -1.
        -11    1    3    3    0    0 -0.28849609375E+02  0.74542590390E+01 -0.18219130078E+02  0.34925673078E+02  0.51100000000E-03 0.  1.
         12    1    3    3    0    0 -0.49371657459E+01  0.67586341518E+00  0.39830289801E+01  0.63794135165E+01  0.00000000000E+00 0. -1.
</event>
<event>
 7    1  0.2653124E-010  0.4778727E+02  0.7816164E-02  0.1312668E+00
        -11   -1    0    0    0    0  0.00000000000E+00  0.00000000000E+00  0.45593999997E+02  0.45594000000E+02  0.51100000000E-03 0.  1.
         11   -1    0    0    0    0 -0.00000000000E+00 -0.00000000000E+00 -0.45593999997E+02  0.45594000000E+02  0.51100000000E-03 0. -1.
    9900012    2    1    2    0    0  0.93467726006E+01 -0.17632157255E+02  0.38540475551E+02  0.47787269785E+02  0.19999994256E+02 0.  0.
         12    1    1    2    0    0 -0.93467726006E+01  0.17632157255E+02 -0.38540475551E+02  0.43400730215E+02  0.00000000000E+00 0. -1.
         11    1    3    3    0    0  0.13512283618E+01  0.21550670064E+01  0.11061697929E+02  0.11350387360E+02  0.51100000000E-03 0. -1.
        -11    1    3    3    0    0  0.31902979790E+01  0.19764317387E-01  0.61944204567E+01  0.69677282437E+01  0.51100000000E-03 0.  1.
        -12    1    3    3    0    0  0.48052462598E+01 -0.19806988579E+02  0.21284357166E+02  0.29469154181E+02  0.00000000000E+00 0.  1.
</event>
<event>
 7    1  0.2653124E-010  0.4778727E+02  0.7816164E-02  0.1312668E+00
        -11   -1    0    0    0    0  0.00000000000E+00  0.00000000000E+00  0.45593999997E+02  0.45594000000E+02  0.51100000000E-03 0.  1.
         11   -1    0    0    0    0 -0.00000000000E+00 -0.00000000000E+00 -0.45593999997E+02  0.45594000000E+02  0.51100000000E-03 0. -1.
    9900012    2    1    2    0    0 -0.83667559784E+01  0.35441153282E+02  0.23612401438E+02  0.47787268978E+02  0.19999990580E+02 0.  0.
         12    1    1    2    0    0  0.83667559784E+01 -0.35441153282E+02 -0.23612401438E+02  0.43400731022E+02  0.00000000000E+00 0. -1.
         11    1    3    3    0    0 -0.39264636933E+01  0.18081048715E+01  0.22616413479E+01  0.48786660276E+01  0.51100000000E-03 0. -1.
        -11    1    3    3    0    0 -0.46703077957E+01  0.27547274329E+02  0.23439569211E+02  0.36470227624E+02  0.51100000000E-03 0.  1.
        -12    1    3    3    0    0  0.23001551067E+00  0.60857740810E+01 -0.20888091217E+01  0.64383753267E+01  0.00000000000E+00 0.  1.
</event>
<event>
 7    1  0.2653124E-010  0.4778728E+02  0.7816164E-02  0.1312668E+00
        -11   -1    0    0    0    0  0.00000000000E+00  0.00000000000E+00  0.45593999997E+02  0.45594000000E+02  0.51100000000E-03 0.  1.
         11   -1    0    0    0    0 -0.00000000000E+00 -0.00000000000E+00 -0.45593999997E+02  0.45594000000E+02  0.51100000000E-03 0. -1.
    9900012    2    1    2    0    0  0.31575876258E+02  0.20895284272E+02  0.21212586485E+02  0.47787277752E+02  0.20000030581E+02 0.  0.
         12    1    1    2    0    0 -0.31575876258E+02 -0.20895284272E+02 -0.21212586485E+02  0.43400722248E+02  0.00000000000E+00 0. -1.
         11    1    3    3    0    0  0.22831354204E+01 -0.12008411255E+01 -0.10907428026E+01  0.28007939730E+01  0.51100000000E-03 0. -1.
        -11    1    3    3    0    0  0.12752261147E+02  0.12639393832E+02  0.36489158133E+01  0.18321818350E+02  0.51100000000E-03 0.  1.
        -12    1    3    3    0    0  0.16540479691E+02  0.94567315655E+01  0.18654413474E+02  0.26664665428E+02  0.00000000000E+00 0.  1.
</event>
<event>
 7    1  0.2653124E-010  0.4778727E+02  0.7816164E-02  0.1312668E+00
        -11   -1    0    0    0    0  0.00000000000E+00  0.00000000000E+00  0.45593999997E+02  0.45594000000E+02  0.51100000000E-03 0. -1.
         11   -1    0    0    0    0 -0.00000000000E+00 -0.00000000000E+00 -0.45593999997E+02  0.45594000000E+02  0.51100000000E-03 0.  1.
    9900012    2    1    2    0    0  0.38223373449E+02 -0.14154944523E+02 -0.14907528965E+02  0.47787272447E+02  0.20000006396E+02 0.  0.
         12    1    1    2    0    0 -0.38223373449E+02  0.14154944523E+02  0.14907528965E+02  0.43400727553E+02  0.00000000000E+00 0. -1.
         11    1    3    3    0    0  0.19020353839E+02 -0.75677669532E+01 -0.10487160680E+02  0.23000554259E+02  0.51100000000E-03 0. -1.
        -11    1    3    3    0    0  0.54376759290E+01  0.60737758962E+00 -0.71637035885E+01  0.90142041474E+01  0.51100000000E-03 0.  1.
         12    1    3    3    0    0  0.13765343681E+02 -0.71945551595E+01  0.27433353035E+01  0.15772514041E+02  0.00000000000E+00 0. -1.
</event>
<event>
 7    1  0.2653124E-010  0.4778727E+02  0.7816164E-02  0.1312668E+00
        -11   -1    0    0    0    0  0.00000000000E+00  0.00000000000E+00  0.45593999997E+02  0.45594000000E+02  0.51100000000E-03 0.  1.
         11   -1    0    0    0    0 -0.00000000000E+00 -0.00000000000E+00 -0.45593999997E+02  0.45594000000E+02  0.51100000000E-03 0. -1.
    9900012    2    1    2    0    0  0.41291806130E+02 -0.49461536323E+01  0.12415538379E+02  0.47787270945E+02  0.19999999548E+02 0.  0.
         12    1    1    2    0    0 -0.41291806130E+02  0.49461536323E+01 -0.12415538379E+02  0.43400729055E+02  0.00000000000E+00 0. -1.
         11    1    3    3    0    0  0.21435974794E+01  0.48478163145E+00 -0.30338675291E+01  0.37462482338E+01  0.51100000000E-03 0. -1.
        -11    1    3    3    0    0 -0.41436562731E+00 -0.14346765328E+00 -0.82664766399E+00  0.93575021354E+00  0.51100000000E-03 0.  1.
        -12    1    3    3    0    0  0.39562574278E+02 -0.52874676105E+01  0.16276053572E+02  0.43105272498E+02  0.00000000000E+00 0.  1.
</event>
<event>
 7    1  0.2653124E-010  0.4778727E+02  0.7816164E-02  0.1312668E+00
        -11   -1    0    0    0    0  0.00000000000E+00  0.00000000000E+00  0.45593999997E+02  0.45594000000E+02  0.51100000000E-03 0. -1.
         11   -1    0    0    0    0 -0.00000000000E+00 -0.00000000000E+00 -0.45593999997E+02  0.45594000000E+02  0.51100000000E-03 0.  1.
    9900012    2    1    2    0    0 -0.36565836256E+02  0.21340459317E+02 -0.95471327223E+01  0.47787270419E+02  0.19999997149E+02 0.  0.
         12    1    1    2    0    0  0.36565836256E+02 -0.21340459317E+02  0.95471327223E+01  0.43400729581E+02  0.00000000000E+00 0. -1.
         11    1    3    3    0    0 -0.17984534457E+02  0.13822290121E+02 -0.22740187360E+01  0.22796279199E+02  0.51100000000E-03 0. -1.
        -11    1    3    3    0    0 -0.38611947287E+01  0.73045530836E+01  0.62243691680E+00  0.82856954120E+01  0.51100000000E-03 0.  1.
        -12    1    3    3    0    0 -0.14720107070E+02  0.21361611217E+00 -0.78955509031E+01  0.16705295809E+02  0.00000000000E+00 0.  1.
</event>
<event>
 7    1  0.2653124E-010  0.4778727E+02  0.7816164E-02  0.1312668E+00
        -11   -1    0    0    0    0  0.00000000000E+00  0.00000000000E+00  0.45593999997E+02  0.45594000000E+02  0.51100000000E-03 0. -1.
         11   -1    0    0    0    0 -0.00000000000E+00 -0.00000000000E+00 -0.45593999997E+02  0.45594000000E+02  0.51100000000E-03 0.  1.
    9900012    2    1    2    0    0  0.40000739981E+01  0.75733529392E+01 -0.42547233478E+02  0.47787270244E+02  0.19999996352E+02 0.  0.
         12    1    1    2    0    0 -0.40000739981E+01 -0.75733529392E+01  0.42547233478E+02  0.43400729756E+02  0.00000000000E+00 0. -1.
         11    1    3    3    0    0 -0.37495558215E+01  0.70734252093E+01 -0.10349111574E+02  0.13084212765E+02  0.51100000000E-03 0. -1.
        -11    1    3    3    0    0 -0.98408608807E-01  0.38684111227E+01 -0.15136255854E+02  0.15623076855E+02  0.51100000000E-03 0.  1.
        -12    1    3    3    0    0  0.78480384284E+01 -0.33684833928E+01 -0.17061866049E+02  0.19079980624E+02  0.00000000000E+00 0.  1.
</event>
<event>
 7    1  0.2653124E-010  0.4778726E+02  0.7816164E-02  0.1312668E+00
        -11   -1    0    0    0    0  0.00000000000E+00  0.00000000000E+00  0.45593999997E+02  0.45594000000E+02  0.51100000000E-03 0.  1.
         11   -1    0    0    0    0 -0.00000000000E+00 -0.00000000000E+00 -0.45593999997E+02  0.45594000000E+02  0.51100000000E-03 0. -1.
    9900012    2    1    2    0    0 -0.10219018999E+02  0.41463310806E+01  0.41976227324E+02  0.47787261860E+02  0.19999958126E+02 0.  0.
         12    1    1    2    0    0  0.10219018999E+02 -0.41463310806E+01 -0.41976227324E+02  0.43400738140E+02  0.00000000000E+00 0. -1.
         11    1    3    3    0    0 -0.18012223524E+01 -0.45438767625E+01  0.47950681145E+01  0.68471816450E+01  0.51100000000E-03 0.  1.
        -11    1    3    3    0    0 -0.51082854106E+01 -0.22622205920E+01  0.14434946139E+02  0.15478368523E+02  0.51100000000E-03 0. -1.
        -12    1    3    3    0    0 -0.33095112355E+01  0.10952428435E+02  0.22746213070E+02  0.25461711692E+02  0.00000000000E+00 0.  1.
</event>
<event>
 7    1  0.2653124E-010  0.4778727E+02  0.7816164E-02  0.1312668E+00
        -11   -1    0    0    0    0  0.00000000000E+00  0.00000000000E+00  0.45593999997E+02  0.45594000000E+02  0.51100000000E-03 0. -1.
         11   -1    0    0    0    0 -0.00000000000E+00 -0.00000000000E+00 -0.45593999997E+02  0.45594000000E+02  0.51100000000E-03 0.  1.
    9900012    2    1    2    0    0  0.36715767528E+02  0.16604437172E+02 -0.16120443461E+02  0.47787267099E+02  0.19999982013E+02 0.  0.
         12    1    1    2    0    0 -0.36715767528E+02 -0.16604437172E+02  0.16120443461E+02  0.43400732901E+02  0.00000000000E+00 0. -1.
         11    1    3    3    0    0  0.10047508527E+02  0.40085469168E+01 -0.10494814646E+02  0.15071894728E+02  0.51100000000E-03 0.  1.
        -11    1    3    3    0    0 -0.72018274074E+00  0.31294797927E+01 -0.86370338372E-01  0.32124394235E+01  0.51100000000E-03 0. -1.
        -12    1    3    3    0    0  0.27388441741E+02  0.94664104621E+01 -0.55392584770E+01  0.29502932948E+02  0.00000000000E+00 0.  1.
</event>
<event>
 7    1  0.2653124E-010  0.4778728E+02  0.7816164E-02  0.1312668E+00
        -11   -1    0    0    0    0  0.00000000000E+00  0.00000000000E+00  0.45593999997E+02  0.45594000000E+02  0.51100000000E-03 0.  1.
         11   -1    0    0    0    0 -0.00000000000E+00 -0.00000000000E+00 -0.45593999997E+02  0.45594000000E+02  0.51100000000E-03 0. -1.
    9900012    2    1    2    0    0 -0.21352289673E+01 -0.43347120183E+02  0.30131310362E+00  0.47787276268E+02  0.20000023815E+02 0.  0.
         12    1    1    2    0    0  0.21352289673E+01  0.43347120183E+02 -0.30131310362E+00  0.43400723732E+02  0.00000000000E+00 0. -1.
         11    1    3    3    0    0  0.12484944070E+01 -0.52826444965E+01 -0.41821854453E+01  0.68524263236E+01  0.51100000000E-03 0. -1.
        -11    1    3    3    0    0  0.41801732043E+01 -0.12485967206E+02 -0.24080481008E+01  0.13385511608E+02  0.51100000000E-03 0.  1.
        -12    1    3    3    0    0 -0.75638965786E+01 -0.25578508480E+02  0.68915466497E+01  0.27549338336E+02  0.00000000000E+00 0.  1.
</event>
<event>
 7    1  0.2653124E-010  0.4778727E+02  0.7816164E-02  0.1312668E+00
        -11   -1    0    0    0    0  0.00000000000E+00  0.00000000000E+00  0.45593999997E+02  0.45594000000E+02  0.51100000000E-03 0.  1.
         11   -1    0    0    0    0 -0.00000000000E+00 -0.00000000000E+00 -0.45593999997E+02  0.45594000000E+02  0.51100000000E-03 0. -1.
    9900012    2    1    2    0    0  0.24133605613E+02 -0.28817488993E+01  0.35956756798E+02  0.47787265490E+02  0.19999974676E+02 0.  0.
         12    1    1    2    0    0 -0.24133605613E+02  0.28817488993E+01 -0.35956756798E+02  0.43400734510E+02  0.00000000000E+00 0. -1.
         11    1    3    3    0    0  0.26318533006E+01 -0.49533252757E+01  0.54658951940E+01  0.78318639937E+01  0.51100000000E-03 0. -1.
        -11    1    3    3    0    0  0.16947908574E+02 -0.46367653351E+01  0.18850714065E+02  0.25769761714E+02  0.51100000000E-03 0.  1.
         12    1    3    3    0    0  0.45538437385E+01  0.67083417116E+01  0.11640147538E+02  0.14185639782E+02  0.00000000000E+00 0. -1.
</event>
<event>
 7    1  0.2653124E-010  0.4778727E+02  0.7816164E-02  0.1312668E+00
        -11   -1    0    0    0    0  0.00000000000E+00  0.00000000000E+00  0.45593999997E+02  0.45594000000E+02  0.51100000000E-03 0.  1.
         11   -1    0    0    0    0 -0.00000000000E+00 -0.00000000000E+00 -0.45593999997E+02  0.45594000000E+02  0.51100000000E-03 0. -1.
    9900012    2    1    2    0    0  0.33079662492E+02 -0.28032565516E+02  0.18800096768E+01  0.47787271477E+02  0.20000001970E+02 0.  0.
         12    1    1    2    0    0 -0.33079662492E+02  0.28032565516E+02 -0.18800096768E+01  0.43400728523E+02  0.00000000000E+00 0. -1.
         11    1    3    3    0    0  0.39755733417E+01 -0.20206958594E+01  0.43699004394E+01  0.62437508969E+01  0.51100000000E-03 0. -1.
        -11    1    3    3    0    0  0.51001225804E+00 -0.55261279485E+01 -0.31126429743E+01  0.63629198607E+01  0.51100000000E-03 0.  1.
        -12    1    3    3    0    0  0.28594076892E+02 -0.20485741708E+02  0.62275221171E+00  0.35180600719E+02  0.00000000000E+00 0.  1.
</event>
<event>
 7    1  0.2653124E-010  0.4778727E+02  0.7816164E-02  0.1312668E+00
        -11   -1    0    0    0    0  0.00000000000E+00  0.00000000000E+00  0.45593999997E+02  0.45594000000E+02  0.51100000000E-03 0.  1.
         11   -1    0    0    0    0 -0.00000000000E+00 -0.00000000000E+00 -0.45593999997E+02  0.45594000000E+02  0.51100000000E-03 0. -1.
    9900012    2    1    2    0    0  0.21972452611E+02  0.25573315832E+02  0.27328378158E+02  0.47787269486E+02  0.19999992895E+02 0.  0.
         12    1    1    2    0    0 -0.21972452611E+02 -0.25573315832E+02 -0.27328378158E+02  0.43400730514E+02  0.00000000000E+00 0. -1.
         11    1    3    3    0    0 -0.57435871948E-01  0.41054531875E+01  0.68654031403E+01  0.79994878145E+01  0.51100000000E-03 0. -1.
        -11    1    3    3    0    0  0.83961212475E+00  0.55108734898E+01 -0.10028609853E+01  0.56639567051E+01  0.51100000000E-03 0.  1.
        -12    1    3    3    0    0  0.21190276358E+02  0.15956989155E+02  0.21465836003E+02  0.34123824966E+02  0.00000000000E+00 0.  1.
</event>
<event>
 7    1  0.2653124E-010  0.4778727E+02  0.7816164E-02  0.1312668E+00
        -11   -1    0    0    0    0  0.00000000000E+00  0.00000000000E+00  0.45593999997E+02  0.45594000000E+02  0.51100000000E-03 0.  1.
         11   -1    0    0    0    0 -0.00000000000E+00 -0.00000000000E+00 -0.45593999997E+02  0.45594000000E+02  0.51100000000E-03 0. -1.
    9900012    2    1    2    0    0 -0.85260586878E+01 -0.20406569220E+02  0.37343023934E+02  0.47787272119E+02  0.20000004900E+02 0.  0.
         12    1    1    2    0    0  0.85260586878E+01  0.20406569220E+02 -0.37343023934E+02  0.43400727881E+02  0.00000000000E+00 0. -1.
         11    1    3    3    0    0 -0.14506207053E+01 -0.14848970153E+02  0.19589767767E+02  0.24624281034E+02  0.51100000000E-03 0. -1.
        -11    1    3    3    0    0 -0.45661046071E+01 -0.49290931878E+01  0.19099445650E+02  0.20246829266E+02  0.51100000000E-03 0.  1.
         12    1    3    3    0    0 -0.25093333754E+01 -0.62850587921E+00 -0.13461894830E+01  0.29161618188E+01  0.00000000000E+00 0. -1.
</event>
<event>
 7    1  0.2653124E-010  0.4778727E+02  0.7816164E-02  0.1312668E+00
        -11   -1    0    0    0    0  0.00000000000E+00  0.00000000000E+00  0.45593999997E+02  0.45594000000E+02  0.51100000000E-03 0. -1.
         11   -1    0    0    0    0 -0.00000000000E+00 -0.00000000000E+00 -0.45593999997E+02  0.45594000000E+02  0.51100000000E-03 0.  1.
    9900012    2    1    2    0    0 -0.30365999633E+02  0.22876852114E+02 -0.20932718243E+02  0.47787274321E+02  0.20000014941E+02 0.  0.
         12    1    1    2    0    0  0.30365999633E+02 -0.22876852114E+02  0.20932718243E+02  0.43400725679E+02  0.00000000000E+00 0. -1.
         11    1    3    3    0    0 -0.25545186506E+01  0.74363183872E+01  0.17654709612E+01  0.80586155553E+01  0.51100000000E-03 0. -1.
        -11    1    3    3    0    0 -0.56321430333E+01  0.43727535804E+00 -0.24490516391E+01  0.61571177574E+01  0.51100000000E-03 0.  1.
        -12    1    3    3    0    0 -0.22179337950E+02  0.15003258368E+02 -0.20249137566E+02  0.33571541009E+02  0.00000000000E+00 0.  1.
</event>
<event>
 7    1  0.2653124E-010  0.4778728E+02  0.7816164E-02  0.1312668E+00
        -11   -1    0    0    0    0  0.00000000000E+00  0.00000000000E+00  0.45593999997E+02  0.45594000000E+02  0.51100000000E-03 0. -1.
         11   -1    0    0    0    0 -0.00000000000E+00 -0.00000000000E+00 -0.45593999997E+02  0.45594000000E+02  0.51100000000E-03 0.  1.
    9900012    2    1    2    0    0  0.78060600361E+01  0.95927738769E+01 -0.41601285084E+02  0.47787276451E+02  0.20000024652E+02 0.  0.
         12    1    1    2    0    0 -0.78060600361E+01 -0.95927738769E+01  0.41601285084E+02  0.43400723549E+02  0.00000000000E+00 0. -1.
         11    1    3    3    0    0  0.38016099507E+01 -0.11105225077E+01 -0.21325978742E+01  0.44981632264E+01  0.51100000000E-03 0. -1.
        -11    1    3    3    0    0  0.35975335184E+01  0.30561162724E-01 -0.25254472265E+02  0.25509440430E+02  0.51100000000E-03 0.  1.
        -12    1    3    3    0    0  0.40691656697E+00  0.10672735222E+02 -0.14214214944E+02  0.17779672795E+02  0.00000000000E+00 0.  1.
</event>
<event>
 7    1  0.2653124E-010  0.4778727E+02  0.7816164E-02  0.1312668E+00
        -11   -1    0    0    0    0  0.00000000000E+00  0.00000000000E+00  0.45593999997E+02  0.45594000000E+02  0.51100000000E-03 0.  1.
         11   -1    0    0    0    0 -0.00000000000E+00 -0.00000000000E+00 -0.45593999997E+02  0.45594000000E+02  0.51100000000E-03 0. -1.
    9900012    2    1    2    0    0  0.23506238496E+02  0.16246456326E+02  0.32666996355E+02  0.47787271409E+02  0.20000001662E+02 0.  0.
         12    1    1    2    0    0 -0.23506238496E+02 -0.16246456326E+02 -0.32666996355E+02  0.43400728591E+02  0.00000000000E+00 0. -1.
         11    1    3    3    0    0  0.65679955398E+01 -0.77888271591E+00  0.54876321198E+01  0.85941451140E+01  0.51100000000E-03 0. -1.
        -11    1    3    3    0    0  0.15617097113E+02  0.14524011102E+02  0.13536762201E+02  0.25260335546E+02  0.51100000000E-03 0.  1.
         12    1    3    3    0    0  0.13211458432E+01  0.25013279391E+01  0.13642602035E+02  0.13932790750E+02  0.00000000000E+00 0. -1.
</event>
<event>
 7    1  0.2653124E-010  0.4778727E+02  0.7816164E-02  0.1312668E+00
        -11   -1    0    0    0    0  0.00000000000E+00  0.00000000000E+00  0.45593999997E+02  0.45594000000E+02  0.51100000000E-03 0. -1.
         11   -1    0    0    0    0 -0.00000000000E+00 -0.00000000000E+00 -0.45593999997E+02  0.45594000000E+02  0.51100000000E-03 0.  1.
    9900012    2    1    2    0    0 -0.40064306038E+02  0.11282490326E+02 -0.12295528048E+02  0.47787271708E+02  0.20000003028E+02 0.  0.
         12    1    1    2    0    0  0.40064306038E+02 -0.11282490326E+02  0.12295528048E+02  0.43400728292E+02  0.00000000000E+00 0. -1.
         11    1    3    3    0    0 -0.80786475265E+01 -0.11713541990E+00 -0.73240986202E+01  0.10905076223E+02  0.51100000000E-03 0. -1.
        -11    1    3    3    0    0 -0.29109576568E+02  0.14312765787E+02 -0.47343621491E+01  0.32781654895E+02  0.51100000000E-03 0.  1.
         12    1    3    3    0    0 -0.28760819439E+01 -0.29131400407E+01 -0.23706727829E+00  0.41005405911E+01  0.00000000000E+00 0. -1.
</event>
<event>
 7    1  0.2653124E-010  0.4778727E+02  0.7816164E-02  0.1312668E+00
        -11   -1    0    0    0    0  0.00000000000E+00  0.00000000000E+00  0.45593999997E+02  0.45594000000E+02  0.51100000000E-03 0.  1.
         11   -1    0    0    0    0 -0.00000000000E+00 -0.00000000000E+00 -0.45593999997E+02  0.45594000000E+02  0.51100000000E-03 0. -1.
    9900012    2    1    2    0    0 -0.12183676487E+02  0.25234388927E+02  0.33142219157E+02  0.47787273648E+02  0.20000011871E+02 0.  0.
         12    1    1    2    0    0  0.12183676487E+02 -0.25234388927E+02 -0.33142219157E+02  0.43400726352E+02  0.00000000000E+00 0. -1.
         11    1    3    3    0    0 -0.27231969715E+00  0.75156550657E+01  0.69165522314E+01  0.10217530236E+02  0.51100000000E-03 0. -1.
        -11    1    3    3    0    0 -0.56785690316E+01  0.19366493338E+02  0.17444983117E+02  0.26676481152E+02  0.51100000000E-03 0.  1.
         12    1    3    3    0    0 -0.62327877582E+01 -0.16477594764E+01  0.87806838084E+01  0.10893262260E+02  0.00000000000E+00 0. -1.
</event>
<event>
 7    1  0.2653124E-010  0.4778727E+02  0.7816164E-02  0.1312668E+00
        -11   -1    0    0    0    0  0.00000000000E+00  0.00000000000E+00  0.45593999997E+02  0.45594000000E+02  0.51100000000E-03 0. -1.
         11   -1    0    0    0    0 -0.00000000000E+00 -0.00000000000E+00 -0.45593999997E+02  0.45594000000E+02  0.51100000000E-03 0.  1.
    9900012    2    1    2    0    0  0.28743925863E+02 -0.21731085167E+02  0.24190278948E+02  0.47787274982E+02  0.20000017951E+02 0.  0.
         12    1    1    2    0    0 -0.28743925863E+02  0.21731085167E+02 -0.24190278948E+02  0.43400725018E+02  0.00000000000E+00 0. -1.
         11    1    3    3    0    0  0.17185971835E+02 -0.17787010456E+02  0.13956291914E+02  0.28399180501E+02  0.51100000000E-03 0. -1.
        -11    1    3    3    0    0  0.56027163079E+01 -0.75061494054E+01  0.72022874889E+01  0.11815483666E+02  0.51100000000E-03 0.  1.
         12    1    3    3    0    0  0.59552377199E+01  0.35620746940E+01  0.30316995445E+01  0.75726108149E+01  0.00000000000E+00 0. -1.
</event>
<event>
 7    1  0.2653124E-010  0.4778727E+02  0.7816164E-02  0.1312668E+00
        -11   -1    0    0    0    0  0.00000000000E+00  0.00000000000E+00  0.45593999997E+02  0.45594000000E+02  0.51100000000E-03 0.  1.
         11   -1    0    0    0    0 -0.00000000000E+00 -0.00000000000E+00 -0.45593999997E+02  0.45594000000E+02  0.51100000000E-03 0. -1.
    9900012    2    1    2    0    0 -0.15765654791E+02  0.35421701697E+02  0.19503090369E+02  0.47787270098E+02  0.19999995685E+02 0.  0.
         12    1    1    2    0    0  0.15765654791E+02 -0.35421701697E+02 -0.19503090369E+02  0.43400729902E+02  0.00000000000E+00 0. -1.
         11    1    3    3    0    0  0.19260392977E+01  0.59742722711E+00  0.32754385010E+01  0.38464326724E+01  0.51100000000E-03 0. -1.
        -11    1    3    3    0    0  0.98136561748E-02  0.92855083582E-01  0.26649886102E+01  0.26666238820E+01  0.51100000000E-03 0.  1.
        -12    1    3    3    0    0 -0.17701507745E+02  0.34731419386E+02  0.13562663258E+02  0.41274213544E+02  0.00000000000E+00 0.  1.
</event>
<event>
 7    1  0.2653124E-010  0.4778728E+02  0.7816164E-02  0.1312668E+00
        -11   -1    0    0    0    0  0.00000000000E+00  0.00000000000E+00  0.45593999997E+02  0.45594000000E+02  0.51100000000E-03 0.  1.
         11   -1    0    0    0    0 -0.00000000000E+00 -0.00000000000E+00 -0.45593999997E+02  0.45594000000E+02  0.51100000000E-03 0. -1.
    9900012    2    1    2    0    0 -0.12727964480E+02 -0.19949463450E+02  0.36381873910E+02  0.47787275111E+02  0.20000018539E+02 0.  0.
         12    1    1    2    0    0  0.12727964480E+02  0.19949463450E+02 -0.36381873910E+02  0.43400724889E+02  0.00000000000E+00 0. -1.
         11    1    3    3    0    0 -0.58896860804E+00  0.27158558177E+01  0.40110304717E+01  0.48796641841E+01  0.51100000000E-03 0. -1.
        -11    1    3    3    0    0 -0.28421413911E+01  0.71157838489E+00  0.44134217539E+01  0.52973959003E+01  0.51100000000E-03 0.  1.
        -12    1    3    3    0    0 -0.92968544808E+01 -0.23376897653E+02  0.27957421684E+02  0.37610215026E+02  0.00000000000E+00 0.  1.
</event>
<event>
 7    1  0.2653124E-010  0.4778727E+02  0.7816164E-02  0.1312668E+00
        -11   -1    0    0    0    0  0.00000000000E+00  0.00000000000E+00  0.45593999997E+02  0.45594000000E+02  0.51100000000E-03 0.  1.
         11   -1    0    0    0    0 -0.00000000000E+00 -0.00000000000E+00 -0.45593999997E+02  0.45594000000E+02  0.51100000000E-03 0. -1.
    9900012    2    1    2    0    0 -0.83424488302E+00  0.69793469392E-01  0.43392654491E+02  0.47787270750E+02  0.19999998658E+02 0.  0.
         12    1    1    2    0    0  0.83424488302E+00 -0.69793469392E-01 -0.43392654491E+02  0.43400729250E+02  0.00000000000E+00 0. -1.
         11    1    3    3    0    0  0.50330432531E+01  0.26804358576E+01  0.90569432382E+01  0.10702545578E+02  0.51100000000E-03 0. -1.
        -11    1    3    3    0    0  0.27880305725E+01 -0.17247082230E+01  0.26183163451E+01  0.41956303069E+01  0.51100000000E-03 0.  1.
         12    1    3    3    0    0 -0.86553187086E+01 -0.88593416521E+00  0.31717394908E+02  0.32889094865E+02  0.00000000000E+00 0. -1.
</event>
<event>
 7    1  0.2653124E-010  0.4778727E+02  0.7816164E-02  0.1312668E+00
        -11   -1    0    0    0    0  0.00000000000E+00  0.00000000000E+00  0.45593999997E+02  0.45594000000E+02  0.51100000000E-03 0.  1.
         11   -1    0    0    0    0 -0.00000000000E+00 -0.00000000000E+00 -0.45593999997E+02  0.45594000000E+02  0.51100000000E-03 0. -1.
    9900012    2    1    2    0    0  0.11512192245E+02  0.40029134507E+02  0.12196760998E+02  0.47787272373E+02  0.20000006059E+02 0.  0.
         12    1    1    2    0    0 -0.11512192245E+02 -0.40029134507E+02 -0.12196760998E+02  0.43400727627E+02  0.00000000000E+00 0. -1.
         11    1    3    3    0    0  0.66996592014E+01  0.20685903184E+01  0.21728046758E+01  0.73406797874E+01  0.51100000000E-03 0. -1.
        -11    1    3    3    0    0  0.85848706967E+00  0.13625766130E+01 -0.11478964119E+01  0.19776960102E+01  0.51100000000E-03 0.  1.
        -12    1    3    3    0    0  0.39540459736E+01  0.36597967576E+02  0.11171852734E+02  0.38468896576E+02  0.00000000000E+00 0.  1.
</event>
<event>
 7    1  0.2653124E-010  0.4778727E+02  0.7816164E-02  0.1312668E+00
        -11   -1    0    0    0    0  0.00000000000E+00  0.00000000000E+00  0.45593999997E+02  0.45594000000E+02  0.51100000000E-03 0.  1.
         11   -1    0    0    0    0 -0.00000000000E+00 -0.00000000000E+00 -0.45593999997E+02  0.45594000000E+02  0.51100000000E-03 0. -1.
    9900012    2    1    2    0    0  0.28485959524E+02 -0.93557781122E+01  0.31379016636E+02  0.47787272367E+02  0.20000006029E+02 0.  0.
         12    1    1    2    0    0 -0.28485959524E+02  0.93557781122E+01 -0.31379016636E+02  0.43400727633E+02  0.00000000000E+00 0. -1.
         11    1    3    3    0    0  0.19947239652E+02 -0.11166509894E+02  0.14059205546E+02  0.26837372707E+02  0.51100000000E-03 0. -1.
        -11    1    3    3    0    0  0.68761838953E+01 -0.23595964927E+01  0.11389806148E+02  0.13512116227E+02  0.51100000000E-03 0.  1.
         12    1    3    3    0    0  0.16625359764E+01  0.41703282750E+01  0.59300049420E+01  0.74377834336E+01  0.00000000000E+00 0. -1.
</event>
<event>
 7    1  0.2653124E-010  0.4778727E+02  0.7816164E-02  0.1312668E+00
        -11   -1    0    0    0    0  0.00000000000E+00  0.00000000000E+00  0.45593999997E+02  0.45594000000E+02  0.51100000000E-03 0.  1.
         11   -1    0    0    0    0 -0.00000000000E+00 -0.00000000000E+00 -0.45593999997E+02  0.45594000000E+02  0.51100000000E-03 0. -1.
    9900012    2    1    2    0    0  0.19524812443E+02  0.20092621416E+02  0.33146518539E+02  0.47787269274E+02  0.19999991928E+02 0.  0.
         12    1    1    2    0    0 -0.19524812443E+02 -0.20092621416E+02 -0.33146518539E+02  0.43400730726E+02  0.00000000000E+00 0. -1.
         11    1    3    3    0    0 -0.76772697141E+00 -0.18035228222E+01  0.36020102528E+01  0.41008020429E+01  0.51100000000E-03 0. -1.
        -11    1    3    3    0    0  0.49298173013E+01 -0.47029381825E+00  0.34067968781E+01  0.60108685004E+01  0.51100000000E-03 0.  1.
         12    1    3    3    0    0  0.15362722113E+02  0.22366438057E+02  0.26137711408E+02  0.37675598731E+02  0.00000000000E+00 0. -1.
</event>
<event>
 7    1  0.2653124E-010  0.4778727E+02  0.7816164E-02  0.1312668E+00
        -11   -1    0    0    0    0  0.00000000000E+00  0.00000000000E+00  0.45593999997E+02  0.45594000000E+02  0.51100000000E-03 0. -1.
         11   -1    0    0    0    0 -0.00000000000E+00 -0.00000000000E+00 -0.45593999997E+02  0.45594000000E+02  0.51100000000E-03 0.  1.
    9900012    2    1    2    0    0  0.16188066160E+02 -0.37550199308E+02 -0.14544843119E+02  0.47787269414E+02  0.19999992567E+02 0.  0.
         12    1    1    2    0    0 -0.16188066160E+02  0.37550199308E+02  0.14544843119E+02  0.43400730586E+02  0.00000000000E+00 0. -1.
         11    1    3    3    0    0  0.12521556676E+02 -0.27861865264E+02 -0.46079690245E+01  0.30891848381E+02  0.51100000000E-03 0.  1.
        -11    1    3    3    0    0  0.65494163494E+00 -0.10480933974E+02 -0.82451396551E+01  0.13351451371E+02  0.51100000000E-03 0. -1.
        -12    1    3    3    0    0  0.30115678482E+01  0.79259993078E+00 -0.16917344395E+01  0.35439696624E+01  0.00000000000E+00 0.  1.
</event>
<event>
 7    1  0.2653124E-010  0.4778727E+02  0.7816164E-02  0.1312668E+00
        -11   -1    0    0    0    0  0.00000000000E+00  0.00000000000E+00  0.45593999997E+02  0.45594000000E+02  0.51100000000E-03 0.  1.
         11   -1    0    0    0    0 -0.00000000000E+00 -0.00000000000E+00 -0.45593999997E+02  0.45594000000E+02  0.51100000000E-03 0. -1.
    9900012    2    1    2    0    0  0.22194168410E+02 -0.18409221194E+02  0.32436752323E+02  0.47787269158E+02  0.19999991398E+02 0.  0.
         12    1    1    2    0    0 -0.22194168410E+02  0.18409221194E+02 -0.32436752323E+02  0.43400730842E+02  0.00000000000E+00 0. -1.
         11    1    3    3    0    0  0.63324987157E+01 -0.60744634585E+01  0.31551520461E+01  0.93249467016E+01  0.51100000000E-03 0.  1.
        -11    1    3    3    0    0  0.17594588991E+02 -0.68676166038E+01  0.19671040355E+02  0.27270561939E+02  0.51100000000E-03 0. -1.
         12    1    3    3    0    0 -0.17329192973E+01 -0.54671411319E+01  0.96105599220E+01  0.11191760517E+02  0.00000000000E+00 0. -1.
</event>
<event>
 7    1  0.3243757E-010  0.4778727E+02  0.7816164E-02  0.1312668E+00
        -11   -1    0    0    0    0  0.00000000000E+00  0.00000000000E+00  0.45593999997E+02  0.45594000000E+02  0.51100000000E-03 0. -1.
         11   -1    0    0    0    0 -0.00000000000E+00 -0.00000000000E+00 -0.45593999997E+02  0.45594000000E+02  0.51100000000E-03 0.  1.
    9900012    2    1    2    0    0 -0.25239341380E+02 -0.31075697845E+02 -0.16760066387E+02  0.47787272182E+02  0.20000005184E+02 0.  0.
         12    1    1    2    0    0  0.25239341380E+02  0.31075697845E+02  0.16760066387E+02  0.43400727818E+02  0.00000000000E+00 0. -1.
         11    1    3    3    0    0 -0.59360699922E+01  0.51058785999E+00 -0.17458251843E+01  0.62085048724E+01  0.51100000000E-03 0. -1.
        -11    1    3    3    0    0 -0.15224194698E+02 -0.14097070425E+02 -0.92565139901E+01  0.22719739221E+02  0.51100000000E-03 0.  1.
         12    1    3    3    0    0 -0.40790766896E+01 -0.17489215280E+02 -0.57577272131E+01  0.18859028088E+02  0.00000000000E+00 0. -1.
</event>
<event>
 7    1  0.2653124E-010  0.4778727E+02  0.7816164E-02  0.1312668E+00
        -11   -1    0    0    0    0  0.00000000000E+00  0.00000000000E+00  0.45593999997E+02  0.45594000000E+02  0.51100000000E-03 0.  1.
         11   -1    0    0    0    0 -0.00000000000E+00 -0.00000000000E+00 -0.45593999997E+02  0.45594000000E+02  0.51100000000E-03 0. -1.
    9900012    2    1    2    0    0 -0.12698454752E+02 -0.78627302559E+01  0.40749848948E+02  0.47787268791E+02  0.19999989726E+02 0.  0.
         12    1    1    2    0    0  0.12698454752E+02  0.78627302559E+01 -0.40749848948E+02  0.43400731209E+02  0.00000000000E+00 0. -1.
         11    1    3    3    0    0  0.87853263162E+00 -0.18508842965E+01  0.68084333226E+01  0.71100180614E+01  0.51100000000E-03 0. -1.
        -11    1    3    3    0    0 -0.11046420167E+02 -0.86167826835E+01  0.34277523192E+02  0.37030000523E+02  0.51100000000E-03 0.  1.
         12    1    3    3    0    0 -0.25305672159E+01  0.26049367241E+01 -0.33610756617E+00  0.36472502062E+01  0.00000000000E+00 0. -1.
</event>
<event>
 7    1  0.2653124E-010  0.4778727E+02  0.7816164E-02  0.1312668E+00
        -11   -1    0    0    0    0  0.00000000000E+00  0.00000000000E+00  0.45593999997E+02  0.45594000000E+02  0.51100000000E-03 0.  1.
         11   -1    0    0    0    0 -0.00000000000E+00 -0.00000000000E+00 -0.45593999997E+02  0.45594000000E+02  0.51100000000E-03 0. -1.
    9900012    2    1    2    0    0  0.38320507870E+02  0.12974732884E+02  0.15710455396E+02  0.47787269297E+02  0.19999992032E+02 0.  0.
         12    1    1    2    0    0 -0.38320507870E+02 -0.12974732884E+02 -0.15710455396E+02  0.43400730703E+02  0.00000000000E+00 0. -1.
         11    1    3    3    0    0  0.21266401156E+02 -0.13229114675E+00  0.70132176942E+01  0.22393359323E+02  0.51100000000E-03 0. -1.
        -11    1    3    3    0    0 -0.56706291181E+00 -0.76379526389E+00  0.16190410496E+01  0.18778279294E+01  0.51100000000E-03 0.  1.
        -12    1    3    3    0    0  0.17621169626E+02  0.13870819295E+02  0.70781966519E+01  0.23516082045E+02  0.00000000000E+00 0.  1.
</event>
<event>
 7    1  0.2653124E-010  0.4778729E+02  0.7816164E-02  0.1312668E+00
        -11   -1    0    0    0    0  0.00000000000E+00  0.00000000000E+00  0.45593999997E+02  0.45594000000E+02  0.51100000000E-03 0.  1.
         11   -1    0    0    0    0 -0.00000000000E+00 -0.00000000000E+00 -0.45593999997E+02  0.45594000000E+02  0.51100000000E-03 0. -1.
    9900012    2    1    2    0    0  0.28615916954E+02 -0.43847536365E+01  0.32334575393E+02  0.47787291096E+02  0.20000091421E+02 0.  0.
         12    1    1    2    0    0 -0.28615916954E+02  0.43847536365E+01 -0.32334575393E+02  0.43400708904E+02  0.00000000000E+00 0. -1.
         11    1    3    3    0    0  0.79299119246E+01 -0.83086218912E+01  0.10263658790E+02  0.15403226704E+02  0.51100000000E-03 0. -1.
        -11    1    3    3    0    0  0.84651452814E+00  0.15452968765E+01  0.73687338976E+01  0.75764614958E+01  0.51100000000E-03 0.  1.
        -12    1    3    3    0    0  0.19839490502E+02  0.23785713782E+01  0.14702182705E+02  0.24807602896E+02  0.00000000000E+00 0.  1.
</event>
<event>
 7    1  0.2653124E-010  0.4778728E+02  0.7816164E-02  0.1312668E+00
        -11   -1    0    0    0    0  0.00000000000E+00  0.00000000000E+00  0.45593999997E+02  0.45594000000E+02  0.51100000000E-03 0. -1.
         11   -1    0    0    0    0 -0.00000000000E+00 -0.00000000000E+00 -0.45593999997E+02  0.45594000000E+02  0.51100000000E-03 0.  1.
    9900012    2    1    2    0    0 -0.35995986453E+02 -0.16041759918E+02 -0.18181687014E+02  0.47787275989E+02  0.20000022543E+02 0.  0.
         12    1    1    2    0    0  0.35995986453E+02  0.16041759918E+02  0.18181687014E+02  0.43400724011E+02  0.00000000000E+00 0. -1.
         11    1    3    3    0    0  0.17548962261E+01 -0.13045389958E+01 -0.12144816186E+01  0.25012893914E+01  0.51100000000E-03 0.  1.
        -11    1    3    3    0    0 -0.26042584806E+01 -0.18999986472E+01  0.15042886676E+01  0.35573925493E+01  0.51100000000E-03 0. -1.
         12    1    3    3    0    0 -0.35146624199E+02 -0.12837222275E+02 -0.18471494063E+02  0.41728594048E+02  0.00000000000E+00 0. -1.
</event>
<event>
 7    1  0.2653124E-010  0.4778727E+02  0.7816164E-02  0.1312668E+00
        -11   -1    0    0    0    0  0.00000000000E+00  0.00000000000E+00  0.45593999997E+02  0.45594000000E+02  0.51100000000E-03 0.  1.
         11   -1    0    0    0    0 -0.00000000000E+00 -0.00000000000E+00 -0.45593999997E+02  0.45594000000E+02  0.51100000000E-03 0. -1.
    9900012    2    1    2    0    0 -0.29805837902E+02  0.53669872018E+01  0.31087472299E+02  0.47787268916E+02  0.19999990295E+02 0.  0.
         12    1    1    2    0    0  0.29805837902E+02 -0.53669872018E+01 -0.31087472299E+02  0.43400731084E+02  0.00000000000E+00 0. -1.
         11    1    3    3    0    0 -0.42506985556E+00  0.57337882167E+01  0.98282311287E+01  0.11386445410E+02  0.51100000000E-03 0. -1.
        -11    1    3    3    0    0 -0.53163747887E+01  0.13325548617E+00  0.24584351131E+01  0.58587969230E+01  0.51100000000E-03 0.  1.
        -12    1    3    3    0    0 -0.24064393258E+02 -0.50005650103E+00  0.18800806058E+02  0.30542026583E+02  0.00000000000E+00 0.  1.
</event>
<event>
 7    1  0.2653124E-010  0.4778727E+02  0.7816164E-02  0.1312668E+00
        -11   -1    0    0    0    0  0.00000000000E+00  0.00000000000E+00  0.45593999997E+02  0.45594000000E+02  0.51100000000E-03 0. -1.
         11   -1    0    0    0    0 -0.00000000000E+00 -0.00000000000E+00 -0.45593999997E+02  0.45594000000E+02  0.51100000000E-03 0.  1.
    9900012    2    1    2    0    0 -0.11201387225E+02 -0.41695370755E+02  0.44326266159E+01  0.47787271932E+02  0.20000004045E+02 0.  0.
         12    1    1    2    0    0  0.11201387225E+02  0.41695370755E+02 -0.44326266159E+01  0.43400728068E+02  0.00000000000E+00 0. -1.
         11    1    3    3    0    0  0.13475616901E+01  0.22337911469E+00  0.30038567105E+01  0.32998448654E+01  0.51100000000E-03 0. -1.
        -11    1    3    3    0    0  0.98118466681E+00 -0.55886476260E+01 -0.29033477844E+00  0.56815491006E+01  0.51100000000E-03 0.  1.
        -12    1    3    3    0    0 -0.13530133582E+02 -0.36330102243E+02  0.17191046839E+01  0.38805877966E+02  0.00000000000E+00 0.  1.
</event>
<event>
 7    1  0.2653124E-010  0.4778727E+02  0.7816164E-02  0.1312668E+00
        -11   -1    0    0    0    0  0.00000000000E+00  0.00000000000E+00  0.45593999997E+02  0.45594000000E+02  0.51100000000E-03 0.  1.
         11   -1    0    0    0    0 -0.00000000000E+00 -0.00000000000E+00 -0.45593999997E+02  0.45594000000E+02  0.51100000000E-03 0. -1.
    9900012    2    1    2    0    0  0.22234259336E+02 -0.30919310329E+02  0.20814828808E+02  0.47787272613E+02  0.20000007151E+02 0.  0.
         12    1    1    2    0    0 -0.22234259336E+02  0.30919310329E+02 -0.20814828808E+02  0.43400727387E+02  0.00000000000E+00 0. -1.
         11    1    3    3    0    0  0.26227115690E+01 -0.62978625497E+00  0.14349315245E+01  0.30552046481E+01  0.51100000000E-03 0. -1.
        -11    1    3    3    0    0  0.22951556305E+02 -0.27589412942E+02  0.16130450501E+02  0.39346423941E+02  0.51100000000E-03 0.  1.
         12    1    3    3    0    0 -0.33400085381E+01 -0.27001111320E+01  0.32494467818E+01  0.53856440234E+01  0.00000000000E+00 0. -1.
</event>
<event>
 7    1  0.2653124E-010  0.4778727E+02  0.7816164E-02  0.1312668E+00
        -11   -1    0    0    0    0  0.00000000000E+00  0.00000000000E+00  0.45593999997E+02  0.45594000000E+02  0.51100000000E-03 0.  1.
         11   -1    0    0    0    0 -0.00000000000E+00 -0.00000000000E+00 -0.45593999997E+02  0.45594000000E+02  0.51100000000E-03 0. -1.
    9900012    2    1    2    0    0  0.20271367869E+02  0.38245845359E+02  0.31543996607E+01  0.47787270977E+02  0.19999999692E+02 0.  0.
         12    1    1    2    0    0 -0.20271367869E+02 -0.38245845359E+02 -0.31543996607E+01  0.43400729023E+02  0.00000000000E+00 0. -1.
         11    1    3    3    0    0 -0.21393368496E+01  0.15597124675E+01  0.33827033343E+01  0.42955962620E+01  0.51100000000E-03 0. -1.
        -11    1    3    3    0    0  0.78505730784E+01  0.99473472707E+01 -0.26616311540E+01  0.12948571197E+02  0.51100000000E-03 0.  1.
        -12    1    3    3    0    0  0.14560131640E+02  0.26738785621E+02  0.24333274804E+01  0.30543103518E+02  0.00000000000E+00 0.  1.
</event>
<event>
 7    1  0.2653124E-010  0.4778727E+02  0.7816164E-02  0.1312668E+00
        -11   -1    0    0    0    0  0.00000000000E+00  0.00000000000E+00  0.45593999997E+02  0.45594000000E+02  0.51100000000E-03 0.  1.
         11   -1    0    0    0    0 -0.00000000000E+00 -0.00000000000E+00 -0.45593999997E+02  0.45594000000E+02  0.51100000000E-03 0. -1.
    9900012    2    1    2    0    0  0.40204039598E+02  0.39347461400E+01  0.15867461783E+02  0.47787269930E+02  0.19999994920E+02 0.  0.
         12    1    1    2    0    0 -0.40204039598E+02 -0.39347461400E+01 -0.15867461783E+02  0.43400730070E+02  0.00000000000E+00 0. -1.
         11    1    3    3    0    0  0.28981506560E+02  0.16436450646E+01  0.94943050396E+01  0.30541301872E+02  0.51100000000E-03 0. -1.
        -11    1    3    3    0    0  0.13503040234E+02  0.14130048582E+01  0.52497187239E+01  0.14556380911E+02  0.51100000000E-03 0.  1.
         12    1    3    3    0    0 -0.22805071963E+01  0.87809621721E+00  0.11234380192E+01  0.26895871471E+01  0.00000000000E+00 0. -1.
</event>
<event>
 7    1  0.2653124E-010  0.4778728E+02  0.7816164E-02  0.1312668E+00
        -11   -1    0    0    0    0  0.00000000000E+00  0.00000000000E+00  0.45593999997E+02  0.45594000000E+02  0.51100000000E-03 0.  1.
         11   -1    0    0    0    0 -0.00000000000E+00 -0.00000000000E+00 -0.45593999997E+02  0.45594000000E+02  0.51100000000E-03 0. -1.
    9900012    2    1    2    0    0 -0.32729006202E+02 -0.20299600185E+02  0.20009017738E+02  0.47787281049E+02  0.20000045615E+02 0.  0.
         12    1    1    2    0    0  0.32729006202E+02  0.20299600185E+02 -0.20009017738E+02  0.43400718951E+02  0.00000000000E+00 0. -1.
         11    1    3    3    0    0  0.61266128400E-01  0.20499656446E+01  0.74538430305E+00  0.21821344374E+01  0.51100000000E-03 0. -1.
        -11    1    3    3    0    0 -0.78311800306E+01 -0.17850424483E+01  0.13791686848E+00  0.80332296455E+01  0.51100000000E-03 0.  1.
        -12    1    3    3    0    0 -0.24959092300E+02 -0.20564523381E+02  0.19125716567E+02  0.37571916966E+02  0.00000000000E+00 0.  1.
</event>
<event>
 7    1  0.2653124E-010  0.4778727E+02  0.7816164E-02  0.1312668E+00
        -11   -1    0    0    0    0  0.00000000000E+00  0.00000000000E+00  0.45593999997E+02  0.45594000000E+02  0.51100000000E-03 0.  1.
         11   -1    0    0    0    0 -0.00000000000E+00 -0.00000000000E+00 -0.45593999997E+02  0.45594000000E+02  0.51100000000E-03 0. -1.
    9900012    2    1    2    0    0 -0.31850344716E+00 -0.37241644425E+02  0.22284114679E+02  0.47787270848E+02  0.19999999103E+02 0.  0.
         12    1    1    2    0    0  0.31850344716E+00  0.37241644425E+02 -0.22284114679E+02  0.43400729152E+02  0.00000000000E+00 0. -1.
         11    1    3    3    0    0 -0.39559556853E+01  0.15485497976E+00  0.26261410518E+01  0.47508086189E+01  0.51100000000E-03 0. -1.
        -11    1    3    3    0    0 -0.61708683536E+00 -0.95314419711E+01  0.19518591016E+01  0.97487915367E+01  0.51100000000E-03 0.  1.
         12    1    3    3    0    0  0.42545390735E+01 -0.27865057434E+02  0.17706114526E+02  0.33287670692E+02  0.00000000000E+00 0. -1.
</event>
<event>
 7    1  0.2653124E-010  0.4778727E+02  0.7816164E-02  0.1312668E+00
        -11   -1    0    0    0    0  0.00000000000E+00  0.00000000000E+00  0.45593999997E+02  0.45594000000E+02  0.51100000000E-03 0.  1.
         11   -1    0    0    0    0 -0.00000000000E+00 -0.00000000000E+00 -0.45593999997E+02  0.45594000000E+02  0.51100000000E-03 0. -1.
    9900012    2    1    2    0    0 -0.55119343254E+01  0.31218301341E+02  0.29642194203E+02  0.47787269179E+02  0.19999991495E+02 0.  0.
         12    1    1    2    0    0  0.55119343254E+01 -0.31218301341E+02 -0.29642194203E+02  0.43400730821E+02  0.00000000000E+00 0. -1.
         11    1    3    3    0    0  0.41232635393E+01  0.37349335057E+01  0.83895664955E+01  0.10066571251E+02  0.51100000000E-03 0. -1.
        -11    1    3    3    0    0  0.12780185966E+01 -0.19809834901E+00  0.16177200426E+01  0.20711332372E+01  0.51100000000E-03 0.  1.
        -12    1    3    3    0    0 -0.10913216461E+02  0.27681466184E+02  0.19634907665E+02  0.35649564691E+02  0.00000000000E+00 0.  1.
</event>
<event>
 7    1  0.2653124E-010  0.4778727E+02  0.7816164E-02  0.1312668E+00
        -11   -1    0    0    0    0  0.00000000000E+00  0.00000000000E+00  0.45593999997E+02  0.45594000000E+02  0.51100000000E-03 0.  1.
         11   -1    0    0    0    0 -0.00000000000E+00 -0.00000000000E+00 -0.45593999997E+02  0.45594000000E+02  0.51100000000E-03 0. -1.
    9900012    2    1    2    0    0 -0.39950843087E+02 -0.13558241586E+01  0.16903105797E+02  0.47787272954E+02  0.20000008708E+02 0.  0.
         12    1    1    2    0    0  0.39950843087E+02  0.13558241586E+01 -0.16903105797E+02  0.43400727046E+02  0.00000000000E+00 0. -1.
         11    1    3    3    0    0 -0.25884625241E+02  0.32876917769E+01  0.11073582799E+02  0.28345140278E+02  0.51100000000E-03 0.  1.
        -11    1    3    3    0    0 -0.13389239782E+02 -0.27689450101E+01  0.85079401005E+01  0.16103535122E+02  0.51100000000E-03 0. -1.
         12    1    3    3    0    0 -0.67697806337E+00 -0.18745709255E+01 -0.26784171026E+01  0.33385975541E+01  0.00000000000E+00 0. -1.
</event>
<event>
 7    1  0.2653124E-010  0.4778727E+02  0.7816164E-02  0.1312668E+00
        -11   -1    0    0    0    0  0.00000000000E+00  0.00000000000E+00  0.45593999997E+02  0.45594000000E+02  0.51100000000E-03 0.  1.
         11   -1    0    0    0    0 -0.00000000000E+00 -0.00000000000E+00 -0.45593999997E+02  0.45594000000E+02  0.51100000000E-03 0. -1.
    9900012    2    1    2    0    0  0.23777828431E+02  0.78154608456E+00  0.36299133095E+02  0.47787274170E+02  0.20000014248E+02 0.  0.
         12    1    1    2    0    0 -0.23777828431E+02 -0.78154608456E+00 -0.36299133095E+02  0.43400725830E+02  0.00000000000E+00 0. -1.
         11    1    3    3    0    0  0.80881547810E+01  0.36316990901E+01  0.45698526474E+01  0.99745195134E+01  0.51100000000E-03 0. -1.
        -11    1    3    3    0    0  0.15059493606E+02 -0.45042268508E+01  0.17699210348E+02  0.23671469206E+02  0.51100000000E-03 0.  1.
        -12    1    3    3    0    0  0.63018004427E+00  0.16540738452E+01  0.14030070100E+02  0.14141285450E+02  0.00000000000E+00 0.  1.
</event>
<event>
 7    1  0.2653124E-010  0.4778727E+02  0.7816164E-02  0.1312668E+00
        -11   -1    0    0    0    0  0.00000000000E+00  0.00000000000E+00  0.45593999997E+02  0.45594000000E+02  0.51100000000E-03 0.  1.
         11   -1    0    0    0    0 -0.00000000000E+00 -0.00000000000E+00 -0.45593999997E+02  0.45594000000E+02  0.51100000000E-03 0. -1.
    9900012    2    1    2    0    0 -0.51638782112E+01 -0.20476276710E+02  0.37916746641E+02  0.47787271643E+02  0.20000002729E+02 0.  0.
         12    1    1    2    0    0  0.51638782112E+01  0.20476276710E+02 -0.37916746641E+02  0.43400728357E+02  0.00000000000E+00 0. -1.
         11    1    3    3    0    0  0.20491081834E+01 -0.29104689866E+01  0.19047703378E+01  0.40370563992E+01  0.51100000000E-03 0. -1.
        -11    1    3    3    0    0  0.98234324927E-02 -0.39313538859E+01 -0.63985167440E+00  0.39830955678E+01  0.51100000000E-03 0.  1.
        -12    1    3    3    0    0 -0.72228098271E+01 -0.13634453838E+02  0.36651827977E+02  0.39767119676E+02  0.00000000000E+00 0.  1.
</event>
<event>
 7    1  0.2653124E-010  0.4778727E+02  0.7816164E-02  0.1312668E+00
        -11   -1    0    0    0    0  0.00000000000E+00  0.00000000000E+00  0.45593999997E+02  0.45594000000E+02  0.51100000000E-03 0.  1.
         11   -1    0    0    0    0 -0.00000000000E+00 -0.00000000000E+00 -0.45593999997E+02  0.45594000000E+02  0.51100000000E-03 0. -1.
    9900012    2    1    2    0    0 -0.12395017720E+02  0.22416002522E+02  0.35035830064E+02  0.47787273950E+02  0.20000013249E+02 0.  0.
         12    1    1    2    0    0  0.12395017720E+02 -0.22416002522E+02 -0.35035830064E+02  0.43400726050E+02  0.00000000000E+00 0. -1.
         11    1    3    3    0    0  0.18745501108E+01  0.45455092814E+01  0.77606460239E+01  0.91871224938E+01  0.51100000000E-03 0.  1.
        -11    1    3    3    0    0 -0.52504944006E+01  0.15501151016E+02  0.10613336747E+02  0.19506314143E+02  0.51100000000E-03 0. -1.
        -12    1    3    3    0    0 -0.90190734303E+01  0.23693422241E+01  0.16661847294E+02  0.19093837314E+02  0.00000000000E+00 0.  1.
</event>
<event>
 7    1  0.2653124E-010  0.4778727E+02  0.7816164E-02  0.1312668E+00
        -11   -1    0    0    0    0  0.00000000000E+00  0.00000000000E+00  0.45593999997E+02  0.45594000000E+02  0.51100000000E-03 0.  1.
         11   -1    0    0    0    0 -0.00000000000E+00 -0.00000000000E+00 -0.45593999997E+02  0.45594000000E+02  0.51100000000E-03 0. -1.
    9900012    2    1    2    0    0 -0.59592384546E+01 -0.11675298267E+02  0.41373880725E+02  0.47787272831E+02  0.20000008146E+02 0.  0.
         12    1    1    2    0    0  0.59592384546E+01  0.11675298267E+02 -0.41373880725E+02  0.43400727169E+02  0.00000000000E+00 0. -1.
         11    1    3    3    0    0  0.53253309994E+01  0.24385050993E+00  0.41526818799E+01  0.67574684891E+01  0.51100000000E-03 0. -1.
        -11    1    3    3    0    0 -0.17115798646E+01 -0.16211725344E+01  0.11275377193E+02  0.11519194292E+02  0.51100000000E-03 0.  1.
         12    1    3    3    0    0 -0.95729895895E+01 -0.10297976242E+02  0.25945821651E+02  0.29510610050E+02  0.00000000000E+00 0. -1.
</event>
<event>
 7    1  0.2653124E-010  0.4778727E+02  0.7816164E-02  0.1312668E+00
        -11   -1    0    0    0    0  0.00000000000E+00  0.00000000000E+00  0.45593999997E+02  0.45594000000E+02  0.51100000000E-03 0.  1.
         11   -1    0    0    0    0 -0.00000000000E+00 -0.00000000000E+00 -0.45593999997E+02  0.45594000000E+02  0.51100000000E-03 0. -1.
    9900012    2    1    2    0    0 -0.23940459171E+02 -0.17798466771E+02  0.31522881508E+02  0.47787273471E+02  0.20000011062E+02 0.  0.
         12    1    1    2    0    0  0.23940459171E+02  0.17798466771E+02 -0.31522881508E+02  0.43400726529E+02  0.00000000000E+00 0. -1.
         11    1    3    3    0    0 -0.17563798172E+01  0.90315218677E+00 -0.64687586440E+00  0.20782210132E+01  0.51100000000E-03 0. -1.
        -11    1    3    3    0    0 -0.60721159594E+01  0.17085061314E+01  0.81829786700E+01  0.10332024274E+02  0.51100000000E-03 0.  1.
        -12    1    3    3    0    0 -0.16111963394E+02 -0.20410125089E+02  0.23986778703E+02  0.35377028183E+02  0.00000000000E+00 0.  1.
</event>
<event>
 7    1  0.2653124E-010  0.4778727E+02  0.7816164E-02  0.1312668E+00
        -11   -1    0    0    0    0  0.00000000000E+00  0.00000000000E+00  0.45593999997E+02  0.45594000000E+02  0.51100000000E-03 0.  1.
         11   -1    0    0    0    0 -0.00000000000E+00 -0.00000000000E+00 -0.45593999997E+02  0.45594000000E+02  0.51100000000E-03 0. -1.
    9900012    2    1    2    0    0 -0.27900989455E+02  0.26198613674E+02  0.20464375833E+02  0.47787271328E+02  0.20000001292E+02 0.  0.
         12    1    1    2    0    0  0.27900989455E+02 -0.26198613674E+02 -0.20464375833E+02  0.43400728672E+02  0.00000000000E+00 0. -1.
         11    1    3    3    0    0  0.21525166664E+01 -0.17205433616E+00  0.23569102815E+01  0.31965539304E+01  0.51100000000E-03 0. -1.
        -11    1    3    3    0    0 -0.40560274843E+01  0.72934212505E+01  0.21793633518E+01  0.86252523077E+01  0.51100000000E-03 0.  1.
         12    1    3    3    0    0 -0.25997478637E+02  0.19077246760E+02  0.15928102200E+02  0.35965465090E+02  0.00000000000E+00 0. -1.
</event>
<event>
 7    1  0.2653124E-010  0.4778724E+02  0.7816164E-02  0.1312668E+00
        -11   -1    0    0    0    0  0.00000000000E+00  0.00000000000E+00  0.45593999997E+02  0.45594000000E+02  0.51100000000E-03 0. -1.
         11   -1    0    0    0    0 -0.00000000000E+00 -0.00000000000E+00 -0.45593999997E+02  0.45594000000E+02  0.51100000000E-03 0.  1.
    9900012    2    1    2    0    0  0.11974552426E+02 -0.10353778122E+02 -0.40410828711E+02  0.47787243044E+02  0.19999872336E+02 0.  0.
         12    1    1    2    0    0 -0.11974552426E+02  0.10353778122E+02  0.40410828711E+02  0.43400756956E+02  0.00000000000E+00 0. -1.
         11    1    3    3    0    0  0.92759914112E+01 -0.23352329217E+01 -0.27963155855E+02  0.29553940771E+02  0.51100000000E-03 0. -1.
        -11    1    3    3    0    0  0.31083166232E+01  0.11663602171E+01 -0.64548518696E+01  0.72585908622E+01  0.51100000000E-03 0.  1.
        -12    1    3    3    0    0 -0.40975560858E+00 -0.91849054171E+01 -0.59928209870E+01  0.10974711411E+02  0.00000000000E+00 0.  1.
</event>
<event>
 7    1  0.2653124E-010  0.4778726E+02  0.7816164E-02  0.1312668E+00
        -11   -1    0    0    0    0  0.00000000000E+00  0.00000000000E+00  0.45593999997E+02  0.45594000000E+02  0.51100000000E-03 0.  1.
         11   -1    0    0    0    0 -0.00000000000E+00 -0.00000000000E+00 -0.45593999997E+02  0.45594000000E+02  0.51100000000E-03 0. -1.
    9900012    2    1    2    0    0 -0.91126245102E+01 -0.47505351211E+01  0.42166535586E+02  0.47787259998E+02  0.19999949635E+02 0.  0.
         12    1    1    2    0    0  0.91126245102E+01  0.47505351211E+01 -0.42166535586E+02  0.43400740002E+02  0.00000000000E+00 0. -1.
         11    1    3    3    0    0  0.30160390376E+01 -0.53659009634E+01  0.13031580983E+02  0.14412199270E+02  0.51100000000E-03 0. -1.
        -11    1    3    3    0    0 -0.21745923135E+01 -0.62377962518E+00 -0.29607412200E+00  0.22815812275E+01  0.51100000000E-03 0.  1.
        -12    1    3    3    0    0 -0.99540712344E+01  0.12391454675E+01  0.29431028725E+02  0.31093479501E+02  0.00000000000E+00 0.  1.
</event>
<event>
 7    1  0.2653124E-010  0.4778727E+02  0.7816164E-02  0.1312668E+00
        -11   -1    0    0    0    0  0.00000000000E+00  0.00000000000E+00  0.45593999997E+02  0.45594000000E+02  0.51100000000E-03 0. -1.
         11   -1    0    0    0    0 -0.00000000000E+00 -0.00000000000E+00 -0.45593999997E+02  0.45594000000E+02  0.51100000000E-03 0.  1.
    9900012    2    1    2    0    0 -0.31175465358E+02  0.23288488820E+02 -0.19218740820E+02  0.47787270161E+02  0.19999995973E+02 0.  0.
         12    1    1    2    0    0  0.31175465358E+02 -0.23288488820E+02  0.19218740820E+02  0.43400729839E+02  0.00000000000E+00 0. -1.
         11    1    3    3    0    0 -0.10975009149E+02  0.29092620472E+01 -0.12470754278E+02  0.16865181410E+02  0.51100000000E-03 0.  1.
        -11    1    3    3    0    0 -0.93863263479E+00 -0.75601208156E+00  0.67125614989E+00  0.13795544826E+01  0.51100000000E-03 0. -1.
        -12    1    3    3    0    0 -0.19261823575E+02  0.21135238855E+02 -0.74192426916E+01  0.29542534268E+02  0.00000000000E+00 0.  1.
</event>
<event>
 7    1  0.2653124E-010  0.4778727E+02  0.7816164E-02  0.1312668E+00
        -11   -1    0    0    0    0  0.00000000000E+00  0.00000000000E+00  0.45593999997E+02  0.45594000000E+02  0.51100000000E-03 0.  1.
         11   -1    0    0    0    0 -0.00000000000E+00 -0.00000000000E+00 -0.45593999997E+02  0.45594000000E+02  0.51100000000E-03 0. -1.
    9900012    2    1    2    0    0 -0.22588070501E+02  0.13498688705E+02  0.34513588758E+02  0.47787270344E+02  0.19999996805E+02 0.  0.
         12    1    1    2    0    0  0.22588070501E+02 -0.13498688705E+02 -0.34513588758E+02  0.43400729656E+02  0.00000000000E+00 0. -1.
         11    1    3    3    0    0 -0.81392315291E+01  0.49615158451E+01  0.12550527387E+02  0.15760059242E+02  0.51100000000E-03 0. -1.
        -11    1    3    3    0    0 -0.11361087816E+02  0.96517777910E+01  0.65751933678E+01  0.16293075185E+02  0.51100000000E-03 0.  1.
         12    1    3    3    0    0 -0.30877511556E+01 -0.11146049309E+01  0.15387868003E+02  0.15734135916E+02  0.00000000000E+00 0. -1.
</event>
<event>
 7    1  0.2653124E-010  0.4778727E+02  0.7816164E-02  0.1312668E+00
        -11   -1    0    0    0    0  0.00000000000E+00  0.00000000000E+00  0.45593999997E+02  0.45594000000E+02  0.51100000000E-03 0.  1.
         11   -1    0    0    0    0 -0.00000000000E+00 -0.00000000000E+00 -0.45593999997E+02  0.45594000000E+02  0.51100000000E-03 0. -1.
    9900012    2    1    2    0    0 -0.37288767735E+02  0.71944522477E+01  0.21009784448E+02  0.47787269765E+02  0.19999994168E+02 0.  0.
         12    1    1    2    0    0  0.37288767735E+02 -0.71944522477E+01 -0.21009784448E+02  0.43400730235E+02  0.00000000000E+00 0. -1.
         11    1    3    3    0    0 -0.79171541364E+01 -0.14069643766E+01  0.54706876130E+01  0.97257031415E+01  0.51100000000E-03 0. -1.
        -11    1    3    3    0    0 -0.27515668723E+02  0.11520101823E+02  0.98695601777E+01  0.31420263997E+02  0.51100000000E-03 0.  1.
        -12    1    3    3    0    0 -0.18559448758E+01 -0.29186851989E+01  0.56695366572E+01  0.66413026267E+01  0.00000000000E+00 0.  1.
</event>
<event>
 7    1  0.2653124E-010  0.4778726E+02  0.7816164E-02  0.1312668E+00
        -11   -1    0    0    0    0  0.00000000000E+00  0.00000000000E+00  0.45593999997E+02  0.45594000000E+02  0.51100000000E-03 0.  1.
         11   -1    0    0    0    0 -0.00000000000E+00 -0.00000000000E+00 -0.45593999997E+02  0.45594000000E+02  0.51100000000E-03 0. -1.
    9900012    2    1    2    0    0 -0.47538129884E+01  0.81008143291E+01  0.42372182968E+02  0.47787264751E+02  0.19999971305E+02 0.  0.
         12    1    1    2    0    0  0.47538129884E+01 -0.81008143291E+01 -0.42372182968E+02  0.43400735249E+02  0.00000000000E+00 0. -1.
         11    1    3    3    0    0 -0.25554127971E+01  0.17616500159E+01  0.84094831808E+01  0.89639808663E+01  0.51100000000E-03 0. -1.
        -11    1    3    3    0    0 -0.48437567115E+01 -0.47917181538E+01  0.17462721673E+02  0.18744844369E+02  0.51100000000E-03 0.  1.
         12    1    3    3    0    0  0.26453565202E+01  0.11130882467E+02  0.16499978114E+02  0.20078439516E+02  0.00000000000E+00 0. -1.
</event>
<event>
 7    1  0.2653124E-010  0.4778727E+02  0.7816164E-02  0.1312668E+00
        -11   -1    0    0    0    0  0.00000000000E+00  0.00000000000E+00  0.45593999997E+02  0.45594000000E+02  0.51100000000E-03 0.  1.
         11   -1    0    0    0    0 -0.00000000000E+00 -0.00000000000E+00 -0.45593999997E+02  0.45594000000E+02  0.51100000000E-03 0. -1.
    9900012    2    1    2    0    0  0.12305645070E+02 -0.37031038003E+02  0.18997274466E+02  0.47787272894E+02  0.20000008433E+02 0.  0.
         12    1    1    2    0    0 -0.12305645070E+02  0.37031038003E+02 -0.18997274466E+02  0.43400727106E+02  0.00000000000E+00 0. -1.
         11    1    3    3    0    0  0.61060108876E+01 -0.31473810122E+01  0.34576136029E+01  0.76905440824E+01  0.51100000000E-03 0. -1.
        -11    1    3    3    0    0  0.78226106678E+01 -0.14368034495E+02  0.24502735475E+01  0.16541991827E+02  0.51100000000E-03 0.  1.
        -12    1    3    3    0    0 -0.16229764854E+01 -0.19515622497E+02  0.13089387316E+02  0.23554736984E+02  0.00000000000E+00 0.  1.
</event>
<event>
 7    1  0.2653124E-010  0.4778727E+02  0.7816164E-02  0.1312668E+00
        -11   -1    0    0    0    0  0.00000000000E+00  0.00000000000E+00  0.45593999997E+02  0.45594000000E+02  0.51100000000E-03 0.  1.
         11   -1    0    0    0    0 -0.00000000000E+00 -0.00000000000E+00 -0.45593999997E+02  0.45594000000E+02  0.51100000000E-03 0. -1.
    9900012    2    1    2    0    0 -0.28849731941E+02 -0.32397966085E+02  0.12991952773E+01  0.47787272496E+02  0.20000006618E+02 0.  0.
         12    1    1    2    0    0  0.28849731941E+02  0.32397966085E+02 -0.12991952773E+01  0.43400727504E+02  0.00000000000E+00 0. -1.
         11    1    3    3    0    0 -0.15624263611E+02 -0.17240343601E+02 -0.39897037059E+01  0.23606456675E+02  0.51100000000E-03 0. -1.
        -11    1    3    3    0    0 -0.81829373962E+01 -0.15163894883E+02  0.51751228367E+00  0.17238677202E+02  0.51100000000E-03 0.  1.
         12    1    3    3    0    0 -0.50425309341E+01  0.62723982996E-02  0.47713866995E+01  0.69421386186E+01  0.00000000000E+00 0. -1.
</event>
<event>
 7    1  0.2653124E-010  0.4778728E+02  0.7816164E-02  0.1312668E+00
        -11   -1    0    0    0    0  0.00000000000E+00  0.00000000000E+00  0.45593999997E+02  0.45594000000E+02  0.51100000000E-03 0. -1.
         11   -1    0    0    0    0 -0.00000000000E+00 -0.00000000000E+00 -0.45593999997E+02  0.45594000000E+02  0.51100000000E-03 0.  1.
    9900012    2    1    2    0    0 -0.29124516233E+02 -0.30160074187E+02 -0.11214063378E+02  0.47787277216E+02  0.20000028137E+02 0.  0.
         12    1    1    2    0    0  0.29124516233E+02  0.30160074187E+02  0.11214063378E+02  0.43400722784E+02  0.00000000000E+00 0. -1.
         11    1    3    3    0    0 -0.10468288103E+02 -0.19819837831E+01 -0.35709611340E+01  0.11236773523E+02  0.51100000000E-03 0. -1.
        -11    1    3    3    0    0 -0.59108373545E+00 -0.55801774269E+01 -0.49702667311E+01  0.74960864281E+01  0.51100000000E-03 0.  1.
         12    1    3    3    0    0 -0.18065144394E+02 -0.22597912977E+02 -0.26728355125E+01  0.29054417264E+02  0.00000000000E+00 0. -1.
</event>
<event>
 7    1  0.2653124E-010  0.4778727E+02  0.7816164E-02  0.1312668E+00
        -11   -1    0    0    0    0  0.00000000000E+00  0.00000000000E+00  0.45593999997E+02  0.45594000000E+02  0.51100000000E-03 0. -1.
         11   -1    0    0    0    0 -0.00000000000E+00 -0.00000000000E+00 -0.45593999997E+02  0.45594000000E+02  0.51100000000E-03 0.  1.
    9900012    2    1    2    0    0  0.95230415548E+00  0.43144633902E+02  0.46105231090E+01  0.47787271422E+02  0.20000001724E+02 0.  0.
         12    1    1    2    0    0 -0.95230415548E+00 -0.43144633902E+02 -0.46105231090E+01  0.43400728578E+02  0.00000000000E+00 0. -1.
         11    1    3    3    0    0 -0.13727283129E+01  0.76252136794E+01  0.68504374774E+01  0.10341990165E+02  0.51100000000E-03 0. -1.
        -11    1    3    3    0    0 -0.42460166043E+01  0.20739389471E+02 -0.48136170046E+00  0.21175047627E+02  0.51100000000E-03 0.  1.
         12    1    3    3    0    0  0.65710490726E+01  0.14780030751E+02 -0.17585526679E+01  0.16270233631E+02  0.00000000000E+00 0. -1.
</event>
<event>
 7    1  0.2653124E-010  0.4778727E+02  0.7816164E-02  0.1312668E+00
        -11   -1    0    0    0    0  0.00000000000E+00  0.00000000000E+00  0.45593999997E+02  0.45594000000E+02  0.51100000000E-03 0.  1.
         11   -1    0    0    0    0 -0.00000000000E+00 -0.00000000000E+00 -0.45593999997E+02  0.45594000000E+02  0.51100000000E-03 0. -1.
    9900012    2    1    2    0    0 -0.17875408361E+02 -0.18063283732E+01  0.39507340202E+02  0.47787274475E+02  0.20000015641E+02 0.  0.
         12    1    1    2    0    0  0.17875408361E+02  0.18063283732E+01 -0.39507340202E+02  0.43400725525E+02  0.00000000000E+00 0. -1.
         11    1    3    3    0    0 -0.16118110914E+00 -0.41285158588E+01  0.91727379109E+01  0.10060305343E+02  0.51100000000E-03 0. -1.
        -11    1    3    3    0    0 -0.14063017762E+02 -0.30343575054E+01  0.26611256141E+02  0.30251194153E+02  0.51100000000E-03 0.  1.
         12    1    3    3    0    0 -0.36512094900E+01  0.53565449910E+01  0.37233461501E+01  0.74757749788E+01  0.00000000000E+00 0. -1.
</event>
<event>
 7    1  0.2653124E-010  0.4778727E+02  0.7816164E-02  0.1312668E+00
        -11   -1    0    0    0    0  0.00000000000E+00  0.00000000000E+00  0.45593999997E+02  0.45594000000E+02  0.51100000000E-03 0.  1.
         11   -1    0    0    0    0 -0.00000000000E+00 -0.00000000000E+00 -0.45593999997E+02  0.45594000000E+02  0.51100000000E-03 0. -1.
    9900012    2    1    2    0    0  0.24314163535E+02  0.21074957717E+02  0.29125434886E+02  0.47787270186E+02  0.19999996084E+02 0.  0.
         12    1    1    2    0    0 -0.24314163535E+02 -0.21074957717E+02 -0.29125434886E+02  0.43400729814E+02  0.00000000000E+00 0. -1.
         11    1    3    3    0    0  0.74719790833E+01  0.66817329804E+01  0.87331040485E+01  0.13294477561E+02  0.51100000000E-03 0.  1.
        -11    1    3    3    0    0  0.67323132847E+01 -0.32238824255E+01  0.46456353109E+01  0.87920070382E+01  0.51100000000E-03 0. -1.
         12    1    3    3    0    0  0.10109871167E+02  0.17617107162E+02  0.15746695526E+02  0.25700785586E+02  0.00000000000E+00 0. -1.
</event>
<event>
 7    1  0.2653124E-010  0.4778726E+02  0.7816164E-02  0.1312668E+00
        -11   -1    0    0    0    0  0.00000000000E+00  0.00000000000E+00  0.45593999997E+02  0.45594000000E+02  0.51100000000E-03 0.  1.
         11   -1    0    0    0    0 -0.00000000000E+00 -0.00000000000E+00 -0.45593999997E+02  0.45594000000E+02  0.51100000000E-03 0. -1.
    9900012    2    1    2    0    0  0.21531446987E+02  0.37452331976E+02  0.41645618916E+01  0.47787263191E+02  0.19999964195E+02 0.  0.
         12    1    1    2    0    0 -0.21531446987E+02 -0.37452331976E+02 -0.41645618916E+01  0.43400736809E+02  0.00000000000E+00 0. -1.
         11    1    3    3    0    0  0.60760862643E+01  0.21246836907E+01  0.32535814649E+01  0.72124127507E+01  0.51100000000E-03 0. -1.
        -11    1    3    3    0    0  0.11973441954E+02  0.19300468033E+02  0.58354631708E+01  0.23450458614E+02  0.51100000000E-03 0.  1.
         12    1    3    3    0    0  0.34819187683E+01  0.16027180252E+02 -0.49244827441E+01  0.17124391827E+02  0.00000000000E+00 0. -1.
</event>
<event>
 7    1  0.2653124E-010  0.4778728E+02  0.7816164E-02  0.1312668E+00
        -11   -1    0    0    0    0  0.00000000000E+00  0.00000000000E+00  0.45593999997E+02  0.45594000000E+02  0.51100000000E-03 0.  1.
         11   -1    0    0    0    0 -0.00000000000E+00 -0.00000000000E+00 -0.45593999997E+02  0.45594000000E+02  0.51100000000E-03 0. -1.
    9900012    2    1    2    0    0 -0.34635016256E+02  0.10651214895E+02  0.23887017987E+02  0.47787281595E+02  0.20000048103E+02 0.  0.
         12    1    1    2    0    0  0.34635016256E+02 -0.10651214895E+02 -0.23887017987E+02  0.43400718405E+02  0.00000000000E+00 0. -1.
         11    1    3    3    0    0 -0.15125689672E+01  0.95015587016E+00 -0.20448604782E+01  0.27151640272E+01  0.51100000000E-03 0. -1.
        -11    1    3    3    0    0 -0.21006499451E+02  0.71671947924E+01  0.86652591644E+01  0.23827052210E+02  0.51100000000E-03 0.  1.
         12    1    3    3    0    0 -0.12115947838E+02  0.25338642323E+01  0.17266619301E+02  0.21245065358E+02  0.00000000000E+00 0. -1.
</event>
<event>
 7    1  0.2653124E-010  0.4778727E+02  0.7816164E-02  0.1312668E+00
        -11   -1    0    0    0    0  0.00000000000E+00  0.00000000000E+00  0.45593999997E+02  0.45594000000E+02  0.51100000000E-03 0. -1.
         11   -1    0    0    0    0 -0.00000000000E+00 -0.00000000000E+00 -0.45593999997E+02  0.45594000000E+02  0.51100000000E-03 0.  1.
    9900012    2    1    2    0    0 -0.12596809268E+02  0.20497619624E+02 -0.36121896002E+02  0.47787269767E+02  0.19999994175E+02 0.  0.
         12    1    1    2    0    0  0.12596809268E+02 -0.20497619624E+02  0.36121896002E+02  0.43400730233E+02  0.00000000000E+00 0. -1.
         11    1    3    3    0    0 -0.13303024515E+01  0.10663557995E+02 -0.11420493280E+02  0.15681480821E+02  0.51100000000E-03 0.  1.
        -11    1    3    3    0    0  0.30074706544E+01  0.39168210684E+01 -0.45736850671E+01  0.67308961048E+01  0.51100000000E-03 0. -1.
        -12    1    3    3    0    0 -0.14273977471E+02  0.59172405600E+01 -0.20127717655E+02  0.25374892841E+02  0.00000000000E+00 0.  1.
</event>
<event>
 7    1  0.2653124E-010  0.4778726E+02  0.7816164E-02  0.1312668E+00
        -11   -1    0    0    0    0  0.00000000000E+00  0.00000000000E+00  0.45593999997E+02  0.45594000000E+02  0.51100000000E-03 0. -1.
         11   -1    0    0    0    0 -0.00000000000E+00 -0.00000000000E+00 -0.45593999997E+02  0.45594000000E+02  0.51100000000E-03 0.  1.
    9900012    2    1    2    0    0  0.12136783622E+02  0.25667021714E+02 -0.32825696186E+02  0.47787264402E+02  0.19999969716E+02 0.  0.
         12    1    1    2    0    0 -0.12136783622E+02 -0.25667021714E+02  0.32825696186E+02  0.43400735598E+02  0.00000000000E+00 0. -1.
         11    1    3    3    0    0 -0.19400051581E+01  0.33852221577E+01 -0.25861105412E+00  0.39102722423E+01  0.51100000000E-03 0. -1.
        -11    1    3    3    0    0  0.72950054913E+01  0.61325228618E+01 -0.39314493614E+01  0.10309279127E+02  0.51100000000E-03 0.  1.
         12    1    3    3    0    0  0.67817832887E+01  0.16149276694E+02 -0.28635635770E+02  0.33567713033E+02  0.00000000000E+00 0. -1.
</event>
<event>
 7    1  0.2653124E-010  0.4778727E+02  0.7816164E-02  0.1312668E+00
        -11   -1    0    0    0    0  0.00000000000E+00  0.00000000000E+00  0.45593999997E+02  0.45594000000E+02  0.51100000000E-03 0.  1.
         11   -1    0    0    0    0 -0.00000000000E+00 -0.00000000000E+00 -0.45593999997E+02  0.45594000000E+02  0.51100000000E-03 0. -1.
    9900012    2    1    2    0    0  0.23231605010E+02  0.33103943315E+02  0.15749447361E+02  0.47787266982E+02  0.19999981476E+02 0.  0.
         12    1    1    2    0    0 -0.23231605010E+02 -0.33103943315E+02 -0.15749447361E+02  0.43400733018E+02  0.00000000000E+00 0. -1.
         11    1    3    3    0    0  0.12132707626E+02  0.28004554644E+02  0.11708892154E+02  0.32688772245E+02  0.51100000000E-03 0. -1.
        -11    1    3    3    0    0  0.49021288550E+01  0.49087855350E+01 -0.11260674336E+01  0.70281626949E+01  0.51100000000E-03 0.  1.
         12    1    3    3    0    0  0.61967685291E+01  0.19060313624E+00  0.51666226409E+01  0.80703320423E+01  0.00000000000E+00 0. -1.
</event>
<event>
 7    1  0.2653124E-010  0.4778727E+02  0.7816164E-02  0.1312668E+00
        -11   -1    0    0    0    0  0.00000000000E+00  0.00000000000E+00  0.45593999997E+02  0.45594000000E+02  0.51100000000E-03 0.  1.
         11   -1    0    0    0    0 -0.00000000000E+00 -0.00000000000E+00 -0.45593999997E+02  0.45594000000E+02  0.51100000000E-03 0. -1.
    9900012    2    1    2    0    0 -0.37800548012E+02 -0.65333257877E+01  0.20299198980E+02  0.47787271261E+02  0.20000000986E+02 0.  0.
         12    1    1    2    0    0  0.37800548012E+02  0.65333257877E+01 -0.20299198980E+02  0.43400728739E+02  0.00000000000E+00 0. -1.
         11    1    3    3    0    0 -0.47513014610E+01  0.26630665812E+01  0.58917099665E+01  0.80236547644E+01  0.51100000000E-03 0. -1.
        -11    1    3    3    0    0 -0.21101662000E+02 -0.19436897283E+01  0.14688906750E+02  0.25784143396E+02  0.51100000000E-03 0.  1.
        -12    1    3    3    0    0 -0.11947584552E+02 -0.72527026405E+01 -0.28141773689E+00  0.13979473100E+02  0.00000000000E+00 0.  1.
</event>
<event>
 7    1  0.2653124E-010  0.4778727E+02  0.7816164E-02  0.1312668E+00
        -11   -1    0    0    0    0  0.00000000000E+00  0.00000000000E+00  0.45593999997E+02  0.45594000000E+02  0.51100000000E-03 0. -1.
         11   -1    0    0    0    0 -0.00000000000E+00 -0.00000000000E+00 -0.45593999997E+02  0.45594000000E+02  0.51100000000E-03 0.  1.
    9900012    2    1    2    0    0  0.20807608705E+02  0.48861397377E+01 -0.37772905579E+02  0.47787270312E+02  0.19999996659E+02 0.  0.
         12    1    1    2    0    0 -0.20807608705E+02 -0.48861397377E+01  0.37772905579E+02  0.43400729688E+02  0.00000000000E+00 0. -1.
         11    1    3    3    0    0 -0.15927706641E-01 -0.35822935634E+01 -0.16308559350E+01  0.39360858995E+01  0.51100000000E-03 0. -1.
        -11    1    3    3    0    0  0.30114653413E+01  0.51812070536E+01 -0.14107219907E+02  0.15327344317E+02  0.51100000000E-03 0.  1.
        -12    1    3    3    0    0  0.17812071071E+02  0.32872262475E+01 -0.22034829738E+02  0.28523840096E+02  0.00000000000E+00 0.  1.
</event>
<event>
 7    1  0.2653124E-010  0.4778727E+02  0.7816164E-02  0.1312668E+00
        -11   -1    0    0    0    0  0.00000000000E+00  0.00000000000E+00  0.45593999997E+02  0.45594000000E+02  0.51100000000E-03 0.  1.
         11   -1    0    0    0    0 -0.00000000000E+00 -0.00000000000E+00 -0.45593999997E+02  0.45594000000E+02  0.51100000000E-03 0. -1.
    9900012    2    1    2    0    0  0.32559253385E+01  0.41939710379E+02  0.10680952886E+02  0.47787272920E+02  0.20000008553E+02 0.  0.
         12    1    1    2    0    0 -0.32559253385E+01 -0.41939710379E+02 -0.10680952886E+02  0.43400727080E+02  0.00000000000E+00 0. -1.
         11    1    3    3    0    0 -0.35031864463E+01  0.14602190246E+01 -0.10839405495E+00  0.37968808790E+01  0.51100000000E-03 0. -1.
        -11    1    3    3    0    0 -0.12893022122E+01  0.86561763648E+01 -0.16151920607E+01  0.88994682485E+01  0.51100000000E-03 0.  1.
        -12    1    3    3    0    0  0.80484139970E+01  0.31823314990E+02  0.12404539002E+02  0.35090923793E+02  0.00000000000E+00 0.  1.
</event>
<event>
 7    1  0.2653124E-010  0.4778727E+02  0.7816164E-02  0.1312668E+00
        -11   -1    0    0    0    0  0.00000000000E+00  0.00000000000E+00  0.45593999997E+02  0.45594000000E+02  0.51100000000E-03 0.  1.
         11   -1    0    0    0    0 -0.00000000000E+00 -0.00000000000E+00 -0.45593999997E+02  0.45594000000E+02  0.51100000000E-03 0. -1.
    9900012    2    1    2    0    0 -0.28350122326E+02  0.30044293997E+02  0.13312940121E+02  0.47787269449E+02  0.19999992725E+02 0.  0.
         12    1    1    2    0    0  0.28350122326E+02 -0.30044293997E+02 -0.13312940121E+02  0.43400730551E+02  0.00000000000E+00 0. -1.
         11    1    3    3    0    0 -0.28908505534E+01  0.43605416466E-01  0.99882114757E+00  0.30588498330E+01  0.51100000000E-03 0. -1.
        -11    1    3    3    0    0 -0.80617333154E+01  0.19312983080E+02  0.12369400268E+02  0.24310181463E+02  0.51100000000E-03 0.  1.
        -12    1    3    3    0    0 -0.17397538458E+02  0.10687705501E+02 -0.55281294933E-01  0.20418238153E+02  0.00000000000E+00 0.  1.
</event>
<event>
 7    1  0.2653124E-010  0.4778727E+02  0.7816164E-02  0.1312668E+00
        -11   -1    0    0    0    0  0.00000000000E+00  0.00000000000E+00  0.45593999997E+02  0.45594000000E+02  0.51100000000E-03 0.  1.
         11   -1    0    0    0    0 -0.00000000000E+00 -0.00000000000E+00 -0.45593999997E+02  0.45594000000E+02  0.51100000000E-03 0. -1.
    9900012    2    1    2    0    0  0.24668642087E+02 -0.68513534405E+01  0.35044829932E+02  0.47787273608E+02  0.20000011689E+02 0.  0.
         12    1    1    2    0    0 -0.24668642087E+02  0.68513534405E+01 -0.35044829932E+02  0.43400726392E+02  0.00000000000E+00 0. -1.
         11    1    3    3    0    0  0.53093480649E+01 -0.31957426964E+01  0.96196189535E+01  0.11442858792E+02  0.51100000000E-03 0. -1.
        -11    1    3    3    0    0  0.14545982896E+02 -0.85540962626E+01  0.23986748836E+02  0.29327841742E+02  0.51100000000E-03 0.  1.
         12    1    3    3    0    0  0.48133111259E+01  0.48984855185E+01  0.14384621424E+01  0.70165730742E+01  0.00000000000E+00 0. -1.
</event>
<event>
 7    1  0.2653124E-010  0.4778727E+02  0.7816164E-02  0.1312668E+00
        -11   -1    0    0    0    0  0.00000000000E+00  0.00000000000E+00  0.45593999997E+02  0.45594000000E+02  0.51100000000E-03 0.  1.
         11   -1    0    0    0    0 -0.00000000000E+00 -0.00000000000E+00 -0.45593999997E+02  0.45594000000E+02  0.51100000000E-03 0. -1.
    9900012    2    1    2    0    0 -0.27584129803E+02 -0.10978255358E+02  0.31657805602E+02  0.47787274623E+02  0.20000016318E+02 0.  0.
         12    1    1    2    0    0  0.27584129803E+02  0.10978255358E+02 -0.31657805602E+02  0.43400725377E+02  0.00000000000E+00 0. -1.
         11    1    3    3    0    0  0.10916364441E+01 -0.36710409149E+01  0.20307281666E+01  0.43349819691E+01  0.51100000000E-03 0. -1.
        -11    1    3    3    0    0 -0.13880190823E+02  0.10593931691E+01  0.84000673469E+01  0.16258632872E+02  0.51100000000E-03 0.  1.
        -12    1    3    3    0    0 -0.14795575425E+02 -0.83666076126E+01  0.21227010088E+02  0.27193659783E+02  0.00000000000E+00 0.  1.
</event>
<event>
 7    1  0.2653124E-010  0.4778729E+02  0.7816164E-02  0.1312668E+00
        -11   -1    0    0    0    0  0.00000000000E+00  0.00000000000E+00  0.45593999997E+02  0.45594000000E+02  0.51100000000E-03 0.  1.
         11   -1    0    0    0    0 -0.00000000000E+00 -0.00000000000E+00 -0.45593999997E+02  0.45594000000E+02  0.51100000000E-03 0. -1.
    9900012    2    1    2    0    0  0.32642716280E+02  0.10415051922E+01  0.28583037154E+02  0.47787289497E+02  0.20000084133E+02 0.  0.
         12    1    1    2    0    0 -0.32642716280E+02 -0.10415051922E+01 -0.28583037154E+02  0.43400710503E+02  0.00000000000E+00 0. -1.
         11    1    3    3    0    0  0.32353630079E+01  0.37174533484E+01  0.72796125093E+00  0.49816624770E+01  0.51100000000E-03 0. -1.
        -11    1    3    3    0    0  0.87530289293E+01  0.27570614427E+01  0.15825496992E+02  0.18293803829E+02  0.51100000000E-03 0.  1.
         12    1    3    3    0    0  0.20654324343E+02 -0.54330095989E+01  0.12029578911E+02  0.24511823191E+02  0.00000000000E+00 0. -1.
</event>
<event>
 7    1  0.2653124E-010  0.4778727E+02  0.7816164E-02  0.1312668E+00
        -11   -1    0    0    0    0  0.00000000000E+00  0.00000000000E+00  0.45593999997E+02  0.45594000000E+02  0.51100000000E-03 0. -1.
         11   -1    0    0    0    0 -0.00000000000E+00 -0.00000000000E+00 -0.45593999997E+02  0.45594000000E+02  0.51100000000E-03 0.  1.
    9900012    2    1    2    0    0 -0.23761729539E+02  0.30862949458E+02  0.19143716565E+02  0.47787270469E+02  0.19999997377E+02 0.  0.
         12    1    1    2    0    0  0.23761729539E+02 -0.30862949458E+02 -0.19143716565E+02  0.43400729531E+02  0.00000000000E+00 0. -1.
         11    1    3    3    0    0 -0.39765740600E+01  0.13312185641E+02  0.60940926792E+01  0.15171202775E+02  0.51100000000E-03 0. -1.
        -11    1    3    3    0    0 -0.11263377070E+02  0.11282714872E+02  0.14964449423E+02  0.21865453681E+02  0.51100000000E-03 0.  1.
         12    1    3    3    0    0 -0.85217784087E+01  0.62680489453E+01 -0.19148255371E+01  0.10750614013E+02  0.00000000000E+00 0. -1.
</event>
<event>
 7    1  0.2653124E-010  0.4778728E+02  0.7816164E-02  0.1312668E+00
        -11   -1    0    0    0    0  0.00000000000E+00  0.00000000000E+00  0.45593999997E+02  0.45594000000E+02  0.51100000000E-03 0. -1.
         11   -1    0    0    0    0 -0.00000000000E+00 -0.00000000000E+00 -0.45593999997E+02  0.45594000000E+02  0.51100000000E-03 0.  1.
    9900012    2    1    2    0    0 -0.29719247777E+02  0.10363326218E+02 -0.29882937980E+02  0.47787283404E+02  0.20000056352E+02 0.  0.
         12    1    1    2    0    0  0.29719247777E+02 -0.10363326218E+02  0.29882937980E+02  0.43400716596E+02  0.00000000000E+00 0. -1.
         11    1    3    3    0    0 -0.15470534520E+02  0.10220843848E+02 -0.21121945304E+02  0.28105865241E+02  0.51100000000E-03 0.  1.
        -11    1    3    3    0    0 -0.12670600589E+02  0.41281300235E+01 -0.69257948589E+01  0.15018395769E+02  0.51100000000E-03 0. -1.
         12    1    3    3    0    0 -0.15781126685E+01 -0.39856476538E+01 -0.18351978170E+01  0.46630223935E+01  0.00000000000E+00 0. -1.
</event>
<event>
 7    1  0.2653124E-010  0.4778723E+02  0.7816164E-02  0.1312668E+00
        -11   -1    0    0    0    0  0.00000000000E+00  0.00000000000E+00  0.45593999997E+02  0.45594000000E+02  0.51100000000E-03 0. -1.
         11   -1    0    0    0    0 -0.00000000000E+00 -0.00000000000E+00 -0.45593999997E+02  0.45594000000E+02  0.51100000000E-03 0.  1.
    9900012    2    1    2    0    0  0.37319960282E+02 -0.22491628318E+01 -0.22040611656E+02  0.47787231216E+02  0.19999818406E+02 0.  0.
         12    1    1    2    0    0 -0.37319960282E+02  0.22491628318E+01  0.22040611656E+02  0.43400768784E+02  0.00000000000E+00 0. -1.
         11    1    3    3    0    0 -0.87763956671E+00 -0.31434804174E+01 -0.64235524654E+00  0.33263103985E+01  0.51100000000E-03 0. -1.
        -11    1    3    3    0    0  0.28494477531E+01 -0.52620555528E+00  0.37342695866E+00  0.29215907890E+01  0.51100000000E-03 0.  1.
        -12    1    3    3    0    0  0.35348152095E+02  0.14205231408E+01 -0.21771683368E+02  0.41539330029E+02  0.00000000000E+00 0.  1.
</event>
<event>
 7    1  0.2653124E-010  0.4778730E+02  0.7816164E-02  0.1312668E+00
        -11   -1    0    0    0    0  0.00000000000E+00  0.00000000000E+00  0.45593999997E+02  0.45594000000E+02  0.51100000000E-03 0. -1.
         11   -1    0    0    0    0 -0.00000000000E+00 -0.00000000000E+00 -0.45593999997E+02  0.45594000000E+02  0.51100000000E-03 0.  1.
    9900012    2    1    2    0    0  0.73051651645E+01  0.20497765871E+02 -0.37551260356E+02  0.47787297262E+02  0.20000119537E+02 0.  0.
         12    1    1    2    0    0 -0.73051651645E+01 -0.20497765871E+02  0.37551260356E+02  0.43400702738E+02  0.00000000000E+00 0. -1.
         11    1    3    3    0    0 -0.33074382026E+01  0.30988999484E+01 -0.66637914559E+01  0.80590598200E+01  0.51100000000E-03 0.  1.
        -11    1    3    3    0    0  0.11411918130E+02  0.95704664966E+01 -0.27259818706E+02  0.31063216520E+02  0.51100000000E-03 0. -1.
         12    1    3    3    0    0 -0.79931476325E+00  0.78283994257E+01 -0.36276501941E+01  0.86650209226E+01  0.00000000000E+00 0. -1.
</event>
<event>
 7    1  0.2653124E-010  0.4778727E+02  0.7816164E-02  0.1312668E+00
        -11   -1    0    0    0    0  0.00000000000E+00  0.00000000000E+00  0.45593999997E+02  0.45594000000E+02  0.51100000000E-03 0. -1.
         11   -1    0    0    0    0 -0.00000000000E+00 -0.00000000000E+00 -0.45593999997E+02  0.45594000000E+02  0.51100000000E-03 0.  1.
    9900012    2    1    2    0    0  0.17267213241E+02 -0.39540846014E+02 -0.46891364378E+01  0.47787272389E+02  0.20000006132E+02 0.  0.
         12    1    1    2    0    0 -0.17267213241E+02  0.39540846014E+02  0.46891364378E+01  0.43400727611E+02  0.00000000000E+00 0. -1.
         11    1    3    3    0    0 -0.11481070894E+01 -0.15550584137E+01 -0.19229501865E+01  0.27265535461E+01  0.51100000000E-03 0. -1.
        -11    1    3    3    0    0  0.37503667973E+00 -0.82952692152E+01  0.46776323303E+01  0.95306027272E+01  0.51100000000E-03 0.  1.
        -12    1    3    3    0    0  0.18040283650E+02 -0.29690518385E+02 -0.74438185816E+01  0.35530116116E+02  0.00000000000E+00 0.  1.
</event>
<event>
 7    1  0.2653124E-010  0.4778727E+02  0.7816164E-02  0.1312668E+00
        -11   -1    0    0    0    0  0.00000000000E+00  0.00000000000E+00  0.45593999997E+02  0.45594000000E+02  0.51100000000E-03 0.  1.
         11   -1    0    0    0    0 -0.00000000000E+00 -0.00000000000E+00 -0.45593999997E+02  0.45594000000E+02  0.51100000000E-03 0. -1.
    9900012    2    1    2    0    0 -0.41396481541E+01  0.42353895747E+02  0.85225547575E+01  0.47787272917E+02  0.20000008536E+02 0.  0.
         12    1    1    2    0    0  0.41396481541E+01 -0.42353895747E+02 -0.85225547575E+01  0.43400727083E+02  0.00000000000E+00 0. -1.
         11    1    3    3    0    0 -0.29831812338E+01  0.31459651961E+02  0.42977782842E+01  0.31891691241E+02  0.51100000000E-03 0. -1.
        -11    1    3    3    0    0 -0.16392834621E+01  0.12578104665E+02  0.54000881685E+01  0.13786113293E+02  0.51100000000E-03 0.  1.
        -12    1    3    3    0    0  0.48281654182E+00 -0.16838608795E+01 -0.11753116953E+01  0.21094683822E+01  0.00000000000E+00 0.  1.
</event>
<event>
 7    1  0.2653124E-010  0.4778727E+02  0.7816164E-02  0.1312668E+00
        -11   -1    0    0    0    0  0.00000000000E+00  0.00000000000E+00  0.45593999997E+02  0.45594000000E+02  0.51100000000E-03 0.  1.
         11   -1    0    0    0    0 -0.00000000000E+00 -0.00000000000E+00 -0.45593999997E+02  0.45594000000E+02  0.51100000000E-03 0. -1.
    9900012    2    1    2    0    0  0.34390263873E+02 -0.88802717425E+01  0.24941413205E+02  0.47787267654E+02  0.19999984544E+02 0.  0.
         12    1    1    2    0    0 -0.34390263873E+02  0.88802717425E+01 -0.24941413205E+02  0.43400732346E+02  0.00000000000E+00 0. -1.
         11    1    3    3    0    0  0.18783923858E+01  0.79379097804E+00  0.82911619927E+01  0.85382568199E+01  0.51100000000E-03 0. -1.
        -11    1    3    3    0    0  0.18152228249E+02 -0.30367532253E+01  0.14189558923E+02  0.23239381301E+02  0.51100000000E-03 0.  1.
         12    1    3    3    0    0  0.14359643238E+02 -0.66373094952E+01  0.24606922891E+01  0.16009629534E+02  0.00000000000E+00 0. -1.
</event>
<event>
 7    1  0.2653124E-010  0.4778727E+02  0.7816164E-02  0.1312668E+00
        -11   -1    0    0    0    0  0.00000000000E+00  0.00000000000E+00  0.45593999997E+02  0.45594000000E+02  0.51100000000E-03 0. -1.
         11   -1    0    0    0    0 -0.00000000000E+00 -0.00000000000E+00 -0.45593999997E+02  0.45594000000E+02  0.51100000000E-03 0.  1.
    9900012    2    1    2    0    0  0.37446187100E+02  0.84698915375E+01 -0.20240237720E+02  0.47787271735E+02  0.20000003149E+02 0.  0.
         12    1    1    2    0    0 -0.37446187100E+02 -0.84698915375E+01  0.20240237720E+02  0.43400728265E+02  0.00000000000E+00 0. -1.
         11    1    3    3    0    0  0.76684733966E+01  0.15929724548E+01  0.11451778302E+01  0.79154581674E+01  0.51100000000E-03 0. -1.
        -11    1    3    3    0    0  0.16099297649E+01  0.51046831128E+01 -0.44209449207E+01  0.69422199463E+01  0.51100000000E-03 0.  1.
        -12    1    3    3    0    0  0.28167783939E+02  0.17722359699E+01 -0.16964470629E+02  0.32929593621E+02  0.00000000000E+00 0.  1.
</event>
<event>
 7    1  0.2653124E-010  0.4778728E+02  0.7816164E-02  0.1312668E+00
        -11   -1    0    0    0    0  0.00000000000E+00  0.00000000000E+00  0.45593999997E+02  0.45594000000E+02  0.51100000000E-03 0.  1.
         11   -1    0    0    0    0 -0.00000000000E+00 -0.00000000000E+00 -0.45593999997E+02  0.45594000000E+02  0.51100000000E-03 0. -1.
    9900012    2    1    2    0    0  0.92337587249E+01  0.37640578843E+02  0.19533224419E+02  0.47787281895E+02  0.20000049474E+02 0.  0.
         12    1    1    2    0    0 -0.92337587249E+01 -0.37640578843E+02 -0.19533224419E+02  0.43400718105E+02  0.00000000000E+00 0. -1.
         11    1    3    3    0    0 -0.23254541043E+01  0.22802145370E+01 -0.21620782544E+00  0.32640253080E+01  0.51100000000E-03 0. -1.
        -11    1    3    3    0    0  0.48842937858E+01  0.10372094060E+02  0.13877617702E+02  0.18000692607E+02  0.51100000000E-03 0.  1.
         12    1    3    3    0    0  0.66749190434E+01  0.24988270245E+02  0.58718145421E+01  0.26522563981E+02  0.00000000000E+00 0. -1.
</event>
<event>
 7    1  0.2653124E-010  0.4778727E+02  0.7816164E-02  0.1312668E+00
        -11   -1    0    0    0    0  0.00000000000E+00  0.00000000000E+00  0.45593999997E+02  0.45594000000E+02  0.51100000000E-03 0.  1.
         11   -1    0    0    0    0 -0.00000000000E+00 -0.00000000000E+00 -0.45593999997E+02  0.45594000000E+02  0.51100000000E-03 0. -1.
    9900012    2    1    2    0    0  0.13327810525E+02 -0.19621606290E+02  0.36345361394E+02  0.47787271185E+02  0.20000000643E+02 0.  0.
         12    1    1    2    0    0 -0.13327810525E+02  0.19621606290E+02 -0.36345361394E+02  0.43400728815E+02  0.00000000000E+00 0. -1.
         11    1    3    3    0    0  0.10673475256E+01 -0.17598867171E+01  0.90285336573E+01  0.92601756063E+01  0.51100000000E-03 0. -1.
        -11    1    3    3    0    0  0.12339477963E+01 -0.11014971827E+01  0.14774976692E+02  0.14867274791E+02  0.51100000000E-03 0.  1.
         12    1    3    3    0    0  0.11026515203E+02 -0.16760222390E+02  0.12541851045E+02  0.23659820788E+02  0.00000000000E+00 0. -1.
</event>
<event>
 7    1  0.2653124E-010  0.4778726E+02  0.7816164E-02  0.1312668E+00
        -11   -1    0    0    0    0  0.00000000000E+00  0.00000000000E+00  0.45593999997E+02  0.45594000000E+02  0.51100000000E-03 0.  1.
         11   -1    0    0    0    0 -0.00000000000E+00 -0.00000000000E+00 -0.45593999997E+02  0.45594000000E+02  0.51100000000E-03 0. -1.
    9900012    2    1    2    0    0  0.29020374148E+02  0.16800844445E+01  0.32227614146E+02  0.47787263682E+02  0.19999966433E+02 0.  0.
         12    1    1    2    0    0 -0.29020374148E+02 -0.16800844445E+01 -0.32227614146E+02  0.43400736318E+02  0.00000000000E+00 0. -1.
         11    1    3    3    0    0  0.49311180117E+01 -0.62622848906E+01  0.43602045613E+01  0.90853464971E+01  0.51100000000E-03 0. -1.
        -11    1    3    3    0    0  0.86926536190E+01 -0.12836151382E+01  0.10918138889E+02  0.14014836846E+02  0.51100000000E-03 0.  1.
        -12    1    3    3    0    0  0.15396602517E+02  0.92259844733E+01  0.16949270695E+02  0.24687080339E+02  0.00000000000E+00 0.  1.
</event>
<event>
 7    1  0.2653124E-010  0.4778727E+02  0.7816164E-02  0.1312668E+00
        -11   -1    0    0    0    0  0.00000000000E+00  0.00000000000E+00  0.45593999997E+02  0.45594000000E+02  0.51100000000E-03 0.  1.
         11   -1    0    0    0    0 -0.00000000000E+00 -0.00000000000E+00 -0.45593999997E+02  0.45594000000E+02  0.51100000000E-03 0. -1.
    9900012    2    1    2    0    0 -0.25454696416E+02 -0.30739123540E+02  0.17052522169E+02  0.47787265007E+02  0.19999972472E+02 0.  0.
         12    1    1    2    0    0  0.25454696416E+02  0.30739123540E+02 -0.17052522169E+02  0.43400734993E+02  0.00000000000E+00 0. -1.
         11    1    3    3    0    0  0.19633882361E+00 -0.66343274057E+01  0.45131175727E+01  0.80262743253E+01  0.51100000000E-03 0.  1.
        -11    1    3    3    0    0 -0.39844011678E+01 -0.80890444816E+00  0.60540047308E+01  0.72925134634E+01  0.51100000000E-03 0. -1.
        -12    1    3    3    0    0 -0.21666634072E+02 -0.23295891686E+02  0.64853998651E+01  0.32468477218E+02  0.00000000000E+00 0.  1.
</event>
<event>
 7    1  0.2653124E-010  0.4778727E+02  0.7816164E-02  0.1312668E+00
        -11   -1    0    0    0    0  0.00000000000E+00  0.00000000000E+00  0.45593999997E+02  0.45594000000E+02  0.51100000000E-03 0.  1.
         11   -1    0    0    0    0 -0.00000000000E+00 -0.00000000000E+00 -0.45593999997E+02  0.45594000000E+02  0.51100000000E-03 0. -1.
    9900012    2    1    2    0    0  0.26796936774E+02  0.34138180518E+02 -0.36303288172E+00  0.47787274402E+02  0.20000015308E+02 0.  0.
         12    1    1    2    0    0 -0.26796936774E+02 -0.34138180518E+02  0.36303288172E+00  0.43400725598E+02  0.00000000000E+00 0. -1.
         11    1    3    3    0    0  0.23492454559E+01 -0.97927703051E+00 -0.72699859145E+00  0.26469727856E+01  0.51100000000E-03 0. -1.
        -11    1    3    3    0    0  0.25681631732E+01 -0.10213245106E+01 -0.80330079200E+00  0.28781692555E+01  0.51100000000E-03 0.  1.
        -12    1    3    3    0    0  0.21879528145E+02  0.36138782059E+02  0.11672665017E+01  0.42262132361E+02  0.00000000000E+00 0.  1.
</event>
<event>
 7    1  0.2653124E-010  0.4778727E+02  0.7816164E-02  0.1312668E+00
        -11   -1    0    0    0    0  0.00000000000E+00  0.00000000000E+00  0.45593999997E+02  0.45594000000E+02  0.51100000000E-03 0. -1.
         11   -1    0    0    0    0 -0.00000000000E+00 -0.00000000000E+00 -0.45593999997E+02  0.45594000000E+02  0.51100000000E-03 0.  1.
    9900012    2    1    2    0    0 -0.25420634844E+02  0.34957893606E+02  0.39191891937E+01  0.47787273679E+02  0.20000012012E+02 0.  0.
         12    1    1    2    0    0  0.25420634844E+02 -0.34957893606E+02 -0.39191891937E+01  0.43400726321E+02  0.00000000000E+00 0. -1.
         11    1    3    3    0    0 -0.37143001441E+01  0.10097989692E+02  0.19645085570E+01  0.10937308422E+02  0.51100000000E-03 0. -1.
        -11    1    3    3    0    0 -0.43788099782E+01  0.11185650335E+02 -0.59486879167E+01  0.13404463377E+02  0.51100000000E-03 0.  1.
         12    1    3    3    0    0 -0.17327524721E+02  0.13674253580E+02  0.79033685534E+01  0.23445501880E+02  0.00000000000E+00 0. -1.
</event>
<event>
 7    1  0.2653124E-010  0.4778727E+02  0.7816164E-02  0.1312668E+00
        -11   -1    0    0    0    0  0.00000000000E+00  0.00000000000E+00  0.45593999997E+02  0.45594000000E+02  0.51100000000E-03 0.  1.
         11   -1    0    0    0    0 -0.00000000000E+00 -0.00000000000E+00 -0.45593999997E+02  0.45594000000E+02  0.51100000000E-03 0. -1.
    9900012    2    1    2    0    0  0.35548990672E+02 -0.11714551745E+02  0.21969573850E+02  0.47787266878E+02  0.19999981002E+02 0.  0.
         12    1    1    2    0    0 -0.35548990672E+02  0.11714551745E+02 -0.21969573850E+02  0.43400733122E+02  0.00000000000E+00 0. -1.
         11    1    3    3    0    0 -0.92047928898E-01 -0.33502256202E+00  0.28054570223E+00  0.44656364657E+00  0.51100000000E-03 0. -1.
        -11    1    3    3    0    0  0.36071352596E+02 -0.14509100578E+02  0.20593304122E+02  0.43997052772E+02  0.51100000000E-03 0.  1.
         12    1    3    3    0    0 -0.43031399512E+00  0.31295713949E+01  0.10957240252E+01  0.33436504587E+01  0.00000000000E+00 0. -1.
</event>
<event>
 7    1  0.2653124E-010  0.4778727E+02  0.7816164E-02  0.1312668E+00
        -11   -1    0    0    0    0  0.00000000000E+00  0.00000000000E+00  0.45593999997E+02  0.45594000000E+02  0.51100000000E-03 0.  1.
         11   -1    0    0    0    0 -0.00000000000E+00 -0.00000000000E+00 -0.45593999997E+02  0.45594000000E+02  0.51100000000E-03 0. -1.
    9900012    2    1    2    0    0  0.19903470455E+02  0.31691842671E+02  0.21979583707E+02  0.47787272725E+02  0.20000007664E+02 0.  0.
         12    1    1    2    0    0 -0.19903470455E+02 -0.31691842671E+02 -0.21979583707E+02  0.43400727275E+02  0.00000000000E+00 0. -1.
         11    1    3    3    0    0  0.17368023653E+02  0.16691521363E+02  0.12339692387E+02  0.27065164687E+02  0.51100000000E-03 0. -1.
        -11    1    3    3    0    0  0.52991926047E+01  0.14488939018E+02  0.73123267116E+01  0.17072812256E+02  0.51100000000E-03 0.  1.
         12    1    3    3    0    0 -0.27637458028E+01  0.51138229024E+00  0.23275646080E+01  0.36492957833E+01  0.00000000000E+00 0. -1.
</event>
<event>
 7    1  0.2653124E-010  0.4778727E+02  0.7816164E-02  0.1312668E+00
        -11   -1    0    0    0    0  0.00000000000E+00  0.00000000000E+00  0.45593999997E+02  0.45594000000E+02  0.51100000000E-03 0.  1.
         11   -1    0    0    0    0 -0.00000000000E+00 -0.00000000000E+00 -0.45593999997E+02  0.45594000000E+02  0.51100000000E-03 0. -1.
    9900012    2    1    2    0    0  0.42526825818E+02  0.74804267570E+01  0.43744453783E+01  0.47787268773E+02  0.19999989645E+02 0.  0.
         12    1    1    2    0    0 -0.42526825818E+02 -0.74804267570E+01 -0.43744453783E+01  0.43400731227E+02  0.00000000000E+00 0. -1.
         11    1    3    3    0    0  0.21304378752E+02  0.97874426654E+01  0.36328951463E+01  0.23724850165E+02  0.51100000000E-03 0. -1.
        -11    1    3    3    0    0  0.39506944259E+01 -0.34074541990E+01 -0.34507656933E+01  0.62551190794E+01  0.51100000000E-03 0.  1.
         12    1    3    3    0    0  0.17271752640E+02  0.11004382907E+01  0.41923159253E+01  0.17807299529E+02  0.00000000000E+00 0. -1.
</event>
<event>
 7    1  0.2653124E-010  0.4778727E+02  0.7816164E-02  0.1312668E+00
        -11   -1    0    0    0    0  0.00000000000E+00  0.00000000000E+00  0.45593999997E+02  0.45594000000E+02  0.51100000000E-03 0.  1.
         11   -1    0    0    0    0 -0.00000000000E+00 -0.00000000000E+00 -0.45593999997E+02  0.45594000000E+02  0.51100000000E-03 0. -1.
    9900012    2    1    2    0    0  0.86414247551E+01  0.12121837428E+02  0.40767760271E+02  0.47787269108E+02  0.19999991172E+02 0.  0.
         12    1    1    2    0    0 -0.86414247551E+01 -0.12121837428E+02 -0.40767760271E+02  0.43400730892E+02  0.00000000000E+00 0. -1.
         11    1    3    3    0    0  0.47155542852E+01  0.48643572583E+01  0.63959287567E+01  0.93169913961E+01  0.51100000000E-03 0. -1.
        -11    1    3    3    0    0  0.76141020805E+01  0.75003627427E+01  0.32720758964E+02  0.34422057742E+02  0.51100000000E-03 0.  1.
        -12    1    3    3    0    0 -0.36882316107E+01 -0.24288257306E+00  0.16510725504E+01  0.40482199699E+01  0.00000000000E+00 0.  1.
</event>
<event>
 7    1  0.2653124E-010  0.4778728E+02  0.7816164E-02  0.1312668E+00
        -11   -1    0    0    0    0  0.00000000000E+00  0.00000000000E+00  0.45593999997E+02  0.45594000000E+02  0.51100000000E-03 0.  1.
         11   -1    0    0    0    0 -0.00000000000E+00 -0.00000000000E+00 -0.45593999997E+02  0.45594000000E+02  0.51100000000E-03 0. -1.
    9900012    2    1    2    0    0  0.77305108110E+01  0.42150725626E+02  0.68686284182E+01  0.47787279677E+02  0.20000039361E+02 0.  0.
         12    1    1    2    0    0 -0.77305108110E+01 -0.42150725626E+02 -0.68686284182E+01  0.43400720323E+02  0.00000000000E+00 0. -1.
         11    1    3    3    0    0 -0.24298311940E+01  0.91594095414E+01 -0.12689282677E+01  0.95608076013E+01  0.51100000000E-03 0. -1.
        -11    1    3    3    0    0 -0.32428721643E+01  0.35027410847E+01  0.23547814377E+01  0.53226319486E+01  0.51100000000E-03 0.  1.
        -12    1    3    3    0    0  0.13403214169E+02  0.29488575000E+02  0.57827752482E+01  0.32903840128E+02  0.00000000000E+00 0.  1.
</event>
<event>
 7    1  0.2653124E-010  0.4778727E+02  0.7816164E-02  0.1312668E+00
        -11   -1    0    0    0    0  0.00000000000E+00  0.00000000000E+00  0.45593999997E+02  0.45594000000E+02  0.51100000000E-03 0.  1.
         11   -1    0    0    0    0 -0.00000000000E+00 -0.00000000000E+00 -0.45593999997E+02  0.45594000000E+02  0.51100000000E-03 0. -1.
    9900012    2    1    2    0    0  0.18727841775E+02 -0.33821962644E+01  0.39005797017E+02  0.47787268324E+02  0.19999987595E+02 0.  0.
         12    1    1    2    0    0 -0.18727841775E+02  0.33821962644E+01 -0.39005797017E+02  0.43400731676E+02  0.00000000000E+00 0. -1.
         11    1    3    3    0    0 -0.86534667576E+00 -0.40393760694E+01  0.32733802200E+01  0.52707117381E+01  0.51100000000E-03 0. -1.
        -11    1    3    3    0    0  0.67128212189E+01  0.60355534089E+01  0.12619335808E+02  0.15515718164E+02  0.51100000000E-03 0.  1.
        -12    1    3    3    0    0  0.12880367232E+02 -0.53783736038E+01  0.23113080989E+02  0.27000838421E+02  0.00000000000E+00 0.  1.
</event>
<event>
 7    1  0.2653124E-010  0.4778729E+02  0.7816164E-02  0.1312668E+00
        -11   -1    0    0    0    0  0.00000000000E+00  0.00000000000E+00  0.45593999997E+02  0.45594000000E+02  0.51100000000E-03 0.  1.
         11   -1    0    0    0    0 -0.00000000000E+00 -0.00000000000E+00 -0.45593999997E+02  0.45594000000E+02  0.51100000000E-03 0. -1.
    9900012    2    1    2    0    0 -0.32994659214E+02 -0.16978400060E+02  0.22510178118E+02  0.47787288898E+02  0.20000081402E+02 0.  0.
         12    1    1    2    0    0  0.32994659214E+02  0.16978400060E+02 -0.22510178118E+02  0.43400711102E+02  0.00000000000E+00 0. -1.
         11    1    3    3    0    0 -0.37050313154E+01 -0.53214732189E+01  0.47287570116E+01  0.80253646274E+01  0.51100000000E-03 0. -1.
        -11    1    3    3    0    0 -0.40841104141E+01  0.40526821382E+01  0.17650474463E+01  0.60182707763E+01  0.51100000000E-03 0.  1.
        -12    1    3    3    0    0 -0.25205517485E+02 -0.15709608979E+02  0.16016373660E+02  0.33743653494E+02  0.00000000000E+00 0.  1.
</event>
<event>
 7    1  0.2653124E-010  0.4778727E+02  0.7816164E-02  0.1312668E+00
        -11   -1    0    0    0    0  0.00000000000E+00  0.00000000000E+00  0.45593999997E+02  0.45594000000E+02  0.51100000000E-03 0.  1.
         11   -1    0    0    0    0 -0.00000000000E+00 -0.00000000000E+00 -0.45593999997E+02  0.45594000000E+02  0.51100000000E-03 0. -1.
    9900012    2    1    2    0    0  0.16507838729E+02  0.32069713016E+02  0.24138100671E+02  0.47787272627E+02  0.20000007217E+02 0.  0.
         12    1    1    2    0    0 -0.16507838729E+02 -0.32069713016E+02 -0.24138100671E+02  0.43400727373E+02  0.00000000000E+00 0. -1.
         11    1    3    3    0    0  0.95239472988E+01  0.11465278058E+02  0.54142912696E+01  0.15857891515E+02  0.51100000000E-03 0. -1.
        -11    1    3    3    0    0  0.91904967872E+01  0.78449209650E+01  0.13070547313E+02  0.17800202906E+02  0.51100000000E-03 0.  1.
        -12    1    3    3    0    0 -0.22066053569E+01  0.12759513993E+02  0.56532620882E+01  0.14129178206E+02  0.00000000000E+00 0.  1.
</event>
<event>
 7    1  0.2653124E-010  0.4778727E+02  0.7816164E-02  0.1312668E+00
        -11   -1    0    0    0    0  0.00000000000E+00  0.00000000000E+00  0.45593999997E+02  0.45594000000E+02  0.51100000000E-03 0.  1.
         11   -1    0    0    0    0 -0.00000000000E+00 -0.00000000000E+00 -0.45593999997E+02  0.45594000000E+02  0.51100000000E-03 0. -1.
    9900012    2    1    2    0    0 -0.26475046636E+02  0.19091285713E+02  0.28604514321E+02  0.47787268162E+02  0.19999986856E+02 0.  0.
         12    1    1    2    0    0  0.26475046636E+02 -0.19091285713E+02 -0.28604514321E+02  0.43400731838E+02  0.00000000000E+00 0. -1.
         11    1    3    3    0    0 -0.18162481474E+00  0.14581131174E+01 -0.96681258143E+00  0.17589224728E+01  0.51100000000E-03 0. -1.
        -11    1    3    3    0    0 -0.40122416627E+01  0.11024124732E+02  0.71701400343E+01  0.13749193345E+02  0.51100000000E-03 0.  1.
         12    1    3    3    0    0 -0.22281180159E+02  0.66090478634E+01  0.22401186868E+02  0.32279152344E+02  0.00000000000E+00 0. -1.
</event>
<event>
 7    1  0.2653124E-010  0.4778727E+02  0.7816164E-02  0.1312668E+00
        -11   -1    0    0    0    0  0.00000000000E+00  0.00000000000E+00  0.45593999997E+02  0.45594000000E+02  0.51100000000E-03 0.  1.
         11   -1    0    0    0    0 -0.00000000000E+00 -0.00000000000E+00 -0.45593999997E+02  0.45594000000E+02  0.51100000000E-03 0. -1.
    9900012    2    1    2    0    0  0.17950287869E+02  0.22040325693E+00  0.39514073017E+02  0.47787269838E+02  0.19999994500E+02 0.  0.
         12    1    1    2    0    0 -0.17950287869E+02 -0.22040325693E+00 -0.39514073017E+02  0.43400730162E+02  0.00000000000E+00 0. -1.
         11    1    3    3    0    0 -0.19854419326E+01 -0.19084832790E+01  0.15244355869E+01  0.31477281036E+01  0.51100000000E-03 0. -1.
        -11    1    3    3    0    0  0.15488868813E+01  0.18590268275E+01  0.15030645401E+02  0.15224169361E+02  0.51100000000E-03 0.  1.
        -12    1    3    3    0    0  0.18386842921E+02  0.26985970849E+00  0.22958992030E+02  0.29415372373E+02  0.00000000000E+00 0.  1.
</event>
<event>
 7    1  0.2653124E-010  0.4778727E+02  0.7816164E-02  0.1312668E+00
        -11   -1    0    0    0    0  0.00000000000E+00  0.00000000000E+00  0.45593999997E+02  0.45594000000E+02  0.51100000000E-03 0.  1.
         11   -1    0    0    0    0 -0.00000000000E+00 -0.00000000000E+00 -0.45593999997E+02  0.45594000000E+02  0.51100000000E-03 0. -1.
    9900012    2    1    2    0    0 -0.43026911409E+02  0.34887324113E+01 -0.44874463317E+01  0.47787268049E+02  0.19999986344E+02 0.  0.
         12    1    1    2    0    0  0.43026911409E+02 -0.34887324113E+01  0.44874463317E+01  0.43400731951E+02  0.00000000000E+00 0. -1.
         11    1    3    3    0    0 -0.20016527696E+02 -0.17757029252E+01 -0.49641370570E+01  0.20699206721E+02  0.51100000000E-03 0. -1.
        -11    1    3    3    0    0 -0.15588489620E+02 -0.10296010233E+01  0.49359216406E+01  0.16383662888E+02  0.51100000000E-03 0.  1.
        -12    1    3    3    0    0 -0.74218940931E+01  0.62940363598E+01 -0.44592309154E+01  0.10704398441E+02  0.00000000000E+00 0.  1.
</event>
<event>
 7    1  0.2653124E-010  0.4778727E+02  0.7816164E-02  0.1312668E+00
        -11   -1    0    0    0    0  0.00000000000E+00  0.00000000000E+00  0.45593999997E+02  0.45594000000E+02  0.51100000000E-03 0. -1.
         11   -1    0    0    0    0 -0.00000000000E+00 -0.00000000000E+00 -0.45593999997E+02  0.45594000000E+02  0.51100000000E-03 0.  1.
    9900012    2    1    2    0    0  0.23429772796E+02  0.36440286829E+02 -0.26027327302E+01  0.47787274486E+02  0.20000015694E+02 0.  0.
         12    1    1    2    0    0 -0.23429772796E+02 -0.36440286829E+02  0.26027327302E+01  0.43400725514E+02  0.00000000000E+00 0. -1.
         11    1    3    3    0    0  0.29558051162E+01  0.27761499014E+01 -0.49625418840E+01  0.64086359213E+01  0.51100000000E-03 0. -1.
        -11    1    3    3    0    0  0.16527071963E+02  0.15816221641E+02 -0.47726969377E+00  0.22880663480E+02  0.51100000000E-03 0.  1.
        -12    1    3    3    0    0  0.39468957170E+01  0.17847915286E+02  0.28370788475E+01  0.18497975085E+02  0.00000000000E+00 0.  1.
</event>
<event>
 7    1  0.2653124E-010  0.4778726E+02  0.7816164E-02  0.1312668E+00
        -11   -1    0    0    0    0  0.00000000000E+00  0.00000000000E+00  0.45593999997E+02  0.45594000000E+02  0.51100000000E-03 0.  1.
         11   -1    0    0    0    0 -0.00000000000E+00 -0.00000000000E+00 -0.45593999997E+02  0.45594000000E+02  0.51100000000E-03 0. -1.
    9900012    2    1    2    0    0 -0.37064005546E+02  0.22421758149E+02 -0.26736173452E+01  0.47787262963E+02  0.19999963155E+02 0.  0.
         12    1    1    2    0    0  0.37064005546E+02 -0.22421758149E+02  0.26736173452E+01  0.43400737037E+02  0.00000000000E+00 0. -1.
         11    1    3    3    0    0 -0.51541901472E+01  0.33073600465E+01 -0.40824730648E+01  0.73600878485E+01  0.51100000000E-03 0. -1.
        -11    1    3    3    0    0 -0.10241773759E+02 -0.15060886553E+01  0.18305556770E+01  0.10512524298E+02  0.51100000000E-03 0.  1.
         12    1    3    3    0    0 -0.21668041640E+02  0.20620486758E+02 -0.42169995736E+00  0.29914650817E+02  0.00000000000E+00 0. -1.
</event>
<event>
 7    1  0.2653124E-010  0.4778727E+02  0.7816164E-02  0.1312668E+00
        -11   -1    0    0    0    0  0.00000000000E+00  0.00000000000E+00  0.45593999997E+02  0.45594000000E+02  0.51100000000E-03 0. -1.
         11   -1    0    0    0    0 -0.00000000000E+00 -0.00000000000E+00 -0.45593999997E+02  0.45594000000E+02  0.51100000000E-03 0.  1.
    9900012    2    1    2    0    0 -0.35199848940E+02  0.25309020214E+02 -0.20118453994E+01  0.47787269689E+02  0.19999993821E+02 0.  0.
         12    1    1    2    0    0  0.35199848940E+02 -0.25309020214E+02  0.20118453994E+01  0.43400730311E+02  0.00000000000E+00 0. -1.
         11    1    3    3    0    0 -0.73320404986E+01  0.60173022545E-01 -0.36892693572E+01  0.82081147237E+01  0.51100000000E-03 0.  1.
        -11    1    3    3    0    0  0.11772621564E+01  0.26408882805E+00 -0.18850947569E+00  0.12211573107E+01  0.51100000000E-03 0. -1.
        -12    1    3    3    0    0 -0.29045070598E+02  0.24984758363E+02  0.18659334335E+01  0.38357997655E+02  0.00000000000E+00 0.  1.
</event>
<event>
 7    1  0.2653124E-010  0.4778727E+02  0.7816164E-02  0.1312668E+00
        -11   -1    0    0    0    0  0.00000000000E+00  0.00000000000E+00  0.45593999997E+02  0.45594000000E+02  0.51100000000E-03 0. -1.
         11   -1    0    0    0    0 -0.00000000000E+00 -0.00000000000E+00 -0.45593999997E+02  0.45594000000E+02  0.51100000000E-03 0.  1.
    9900012    2    1    2    0    0  0.16492531995E+02  0.31669720367E+02 -0.24670800825E+02  0.47787271745E+02  0.20000003194E+02 0.  0.
         12    1    1    2    0    0 -0.16492531995E+02 -0.31669720367E+02  0.24670800825E+02  0.43400728255E+02  0.00000000000E+00 0. -1.
         11    1    3    3    0    0  0.15132059755E+01  0.65144702594E+01 -0.48291209010E+01  0.82491529276E+01  0.51100000000E-03 0.  1.
        -11    1    3    3    0    0  0.95336054629E+01  0.12193319789E+02 -0.32080236874E+00  0.15481265937E+02  0.51100000000E-03 0. -1.
         12    1    3    3    0    0  0.54457205561E+01  0.12961930319E+02 -0.19520877555E+02  0.24056852880E+02  0.00000000000E+00 0. -1.
</event>
<event>
 7    1  0.2653124E-010  0.4778727E+02  0.7816164E-02  0.1312668E+00
        -11   -1    0    0    0    0  0.00000000000E+00  0.00000000000E+00  0.45593999997E+02  0.45594000000E+02  0.51100000000E-03 0.  1.
         11   -1    0    0    0    0 -0.00000000000E+00 -0.00000000000E+00 -0.45593999997E+02  0.45594000000E+02  0.51100000000E-03 0. -1.
    9900012    2    1    2    0    0 -0.35838224631E+02  0.23164188593E+02  0.79161364842E+01  0.47787271957E+02  0.20000004159E+02 0.  0.
         12    1    1    2    0    0  0.35838224631E+02 -0.23164188593E+02 -0.79161364842E+01  0.43400728043E+02  0.00000000000E+00 0. -1.
         11    1    3    3    0    0 -0.19580162881E+02  0.77444300188E+01  0.40669818097E+01  0.21445263254E+02  0.51100000000E-03 0. -1.
        -11    1    3    3    0    0 -0.15640887972E+02  0.15944541478E+02 -0.74668251755E-01  0.22335428249E+02  0.51100000000E-03 0.  1.
        -12    1    3    3    0    0 -0.61717377817E+00 -0.52478290294E+00  0.39238229263E+01  0.40065804528E+01  0.00000000000E+00 0.  1.
</event>
<event>
 7    1  0.2653124E-010  0.4778727E+02  0.7816164E-02  0.1312668E+00
        -11   -1    0    0    0    0  0.00000000000E+00  0.00000000000E+00  0.45593999997E+02  0.45594000000E+02  0.51100000000E-03 0.  1.
         11   -1    0    0    0    0 -0.00000000000E+00 -0.00000000000E+00 -0.45593999997E+02  0.45594000000E+02  0.51100000000E-03 0. -1.
    9900012    2    1    2    0    0 -0.15667220942E+02  0.39753527286E+02  0.76038715451E+01  0.47787267216E+02  0.19999982546E+02 0.  0.
         12    1    1    2    0    0  0.15667220942E+02 -0.39753527286E+02 -0.76038715451E+01  0.43400732784E+02  0.00000000000E+00 0. -1.
         11    1    3    3    0    0 -0.12957118810E+01  0.47920331195E+00 -0.25056872356E+01  0.28612888489E+01  0.51100000000E-03 0. -1.
        -11    1    3    3    0    0 -0.71084780997E+01  0.62907546221E+01 -0.55482732580E+00  0.95085166157E+01  0.51100000000E-03 0.  1.
        -12    1    3    3    0    0 -0.72630309612E+01  0.32983569352E+02  0.10664386106E+02  0.35417461752E+02  0.00000000000E+00 0.  1.
</event>
<event>
 7    1  0.2653124E-010  0.4778727E+02  0.7816164E-02  0.1312668E+00
        -11   -1    0    0    0    0  0.00000000000E+00  0.00000000000E+00  0.45593999997E+02  0.45594000000E+02  0.51100000000E-03 0. -1.
         11   -1    0    0    0    0 -0.00000000000E+00 -0.00000000000E+00 -0.45593999997E+02  0.45594000000E+02  0.51100000000E-03 0.  1.
    9900012    2    1    2    0    0  0.26980494109E+02 -0.18591384445E+02 -0.28461138136E+02  0.47787273947E+02  0.20000013232E+02 0.  0.
         12    1    1    2    0    0 -0.26980494109E+02  0.18591384445E+02  0.28461138136E+02  0.43400726053E+02  0.00000000000E+00 0. -1.
         11    1    3    3    0    0  0.32058815122E+01  0.90255078437E+00 -0.50875221573E+01  0.60807200355E+01  0.51100000000E-03 0. -1.
        -11    1    3    3    0    0  0.11407471623E+02 -0.56876662826E+00 -0.11342896469E+02  0.16097055782E+02  0.51100000000E-03 0.  1.
         12    1    3    3    0    0  0.12367140974E+02 -0.18925168601E+02 -0.12030719511E+02  0.25609498129E+02  0.00000000000E+00 0. -1.
</event>
<event>
 7    1  0.2653124E-010  0.4778727E+02  0.7816164E-02  0.1312668E+00
        -11   -1    0    0    0    0  0.00000000000E+00  0.00000000000E+00  0.45593999997E+02  0.45594000000E+02  0.51100000000E-03 0.  1.
         11   -1    0    0    0    0 -0.00000000000E+00 -0.00000000000E+00 -0.45593999997E+02  0.45594000000E+02  0.51100000000E-03 0. -1.
    9900012    2    1    2    0    0  0.14450026619E+02  0.16243796785E+02  0.37562736204E+02  0.47787270116E+02  0.19999995769E+02 0.  0.
         12    1    1    2    0    0 -0.14450026619E+02 -0.16243796785E+02 -0.37562736204E+02  0.43400729884E+02  0.00000000000E+00 0. -1.
         11    1    3    3    0    0  0.36035700950E+01  0.22122769489E+01  0.28596888203E+01  0.51046750277E+01  0.51100000000E-03 0. -1.
        -11    1    3    3    0    0 -0.13960895282E+01  0.12404068985E+02  0.18232169991E+02  0.22095746564E+02  0.51100000000E-03 0.  1.
        -12    1    3    3    0    0  0.12242546052E+02  0.16274508510E+01  0.16470877393E+02  0.20586848525E+02  0.00000000000E+00 0.  1.
</event>
<event>
 7    1  0.2653124E-010  0.4778727E+02  0.7816164E-02  0.1312668E+00
        -11   -1    0    0    0    0  0.00000000000E+00  0.00000000000E+00  0.45593999997E+02  0.45594000000E+02  0.51100000000E-03 0.  1.
         11   -1    0    0    0    0 -0.00000000000E+00 -0.00000000000E+00 -0.45593999997E+02  0.45594000000E+02  0.51100000000E-03 0. -1.
    9900012    2    1    2    0    0 -0.59542226460E+01 -0.12304574407E+02  0.41191840033E+02  0.47787274154E+02  0.20000014178E+02 0.  0.
         12    1    1    2    0    0  0.59542226460E+01  0.12304574407E+02 -0.41191840033E+02  0.43400725846E+02  0.00000000000E+00 0. -1.
         11    1    3    3    0    0 -0.52075850900E+01 -0.80730596200E+00  0.10678878079E+02  0.11908363560E+02  0.51100000000E-03 0. -1.
        -11    1    3    3    0    0 -0.73329122670E+01 -0.58399781208E+01  0.10570793116E+02  0.14128645163E+02  0.51100000000E-03 0.  1.
         12    1    3    3    0    0  0.65862747110E+01 -0.56572903242E+01  0.19942168838E+02  0.21750265431E+02  0.00000000000E+00 0. -1.
</event>
<event>
 7    1  0.2653124E-010  0.4778727E+02  0.7816164E-02  0.1312668E+00
        -11   -1    0    0    0    0  0.00000000000E+00  0.00000000000E+00  0.45593999997E+02  0.45594000000E+02  0.51100000000E-03 0.  1.
         11   -1    0    0    0    0 -0.00000000000E+00 -0.00000000000E+00 -0.45593999997E+02  0.45594000000E+02  0.51100000000E-03 0. -1.
    9900012    2    1    2    0    0 -0.31957980331E+02 -0.29337180890E+02 -0.12807614302E+01  0.47787273747E+02  0.20000012323E+02 0.  0.
         12    1    1    2    0    0  0.31957980331E+02  0.29337180890E+02  0.12807614302E+01  0.43400726253E+02  0.00000000000E+00 0. -1.
         11    1    3    3    0    0  0.90630225179E+00  0.12053519152E+00  0.64296497113E+00  0.11177283745E+01  0.51100000000E-03 0. -1.
        -11    1    3    3    0    0 -0.66293379019E+01 -0.15018614838E+02  0.17030838235E+01  0.16504769233E+02  0.51100000000E-03 0.  1.
         12    1    3    3    0    0 -0.26234944681E+02 -0.14439101244E+02 -0.36268102248E+01  0.30164776140E+02  0.00000000000E+00 0. -1.
</event>
<event>
 7    1  0.2653124E-010  0.4778728E+02  0.7816164E-02  0.1312668E+00
        -11   -1    0    0    0    0  0.00000000000E+00  0.00000000000E+00  0.45593999997E+02  0.45594000000E+02  0.51100000000E-03 0.  1.
         11   -1    0    0    0    0 -0.00000000000E+00 -0.00000000000E+00 -0.45593999997E+02  0.45594000000E+02  0.51100000000E-03 0. -1.
    9900012    2    1    2    0    0 -0.18305510112E+02 -0.11966842244E+02  0.37487673779E+02  0.47787277666E+02  0.20000030191E+02 0.  0.
         12    1    1    2    0    0  0.18305510112E+02  0.11966842244E+02 -0.37487673779E+02  0.43400722334E+02  0.00000000000E+00 0. -1.
         11    1    3    3    0    0 -0.31040261131E+01 -0.11404124659E+01  0.50959223088E+01  0.60748615738E+01  0.51100000000E-03 0. -1.
        -11    1    3    3    0    0 -0.13183270789E+02 -0.15163957454E+02  0.30592550421E+02  0.36601207301E+02  0.51100000000E-03 0.  1.
         12    1    3    3    0    0 -0.20182132096E+01  0.43375276755E+01  0.17992010491E+01  0.51112087915E+01  0.00000000000E+00 0. -1.
</event>
<event>
 7    1  0.2653124E-010  0.4778727E+02  0.7816164E-02  0.1312668E+00
        -11   -1    0    0    0    0  0.00000000000E+00  0.00000000000E+00  0.45593999997E+02  0.45594000000E+02  0.51100000000E-03 0. -1.
         11   -1    0    0    0    0 -0.00000000000E+00 -0.00000000000E+00 -0.45593999997E+02  0.45594000000E+02  0.51100000000E-03 0.  1.
    9900012    2    1    2    0    0  0.73364334889E+01 -0.84648001733E+01 -0.41930262639E+02  0.47787273931E+02  0.20000013163E+02 0.  0.
         12    1    1    2    0    0 -0.73364334889E+01  0.84648001733E+01  0.41930262639E+02  0.43400726069E+02  0.00000000000E+00 0. -1.
         11    1    3    3    0    0  0.19796737817E+01 -0.84622843255E+00 -0.19878120175E+01  0.29302914053E+01  0.51100000000E-03 0. -1.
        -11    1    3    3    0    0  0.96749701519E+01 -0.31643176664E+01 -0.99673112863E+01  0.14246587250E+02  0.51100000000E-03 0.  1.
         12    1    3    3    0    0 -0.43182104447E+01 -0.44542540744E+01 -0.29975139335E+02  0.30610395276E+02  0.00000000000E+00 0. -1.
</event>
<event>
 7    1  0.2653124E-010  0.4778727E+02  0.7816164E-02  0.1312668E+00
        -11   -1    0    0    0    0  0.00000000000E+00  0.00000000000E+00  0.45593999997E+02  0.45594000000E+02  0.51100000000E-03 0.  1.
         11   -1    0    0    0    0 -0.00000000000E+00 -0.00000000000E+00 -0.45593999997E+02  0.45594000000E+02  0.51100000000E-03 0. -1.
    9900012    2    1    2    0    0 -0.41839839264E+02 -0.55024309314E+01  0.10137763516E+02  0.47787272531E+02  0.20000006776E+02 0.  0.
         12    1    1    2    0    0  0.41839839264E+02  0.55024309314E+01 -0.10137763516E+02  0.43400727469E+02  0.00000000000E+00 0. -1.
         11    1    3    3    0    0 -0.22159985559E+01 -0.15448707316E+01 -0.26561091841E+01  0.37884286236E+01  0.51100000000E-03 0. -1.
        -11    1    3    3    0    0 -0.18805600524E+02  0.16080291020E+01 -0.12322277066E+00  0.18874627222E+02  0.51100000000E-03 0.  1.
        -12    1    3    3    0    0 -0.20818240183E+02 -0.55655893018E+01  0.12917095471E+02  0.25124216685E+02  0.00000000000E+00 0.  1.
</event>
<event>
 7    1  0.2653124E-010  0.4778727E+02  0.7816164E-02  0.1312668E+00
        -11   -1    0    0    0    0  0.00000000000E+00  0.00000000000E+00  0.45593999997E+02  0.45594000000E+02  0.51100000000E-03 0. -1.
         11   -1    0    0    0    0 -0.00000000000E+00 -0.00000000000E+00 -0.45593999997E+02  0.45594000000E+02  0.51100000000E-03 0.  1.
    9900012    2    1    2    0    0  0.16680279814E+01  0.15087418534E+02 -0.40659696910E+02  0.47787268806E+02  0.19999989794E+02 0.  0.
         12    1    1    2    0    0 -0.16680279814E+01 -0.15087418534E+02  0.40659696910E+02  0.43400731194E+02  0.00000000000E+00 0. -1.
         11    1    3    3    0    0 -0.11516429746E+01  0.37113542262E-01  0.52178251965E+00  0.12648779446E+01  0.51100000000E-03 0. -1.
        -11    1    3    3    0    0 -0.12892451034E+01  0.12421855263E+02 -0.13405400831E+02  0.18321283055E+02  0.51100000000E-03 0.  1.
         12    1    3    3    0    0  0.41089160594E+01  0.26284497290E+01 -0.27776078599E+02  0.28201107806E+02  0.00000000000E+00 0. -1.
</event>
<event>
 7    1  0.2653124E-010  0.4778727E+02  0.7816164E-02  0.1312668E+00
        -11   -1    0    0    0    0  0.00000000000E+00  0.00000000000E+00  0.45593999997E+02  0.45594000000E+02  0.51100000000E-03 0.  1.
         11   -1    0    0    0    0 -0.00000000000E+00 -0.00000000000E+00 -0.45593999997E+02  0.45594000000E+02  0.51100000000E-03 0. -1.
    9900012    2    1    2    0    0  0.45118148674E+01  0.40895714619E+02  0.13813300377E+02  0.47787271724E+02  0.20000003098E+02 0.  0.
         12    1    1    2    0    0 -0.45118148674E+01 -0.40895714619E+02 -0.13813300377E+02  0.43400728276E+02  0.00000000000E+00 0. -1.
         11    1    3    3    0    0  0.37562300414E+01  0.23649091305E+02  0.51377246760E+01  0.24490508341E+02  0.51100000000E-03 0. -1.
        -11    1    3    3    0    0 -0.17787398682E+01  0.18639306910E+02  0.76902344747E+01  0.20241723843E+02  0.51100000000E-03 0.  1.
         12    1    3    3    0    0  0.25343246942E+01 -0.13926835967E+01  0.98534122634E+00  0.30550395396E+01  0.00000000000E+00 0. -1.
</event>
<event>
 7    1  0.2653124E-010  0.4778727E+02  0.7816164E-02  0.1312668E+00
        -11   -1    0    0    0    0  0.00000000000E+00  0.00000000000E+00  0.45593999997E+02  0.45594000000E+02  0.51100000000E-03 0.  1.
         11   -1    0    0    0    0 -0.00000000000E+00 -0.00000000000E+00 -0.45593999997E+02  0.45594000000E+02  0.51100000000E-03 0. -1.
    9900012    2    1    2    0    0 -0.35958915962E+02 -0.20336345152E+02 -0.13304602629E+02  0.47787273941E+02  0.20000013208E+02 0.  0.
         12    1    1    2    0    0  0.35958915962E+02  0.20336345152E+02  0.13304602629E+02  0.43400726059E+02  0.00000000000E+00 0. -1.
         11    1    3    3    0    0 -0.14059369639E+02 -0.13445239521E+02 -0.32607264185E+01  0.19724925284E+02  0.51100000000E-03 0. -1.
        -11    1    3    3    0    0 -0.54033253907E+01 -0.80178890885E+01 -0.36757589692E+01  0.10343774697E+02  0.51100000000E-03 0.  1.
         12    1    3    3    0    0 -0.16496220932E+02  0.11267834570E+01 -0.63681172412E+01  0.17718573961E+02  0.00000000000E+00 0. -1.
</event>
<event>
 7    1  0.2653124E-010  0.4778727E+02  0.7816164E-02  0.1312668E+00
        -11   -1    0    0    0    0  0.00000000000E+00  0.00000000000E+00  0.45593999997E+02  0.45594000000E+02  0.51100000000E-03 0.  1.
         11   -1    0    0    0    0 -0.00000000000E+00 -0.00000000000E+00 -0.45593999997E+02  0.45594000000E+02  0.51100000000E-03 0. -1.
    9900012    2    1    2    0    0  0.25849978370E+01 -0.92466933329E+01  0.42325401017E+02  0.47787272786E+02  0.20000007941E+02 0.  0.
         12    1    1    2    0    0 -0.25849978370E+01  0.92466933329E+01 -0.42325401017E+02  0.43400727214E+02  0.00000000000E+00 0. -1.
         11    1    3    3    0    0 -0.49083038014E+00 -0.47113309719E+01  0.25518865964E+01  0.53804906329E+01  0.51100000000E-03 0. -1.
        -11    1    3    3    0    0 -0.11547564371E+01  0.47104805542E+00 -0.68356449942E+00  0.14221847227E+01  0.51100000000E-03 0.  1.
        -12    1    3    3    0    0  0.42305846543E+01 -0.50064104164E+01  0.40457078920E+02  0.40984597431E+02  0.00000000000E+00 0.  1.
</event>
<event>
 7    1  0.2653124E-010  0.4778727E+02  0.7816164E-02  0.1312668E+00
        -11   -1    0    0    0    0  0.00000000000E+00  0.00000000000E+00  0.45593999997E+02  0.45594000000E+02  0.51100000000E-03 0.  1.
         11   -1    0    0    0    0 -0.00000000000E+00 -0.00000000000E+00 -0.45593999997E+02  0.45594000000E+02  0.51100000000E-03 0. -1.
    9900012    2    1    2    0    0 -0.50047002836E+01  0.31503834884E+02  0.29429315465E+02  0.47787271365E+02  0.20000001460E+02 0.  0.
         12    1    1    2    0    0  0.50047002836E+01 -0.31503834884E+02 -0.29429315465E+02  0.43400728635E+02  0.00000000000E+00 0. -1.
         11    1    3    3    0    0 -0.70401594918E+01  0.12913322815E+02  0.10321191416E+02  0.17967880907E+02  0.51100000000E-03 0. -1.
        -11    1    3    3    0    0 -0.20893396547E+01 -0.93321857589E+00  0.46334341730E+01  0.51676831946E+01  0.51100000000E-03 0.  1.
        -12    1    3    3    0    0  0.41247988629E+01  0.19523730645E+02  0.14474689876E+02  0.24651707263E+02  0.00000000000E+00 0.  1.
</event>
<event>
 7    1  0.2653124E-010  0.4778727E+02  0.7816164E-02  0.1312668E+00
        -11   -1    0    0    0    0  0.00000000000E+00  0.00000000000E+00  0.45593999997E+02  0.45594000000E+02  0.51100000000E-03 0. -1.
         11   -1    0    0    0    0 -0.00000000000E+00 -0.00000000000E+00 -0.45593999997E+02  0.45594000000E+02  0.51100000000E-03 0.  1.
    9900012    2    1    2    0    0  0.28951402908E+02 -0.78017802047E+01 -0.31377893606E+02  0.47787265999E+02  0.19999976996E+02 0.  0.
         12    1    1    2    0    0 -0.28951402908E+02  0.78017802047E+01  0.31377893606E+02  0.43400734001E+02  0.00000000000E+00 0. -1.
         11    1    3    3    0    0  0.28675142906E+01 -0.26674423083E+01 -0.85977026220E+01  0.94476651779E+01  0.51100000000E-03 0. -1.
        -11    1    3    3    0    0  0.17468915325E+02 -0.37137434206E+00 -0.22505145741E+02  0.28491797181E+02  0.51100000000E-03 0.  1.
         12    1    3    3    0    0  0.86149732925E+01 -0.47629635543E+01 -0.27504524298E+00  0.98478036402E+01  0.00000000000E+00 0. -1.
</event>
<event>
 7    1  0.2653124E-010  0.4778727E+02  0.7816164E-02  0.1312668E+00
        -11   -1    0    0    0    0  0.00000000000E+00  0.00000000000E+00  0.45593999997E+02  0.45594000000E+02  0.51100000000E-03 0.  1.
         11   -1    0    0    0    0 -0.00000000000E+00 -0.00000000000E+00 -0.45593999997E+02  0.45594000000E+02  0.51100000000E-03 0. -1.
    9900012    2    1    2    0    0 -0.39328866687E+02  0.98295133954E+01  0.15499817998E+02  0.47787269057E+02  0.19999990938E+02 0.  0.
         12    1    1    2    0    0  0.39328866687E+02 -0.98295133954E+01 -0.15499817998E+02  0.43400730943E+02  0.00000000000E+00 0. -1.
         11    1    3    3    0    0 -0.15853186688E+02  0.83263421391E+01  0.10811178882E+02  0.20917291666E+02  0.51100000000E-03 0. -1.
        -11    1    3    3    0    0 -0.12847061508E+02  0.67053421680E+01  0.39154753600E+01  0.15011314085E+02  0.51100000000E-03 0.  1.
         12    1    3    3    0    0 -0.10628618491E+02 -0.52021709118E+01  0.77316375601E+00  0.11858663306E+02  0.00000000000E+00 0. -1.
</event>
<event>
 7    1  0.2653124E-010  0.4778727E+02  0.7816164E-02  0.1312668E+00
        -11   -1    0    0    0    0  0.00000000000E+00  0.00000000000E+00  0.45593999997E+02  0.45594000000E+02  0.51100000000E-03 0. -1.
         11   -1    0    0    0    0 -0.00000000000E+00 -0.00000000000E+00 -0.45593999997E+02  0.45594000000E+02  0.51100000000E-03 0.  1.
    9900012    2    1    2    0    0 -0.20185382704E+02  0.29814424051E+02 -0.24233731681E+02  0.47787270656E+02  0.19999998228E+02 0.  0.
         12    1    1    2    0    0  0.20185382704E+02 -0.29814424051E+02  0.24233731681E+02  0.43400729344E+02  0.00000000000E+00 0. -1.
         11    1    3    3    0    0 -0.35179800913E+01 -0.21029769648E+01 -0.23903112990E+01  0.47447112035E+01  0.51100000000E-03 0. -1.
        -11    1    3    3    0    0 -0.45137635853E+00  0.16282644490E+01 -0.39700949510E+01  0.43147004432E+01  0.51100000000E-03 0.  1.
        -12    1    3    3    0    0 -0.16216026254E+02  0.30289136567E+02 -0.17873325431E+02  0.38727859009E+02  0.00000000000E+00 0.  1.
</event>
<event>
 7    1  0.2653124E-010  0.4778727E+02  0.7816164E-02  0.1312668E+00
        -11   -1    0    0    0    0  0.00000000000E+00  0.00000000000E+00  0.45593999997E+02  0.45594000000E+02  0.51100000000E-03 0.  1.
         11   -1    0    0    0    0 -0.00000000000E+00 -0.00000000000E+00 -0.45593999997E+02  0.45594000000E+02  0.51100000000E-03 0. -1.
    9900012    2    1    2    0    0 -0.14701494263E+02 -0.32919363087E+01  0.40701994562E+02  0.47787272592E+02  0.20000007057E+02 0.  0.
         12    1    1    2    0    0  0.14701494263E+02  0.32919363087E+01 -0.40701994562E+02  0.43400727408E+02  0.00000000000E+00 0. -1.
         11    1    3    3    0    0 -0.20504477757E+01 -0.14051011048E+01  0.57429481445E+00  0.25511683579E+01  0.51100000000E-03 0. -1.
        -11    1    3    3    0    0 -0.48757646186E+01 -0.45838952236E+01  0.32284100249E+01  0.74301956628E+01  0.51100000000E-03 0.  1.
         12    1    3    3    0    0 -0.77752818684E+01  0.26970600197E+01  0.36899289723E+02  0.37805908571E+02  0.00000000000E+00 0. -1.
</event>
<event>
 7    1  0.2653124E-010  0.4778727E+02  0.7816164E-02  0.1312668E+00
        -11   -1    0    0    0    0  0.00000000000E+00  0.00000000000E+00  0.45593999997E+02  0.45594000000E+02  0.51100000000E-03 0.  1.
         11   -1    0    0    0    0 -0.00000000000E+00 -0.00000000000E+00 -0.45593999997E+02  0.45594000000E+02  0.51100000000E-03 0. -1.
    9900012    2    1    2    0    0  0.18641069952E+02 -0.38686665390E+01  0.39002145049E+02  0.47787269728E+02  0.19999993996E+02 0.  0.
         12    1    1    2    0    0 -0.18641069952E+02  0.38686665390E+01 -0.39002145049E+02  0.43400730272E+02  0.00000000000E+00 0. -1.
         11    1    3    3    0    0  0.98238235777E+01  0.56704504959E+01  0.21407033085E+02  0.24226485182E+02  0.51100000000E-03 0. -1.
        -11    1    3    3    0    0  0.99784053238E+00 -0.28935796701E+01  0.10867260720E+02  0.11290077274E+02  0.51100000000E-03 0.  1.
         12    1    3    3    0    0  0.78194058421E+01 -0.66455373648E+01  0.67278512444E+01  0.12270707272E+02  0.00000000000E+00 0. -1.
</event>
<event>
 7    1  0.3375909E-010  0.4778727E+02  0.7816164E-02  0.1312668E+00
        -11   -1    0    0    0    0  0.00000000000E+00  0.00000000000E+00  0.45593999997E+02  0.45594000000E+02  0.51100000000E-03 0. -1.
         11   -1    0    0    0    0 -0.00000000000E+00 -0.00000000000E+00 -0.45593999997E+02  0.45594000000E+02  0.51100000000E-03 0.  1.
    9900012    2    1    2    0    0  0.13278034075E+02 -0.75687358490E+01 -0.40620576106E+02  0.47787272420E+02  0.20000006273E+02 0.  0.
         12    1    1    2    0    0 -0.13278034075E+02  0.75687358490E+01  0.40620576106E+02  0.43400727580E+02  0.00000000000E+00 0. -1.
         11    1    3    3    0    0  0.18663738340E+01  0.32114016942E+01 -0.27590419664E+01  0.46269606616E+01  0.51100000000E-03 0. -1.
        -11    1    3    3    0    0  0.12166757300E+02 -0.51007230426E+01 -0.16955439855E+02  0.21483349359E+02  0.51100000000E-03 0.  1.
        -12    1    3    3    0    0 -0.75509705835E+00 -0.56794145007E+01 -0.20906094285E+02  0.21676962400E+02  0.00000000000E+00 0.  1.
</event>
<event>
 7    1  0.2653124E-010  0.4778727E+02  0.7816164E-02  0.1312668E+00
        -11   -1    0    0    0    0  0.00000000000E+00  0.00000000000E+00  0.45593999997E+02  0.45594000000E+02  0.51100000000E-03 0.  1.
         11   -1    0    0    0    0 -0.00000000000E+00 -0.00000000000E+00 -0.45593999997E+02  0.45594000000E+02  0.51100000000E-03 0. -1.
    9900012    2    1    2    0    0 -0.26388388699E+02 -0.34442557058E+02  0.99317214857E+00  0.47787272059E+02  0.20000004627E+02 0.  0.
         12    1    1    2    0    0  0.26388388699E+02  0.34442557058E+02 -0.99317214857E+00  0.43400727941E+02  0.00000000000E+00 0. -1.
         11    1    3    3    0    0 -0.51685913380E+00  0.49585897271E+00  0.87846948445E+00  0.11334585926E+01  0.51100000000E-03 0. -1.
        -11    1    3    3    0    0 -0.19111734264E+02 -0.23592593736E+02 -0.76795911172E+01  0.31318444817E+02  0.51100000000E-03 0.  1.
        -12    1    3    3    0    0 -0.67597953011E+01 -0.11345822295E+02  0.77942937813E+01  0.15335368649E+02  0.00000000000E+00 0.  1.
</event>
<event>
 7    1  0.2653124E-010  0.4778727E+02  0.7816164E-02  0.1312668E+00
        -11   -1    0    0    0    0  0.00000000000E+00  0.00000000000E+00  0.45593999997E+02  0.45594000000E+02  0.51100000000E-03 0.  1.
         11   -1    0    0    0    0 -0.00000000000E+00 -0.00000000000E+00 -0.45593999997E+02  0.45594000000E+02  0.51100000000E-03 0. -1.
    9900012    2    1    2    0    0 -0.38562289774E+02 -0.52991194747E+01  0.19196162036E+02  0.47787268477E+02  0.19999988292E+02 0.  0.
         12    1    1    2    0    0  0.38562289774E+02  0.52991194747E+01 -0.19196162036E+02  0.43400731523E+02  0.00000000000E+00 0. -1.
         11    1    3    3    0    0 -0.13184856030E+00 -0.15086174768E+01 -0.95283216058E+00  0.17891897948E+01  0.51100000000E-03 0. -1.
        -11    1    3    3    0    0 -0.11982405065E+02  0.41703750459E+01  0.17422161514E+01  0.12806458392E+02  0.51100000000E-03 0.  1.
        -12    1    3    3    0    0 -0.26448036149E+02 -0.79608770438E+01  0.18406778045E+02  0.33191620289E+02  0.00000000000E+00 0.  1.
</event>
<event>
 7    1  0.2653124E-010  0.4778727E+02  0.7816164E-02  0.1312668E+00
        -11   -1    0    0    0    0  0.00000000000E+00  0.00000000000E+00  0.45593999997E+02  0.45594000000E+02  0.51100000000E-03 0.  1.
         11   -1    0    0    0    0 -0.00000000000E+00 -0.00000000000E+00 -0.45593999997E+02  0.45594000000E+02  0.51100000000E-03 0. -1.
    9900012    2    1    2    0    0 -0.74729365921E+01 -0.37202158622E+02  0.21066032504E+02  0.47787272899E+02  0.20000008454E+02 0.  0.
         12    1    1    2    0    0  0.74729365921E+01  0.37202158622E+02 -0.21066032504E+02  0.43400727101E+02  0.00000000000E+00 0. -1.
         11    1    3    3    0    0 -0.17587153591E+01 -0.86726694972E+01  0.63007707220E+01  0.10863148157E+02  0.51100000000E-03 0. -1.
        -11    1    3    3    0    0 -0.10031123231E+02 -0.21512058426E+02  0.51982226137E+01  0.24298428131E+02  0.51100000000E-03 0.  1.
         12    1    3    3    0    0  0.43169019980E+01 -0.70174306986E+01  0.95670391685E+01  0.12625696611E+02  0.00000000000E+00 0. -1.
</event>
<event>
 7    1  0.2653124E-010  0.4778727E+02  0.7816164E-02  0.1312668E+00
        -11   -1    0    0    0    0  0.00000000000E+00  0.00000000000E+00  0.45593999997E+02  0.45594000000E+02  0.51100000000E-03 0.  1.
         11   -1    0    0    0    0 -0.00000000000E+00 -0.00000000000E+00 -0.45593999997E+02  0.45594000000E+02  0.51100000000E-03 0. -1.
    9900012    2    1    2    0    0  0.28261477774E+02 -0.14847831967E+02  0.29401600443E+02  0.47787270182E+02  0.19999996070E+02 0.  0.
         12    1    1    2    0    0 -0.28261477774E+02  0.14847831967E+02 -0.29401600443E+02  0.43400729818E+02  0.00000000000E+00 0. -1.
         11    1    3    3    0    0  0.60206931066E+01 -0.24870828671E+01  0.94401883792E+01  0.11469589512E+02  0.51100000000E-03 0. -1.
        -11    1    3    3    0    0  0.21696222306E+02 -0.15789271619E+02  0.17099128311E+02  0.31818349264E+02  0.51100000000E-03 0.  1.
         12    1    3    3    0    0  0.54456236202E+00  0.34285225193E+01  0.28622837519E+01  0.44993314068E+01  0.00000000000E+00 0. -1.
</event>
<event>
 7    1  0.2653124E-010  0.4778727E+02  0.7816164E-02  0.1312668E+00
        -11   -1    0    0    0    0  0.00000000000E+00  0.00000000000E+00  0.45593999997E+02  0.45594000000E+02  0.51100000000E-03 0.  1.
         11   -1    0    0    0    0 -0.00000000000E+00 -0.00000000000E+00 -0.45593999997E+02  0.45594000000E+02  0.51100000000E-03 0. -1.
    9900012    2    1    2    0    0 -0.11160070160E+02  0.18662549210E+02  0.37560422593E+02  0.47787271269E+02  0.20000001026E+02 0.  0.
         12    1    1    2    0    0  0.11160070160E+02 -0.18662549210E+02 -0.37560422593E+02  0.43400728731E+02  0.00000000000E+00 0. -1.
         11    1    3    3    0    0 -0.10202850447E+02  0.12908621692E+02  0.27148833221E+02  0.31745705485E+02  0.51100000000E-03 0.  1.
        -11    1    3    3    0    0 -0.22881007314E+01  0.81292443999E+01  0.10295890149E+02  0.13316357373E+02  0.51100000000E-03 0. -1.
         12    1    3    3    0    0  0.13308810178E+01 -0.23753168821E+01  0.11569922307E+00  0.27252084111E+01  0.00000000000E+00 0. -1.
</event>
<event>
 7    1  0.2653124E-010  0.4778726E+02  0.7816164E-02  0.1312668E+00
        -11   -1    0    0    0    0  0.00000000000E+00  0.00000000000E+00  0.45593999997E+02  0.45594000000E+02  0.51100000000E-03 0. -1.
         11   -1    0    0    0    0 -0.00000000000E+00 -0.00000000000E+00 -0.45593999997E+02  0.45594000000E+02  0.51100000000E-03 0.  1.
    9900012    2    1    2    0    0  0.17553224974E+01 -0.42310519332E+02  0.95059255367E+01  0.47787264712E+02  0.19999971129E+02 0.  0.
         12    1    1    2    0    0 -0.17553224974E+01  0.42310519332E+02 -0.95059255367E+01  0.43400735288E+02  0.00000000000E+00 0. -1.
         11    1    3    3    0    0  0.53569119527E+01 -0.18502779276E+02  0.46182631468E+01  0.19808525976E+02  0.51100000000E-03 0.  1.
        -11    1    3    3    0    0  0.35871527202E+01 -0.12902242940E+02  0.63769171362E+01  0.14832417535E+02  0.51100000000E-03 0. -1.
         12    1    3    3    0    0 -0.71887421755E+01 -0.10905497116E+02 -0.14892547463E+01  0.13146321201E+02  0.00000000000E+00 0. -1.
</event>
<event>
 7    1  0.2653124E-010  0.4778727E+02  0.7816164E-02  0.1312668E+00
        -11   -1    0    0    0    0  0.00000000000E+00  0.00000000000E+00  0.45593999997E+02  0.45594000000E+02  0.51100000000E-03 0. -1.
         11   -1    0    0    0    0 -0.00000000000E+00 -0.00000000000E+00 -0.45593999997E+02  0.45594000000E+02  0.51100000000E-03 0.  1.
    9900012    2    1    2    0    0 -0.87461347300E+01  0.34072673356E+02 -0.25420096703E+02  0.47787271219E+02  0.20000000796E+02 0.  0.
         12    1    1    2    0    0  0.87461347300E+01 -0.34072673356E+02  0.25420096703E+02  0.43400728781E+02  0.00000000000E+00 0. -1.
         11    1    3    3    0    0 -0.25982691021E+01  0.88942520391E+01 -0.12596826390E+02  0.15637735035E+02  0.51100000000E-03 0. -1.
        -11    1    3    3    0    0 -0.49525879616E+01  0.80909785428E+01 -0.11588117272E+02  0.14975864699E+02  0.51100000000E-03 0.  1.
        -12    1    3    3    0    0 -0.11952776663E+01  0.17087442774E+02 -0.12351530406E+01  0.17173671485E+02  0.00000000000E+00 0.  1.
</event>
<event>
 7    1  0.2653124E-010  0.4778727E+02  0.7816164E-02  0.1312668E+00
        -11   -1    0    0    0    0  0.00000000000E+00  0.00000000000E+00  0.45593999997E+02  0.45594000000E+02  0.51100000000E-03 0.  1.
         11   -1    0    0    0    0 -0.00000000000E+00 -0.00000000000E+00 -0.45593999997E+02  0.45594000000E+02  0.51100000000E-03 0. -1.
    9900012    2    1    2    0    0  0.92321090651E+01 -0.20456554661E+02  0.37147287215E+02  0.47787269432E+02  0.19999992649E+02 0.  0.
         12    1    1    2    0    0 -0.92321090651E+01  0.20456554661E+02 -0.37147287215E+02  0.43400730568E+02  0.00000000000E+00 0. -1.
         11    1    3    3    0    0  0.43636005437E+01 -0.37694975765E+01  0.19883520075E+01  0.60994807689E+01  0.51100000000E-03 0. -1.
        -11    1    3    3    0    0  0.90315652049E+01 -0.63637147279E+01  0.20426887348E+02  0.23223345198E+02  0.51100000000E-03 0.  1.
         12    1    3    3    0    0 -0.41630566835E+01 -0.10323342356E+02  0.14732047860E+02  0.18464443466E+02  0.00000000000E+00 0. -1.
</event>
<event>
 7    1  0.2653124E-010  0.4778727E+02  0.7816164E-02  0.1312668E+00
        -11   -1    0    0    0    0  0.00000000000E+00  0.00000000000E+00  0.45593999997E+02  0.45594000000E+02  0.51100000000E-03 0. -1.
         11   -1    0    0    0    0 -0.00000000000E+00 -0.00000000000E+00 -0.45593999997E+02  0.45594000000E+02  0.51100000000E-03 0.  1.
    9900012    2    1    2    0    0  0.30475945369E+01 -0.22293212187E+02 -0.37112644594E+02  0.47787268084E+02  0.19999986502E+02 0.  0.
         12    1    1    2    0    0 -0.30475945369E+01  0.22293212187E+02  0.37112644594E+02  0.43400731916E+02  0.00000000000E+00 0. -1.
         11    1    3    3    0    0  0.14289573926E+01 -0.60309861884E+01 -0.34236570606E+01  0.70806879301E+01  0.51100000000E-03 0. -1.
        -11    1    3    3    0    0  0.31306084534E+01 -0.17889860216E+02 -0.20738305729E+02  0.27566739608E+02  0.51100000000E-03 0.  1.
         12    1    3    3    0    0 -0.15119713091E+01  0.16276342169E+01 -0.12950681804E+02  0.13139840546E+02  0.00000000000E+00 0. -1.
</event>
<event>
 7    1  0.2653124E-010  0.4778727E+02  0.7816164E-02  0.1312668E+00
        -11   -1    0    0    0    0  0.00000000000E+00  0.00000000000E+00  0.45593999997E+02  0.45594000000E+02  0.51100000000E-03 0.  1.
         11   -1    0    0    0    0 -0.00000000000E+00 -0.00000000000E+00 -0.45593999997E+02  0.45594000000E+02  0.51100000000E-03 0. -1.
    9900012    2    1    2    0    0 -0.21966502165E+02  0.12633189600E+02  0.35234901240E+02  0.47787274634E+02  0.20000016368E+02 0.  0.
         12    1    1    2    0    0  0.21966502165E+02 -0.12633189600E+02 -0.35234901240E+02  0.43400725366E+02  0.00000000000E+00 0. -1.
         11    1    3    3    0    0  0.17843035373E+01  0.33375297809E+01  0.46506615954E+01  0.59959567783E+01  0.51100000000E-03 0. -1.
        -11    1    3    3    0    0 -0.29686439636E+00  0.26252972177E+01  0.84715051158E+01  0.88739344791E+01  0.51100000000E-03 0.  1.
         12    1    3    3    0    0 -0.23453941306E+02  0.66703626019E+01  0.22112734529E+02  0.32917383377E+02  0.00000000000E+00 0. -1.
</event>
<event>
 7    1  0.2653124E-010  0.4778727E+02  0.7816164E-02  0.1312668E+00
        -11   -1    0    0    0    0  0.00000000000E+00  0.00000000000E+00  0.45593999997E+02  0.45594000000E+02  0.51100000000E-03 0. -1.
         11   -1    0    0    0    0 -0.00000000000E+00 -0.00000000000E+00 -0.45593999997E+02  0.45594000000E+02  0.51100000000E-03 0.  1.
    9900012    2    1    2    0    0 -0.35872989803E+02  0.21080890670E+02  0.12342922804E+02  0.47787273138E+02  0.20000009544E+02 0.  0.
         12    1    1    2    0    0  0.35872989803E+02 -0.21080890670E+02 -0.12342922804E+02  0.43400726862E+02  0.00000000000E+00 0. -1.
         11    1    3    3    0    0 -0.76537516484E+01  0.78716675663E+00  0.44610156176E+00  0.77070456507E+01  0.51100000000E-03 0. -1.
        -11    1    3    3    0    0 -0.13837201072E+02  0.19445910039E+02  0.75009414236E+01  0.25017507335E+02  0.51100000000E-03 0.  1.
        -12    1    3    3    0    0 -0.14382037082E+02  0.84781387418E+00  0.43958798188E+01  0.15062720152E+02  0.00000000000E+00 0.  1.
</event>
<event>
 7    1  0.2653124E-010  0.4778727E+02  0.7816164E-02  0.1312668E+00
        -11   -1    0    0    0    0  0.00000000000E+00  0.00000000000E+00  0.45593999997E+02  0.45594000000E+02  0.51100000000E-03 0.  1.
         11   -1    0    0    0    0 -0.00000000000E+00 -0.00000000000E+00 -0.45593999997E+02  0.45594000000E+02  0.51100000000E-03 0. -1.
    9900012    2    1    2    0    0  0.53651633596E+01 -0.22933048708E+02  0.36454268376E+02  0.47787269779E+02  0.19999994229E+02 0.  0.
         12    1    1    2    0    0 -0.53651633596E+01  0.22933048708E+02 -0.36454268376E+02  0.43400730221E+02  0.00000000000E+00 0. -1.
         11    1    3    3    0    0 -0.27068970883E+01 -0.13426138015E+01 -0.29266232537E+00  0.30357132876E+01  0.51100000000E-03 0. -1.
        -11    1    3    3    0    0  0.30723747045E-01 -0.32167847780E+01  0.14266787465E+02  0.14624974294E+02  0.51100000000E-03 0.  1.
        -12    1    3    3    0    0  0.80413367008E+01 -0.18373650129E+02  0.22480143236E+02  0.30126582197E+02  0.00000000000E+00 0.  1.
</event>
<event>
 7    1  0.2653124E-010  0.4778727E+02  0.7816164E-02  0.1312668E+00
        -11   -1    0    0    0    0  0.00000000000E+00  0.00000000000E+00  0.45593999997E+02  0.45594000000E+02  0.51100000000E-03 0. -1.
         11   -1    0    0    0    0 -0.00000000000E+00 -0.00000000000E+00 -0.45593999997E+02  0.45594000000E+02  0.51100000000E-03 0.  1.
    9900012    2    1    2    0    0  0.27478369111E+02 -0.74326324227E+00 -0.33585857211E+02  0.47787274040E+02  0.20000013659E+02 0.  0.
         12    1    1    2    0    0 -0.27478369111E+02  0.74326324227E+00  0.33585857211E+02  0.43400725960E+02  0.00000000000E+00 0. -1.
         11    1    3    3    0    0 -0.24312110580E+01  0.19530978049E+01 -0.62398508817E+01  0.69757521122E+01  0.51100000000E-03 0. -1.
        -11    1    3    3    0    0  0.93406789293E+01 -0.11514736514E+01 -0.11115960743E+02  0.14564983966E+02  0.51100000000E-03 0.  1.
         12    1    3    3    0    0  0.20568901239E+02 -0.15448873958E+01 -0.16230045587E+02  0.26246537962E+02  0.00000000000E+00 0. -1.
</event>
<event>
 7    1  0.2653124E-010  0.4778726E+02  0.7816164E-02  0.1312668E+00
        -11   -1    0    0    0    0  0.00000000000E+00  0.00000000000E+00  0.45593999997E+02  0.45594000000E+02  0.51100000000E-03 0.  1.
         11   -1    0    0    0    0 -0.00000000000E+00 -0.00000000000E+00 -0.45593999997E+02  0.45594000000E+02  0.51100000000E-03 0. -1.
    9900012    2    1    2    0    0  0.22674445586E+02 -0.42621716913E+01  0.36760410974E+02  0.47787258012E+02  0.19999940579E+02 0.  0.
         12    1    1    2    0    0 -0.22674445586E+02  0.42621716913E+01 -0.36760410974E+02  0.43400741988E+02  0.00000000000E+00 0. -1.
         11    1    3    3    0    0  0.36959388365E+01 -0.61594933726E+01  0.70327038456E+01  0.10052773057E+02  0.51100000000E-03 0. -1.
        -11    1    3    3    0    0  0.18568433418E+01 -0.22114008182E+01  0.13446382507E+02  0.13752940179E+02  0.51100000000E-03 0.  1.
         12    1    3    3    0    0  0.17121663407E+02  0.41087224995E+01  0.16281324621E+02  0.23981544776E+02  0.00000000000E+00 0. -1.
</event>
<event>
 7    1  0.2653124E-010  0.4778727E+02  0.7816164E-02  0.1312668E+00
        -11   -1    0    0    0    0  0.00000000000E+00  0.00000000000E+00  0.45593999997E+02  0.45594000000E+02  0.51100000000E-03 0. -1.
         11   -1    0    0    0    0 -0.00000000000E+00 -0.00000000000E+00 -0.45593999997E+02  0.45594000000E+02  0.51100000000E-03 0.  1.
    9900012    2    1    2    0    0  0.15137557337E+01 -0.38128833525E+02 -0.20676649635E+02  0.47787271406E+02  0.20000001648E+02 0.  0.
         12    1    1    2    0    0 -0.15137557337E+01  0.38128833525E+02  0.20676649635E+02  0.43400728594E+02  0.00000000000E+00 0. -1.
         11    1    3    3    0    0 -0.15609721861E+01 -0.59785327490E+01  0.17483508751E+01  0.64215433535E+01  0.51100000000E-03 0. -1.
        -11    1    3    3    0    0  0.51561506898E+01 -0.73094144382E+01 -0.20661018534E+01  0.91805341073E+01  0.51100000000E-03 0.  1.
        -12    1    3    3    0    0 -0.20814227699E+01 -0.24840886337E+02 -0.20358898657E+02  0.32185193945E+02  0.00000000000E+00 0.  1.
</event>
<event>
 7    1  0.2653124E-010  0.4778726E+02  0.7816164E-02  0.1312668E+00
        -11   -1    0    0    0    0  0.00000000000E+00  0.00000000000E+00  0.45593999997E+02  0.45594000000E+02  0.51100000000E-03 0. -1.
         11   -1    0    0    0    0 -0.00000000000E+00 -0.00000000000E+00 -0.45593999997E+02  0.45594000000E+02  0.51100000000E-03 0.  1.
    9900012    2    1    2    0    0 -0.15480581349E+01 -0.27375809984E+02 -0.33642122709E+02  0.47787264100E+02  0.19999968338E+02 0.  0.
         12    1    1    2    0    0  0.15480581349E+01  0.27375809984E+02  0.33642122709E+02  0.43400735900E+02  0.00000000000E+00 0. -1.
         11    1    3    3    0    0  0.37497461504E+01 -0.15992501275E+02 -0.17207009444E+02  0.23788692009E+02  0.51100000000E-03 0. -1.
        -11    1    3    3    0    0  0.17458209162E+01 -0.10147300802E+02 -0.88938988046E+01  0.13605772321E+02  0.51100000000E-03 0.  1.
         12    1    3    3    0    0 -0.70436252016E+01 -0.12360079067E+01 -0.75412144607E+01  0.10392799770E+02  0.00000000000E+00 0. -1.
</event>
<event>
 7    1  0.2653124E-010  0.4778727E+02  0.7816164E-02  0.1312668E+00
        -11   -1    0    0    0    0  0.00000000000E+00  0.00000000000E+00  0.45593999997E+02  0.45594000000E+02  0.51100000000E-03 0. -1.
         11   -1    0    0    0    0 -0.00000000000E+00 -0.00000000000E+00 -0.45593999997E+02  0.45594000000E+02  0.51100000000E-03 0.  1.
    9900012    2    1    2    0    0 -0.17039030589E+02  0.39435868541E+02 -0.61730840667E+01  0.47787271228E+02  0.20000000839E+02 0.  0.
         12    1    1    2    0    0  0.17039030589E+02 -0.39435868541E+02  0.61730840667E+01  0.43400728772E+02  0.00000000000E+00 0. -1.
         11    1    3    3    0    0 -0.33893313482E+01  0.11710589295E+02 -0.52311243447E+01  0.13266127196E+02  0.51100000000E-03 0. -1.
        -11    1    3    3    0    0 -0.16744117802E+02  0.25138127914E+02  0.58100066165E+00  0.30209742104E+02  0.51100000000E-03 0.  1.
        -12    1    3    3    0    0  0.30944185615E+01  0.25871513326E+01 -0.15229603836E+01  0.43114019277E+01  0.00000000000E+00 0.  1.
</event>
<event>
 7    1  0.2653124E-010  0.4778727E+02  0.7816164E-02  0.1312668E+00
        -11   -1    0    0    0    0  0.00000000000E+00  0.00000000000E+00  0.45593999997E+02  0.45594000000E+02  0.51100000000E-03 0. -1.
         11   -1    0    0    0    0 -0.00000000000E+00 -0.00000000000E+00 -0.45593999997E+02  0.45594000000E+02  0.51100000000E-03 0.  1.
    9900012    2    1    2    0    0 -0.27115562453E+02  0.33879250998E+02  0.75215586260E+00  0.47787272889E+02  0.20000008411E+02 0.  0.
         12    1    1    2    0    0  0.27115562453E+02 -0.33879250998E+02 -0.75215586260E+00  0.43400727111E+02  0.00000000000E+00 0. -1.
         11    1    3    3    0    0 -0.43306935205E+01 -0.18450847094E+00  0.30650936307E+01  0.53088368754E+01  0.51100000000E-03 0. -1.
        -11    1    3    3    0    0  0.10195342879E+01  0.86515777205E+00  0.71345932471E+00  0.15155766572E+01  0.51100000000E-03 0.  1.
        -12    1    3    3    0    0 -0.23804403220E+02  0.33198601697E+02 -0.30263970928E+01  0.40962859356E+02  0.00000000000E+00 0.  1.
</event>
<event>
 7    1  0.2653124E-010  0.4778726E+02  0.7816164E-02  0.1312668E+00
        -11   -1    0    0    0    0  0.00000000000E+00  0.00000000000E+00  0.45593999997E+02  0.45594000000E+02  0.51100000000E-03 0. -1.
         11   -1    0    0    0    0 -0.00000000000E+00 -0.00000000000E+00 -0.45593999997E+02  0.45594000000E+02  0.51100000000E-03 0.  1.
    9900012    2    1    2    0    0  0.32746065235E+02  0.28356950827E+02 -0.26838725641E+01  0.47787255531E+02  0.19999929266E+02 0.  0.
         12    1    1    2    0    0 -0.32746065235E+02 -0.28356950827E+02  0.26838725641E+01  0.43400744469E+02  0.00000000000E+00 0. -1.
         11    1    3    3    0    0  0.38056750476E+01  0.10624747371E+02  0.25792278207E+01  0.11576736832E+02  0.51100000000E-03 0. -1.
        -11    1    3    3    0    0  0.84232576706E+01  0.91249796165E+01 -0.63238118493E+01  0.13935821445E+02  0.51100000000E-03 0.  1.
         12    1    3    3    0    0  0.20517132516E+02  0.86072238401E+01  0.10607114645E+01  0.22274697253E+02  0.00000000000E+00 0. -1.
</event>
<event>
 7    1  0.2653124E-010  0.4778727E+02  0.7816164E-02  0.1312668E+00
        -11   -1    0    0    0    0  0.00000000000E+00  0.00000000000E+00  0.45593999997E+02  0.45594000000E+02  0.51100000000E-03 0.  1.
         11   -1    0    0    0    0 -0.00000000000E+00 -0.00000000000E+00 -0.45593999997E+02  0.45594000000E+02  0.51100000000E-03 0. -1.
    9900012    2    1    2    0    0  0.15356802188E+02  0.12535479434E+02  0.38608983185E+02  0.47787271888E+02  0.20000003844E+02 0.  0.
         12    1    1    2    0    0 -0.15356802188E+02 -0.12535479434E+02 -0.38608983185E+02  0.43400728112E+02  0.00000000000E+00 0. -1.
         11    1    3    3    0    0  0.57830106372E+01  0.57872363338E+01  0.63948998741E+01  0.10384125436E+02  0.51100000000E-03 0. -1.
        -11    1    3    3    0    0  0.95525490625E+01  0.10434482826E+02  0.19022737158E+02  0.23706415897E+02  0.51100000000E-03 0.  1.
         12    1    3    3    0    0  0.21242488339E-01 -0.36862397250E+01  0.13191346154E+02  0.13696730555E+02  0.00000000000E+00 0. -1.
</event>
<event>
 7    1  0.2653124E-010  0.4778727E+02  0.7816164E-02  0.1312668E+00
        -11   -1    0    0    0    0  0.00000000000E+00  0.00000000000E+00  0.45593999997E+02  0.45594000000E+02  0.51100000000E-03 0.  1.
         11   -1    0    0    0    0 -0.00000000000E+00 -0.00000000000E+00 -0.45593999997E+02  0.45594000000E+02  0.51100000000E-03 0. -1.
    9900012    2    1    2    0    0  0.16387120069E+02  0.34258356648E+02  0.21010725466E+02  0.47787270871E+02  0.19999999207E+02 0.  0.
         12    1    1    2    0    0 -0.16387120069E+02 -0.34258356648E+02 -0.21010725466E+02  0.43400729129E+02  0.00000000000E+00 0. -1.
         11    1    3    3    0    0  0.12039681565E+02  0.17748887571E+02  0.58545867314E+01  0.22231804431E+02  0.51100000000E-03 0. -1.
        -11    1    3    3    0    0  0.80164932584E+01  0.12256089820E+02  0.12849973885E+02  0.19483267974E+02  0.51100000000E-03 0.  1.
         12    1    3    3    0    0 -0.36690547548E+01  0.42533792567E+01  0.23061648500E+01  0.60721984659E+01  0.00000000000E+00 0. -1.
</event>
<event>
 7    1  0.2653124E-010  0.4778727E+02  0.7816164E-02  0.1312668E+00
        -11   -1    0    0    0    0  0.00000000000E+00  0.00000000000E+00  0.45593999997E+02  0.45594000000E+02  0.51100000000E-03 0.  1.
         11   -1    0    0    0    0 -0.00000000000E+00 -0.00000000000E+00 -0.45593999997E+02  0.45594000000E+02  0.51100000000E-03 0. -1.
    9900012    2    1    2    0    0  0.17303130603E+02  0.17821376420E+02  0.35589651686E+02  0.47787273125E+02  0.20000009486E+02 0.  0.
         12    1    1    2    0    0 -0.17303130603E+02 -0.17821376420E+02 -0.35589651686E+02  0.43400726875E+02  0.00000000000E+00 0. -1.
         11    1    3    3    0    0  0.19774788991E+01  0.44928275818E+01  0.14689885043E+01  0.51238510871E+01  0.51100000000E-03 0. -1.
        -11    1    3    3    0    0  0.17286512210E+02  0.14832001426E+02  0.28213853780E+02  0.36260630387E+02  0.51100000000E-03 0.  1.
         12    1    3    3    0    0 -0.19608605066E+01 -0.15034525885E+01  0.59068094020E+01  0.64027916508E+01  0.00000000000E+00 0. -1.
</event>
<event>
 7    1  0.2653124E-010  0.4778727E+02  0.7816164E-02  0.1312668E+00
        -11   -1    0    0    0    0  0.00000000000E+00  0.00000000000E+00  0.45593999997E+02  0.45594000000E+02  0.51100000000E-03 0.  1.
         11   -1    0    0    0    0 -0.00000000000E+00 -0.00000000000E+00 -0.45593999997E+02  0.45594000000E+02  0.51100000000E-03 0. -1.
    9900012    2    1    2    0    0 -0.27215853463E+02 -0.31912738422E+02  0.11157857913E+02  0.47787270208E+02  0.19999996187E+02 0.  0.
         12    1    1    2    0    0  0.27215853463E+02  0.31912738422E+02 -0.11157857913E+02  0.43400729792E+02  0.00000000000E+00 0. -1.
         11    1    3    3    0    0 -0.21256581764E+01 -0.30757371655E+01  0.26509621729E+01  0.45832502110E+01  0.51100000000E-03 0.  1.
        -11    1    3    3    0    0 -0.24366973535E+01 -0.28304163259E+01 -0.49339311469E+01  0.61880875393E+01  0.51100000000E-03 0. -1.
         12    1    3    3    0    0 -0.22653497933E+02 -0.26006584930E+02  0.13440826887E+02  0.37015932458E+02  0.00000000000E+00 0. -1.
</event>
<event>
 7    1  0.2653124E-010  0.4778727E+02  0.7816164E-02  0.1312668E+00
        -11   -1    0    0    0    0  0.00000000000E+00  0.00000000000E+00  0.45593999997E+02  0.45594000000E+02  0.51100000000E-03 0.  1.
         11   -1    0    0    0    0 -0.00000000000E+00 -0.00000000000E+00 -0.45593999997E+02  0.45594000000E+02  0.51100000000E-03 0. -1.
    9900012    2    1    2    0    0  0.34253987984E+02  0.26407600001E+02  0.35953005081E+01  0.47787271707E+02  0.20000003021E+02 0.  0.
         12    1    1    2    0    0 -0.34253987984E+02 -0.26407600001E+02 -0.35953005081E+01  0.43400728293E+02  0.00000000000E+00 0. -1.
         11    1    3    3    0    0  0.34625153719E+01  0.11670988092E-01  0.24034258018E+01  0.42149264239E+01  0.51100000000E-03 0. -1.
        -11    1    3    3    0    0  0.29894260196E+02  0.17844869398E+02 -0.45378197966E+00  0.34818272141E+02  0.51100000000E-03 0.  1.
         12    1    3    3    0    0  0.89721241583E+00  0.85510596149E+01  0.16456566859E+01  0.87540731426E+01  0.00000000000E+00 0. -1.
</event>
<event>
 7    1  0.2653124E-010  0.4778727E+02  0.7816164E-02  0.1312668E+00
        -11   -1    0    0    0    0  0.00000000000E+00  0.00000000000E+00  0.45593999997E+02  0.45594000000E+02  0.51100000000E-03 0.  1.
         11   -1    0    0    0    0 -0.00000000000E+00 -0.00000000000E+00 -0.45593999997E+02  0.45594000000E+02  0.51100000000E-03 0. -1.
    9900012    2    1    2    0    0 -0.21022153419E+02  0.35441695800E+02  0.13622720571E+02  0.47787271304E+02  0.20000001184E+02 0.  0.
         12    1    1    2    0    0  0.21022153419E+02 -0.35441695800E+02 -0.13622720571E+02  0.43400728696E+02  0.00000000000E+00 0. -1.
         11    1    3    3    0    0 -0.43242978336E+01  0.16897712682E+02 -0.45439443280E+00  0.17448172403E+02  0.51100000000E-03 0. -1.
        -11    1    3    3    0    0 -0.37983173847E+00  0.40656556417E+01  0.56093069982E+01  0.69381664154E+01  0.51100000000E-03 0.  1.
         12    1    3    3    0    0 -0.16318023847E+02  0.14478327476E+02  0.84678080051E+01  0.23400932486E+02  0.00000000000E+00 0. -1.
</event>
<event>
 7    1  0.2653124E-010  0.4778727E+02  0.7816164E-02  0.1312668E+00
        -11   -1    0    0    0    0  0.00000000000E+00  0.00000000000E+00  0.45593999997E+02  0.45594000000E+02  0.51100000000E-03 0.  1.
         11   -1    0    0    0    0 -0.00000000000E+00 -0.00000000000E+00 -0.45593999997E+02  0.45594000000E+02  0.51100000000E-03 0. -1.
    9900012    2    1    2    0    0 -0.91154047173E+01  0.41056217244E+02  0.10720060260E+02  0.47787271094E+02  0.20000000228E+02 0.  0.
         12    1    1    2    0    0  0.91154047173E+01 -0.41056217244E+02 -0.10720060260E+02  0.43400728906E+02  0.00000000000E+00 0. -1.
         11    1    3    3    0    0 -0.70406535451E+01  0.51737668042E+01 -0.21761972872E+01  0.90041379477E+01  0.51100000000E-03 0.  1.
        -11    1    3    3    0    0  0.76498939483E+00  0.40999646519E+01  0.36997214802E+01  0.55752002846E+01  0.51100000000E-03 0. -1.
        -12    1    3    3    0    0 -0.28397405671E+01  0.31782485788E+02  0.91965360673E+01  0.33207932862E+02  0.00000000000E+00 0.  1.
</event>
<event>
 7    1  0.2653124E-010  0.4778727E+02  0.7816164E-02  0.1312668E+00
        -11   -1    0    0    0    0  0.00000000000E+00  0.00000000000E+00  0.45593999997E+02  0.45594000000E+02  0.51100000000E-03 0.  1.
         11   -1    0    0    0    0 -0.00000000000E+00 -0.00000000000E+00 -0.45593999997E+02  0.45594000000E+02  0.51100000000E-03 0. -1.
    9900012    2    1    2    0    0 -0.29181431739E+02 -0.31883149903E+02  0.39410763746E+01  0.47787270869E+02  0.19999999201E+02 0.  0.
         12    1    1    2    0    0  0.29181431739E+02  0.31883149903E+02 -0.39410763746E+01  0.43400729131E+02  0.00000000000E+00 0. -1.
         11    1    3    3    0    0 -0.39726198011E+01  0.14532814753E+01 -0.17507702824E+00  0.42337202739E+01  0.51100000000E-03 0. -1.
        -11    1    3    3    0    0 -0.12505872476E+02 -0.12725183410E+02 -0.34812765937E+01  0.18178185448E+02  0.51100000000E-03 0.  1.
        -12    1    3    3    0    0 -0.12702939462E+02 -0.20611247968E+02  0.75974299965E+01  0.25375365147E+02  0.00000000000E+00 0.  1.
</event>
<event>
 7    1  0.2653124E-010  0.4778727E+02  0.7816164E-02  0.1312668E+00
        -11   -1    0    0    0    0  0.00000000000E+00  0.00000000000E+00  0.45593999997E+02  0.45594000000E+02  0.51100000000E-03 0. -1.
         11   -1    0    0    0    0 -0.00000000000E+00 -0.00000000000E+00 -0.45593999997E+02  0.45594000000E+02  0.51100000000E-03 0.  1.
    9900012    2    1    2    0    0  0.97981774609E+01 -0.38409671864E+02 -0.17672469930E+02  0.47787269963E+02  0.19999995071E+02 0.  0.
         12    1    1    2    0    0 -0.97981774609E+01  0.38409671864E+02  0.17672469930E+02  0.43400730037E+02  0.00000000000E+00 0. -1.
         11    1    3    3    0    0  0.17423293018E+01 -0.12527975638E+02  0.15666777706E+01  0.12745209472E+02  0.51100000000E-03 0. -1.
        -11    1    3    3    0    0 -0.34978937929E+00 -0.62419668639E+01  0.60868583170E-01  0.62520563166E+01  0.51100000000E-03 0.  1.
        -12    1    3    3    0    0  0.84056375383E+01 -0.19639729363E+02 -0.19300016284E+02  0.28790004175E+02  0.00000000000E+00 0.  1.
</event>
<event>
 7    1  0.2653124E-010  0.4778727E+02  0.7816164E-02  0.1312668E+00
        -11   -1    0    0    0    0  0.00000000000E+00  0.00000000000E+00  0.45593999997E+02  0.45594000000E+02  0.51100000000E-03 0.  1.
         11   -1    0    0    0    0 -0.00000000000E+00 -0.00000000000E+00 -0.45593999997E+02  0.45594000000E+02  0.51100000000E-03 0. -1.
    9900012    2    1    2    0    0  0.38120071566E+02  0.50564746124E+01  0.20122515881E+02  0.47787269164E+02  0.19999991428E+02 0.  0.
         12    1    1    2    0    0 -0.38120071566E+02 -0.50564746124E+01 -0.20122515881E+02  0.43400730836E+02  0.00000000000E+00 0. -1.
         11    1    3    3    0    0  0.54228956487E+01 -0.22607914226E+01 -0.51678181195E-01  0.58755124005E+01  0.51100000000E-03 0. -1.
        -11    1    3    3    0    0  0.85451760433E+01 -0.20460731393E+01  0.11751626049E+02  0.14673348764E+02  0.51100000000E-03 0.  1.
        -12    1    3    3    0    0  0.24151999874E+02  0.93633391743E+01  0.84225680126E+01  0.27238407999E+02  0.00000000000E+00 0.  1.
</event>
<event>
 7    1  0.2653124E-010  0.4778727E+02  0.7816164E-02  0.1312668E+00
        -11   -1    0    0    0    0  0.00000000000E+00  0.00000000000E+00  0.45593999997E+02  0.45594000000E+02  0.51100000000E-03 0.  1.
         11   -1    0    0    0    0 -0.00000000000E+00 -0.00000000000E+00 -0.45593999997E+02  0.45594000000E+02  0.51100000000E-03 0. -1.
    9900012    2    1    2    0    0  0.28179134111E+02  0.95518263642E+00  0.32994660100E+02  0.47787267653E+02  0.19999984538E+02 0.  0.
         12    1    1    2    0    0 -0.28179134111E+02 -0.95518263642E+00 -0.32994660100E+02  0.43400732347E+02  0.00000000000E+00 0. -1.
         11    1    3    3    0    0  0.15179043276E+02 -0.34945520411E+01  0.21776388263E+02  0.26773612659E+02  0.51100000000E-03 0. -1.
        -11    1    3    3    0    0  0.59677464656E+01  0.11904290580E+01  0.11762755657E+02  0.13243622621E+02  0.51100000000E-03 0.  1.
         12    1    3    3    0    0  0.70323443693E+01  0.32593056195E+01 -0.54448382046E+00  0.77700323732E+01  0.00000000000E+00 0. -1.
</event>
<event>
 7    1  0.2653124E-010  0.4778727E+02  0.7816164E-02  0.1312668E+00
        -11   -1    0    0    0    0  0.00000000000E+00  0.00000000000E+00  0.45593999997E+02  0.45594000000E+02  0.51100000000E-03 0.  1.
         11   -1    0    0    0    0 -0.00000000000E+00 -0.00000000000E+00 -0.45593999997E+02  0.45594000000E+02  0.51100000000E-03 0. -1.
    9900012    2    1    2    0    0 -0.29771439677E+02 -0.30418513745E+02  0.84852117941E+01  0.47787269383E+02  0.19999992425E+02 0.  0.
         12    1    1    2    0    0  0.29771439677E+02  0.30418513745E+02 -0.84852117941E+01  0.43400730617E+02  0.00000000000E+00 0. -1.
         11    1    3    3    0    0 -0.36833896380E+01 -0.57886859627E+01  0.57780806898E+01  0.89700870185E+01  0.51100000000E-03 0. -1.
        -11    1    3    3    0    0 -0.15590976426E+02 -0.11917896196E+02  0.84409872120E+01  0.21362702569E+02  0.51100000000E-03 0.  1.
         12    1    3    3    0    0 -0.10497073613E+02 -0.12711931586E+02 -0.57338561077E+01  0.17454479796E+02  0.00000000000E+00 0. -1.
</event>
<event>
 7    1  0.2653124E-010  0.4778727E+02  0.7816164E-02  0.1312668E+00
        -11   -1    0    0    0    0  0.00000000000E+00  0.00000000000E+00  0.45593999997E+02  0.45594000000E+02  0.51100000000E-03 0.  1.
         11   -1    0    0    0    0 -0.00000000000E+00 -0.00000000000E+00 -0.45593999997E+02  0.45594000000E+02  0.51100000000E-03 0. -1.
    9900012    2    1    2    0    0 -0.10578708980E+01  0.43002500591E+02 -0.57696684709E+01  0.47787271640E+02  0.20000002716E+02 0.  0.
         12    1    1    2    0    0  0.10578708980E+01 -0.43002500591E+02  0.57696684709E+01  0.43400728360E+02  0.00000000000E+00 0. -1.
         11    1    3    3    0    0  0.29877761845E+00  0.14410355189E+02  0.17470802931E+01  0.14518949499E+02  0.51100000000E-03 0.  1.
        -11    1    3    3    0    0 -0.33087359354E+00  0.24422522856E+02  0.21332734219E+00  0.24425695666E+02  0.51100000000E-03 0. -1.
         12    1    3    3    0    0 -0.10257749229E+01  0.41696225464E+01 -0.77300761061E+01  0.88426264752E+01  0.00000000000E+00 0. -1.
</event>
<event>
 7    1  0.2653124E-010  0.4778727E+02  0.7816164E-02  0.1312668E+00
        -11   -1    0    0    0    0  0.00000000000E+00  0.00000000000E+00  0.45593999997E+02  0.45594000000E+02  0.51100000000E-03 0.  1.
         11   -1    0    0    0    0 -0.00000000000E+00 -0.00000000000E+00 -0.45593999997E+02  0.45594000000E+02  0.51100000000E-03 0. -1.
    9900012    2    1    2    0    0 -0.32117461239E+02 -0.18666470304E+02  0.22442251563E+02  0.47787273217E+02  0.20000009905E+02 0.  0.
         12    1    1    2    0    0  0.32117461239E+02  0.18666470304E+02 -0.22442251563E+02  0.43400726783E+02  0.00000000000E+00 0. -1.
         11    1    3    3    0    0 -0.22613212579E+02 -0.70320206095E+01  0.12841941602E+02  0.26939230898E+02  0.51100000000E-03 0. -1.
        -11    1    3    3    0    0 -0.97039584688E+01 -0.50416062769E+01  0.91118225503E+01  0.14234110940E+02  0.51100000000E-03 0.  1.
         12    1    3    3    0    0  0.19970980822E+00 -0.65928434173E+01  0.48848741087E+00  0.66139313788E+01  0.00000000000E+00 0. -1.
</event>
<event>
 7    1  0.2653124E-010  0.4778727E+02  0.7816164E-02  0.1312668E+00
        -11   -1    0    0    0    0  0.00000000000E+00  0.00000000000E+00  0.45593999997E+02  0.45594000000E+02  0.51100000000E-03 0. -1.
         11   -1    0    0    0    0 -0.00000000000E+00 -0.00000000000E+00 -0.45593999997E+02  0.45594000000E+02  0.51100000000E-03 0.  1.
    9900012    2    1    2    0    0  0.42986135550E+02  0.38528977706E+01 -0.45793406311E+01  0.47787273839E+02  0.20000012740E+02 0.  0.
         12    1    1    2    0    0 -0.42986135550E+02 -0.38528977706E+01  0.45793406311E+01  0.43400726161E+02  0.00000000000E+00 0. -1.
         11    1    3    3    0    0  0.10178454770E+02  0.48903044122E+00  0.40982670398E+01  0.10983436861E+02  0.51100000000E-03 0. -1.
        -11    1    3    3    0    0  0.11714959459E+02  0.53539255279E+01  0.20726120971E+01  0.13046091938E+02  0.51100000000E-03 0.  1.
        -12    1    3    3    0    0  0.21092721320E+02 -0.19900581985E+01 -0.10750219768E+02  0.23757745040E+02  0.00000000000E+00 0.  1.
</event>
<event>
 7    1  0.2653124E-010  0.4778728E+02  0.7816164E-02  0.1312668E+00
        -11   -1    0    0    0    0  0.00000000000E+00  0.00000000000E+00  0.45593999997E+02  0.45594000000E+02  0.51100000000E-03 0.  1.
         11   -1    0    0    0    0 -0.00000000000E+00 -0.00000000000E+00 -0.45593999997E+02  0.45594000000E+02  0.51100000000E-03 0. -1.
    9900012    2    1    2    0    0 -0.25632996383E+02  0.23497275171E+02  0.25970176389E+02  0.47787279894E+02  0.20000040348E+02 0.  0.
         12    1    1    2    0    0  0.25632996383E+02 -0.23497275171E+02 -0.25970176389E+02  0.43400720106E+02  0.00000000000E+00 0. -1.
         11    1    3    3    0    0 -0.14213380046E+02  0.11077468305E+02  0.19064656170E+02  0.26233406022E+02  0.51100000000E-03 0.  1.
        -11    1    3    3    0    0 -0.27693126812E+01  0.92002869067E+01  0.76674880495E+01  0.12292467008E+02  0.51100000000E-03 0. -1.
         12    1    3    3    0    0 -0.86503036566E+01  0.32195199592E+01 -0.76196783061E+00  0.92614068637E+01  0.00000000000E+00 0. -1.
</event>
<event>
 7    1  0.2653124E-010  0.4778727E+02  0.7816164E-02  0.1312668E+00
        -11   -1    0    0    0    0  0.00000000000E+00  0.00000000000E+00  0.45593999997E+02  0.45594000000E+02  0.51100000000E-03 0.  1.
         11   -1    0    0    0    0 -0.00000000000E+00 -0.00000000000E+00 -0.45593999997E+02  0.45594000000E+02  0.51100000000E-03 0. -1.
    9900012    2    1    2    0    0 -0.14105214474E+02 -0.27538135219E+01  0.40952204534E+02  0.47787267051E+02  0.19999981793E+02 0.  0.
         12    1    1    2    0    0  0.14105214474E+02  0.27538135219E+01 -0.40952204534E+02  0.43400732949E+02  0.00000000000E+00 0. -1.
         11    1    3    3    0    0  0.10767744015E+01 -0.80986583646E+00  0.46355965339E+01  0.48274300897E+01  0.51100000000E-03 0. -1.
        -11    1    3    3    0    0 -0.51544535314E+01 -0.25254172204E+01  0.50016451523E+00  0.57616220067E+01  0.51100000000E-03 0.  1.
        -12    1    3    3    0    0 -0.10027535344E+02  0.58146953487E+00  0.35816443485E+02  0.37198214955E+02  0.00000000000E+00 0.  1.
</event>
<event>
 7    1  0.2653124E-010  0.4778727E+02  0.7816164E-02  0.1312668E+00
        -11   -1    0    0    0    0  0.00000000000E+00  0.00000000000E+00  0.45593999997E+02  0.45594000000E+02  0.51100000000E-03 0.  1.
         11   -1    0    0    0    0 -0.00000000000E+00 -0.00000000000E+00 -0.45593999997E+02  0.45594000000E+02  0.51100000000E-03 0. -1.
    9900012    2    1    2    0    0  0.62967542628E+01  0.34552435384E+02  0.25497125012E+02  0.47787270869E+02  0.19999999202E+02 0.  0.
         12    1    1    2    0    0 -0.62967542628E+01 -0.34552435384E+02 -0.25497125012E+02  0.43400729131E+02  0.00000000000E+00 0. -1.
         11    1    3    3    0    0  0.12788789384E+01 -0.23011075284E+00  0.10301216391E+01  0.16582017821E+01  0.51100000000E-03 0. -1.
        -11    1    3    3    0    0 -0.27632258757E+01  0.20069172065E+02  0.57010372925E+01  0.21045401186E+02  0.51100000000E-03 0.  1.
        -12    1    3    3    0    0  0.77811012001E+01  0.14713374072E+02  0.18765966080E+02  0.25083667901E+02  0.00000000000E+00 0.  1.
</event>
<event>
 7    1  0.2653124E-010  0.4778733E+02  0.7816164E-02  0.1312667E+00
        -11   -1    0    0    0    0  0.00000000000E+00  0.00000000000E+00  0.45593999997E+02  0.45594000000E+02  0.51100000000E-03 0. -1.
         11   -1    0    0    0    0 -0.00000000000E+00 -0.00000000000E+00 -0.45593999997E+02  0.45594000000E+02  0.51100000000E-03 0.  1.
    9900012    2    1    2    0    0 -0.16122571635E+02  0.30323912501E+02 -0.26535652018E+02  0.47787333951E+02  0.20000286812E+02 0.  0.
         12    1    1    2    0    0  0.16122571635E+02 -0.30323912501E+02  0.26535652018E+02  0.43400666049E+02  0.00000000000E+00 0. -1.
         11    1    3    3    0    0 -0.52623736113E+01  0.58202195755E+01 -0.29396975932E+01  0.83791022271E+01  0.51100000000E-03 0. -1.
        -11    1    3    3    0    0 -0.12720333823E+02  0.12666832785E+02 -0.20050831213E+02  0.26912662038E+02  0.51100000000E-03 0.  1.
         12    1    3    3    0    0  0.18601357992E+01  0.11836860141E+02 -0.35451232122E+01  0.12495569686E+02  0.00000000000E+00 0. -1.
</event>
<event>
 7    1  0.2653124E-010  0.4778727E+02  0.7816164E-02  0.1312668E+00
        -11   -1    0    0    0    0  0.00000000000E+00  0.00000000000E+00  0.45593999997E+02  0.45594000000E+02  0.51100000000E-03 0.  1.
         11   -1    0    0    0    0 -0.00000000000E+00 -0.00000000000E+00 -0.45593999997E+02  0.45594000000E+02  0.51100000000E-03 0. -1.
    9900012    2    1    2    0    0  0.35783182846E+02 -0.23847145175E+02 -0.58737268688E+01  0.47787272184E+02  0.20000005198E+02 0.  0.
         12    1    1    2    0    0 -0.35783182846E+02  0.23847145175E+02  0.58737268688E+01  0.43400727816E+02  0.00000000000E+00 0. -1.
         11    1    3    3    0    0  0.14689379737E+02 -0.13898935720E+02 -0.10371789144E+01  0.20249297064E+02  0.51100000000E-03 0. -1.
        -11    1    3    3    0    0  0.20837069721E+02 -0.40826915310E+01 -0.35594869900E+01  0.21529556256E+02  0.51100000000E-03 0.  1.
         12    1    3    3    0    0  0.25673338794E+00 -0.58655179232E+01 -0.12770609644E+01  0.60084188642E+01  0.00000000000E+00 0. -1.
</event>
<event>
 7    1  0.2653124E-010  0.4778727E+02  0.7816164E-02  0.1312668E+00
        -11   -1    0    0    0    0  0.00000000000E+00  0.00000000000E+00  0.45593999997E+02  0.45594000000E+02  0.51100000000E-03 0. -1.
         11   -1    0    0    0    0 -0.00000000000E+00 -0.00000000000E+00 -0.45593999997E+02  0.45594000000E+02  0.51100000000E-03 0.  1.
    9900012    2    1    2    0    0  0.21289921232E+02  0.17996900186E+02 -0.33263704782E+02  0.47787271686E+02  0.20000002926E+02 0.  0.
         12    1    1    2    0    0 -0.21289921232E+02 -0.17996900186E+02  0.33263704782E+02  0.43400728314E+02  0.00000000000E+00 0. -1.
         11    1    3    3    0    0  0.14292609289E+02  0.20653847341E+01 -0.16445259435E+02  0.21885864217E+02  0.51100000000E-03 0.  1.
        -11    1    3    3    0    0  0.38809396081E+01  0.45295476158E+00 -0.34788788948E+01  0.52315828277E+01  0.51100000000E-03 0. -1.
        -12    1    3    3    0    0  0.31163723347E+01  0.15478560690E+02 -0.13339566452E+02  0.20669824641E+02  0.00000000000E+00 0.  1.
</event>
<event>
 7    1  0.2653124E-010  0.4778727E+02  0.7816164E-02  0.1312668E+00
        -11   -1    0    0    0    0  0.00000000000E+00  0.00000000000E+00  0.45593999997E+02  0.45594000000E+02  0.51100000000E-03 0.  1.
         11   -1    0    0    0    0 -0.00000000000E+00 -0.00000000000E+00 -0.45593999997E+02  0.45594000000E+02  0.51100000000E-03 0. -1.
    9900012    2    1    2    0    0  0.63845344989E+01  0.42469541427E+02 -0.62609042299E+01  0.47787272453E+02  0.20000006422E+02 0.  0.
         12    1    1    2    0    0 -0.63845344989E+01 -0.42469541427E+02  0.62609042299E+01  0.43400727547E+02  0.00000000000E+00 0. -1.
         11    1    3    3    0    0  0.45647531464E+01  0.19431755512E+01  0.11553950483E+01  0.50939022850E+01  0.51100000000E-03 0. -1.
        -11    1    3    3    0    0  0.43097246833E+00  0.72361596045E+01  0.29091907747E+01  0.78109624449E+01  0.51100000000E-03 0.  1.
         12    1    3    3    0    0  0.13888088842E+01  0.33290206272E+02 -0.10325490053E+02  0.34882407723E+02  0.00000000000E+00 0. -1.
</event>
<event>
 7    1  0.2653124E-010  0.4778727E+02  0.7816164E-02  0.1312668E+00
        -11   -1    0    0    0    0  0.00000000000E+00  0.00000000000E+00  0.45593999997E+02  0.45594000000E+02  0.51100000000E-03 0. -1.
         11   -1    0    0    0    0 -0.00000000000E+00 -0.00000000000E+00 -0.45593999997E+02  0.45594000000E+02  0.51100000000E-03 0.  1.
    9900012    2    1    2    0    0 -0.36860593886E+02  0.22487124326E+02 -0.43873777210E+01  0.47787271603E+02  0.20000002548E+02 0.  0.
         12    1    1    2    0    0  0.36860593886E+02 -0.22487124326E+02  0.43873777210E+01  0.43400728397E+02  0.00000000000E+00 0. -1.
         11    1    3    3    0    0 -0.69612510641E+01  0.11410394435E+02  0.20158806577E+00  0.13367750579E+02  0.51100000000E-03 0. -1.
        -11    1    3    3    0    0 -0.10406282300E+02  0.90194080734E+01  0.16016982133E+01  0.13863833190E+02  0.51100000000E-03 0.  1.
         12    1    3    3    0    0 -0.19493060522E+02  0.20573218186E+01 -0.61906640000E+01  0.20555687834E+02  0.00000000000E+00 0. -1.
</event>
<event>
 7    1  0.2653124E-010  0.4778727E+02  0.7816164E-02  0.1312668E+00
        -11   -1    0    0    0    0  0.00000000000E+00  0.00000000000E+00  0.45593999997E+02  0.45594000000E+02  0.51100000000E-03 0.  1.
         11   -1    0    0    0    0 -0.00000000000E+00 -0.00000000000E+00 -0.45593999997E+02  0.45594000000E+02  0.51100000000E-03 0. -1.
    9900012    2    1    2    0    0  0.32336595194E+02 -0.11900019247E+02  0.26388586231E+02  0.47787270397E+02  0.19999997048E+02 0.  0.
         12    1    1    2    0    0 -0.32336595194E+02  0.11900019247E+02 -0.26388586231E+02  0.43400729603E+02  0.00000000000E+00 0. -1.
         11    1    3    3    0    0  0.18663894099E+02 -0.33440486199E+01  0.85870122001E+01  0.20814907708E+02  0.51100000000E-03 0.  1.
        -11    1    3    3    0    0  0.97241237063E+01 -0.97191515905E+01  0.70310289238E+01  0.15442015979E+02  0.51100000000E-03 0. -1.
         12    1    3    3    0    0  0.39485773882E+01  0.11631809635E+01  0.10770545107E+02  0.11530346710E+02  0.00000000000E+00 0. -1.
</event>
<event>
 7    1  0.2653124E-010  0.4778727E+02  0.7816164E-02  0.1312668E+00
        -11   -1    0    0    0    0  0.00000000000E+00  0.00000000000E+00  0.45593999997E+02  0.45594000000E+02  0.51100000000E-03 0.  1.
         11   -1    0    0    0    0 -0.00000000000E+00 -0.00000000000E+00 -0.45593999997E+02  0.45594000000E+02  0.51100000000E-03 0. -1.
    9900012    2    1    2    0    0 -0.11556938995E+02  0.40560192383E+02  0.10243602706E+02  0.47787269113E+02  0.19999991194E+02 0.  0.
         12    1    1    2    0    0  0.11556938995E+02 -0.40560192383E+02 -0.10243602706E+02  0.43400730887E+02  0.00000000000E+00 0. -1.
         11    1    3    3    0    0  0.23510876959E+01  0.74908804419E+01  0.26823390183E+01  0.82967370706E+01  0.51100000000E-03 0. -1.
        -11    1    3    3    0    0  0.26507887335E+01  0.55590316688E+01 -0.10475827620E+01  0.62471548651E+01  0.51100000000E-03 0.  1.
        -12    1    3    3    0    0 -0.16558815425E+02  0.27510280273E+02  0.86088464501E+01  0.33243377177E+02  0.00000000000E+00 0.  1.
</event>
<event>
 7    1  0.2653124E-010  0.4778727E+02  0.7816164E-02  0.1312668E+00
        -11   -1    0    0    0    0  0.00000000000E+00  0.00000000000E+00  0.45593999997E+02  0.45594000000E+02  0.51100000000E-03 0.  1.
         11   -1    0    0    0    0 -0.00000000000E+00 -0.00000000000E+00 -0.45593999997E+02  0.45594000000E+02  0.51100000000E-03 0. -1.
    9900012    2    1    2    0    0  0.11693998835E+02 -0.29248112503E+01  0.41693155040E+02  0.47787270665E+02  0.19999998269E+02 0.  0.
         12    1    1    2    0    0 -0.11693998835E+02  0.29248112503E+01 -0.41693155040E+02  0.43400729335E+02  0.00000000000E+00 0. -1.
         11    1    3    3    0    0 -0.65567331582E+00 -0.16129715294E+01  0.23578150324E-01  0.17413043508E+01  0.51100000000E-03 0. -1.
        -11    1    3    3    0    0 -0.22783281994E+01 -0.89930428308E+00  0.18365934719E+02  0.18528547864E+02  0.51100000000E-03 0.  1.
        -12    1    3    3    0    0  0.14628000350E+02 -0.41253543780E+00  0.23303642171E+02  0.27517418450E+02  0.00000000000E+00 0.  1.
</event>
<event>
 7    1  0.2653124E-010  0.4778727E+02  0.7816164E-02  0.1312668E+00
        -11   -1    0    0    0    0  0.00000000000E+00  0.00000000000E+00  0.45593999997E+02  0.45594000000E+02  0.51100000000E-03 0.  1.
         11   -1    0    0    0    0 -0.00000000000E+00 -0.00000000000E+00 -0.45593999997E+02  0.45594000000E+02  0.51100000000E-03 0. -1.
    9900012    2    1    2    0    0 -0.35245281470E+02 -0.23778947867E+02 -0.87152119858E+01  0.47787272500E+02  0.20000006638E+02 0.  0.
         12    1    1    2    0    0  0.35245281470E+02  0.23778947867E+02  0.87152119858E+01  0.43400727500E+02  0.00000000000E+00 0. -1.
         11    1    3    3    0    0  0.63193237587E+00 -0.50532201839E+01  0.63883383716E+00  0.51324927362E+01  0.51100000000E-03 0. -1.
        -11    1    3    3    0    0 -0.85261317498E+01 -0.23992528126E+01 -0.58375116166E+01  0.10607915856E+02  0.51100000000E-03 0.  1.
        -12    1    3    3    0    0 -0.27351082096E+02 -0.16326474871E+02 -0.35165342064E+01  0.32046863908E+02  0.00000000000E+00 0.  1.
</event>
<event>
 7    1  0.2653124E-010  0.4778727E+02  0.7816164E-02  0.1312668E+00
        -11   -1    0    0    0    0  0.00000000000E+00  0.00000000000E+00  0.45593999997E+02  0.45594000000E+02  0.51100000000E-03 0. -1.
         11   -1    0    0    0    0 -0.00000000000E+00 -0.00000000000E+00 -0.45593999997E+02  0.45594000000E+02  0.51100000000E-03 0.  1.
    9900012    2    1    2    0    0  0.35522495504E+02 -0.24888369969E+02 -0.15312398599E+01  0.47787270259E+02  0.19999996417E+02 0.  0.
         12    1    1    2    0    0 -0.35522495504E+02  0.24888369969E+02  0.15312398599E+01  0.43400729741E+02  0.00000000000E+00 0. -1.
         11    1    3    3    0    0  0.33837459327E+01  0.22854580878E+01 -0.49546126797E+00  0.41132149637E+01  0.51100000000E-03 0. -1.
        -11    1    3    3    0    0  0.81482736796E+01 -0.37046728789E+01 -0.43458888442E+01  0.99501615668E+01  0.51100000000E-03 0.  1.
        -12    1    3    3    0    0  0.23990475892E+02 -0.23469155178E+02  0.33101102522E+01  0.33723893728E+02  0.00000000000E+00 0.  1.
</event>
<event>
 7    1  0.2653124E-010  0.4778727E+02  0.7816164E-02  0.1312668E+00
        -11   -1    0    0    0    0  0.00000000000E+00  0.00000000000E+00  0.45593999997E+02  0.45594000000E+02  0.51100000000E-03 0.  1.
         11   -1    0    0    0    0 -0.00000000000E+00 -0.00000000000E+00 -0.45593999997E+02  0.45594000000E+02  0.51100000000E-03 0. -1.
    9900012    2    1    2    0    0 -0.36874141029E+02 -0.54698339133E+01  0.22226155138E+02  0.47787270377E+02  0.19999996955E+02 0.  0.
         12    1    1    2    0    0  0.36874141029E+02  0.54698339133E+01 -0.22226155138E+02  0.43400729623E+02  0.00000000000E+00 0. -1.
         11    1    3    3    0    0 -0.44657986067E+01 -0.59265459006E+01  0.83253999302E+01  0.11152559696E+02  0.51100000000E-03 0. -1.
        -11    1    3    3    0    0 -0.40853279871E+01  0.35365838490E+01  0.23455747523E+01  0.58905900607E+01  0.51100000000E-03 0.  1.
        -12    1    3    3    0    0 -0.28323014435E+02 -0.30798718618E+01  0.11555180455E+02  0.30744120620E+02  0.00000000000E+00 0.  1.
</event>
<event>
 7    1  0.2653124E-010  0.4778727E+02  0.7816164E-02  0.1312668E+00
        -11   -1    0    0    0    0  0.00000000000E+00  0.00000000000E+00  0.45593999997E+02  0.45594000000E+02  0.51100000000E-03 0. -1.
         11   -1    0    0    0    0 -0.00000000000E+00 -0.00000000000E+00 -0.45593999997E+02  0.45594000000E+02  0.51100000000E-03 0.  1.
    9900012    2    1    2    0    0 -0.21546028746E+02 -0.10972331398E+02 -0.36041641889E+02  0.47787270040E+02  0.19999995420E+02 0.  0.
         12    1    1    2    0    0  0.21546028746E+02  0.10972331398E+02  0.36041641889E+02  0.43400729960E+02  0.00000000000E+00 0. -1.
         11    1    3    3    0    0 -0.15128123603E+01  0.21229083229E+01 -0.80930860023E+01  0.85025515163E+01  0.51100000000E-03 0. -1.
        -11    1    3    3    0    0  0.17661347644E+01  0.59705074687E+00 -0.19319121873E+01  0.26847693683E+01  0.51100000000E-03 0.  1.
        -12    1    3    3    0    0 -0.21799351150E+02 -0.13692290468E+02 -0.26016643699E+02  0.36599949155E+02  0.00000000000E+00 0.  1.
</event>
<event>
 7    1  0.2653124E-010  0.4778727E+02  0.7816164E-02  0.1312668E+00
        -11   -1    0    0    0    0  0.00000000000E+00  0.00000000000E+00  0.45593999997E+02  0.45594000000E+02  0.51100000000E-03 0.  1.
         11   -1    0    0    0    0 -0.00000000000E+00 -0.00000000000E+00 -0.45593999997E+02  0.45594000000E+02  0.51100000000E-03 0. -1.
    9900012    2    1    2    0    0 -0.19466606802E+02  0.12701382039E+01  0.38769332396E+02  0.47787272289E+02  0.20000005673E+02 0.  0.
         12    1    1    2    0    0  0.19466606802E+02 -0.12701382039E+01 -0.38769332396E+02  0.43400727711E+02  0.00000000000E+00 0. -1.
         11    1    3    3    0    0 -0.11989241298E+02  0.22790285477E+01  0.10177592613E+02  0.15890854907E+02  0.51100000000E-03 0. -1.
        -11    1    3    3    0    0  0.18379632936E+01  0.79780771442E+00  0.26313510837E+00  0.20208529299E+01  0.51100000000E-03 0.  1.
        -12    1    3    3    0    0 -0.93153287970E+01 -0.18066980582E+01  0.28328604675E+02  0.29875564452E+02  0.00000000000E+00 0.  1.
</event>
<event>
 7    1  0.2653124E-010  0.4778727E+02  0.7816164E-02  0.1312668E+00
        -11   -1    0    0    0    0  0.00000000000E+00  0.00000000000E+00  0.45593999997E+02  0.45594000000E+02  0.51100000000E-03 0.  1.
         11   -1    0    0    0    0 -0.00000000000E+00 -0.00000000000E+00 -0.45593999997E+02  0.45594000000E+02  0.51100000000E-03 0. -1.
    9900012    2    1    2    0    0  0.85756117601E+01  0.33647490598E+02  0.26037066066E+02  0.47787267864E+02  0.19999985498E+02 0.  0.
         12    1    1    2    0    0 -0.85756117601E+01 -0.33647490598E+02 -0.26037066066E+02  0.43400732136E+02  0.00000000000E+00 0. -1.
         11    1    3    3    0    0  0.16409789411E+01  0.10176212791E+02  0.72521200185E-01  0.10307927931E+02  0.51100000000E-03 0. -1.
        -11    1    3    3    0    0  0.87914368951E+01  0.11934594544E+02  0.10825863997E+02  0.18355468971E+02  0.51100000000E-03 0.  1.
        -12    1    3    3    0    0 -0.18568040761E+01  0.11536683264E+02  0.15138680869E+02  0.19123870962E+02  0.00000000000E+00 0.  1.
</event>
<event>
 7    1  0.2653124E-010  0.4778729E+02  0.7816164E-02  0.1312668E+00
        -11   -1    0    0    0    0  0.00000000000E+00  0.00000000000E+00  0.45593999997E+02  0.45594000000E+02  0.51100000000E-03 0.  1.
         11   -1    0    0    0    0 -0.00000000000E+00 -0.00000000000E+00 -0.45593999997E+02  0.45594000000E+02  0.51100000000E-03 0. -1.
    9900012    2    1    2    0    0 -0.15838603722E+02  0.24894675255E+02  0.31827904675E+02  0.47787288717E+02  0.20000080574E+02 0.  0.
         12    1    1    2    0    0  0.15838603722E+02 -0.24894675255E+02 -0.31827904675E+02  0.43400711283E+02  0.00000000000E+00 0. -1.
         11    1    3    3    0    0 -0.61886757762E+01  0.92520614094E+01  0.10263050915E+02  0.15140362034E+02  0.51100000000E-03 0. -1.
        -11    1    3    3    0    0 -0.45967398623E+01  0.17845850757E+02  0.13358014611E+02  0.22760513202E+02  0.51100000000E-03 0.  1.
         12    1    3    3    0    0 -0.50531880835E+01 -0.22032369112E+01  0.82068391485E+01  0.98864134803E+01  0.00000000000E+00 0. -1.
</event>
<event>
 7    1  0.2653124E-010  0.4778727E+02  0.7816164E-02  0.1312668E+00
        -11   -1    0    0    0    0  0.00000000000E+00  0.00000000000E+00  0.45593999997E+02  0.45594000000E+02  0.51100000000E-03 0.  1.
         11   -1    0    0    0    0 -0.00000000000E+00 -0.00000000000E+00 -0.45593999997E+02  0.45594000000E+02  0.51100000000E-03 0. -1.
    9900012    2    1    2    0    0  0.38317323228E+02 -0.17560627847E+02  0.10345552947E+02  0.47787269873E+02  0.19999994660E+02 0.  0.
         12    1    1    2    0    0 -0.38317323228E+02  0.17560627847E+02 -0.10345552947E+02  0.43400730127E+02  0.00000000000E+00 0. -1.
         11    1    3    3    0    0  0.35826250709E+01 -0.10010152781E+01 -0.35267916592E+01  0.51259627051E+01  0.51100000000E-03 0. -1.
        -11    1    3    3    0    0  0.19909239633E+02 -0.35955114065E+01  0.39676345020E+01  0.20616683749E+02  0.51100000000E-03 0.  1.
        -12    1    3    3    0    0  0.14825458525E+02 -0.12964101163E+02  0.99047101037E+01  0.22044623419E+02  0.00000000000E+00 0.  1.
</event>
<event>
 7    1  0.2653124E-010  0.4778727E+02  0.7816164E-02  0.1312668E+00
        -11   -1    0    0    0    0  0.00000000000E+00  0.00000000000E+00  0.45593999997E+02  0.45594000000E+02  0.51100000000E-03 0.  1.
         11   -1    0    0    0    0 -0.00000000000E+00 -0.00000000000E+00 -0.45593999997E+02  0.45594000000E+02  0.51100000000E-03 0. -1.
    9900012    2    1    2    0    0  0.19330438070E+02  0.17829060504E+02  0.34526545115E+02  0.47787267840E+02  0.19999985389E+02 0.  0.
         12    1    1    2    0    0 -0.19330438070E+02 -0.17829060504E+02 -0.34526545115E+02  0.43400732160E+02  0.00000000000E+00 0. -1.
         11    1    3    3    0    0  0.76528957680E+01  0.94433069322E+01  0.90802613236E+01  0.15172145709E+02  0.51100000000E-03 0. -1.
        -11    1    3    3    0    0  0.10203444205E+02  0.11637154696E+02  0.24400846960E+02  0.28895241403E+02  0.51100000000E-03 0.  1.
         12    1    3    3    0    0  0.14740980967E+01 -0.32514011235E+01  0.10454368312E+01  0.37198807283E+01  0.00000000000E+00 0. -1.
</event>
<event>
 7    1  0.2653124E-010  0.4778727E+02  0.7816164E-02  0.1312668E+00
        -11   -1    0    0    0    0  0.00000000000E+00  0.00000000000E+00  0.45593999997E+02  0.45594000000E+02  0.51100000000E-03 0.  1.
         11   -1    0    0    0    0 -0.00000000000E+00 -0.00000000000E+00 -0.45593999997E+02  0.45594000000E+02  0.51100000000E-03 0. -1.
    9900012    2    1    2    0    0  0.67869773326E+01  0.42850341365E+02  0.11867714190E+01  0.47787271402E+02  0.20000001632E+02 0.  0.
         12    1    1    2    0    0 -0.67869773326E+01 -0.42850341365E+02 -0.11867714190E+01  0.43400728598E+02  0.00000000000E+00 0. -1.
         11    1    3    3    0    0 -0.39142681335E+01  0.88185700816E+01  0.24805496213E+01  0.99620178674E+01  0.51100000000E-03 0. -1.
        -11    1    3    3    0    0 -0.14444506935E+00  0.19540095903E+02  0.10748578530E+01  0.19570169441E+02  0.51100000000E-03 0.  1.
         12    1    3    3    0    0  0.10845690535E+02  0.14491675381E+02 -0.23686360553E+01  0.18255084094E+02  0.00000000000E+00 0. -1.
</event>
<event>
 7    1  0.2653124E-010  0.4778727E+02  0.7816164E-02  0.1312668E+00
        -11   -1    0    0    0    0  0.00000000000E+00  0.00000000000E+00  0.45593999997E+02  0.45594000000E+02  0.51100000000E-03 0.  1.
         11   -1    0    0    0    0 -0.00000000000E+00 -0.00000000000E+00 -0.45593999997E+02  0.45594000000E+02  0.51100000000E-03 0. -1.
    9900012    2    1    2    0    0 -0.92926271962E+01  0.12160198209E+02  0.40612805956E+02  0.47787270187E+02  0.19999996090E+02 0.  0.
         12    1    1    2    0    0  0.92926271962E+01 -0.12160198209E+02 -0.40612805956E+02  0.43400729813E+02  0.00000000000E+00 0. -1.
         11    1    3    3    0    0  0.34498953395E+01 -0.89324816188E+00  0.19647667956E+01  0.40693954040E+01  0.51100000000E-03 0. -1.
        -11    1    3    3    0    0  0.10570913380E+01  0.30758153028E+01  0.44188790716E+01  0.54867635619E+01  0.51100000000E-03 0.  1.
        -12    1    3    3    0    0 -0.13799613874E+02  0.99776310682E+01  0.34229160089E+02  0.38231111221E+02  0.00000000000E+00 0.  1.
</event>
<event>
 7    1  0.2653124E-010  0.4778727E+02  0.7816164E-02  0.1312668E+00
        -11   -1    0    0    0    0  0.00000000000E+00  0.00000000000E+00  0.45593999997E+02  0.45594000000E+02  0.51100000000E-03 0. -1.
         11   -1    0    0    0    0 -0.00000000000E+00 -0.00000000000E+00 -0.45593999997E+02  0.45594000000E+02  0.51100000000E-03 0.  1.
    9900012    2    1    2    0    0 -0.93864671745E+01 -0.37541340080E+02 -0.19651092140E+02  0.47787269553E+02  0.19999993199E+02 0.  0.
         12    1    1    2    0    0  0.93864671745E+01  0.37541340080E+02  0.19651092140E+02  0.43400730447E+02  0.00000000000E+00 0. -1.
         11    1    3    3    0    0  0.65563308882E+00 -0.30324923674E+02 -0.11466152514E+02  0.32426894768E+02  0.51100000000E-03 0.  1.
        -11    1    3    3    0    0 -0.29986819220E+00 -0.19084794324E+00 -0.16472730323E+01  0.16851862135E+01  0.51100000000E-03 0. -1.
        -12    1    3    3    0    0 -0.97422320711E+01 -0.70255684631E+01 -0.65376665941E+01  0.13675188571E+02  0.00000000000E+00 0.  1.
</event>
<event>
 7    1  0.2653124E-010  0.4778727E+02  0.7816164E-02  0.1312668E+00
        -11   -1    0    0    0    0  0.00000000000E+00  0.00000000000E+00  0.45593999997E+02  0.45594000000E+02  0.51100000000E-03 0. -1.
         11   -1    0    0    0    0 -0.00000000000E+00 -0.00000000000E+00 -0.45593999997E+02  0.45594000000E+02  0.51100000000E-03 0.  1.
    9900012    2    1    2    0    0  0.47796455791E+01 -0.18473124902E+02 -0.38981050191E+02  0.47787266947E+02  0.19999981319E+02 0.  0.
         12    1    1    2    0    0 -0.47796455791E+01  0.18473124902E+02  0.38981050191E+02  0.43400733053E+02  0.00000000000E+00 0. -1.
         11    1    3    3    0    0 -0.26878646501E+01 -0.41805239079E+01 -0.12850337865E+02  0.13777974453E+02  0.51100000000E-03 0.  1.
        -11    1    3    3    0    0  0.13817743306E+01 -0.20592129415E+01 -0.17873121758E+02  0.18044338167E+02  0.51100000000E-03 0. -1.
         12    1    3    3    0    0  0.60857358986E+01 -0.12233388053E+02 -0.82575905680E+01  0.15964954327E+02  0.00000000000E+00 0. -1.
</event>
<event>
 7    1  0.2653124E-010  0.4778728E+02  0.7816164E-02  0.1312668E+00
        -11   -1    0    0    0    0  0.00000000000E+00  0.00000000000E+00  0.45593999997E+02  0.45594000000E+02  0.51100000000E-03 0. -1.
         11   -1    0    0    0    0 -0.00000000000E+00 -0.00000000000E+00 -0.45593999997E+02  0.45594000000E+02  0.51100000000E-03 0.  1.
    9900012    2    1    2    0    0 -0.15748108348E+02  0.25441353390E+01 -0.40362694143E+02  0.47787278581E+02  0.20000034363E+02 0.  0.
         12    1    1    2    0    0  0.15748108348E+02 -0.25441353390E+01  0.40362694143E+02  0.43400721419E+02  0.00000000000E+00 0. -1.
         11    1    3    3    0    0 -0.38461127871E+01 -0.15868698786E+01 -0.22399475584E+02  0.22782608417E+02  0.51100000000E-03 0. -1.
        -11    1    3    3    0    0 -0.50358745828E+01  0.37953896095E+01 -0.16913326292E+02  0.18050640477E+02  0.51100000000E-03 0.  1.
         12    1    3    3    0    0 -0.68661209780E+01  0.33561560814E+00 -0.10498922674E+01  0.69540296875E+01  0.00000000000E+00 0. -1.
</event>
<event>
 7    1  0.2653124E-010  0.4778727E+02  0.7816164E-02  0.1312668E+00
        -11   -1    0    0    0    0  0.00000000000E+00  0.00000000000E+00  0.45593999997E+02  0.45594000000E+02  0.51100000000E-03 0.  1.
         11   -1    0    0    0    0 -0.00000000000E+00 -0.00000000000E+00 -0.45593999997E+02  0.45594000000E+02  0.51100000000E-03 0. -1.
    9900012    2    1    2    0    0  0.15964215969E+02 -0.14702113766E+02  0.37584770063E+02  0.47787270958E+02  0.19999999605E+02 0.  0.
         12    1    1    2    0    0 -0.15964215969E+02  0.14702113766E+02 -0.37584770063E+02  0.43400729042E+02  0.00000000000E+00 0. -1.
         11    1    3    3    0    0 -0.88584215093E+00 -0.19918905684E+01 -0.66931519675E+00  0.22804226465E+01  0.51100000000E-03 0. -1.
        -11    1    3    3    0    0  0.53560152233E+00 -0.51315198905E+01  0.31042004119E+01  0.60212478637E+01  0.51100000000E-03 0.  1.
        -12    1    3    3    0    0  0.16314456598E+02 -0.75787033075E+01  0.35149884848E+02  0.39485600448E+02  0.00000000000E+00 0.  1.
</event>
<event>
 7    1  0.2653124E-010  0.4778732E+02  0.7816164E-02  0.1312668E+00
        -11   -1    0    0    0    0  0.00000000000E+00  0.00000000000E+00  0.45593999997E+02  0.45594000000E+02  0.51100000000E-03 0. -1.
         11   -1    0    0    0    0 -0.00000000000E+00 -0.00000000000E+00 -0.45593999997E+02  0.45594000000E+02  0.51100000000E-03 0.  1.
    9900012    2    1    2    0    0 -0.23682851343E+02  0.29029977536E+02 -0.21908939884E+02  0.47787323849E+02  0.20000240758E+02 0.  0.
         12    1    1    2    0    0  0.23682851343E+02 -0.29029977536E+02  0.21908939884E+02  0.43400676151E+02  0.00000000000E+00 0. -1.
         11    1    3    3    0    0 -0.43788180763E+01 -0.18525529262E+01  0.73493767530E+00  0.48110428950E+01  0.51100000000E-03 0. -1.
        -11    1    3    3    0    0 -0.11757779519E+02  0.16189314658E+02 -0.12533510371E+02  0.23609916789E+02  0.51100000000E-03 0.  1.
        -12    1    3    3    0    0 -0.75462537477E+01  0.14693215804E+02 -0.10110367189E+02  0.19366364165E+02  0.00000000000E+00 0.  1.
</event>
<event>
 7    1  0.2653124E-010  0.4778727E+02  0.7816164E-02  0.1312668E+00
        -11   -1    0    0    0    0  0.00000000000E+00  0.00000000000E+00  0.45593999997E+02  0.45594000000E+02  0.51100000000E-03 0. -1.
         11   -1    0    0    0    0 -0.00000000000E+00 -0.00000000000E+00 -0.45593999997E+02  0.45594000000E+02  0.51100000000E-03 0.  1.
    9900012    2    1    2    0    0 -0.19601976094E+02 -0.14604795390E+02 -0.35862035954E+02  0.47787272611E+02  0.20000007142E+02 0.  0.
         12    1    1    2    0    0  0.19601976094E+02  0.14604795390E+02  0.35862035954E+02  0.43400727389E+02  0.00000000000E+00 0. -1.
         11    1    3    3    0    0 -0.17390327061E+02 -0.40277206699E+01 -0.17952586266E+02  0.25316819765E+02  0.51100000000E-03 0. -1.
        -11    1    3    3    0    0 -0.39015536386E+01 -0.24738682463E+01 -0.10027637658E+02  0.11040636854E+02  0.51100000000E-03 0.  1.
        -12    1    3    3    0    0  0.16899046060E+01 -0.81032064736E+01 -0.78818120300E+01  0.11429815992E+02  0.00000000000E+00 0.  1.
</event>
<event>
 7    1  0.3308536E-010  0.4778726E+02  0.7816164E-02  0.1312668E+00
        -11   -1    0    0    0    0  0.00000000000E+00  0.00000000000E+00  0.45593999997E+02  0.45594000000E+02  0.51100000000E-03 0. -1.
         11   -1    0    0    0    0 -0.00000000000E+00 -0.00000000000E+00 -0.45593999997E+02  0.45594000000E+02  0.51100000000E-03 0.  1.
    9900012    2    1    2    0    0 -0.84003732930E+01  0.36575320592E+02 -0.21801456024E+02  0.47787264607E+02  0.19999970649E+02 0.  0.
         12    1    1    2    0    0  0.84003732930E+01 -0.36575320592E+02  0.21801456024E+02  0.43400735393E+02  0.00000000000E+00 0. -1.
         11    1    3    3    0    0  0.30629028098E+01  0.44181075591E+00 -0.23487938790E+01  0.38850229489E+01  0.51100000000E-03 0. -1.
        -11    1    3    3    0    0 -0.36690239524E+01  0.13571656008E+02 -0.13064498412E+02  0.19191995795E+02  0.51100000000E-03 0.  1.
         12    1    3    3    0    0 -0.77942521504E+01  0.22561853828E+02 -0.63881637330E+01  0.24710245863E+02  0.00000000000E+00 0. -1.
</event>
<event>
 7    1  0.2653124E-010  0.4778727E+02  0.7816164E-02  0.1312668E+00
        -11   -1    0    0    0    0  0.00000000000E+00  0.00000000000E+00  0.45593999997E+02  0.45594000000E+02  0.51100000000E-03 0.  1.
         11   -1    0    0    0    0 -0.00000000000E+00 -0.00000000000E+00 -0.45593999997E+02  0.45594000000E+02  0.51100000000E-03 0. -1.
    9900012    2    1    2    0    0  0.24855668056E+01 -0.15894102877E+02  0.40309088890E+02  0.47787271945E+02  0.20000004105E+02 0.  0.
         12    1    1    2    0    0 -0.24855668056E+01  0.15894102877E+02 -0.40309088890E+02  0.43400728055E+02  0.00000000000E+00 0. -1.
         11    1    3    3    0    0 -0.26074906255E+01  0.21648762009E+01  0.24083457029E+01  0.41576225915E+01  0.51100000000E-03 0. -1.
        -11    1    3    3    0    0 -0.30273971823E+01 -0.82911092171E+01  0.17444120056E+02  0.19550062673E+02  0.51100000000E-03 0.  1.
        -12    1    3    3    0    0  0.81204546134E+01 -0.97678698606E+01  0.20456623131E+02  0.24079586680E+02  0.00000000000E+00 0.  1.
</event>
<event>
 7    1  0.2653124E-010  0.4778727E+02  0.7816164E-02  0.1312668E+00
        -11   -1    0    0    0    0  0.00000000000E+00  0.00000000000E+00  0.45593999997E+02  0.45594000000E+02  0.51100000000E-03 0.  1.
         11   -1    0    0    0    0 -0.00000000000E+00 -0.00000000000E+00 -0.45593999997E+02  0.45594000000E+02  0.51100000000E-03 0. -1.
    9900012    2    1    2    0    0 -0.91966751644E+01 -0.41487433888E+02  0.88225360258E+01  0.47787272510E+02  0.20000006683E+02 0.  0.
         12    1    1    2    0    0  0.91966751644E+01  0.41487433888E+02 -0.88225360258E+01  0.43400727490E+02  0.00000000000E+00 0. -1.
         11    1    3    3    0    0 -0.17767319948E+01 -0.19754474434E+01  0.23294068840E+01  0.35334552318E+01  0.51100000000E-03 0. -1.
        -11    1    3    3    0    0  0.54597778395E+01 -0.16462025707E+02  0.33317697921E+01  0.17660921682E+02  0.51100000000E-03 0.  1.
         12    1    3    3    0    0 -0.12879721009E+02 -0.23049960738E+02  0.31613593497E+01  0.26592895597E+02  0.00000000000E+00 0. -1.
</event>
<event>
 7    1  0.2653124E-010  0.4778727E+02  0.7816164E-02  0.1312668E+00
        -11   -1    0    0    0    0  0.00000000000E+00  0.00000000000E+00  0.45593999997E+02  0.45594000000E+02  0.51100000000E-03 0.  1.
         11   -1    0    0    0    0 -0.00000000000E+00 -0.00000000000E+00 -0.45593999997E+02  0.45594000000E+02  0.51100000000E-03 0. -1.
    9900012    2    1    2    0    0  0.35417258791E+02  0.13564240444E+02 -0.21101004637E+02  0.47787271483E+02  0.20000001999E+02 0.  0.
         12    1    1    2    0    0 -0.35417258791E+02 -0.13564240444E+02  0.21101004637E+02  0.43400728517E+02  0.00000000000E+00 0. -1.
         11    1    3    3    0    0  0.48419234369E+01 -0.24285664735E+01 -0.25546683713E+01  0.59890306756E+01  0.51100000000E-03 0. -1.
        -11    1    3    3    0    0  0.26982375965E+02  0.74157349029E+01 -0.12121751850E+02  0.30495550577E+02  0.51100000000E-03 0.  1.
        -12    1    3    3    0    0  0.35929593899E+01  0.85770720144E+01 -0.64245844158E+01  0.11302690230E+02  0.00000000000E+00 0.  1.
</event>
<event>
 7    1  0.2653124E-010  0.4778727E+02  0.7816164E-02  0.1312668E+00
        -11   -1    0    0    0    0  0.00000000000E+00  0.00000000000E+00  0.45593999997E+02  0.45594000000E+02  0.51100000000E-03 0. -1.
         11   -1    0    0    0    0 -0.00000000000E+00 -0.00000000000E+00 -0.45593999997E+02  0.45594000000E+02  0.51100000000E-03 0.  1.
    9900012    2    1    2    0    0  0.26908652590E+02 -0.63484608699E-02 -0.34052131030E+02  0.47787271294E+02  0.20000001138E+02 0.  0.
         12    1    1    2    0    0 -0.26908652590E+02  0.63484608699E-02  0.34052131030E+02  0.43400728706E+02  0.00000000000E+00 0. -1.
         11    1    3    3    0    0  0.78547346392E+01 -0.22918832614E+01 -0.58071671539E+01  0.10033582399E+02  0.51100000000E-03 0. -1.
        -11    1    3    3    0    0  0.21652159772E+02  0.36073440801E+01 -0.23283691206E+02  0.31999362971E+02  0.51100000000E-03 0.  1.
         12    1    3    3    0    0 -0.25982418213E+01 -0.13218092796E+01 -0.49612726702E+01  0.57543259242E+01  0.00000000000E+00 0. -1.
</event>
<event>
 7    1  0.2653124E-010  0.4778732E+02  0.7816164E-02  0.1312668E+00
        -11   -1    0    0    0    0  0.00000000000E+00  0.00000000000E+00  0.45593999997E+02  0.45594000000E+02  0.51100000000E-03 0.  1.
         11   -1    0    0    0    0 -0.00000000000E+00 -0.00000000000E+00 -0.45593999997E+02  0.45594000000E+02  0.51100000000E-03 0. -1.
    9900012    2    1    2    0    0 -0.18579725211E+02  0.58992667314E+01  0.38776428102E+02  0.47787321281E+02  0.20000229049E+02 0.  0.
         12    1    1    2    0    0  0.18579725211E+02 -0.58992667314E+01 -0.38776428102E+02  0.43400678719E+02  0.00000000000E+00 0. -1.
         11    1    3    3    0    0 -0.79065521827E+00  0.13520599419E+01  0.24201621089E+01  0.28827741249E+01  0.51100000000E-03 0. -1.
        -11    1    3    3    0    0 -0.19329437227E+02  0.64181296558E+01  0.20620203875E+02  0.28982966375E+02  0.51100000000E-03 0.  1.
        -12    1    3    3    0    0  0.15403672345E+01 -0.18709228664E+01  0.15736062119E+02  0.15921580782E+02  0.00000000000E+00 0.  1.
</event>
<event>
 7    1  0.2653124E-010  0.4778727E+02  0.7816164E-02  0.1312668E+00
        -11   -1    0    0    0    0  0.00000000000E+00  0.00000000000E+00  0.45593999997E+02  0.45594000000E+02  0.51100000000E-03 0.  1.
         11   -1    0    0    0    0 -0.00000000000E+00 -0.00000000000E+00 -0.45593999997E+02  0.45594000000E+02  0.51100000000E-03 0. -1.
    9900012    2    1    2    0    0 -0.44724603729E+01 -0.61245507030E+01  0.42733013774E+02  0.47787268562E+02  0.19999988683E+02 0.  0.
         12    1    1    2    0    0  0.44724603729E+01  0.61245507030E+01 -0.42733013774E+02  0.43400731438E+02  0.00000000000E+00 0. -1.
         11    1    3    3    0    0 -0.18875821853E+01 -0.50957354512E+01  0.17587633057E+02  0.18407996173E+02  0.51100000000E-03 0. -1.
        -11    1    3    3    0    0  0.19297422189E+01  0.22918587301E+01  0.23280940772E+02  0.23472936010E+02  0.51100000000E-03 0.  1.
         12    1    3    3    0    0 -0.45146204066E+01 -0.33206739819E+01  0.18644399452E+01  0.59063363787E+01  0.00000000000E+00 0. -1.
</event>
<event>
 7    1  0.2653124E-010  0.4778727E+02  0.7816164E-02  0.1312668E+00
        -11   -1    0    0    0    0  0.00000000000E+00  0.00000000000E+00  0.45593999997E+02  0.45594000000E+02  0.51100000000E-03 0.  1.
         11   -1    0    0    0    0 -0.00000000000E+00 -0.00000000000E+00 -0.45593999997E+02  0.45594000000E+02  0.51100000000E-03 0. -1.
    9900012    2    1    2    0    0  0.34853705083E+02 -0.96353722867E+01  0.24000043629E+02  0.47787271305E+02  0.20000001186E+02 0.  0.
         12    1    1    2    0    0 -0.34853705083E+02  0.96353722867E+01 -0.24000043629E+02  0.43400728695E+02  0.00000000000E+00 0. -1.
         11    1    3    3    0    0  0.32796444782E+01 -0.30583114957E+01  0.34839889800E+01  0.56786896888E+01  0.51100000000E-03 0. -1.
        -11    1    3    3    0    0  0.33168701340E+02 -0.55563175990E+01  0.16063621305E+02  0.37270301092E+02  0.51100000000E-03 0.  1.
        -12    1    3    3    0    0 -0.15946407351E+01 -0.10207431920E+01  0.44524333444E+01  0.48382805235E+01  0.00000000000E+00 0.  1.
</event>
<event>
 7    1  0.2653124E-010  0.4778727E+02  0.7816164E-02  0.1312668E+00
        -11   -1    0    0    0    0  0.00000000000E+00  0.00000000000E+00  0.45593999997E+02  0.45594000000E+02  0.51100000000E-03 0. -1.
         11   -1    0    0    0    0 -0.00000000000E+00 -0.00000000000E+00 -0.45593999997E+02  0.45594000000E+02  0.51100000000E-03 0.  1.
    9900012    2    1    2    0    0 -0.38729195848E+02 -0.44872365185E+01 -0.19066662132E+02  0.47787268353E+02  0.19999987728E+02 0.  0.
         12    1    1    2    0    0  0.38729195848E+02  0.44872365185E+01  0.19066662132E+02  0.43400731647E+02  0.00000000000E+00 0. -1.
         11    1    3    3    0    0 -0.42717042818E+01  0.23195223686E+01  0.12193448222E+01  0.50114312872E+01  0.51100000000E-03 0. -1.
        -11    1    3    3    0    0 -0.33704187991E+01 -0.35170785409E+00 -0.80771734325E+01  0.87592323988E+01  0.51100000000E-03 0.  1.
        -12    1    3    3    0    0 -0.31087072767E+02 -0.64550510330E+01 -0.12208833522E+02  0.34016604667E+02  0.00000000000E+00 0.  1.
</event>
<event>
 7    1  0.2653124E-010  0.4778727E+02  0.7816164E-02  0.1312668E+00
        -11   -1    0    0    0    0  0.00000000000E+00  0.00000000000E+00  0.45593999997E+02  0.45594000000E+02  0.51100000000E-03 0.  1.
         11   -1    0    0    0    0 -0.00000000000E+00 -0.00000000000E+00 -0.45593999997E+02  0.45594000000E+02  0.51100000000E-03 0. -1.
    9900012    2    1    2    0    0 -0.44279753170E+01  0.85280115368E+01  0.42323624021E+02  0.47787273088E+02  0.20000009318E+02 0.  0.
         12    1    1    2    0    0  0.44279753170E+01 -0.85280115368E+01 -0.42323624021E+02  0.43400726912E+02  0.00000000000E+00 0. -1.
         11    1    3    3    0    0 -0.42382780632E+01  0.33816821718E+00  0.34156656479E+01  0.54538179988E+01  0.51100000000E-03 0. -1.
        -11    1    3    3    0    0 -0.61170627394E+01  0.24991122925E+01  0.81256251116E+01  0.10473289957E+02  0.51100000000E-03 0.  1.
         12    1    3    3    0    0  0.59273654857E+01  0.56907310272E+01  0.30782333262E+02  0.31860165132E+02  0.00000000000E+00 0. -1.
</event>
<event>
 7    1  0.2653124E-010  0.4778727E+02  0.7816164E-02  0.1312668E+00
        -11   -1    0    0    0    0  0.00000000000E+00  0.00000000000E+00  0.45593999997E+02  0.45594000000E+02  0.51100000000E-03 0. -1.
         11   -1    0    0    0    0 -0.00000000000E+00 -0.00000000000E+00 -0.45593999997E+02  0.45594000000E+02  0.51100000000E-03 0.  1.
    9900012    2    1    2    0    0  0.24445070706E+02 -0.19009428998E+02 -0.30408938076E+02  0.47787269734E+02  0.19999994027E+02 0.  0.
         12    1    1    2    0    0 -0.24445070706E+02  0.19009428998E+02  0.30408938076E+02  0.43400730266E+02  0.00000000000E+00 0. -1.
         11    1    3    3    0    0  0.48601329444E+00  0.18227815577E+00 -0.62834009806E+01  0.63048047069E+01  0.51100000000E-03 0. -1.
        -11    1    3    3    0    0  0.18794591914E+02 -0.91058892530E+01 -0.21244755943E+02  0.29790830127E+02  0.51100000000E-03 0.  1.
         12    1    3    3    0    0  0.51644654970E+01 -0.10085817901E+02 -0.28807811532E+01  0.11691634901E+02  0.00000000000E+00 0. -1.
</event>
<event>
 7    1  0.2653124E-010  0.4778726E+02  0.7816164E-02  0.1312668E+00
        -11   -1    0    0    0    0  0.00000000000E+00  0.00000000000E+00  0.45593999997E+02  0.45594000000E+02  0.51100000000E-03 0.  1.
         11   -1    0    0    0    0 -0.00000000000E+00 -0.00000000000E+00 -0.45593999997E+02  0.45594000000E+02  0.51100000000E-03 0. -1.
    9900012    2    1    2    0    0  0.36940491517E+02  0.16320513255E+02  0.15895441481E+02  0.47787261224E+02  0.19999955227E+02 0.  0.
         12    1    1    2    0    0 -0.36940491517E+02 -0.16320513255E+02 -0.15895441481E+02  0.43400738776E+02  0.00000000000E+00 0. -1.
         11    1    3    3    0    0  0.14193064234E-01 -0.18680127744E+00  0.31583181554E+00  0.36721404814E+00  0.51100000000E-03 0. -1.
        -11    1    3    3    0    0  0.30933698314E+02  0.14497943601E+02  0.20111367544E+02  0.39642794613E+02  0.51100000000E-03 0.  1.
        -12    1    3    3    0    0  0.59926001388E+01  0.20093709315E+01 -0.45317578783E+01  0.77772525632E+01  0.00000000000E+00 0.  1.
</event>
<event>
 7    1  0.2653124E-010  0.4778728E+02  0.7816164E-02  0.1312668E+00
        -11   -1    0    0    0    0  0.00000000000E+00  0.00000000000E+00  0.45593999997E+02  0.45594000000E+02  0.51100000000E-03 0.  1.
         11   -1    0    0    0    0 -0.00000000000E+00 -0.00000000000E+00 -0.45593999997E+02  0.45594000000E+02  0.51100000000E-03 0. -1.
    9900012    2    1    2    0    0  0.40965782976E+02 -0.13045275021E+01 -0.14273243756E+02  0.47787278184E+02  0.20000032553E+02 0.  0.
         12    1    1    2    0    0 -0.40965782976E+02  0.13045275021E+01  0.14273243756E+02  0.43400721816E+02  0.00000000000E+00 0. -1.
         11    1    3    3    0    0  0.24500967936E+02  0.70454487432E+01 -0.95963223515E+01  0.27240139146E+02  0.51100000000E-03 0. -1.
        -11    1    3    3    0    0  0.82305440353E+01 -0.13617475026E+01  0.90254008115E+00  0.83911137661E+01  0.51100000000E-03 0.  1.
        -12    1    3    3    0    0  0.82342710045E+01 -0.69882287427E+01 -0.55794614856E+01  0.12156025272E+02  0.00000000000E+00 0.  1.
</event>
<event>
 7    1  0.2653124E-010  0.4778727E+02  0.7816164E-02  0.1312668E+00
        -11   -1    0    0    0    0  0.00000000000E+00  0.00000000000E+00  0.45593999997E+02  0.45594000000E+02  0.51100000000E-03 0.  1.
         11   -1    0    0    0    0 -0.00000000000E+00 -0.00000000000E+00 -0.45593999997E+02  0.45594000000E+02  0.51100000000E-03 0. -1.
    9900012    2    1    2    0    0 -0.28541363777E+02  0.10367223307E+02  0.31008621280E+02  0.47787270063E+02  0.19999995524E+02 0.  0.
         12    1    1    2    0    0  0.28541363777E+02 -0.10367223307E+02 -0.31008621280E+02  0.43400729937E+02  0.00000000000E+00 0. -1.
         11    1    3    3    0    0 -0.14266995181E+02  0.65213645108E+01  0.21199563235E+02  0.26372273853E+02  0.51100000000E-03 0. -1.
        -11    1    3    3    0    0 -0.11353751728E+02  0.69623498398E+01  0.10660840995E+02  0.17059763321E+02  0.51100000000E-03 0.  1.
         12    1    3    3    0    0 -0.29206168691E+01 -0.31164910432E+01 -0.85178294997E+00  0.43552328884E+01  0.00000000000E+00 0. -1.
</event>
<event>
 7    1  0.2653124E-010  0.4778727E+02  0.7816164E-02  0.1312668E+00
        -11   -1    0    0    0    0  0.00000000000E+00  0.00000000000E+00  0.45593999997E+02  0.45594000000E+02  0.51100000000E-03 0.  1.
         11   -1    0    0    0    0 -0.00000000000E+00 -0.00000000000E+00 -0.45593999997E+02  0.45594000000E+02  0.51100000000E-03 0. -1.
    9900012    2    1    2    0    0 -0.16251871218E+02 -0.16924530239E+02  0.36511099298E+02  0.47787269432E+02  0.19999992648E+02 0.  0.
         12    1    1    2    0    0  0.16251871218E+02  0.16924530239E+02 -0.36511099298E+02  0.43400730568E+02  0.00000000000E+00 0. -1.
         11    1    3    3    0    0 -0.55434969015E+01 -0.65797428206E-01  0.55062107000E+01  0.78136447150E+01  0.51100000000E-03 0. -1.
        -11    1    3    3    0    0 -0.11080903950E+02 -0.16250606370E+02  0.17136573473E+02  0.26086985077E+02  0.51100000000E-03 0.  1.
        -12    1    3    3    0    0  0.37252963291E+00 -0.60812644028E+00  0.13868315124E+02  0.13886639640E+02  0.00000000000E+00 0.  1.
</event>
<event>
 7    1  0.2653124E-010  0.4778727E+02  0.7816164E-02  0.1312668E+00
        -11   -1    0    0    0    0  0.00000000000E+00  0.00000000000E+00  0.45593999997E+02  0.45594000000E+02  0.51100000000E-03 0.  1.
         11   -1    0    0    0    0 -0.00000000000E+00 -0.00000000000E+00 -0.45593999997E+02  0.45594000000E+02  0.51100000000E-03 0. -1.
    9900012    2    1    2    0    0  0.29337673100E+02  0.22925955818E+01  0.31900919166E+02  0.47787266123E+02  0.19999977563E+02 0.  0.
         12    1    1    2    0    0 -0.29337673100E+02 -0.22925955818E+01 -0.31900919166E+02  0.43400733877E+02  0.00000000000E+00 0. -1.
         11    1    3    3    0    0  0.27590926493E+01 -0.47072986349E+01  0.18254469999E+01  0.57535649554E+01  0.51100000000E-03 0. -1.
        -11    1    3    3    0    0  0.74965568251E+01  0.48151715394E+00  0.25927532866E+01  0.79468605667E+01  0.51100000000E-03 0.  1.
        -12    1    3    3    0    0  0.19082023625E+02  0.65183770628E+01  0.27482718879E+02  0.34086840601E+02  0.00000000000E+00 0.  1.
</event>
<event>
 7    1  0.2653124E-010  0.4778727E+02  0.7816164E-02  0.1312668E+00
        -11   -1    0    0    0    0  0.00000000000E+00  0.00000000000E+00  0.45593999997E+02  0.45594000000E+02  0.51100000000E-03 0.  1.
         11   -1    0    0    0    0 -0.00000000000E+00 -0.00000000000E+00 -0.45593999997E+02  0.45594000000E+02  0.51100000000E-03 0. -1.
    9900012    2    1    2    0    0  0.35266884596E+02  0.13154019667E+02 -0.21606527079E+02  0.47787269650E+02  0.19999993642E+02 0.  0.
         12    1    1    2    0    0 -0.35266884596E+02 -0.13154019667E+02  0.21606527079E+02  0.43400730350E+02  0.00000000000E+00 0. -1.
         11    1    3    3    0    0  0.10140581204E+02  0.27867483980E+01  0.13536499629E+01  0.10603288276E+02  0.51100000000E-03 0. -1.
        -11    1    3    3    0    0  0.44248125151E+01  0.58439304037E+01 -0.25442041416E+01  0.77590890788E+01  0.51100000000E-03 0.  1.
         12    1    3    3    0    0  0.20701490877E+02  0.45233408649E+01 -0.20415972900E+02  0.29424892295E+02  0.00000000000E+00 0. -1.
</event>
<event>
 7    1  0.2653124E-010  0.4778727E+02  0.7816164E-02  0.1312668E+00
        -11   -1    0    0    0    0  0.00000000000E+00  0.00000000000E+00  0.45593999997E+02  0.45594000000E+02  0.51100000000E-03 0.  1.
         11   -1    0    0    0    0 -0.00000000000E+00 -0.00000000000E+00 -0.45593999997E+02  0.45594000000E+02  0.51100000000E-03 0. -1.
    9900012    2    1    2    0    0  0.16850475171E+01  0.38445442189E+02 -0.20068173359E+02  0.47787274289E+02  0.20000014795E+02 0.  0.
         12    1    1    2    0    0 -0.16850475171E+01 -0.38445442189E+02  0.20068173359E+02  0.43400725711E+02  0.00000000000E+00 0. -1.
         11    1    3    3    0    0  0.20226492112E+01  0.24039659138E+02 -0.12331418850E+02  0.27093545586E+02  0.51100000000E-03 0. -1.
        -11    1    3    3    0    0 -0.28605264457E+01  0.13364342869E+02 -0.13321971978E+01  0.13731825134E+02  0.51100000000E-03 0.  1.
         12    1    3    3    0    0  0.25229247517E+01  0.10414401816E+01 -0.64045573119E+01  0.69619035698E+01  0.00000000000E+00 0. -1.
</event>
<event>
 7    1  0.2653124E-010  0.4778727E+02  0.7816164E-02  0.1312668E+00
        -11   -1    0    0    0    0  0.00000000000E+00  0.00000000000E+00  0.45593999997E+02  0.45594000000E+02  0.51100000000E-03 0.  1.
         11   -1    0    0    0    0 -0.00000000000E+00 -0.00000000000E+00 -0.45593999997E+02  0.45594000000E+02  0.51100000000E-03 0. -1.
    9900012    2    1    2    0    0  0.21973400225E+02  0.39290381566E+00  0.37425108584E+02  0.47787269092E+02  0.19999991096E+02 0.  0.
         12    1    1    2    0    0 -0.21973400225E+02 -0.39290381566E+00 -0.37425108584E+02  0.43400730908E+02  0.00000000000E+00 0. -1.
         11    1    3    3    0    0  0.96544040981E+00 -0.29529421900E+01 -0.84381968396E+00  0.32193127656E+01  0.51100000000E-03 0. -1.
        -11    1    3    3    0    0  0.88817981489E+01  0.16664299498E+01  0.86096731664E+01  0.12481578403E+02  0.51100000000E-03 0.  1.
         12    1    3    3    0    0  0.12126161666E+02  0.16794160559E+01  0.29659255102E+02  0.32086377923E+02  0.00000000000E+00 0. -1.
</event>
<event>
 7    1  0.2653124E-010  0.4778726E+02  0.7816164E-02  0.1312668E+00
        -11   -1    0    0    0    0  0.00000000000E+00  0.00000000000E+00  0.45593999997E+02  0.45594000000E+02  0.51100000000E-03 0. -1.
         11   -1    0    0    0    0 -0.00000000000E+00 -0.00000000000E+00 -0.45593999997E+02  0.45594000000E+02  0.51100000000E-03 0.  1.
    9900012    2    1    2    0    0  0.25155067610E+02 -0.33780139685E+02  0.10476093599E+02  0.47787264976E+02  0.19999972330E+02 0.  0.
         12    1    1    2    0    0 -0.25155067610E+02  0.33780139685E+02 -0.10476093599E+02  0.43400735024E+02  0.00000000000E+00 0. -1.
         11    1    3    3    0    0  0.17744762064E+00 -0.88112128784E+00 -0.56598122548E+00  0.10621663668E+01  0.51100000000E-03 0. -1.
        -11    1    3    3    0    0  0.23431733970E+02 -0.34866418393E+02  0.12500569402E+02  0.43828957597E+02  0.51100000000E-03 0.  1.
        -12    1    3    3    0    0  0.15458860185E+01  0.19673999959E+01 -0.14584945778E+01  0.28961410117E+01  0.00000000000E+00 0.  1.
</event>
<event>
 7    1  0.2653124E-010  0.4778728E+02  0.7816164E-02  0.1312668E+00
        -11   -1    0    0    0    0  0.00000000000E+00  0.00000000000E+00  0.45593999997E+02  0.45594000000E+02  0.51100000000E-03 0. -1.
         11   -1    0    0    0    0 -0.00000000000E+00 -0.00000000000E+00 -0.45593999997E+02  0.45594000000E+02  0.51100000000E-03 0.  1.
    9900012    2    1    2    0    0 -0.20580960221E+02  0.11303081549E+02 -0.36500506818E+02  0.47787279106E+02  0.20000036756E+02 0.  0.
         12    1    1    2    0    0  0.20580960221E+02 -0.11303081549E+02  0.36500506818E+02  0.43400720894E+02  0.00000000000E+00 0. -1.
         11    1    3    3    0    0  0.10151804348E+00  0.13527331496E+01  0.62481195183E+00  0.14935136837E+01  0.51100000000E-03 0. -1.
        -11    1    3    3    0    0 -0.15579350048E+02  0.73875378011E+01 -0.13250528228E+02  0.21745536582E+02  0.51100000000E-03 0.  1.
        -12    1    3    3    0    0 -0.51031282173E+01  0.25628105981E+01 -0.23874790542E+02  0.24548228840E+02  0.00000000000E+00 0.  1.
</event>
<event>
 7    1  0.2653124E-010  0.4778727E+02  0.7816164E-02  0.1312668E+00
        -11   -1    0    0    0    0  0.00000000000E+00  0.00000000000E+00  0.45593999997E+02  0.45594000000E+02  0.51100000000E-03 0. -1.
         11   -1    0    0    0    0 -0.00000000000E+00 -0.00000000000E+00 -0.45593999997E+02  0.45594000000E+02  0.51100000000E-03 0.  1.
    9900012    2    1    2    0    0 -0.35856032820E+01  0.42405543695E+01 -0.43043980491E+02  0.47787272947E+02  0.20000008673E+02 0.  0.
         12    1    1    2    0    0  0.35856032820E+01 -0.42405543695E+01  0.43043980491E+02  0.43400727053E+02  0.00000000000E+00 0. -1.
         11    1    3    3    0    0 -0.52806296966E+01  0.65259694605E+01 -0.13850533985E+02  0.16196006277E+02  0.51100000000E-03 0.  1.
        -11    1    3    3    0    0 -0.32566847664E+01 -0.32260081417E+01 -0.46275088647E+01  0.65135982952E+01  0.51100000000E-03 0. -1.
         12    1    3    3    0    0  0.49517111809E+01  0.94059305067E+00 -0.24565937642E+02  0.25077668375E+02  0.00000000000E+00 0. -1.
</event>
<event>
 7    1  0.2653124E-010  0.4778727E+02  0.7816164E-02  0.1312668E+00
        -11   -1    0    0    0    0  0.00000000000E+00  0.00000000000E+00  0.45593999997E+02  0.45594000000E+02  0.51100000000E-03 0. -1.
         11   -1    0    0    0    0 -0.00000000000E+00 -0.00000000000E+00 -0.45593999997E+02  0.45594000000E+02  0.51100000000E-03 0.  1.
    9900012    2    1    2    0    0  0.16145512415E+02  0.39694105985E+02 -0.68792348426E+01  0.47787268519E+02  0.19999988484E+02 0.  0.
         12    1    1    2    0    0 -0.16145512415E+02 -0.39694105985E+02  0.68792348426E+01  0.43400731481E+02  0.00000000000E+00 0. -1.
         11    1    3    3    0    0  0.24190050620E+01  0.88858705173E+01 -0.61663745150E+01  0.11083070660E+02  0.51100000000E-03 0. -1.
        -11    1    3    3    0    0  0.38363940400E+01  0.22559161891E+02 -0.44125506631E+01  0.23304598432E+02  0.51100000000E-03 0.  1.
        -12    1    3    3    0    0  0.98901133130E+01  0.82490735767E+01  0.36996903355E+01  0.13399599427E+02  0.00000000000E+00 0.  1.
</event>
<event>
 7    1  0.2653124E-010  0.4778726E+02  0.7816164E-02  0.1312668E+00
        -11   -1    0    0    0    0  0.00000000000E+00  0.00000000000E+00  0.45593999997E+02  0.45594000000E+02  0.51100000000E-03 0.  1.
         11   -1    0    0    0    0 -0.00000000000E+00 -0.00000000000E+00 -0.45593999997E+02  0.45594000000E+02  0.51100000000E-03 0. -1.
    9900012    2    1    2    0    0  0.86565039403E+01 -0.24417484943E+02  0.34820619558E+02  0.47787260631E+02  0.19999952521E+02 0.  0.
         12    1    1    2    0    0 -0.86565039403E+01  0.24417484943E+02 -0.34820619558E+02  0.43400739369E+02  0.00000000000E+00 0. -1.
         11    1    3    3    0    0  0.77406351999E+01 -0.56087141660E+01  0.85410097657E+01  0.12818890591E+02  0.51100000000E-03 0. -1.
        -11    1    3    3    0    0  0.11663939527E+01  0.93340669977E+00 -0.60582856550E+00  0.16120643387E+01  0.51100000000E-03 0.  1.
         12    1    3    3    0    0 -0.25052521235E+00 -0.19742177477E+02  0.26885438357E+02  0.33356305702E+02  0.00000000000E+00 0. -1.
</event>
<event>
 7    1  0.2653124E-010  0.4778727E+02  0.7816164E-02  0.1312668E+00
        -11   -1    0    0    0    0  0.00000000000E+00  0.00000000000E+00  0.45593999997E+02  0.45594000000E+02  0.51100000000E-03 0.  1.
         11   -1    0    0    0    0 -0.00000000000E+00 -0.00000000000E+00 -0.45593999997E+02  0.45594000000E+02  0.51100000000E-03 0. -1.
    9900012    2    1    2    0    0  0.23146902629E+02  0.18945983105E+02  0.31446681014E+02  0.47787272772E+02  0.20000007877E+02 0.  0.
         12    1    1    2    0    0 -0.23146902629E+02 -0.18945983105E+02 -0.31446681014E+02  0.43400727228E+02  0.00000000000E+00 0. -1.
         11    1    3    3    0    0  0.12036500596E+02  0.82819367169E+01  0.12438776240E+02  0.19188303129E+02  0.51100000000E-03 0. -1.
        -11    1    3    3    0    0  0.95076729349E+01  0.15215639990E+01  0.16297671448E+02  0.18929476922E+02  0.51100000000E-03 0.  1.
         12    1    3    3    0    0  0.16027290979E+01  0.91424823895E+01  0.27102333261E+01  0.96694927212E+01  0.00000000000E+00 0. -1.
</event>
<event>
 7    1  0.2653124E-010  0.4778726E+02  0.7816164E-02  0.1312668E+00
        -11   -1    0    0    0    0  0.00000000000E+00  0.00000000000E+00  0.45593999997E+02  0.45594000000E+02  0.51100000000E-03 0.  1.
         11   -1    0    0    0    0 -0.00000000000E+00 -0.00000000000E+00 -0.45593999997E+02  0.45594000000E+02  0.51100000000E-03 0. -1.
    9900012    2    1    2    0    0 -0.19428438937E+02 -0.26329460116E+02  0.28511739577E+02  0.47787262642E+02  0.19999961690E+02 0.  0.
         12    1    1    2    0    0  0.19428438937E+02  0.26329460116E+02 -0.28511739577E+02  0.43400737358E+02  0.00000000000E+00 0. -1.
         11    1    3    3    0    0 -0.13942449019E+02 -0.91640645999E+01  0.17241637673E+02  0.23992624586E+02  0.51100000000E-03 0. -1.
        -11    1    3    3    0    0 -0.77959987091E+01 -0.11068649403E+02  0.10688124264E+02  0.17249017249E+02  0.51100000000E-03 0.  1.
         12    1    3    3    0    0  0.23100087916E+01 -0.60967461124E+01  0.58197764023E+00  0.65456208071E+01  0.00000000000E+00 0. -1.
</event>
<event>
 7    1  0.2653124E-010  0.4778727E+02  0.7816164E-02  0.1312668E+00
        -11   -1    0    0    0    0  0.00000000000E+00  0.00000000000E+00  0.45593999997E+02  0.45594000000E+02  0.51100000000E-03 0.  1.
         11   -1    0    0    0    0 -0.00000000000E+00 -0.00000000000E+00 -0.45593999997E+02  0.45594000000E+02  0.51100000000E-03 0. -1.
    9900012    2    1    2    0    0 -0.11801124383E+02  0.51426152961E+01  0.41447678102E+02  0.47787273637E+02  0.20000011822E+02 0.  0.
         12    1    1    2    0    0  0.11801124383E+02 -0.51426152961E+01 -0.41447678102E+02  0.43400726363E+02  0.00000000000E+00 0. -1.
         11    1    3    3    0    0 -0.18858888354E+01 -0.32624144788E+01  0.42445627281E+01  0.56759349843E+01  0.51100000000E-03 0.  1.
        -11    1    3    3    0    0 -0.36689645796E+01 -0.18925343502E+01  0.14360919165E+01  0.43709664385E+01  0.51100000000E-03 0. -1.
        -12    1    3    3    0    0 -0.62462709682E+01  0.10297564125E+02  0.35767023457E+02  0.37740372215E+02  0.00000000000E+00 0.  1.
</event>
<event>
 7    1  0.2653124E-010  0.4778727E+02  0.7816164E-02  0.1312668E+00
        -11   -1    0    0    0    0  0.00000000000E+00  0.00000000000E+00  0.45593999997E+02  0.45594000000E+02  0.51100000000E-03 0. -1.
         11   -1    0    0    0    0 -0.00000000000E+00 -0.00000000000E+00 -0.45593999997E+02  0.45594000000E+02  0.51100000000E-03 0.  1.
    9900012    2    1    2    0    0 -0.39158941525E+02 -0.10080139565E+02 -0.15766771305E+02  0.47787274287E+02  0.20000014785E+02 0.  0.
         12    1    1    2    0    0  0.39158941525E+02  0.10080139565E+02  0.15766771305E+02  0.43400725713E+02  0.00000000000E+00 0. -1.
         11    1    3    3    0    0 -0.13056253922E+02 -0.89233087751E+01 -0.50830225585E+01  0.16611090408E+02  0.51100000000E-03 0. -1.
        -11    1    3    3    0    0 -0.11107361269E+02 -0.31505159853E+01 -0.11137751896E+02  0.16042092846E+02  0.51100000000E-03 0.  1.
         12    1    3    3    0    0 -0.14995326334E+02  0.19936851952E+01  0.45400314873E+00  0.15134091033E+02  0.00000000000E+00 0. -1.
</event>
<event>
 7    1  0.2653124E-010  0.4778727E+02  0.7816164E-02  0.1312668E+00
        -11   -1    0    0    0    0  0.00000000000E+00  0.00000000000E+00  0.45593999997E+02  0.45594000000E+02  0.51100000000E-03 0. -1.
         11   -1    0    0    0    0 -0.00000000000E+00 -0.00000000000E+00 -0.45593999997E+02  0.45594000000E+02  0.51100000000E-03 0.  1.
    9900012    2    1    2    0    0  0.29845156969E+02  0.22534097676E+02  0.22025077600E+02  0.47787274247E+02  0.20000014604E+02 0.  0.
         12    1    1    2    0    0 -0.29845156969E+02 -0.22534097676E+02 -0.22025077600E+02  0.43400725753E+02  0.00000000000E+00 0. -1.
         11    1    3    3    0    0  0.10875384336E+01 -0.78205798995E+00  0.30491645810E+00  0.13738008778E+01  0.51100000000E-03 0. -1.
        -11    1    3    3    0    0  0.20947886219E+02  0.15560659631E+02  0.52715021681E+01  0.26622111121E+02  0.51100000000E-03 0.  1.
         12    1    3    3    0    0  0.78097323164E+01  0.77554960349E+01  0.16448658974E+02  0.19791362248E+02  0.00000000000E+00 0. -1.
</event>
<event>
 7    1  0.2653124E-010  0.4778727E+02  0.7816164E-02  0.1312668E+00
        -11   -1    0    0    0    0  0.00000000000E+00  0.00000000000E+00  0.45593999997E+02  0.45594000000E+02  0.51100000000E-03 0. -1.
         11   -1    0    0    0    0 -0.00000000000E+00 -0.00000000000E+00 -0.45593999997E+02  0.45594000000E+02  0.51100000000E-03 0.  1.
    9900012    2    1    2    0    0  0.33470624900E+02  0.13452933788E+02  0.24132127442E+02  0.47787265748E+02  0.19999975853E+02 0.  0.
         12    1    1    2    0    0 -0.33470624900E+02 -0.13452933788E+02 -0.24132127442E+02  0.43400734252E+02  0.00000000000E+00 0. -1.
         11    1    3    3    0    0  0.99097111152E+01  0.89227214416E+01  0.35304292594E+01  0.13794247472E+02  0.51100000000E-03 0. -1.
        -11    1    3    3    0    0  0.20387649283E+02  0.59981842663E+01  0.11328438884E+02  0.24082524486E+02  0.51100000000E-03 0.  1.
         12    1    3    3    0    0  0.31732645013E+01 -0.14679719198E+01  0.92732592983E+01  0.99104937902E+01  0.00000000000E+00 0. -1.
</event>
<event>
 7    1  0.2653124E-010  0.4778727E+02  0.7816164E-02  0.1312668E+00
        -11   -1    0    0    0    0  0.00000000000E+00  0.00000000000E+00  0.45593999997E+02  0.45594000000E+02  0.51100000000E-03 0. -1.
         11   -1    0    0    0    0 -0.00000000000E+00 -0.00000000000E+00 -0.45593999997E+02  0.45594000000E+02  0.51100000000E-03 0.  1.
    9900012    2    1    2    0    0 -0.10064382160E+01 -0.42096770426E+02 -0.10510570905E+02  0.47787273060E+02  0.20000009191E+02 0.  0.
         12    1    1    2    0    0  0.10064382160E+01  0.42096770426E+02  0.10510570905E+02  0.43400726940E+02  0.00000000000E+00 0. -1.
         11    1    3    3    0    0  0.80234438787E+00  0.52963640890E+00 -0.50994019273E+00  0.10882603106E+01  0.51100000000E-03 0. -1.
        -11    1    3    3    0    0  0.57689407768E+01 -0.32052817412E+02 -0.62678917853E+01  0.33165497877E+02  0.51100000000E-03 0.  1.
         12    1    3    3    0    0 -0.75777233807E+01 -0.10573589422E+02 -0.37327389269E+01  0.13533514872E+02  0.00000000000E+00 0. -1.
</event>
<event>
 7    1  0.2653124E-010  0.4778727E+02  0.7816164E-02  0.1312668E+00
        -11   -1    0    0    0    0  0.00000000000E+00  0.00000000000E+00  0.45593999997E+02  0.45594000000E+02  0.51100000000E-03 0.  1.
         11   -1    0    0    0    0 -0.00000000000E+00 -0.00000000000E+00 -0.45593999997E+02  0.45594000000E+02  0.51100000000E-03 0. -1.
    9900012    2    1    2    0    0  0.35766523552E+02 -0.21755053786E+02  0.11449762223E+02  0.47787266974E+02  0.19999981441E+02 0.  0.
         12    1    1    2    0    0 -0.35766523552E+02  0.21755053786E+02 -0.11449762223E+02  0.43400733026E+02  0.00000000000E+00 0. -1.
         11    1    3    3    0    0  0.15145940927E+02 -0.82749928741E+01 -0.19674719824E+01  0.17370837052E+02  0.51100000000E-03 0. -1.
        -11    1    3    3    0    0  0.18585229431E+01 -0.71750408356E+01  0.47892665807E+01  0.88245335947E+01  0.51100000000E-03 0.  1.
        -12    1    3    3    0    0  0.18762059681E+02 -0.63050200766E+01  0.86279676250E+01  0.21591896327E+02  0.00000000000E+00 0.  1.
</event>
<event>
 7    1  0.2653124E-010  0.4778728E+02  0.7816164E-02  0.1312668E+00
        -11   -1    0    0    0    0  0.00000000000E+00  0.00000000000E+00  0.45593999997E+02  0.45594000000E+02  0.51100000000E-03 0.  1.
         11   -1    0    0    0    0 -0.00000000000E+00 -0.00000000000E+00 -0.45593999997E+02  0.45594000000E+02  0.51100000000E-03 0. -1.
    9900012    2    1    2    0    0 -0.19112286305E+02 -0.19008150959E+02  0.34015195244E+02  0.47787276525E+02  0.20000024988E+02 0.  0.
         12    1    1    2    0    0  0.19112286305E+02  0.19008150959E+02 -0.34015195244E+02  0.43400723475E+02  0.00000000000E+00 0. -1.
         11    1    3    3    0    0 -0.18367122557E+02 -0.55896397073E+01  0.20632703150E+02  0.28183394094E+02  0.51100000000E-03 0. -1.
        -11    1    3    3    0    0 -0.20398140195E+01 -0.53843806742E+01  0.32626734991E+01  0.66179630628E+01  0.51100000000E-03 0.  1.
        -12    1    3    3    0    0  0.12946502716E+01 -0.80341305779E+01  0.10119818594E+02  0.12985919369E+02  0.00000000000E+00 0.  1.
</event>
<event>
 7    1  0.2653124E-010  0.4778727E+02  0.7816164E-02  0.1312668E+00
        -11   -1    0    0    0    0  0.00000000000E+00  0.00000000000E+00  0.45593999997E+02  0.45594000000E+02  0.51100000000E-03 0. -1.
         11   -1    0    0    0    0 -0.00000000000E+00 -0.00000000000E+00 -0.45593999997E+02  0.45594000000E+02  0.51100000000E-03 0.  1.
    9900012    2    1    2    0    0  0.21451812670E+02 -0.37425949599E+02 -0.47687699053E+01  0.47787272626E+02  0.20000007209E+02 0.  0.
         12    1    1    2    0    0 -0.21451812670E+02  0.37425949599E+02  0.47687699053E+01  0.43400727374E+02  0.00000000000E+00 0. -1.
         11    1    3    3    0    0 -0.77702124439E+00 -0.15816530707E+01  0.35554757162E+01  0.39682233153E+01  0.51100000000E-03 0. -1.
        -11    1    3    3    0    0 -0.73581776293E+00 -0.91443380959E+00 -0.56357299140E+00  0.13020106567E+01  0.51100000000E-03 0.  1.
        -12    1    3    3    0    0  0.22964651678E+02 -0.34929862718E+02 -0.77606726301E+01  0.42517038654E+02  0.00000000000E+00 0.  1.
</event>
<event>
 7    1  0.2653124E-010  0.4778727E+02  0.7816164E-02  0.1312668E+00
        -11   -1    0    0    0    0  0.00000000000E+00  0.00000000000E+00  0.45593999997E+02  0.45594000000E+02  0.51100000000E-03 0.  1.
         11   -1    0    0    0    0 -0.00000000000E+00 -0.00000000000E+00 -0.45593999997E+02  0.45594000000E+02  0.51100000000E-03 0. -1.
    9900012    2    1    2    0    0 -0.41136888240E+02 -0.38161017343E+01 -0.13297253370E+02  0.47787272429E+02  0.20000006312E+02 0.  0.
         12    1    1    2    0    0  0.41136888240E+02  0.38161017343E+01  0.13297253370E+02  0.43400727571E+02  0.00000000000E+00 0. -1.
         11    1    3    3    0    0 -0.57883516110E+01 -0.72256126052E+01 -0.11290258743E+01  0.93267996429E+01  0.51100000000E-03 0. -1.
        -11    1    3    3    0    0 -0.17979318618E+00  0.12219760011E+01 -0.60209431019E+00  0.13740701425E+01  0.51100000000E-03 0.  1.
        -12    1    3    3    0    0 -0.35168743443E+02  0.21875348698E+01 -0.11566133185E+02  0.37086402643E+02  0.00000000000E+00 0.  1.
</event>
<event>
 7    1  0.2653124E-010  0.4778728E+02  0.7816164E-02  0.1312668E+00
        -11   -1    0    0    0    0  0.00000000000E+00  0.00000000000E+00  0.45593999997E+02  0.45594000000E+02  0.51100000000E-03 0. -1.
         11   -1    0    0    0    0 -0.00000000000E+00 -0.00000000000E+00 -0.45593999997E+02  0.45594000000E+02  0.51100000000E-03 0.  1.
    9900012    2    1    2    0    0  0.14040217959E+02 -0.18522771564E+02 -0.36652444257E+02  0.47787280458E+02  0.20000042922E+02 0.  0.
         12    1    1    2    0    0 -0.14040217959E+02  0.18522771564E+02  0.36652444257E+02  0.43400719542E+02  0.00000000000E+00 0. -1.
         11    1    3    3    0    0  0.12381517663E+02 -0.15341442132E+02 -0.19583282483E+02  0.27787889078E+02  0.51100000000E-03 0. -1.
        -11    1    3    3    0    0  0.54292985612E+01 -0.19775830749E+01 -0.13439503259E+02  0.14629024772E+02  0.51100000000E-03 0.  1.
         12    1    3    3    0    0 -0.37705982655E+01 -0.12037463578E+01 -0.36296585142E+01  0.53703666079E+01  0.00000000000E+00 0. -1.
</event>
<event>
 7    1  0.2653124E-010  0.4778727E+02  0.7816164E-02  0.1312668E+00
        -11   -1    0    0    0    0  0.00000000000E+00  0.00000000000E+00  0.45593999997E+02  0.45594000000E+02  0.51100000000E-03 0.  1.
         11   -1    0    0    0    0 -0.00000000000E+00 -0.00000000000E+00 -0.45593999997E+02  0.45594000000E+02  0.51100000000E-03 0. -1.
    9900012    2    1    2    0    0 -0.45594771224E+00  0.27585800258E+02  0.33502820962E+02  0.47787271013E+02  0.19999999856E+02 0.  0.
         12    1    1    2    0    0  0.45594771224E+00 -0.27585800258E+02 -0.33502820962E+02  0.43400728987E+02  0.00000000000E+00 0. -1.
         11    1    3    3    0    0 -0.23903016826E+00  0.65091231889E+01  0.60313739352E+01  0.88771218262E+01  0.51100000000E-03 0.  1.
        -11    1    3    3    0    0  0.57402050943E+01  0.49427615913E+01  0.17405533734E+02  0.18982451146E+02  0.51100000000E-03 0. -1.
         12    1    3    3    0    0 -0.59571226383E+01  0.16133915478E+02  0.10065913292E+02  0.19927698040E+02  0.00000000000E+00 0. -1.
</event>
<event>
 7    1  0.2653124E-010  0.4778727E+02  0.7816164E-02  0.1312668E+00
        -11   -1    0    0    0    0  0.00000000000E+00  0.00000000000E+00  0.45593999997E+02  0.45594000000E+02  0.51100000000E-03 0.  1.
         11   -1    0    0    0    0 -0.00000000000E+00 -0.00000000000E+00 -0.45593999997E+02  0.45594000000E+02  0.51100000000E-03 0. -1.
    9900012    2    1    2    0    0  0.31203983901E+02  0.16149892075E+02  0.25477748722E+02  0.47787270683E+02  0.19999998350E+02 0.  0.
         12    1    1    2    0    0 -0.31203983901E+02 -0.16149892075E+02 -0.25477748722E+02  0.43400729317E+02  0.00000000000E+00 0. -1.
         11    1    3    3    0    0  0.84251510347E+01  0.90452085369E+01  0.14227709451E+02  0.18847458288E+02  0.51100000000E-03 0. -1.
        -11    1    3    3    0    0  0.48286807035E+01 -0.93832025271E+00  0.74172881113E+01  0.89001553593E+01  0.51100000000E-03 0.  1.
        -12    1    3    3    0    0  0.17950152163E+02  0.80430037904E+01  0.38327511604E+01  0.20039657036E+02  0.00000000000E+00 0.  1.
</event>
<event>
 7    1  0.2653124E-010  0.4778727E+02  0.7816164E-02  0.1312668E+00
        -11   -1    0    0    0    0  0.00000000000E+00  0.00000000000E+00  0.45593999997E+02  0.45594000000E+02  0.51100000000E-03 0. -1.
         11   -1    0    0    0    0 -0.00000000000E+00 -0.00000000000E+00 -0.45593999997E+02  0.45594000000E+02  0.51100000000E-03 0.  1.
    9900012    2    1    2    0    0 -0.35383756997E+02 -0.24224427012E+02 -0.66925627799E+01  0.47787268211E+02  0.19999987079E+02 0.  0.
         12    1    1    2    0    0  0.35383756997E+02  0.24224427012E+02  0.66925627799E+01  0.43400731789E+02  0.00000000000E+00 0. -1.
         11    1    3    3    0    0 -0.48874026570E+01 -0.77494735334E+01  0.49839825090E+01  0.10429819111E+02  0.51100000000E-03 0. -1.
        -11    1    3    3    0    0 -0.14596331715E+02 -0.11536154398E+02 -0.40304909505E+01  0.19036297313E+02  0.51100000000E-03 0.  1.
         12    1    3    3    0    0 -0.15900022625E+02 -0.49387990805E+01 -0.76460543384E+01  0.18321151787E+02  0.00000000000E+00 0. -1.
</event>
<event>
 7    1  0.2653124E-010  0.4778727E+02  0.7816164E-02  0.1312668E+00
        -11   -1    0    0    0    0  0.00000000000E+00  0.00000000000E+00  0.45593999997E+02  0.45594000000E+02  0.51100000000E-03 0. -1.
         11   -1    0    0    0    0 -0.00000000000E+00 -0.00000000000E+00 -0.45593999997E+02  0.45594000000E+02  0.51100000000E-03 0.  1.
    9900012    2    1    2    0    0  0.25338366568E+02 -0.14572212983E+02 -0.32081787376E+02  0.47787270827E+02  0.19999999009E+02 0.  0.
         12    1    1    2    0    0 -0.25338366568E+02  0.14572212983E+02  0.32081787376E+02  0.43400729173E+02  0.00000000000E+00 0. -1.
         11    1    3    3    0    0  0.95035532920E+01 -0.17305072547E+01 -0.21283022883E+02  0.23372617394E+02  0.51100000000E-03 0.  1.
        -11    1    3    3    0    0 -0.93948794159E+00 -0.80229285736E+00 -0.41692633948E+00  0.13038938818E+01  0.51100000000E-03 0. -1.
        -12    1    3    3    0    0  0.16774301218E+02 -0.12039412871E+02 -0.10381838153E+02  0.23110759551E+02  0.00000000000E+00 0.  1.
</event>
<event>
 7    1  0.2653124E-010  0.4778727E+02  0.7816164E-02  0.1312668E+00
        -11   -1    0    0    0    0  0.00000000000E+00  0.00000000000E+00  0.45593999997E+02  0.45594000000E+02  0.51100000000E-03 0.  1.
         11   -1    0    0    0    0 -0.00000000000E+00 -0.00000000000E+00 -0.45593999997E+02  0.45594000000E+02  0.51100000000E-03 0. -1.
    9900012    2    1    2    0    0  0.22628042696E+02 -0.64555840056E+01  0.36468070062E+02  0.47787274025E+02  0.20000013587E+02 0.  0.
         12    1    1    2    0    0 -0.22628042696E+02  0.64555840056E+01 -0.36468070062E+02  0.43400725975E+02  0.00000000000E+00 0. -1.
         11    1    3    3    0    0  0.21476842421E+01  0.15649902662E+01  0.15431524709E+02  0.15658662051E+02  0.51100000000E-03 0. -1.
        -11    1    3    3    0    0  0.22595490205E+01  0.20896629089E+01  0.10411882406E+01  0.32490500246E+01  0.51100000000E-03 0.  1.
        -12    1    3    3    0    0  0.18220809434E+02 -0.10110237181E+02  0.19995357113E+02  0.28879561949E+02  0.00000000000E+00 0.  1.
</event>
<event>
 7    1  0.2653124E-010  0.4778727E+02  0.7816164E-02  0.1312668E+00
        -11   -1    0    0    0    0  0.00000000000E+00  0.00000000000E+00  0.45593999997E+02  0.45594000000E+02  0.51100000000E-03 0. -1.
         11   -1    0    0    0    0 -0.00000000000E+00 -0.00000000000E+00 -0.45593999997E+02  0.45594000000E+02  0.51100000000E-03 0.  1.
    9900012    2    1    2    0    0  0.23427201123E+02 -0.25712551825E+02 -0.25954847738E+02  0.47787271954E+02  0.20000004148E+02 0.  0.
         12    1    1    2    0    0 -0.23427201123E+02  0.25712551825E+02  0.25954847738E+02  0.43400728046E+02  0.00000000000E+00 0. -1.
         11    1    3    3    0    0  0.11595751790E+02 -0.97631236380E+01 -0.11489309774E+02  0.19020627805E+02  0.51100000000E-03 0.  1.
        -11    1    3    3    0    0  0.72291976895E+01 -0.96824086440E+01 -0.16758223455E+02  0.20660309534E+02  0.51100000000E-03 0. -1.
         12    1    3    3    0    0  0.46022516436E+01 -0.62670195431E+01  0.22926854916E+01  0.81063346161E+01  0.00000000000E+00 0. -1.
</event>
<event>
 7    1  0.2653124E-010  0.4778727E+02  0.7816164E-02  0.1312668E+00
        -11   -1    0    0    0    0  0.00000000000E+00  0.00000000000E+00  0.45593999997E+02  0.45594000000E+02  0.51100000000E-03 0. -1.
         11   -1    0    0    0    0 -0.00000000000E+00 -0.00000000000E+00 -0.45593999997E+02  0.45594000000E+02  0.51100000000E-03 0.  1.
    9900012    2    1    2    0    0  0.30796066072E+02 -0.27958770333E+02  0.12390835772E+02  0.47787270338E+02  0.19999996781E+02 0.  0.
         12    1    1    2    0    0 -0.30796066072E+02  0.27958770333E+02 -0.12390835772E+02  0.43400729662E+02  0.00000000000E+00 0. -1.
         11    1    3    3    0    0  0.87936671040E+01 -0.85781028777E+01  0.21251973676E+01  0.12467112506E+02  0.51100000000E-03 0. -1.
        -11    1    3    3    0    0  0.69033647391E+01 -0.46053977133E+01 -0.46002351618E+01  0.94883242263E+01  0.51100000000E-03 0.  1.
         12    1    3    3    0    0  0.15099034229E+02 -0.14775269742E+02  0.14865873566E+02  0.25831833606E+02  0.00000000000E+00 0. -1.
</event>
<event>
 7    1  0.2653124E-010  0.4778728E+02  0.7816164E-02  0.1312668E+00
        -11   -1    0    0    0    0  0.00000000000E+00  0.00000000000E+00  0.45593999997E+02  0.45594000000E+02  0.51100000000E-03 0.  1.
         11   -1    0    0    0    0 -0.00000000000E+00 -0.00000000000E+00 -0.45593999997E+02  0.45594000000E+02  0.51100000000E-03 0. -1.
    9900012    2    1    2    0    0  0.28317577302E+02 -0.32865991144E+02 -0.12506897763E+01  0.47787276699E+02  0.20000025782E+02 0.  0.
         12    1    1    2    0    0 -0.28317577302E+02  0.32865991144E+02  0.12506897763E+01  0.43400723301E+02  0.00000000000E+00 0. -1.
         11    1    3    3    0    0  0.16413134493E+01 -0.41123713245E+01  0.25455843474E+01  0.51073973489E+01  0.51100000000E-03 0. -1.
        -11    1    3    3    0    0  0.16227290930E+02 -0.69793409178E+01  0.21835543478E+01  0.17798990994E+02  0.51100000000E-03 0.  1.
         12    1    3    3    0    0  0.10448972923E+02 -0.21774278902E+02 -0.59798284714E+01  0.24880888356E+02  0.00000000000E+00 0. -1.
</event>
<event>
 7    1  0.2653124E-010  0.4778726E+02  0.7816164E-02  0.1312668E+00
        -11   -1    0    0    0    0  0.00000000000E+00  0.00000000000E+00  0.45593999997E+02  0.45594000000E+02  0.51100000000E-03 0. -1.
         11   -1    0    0    0    0 -0.00000000000E+00 -0.00000000000E+00 -0.45593999997E+02  0.45594000000E+02  0.51100000000E-03 0.  1.
    9900012    2    1    2    0    0  0.72468863345E+01  0.40595724697E+02 -0.13531208897E+02  0.47787264529E+02  0.19999970294E+02 0.  0.
         12    1    1    2    0    0 -0.72468863345E+01 -0.40595724697E+02  0.13531208897E+02  0.43400735471E+02  0.00000000000E+00 0. -1.
         11    1    3    3    0    0 -0.23725385351E+01  0.19644914758E+01  0.90851255846E+00  0.32114733673E+01  0.51100000000E-03 0. -1.
        -11    1    3    3    0    0  0.70852147115E+01  0.38626128101E+02 -0.14896014862E+02  0.42000824975E+02  0.51100000000E-03 0.  1.
         12    1    3    3    0    0  0.25342101580E+01  0.51051200766E-02  0.45629340674E+00  0.25749661863E+01  0.00000000000E+00 0. -1.
</event>
<event>
 7    1  0.2653124E-010  0.4778727E+02  0.7816164E-02  0.1312668E+00
        -11   -1    0    0    0    0  0.00000000000E+00  0.00000000000E+00  0.45593999997E+02  0.45594000000E+02  0.51100000000E-03 0. -1.
         11   -1    0    0    0    0 -0.00000000000E+00 -0.00000000000E+00 -0.45593999997E+02  0.45594000000E+02  0.51100000000E-03 0.  1.
    9900012    2    1    2    0    0 -0.25774323586E+02 -0.34143191272E+02 -0.73177852436E+01  0.47787271349E+02  0.20000001391E+02 0.  0.
         12    1    1    2    0    0  0.25774323586E+02  0.34143191272E+02  0.73177852436E+01  0.43400728651E+02  0.00000000000E+00 0. -1.
         11    1    3    3    0    0 -0.13827226695E+02 -0.18596006101E+02 -0.48748754855E+01  0.23680541637E+02  0.51100000000E-03 0. -1.
        -11    1    3    3    0    0 -0.37907440684E+01 -0.15059471472E+02  0.16371646929E+00  0.15530107048E+02  0.51100000000E-03 0.  1.
         12    1    3    3    0    0 -0.81563528230E+01 -0.48771369904E+00 -0.26066262274E+01  0.85766226637E+01  0.00000000000E+00 0. -1.
</event>
<event>
 7    1  0.2653124E-010  0.4778727E+02  0.7816164E-02  0.1312668E+00
        -11   -1    0    0    0    0  0.00000000000E+00  0.00000000000E+00  0.45593999997E+02  0.45594000000E+02  0.51100000000E-03 0. -1.
         11   -1    0    0    0    0 -0.00000000000E+00 -0.00000000000E+00 -0.45593999997E+02  0.45594000000E+02  0.51100000000E-03 0.  1.
    9900012    2    1    2    0    0 -0.12438486935E+02  0.41408022940E+02 -0.37792852435E+01  0.47787270536E+02  0.19999997683E+02 0.  0.
         12    1    1    2    0    0  0.12438486935E+02 -0.41408022940E+02  0.37792852435E+01  0.43400729464E+02  0.00000000000E+00 0. -1.
         11    1    3    3    0    0  0.43214663820E+00  0.40057763030E+01  0.38907348088E+01  0.56009652846E+01  0.51100000000E-03 0.  1.
        -11    1    3    3    0    0 -0.32822974843E+01  0.10856711910E+01  0.10754612902E+01  0.36206043636E+01  0.51100000000E-03 0. -1.
        -12    1    3    3    0    0 -0.95883360887E+01  0.36316575446E+02 -0.87454813425E+01  0.38565700888E+02  0.00000000000E+00 0.  1.
</event>
<event>
 7    1  0.2653124E-010  0.4778727E+02  0.7816164E-02  0.1312668E+00
        -11   -1    0    0    0    0  0.00000000000E+00  0.00000000000E+00  0.45593999997E+02  0.45594000000E+02  0.51100000000E-03 0. -1.
         11   -1    0    0    0    0 -0.00000000000E+00 -0.00000000000E+00 -0.45593999997E+02  0.45594000000E+02  0.51100000000E-03 0.  1.
    9900012    2    1    2    0    0 -0.19622643020E+02 -0.23799515908E+02 -0.30531268089E+02  0.47787269504E+02  0.19999992976E+02 0.  0.
         12    1    1    2    0    0  0.19622643020E+02  0.23799515908E+02  0.30531268089E+02  0.43400730496E+02  0.00000000000E+00 0. -1.
         11    1    3    3    0    0 -0.36988383833E+01 -0.12154853837E+02 -0.38346753133E+01  0.13271270180E+02  0.51100000000E-03 0. -1.
        -11    1    3    3    0    0 -0.37614259317E+01 -0.10733982596E+01 -0.76556958567E+00  0.39858005363E+01  0.51100000000E-03 0.  1.
        -12    1    3    3    0    0 -0.12162378705E+02 -0.10571263811E+02 -0.25931023190E+02  0.30530198787E+02  0.00000000000E+00 0.  1.
</event>
<event>
 7    1  0.2653124E-010  0.4778727E+02  0.7816164E-02  0.1312668E+00
        -11   -1    0    0    0    0  0.00000000000E+00  0.00000000000E+00  0.45593999997E+02  0.45594000000E+02  0.51100000000E-03 0.  1.
         11   -1    0    0    0    0 -0.00000000000E+00 -0.00000000000E+00 -0.45593999997E+02  0.45594000000E+02  0.51100000000E-03 0. -1.
    9900012    2    1    2    0    0 -0.23326790853E+02  0.12584374021E+02  0.34367391040E+02  0.47787271804E+02  0.20000003464E+02 0.  0.
         12    1    1    2    0    0  0.23326790853E+02 -0.12584374021E+02 -0.34367391040E+02  0.43400728196E+02  0.00000000000E+00 0. -1.
         11    1    3    3    0    0 -0.51018782704E+01  0.53865792156E+01  0.23745374745E+01  0.77899182288E+01  0.51100000000E-03 0. -1.
        -11    1    3    3    0    0  0.85783975652E+00  0.83537388739E+00  0.10468316979E+02  0.10536574358E+02  0.51100000000E-03 0.  1.
        -12    1    3    3    0    0 -0.19082752339E+02  0.63624209183E+01  0.21524536587E+02  0.29460779217E+02  0.00000000000E+00 0.  1.
</event>
<event>
 7    1  0.2653124E-010  0.4778727E+02  0.7816164E-02  0.1312668E+00
        -11   -1    0    0    0    0  0.00000000000E+00  0.00000000000E+00  0.45593999997E+02  0.45594000000E+02  0.51100000000E-03 0.  1.
         11   -1    0    0    0    0 -0.00000000000E+00 -0.00000000000E+00 -0.45593999997E+02  0.45594000000E+02  0.51100000000E-03 0. -1.
    9900012    2    1    2    0    0  0.14157364317E+02 -0.95305787529E+01  0.39904393371E+02  0.47787268369E+02  0.19999987801E+02 0.  0.
         12    1    1    2    0    0 -0.14157364317E+02  0.95305787529E+01 -0.39904393371E+02  0.43400731631E+02  0.00000000000E+00 0. -1.
         11    1    3    3    0    0 -0.19649784216E+01 -0.28587024976E+01  0.73221305793E+01  0.81022784850E+01  0.51100000000E-03 0. -1.
        -11    1    3    3    0    0  0.57082564258E+01  0.33431952704E+01  0.17911545381E+02  0.19094098675E+02  0.51100000000E-03 0.  1.
        -12    1    3    3    0    0  0.10414086313E+02 -0.10015071526E+02  0.14670717411E+02  0.20590891209E+02  0.00000000000E+00 0.  1.
</event>
<event>
 7    1  0.2653124E-010  0.4778732E+02  0.7816164E-02  0.1312668E+00
        -11   -1    0    0    0    0  0.00000000000E+00  0.00000000000E+00  0.45593999997E+02  0.45594000000E+02  0.51100000000E-03 0.  1.
         11   -1    0    0    0    0 -0.00000000000E+00 -0.00000000000E+00 -0.45593999997E+02  0.45594000000E+02  0.51100000000E-03 0. -1.
    9900012    2    1    2    0    0 -0.37833668764E+01 -0.28038650253E+02  0.32911084203E+02  0.47787317559E+02  0.20000212077E+02 0.  0.
         12    1    1    2    0    0  0.37833668764E+01  0.28038650253E+02 -0.32911084203E+02  0.43400682441E+02  0.00000000000E+00 0. -1.
         11    1    3    3    0    0  0.25822937664E+00  0.30594385728E+00 -0.52022720781E+00  0.65644547651E+00  0.51100000000E-03 0. -1.
        -11    1    3    3    0    0  0.45195195348E+01 -0.20342527449E+02  0.25721642460E+02  0.33103585469E+02  0.51100000000E-03 0.  1.
        -12    1    3    3    0    0 -0.85611157878E+01 -0.80020666613E+01  0.77096689511E+01  0.14027286613E+02  0.00000000000E+00 0.  1.
</event>
<event>
 7    1  0.2653124E-010  0.4778727E+02  0.7816164E-02  0.1312668E+00
        -11   -1    0    0    0    0  0.00000000000E+00  0.00000000000E+00  0.45593999997E+02  0.45594000000E+02  0.51100000000E-03 0. -1.
         11   -1    0    0    0    0 -0.00000000000E+00 -0.00000000000E+00 -0.45593999997E+02  0.45594000000E+02  0.51100000000E-03 0.  1.
    9900012    2    1    2    0    0 -0.20949038063E+02 -0.36636052804E+02  0.10127228841E+02  0.47787270457E+02  0.19999997323E+02 0.  0.
         12    1    1    2    0    0  0.20949038063E+02  0.36636052804E+02 -0.10127228841E+02  0.43400729543E+02  0.00000000000E+00 0. -1.
         11    1    3    3    0    0 -0.31805449412E+01 -0.23127869075E+01  0.23780951302E+01  0.45956703659E+01  0.51100000000E-03 0. -1.
        -11    1    3    3    0    0 -0.20221864625E+02 -0.25895950137E+02  0.24692746258E+01  0.32948768715E+02  0.51100000000E-03 0.  1.
         12    1    3    3    0    0  0.24533715028E+01 -0.84273157594E+01  0.52798590848E+01  0.10242831376E+02  0.00000000000E+00 0. -1.
</event>
<event>
 7    1  0.2653124E-010  0.4778727E+02  0.7816164E-02  0.1312668E+00
        -11   -1    0    0    0    0  0.00000000000E+00  0.00000000000E+00  0.45593999997E+02  0.45594000000E+02  0.51100000000E-03 0.  1.
         11   -1    0    0    0    0 -0.00000000000E+00 -0.00000000000E+00 -0.45593999997E+02  0.45594000000E+02  0.51100000000E-03 0. -1.
    9900012    2    1    2    0    0 -0.15997800079E+02  0.14993157840E+02  0.37455293414E+02  0.47787269660E+02  0.19999993687E+02 0.  0.
         12    1    1    2    0    0  0.15997800079E+02 -0.14993157840E+02 -0.37455293414E+02  0.43400730340E+02  0.00000000000E+00 0. -1.
         11    1    3    3    0    0 -0.99155003436E+01  0.91446740152E+01  0.12810574182E+02  0.18602500398E+02  0.51100000000E-03 0. -1.
        -11    1    3    3    0    0 -0.83283227270E+00  0.55680000423E+01  0.20579134585E+01  0.59942674390E+01  0.51100000000E-03 0.  1.
        -12    1    3    3    0    0 -0.52494674624E+01  0.28048378230E+00  0.22586805773E+02  0.23190501823E+02  0.00000000000E+00 0.  1.
</event>
<event>
 7    1  0.2653124E-010  0.4778727E+02  0.7816164E-02  0.1312668E+00
        -11   -1    0    0    0    0  0.00000000000E+00  0.00000000000E+00  0.45593999997E+02  0.45594000000E+02  0.51100000000E-03 0.  1.
         11   -1    0    0    0    0 -0.00000000000E+00 -0.00000000000E+00 -0.45593999997E+02  0.45594000000E+02  0.51100000000E-03 0. -1.
    9900012    2    1    2    0    0  0.29147218499E+02  0.26499341904E+02  0.18216700446E+02  0.47787266796E+02  0.19999980628E+02 0.  0.
         12    1    1    2    0    0 -0.29147218499E+02 -0.26499341904E+02 -0.18216700446E+02  0.43400733204E+02  0.00000000000E+00 0. -1.
         11    1    3    3    0    0 -0.32498464226E+00 -0.13732256786E+00 -0.31718778371E+00  0.47442687171E+00  0.51100000000E-03 0. -1.
        -11    1    3    3    0    0  0.26512174767E+02  0.28775635904E+02  0.14150117239E+02  0.41607192295E+02  0.51100000000E-03 0.  1.
        -12    1    3    3    0    0  0.29600283743E+01 -0.21389714326E+01  0.43837709905E+01  0.57056476287E+01  0.00000000000E+00 0.  1.
</event>
<event>
 7    1  0.2653124E-010  0.4778730E+02  0.7816164E-02  0.1312668E+00
        -11   -1    0    0    0    0  0.00000000000E+00  0.00000000000E+00  0.45593999997E+02  0.45594000000E+02  0.51100000000E-03 0. -1.
         11   -1    0    0    0    0 -0.00000000000E+00 -0.00000000000E+00 -0.45593999997E+02  0.45594000000E+02  0.51100000000E-03 0.  1.
    9900012    2    1    2    0    0 -0.17307992078E+02 -0.27018792957E+02 -0.29223952834E+02  0.47787295146E+02  0.20000109887E+02 0.  0.
         12    1    1    2    0    0  0.17307992078E+02  0.27018792957E+02  0.29223952834E+02  0.43400704854E+02  0.00000000000E+00 0. -1.
         11    1    3    3    0    0 -0.10320550949E+02 -0.65941210982E+01 -0.44562122948E+01  0.13032806038E+02  0.51100000000E-03 0. -1.
        -11    1    3    3    0    0 -0.49970906376E+01 -0.10211864637E+02 -0.50088773547E+01  0.12423443436E+02  0.51100000000E-03 0.  1.
        -12    1    3    3    0    0 -0.19903504915E+01 -0.10212807222E+02 -0.19758863184E+02  0.22331045671E+02  0.00000000000E+00 0.  1.
</event>
<event>
 7    1  0.2653124E-010  0.4778727E+02  0.7816164E-02  0.1312668E+00
        -11   -1    0    0    0    0  0.00000000000E+00  0.00000000000E+00  0.45593999997E+02  0.45594000000E+02  0.51100000000E-03 0. -1.
         11   -1    0    0    0    0 -0.00000000000E+00 -0.00000000000E+00 -0.45593999997E+02  0.45594000000E+02  0.51100000000E-03 0.  1.
    9900012    2    1    2    0    0 -0.32666209184E+02 -0.28233562477E+02 -0.44054440202E+01  0.47787271785E+02  0.20000003376E+02 0.  0.
         12    1    1    2    0    0  0.32666209184E+02  0.28233562477E+02  0.44054440202E+01  0.43400728215E+02  0.00000000000E+00 0. -1.
         11    1    3    3    0    0 -0.20121771505E+02 -0.12728658758E+02  0.22517448360E+01  0.23915994592E+02  0.51100000000E-03 0. -1.
        -11    1    3    3    0    0 -0.11850731852E+02 -0.60898832331E+01 -0.25021700917E+01  0.13556820374E+02  0.51100000000E-03 0.  1.
        -12    1    3    3    0    0 -0.69370582679E+00 -0.94150204856E+01 -0.41550187644E+01  0.10314456818E+02  0.00000000000E+00 0.  1.
</event>
<event>
 7    1  0.2653124E-010  0.4778727E+02  0.7816164E-02  0.1312668E+00
        -11   -1    0    0    0    0  0.00000000000E+00  0.00000000000E+00  0.45593999997E+02  0.45594000000E+02  0.51100000000E-03 0.  1.
         11   -1    0    0    0    0 -0.00000000000E+00 -0.00000000000E+00 -0.45593999997E+02  0.45594000000E+02  0.51100000000E-03 0. -1.
    9900012    2    1    2    0    0  0.52242921320E+01 -0.39333439183E+02  0.17584398441E+02  0.47787265734E+02  0.19999975789E+02 0.  0.
         12    1    1    2    0    0 -0.52242921320E+01  0.39333439183E+02 -0.17584398441E+02  0.43400734266E+02  0.00000000000E+00 0. -1.
         11    1    3    3    0    0  0.14422837406E+01 -0.54024227231E+00  0.13844324828E+01  0.20709171064E+01  0.51100000000E-03 0. -1.
        -11    1    3    3    0    0  0.41489280267E+01 -0.16361794500E+02  0.16034293845E+02  0.23281333776E+02  0.51100000000E-03 0.  1.
         12    1    3    3    0    0 -0.36691963532E+00 -0.22431402411E+02  0.16567211312E+00  0.22435014851E+02  0.00000000000E+00 0. -1.
</event>
<event>
 7    1  0.2653124E-010  0.4778728E+02  0.7816164E-02  0.1312668E+00
        -11   -1    0    0    0    0  0.00000000000E+00  0.00000000000E+00  0.45593999997E+02  0.45594000000E+02  0.51100000000E-03 0.  1.
         11   -1    0    0    0    0 -0.00000000000E+00 -0.00000000000E+00 -0.45593999997E+02  0.45594000000E+02  0.51100000000E-03 0. -1.
    9900012    2    1    2    0    0  0.29123661741E+02 -0.15873078707E+02  0.27990714298E+02  0.47787281253E+02  0.20000046545E+02 0.  0.
         12    1    1    2    0    0 -0.29123661741E+02  0.15873078707E+02 -0.27990714298E+02  0.43400718747E+02  0.00000000000E+00 0. -1.
         11    1    3    3    0    0  0.13886061166E+02 -0.39677173738E+01  0.10710533184E+02  0.17980016607E+02  0.51100000000E-03 0. -1.
        -11    1    3    3    0    0  0.13795342890E+02 -0.14203324236E+02  0.10301268405E+02  0.22319543808E+02  0.51100000000E-03 0.  1.
         12    1    3    3    0    0  0.14422576850E+01  0.22979629026E+01  0.69789127097E+01  0.74877208376E+01  0.00000000000E+00 0. -1.
</event>
<event>
 7    1  0.2653124E-010  0.4778727E+02  0.7816164E-02  0.1312668E+00
        -11   -1    0    0    0    0  0.00000000000E+00  0.00000000000E+00  0.45593999997E+02  0.45594000000E+02  0.51100000000E-03 0.  1.
         11   -1    0    0    0    0 -0.00000000000E+00 -0.00000000000E+00 -0.45593999997E+02  0.45594000000E+02  0.51100000000E-03 0. -1.
    9900012    2    1    2    0    0  0.18687921528E+02 -0.46989268690E+01  0.38888369852E+02  0.47787266890E+02  0.19999981057E+02 0.  0.
         12    1    1    2    0    0 -0.18687921528E+02  0.46989268690E+01 -0.38888369852E+02  0.43400733110E+02  0.00000000000E+00 0. -1.
         11    1    3    3    0    0  0.57310079556E+01 -0.82648010683E+01  0.13430911560E+02  0.16779176812E+02  0.51100000000E-03 0. -1.
        -11    1    3    3    0    0  0.11638189959E+02 -0.21519247672E+01  0.16935616541E+02  0.20661397668E+02  0.51100000000E-03 0.  1.
         12    1    3    3    0    0  0.13187236130E+01  0.57177989664E+01  0.85218417509E+01  0.10346692409E+02  0.00000000000E+00 0. -1.
</event>
<event>
 7    1  0.2653124E-010  0.4778727E+02  0.7816164E-02  0.1312668E+00
        -11   -1    0    0    0    0  0.00000000000E+00  0.00000000000E+00  0.45593999997E+02  0.45594000000E+02  0.51100000000E-03 0. -1.
         11   -1    0    0    0    0 -0.00000000000E+00 -0.00000000000E+00 -0.45593999997E+02  0.45594000000E+02  0.51100000000E-03 0.  1.
    9900012    2    1    2    0    0  0.10148763599E+02 -0.19234048250E+02 -0.37558989958E+02  0.47787265659E+02  0.19999975446E+02 0.  0.
         12    1    1    2    0    0 -0.10148763599E+02  0.19234048250E+02  0.37558989958E+02  0.43400734341E+02  0.00000000000E+00 0. -1.
         11    1    3    3    0    0  0.17680687465E+01  0.81149414285E+00 -0.86378935525E+00  0.21285493059E+01  0.51100000000E-03 0. -1.
        -11    1    3    3    0    0 -0.44779777317E+01 -0.89675546239E+01 -0.16174985428E+02  0.19028911539E+02  0.51100000000E-03 0.  1.
        -12    1    3    3    0    0  0.12858672584E+02 -0.11077987769E+02 -0.20520215175E+02  0.26629804814E+02  0.00000000000E+00 0.  1.
</event>
<event>
 7    1  0.2653124E-010  0.4778727E+02  0.7816164E-02  0.1312668E+00
        -11   -1    0    0    0    0  0.00000000000E+00  0.00000000000E+00  0.45593999997E+02  0.45594000000E+02  0.51100000000E-03 0.  1.
         11   -1    0    0    0    0 -0.00000000000E+00 -0.00000000000E+00 -0.45593999997E+02  0.45594000000E+02  0.51100000000E-03 0. -1.
    9900012    2    1    2    0    0 -0.95286054023E+01  0.37488114934E+02  0.19684257696E+02  0.47787273241E+02  0.20000010013E+02 0.  0.
         12    1    1    2    0    0  0.95286054023E+01 -0.37488114934E+02 -0.19684257696E+02  0.43400726759E+02  0.00000000000E+00 0. -1.
         11    1    3    3    0    0  0.88569124311E+00  0.38742291894E+00  0.20279508629E+01  0.22465819503E+01  0.51100000000E-03 0. -1.
        -11    1    3    3    0    0  0.19926898549E+00  0.86201838333E+01 -0.26110552800E+01  0.90091557532E+01  0.51100000000E-03 0.  1.
         12    1    3    3    0    0 -0.10613565631E+02  0.28480508182E+02  0.20267362113E+02  0.36531535537E+02  0.00000000000E+00 0. -1.
</event>
<event>
 7    1  0.2653124E-010  0.4778727E+02  0.7816164E-02  0.1312668E+00
        -11   -1    0    0    0    0  0.00000000000E+00  0.00000000000E+00  0.45593999997E+02  0.45594000000E+02  0.51100000000E-03 0. -1.
         11   -1    0    0    0    0 -0.00000000000E+00 -0.00000000000E+00 -0.45593999997E+02  0.45594000000E+02  0.51100000000E-03 0.  1.
    9900012    2    1    2    0    0 -0.27808382673E+01  0.34019686575E+02 -0.26805806949E+02  0.47787269334E+02  0.19999992202E+02 0.  0.
         12    1    1    2    0    0  0.27808382673E+01 -0.34019686575E+02  0.26805806949E+02  0.43400730666E+02  0.00000000000E+00 0. -1.
         11    1    3    3    0    0 -0.89441320764E+01  0.22196344036E+02 -0.13566737228E+02  0.27508753996E+02  0.51100000000E-03 0. -1.
        -11    1    3    3    0    0 -0.13290142569E+01  0.40734187606E+01 -0.56708224255E+01  0.71075485603E+01  0.51100000000E-03 0.  1.
        -12    1    3    3    0    0  0.74923080659E+01  0.77499237787E+01 -0.75682472957E+01  0.13170966778E+02  0.00000000000E+00 0.  1.
</event>
<event>
 7    1  0.2653124E-010  0.4778727E+02  0.7816164E-02  0.1312668E+00
        -11   -1    0    0    0    0  0.00000000000E+00  0.00000000000E+00  0.45593999997E+02  0.45594000000E+02  0.51100000000E-03 0.  1.
         11   -1    0    0    0    0 -0.00000000000E+00 -0.00000000000E+00 -0.45593999997E+02  0.45594000000E+02  0.51100000000E-03 0. -1.
    9900012    2    1    2    0    0  0.22989310043E+02 -0.11362127070E+02  0.35014527503E+02  0.47787269084E+02  0.19999991060E+02 0.  0.
         12    1    1    2    0    0 -0.22989310043E+02  0.11362127070E+02 -0.35014527503E+02  0.43400730916E+02  0.00000000000E+00 0. -1.
         11    1    3    3    0    0  0.41502960587E+01  0.20944207149E+01  0.11407675267E+02  0.12318547430E+02  0.51100000000E-03 0. -1.
        -11    1    3    3    0    0  0.41011063961E+01 -0.60209928082E+01  0.15394841220E+02  0.17031516801E+02  0.51100000000E-03 0.  1.
        -12    1    3    3    0    0  0.14737907588E+02 -0.74355549769E+01  0.82120110148E+01  0.18437204853E+02  0.00000000000E+00 0.  1.
</event>
<event>
 7    1  0.2653124E-010  0.4778727E+02  0.7816164E-02  0.1312668E+00
        -11   -1    0    0    0    0  0.00000000000E+00  0.00000000000E+00  0.45593999997E+02  0.45594000000E+02  0.51100000000E-03 0.  1.
         11   -1    0    0    0    0 -0.00000000000E+00 -0.00000000000E+00 -0.45593999997E+02  0.45594000000E+02  0.51100000000E-03 0. -1.
    9900012    2    1    2    0    0  0.22785462607E+02  0.30554279163E+02  0.20757697777E+02  0.47787270762E+02  0.19999998710E+02 0.  0.
         12    1    1    2    0    0 -0.22785462607E+02 -0.30554279163E+02 -0.20757697777E+02  0.43400729238E+02  0.00000000000E+00 0. -1.
         11    1    3    3    0    0  0.12850289723E+02  0.27733837569E+02  0.11837355607E+02  0.32778326381E+02  0.51100000000E-03 0. -1.
        -11    1    3    3    0    0  0.42113354881E+01  0.40306343845E+01  0.63465969531E+01  0.86174621137E+01  0.51100000000E-03 0.  1.
         12    1    3    3    0    0  0.57238373962E+01 -0.12101927907E+01  0.25737452171E+01  0.63914822671E+01  0.00000000000E+00 0. -1.
</event>
<event>
 7    1  0.2653124E-010  0.4778727E+02  0.7816164E-02  0.1312668E+00
        -11   -1    0    0    0    0  0.00000000000E+00  0.00000000000E+00  0.45593999997E+02  0.45594000000E+02  0.51100000000E-03 0.  1.
         11   -1    0    0    0    0 -0.00000000000E+00 -0.00000000000E+00 -0.45593999997E+02  0.45594000000E+02  0.51100000000E-03 0. -1.
    9900012    2    1    2    0    0  0.40281500088E+02  0.14469970850E+02  0.71864054144E+01  0.47787265807E+02  0.19999976120E+02 0.  0.
         12    1    1    2    0    0 -0.40281500088E+02 -0.14469970850E+02 -0.71864054144E+01  0.43400734193E+02  0.00000000000E+00 0. -1.
         11    1    3    3    0    0  0.47422600099E+01  0.33769961836E+01  0.56108188730E+01  0.80854450658E+01  0.51100000000E-03 0.  1.
        -11    1    3    3    0    0  0.70029179010E+01 -0.32436748919E+01  0.77561514711E+00  0.77565369237E+01  0.51100000000E-03 0. -1.
        -12    1    3    3    0    0  0.28536322177E+02  0.14336649558E+02  0.79997139423E+00  0.31945283817E+02  0.00000000000E+00 0.  1.
</event>
<event>
 7    1  0.2653124E-010  0.4778728E+02  0.7816164E-02  0.1312668E+00
        -11   -1    0    0    0    0  0.00000000000E+00  0.00000000000E+00  0.45593999997E+02  0.45594000000E+02  0.51100000000E-03 0.  1.
         11   -1    0    0    0    0 -0.00000000000E+00 -0.00000000000E+00 -0.45593999997E+02  0.45594000000E+02  0.51100000000E-03 0. -1.
    9900012    2    1    2    0    0  0.43305569251E+02 -0.28605579473E+01  0.26037159447E+00  0.47787275199E+02  0.20000018942E+02 0.  0.
         12    1    1    2    0    0 -0.43305569251E+02  0.28605579473E+01 -0.26037159447E+00  0.43400724801E+02  0.00000000000E+00 0. -1.
         11    1    3    3    0    0  0.11933778838E+02 -0.21704671821E+01 -0.82316602416E+01  0.14658998456E+02  0.51100000000E-03 0. -1.
        -11    1    3    3    0    0  0.37769732710E+01 -0.15731592511E+01  0.27464840284E+01  0.49278323733E+01  0.51100000000E-03 0.  1.
        -12    1    3    3    0    0  0.27594817142E+02  0.88306848596E+00  0.57455478076E+01  0.28200444370E+02  0.00000000000E+00 0.  1.
</event>
<event>
 7    1  0.2653124E-010  0.4778727E+02  0.7816164E-02  0.1312668E+00
        -11   -1    0    0    0    0  0.00000000000E+00  0.00000000000E+00  0.45593999997E+02  0.45594000000E+02  0.51100000000E-03 0. -1.
         11   -1    0    0    0    0 -0.00000000000E+00 -0.00000000000E+00 -0.45593999997E+02  0.45594000000E+02  0.51100000000E-03 0.  1.
    9900012    2    1    2    0    0  0.32639412582E+01 -0.99165412470E+00 -0.43266461140E+02  0.47787270167E+02  0.19999996000E+02 0.  0.
         12    1    1    2    0    0 -0.32639412582E+01  0.99165412470E+00  0.43266461140E+02  0.43400729833E+02  0.00000000000E+00 0. -1.
         11    1    3    3    0    0  0.15126188728E+01  0.32677776246E-01 -0.13880973262E+01  0.20532652385E+01  0.51100000000E-03 0. -1.
        -11    1    3    3    0    0 -0.26887275338E+01  0.75027764203E+01 -0.25775750306E+02  0.26979811227E+02  0.51100000000E-03 0.  1.
         12    1    3    3    0    0  0.44400499191E+01 -0.85271083212E+01 -0.16102613508E+02  0.18754193701E+02  0.00000000000E+00 0. -1.
</event>
<event>
 7    1  0.2653124E-010  0.4778727E+02  0.7816164E-02  0.1312668E+00
        -11   -1    0    0    0    0  0.00000000000E+00  0.00000000000E+00  0.45593999997E+02  0.45594000000E+02  0.51100000000E-03 0.  1.
         11   -1    0    0    0    0 -0.00000000000E+00 -0.00000000000E+00 -0.45593999997E+02  0.45594000000E+02  0.51100000000E-03 0. -1.
    9900012    2    1    2    0    0  0.20559148910E+02  0.32694947496E+02  0.19798625227E+02  0.47787265484E+02  0.19999974647E+02 0.  0.
         12    1    1    2    0    0 -0.20559148910E+02 -0.32694947496E+02 -0.19798625227E+02  0.43400734516E+02  0.00000000000E+00 0. -1.
         11    1    3    3    0    0  0.42512613251E+01 -0.14897468243E+01  0.42837355542E+01  0.62163461144E+01  0.51100000000E-03 0. -1.
        -11    1    3    3    0    0 -0.99056573039E-01  0.30535377009E+01 -0.13441012873E+00  0.30580992527E+01  0.51100000000E-03 0.  1.
         12    1    3    3    0    0  0.16406944158E+02  0.31131156620E+02  0.15649299801E+02  0.38512820117E+02  0.00000000000E+00 0. -1.
</event>
<event>
 7    1  0.2653124E-010  0.4778728E+02  0.7816164E-02  0.1312668E+00
        -11   -1    0    0    0    0  0.00000000000E+00  0.00000000000E+00  0.45593999997E+02  0.45594000000E+02  0.51100000000E-03 0.  1.
         11   -1    0    0    0    0 -0.00000000000E+00 -0.00000000000E+00 -0.45593999997E+02  0.45594000000E+02  0.51100000000E-03 0. -1.
    9900012    2    1    2    0    0 -0.41585663178E+02  0.12143454099E+02 -0.26061511518E+01  0.47787275545E+02  0.20000020518E+02 0.  0.
         12    1    1    2    0    0  0.41585663178E+02 -0.12143454099E+02  0.26061511518E+01  0.43400724455E+02  0.00000000000E+00 0. -1.
         11    1    3    3    0    0 -0.10580428902E+02  0.92166769903E+01  0.20980314570E+01  0.14187823891E+02  0.51100000000E-03 0. -1.
        -11    1    3    3    0    0 -0.80153251987E+00 -0.21104066473E+01 -0.17110436755E+01  0.28326562301E+01  0.51100000000E-03 0.  1.
         12    1    3    3    0    0 -0.30203701756E+02  0.50371837562E+01 -0.29931389333E+01  0.30766795424E+02  0.00000000000E+00 0. -1.
</event>
<event>
 7    1  0.2653124E-010  0.4778728E+02  0.7816164E-02  0.1312668E+00
        -11   -1    0    0    0    0  0.00000000000E+00  0.00000000000E+00  0.45593999997E+02  0.45594000000E+02  0.51100000000E-03 0.  1.
         11   -1    0    0    0    0 -0.00000000000E+00 -0.00000000000E+00 -0.45593999997E+02  0.45594000000E+02  0.51100000000E-03 0. -1.
    9900012    2    1    2    0    0 -0.22653703486E+02  0.24427840600E+02  0.27815693979E+02  0.47787279850E+02  0.20000040146E+02 0.  0.
         12    1    1    2    0    0  0.22653703486E+02 -0.24427840600E+02 -0.27815693979E+02  0.43400720150E+02  0.00000000000E+00 0. -1.
         11    1    3    3    0    0 -0.80658742640E+01  0.12331443034E+02  0.10937339423E+02  0.18350700501E+02  0.51100000000E-03 0. -1.
        -11    1    3    3    0    0 -0.15278714355E+02  0.10120768308E+02  0.74573330401E+01  0.19785875766E+02  0.51100000000E-03 0.  1.
         12    1    3    3    0    0  0.69088513297E+00  0.19756292573E+01  0.94210215165E+01  0.96507035828E+01  0.00000000000E+00 0. -1.
</event>
<event>
 7    1  0.2653124E-010  0.4778727E+02  0.7816164E-02  0.1312668E+00
        -11   -1    0    0    0    0  0.00000000000E+00  0.00000000000E+00  0.45593999997E+02  0.45594000000E+02  0.51100000000E-03 0.  1.
         11   -1    0    0    0    0 -0.00000000000E+00 -0.00000000000E+00 -0.45593999997E+02  0.45594000000E+02  0.51100000000E-03 0. -1.
    9900012    2    1    2    0    0  0.32582203077E+02 -0.14701610044E+02  0.24614755348E+02  0.47787268715E+02  0.19999989378E+02 0.  0.
         12    1    1    2    0    0 -0.32582203077E+02  0.14701610044E+02 -0.24614755348E+02  0.43400731285E+02  0.00000000000E+00 0. -1.
         11    1    3    3    0    0  0.14013846704E+02 -0.47910463405E+01  0.99165079508E+01  0.17823556174E+02  0.51100000000E-03 0. -1.
        -11    1    3    3    0    0  0.18900126867E+02 -0.29414408901E+01  0.11060886657E+02  0.22095476551E+02  0.51100000000E-03 0.  1.
         12    1    3    3    0    0 -0.33177049316E+00 -0.69691228138E+01  0.36373607395E+01  0.78682359906E+01  0.00000000000E+00 0. -1.
</event>
<event>
 7    1  0.2653124E-010  0.4778727E+02  0.7816164E-02  0.1312668E+00
        -11   -1    0    0    0    0  0.00000000000E+00  0.00000000000E+00  0.45593999997E+02  0.45594000000E+02  0.51100000000E-03 0.  1.
         11   -1    0    0    0    0 -0.00000000000E+00 -0.00000000000E+00 -0.45593999997E+02  0.45594000000E+02  0.51100000000E-03 0. -1.
    9900012    2    1    2    0    0  0.11260504430E+02  0.39801589218E+02  0.13139931116E+02  0.47787271273E+02  0.20000001044E+02 0.  0.
         12    1    1    2    0    0 -0.11260504430E+02 -0.39801589218E+02 -0.13139931116E+02  0.43400728727E+02  0.00000000000E+00 0. -1.
         11    1    3    3    0    0  0.57705263300E+01  0.16010912973E+02  0.21022117007E+01  0.17148399419E+02  0.51100000000E-03 0. -1.
        -11    1    3    3    0    0  0.44427616370E+01  0.24578395532E+02  0.63497551746E+01  0.25771205810E+02  0.51100000000E-03 0.  1.
         12    1    3    3    0    0  0.10472164632E+01 -0.78771928684E+00  0.46879642406E+01  0.48676660441E+01  0.00000000000E+00 0. -1.
</event>
<event>
 7    1  0.2653124E-010  0.4778726E+02  0.7816164E-02  0.1312668E+00
        -11   -1    0    0    0    0  0.00000000000E+00  0.00000000000E+00  0.45593999997E+02  0.45594000000E+02  0.51100000000E-03 0. -1.
         11   -1    0    0    0    0 -0.00000000000E+00 -0.00000000000E+00 -0.45593999997E+02  0.45594000000E+02  0.51100000000E-03 0.  1.
    9900012    2    1    2    0    0  0.13425622858E+02 -0.27733836480E+02 -0.30564861957E+02  0.47787264736E+02  0.19999971237E+02 0.  0.
         12    1    1    2    0    0 -0.13425622858E+02  0.27733836480E+02  0.30564861957E+02  0.43400735264E+02  0.00000000000E+00 0. -1.
         11    1    3    3    0    0  0.25582892161E+01 -0.15711480419E+02 -0.65187132295E+01  0.17201426776E+02  0.51100000000E-03 0. -1.
        -11    1    3    3    0    0  0.75148860262E+01 -0.57011608443E+01 -0.60161645615E+01  0.11187983878E+02  0.51100000000E-03 0.  1.
         12    1    3    3    0    0  0.33524476156E+01 -0.63211952160E+01 -0.18029984166E+02  0.19397854083E+02  0.00000000000E+00 0. -1.
</event>
<event>
 7    1  0.2653124E-010  0.4778730E+02  0.7816164E-02  0.1312668E+00
        -11   -1    0    0    0    0  0.00000000000E+00  0.00000000000E+00  0.45593999997E+02  0.45594000000E+02  0.51100000000E-03 0.  1.
         11   -1    0    0    0    0 -0.00000000000E+00 -0.00000000000E+00 -0.45593999997E+02  0.45594000000E+02  0.51100000000E-03 0. -1.
    9900012    2    1    2    0    0 -0.20920485408E+00 -0.41080427500E+02  0.13999136722E+02  0.47787295867E+02  0.20000113177E+02 0.  0.
         12    1    1    2    0    0  0.20920485408E+00  0.41080427500E+02 -0.13999136722E+02  0.43400704133E+02  0.00000000000E+00 0. -1.
         11    1    3    3    0    0 -0.32250453494E+01 -0.42041225339E+00 -0.78558865646E+00  0.33458651746E+01  0.51100000000E-03 0. -1.
        -11    1    3    3    0    0  0.67894257330E+00 -0.80927157999E+01 -0.98671282103E+00  0.81808688101E+01  0.51100000000E-03 0.  1.
        -12    1    3    3    0    0  0.23368979220E+01 -0.32567299447E+02  0.15771438200E+02  0.36260561883E+02  0.00000000000E+00 0.  1.
</event>
<event>
 7    1  0.2653124E-010  0.4778726E+02  0.7816164E-02  0.1312668E+00
        -11   -1    0    0    0    0  0.00000000000E+00  0.00000000000E+00  0.45593999997E+02  0.45594000000E+02  0.51100000000E-03 0. -1.
         11   -1    0    0    0    0 -0.00000000000E+00 -0.00000000000E+00 -0.45593999997E+02  0.45594000000E+02  0.51100000000E-03 0.  1.
    9900012    2    1    2    0    0  0.36585662323E+02 -0.75729345738E+01 -0.22085376684E+02  0.47787263959E+02  0.19999967694E+02 0.  0.
         12    1    1    2    0    0 -0.36585662323E+02  0.75729345738E+01  0.22085376684E+02  0.43400736041E+02  0.00000000000E+00 0. -1.
         11    1    3    3    0    0 -0.23036725780E-01 -0.19477581492E+01 -0.22773010712E+01  0.29967303731E+01  0.51100000000E-03 0. -1.
        -11    1    3    3    0    0  0.15230978595E+02  0.52452603156E+01 -0.65737695224E+01  0.17398560594E+02  0.51100000000E-03 0.  1.
         12    1    3    3    0    0  0.21377720453E+02 -0.10870436740E+02 -0.13234306090E+02  0.27391972992E+02  0.00000000000E+00 0. -1.
</event>
<event>
 7    1  0.2653124E-010  0.4778728E+02  0.7816164E-02  0.1312668E+00
        -11   -1    0    0    0    0  0.00000000000E+00  0.00000000000E+00  0.45593999997E+02  0.45594000000E+02  0.51100000000E-03 0. -1.
         11   -1    0    0    0    0 -0.00000000000E+00 -0.00000000000E+00 -0.45593999997E+02  0.45594000000E+02  0.51100000000E-03 0.  1.
    9900012    2    1    2    0    0  0.27813917928E+02 -0.11425508904E+02 -0.31296427027E+02  0.47787278475E+02  0.20000033880E+02 0.  0.
         12    1    1    2    0    0 -0.27813917928E+02  0.11425508904E+02  0.31296427027E+02  0.43400721525E+02  0.00000000000E+00 0. -1.
         11    1    3    3    0    0  0.12390381677E+02 -0.59456946613E+01 -0.22509394186E+01  0.13926218856E+02  0.51100000000E-03 0. -1.
        -11    1    3    3    0    0  0.24386562385E+01 -0.34593445378E+01 -0.62311904538E+01  0.75327182089E+01  0.51100000000E-03 0.  1.
         12    1    3    3    0    0  0.12984880013E+02 -0.20204697051E+01 -0.22814297154E+02  0.26328341410E+02  0.00000000000E+00 0. -1.
</event>
<event>
 7    1  0.2653124E-010  0.4778727E+02  0.7816164E-02  0.1312668E+00
        -11   -1    0    0    0    0  0.00000000000E+00  0.00000000000E+00  0.45593999997E+02  0.45594000000E+02  0.51100000000E-03 0. -1.
         11   -1    0    0    0    0 -0.00000000000E+00 -0.00000000000E+00 -0.45593999997E+02  0.45594000000E+02  0.51100000000E-03 0.  1.
    9900012    2    1    2    0    0 -0.12902679835E+02 -0.41343938801E+02 -0.27970032140E+01  0.47787266718E+02  0.19999980272E+02 0.  0.
         12    1    1    2    0    0  0.12902679835E+02  0.41343938801E+02  0.27970032140E+01  0.43400733282E+02  0.00000000000E+00 0. -1.
         11    1    3    3    0    0 -0.60813621804E+00 -0.41459827883E+01  0.37229815031E+01  0.56053184097E+01  0.51100000000E-03 0. -1.
        -11    1    3    3    0    0 -0.12009925488E+02 -0.13892892694E+02 -0.31569983951E+01  0.18633770868E+02  0.51100000000E-03 0.  1.
        -12    1    3    3    0    0 -0.28461812968E+00 -0.23305063318E+02 -0.33629863220E+01  0.23548177440E+02  0.00000000000E+00 0.  1.
</event>
<event>
 7    1  0.2653124E-010  0.4778728E+02  0.7816164E-02  0.1312668E+00
        -11   -1    0    0    0    0  0.00000000000E+00  0.00000000000E+00  0.45593999997E+02  0.45594000000E+02  0.51100000000E-03 0. -1.
         11   -1    0    0    0    0 -0.00000000000E+00 -0.00000000000E+00 -0.45593999997E+02  0.45594000000E+02  0.51100000000E-03 0.  1.
    9900012    2    1    2    0    0  0.99031157590E+01 -0.24372273029E+02 -0.34518741275E+02  0.47787275426E+02  0.20000019976E+02 0.  0.
         12    1    1    2    0    0 -0.99031157590E+01  0.24372273029E+02  0.34518741275E+02  0.43400724574E+02  0.00000000000E+00 0. -1.
         11    1    3    3    0    0 -0.27555268353E+01  0.40095896660E+00 -0.11098700192E+01  0.29975836858E+01  0.51100000000E-03 0. -1.
        -11    1    3    3    0    0  0.78716621424E+01 -0.46419381454E+01 -0.10422716453E+02  0.13861589849E+02  0.51100000000E-03 0.  1.
         12    1    3    3    0    0  0.47869804519E+01 -0.20131293850E+02 -0.22986154803E+02  0.30928101891E+02  0.00000000000E+00 0. -1.
</event>
<event>
 7    1  0.2653124E-010  0.4778727E+02  0.7816164E-02  0.1312668E+00
        -11   -1    0    0    0    0  0.00000000000E+00  0.00000000000E+00  0.45593999997E+02  0.45594000000E+02  0.51100000000E-03 0.  1.
         11   -1    0    0    0    0 -0.00000000000E+00 -0.00000000000E+00 -0.45593999997E+02  0.45594000000E+02  0.51100000000E-03 0. -1.
    9900012    2    1    2    0    0  0.12654701105E+02  0.29157705886E+02  0.29551822528E+02  0.47787268585E+02  0.19999988787E+02 0.  0.
         12    1    1    2    0    0 -0.12654701105E+02 -0.29157705886E+02 -0.29551822528E+02  0.43400731415E+02  0.00000000000E+00 0. -1.
         11    1    3    3    0    0  0.36932180161E+01  0.10928336509E+01  0.82081126433E+01  0.90668218318E+01  0.51100000000E-03 0. -1.
        -11    1    3    3    0    0  0.45726126105E-01  0.12303261182E+02  0.15293071240E+02  0.19627795464E+02  0.51100000000E-03 0.  1.
         12    1    3    3    0    0  0.89157569631E+01  0.15761611054E+02  0.60506386447E+01  0.19092651289E+02  0.00000000000E+00 0. -1.
</event>
<event>
 7    1  0.2653124E-010  0.4778727E+02  0.7816164E-02  0.1312668E+00
        -11   -1    0    0    0    0  0.00000000000E+00  0.00000000000E+00  0.45593999997E+02  0.45594000000E+02  0.51100000000E-03 0.  1.
         11   -1    0    0    0    0 -0.00000000000E+00 -0.00000000000E+00 -0.45593999997E+02  0.45594000000E+02  0.51100000000E-03 0. -1.
    9900012    2    1    2    0    0  0.15666985015E+02 -0.38180816372E+02 -0.13431086504E+02  0.47787271401E+02  0.20000001624E+02 0.  0.
         12    1    1    2    0    0 -0.15666985015E+02  0.38180816372E+02  0.13431086504E+02  0.43400728599E+02  0.00000000000E+00 0. -1.
         11    1    3    3    0    0  0.11280786685E+02 -0.24367219402E+02 -0.12696143931E+02  0.29702013410E+02  0.51100000000E-03 0. -1.
        -11    1    3    3    0    0  0.70889563993E+01 -0.13478410559E+02  0.12433446527E+00  0.15229455451E+02  0.51100000000E-03 0.  1.
         12    1    3    3    0    0 -0.27027580697E+01 -0.33518641037E+00 -0.85927703797E+00  0.28558025388E+01  0.00000000000E+00 0. -1.
</event>
<event>
 7    1  0.2653124E-010  0.4778726E+02  0.7816164E-02  0.1312668E+00
        -11   -1    0    0    0    0  0.00000000000E+00  0.00000000000E+00  0.45593999997E+02  0.45594000000E+02  0.51100000000E-03 0.  1.
         11   -1    0    0    0    0 -0.00000000000E+00 -0.00000000000E+00 -0.45593999997E+02  0.45594000000E+02  0.51100000000E-03 0. -1.
    9900012    2    1    2    0    0  0.55098254808E+01 -0.29188144372E+02  0.31643608887E+02  0.47787263461E+02  0.19999965424E+02 0.  0.
         12    1    1    2    0    0 -0.55098254808E+01  0.29188144372E+02 -0.31643608887E+02  0.43400736539E+02  0.00000000000E+00 0. -1.
         11    1    3    3    0    0  0.30340551913E+01 -0.17623160852E+01  0.10472658319E+02  0.11044809705E+02  0.51100000000E-03 0. -1.
        -11    1    3    3    0    0 -0.23456938096E+01 -0.13598171464E+02  0.16193838869E+02  0.21275642510E+02  0.51100000000E-03 0.  1.
        -12    1    3    3    0    0  0.48214640991E+01 -0.13827656823E+02  0.49771116988E+01  0.15466811247E+02  0.00000000000E+00 0.  1.
</event>
<event>
 7    1  0.2653124E-010  0.4778724E+02  0.7816164E-02  0.1312668E+00
        -11   -1    0    0    0    0  0.00000000000E+00  0.00000000000E+00  0.45593999997E+02  0.45594000000E+02  0.51100000000E-03 0.  1.
         11   -1    0    0    0    0 -0.00000000000E+00 -0.00000000000E+00 -0.45593999997E+02  0.45594000000E+02  0.51100000000E-03 0. -1.
    9900012    2    1    2    0    0  0.24618568143E+02 -0.62267031768E+01  0.35196315764E+02  0.47787235338E+02  0.19999837201E+02 0.  0.
         12    1    1    2    0    0 -0.24618568143E+02  0.62267031768E+01 -0.35196315764E+02  0.43400764662E+02  0.00000000000E+00 0. -1.
         11    1    3    3    0    0 -0.90524146455E+00  0.11865088063E+01  0.36096347976E+00  0.15354348412E+01  0.51100000000E-03 0. -1.
        -11    1    3    3    0    0  0.58529674634E+01  0.31448071342E+01  0.14928371646E+02  0.16340236237E+02  0.51100000000E-03 0.  1.
        -12    1    3    3    0    0  0.19670842144E+02 -0.10558019117E+02  0.19906980639E+02  0.29911564260E+02  0.00000000000E+00 0.  1.
</event>
<event>
 7    1  0.2653124E-010  0.4778726E+02  0.7816164E-02  0.1312668E+00
        -11   -1    0    0    0    0  0.00000000000E+00  0.00000000000E+00  0.45593999997E+02  0.45594000000E+02  0.51100000000E-03 0.  1.
         11   -1    0    0    0    0 -0.00000000000E+00 -0.00000000000E+00 -0.45593999997E+02  0.45594000000E+02  0.51100000000E-03 0. -1.
    9900012    2    1    2    0    0  0.14733999616E+01  0.13219888038E+02  0.41312076190E+02  0.47787262837E+02  0.19999962578E+02 0.  0.
         12    1    1    2    0    0 -0.14733999616E+01 -0.13219888038E+02 -0.41312076190E+02  0.43400737163E+02  0.00000000000E+00 0. -1.
         11    1    3    3    0    0 -0.11612088419E+01  0.99178817800E+00  0.12779137923E+02  0.12870058900E+02  0.51100000000E-03 0. -1.
        -11    1    3    3    0    0 -0.49479244534E+01  0.10937951044E+02  0.13752043025E+02  0.18254846399E+02  0.51100000000E-03 0.  1.
         12    1    3    3    0    0  0.75825332569E+01  0.12901488153E+01  0.14780895242E+02  0.16662357537E+02  0.00000000000E+00 0. -1.
</event>
<event>
 7    1  0.2653124E-010  0.4778727E+02  0.7816164E-02  0.1312668E+00
        -11   -1    0    0    0    0  0.00000000000E+00  0.00000000000E+00  0.45593999997E+02  0.45594000000E+02  0.51100000000E-03 0.  1.
         11   -1    0    0    0    0 -0.00000000000E+00 -0.00000000000E+00 -0.45593999997E+02  0.45594000000E+02  0.51100000000E-03 0. -1.
    9900012    2    1    2    0    0 -0.37133994341E+02  0.10583623621E+00  0.22465051712E+02  0.47787270911E+02  0.19999999391E+02 0.  0.
         12    1    1    2    0    0  0.37133994341E+02 -0.10583623621E+00 -0.22465051712E+02  0.43400729089E+02  0.00000000000E+00 0. -1.
         11    1    3    3    0    0 -0.82227207639E+01  0.48074987603E+01  0.93965214249E+01  0.13379827960E+02  0.51100000000E-03 0. -1.
        -11    1    3    3    0    0 -0.33676019955E+01  0.13448539598E+01  0.63488297543E+01  0.73114304266E+01  0.51100000000E-03 0.  1.
        -12    1    3    3    0    0 -0.25543671582E+02 -0.60465164839E+01  0.67197005332E+01  0.27096012524E+02  0.00000000000E+00 0.  1.
</event>
<event>
 7    1  0.2653124E-010  0.4778726E+02  0.7816164E-02  0.1312668E+00
        -11   -1    0    0    0    0  0.00000000000E+00  0.00000000000E+00  0.45593999997E+02  0.45594000000E+02  0.51100000000E-03 0. -1.
         11   -1    0    0    0    0 -0.00000000000E+00 -0.00000000000E+00 -0.45593999997E+02  0.45594000000E+02  0.51100000000E-03 0.  1.
    9900012    2    1    2    0    0 -0.27292693503E+02 -0.24490249506E+02 -0.23215532995E+02  0.47787257936E+02  0.19999940232E+02 0.  0.
         12    1    1    2    0    0  0.27292693503E+02  0.24490249506E+02  0.23215532995E+02  0.43400742064E+02  0.00000000000E+00 0. -1.
         11    1    3    3    0    0 -0.15852110530E+01 -0.33094870685E+01 -0.22223497344E+01  0.42900393171E+01  0.51100000000E-03 0. -1.
        -11    1    3    3    0    0 -0.12454167150E+02 -0.20268744838E+02 -0.85035830940E+01  0.25263396889E+02  0.51100000000E-03 0.  1.
         12    1    3    3    0    0 -0.13253315300E+02 -0.91201760000E+00 -0.12489600166E+02  0.18233821730E+02  0.00000000000E+00 0. -1.
</event>
<event>
 7    1  0.2653124E-010  0.4778727E+02  0.7816164E-02  0.1312668E+00
        -11   -1    0    0    0    0  0.00000000000E+00  0.00000000000E+00  0.45593999997E+02  0.45594000000E+02  0.51100000000E-03 0.  1.
         11   -1    0    0    0    0 -0.00000000000E+00 -0.00000000000E+00 -0.45593999997E+02  0.45594000000E+02  0.51100000000E-03 0. -1.
    9900012    2    1    2    0    0 -0.35844416522E+02  0.24467850511E+02 -0.35443662078E+00  0.47787268096E+02  0.19999986559E+02 0.  0.
         12    1    1    2    0    0  0.35844416522E+02 -0.24467850511E+02  0.35443662078E+00  0.43400731904E+02  0.00000000000E+00 0. -1.
         11    1    3    3    0    0 -0.69213047753E+01  0.99604958632E+01 -0.56087948026E+01  0.13363177655E+02  0.51100000000E-03 0.  1.
        -11    1    3    3    0    0 -0.85020927600E+01  0.99531330431E+01  0.23844488542E+01  0.13305488915E+02  0.51100000000E-03 0. -1.
        -12    1    3    3    0    0 -0.20421018987E+02  0.45542216051E+01  0.28699093276E+01  0.21118601526E+02  0.00000000000E+00 0.  1.
</event>
<event>
 7    1  0.2653124E-010  0.4778727E+02  0.7816164E-02  0.1312668E+00
        -11   -1    0    0    0    0  0.00000000000E+00  0.00000000000E+00  0.45593999997E+02  0.45594000000E+02  0.51100000000E-03 0.  1.
         11   -1    0    0    0    0 -0.00000000000E+00 -0.00000000000E+00 -0.45593999997E+02  0.45594000000E+02  0.51100000000E-03 0. -1.
    9900012    2    1    2    0    0  0.88898366350E+01 -0.14579694193E+02  0.39900208319E+02  0.47787270720E+02  0.19999998520E+02 0.  0.
         12    1    1    2    0    0 -0.88898366350E+01  0.14579694193E+02 -0.39900208319E+02  0.43400729280E+02  0.00000000000E+00 0. -1.
         11    1    3    3    0    0  0.78446221827E+00 -0.10558775404E+02  0.12017225621E+02  0.16016142822E+02  0.51100000000E-03 0. -1.
        -11    1    3    3    0    0  0.47817700706E+01 -0.82059924326E+01  0.14219329275E+02  0.17099501809E+02  0.51100000000E-03 0.  1.
        -12    1    3    3    0    0  0.33236043461E+01  0.41850736432E+01  0.13663653422E+02  0.14671626089E+02  0.00000000000E+00 0.  1.
</event>
<event>
 7    1  0.2653124E-010  0.4778727E+02  0.7816164E-02  0.1312668E+00
        -11   -1    0    0    0    0  0.00000000000E+00  0.00000000000E+00  0.45593999997E+02  0.45594000000E+02  0.51100000000E-03 0. -1.
         11   -1    0    0    0    0 -0.00000000000E+00 -0.00000000000E+00 -0.45593999997E+02  0.45594000000E+02  0.51100000000E-03 0.  1.
    9900012    2    1    2    0    0  0.43121204780E+02 -0.39985779679E+01 -0.28629501778E+01  0.47787269463E+02  0.19999992791E+02 0.  0.
         12    1    1    2    0    0 -0.43121204780E+02  0.39985779679E+01  0.28629501778E+01  0.43400730537E+02  0.00000000000E+00 0. -1.
         11    1    3    3    0    0  0.18691763300E+02  0.41294198453E+01  0.28059955819E+01  0.19347034268E+02  0.51100000000E-03 0. -1.
        -11    1    3    3    0    0  0.19855878056E+02 -0.32260973134E+01 -0.75933422131E+00  0.20130578381E+02  0.51100000000E-03 0.  1.
         12    1    3    3    0    0  0.45735634240E+01 -0.49019004998E+01 -0.49096115384E+01  0.83096568137E+01  0.00000000000E+00 0. -1.
</event>
<event>
 7    1  0.2653124E-010  0.4778726E+02  0.7816164E-02  0.1312668E+00
        -11   -1    0    0    0    0  0.00000000000E+00  0.00000000000E+00  0.45593999997E+02  0.45594000000E+02  0.51100000000E-03 0.  1.
         11   -1    0    0    0    0 -0.00000000000E+00 -0.00000000000E+00 -0.45593999997E+02  0.45594000000E+02  0.51100000000E-03 0. -1.
    9900012    2    1    2    0    0  0.14643691653E+02 -0.48233551424E+01  0.40569957408E+02  0.47787263783E+02  0.19999966893E+02 0.  0.
         12    1    1    2    0    0 -0.14643691653E+02  0.48233551424E+01 -0.40569957408E+02  0.43400736217E+02  0.00000000000E+00 0. -1.
         11    1    3    3    0    0 -0.16628148495E+01  0.45637807449E+01  0.49474940903E+01  0.69333069993E+01  0.51100000000E-03 0. -1.
        -11    1    3    3    0    0  0.61730260010E+01 -0.32712420956E+00  0.84338873563E+01  0.10456754585E+02  0.51100000000E-03 0.  1.
         12    1    3    3    0    0  0.10133480502E+02 -0.90600116778E+01  0.27188575962E+02  0.30397202199E+02  0.00000000000E+00 0. -1.
</event>
<event>
 7    1  0.2653124E-010  0.4778727E+02  0.7816164E-02  0.1312668E+00
        -11   -1    0    0    0    0  0.00000000000E+00  0.00000000000E+00  0.45593999997E+02  0.45594000000E+02  0.51100000000E-03 0.  1.
         11   -1    0    0    0    0 -0.00000000000E+00 -0.00000000000E+00 -0.45593999997E+02  0.45594000000E+02  0.51100000000E-03 0. -1.
    9900012    2    1    2    0    0  0.18015103574E+02 -0.32830980548E+02  0.21936411949E+02  0.47787269480E+02  0.19999992865E+02 0.  0.
         12    1    1    2    0    0 -0.18015103574E+02  0.32830980548E+02 -0.21936411949E+02  0.43400730520E+02  0.00000000000E+00 0. -1.
         11    1    3    3    0    0  0.46190413814E+01 -0.52325394479E+01  0.54560782638E+01  0.88591084562E+01  0.51100000000E-03 0. -1.
        -11    1    3    3    0    0  0.41068051855E+01 -0.17408203358E+02  0.59900571620E+00  0.17896094576E+02  0.51100000000E-03 0.  1.
        -12    1    3    3    0    0  0.92892570076E+01 -0.10190237742E+02  0.15881327969E+02  0.21032066447E+02  0.00000000000E+00 0.  1.
</event>
<event>
 7    1  0.2653124E-010  0.4778727E+02  0.7816164E-02  0.1312668E+00
        -11   -1    0    0    0    0  0.00000000000E+00  0.00000000000E+00  0.45593999997E+02  0.45594000000E+02  0.51100000000E-03 0.  1.
         11   -1    0    0    0    0 -0.00000000000E+00 -0.00000000000E+00 -0.45593999997E+02  0.45594000000E+02  0.51100000000E-03 0. -1.
    9900012    2    1    2    0    0 -0.12749514317E+02 -0.18194572121E+02  0.37283115946E+02  0.47787270690E+02  0.19999998385E+02 0.  0.
         12    1    1    2    0    0  0.12749514317E+02  0.18194572121E+02 -0.37283115946E+02  0.43400729310E+02  0.00000000000E+00 0. -1.
         11    1    3    3    0    0  0.31811016010E+01 -0.38582830832E+00  0.26111313692E+01  0.41335551487E+01  0.51100000000E-03 0. -1.
        -11    1    3    3    0    0 -0.43041968440E+01 -0.36984492700E+01  0.18131586864E+02  0.18998923126E+02  0.51100000000E-03 0.  1.
        -12    1    3    3    0    0 -0.11626419074E+02 -0.14110294543E+02  0.16540397713E+02  0.24654792416E+02  0.00000000000E+00 0.  1.
</event>
<event>
 7    1  0.2653124E-010  0.4778727E+02  0.7816164E-02  0.1312668E+00
        -11   -1    0    0    0    0  0.00000000000E+00  0.00000000000E+00  0.45593999997E+02  0.45594000000E+02  0.51100000000E-03 0.  1.
         11   -1    0    0    0    0 -0.00000000000E+00 -0.00000000000E+00 -0.45593999997E+02  0.45594000000E+02  0.51100000000E-03 0. -1.
    9900012    2    1    2    0    0  0.27974571935E+02  0.33174490286E+02 -0.70727960669E+00  0.47787265846E+02  0.19999976299E+02 0.  0.
         12    1    1    2    0    0 -0.27974571935E+02 -0.33174490286E+02  0.70727960669E+00  0.43400734154E+02  0.00000000000E+00 0. -1.
         11    1    3    3    0    0  0.15373351468E+02  0.20984301767E+02 -0.48554484599E+01  0.26462355074E+02  0.51100000000E-03 0.  1.
        -11    1    3    3    0    0  0.76258459794E+01  0.10703660783E+02 -0.19820630209E+01  0.13290991503E+02  0.51100000000E-03 0. -1.
         12    1    3    3    0    0  0.49753744869E+01  0.14865277352E+01  0.61302318742E+01  0.80339192692E+01  0.00000000000E+00 0. -1.
</event>
<event>
 7    1  0.2653124E-010  0.4778727E+02  0.7816164E-02  0.1312668E+00
        -11   -1    0    0    0    0  0.00000000000E+00  0.00000000000E+00  0.45593999997E+02  0.45594000000E+02  0.51100000000E-03 0. -1.
         11   -1    0    0    0    0 -0.00000000000E+00 -0.00000000000E+00 -0.45593999997E+02  0.45594000000E+02  0.51100000000E-03 0.  1.
    9900012    2    1    2    0    0 -0.14580427035E+02  0.27393204804E+02 -0.30342162265E+02  0.47787270365E+02  0.19999996903E+02 0.  0.
         12    1    1    2    0    0  0.14580427035E+02 -0.27393204804E+02  0.30342162265E+02  0.43400729635E+02  0.00000000000E+00 0. -1.
         11    1    3    3    0    0  0.17322581328E+01 -0.85935815496E+00 -0.35601537520E+00  0.19662049450E+01  0.51100000000E-03 0. -1.
        -11    1    3    3    0    0 -0.47791598176E+01  0.31482699851E+01 -0.10680448777E+02  0.12117093662E+02  0.51100000000E-03 0.  1.
        -12    1    3    3    0    0 -0.11533525351E+02  0.25104292973E+02 -0.19305698112E+02  0.33703971759E+02  0.00000000000E+00 0.  1.
</event>
<event>
 7    1  0.2653124E-010  0.4778727E+02  0.7816164E-02  0.1312668E+00
        -11   -1    0    0    0    0  0.00000000000E+00  0.00000000000E+00  0.45593999997E+02  0.45594000000E+02  0.51100000000E-03 0.  1.
         11   -1    0    0    0    0 -0.00000000000E+00 -0.00000000000E+00 -0.45593999997E+02  0.45594000000E+02  0.51100000000E-03 0. -1.
    9900012    2    1    2    0    0 -0.25039858346E+02 -0.35357118085E+02 -0.25501555471E+01  0.47787267304E+02  0.19999982946E+02 0.  0.
         12    1    1    2    0    0  0.25039858346E+02  0.35357118085E+02  0.25501555471E+01  0.43400732696E+02  0.00000000000E+00 0. -1.
         11    1    3    3    0    0 -0.61702050017E+01 -0.87694662646E+00 -0.47534258833E+01  0.78380815917E+01  0.51100000000E-03 0. -1.
        -11    1    3    3    0    0 -0.16545611910E+01 -0.86255597596E+01 -0.29106977766E+00  0.87876376677E+01  0.51100000000E-03 0.  1.
         12    1    3    3    0    0 -0.17215092153E+02 -0.25854611699E+02  0.24943401139E+01  0.31161548045E+02  0.00000000000E+00 0. -1.
</event>
<event>
 7    1  0.2653124E-010  0.4778727E+02  0.7816164E-02  0.1312668E+00
        -11   -1    0    0    0    0  0.00000000000E+00  0.00000000000E+00  0.45593999997E+02  0.45594000000E+02  0.51100000000E-03 0. -1.
         11   -1    0    0    0    0 -0.00000000000E+00 -0.00000000000E+00 -0.45593999997E+02  0.45594000000E+02  0.51100000000E-03 0.  1.
    9900012    2    1    2    0    0  0.48713328708E+01 -0.40612917659E+02  0.14508075543E+02  0.47787271657E+02  0.20000002795E+02 0.  0.
         12    1    1    2    0    0 -0.48713328708E+01  0.40612917659E+02 -0.14508075543E+02  0.43400728343E+02  0.00000000000E+00 0. -1.
         11    1    3    3    0    0  0.45346548521E+01 -0.32196941786E+02  0.14614511354E+02  0.35648142972E+02  0.51100000000E-03 0.  1.
        -11    1    3    3    0    0  0.43517591230E+01 -0.60421743032E+01  0.33683868017E+00  0.74538002611E+01  0.51100000000E-03 0. -1.
        -12    1    3    3    0    0 -0.40150811043E+01 -0.23738015702E+01 -0.44327449143E+00  0.46853284243E+01  0.00000000000E+00 0.  1.
</event>
<event>
 7    1  0.2653124E-010  0.4778727E+02  0.7816164E-02  0.1312668E+00
        -11   -1    0    0    0    0  0.00000000000E+00  0.00000000000E+00  0.45593999997E+02  0.45594000000E+02  0.51100000000E-03 0. -1.
         11   -1    0    0    0    0 -0.00000000000E+00 -0.00000000000E+00 -0.45593999997E+02  0.45594000000E+02  0.51100000000E-03 0.  1.
    9900012    2    1    2    0    0  0.24348057084E+02  0.33407880782E+02 -0.13217736273E+02  0.47787274957E+02  0.20000017837E+02 0.  0.
         12    1    1    2    0    0 -0.24348057084E+02 -0.33407880782E+02  0.13217736273E+02  0.43400725043E+02  0.00000000000E+00 0. -1.
         11    1    3    3    0    0  0.22508057076E+02  0.20455727677E+02 -0.10853720071E+02  0.32293229442E+02  0.51100000000E-03 0. -1.
        -11    1    3    3    0    0  0.12766946703E+01  0.99465164035E+00 -0.31038398965E+01  0.35004433336E+01  0.51100000000E-03 0.  1.
        -12    1    3    3    0    0  0.56330533718E+00  0.11957501465E+02  0.73982369383E+00  0.11993602181E+02  0.00000000000E+00 0.  1.
</event>
<event>
 7    1  0.2653124E-010  0.4778727E+02  0.7816164E-02  0.1312668E+00
        -11   -1    0    0    0    0  0.00000000000E+00  0.00000000000E+00  0.45593999997E+02  0.45594000000E+02  0.51100000000E-03 0.  1.
         11   -1    0    0    0    0 -0.00000000000E+00 -0.00000000000E+00 -0.45593999997E+02  0.45594000000E+02  0.51100000000E-03 0. -1.
    9900012    2    1    2    0    0  0.23475725543E+00  0.13622257034E+02  0.41206821580E+02  0.47787272559E+02  0.20000006904E+02 0.  0.
         12    1    1    2    0    0 -0.23475725543E+00 -0.13622257034E+02 -0.41206821580E+02  0.43400727441E+02  0.00000000000E+00 0. -1.
         11    1    3    3    0    0 -0.54544144966E+01  0.74726693025E+01  0.34477358863E+02  0.35697054478E+02  0.51100000000E-03 0. -1.
        -11    1    3    3    0    0  0.42487278407E+00 -0.10203925107E+01  0.11232902031E+01  0.15759120851E+01  0.51100000000E-03 0.  1.
         12    1    3    3    0    0  0.52642989679E+01  0.71699802426E+01  0.56061725148E+01  0.10514305996E+02  0.00000000000E+00 0. -1.
</event>
<event>
 7    1  0.2653124E-010  0.4778727E+02  0.7816164E-02  0.1312668E+00
        -11   -1    0    0    0    0  0.00000000000E+00  0.00000000000E+00  0.45593999997E+02  0.45594000000E+02  0.51100000000E-03 0.  1.
         11   -1    0    0    0    0 -0.00000000000E+00 -0.00000000000E+00 -0.45593999997E+02  0.45594000000E+02  0.51100000000E-03 0. -1.
    9900012    2    1    2    0    0 -0.62270937853E+01  0.21256319823E+01  0.42899046412E+02  0.47787271995E+02  0.20000004333E+02 0.  0.
         12    1    1    2    0    0  0.62270937853E+01 -0.21256319823E+01 -0.42899046412E+02  0.43400728005E+02  0.00000000000E+00 0. -1.
         11    1    3    3    0    0 -0.19858560855E+01 -0.39723803172E+01  0.31461626452E+01  0.54425884860E+01  0.51100000000E-03 0. -1.
        -11    1    3    3    0    0  0.36697200164E+01 -0.77661258334E+00  0.68088828230E+01  0.77737286847E+01  0.51100000000E-03 0.  1.
        -12    1    3    3    0    0 -0.79109577162E+01  0.68746248829E+01  0.32944000944E+02  0.34570954824E+02  0.00000000000E+00 0.  1.
</event>
<event>
 7    1  0.2653124E-010  0.4778727E+02  0.7816164E-02  0.1312668E+00
        -11   -1    0    0    0    0  0.00000000000E+00  0.00000000000E+00  0.45593999997E+02  0.45594000000E+02  0.51100000000E-03 0.  1.
         11   -1    0    0    0    0 -0.00000000000E+00 -0.00000000000E+00 -0.45593999997E+02  0.45594000000E+02  0.51100000000E-03 0. -1.
    9900012    2    1    2    0    0 -0.84424772316E+01  0.32747328557E+02  0.27202218921E+02  0.47787266554E+02  0.19999979526E+02 0.  0.
         12    1    1    2    0    0  0.84424772316E+01 -0.32747328557E+02 -0.27202218921E+02  0.43400733446E+02  0.00000000000E+00 0. -1.
         11    1    3    3    0    0  0.41034153284E+00  0.14943846265E+02  0.15125589780E+02  0.21266649662E+02  0.51100000000E-03 0. -1.
        -11    1    3    3    0    0 -0.58750632205E+01  0.15261220180E+02  0.14550464912E+02  0.21889203701E+02  0.51100000000E-03 0.  1.
         12    1    3    3    0    0 -0.29777555439E+01  0.25422621121E+01 -0.24738357717E+01  0.46314131916E+01  0.00000000000E+00 0. -1.
</event>
<event>
 7    1  0.2653124E-010  0.4778727E+02  0.7816164E-02  0.1312668E+00
        -11   -1    0    0    0    0  0.00000000000E+00  0.00000000000E+00  0.45593999997E+02  0.45594000000E+02  0.51100000000E-03 0.  1.
         11   -1    0    0    0    0 -0.00000000000E+00 -0.00000000000E+00 -0.45593999997E+02  0.45594000000E+02  0.51100000000E-03 0. -1.
    9900012    2    1    2    0    0  0.40720857359E+02  0.39029803756E+01 -0.14498331017E+02  0.47787273253E+02  0.20000010071E+02 0.  0.
         12    1    1    2    0    0 -0.40720857359E+02 -0.39029803756E+01  0.14498331017E+02  0.43400726747E+02  0.00000000000E+00 0. -1.
         11    1    3    3    0    0  0.13369547919E+02  0.24891663304E+01 -0.20265872101E+01  0.13749466046E+02  0.51100000000E-03 0. -1.
        -11    1    3    3    0    0  0.21993528982E+02  0.77694053277E+01 -0.98676899909E+01  0.25326868781E+02  0.51100000000E-03 0.  1.
         12    1    3    3    0    0  0.53577804575E+01 -0.63555912824E+01 -0.26040538161E+01  0.87109384258E+01  0.00000000000E+00 0. -1.
</event>
<event>
 7    1  0.2653124E-010  0.4778728E+02  0.7816164E-02  0.1312668E+00
        -11   -1    0    0    0    0  0.00000000000E+00  0.00000000000E+00  0.45593999997E+02  0.45594000000E+02  0.51100000000E-03 0.  1.
         11   -1    0    0    0    0 -0.00000000000E+00 -0.00000000000E+00 -0.45593999997E+02  0.45594000000E+02  0.51100000000E-03 0. -1.
    9900012    2    1    2    0    0  0.16070984412E+02 -0.28556373974E+02  0.28458383878E+02  0.47787278261E+02  0.20000032902E+02 0.  0.
         12    1    1    2    0    0 -0.16070984412E+02  0.28556373974E+02 -0.28458383878E+02  0.43400721739E+02  0.00000000000E+00 0. -1.
         11    1    3    3    0    0 -0.10684117785E+01 -0.34550375677E+01  0.39954059961E+01  0.53890683478E+01  0.51100000000E-03 0. -1.
        -11    1    3    3    0    0  0.94440144873E+00  0.14438608434E+01  0.59810541114E+01  0.62249206241E+01  0.51100000000E-03 0.  1.
         12    1    3    3    0    0  0.16194994742E+02 -0.26545197249E+02  0.18481923771E+02  0.36173289289E+02  0.00000000000E+00 0. -1.
</event>
<event>
 7    1  0.2653124E-010  0.4778727E+02  0.7816164E-02  0.1312668E+00
        -11   -1    0    0    0    0  0.00000000000E+00  0.00000000000E+00  0.45593999997E+02  0.45594000000E+02  0.51100000000E-03 0. -1.
         11   -1    0    0    0    0 -0.00000000000E+00 -0.00000000000E+00 -0.45593999997E+02  0.45594000000E+02  0.51100000000E-03 0.  1.
    9900012    2    1    2    0    0 -0.34759621811E+02 -0.13507761819E+02  0.22202080317E+02  0.47787270649E+02  0.19999998197E+02 0.  0.
         12    1    1    2    0    0  0.34759621811E+02  0.13507761819E+02 -0.22202080317E+02  0.43400729351E+02  0.00000000000E+00 0. -1.
         11    1    3    3    0    0 -0.61017531125E+01 -0.22189222725E+01  0.11025766926E+02  0.12795411040E+02  0.51100000000E-03 0. -1.
        -11    1    3    3    0    0  0.70995091205E-02 -0.30987779544E+01  0.23858174130E+01  0.39108311397E+01  0.51100000000E-03 0.  1.
        -12    1    3    3    0    0 -0.28664968207E+02 -0.81900615919E+01  0.87904959779E+01  0.31081028470E+02  0.00000000000E+00 0.  1.
</event>
<event>
 7    1  0.2653124E-010  0.4778727E+02  0.7816164E-02  0.1312668E+00
        -11   -1    0    0    0    0  0.00000000000E+00  0.00000000000E+00  0.45593999997E+02  0.45594000000E+02  0.51100000000E-03 0. -1.
         11   -1    0    0    0    0 -0.00000000000E+00 -0.00000000000E+00 -0.45593999997E+02  0.45594000000E+02  0.51100000000E-03 0.  1.
    9900012    2    1    2    0    0 -0.54020465495E+01  0.14540305992E+02 -0.40534189483E+02  0.47787272790E+02  0.20000007960E+02 0.  0.
         12    1    1    2    0    0  0.54020465495E+01 -0.14540305992E+02  0.40534189483E+02  0.43400727210E+02  0.00000000000E+00 0. -1.
         11    1    3    3    0    0  0.15534294933E+01  0.10716983007E+02 -0.82430028173E+01  0.13609333697E+02  0.51100000000E-03 0. -1.
        -11    1    3    3    0    0 -0.61331267189E+00 -0.14432867759E+01 -0.10994815718E+01  0.19152256105E+01  0.51100000000E-03 0.  1.
        -12    1    3    3    0    0 -0.63421633709E+01  0.52666097605E+01 -0.31191705094E+02  0.32262713483E+02  0.00000000000E+00 0.  1.
</event>
<event>
 7    1  0.2653124E-010  0.4778727E+02  0.7816164E-02  0.1312668E+00
        -11   -1    0    0    0    0  0.00000000000E+00  0.00000000000E+00  0.45593999997E+02  0.45594000000E+02  0.51100000000E-03 0. -1.
         11   -1    0    0    0    0 -0.00000000000E+00 -0.00000000000E+00 -0.45593999997E+02  0.45594000000E+02  0.51100000000E-03 0.  1.
    9900012    2    1    2    0    0 -0.21366594056E+02  0.36702316624E+02 -0.89460645039E+01  0.47787268932E+02  0.19999990369E+02 0.  0.
         12    1    1    2    0    0  0.21366594056E+02 -0.36702316624E+02  0.89460645039E+01  0.43400731068E+02  0.00000000000E+00 0. -1.
         11    1    3    3    0    0 -0.82744914892E+00  0.19247390195E+01  0.20809353553E+01  0.29528942753E+01  0.51100000000E-03 0. -1.
        -11    1    3    3    0    0 -0.99737107023E+01  0.90465936406E+01  0.28279649074E+01  0.13759111434E+02  0.51100000000E-03 0.  1.
        -12    1    3    3    0    0 -0.10565434205E+02  0.25730983964E+02 -0.13854964767E+02  0.31075263223E+02  0.00000000000E+00 0.  1.
</event>
<event>
 7    1  0.2653124E-010  0.4778729E+02  0.7816164E-02  0.1312668E+00
        -11   -1    0    0    0    0  0.00000000000E+00  0.00000000000E+00  0.45593999997E+02  0.45594000000E+02  0.51100000000E-03 0.  1.
         11   -1    0    0    0    0 -0.00000000000E+00 -0.00000000000E+00 -0.45593999997E+02  0.45594000000E+02  0.51100000000E-03 0. -1.
    9900012    2    1    2    0    0 -0.15830856048E+02  0.30996180035E+02  0.25927634860E+02  0.47787292294E+02  0.20000096886E+02 0.  0.
         12    1    1    2    0    0  0.15830856048E+02 -0.30996180035E+02 -0.25927634860E+02  0.43400707706E+02  0.00000000000E+00 0. -1.
         11    1    3    3    0    0 -0.20426230846E+01 -0.19767814640E+00  0.48578628198E+00  0.21088798657E+01  0.51100000000E-03 0. -1.
        -11    1    3    3    0    0 -0.50422652535E+01 -0.49183488766E+00  0.33260640233E+01  0.60604490421E+01  0.51100000000E-03 0.  1.
        -12    1    3    3    0    0 -0.87459677094E+01  0.31685693069E+02  0.22115784555E+02  0.39617963386E+02  0.00000000000E+00 0.  1.
</event>
<event>
 7    1  0.2653124E-010  0.4778727E+02  0.7816164E-02  0.1312668E+00
        -11   -1    0    0    0    0  0.00000000000E+00  0.00000000000E+00  0.45593999997E+02  0.45594000000E+02  0.51100000000E-03 0.  1.
         11   -1    0    0    0    0 -0.00000000000E+00 -0.00000000000E+00 -0.45593999997E+02  0.45594000000E+02  0.51100000000E-03 0. -1.
    9900012    2    1    2    0    0  0.19322445705E+01 -0.35318628002E+02  0.25149232327E+02  0.47787274895E+02  0.20000017556E+02 0.  0.
         12    1    1    2    0    0 -0.19322445705E+01  0.35318628002E+02 -0.25149232327E+02  0.43400725105E+02  0.00000000000E+00 0. -1.
         11    1    3    3    0    0 -0.48372226883E+01 -0.33434450433E+01  0.31210903604E+01  0.66572181421E+01  0.51100000000E-03 0. -1.
        -11    1    3    3    0    0 -0.17163486222E+01 -0.18174476947E+02  0.14250887019E+02  0.23159128782E+02  0.51100000000E-03 0.  1.
        -12    1    3    3    0    0  0.84858158809E+01 -0.13800706012E+02  0.77772549473E+01  0.17970927970E+02  0.00000000000E+00 0.  1.
</event>
<event>
 7    1  0.2653124E-010  0.4778727E+02  0.7816164E-02  0.1312668E+00
        -11   -1    0    0    0    0  0.00000000000E+00  0.00000000000E+00  0.45593999997E+02  0.45594000000E+02  0.51100000000E-03 0.  1.
         11   -1    0    0    0    0 -0.00000000000E+00 -0.00000000000E+00 -0.45593999997E+02  0.45594000000E+02  0.51100000000E-03 0. -1.
    9900012    2    1    2    0    0 -0.19381717424E+02  0.37186338885E+02  0.11186984997E+02  0.47787269554E+02  0.19999993204E+02 0.  0.
         12    1    1    2    0    0  0.19381717424E+02 -0.37186338885E+02 -0.11186984997E+02  0.43400730446E+02  0.00000000000E+00 0. -1.
         11    1    3    3    0    0 -0.30769692285E+01  0.52319852546E+01  0.48591467206E+01  0.77751344973E+01  0.51100000000E-03 0. -1.
        -11    1    3    3    0    0 -0.56931059000E+01  0.27201168461E+02  0.32204012654E+01  0.27976525964E+02  0.51100000000E-03 0.  1.
        -12    1    3    3    0    0 -0.10611642295E+02  0.47531851688E+01  0.31074370111E+01  0.12035609093E+02  0.00000000000E+00 0.  1.
</event>
<event>
 7    1  0.2653124E-010  0.4778726E+02  0.7816164E-02  0.1312668E+00
        -11   -1    0    0    0    0  0.00000000000E+00  0.00000000000E+00  0.45593999997E+02  0.45594000000E+02  0.51100000000E-03 0.  1.
         11   -1    0    0    0    0 -0.00000000000E+00 -0.00000000000E+00 -0.45593999997E+02  0.45594000000E+02  0.51100000000E-03 0. -1.
    9900012    2    1    2    0    0  0.43752878197E+01 -0.33753230377E+02  0.26929544416E+02  0.47787261909E+02  0.19999958346E+02 0.  0.
         12    1    1    2    0    0 -0.43752878197E+01  0.33753230377E+02 -0.26929544416E+02  0.43400738091E+02  0.00000000000E+00 0. -1.
         11    1    3    3    0    0 -0.39772254100E+01 -0.90451712843E+01  0.27528288807E+01  0.10257266333E+02  0.51100000000E-03 0. -1.
        -11    1    3    3    0    0  0.24574933918E+01 -0.22085856415E+02  0.17992671298E+02  0.28593015721E+02  0.51100000000E-03 0.  1.
        -12    1    3    3    0    0  0.58950198379E+01 -0.26222026782E+01  0.61840442381E+01  0.89369798542E+01  0.00000000000E+00 0.  1.
</event>
<event>
 7    1  0.2653124E-010  0.4778727E+02  0.7816164E-02  0.1312668E+00
        -11   -1    0    0    0    0  0.00000000000E+00  0.00000000000E+00  0.45593999997E+02  0.45594000000E+02  0.51100000000E-03 0. -1.
         11   -1    0    0    0    0 -0.00000000000E+00 -0.00000000000E+00 -0.45593999997E+02  0.45594000000E+02  0.51100000000E-03 0.  1.
    9900012    2    1    2    0    0 -0.33624292199E+01  0.21067841613E+02 -0.37795024666E+02  0.47787265329E+02  0.19999973941E+02 0.  0.
         12    1    1    2    0    0  0.33624292199E+01 -0.21067841613E+02  0.37795024666E+02  0.43400734671E+02  0.00000000000E+00 0. -1.
         11    1    3    3    0    0 -0.26292503200E+01  0.15092113029E+02 -0.21195486772E+02  0.26152122145E+02  0.51100000000E-03 0. -1.
        -11    1    3    3    0    0 -0.65487085289E+01  0.41379313572E+01 -0.85748408787E+01  0.11555775858E+02  0.51100000000E-03 0.  1.
         12    1    3    3    0    0  0.58155296291E+01  0.18377972271E+01 -0.80246970153E+01  0.10079367326E+02  0.00000000000E+00 0. -1.
</event>
<event>
 7    1  0.2653124E-010  0.4778727E+02  0.7816164E-02  0.1312668E+00
        -11   -1    0    0    0    0  0.00000000000E+00  0.00000000000E+00  0.45593999997E+02  0.45594000000E+02  0.51100000000E-03 0.  1.
         11   -1    0    0    0    0 -0.00000000000E+00 -0.00000000000E+00 -0.45593999997E+02  0.45594000000E+02  0.51100000000E-03 0. -1.
    9900012    2    1    2    0    0  0.93438705403E+01  0.67332091419E+01  0.41844708776E+02  0.47787266428E+02  0.19999978953E+02 0.  0.
         12    1    1    2    0    0 -0.93438705403E+01 -0.67332091419E+01 -0.41844708776E+02  0.43400733572E+02  0.00000000000E+00 0. -1.
         11    1    3    3    0    0  0.13281651787E+01 -0.15357073192E+01  0.53659080917E+01  0.57371935318E+01  0.51100000000E-03 0. -1.
        -11    1    3    3    0    0  0.62656603956E+01  0.81479910395E+01  0.38220263784E+02  0.39578236723E+02  0.51100000000E-03 0.  1.
         12    1    3    3    0    0  0.17500449659E+01  0.12092542160E+00 -0.17414630995E+01  0.24718361732E+01  0.00000000000E+00 0. -1.
</event>
<event>
 7    1  0.2653124E-010  0.4778727E+02  0.7816164E-02  0.1312668E+00
        -11   -1    0    0    0    0  0.00000000000E+00  0.00000000000E+00  0.45593999997E+02  0.45594000000E+02  0.51100000000E-03 0.  1.
         11   -1    0    0    0    0 -0.00000000000E+00 -0.00000000000E+00 -0.45593999997E+02  0.45594000000E+02  0.51100000000E-03 0. -1.
    9900012    2    1    2    0    0  0.12414867452E+02 -0.25316810661E+02  0.32993230543E+02  0.47787273076E+02  0.20000009264E+02 0.  0.
         12    1    1    2    0    0 -0.12414867452E+02  0.25316810661E+02 -0.32993230543E+02  0.43400726924E+02  0.00000000000E+00 0. -1.
         11    1    3    3    0    0  0.34221383824E+01  0.94952779760E+00  0.27661855869E+01  0.45016016160E+01  0.51100000000E-03 0. -1.
        -11    1    3    3    0    0 -0.10167149669E+01 -0.10592143006E+02  0.45301287397E+01  0.11565001921E+02  0.51100000000E-03 0.  1.
        -12    1    3    3    0    0  0.10009444036E+02 -0.15674195452E+02  0.25696916216E+02  0.31720669539E+02  0.00000000000E+00 0.  1.
</event>
<event>
 7    1  0.2653124E-010  0.4778728E+02  0.7816164E-02  0.1312668E+00
        -11   -1    0    0    0    0  0.00000000000E+00  0.00000000000E+00  0.45593999997E+02  0.45594000000E+02  0.51100000000E-03 0.  1.
         11   -1    0    0    0    0 -0.00000000000E+00 -0.00000000000E+00 -0.45593999997E+02  0.45594000000E+02  0.51100000000E-03 0. -1.
    9900012    2    1    2    0    0  0.36756437253E+02 -0.11909056532E+02 -0.19767675187E+02  0.47787282387E+02  0.20000051714E+02 0.  0.
         12    1    1    2    0    0 -0.36756437253E+02  0.11909056532E+02  0.19767675187E+02  0.43400717613E+02  0.00000000000E+00 0. -1.
         11    1    3    3    0    0  0.15015363987E+02 -0.62755492232E+00 -0.27526030570E+01  0.15278475209E+02  0.51100000000E-03 0. -1.
        -11    1    3    3    0    0  0.10960928619E+02 -0.88763025301E+01 -0.25890000237E+01  0.14339931108E+02  0.51100000000E-03 0.  1.
         12    1    3    3    0    0  0.10780144647E+02 -0.24051990796E+01 -0.14426072107E+02  0.18168876070E+02  0.00000000000E+00 0. -1.
</event>
<event>
 7    1  0.2653124E-010  0.4778727E+02  0.7816164E-02  0.1312668E+00
        -11   -1    0    0    0    0  0.00000000000E+00  0.00000000000E+00  0.45593999997E+02  0.45594000000E+02  0.51100000000E-03 0. -1.
         11   -1    0    0    0    0 -0.00000000000E+00 -0.00000000000E+00 -0.45593999997E+02  0.45594000000E+02  0.51100000000E-03 0.  1.
    9900012    2    1    2    0    0  0.32171469848E+02  0.28969879362E+02 -0.30603922266E+01  0.47787269787E+02  0.19999994267E+02 0.  0.
         12    1    1    2    0    0 -0.32171469848E+02 -0.28969879362E+02  0.30603922266E+01  0.43400730213E+02  0.00000000000E+00 0. -1.
         11    1    3    3    0    0  0.15012787535E+02  0.24085030189E+02 -0.69536914491E+00  0.28389364334E+02  0.51100000000E-03 0. -1.
        -11    1    3    3    0    0  0.43868947040E+01  0.15182581079E+01  0.25602789928E+01  0.53014131709E+01  0.51100000000E-03 0.  1.
        -12    1    3    3    0    0  0.12771787609E+02  0.33665910646E+01 -0.49253020745E+01  0.14096492282E+02  0.00000000000E+00 0.  1.
</event>
<event>
 7    1  0.2653124E-010  0.4778727E+02  0.7816164E-02  0.1312668E+00
        -11   -1    0    0    0    0  0.00000000000E+00  0.00000000000E+00  0.45593999997E+02  0.45594000000E+02  0.51100000000E-03 0.  1.
         11   -1    0    0    0    0 -0.00000000000E+00 -0.00000000000E+00 -0.45593999997E+02  0.45594000000E+02  0.51100000000E-03 0. -1.
    9900012    2    1    2    0    0  0.27595410731E+02 -0.28789947533E+02  0.17124704756E+02  0.47787270913E+02  0.19999999400E+02 0.  0.
         12    1    1    2    0    0 -0.27595410731E+02  0.28789947533E+02 -0.17124704756E+02  0.43400729087E+02  0.00000000000E+00 0. -1.
         11    1    3    3    0    0  0.13962962904E+02 -0.99722946923E+01  0.42443867476E+01  0.17675571097E+02  0.51100000000E-03 0.  1.
        -11    1    3    3    0    0  0.15443300495E+02 -0.18319623204E+02  0.86340284098E+01  0.25468619345E+02  0.51100000000E-03 0. -1.
         12    1    3    3    0    0 -0.18108526676E+01 -0.49802963623E+00  0.42462895984E+01  0.46430804705E+01  0.00000000000E+00 0. -1.
</event>
<event>
 7    1  0.2653124E-010  0.4778727E+02  0.7816164E-02  0.1312668E+00
        -11   -1    0    0    0    0  0.00000000000E+00  0.00000000000E+00  0.45593999997E+02  0.45594000000E+02  0.51100000000E-03 0.  1.
         11   -1    0    0    0    0 -0.00000000000E+00 -0.00000000000E+00 -0.45593999997E+02  0.45594000000E+02  0.51100000000E-03 0. -1.
    9900012    2    1    2    0    0 -0.18727410376E+02 -0.12946143355E+02  0.36950031832E+02  0.47787269827E+02  0.19999994450E+02 0.  0.
         12    1    1    2    0    0  0.18727410376E+02  0.12946143355E+02 -0.36950031832E+02  0.43400730173E+02  0.00000000000E+00 0. -1.
         11    1    3    3    0    0 -0.17848516165E+01  0.23920124042E+01  0.31297479154E+01  0.43246665663E+01  0.51100000000E-03 0. -1.
        -11    1    3    3    0    0 -0.96262541593E+00  0.25906988747E+01  0.66377056853E+01  0.71900977307E+01  0.51100000000E-03 0.  1.
         12    1    3    3    0    0 -0.15979933344E+02 -0.17928854634E+02  0.27182578231E+02  0.36272505530E+02  0.00000000000E+00 0. -1.
</event>
<event>
 7    1  0.2653124E-010  0.4778727E+02  0.7816164E-02  0.1312668E+00
        -11   -1    0    0    0    0  0.00000000000E+00  0.00000000000E+00  0.45593999997E+02  0.45594000000E+02  0.51100000000E-03 0.  1.
         11   -1    0    0    0    0 -0.00000000000E+00 -0.00000000000E+00 -0.45593999997E+02  0.45594000000E+02  0.51100000000E-03 0. -1.
    9900012    2    1    2    0    0  0.93784847598E+01 -0.41423841559E+02  0.89293175987E+01  0.47787270298E+02  0.19999996598E+02 0.  0.
         12    1    1    2    0    0 -0.93784847598E+01  0.41423841559E+02 -0.89293175987E+01  0.43400729702E+02  0.00000000000E+00 0. -1.
         11    1    3    3    0    0  0.23173884491E+01 -0.97161875647E+00  0.38223137766E+01  0.45743212720E+01  0.51100000000E-03 0. -1.
        -11    1    3    3    0    0  0.22100668045E+01 -0.22600914428E+00  0.11525631662E+01  0.25027739664E+01  0.51100000000E-03 0.  1.
         12    1    3    3    0    0  0.48510295061E+01 -0.40226213658E+02  0.39544406560E+01  0.40710175060E+02  0.00000000000E+00 0. -1.
</event>
<event>
 7    1  0.2653124E-010  0.4778727E+02  0.7816164E-02  0.1312668E+00
        -11   -1    0    0    0    0  0.00000000000E+00  0.00000000000E+00  0.45593999997E+02  0.45594000000E+02  0.51100000000E-03 0.  1.
         11   -1    0    0    0    0 -0.00000000000E+00 -0.00000000000E+00 -0.45593999997E+02  0.45594000000E+02  0.51100000000E-03 0. -1.
    9900012    2    1    2    0    0 -0.36130512353E+02 -0.10123729111E+02  0.21810995376E+02  0.47787270360E+02  0.19999996880E+02 0.  0.
         12    1    1    2    0    0  0.36130512353E+02  0.10123729111E+02 -0.21810995376E+02  0.43400729640E+02  0.00000000000E+00 0. -1.
         11    1    3    3    0    0 -0.53078225101E+01  0.52323849773E+00 -0.16279845761E+01  0.55764766982E+01  0.51100000000E-03 0. -1.
        -11    1    3    3    0    0 -0.16262904756E+02  0.12013535989E+01  0.11712552864E+02  0.20077579944E+02  0.51100000000E-03 0.  1.
        -12    1    3    3    0    0 -0.14559785086E+02 -0.11848321208E+02  0.11726427088E+02  0.22133213717E+02  0.00000000000E+00 0.  1.
</event>
<event>
 7    1  0.2653124E-010  0.4778727E+02  0.7816164E-02  0.1312668E+00
        -11   -1    0    0    0    0  0.00000000000E+00  0.00000000000E+00  0.45593999997E+02  0.45594000000E+02  0.51100000000E-03 0. -1.
         11   -1    0    0    0    0 -0.00000000000E+00 -0.00000000000E+00 -0.45593999997E+02  0.45594000000E+02  0.51100000000E-03 0.  1.
    9900012    2    1    2    0    0 -0.21930223026E+01 -0.39591576374E+02 -0.17644299213E+02  0.47787267733E+02  0.19999984903E+02 0.  0.
         12    1    1    2    0    0  0.21930223026E+01  0.39591576374E+02  0.17644299213E+02  0.43400732267E+02  0.00000000000E+00 0. -1.
         11    1    3    3    0    0 -0.44603894659E+01 -0.19959780233E+02 -0.95830528847E+01  0.22585898344E+02  0.51100000000E-03 0. -1.
        -11    1    3    3    0    0 -0.54565064831E+01 -0.10670950786E+02 -0.31496911412E+01  0.12392062307E+02  0.51100000000E-03 0.  1.
         12    1    3    3    0    0  0.77238736464E+01 -0.89608453549E+01 -0.49115551870E+01  0.12809307083E+02  0.00000000000E+00 0. -1.
</event>
<event>
 7    1  0.2653124E-010  0.4778728E+02  0.7816164E-02  0.1312668E+00
        -11   -1    0    0    0    0  0.00000000000E+00  0.00000000000E+00  0.45593999997E+02  0.45594000000E+02  0.51100000000E-03 0. -1.
         11   -1    0    0    0    0 -0.00000000000E+00 -0.00000000000E+00 -0.45593999997E+02  0.45594000000E+02  0.51100000000E-03 0.  1.
    9900012    2    1    2    0    0  0.34512905240E+02 -0.20829127624E+02  0.16081963456E+02  0.47787277261E+02  0.20000028343E+02 0.  0.
         12    1    1    2    0    0 -0.34512905240E+02  0.20829127624E+02 -0.16081963456E+02  0.43400722739E+02  0.00000000000E+00 0. -1.
         11    1    3    3    0    0  0.29071603849E+02 -0.11635545393E+02  0.59977795050E+01  0.31882870420E+02  0.51100000000E-03 0. -1.
        -11    1    3    3    0    0  0.19374438067E+01 -0.44786914002E-01  0.37990724866E+01  0.42648149305E+01  0.51100000000E-03 0.  1.
         12    1    3    3    0    0  0.35038575840E+01 -0.91487953170E+01  0.62851114647E+01  0.11639591911E+02  0.00000000000E+00 0. -1.
</event>
<event>
 7    1  0.2653124E-010  0.4778727E+02  0.7816164E-02  0.1312668E+00
        -11   -1    0    0    0    0  0.00000000000E+00  0.00000000000E+00  0.45593999997E+02  0.45594000000E+02  0.51100000000E-03 0.  1.
         11   -1    0    0    0    0 -0.00000000000E+00 -0.00000000000E+00 -0.45593999997E+02  0.45594000000E+02  0.51100000000E-03 0. -1.
    9900012    2    1    2    0    0  0.34311762218E+02 -0.13549878905E+02  0.22863224380E+02  0.47787271044E+02  0.20000000000E+02 0.  0.
         12    1    1    2    0    0 -0.34311762218E+02  0.13549878905E+02 -0.22863224380E+02  0.43400728956E+02  0.00000000000E+00 0. -1.
         11    1    3    3    0    0  0.17177222609E+02 -0.44899733916E+01  0.10090667029E+02  0.20421518038E+02  0.51100000000E-03 0. -1.
        -11    1    3    3    0    0  0.38682527069E+01 -0.11248404204E+01  0.11110565885E+02  0.11818346733E+02  0.51100000000E-03 0.  1.
         12    1    3    3    0    0  0.13266286901E+02 -0.79350650929E+01  0.16619914668E+01  0.15547406273E+02  0.00000000000E+00 0. -1.
</event>
<event>
 7    1  0.2653124E-010  0.4778728E+02  0.7816164E-02  0.1312668E+00
        -11   -1    0    0    0    0  0.00000000000E+00  0.00000000000E+00  0.45593999997E+02  0.45594000000E+02  0.51100000000E-03 0.  1.
         11   -1    0    0    0    0 -0.00000000000E+00 -0.00000000000E+00 -0.45593999997E+02  0.45594000000E+02  0.51100000000E-03 0. -1.
    9900012    2    1    2    0    0  0.43092289862E+00  0.86700332895E+00  0.43389920875E+02  0.47787278544E+02  0.20000034194E+02 0.  0.
         12    1    1    2    0    0 -0.43092289862E+00 -0.86700332895E+00 -0.43389920875E+02  0.43400721456E+02  0.00000000000E+00 0. -1.
         11    1    3    3    0    0  0.17737165072E+00 -0.36159859042E+01  0.40757882623E+01  0.54515011678E+01  0.51100000000E-03 0. -1.
        -11    1    3    3    0    0  0.47353486924E+01 -0.33882632868E+00  0.34402991252E+01  0.58629334681E+01  0.51100000000E-03 0.  1.
        -12    1    3    3    0    0 -0.44817974445E+01  0.48218155618E+01  0.35873833488E+02  0.36472843908E+02  0.00000000000E+00 0.  1.
</event>
<event>
 7    1  0.2653124E-010  0.4778728E+02  0.7816164E-02  0.1312668E+00
        -11   -1    0    0    0    0  0.00000000000E+00  0.00000000000E+00  0.45593999997E+02  0.45594000000E+02  0.51100000000E-03 0.  1.
         11   -1    0    0    0    0 -0.00000000000E+00 -0.00000000000E+00 -0.45593999997E+02  0.45594000000E+02  0.51100000000E-03 0. -1.
    9900012    2    1    2    0    0  0.31984938855E+02  0.10892142568E+02  0.27238717828E+02  0.47787276133E+02  0.20000023201E+02 0.  0.
         12    1    1    2    0    0 -0.31984938855E+02 -0.10892142568E+02 -0.27238717828E+02  0.43400723867E+02  0.00000000000E+00 0. -1.
         11    1    3    3    0    0  0.63903686128E+01 -0.37475820394E+01  0.10183646411E+02  0.12593166267E+02  0.51100000000E-03 0.  1.
        -11    1    3    3    0    0  0.10762086166E+01 -0.11709125051E+01  0.11814960323E+01  0.19812102908E+01  0.51100000000E-03 0. -1.
        -12    1    3    3    0    0  0.24518361625E+02  0.15810637112E+02  0.15873575385E+02  0.33212899575E+02  0.00000000000E+00 0.  1.
</event>
<event>
 7    1  0.2653124E-010  0.4778727E+02  0.7816164E-02  0.1312668E+00
        -11   -1    0    0    0    0  0.00000000000E+00  0.00000000000E+00  0.45593999997E+02  0.45594000000E+02  0.51100000000E-03 0.  1.
         11   -1    0    0    0    0 -0.00000000000E+00 -0.00000000000E+00 -0.45593999997E+02  0.45594000000E+02  0.51100000000E-03 0. -1.
    9900012    2    1    2    0    0 -0.13603068302E+02 -0.10483953355E+02  0.39858078552E+02  0.47787272229E+02  0.20000005401E+02 0.  0.
         12    1    1    2    0    0  0.13603068302E+02  0.10483953355E+02 -0.39858078552E+02  0.43400727771E+02  0.00000000000E+00 0. -1.
         11    1    3    3    0    0  0.16332824616E+00 -0.71438878322E+00 -0.17766317426E+01  0.19218345557E+01  0.51100000000E-03 0. -1.
        -11    1    3    3    0    0 -0.14533361090E+00 -0.43290577732E+01  0.12829073049E+02  0.13540567884E+02  0.51100000000E-03 0.  1.
         12    1    3    3    0    0 -0.13621062937E+02 -0.54405067985E+01  0.28805637246E+02  0.32324869789E+02  0.00000000000E+00 0. -1.
</event>
<event>
 7    1  0.2653124E-010  0.4778727E+02  0.7816164E-02  0.1312668E+00
        -11   -1    0    0    0    0  0.00000000000E+00  0.00000000000E+00  0.45593999997E+02  0.45594000000E+02  0.51100000000E-03 0.  1.
         11   -1    0    0    0    0 -0.00000000000E+00 -0.00000000000E+00 -0.45593999997E+02  0.45594000000E+02  0.51100000000E-03 0. -1.
    9900012    2    1    2    0    0 -0.16492000848E+02 -0.56950780299E+01  0.39739188288E+02  0.47787273145E+02  0.20000009576E+02 0.  0.
         12    1    1    2    0    0  0.16492000848E+02  0.56950780299E+01 -0.39739188288E+02  0.43400726855E+02  0.00000000000E+00 0. -1.
         11    1    3    3    0    0 -0.19634660859E+01 -0.48886166866E+01  0.51314933587E+01  0.73543182233E+01  0.51100000000E-03 0. -1.
        -11    1    3    3    0    0 -0.63594468628E+01 -0.57628088575E+01  0.26651234809E+02  0.27998943684E+02  0.51100000000E-03 0.  1.
        -12    1    3    3    0    0 -0.81690878997E+01  0.49563475141E+01  0.79564601212E+01  0.12434011237E+02  0.00000000000E+00 0.  1.
</event>
<event>
 7    1  0.2653124E-010  0.4778727E+02  0.7816164E-02  0.1312668E+00
        -11   -1    0    0    0    0  0.00000000000E+00  0.00000000000E+00  0.45593999997E+02  0.45594000000E+02  0.51100000000E-03 0. -1.
         11   -1    0    0    0    0 -0.00000000000E+00 -0.00000000000E+00 -0.45593999997E+02  0.45594000000E+02  0.51100000000E-03 0.  1.
    9900012    2    1    2    0    0 -0.40501083585E+02 -0.58800246183E+01  0.14446827541E+02  0.47787270892E+02  0.19999999307E+02 0.  0.
         12    1    1    2    0    0  0.40501083585E+02  0.58800246183E+01 -0.14446827541E+02  0.43400729108E+02  0.00000000000E+00 0. -1.
         11    1    3    3    0    0  0.57917603444E+00  0.55426697694E+00  0.10148540382E+01  0.12932848644E+01  0.51100000000E-03 0. -1.
        -11    1    3    3    0    0 -0.10276512226E+02 -0.73080880866E+01 -0.61976867340E+00  0.12625330431E+02  0.51100000000E-03 0.  1.
        -12    1    3    3    0    0 -0.30803747393E+02  0.87379649137E+00  0.14051742177E+02  0.33868655597E+02  0.00000000000E+00 0.  1.
</event>
<event>
 7    1  0.2653124E-010  0.4778727E+02  0.7816164E-02  0.1312668E+00
        -11   -1    0    0    0    0  0.00000000000E+00  0.00000000000E+00  0.45593999997E+02  0.45594000000E+02  0.51100000000E-03 0.  1.
         11   -1    0    0    0    0 -0.00000000000E+00 -0.00000000000E+00 -0.45593999997E+02  0.45594000000E+02  0.51100000000E-03 0. -1.
    9900012    2    1    2    0    0 -0.39636753397E+02 -0.74095621734E+01  0.16051462904E+02  0.47787270827E+02  0.19999999006E+02 0.  0.
         12    1    1    2    0    0  0.39636753397E+02  0.74095621734E+01 -0.16051462904E+02  0.43400729173E+02  0.00000000000E+00 0. -1.
         11    1    3    3    0    0 -0.85096217783E+01 -0.96701364763E+00 -0.53414678586E+00  0.85810308969E+01  0.51100000000E-03 0. -1.
        -11    1    3    3    0    0 -0.50278264144E+01 -0.79093985223E+01  0.48407313081E+01  0.10548473980E+02  0.51100000000E-03 0.  1.
        -12    1    3    3    0    0 -0.26099305204E+02  0.14668499966E+01  0.11744878382E+02  0.28657765950E+02  0.00000000000E+00 0.  1.
</event>
<event>
 7    1  0.2653124E-010  0.4778725E+02  0.7816164E-02  0.1312668E+00
        -11   -1    0    0    0    0  0.00000000000E+00  0.00000000000E+00  0.45593999997E+02  0.45594000000E+02  0.51100000000E-03 0.  1.
         11   -1    0    0    0    0 -0.00000000000E+00 -0.00000000000E+00 -0.45593999997E+02  0.45594000000E+02  0.51100000000E-03 0. -1.
    9900012    2    1    2    0    0 -0.70647327704E+01 -0.37047290664E+01  0.42661339006E+02  0.47787247560E+02  0.19999892924E+02 0.  0.
         12    1    1    2    0    0  0.70647327704E+01  0.37047290664E+01 -0.42661339006E+02  0.43400752440E+02  0.00000000000E+00 0. -1.
         11    1    3    3    0    0 -0.17242398077E+01 -0.95930653828E+01  0.25559632030E+02  0.27354975711E+02  0.51100000000E-03 0. -1.
        -11    1    3    3    0    0 -0.48241598225E-01  0.12619182696E+01  0.11151213959E+02  0.11222492504E+02  0.51100000000E-03 0.  1.
         12    1    3    3    0    0 -0.52922513645E+01  0.46264180468E+01  0.59504930168E+01  0.92097793455E+01  0.00000000000E+00 0. -1.
</event>
<event>
 7    1  0.2653124E-010  0.4778727E+02  0.7816164E-02  0.1312668E+00
        -11   -1    0    0    0    0  0.00000000000E+00  0.00000000000E+00  0.45593999997E+02  0.45594000000E+02  0.51100000000E-03 0.  1.
         11   -1    0    0    0    0 -0.00000000000E+00 -0.00000000000E+00 -0.45593999997E+02  0.45594000000E+02  0.51100000000E-03 0. -1.
    9900012    2    1    2    0    0  0.11994523123E+02  0.39970227977E+02  0.11922057948E+02  0.47787272181E+02  0.20000005183E+02 0.  0.
         12    1    1    2    0    0 -0.11994523123E+02 -0.39970227977E+02 -0.11922057948E+02  0.43400727819E+02  0.00000000000E+00 0. -1.
         11    1    3    3    0    0  0.62180269962E+01  0.24312828071E+01  0.13869102132E+01  0.68189820365E+01  0.51100000000E-03 0. -1.
        -11    1    3    3    0    0  0.74094103745E+01  0.17889845864E+02  0.84989788679E+01  0.21146597580E+02  0.51100000000E-03 0.  1.
         12    1    3    3    0    0 -0.16329142481E+01  0.19649099306E+02  0.20361688664E+01  0.19821692565E+02  0.00000000000E+00 0. -1.
</event>
<event>
 7    1  0.3009584E-010  0.4778726E+02  0.7816164E-02  0.1312668E+00
        -11   -1    0    0    0    0  0.00000000000E+00  0.00000000000E+00  0.45593999997E+02  0.45594000000E+02  0.51100000000E-03 0. -1.
         11   -1    0    0    0    0 -0.00000000000E+00 -0.00000000000E+00 -0.45593999997E+02  0.45594000000E+02  0.51100000000E-03 0.  1.
    9900012    2    1    2    0    0 -0.73274626829E+01 -0.32002299906E+02 -0.28386361116E+02  0.47787258001E+02  0.19999940530E+02 0.  0.
         12    1    1    2    0    0  0.73274626829E+01  0.32002299906E+02  0.28386361116E+02  0.43400741999E+02  0.00000000000E+00 0. -1.
         11    1    3    3    0    0 -0.44477740552E+01 -0.17209430438E+02 -0.63545651536E+01  0.18876643997E+02  0.51100000000E-03 0. -1.
        -11    1    3    3    0    0 -0.99592023441E+00 -0.12636924095E+02 -0.89452303965E+01  0.15514536887E+02  0.51100000000E-03 0.  1.
         12    1    3    3    0    0 -0.18837683934E+01 -0.21559453725E+01 -0.13086565566E+02  0.13396077117E+02  0.00000000000E+00 0. -1.
</event>
<event>
 7    1  0.2653124E-010  0.4778727E+02  0.7816164E-02  0.1312668E+00
        -11   -1    0    0    0    0  0.00000000000E+00  0.00000000000E+00  0.45593999997E+02  0.45594000000E+02  0.51100000000E-03 0. -1.
         11   -1    0    0    0    0 -0.00000000000E+00 -0.00000000000E+00 -0.45593999997E+02  0.45594000000E+02  0.51100000000E-03 0.  1.
    9900012    2    1    2    0    0 -0.38617181588E+02  0.19063221843E+02 -0.53786752196E+01  0.47787270883E+02  0.19999999262E+02 0.  0.
         12    1    1    2    0    0  0.38617181588E+02 -0.19063221843E+02  0.53786752196E+01  0.43400729117E+02  0.00000000000E+00 0. -1.
         11    1    3    3    0    0 -0.11639147818E+02  0.28596959357E+01  0.16508408697E+01  0.12098466788E+02  0.51100000000E-03 0. -1.
        -11    1    3    3    0    0 -0.22594509528E+02  0.88358947521E+01 -0.10505760964E+02  0.26437774312E+02  0.51100000000E-03 0.  1.
         12    1    3    3    0    0 -0.43835242409E+01  0.73676311550E+01  0.34762448742E+01  0.92510297823E+01  0.00000000000E+00 0. -1.
</event>
<event>
 7    1  0.2653124E-010  0.4778728E+02  0.7816164E-02  0.1312668E+00
        -11   -1    0    0    0    0  0.00000000000E+00  0.00000000000E+00  0.45593999997E+02  0.45594000000E+02  0.51100000000E-03 0.  1.
         11   -1    0    0    0    0 -0.00000000000E+00 -0.00000000000E+00 -0.45593999997E+02  0.45594000000E+02  0.51100000000E-03 0. -1.
    9900012    2    1    2    0    0  0.22218295725E+01  0.43054622100E+02  0.49985558779E+01  0.47787279134E+02  0.20000036885E+02 0.  0.
         12    1    1    2    0    0 -0.22218295725E+01 -0.43054622100E+02 -0.49985558779E+01  0.43400720866E+02  0.00000000000E+00 0. -1.
         11    1    3    3    0    0  0.39489923104E+01  0.85655231102E+00 -0.11949973323E+01  0.42138154937E+01  0.51100000000E-03 0. -1.
        -11    1    3    3    0    0  0.27178776932E+01  0.13870282090E+02  0.45644756408E+01  0.14852811941E+02  0.51100000000E-03 0.  1.
         12    1    3    3    0    0 -0.44450404312E+01  0.28327787699E+02  0.16290775694E+01  0.28720651700E+02  0.00000000000E+00 0. -1.
</event>
<event>
 7    1  0.2653124E-010  0.4778728E+02  0.7816164E-02  0.1312668E+00
        -11   -1    0    0    0    0  0.00000000000E+00  0.00000000000E+00  0.45593999997E+02  0.45594000000E+02  0.51100000000E-03 0.  1.
         11   -1    0    0    0    0 -0.00000000000E+00 -0.00000000000E+00 -0.45593999997E+02  0.45594000000E+02  0.51100000000E-03 0. -1.
    9900012    2    1    2    0    0 -0.20075735098E+02 -0.19704255272E+02  0.33050417458E+02  0.47787275240E+02  0.20000019131E+02 0.  0.
         12    1    1    2    0    0  0.20075735098E+02  0.19704255272E+02 -0.33050417458E+02  0.43400724760E+02  0.00000000000E+00 0. -1.
         11    1    3    3    0    0 -0.36932014833E+00 -0.78371583367E+01  0.50069897911E+01  0.93073839072E+01  0.51100000000E-03 0. -1.
        -11    1    3    3    0    0 -0.20678045172E+01 -0.37355014357E+01  0.13658502641E+02  0.14310292839E+02  0.51100000000E-03 0.  1.
        -12    1    3    3    0    0 -0.17638610432E+02 -0.81315954992E+01  0.14384925026E+02  0.24169598494E+02  0.00000000000E+00 0.  1.
</event>
<event>
 7    1  0.2653124E-010  0.4778727E+02  0.7816164E-02  0.1312668E+00
        -11   -1    0    0    0    0  0.00000000000E+00  0.00000000000E+00  0.45593999997E+02  0.45594000000E+02  0.51100000000E-03 0.  1.
         11   -1    0    0    0    0 -0.00000000000E+00 -0.00000000000E+00 -0.45593999997E+02  0.45594000000E+02  0.51100000000E-03 0. -1.
    9900012    2    1    2    0    0  0.20952625498E+01 -0.32301177650E+00  0.43348919188E+02  0.47787271245E+02  0.20000000913E+02 0.  0.
         12    1    1    2    0    0 -0.20952625498E+01  0.32301177650E+00 -0.43348919188E+02  0.43400728755E+02  0.00000000000E+00 0. -1.
         11    1    3    3    0    0 -0.35192686438E+01 -0.31163016462E+01  0.25316148082E+02  0.25748862921E+02  0.51100000000E-03 0.  1.
        -11    1    3    3    0    0 -0.12370255006E+01  0.19718067194E+01  0.13686696411E+02  0.13883224147E+02  0.51100000000E-03 0. -1.
         12    1    3    3    0    0  0.68515566942E+01  0.82148315033E+00  0.43460746946E+01  0.81551841764E+01  0.00000000000E+00 0. -1.
</event>
<event>
 7    1  0.2653124E-010  0.4778727E+02  0.7816164E-02  0.1312668E+00
        -11   -1    0    0    0    0  0.00000000000E+00  0.00000000000E+00  0.45593999997E+02  0.45594000000E+02  0.51100000000E-03 0. -1.
         11   -1    0    0    0    0 -0.00000000000E+00 -0.00000000000E+00 -0.45593999997E+02  0.45594000000E+02  0.51100000000E-03 0.  1.
    9900012    2    1    2    0    0 -0.17028540421E+02 -0.62386710566E+01 -0.39430081611E+02  0.47787267964E+02  0.19999985954E+02 0.  0.
         12    1    1    2    0    0  0.17028540421E+02  0.62386710566E+01  0.39430081611E+02  0.43400732036E+02  0.00000000000E+00 0. -1.
         11    1    3    3    0    0  0.92774352980E+00 -0.59049176642E+01 -0.20551987473E+02  0.21403573301E+02  0.51100000000E-03 0. -1.
        -11    1    3    3    0    0 -0.53582331083E+01  0.67600698040E+00 -0.83009723401E+01  0.99032211695E+01  0.51100000000E-03 0.  1.
         12    1    3    3    0    0 -0.12598050843E+02 -0.10097603728E+01 -0.10577121798E+02  0.16480473493E+02  0.00000000000E+00 0. -1.
</event>
<event>
 7    1  0.2653124E-010  0.4778724E+02  0.7816164E-02  0.1312668E+00
        -11   -1    0    0    0    0  0.00000000000E+00  0.00000000000E+00  0.45593999997E+02  0.45594000000E+02  0.51100000000E-03 0.  1.
         11   -1    0    0    0    0 -0.00000000000E+00 -0.00000000000E+00 -0.45593999997E+02  0.45594000000E+02  0.51100000000E-03 0. -1.
    9900012    2    1    2    0    0 -0.80943627342E+01 -0.36425300020E+02  0.22165396822E+02  0.47787239570E+02  0.19999856495E+02 0.  0.
         12    1    1    2    0    0  0.80943627342E+01  0.36425300020E+02 -0.22165396822E+02  0.43400760430E+02  0.00000000000E+00 0. -1.
         11    1    3    3    0    0  0.19298550741E+01 -0.18000052813E+01  0.45132624636E+01  0.52281830445E+01  0.51100000000E-03 0. -1.
        -11    1    3    3    0    0 -0.41368132059E+01 -0.15849921470E+02  0.15860164862E+02  0.22800834717E+02  0.51100000000E-03 0.  1.
        -12    1    3    3    0    0 -0.58874046024E+01 -0.18775373269E+02  0.17919694966E+01  0.19758221808E+02  0.00000000000E+00 0.  1.
</event>
<event>
 7    1  0.2653124E-010  0.4778727E+02  0.7816164E-02  0.1312668E+00
        -11   -1    0    0    0    0  0.00000000000E+00  0.00000000000E+00  0.45593999997E+02  0.45594000000E+02  0.51100000000E-03 0.  1.
         11   -1    0    0    0    0 -0.00000000000E+00 -0.00000000000E+00 -0.45593999997E+02  0.45594000000E+02  0.51100000000E-03 0. -1.
    9900012    2    1    2    0    0  0.42498492901E+02 -0.59796091252E+01  0.64610912928E+01  0.47787270457E+02  0.19999997323E+02 0.  0.
         12    1    1    2    0    0 -0.42498492901E+02  0.59796091252E+01 -0.64610912928E+01  0.43400729543E+02  0.00000000000E+00 0. -1.
         11    1    3    3    0    0  0.92455414907E+01 -0.82730977500E+01  0.37368565006E+01  0.12957171011E+02  0.51100000000E-03 0. -1.
        -11    1    3    3    0    0  0.22360035652E+02 -0.17172914565E+01 -0.15037416966E+01  0.22476243540E+02  0.51100000000E-03 0.  1.
         12    1    3    3    0    0  0.10892915758E+02  0.40107800813E+01  0.42279764888E+01  0.12353855907E+02  0.00000000000E+00 0. -1.
</event>
<event>
 7    1  0.2653124E-010  0.4778727E+02  0.7816164E-02  0.1312668E+00
        -11   -1    0    0    0    0  0.00000000000E+00  0.00000000000E+00  0.45593999997E+02  0.45594000000E+02  0.51100000000E-03 0.  1.
         11   -1    0    0    0    0 -0.00000000000E+00 -0.00000000000E+00 -0.45593999997E+02  0.45594000000E+02  0.51100000000E-03 0. -1.
    9900012    2    1    2    0    0  0.34073552081E+02 -0.21224783769E+02  0.16496207675E+02  0.47787271145E+02  0.20000000458E+02 0.  0.
         12    1    1    2    0    0 -0.34073552081E+02  0.21224783769E+02 -0.16496207675E+02  0.43400728855E+02  0.00000000000E+00 0. -1.
         11    1    3    3    0    0  0.31651697101E+02 -0.13167536858E+02  0.18354736302E+02  0.38885862486E+02  0.51100000000E-03 0. -1.
        -11    1    3    3    0    0  0.11330627077E+01 -0.31081108128E+01  0.35806585618E+00  0.33275209004E+01  0.51100000000E-03 0.  1.
         12    1    3    3    0    0  0.12887922725E+01 -0.49491360983E+01 -0.22165944833E+01  0.55738877585E+01  0.00000000000E+00 0. -1.
</event>
<event>
 7    1  0.2653124E-010  0.4778726E+02  0.7816164E-02  0.1312668E+00
        -11   -1    0    0    0    0  0.00000000000E+00  0.00000000000E+00  0.45593999997E+02  0.45594000000E+02  0.51100000000E-03 0.  1.
         11   -1    0    0    0    0 -0.00000000000E+00 -0.00000000000E+00 -0.45593999997E+02  0.45594000000E+02  0.51100000000E-03 0. -1.
    9900012    2    1    2    0    0  0.18669591576E+02 -0.98979974925E+01  0.37909100153E+02  0.47787264080E+02  0.19999968248E+02 0.  0.
         12    1    1    2    0    0 -0.18669591576E+02  0.98979974925E+01 -0.37909100153E+02  0.43400735920E+02  0.00000000000E+00 0. -1.
         11    1    3    3    0    0  0.33223401726E+00 -0.11251983067E+01  0.68960750320E+01  0.69951627415E+01  0.51100000000E-03 0.  1.
        -11    1    3    3    0    0  0.48434635628E+01 -0.33293912307E+01 -0.68189778944E+00  0.59168378470E+01  0.51100000000E-03 0. -1.
        -12    1    3    3    0    0  0.13493893996E+02 -0.54434079551E+01  0.31694922910E+02  0.34875263492E+02  0.00000000000E+00 0.  1.
</event>
<event>
 7    1  0.2653124E-010  0.4778727E+02  0.7816164E-02  0.1312668E+00
        -11   -1    0    0    0    0  0.00000000000E+00  0.00000000000E+00  0.45593999997E+02  0.45594000000E+02  0.51100000000E-03 0.  1.
         11   -1    0    0    0    0 -0.00000000000E+00 -0.00000000000E+00 -0.45593999997E+02  0.45594000000E+02  0.51100000000E-03 0. -1.
    9900012    2    1    2    0    0 -0.33320262357E+02  0.10495578226E+02  0.25753180282E+02  0.47787270277E+02  0.19999996501E+02 0.  0.
         12    1    1    2    0    0  0.33320262357E+02 -0.10495578226E+02 -0.25753180282E+02  0.43400729723E+02  0.00000000000E+00 0. -1.
         11    1    3    3    0    0 -0.39552123373E+01  0.72952432286E+01  0.24186105190E+01  0.86437234744E+01  0.51100000000E-03 0. -1.
        -11    1    3    3    0    0 -0.27817681745E+01  0.19513733356E+01  0.73550531766E+01  0.81020305827E+01  0.51100000000E-03 0.  1.
         12    1    3    3    0    0 -0.26583281845E+02  0.12489616619E+01  0.15979516586E+02  0.31041516220E+02  0.00000000000E+00 0. -1.
</event>
<event>
 7    1  0.2653124E-010  0.4778727E+02  0.7816164E-02  0.1312668E+00
        -11   -1    0    0    0    0  0.00000000000E+00  0.00000000000E+00  0.45593999997E+02  0.45594000000E+02  0.51100000000E-03 0.  1.
         11   -1    0    0    0    0 -0.00000000000E+00 -0.00000000000E+00 -0.45593999997E+02  0.45594000000E+02  0.51100000000E-03 0. -1.
    9900012    2    1    2    0    0  0.33629180843E+02 -0.23309045861E+02  0.14470306758E+02  0.47787271886E+02  0.20000003838E+02 0.  0.
         12    1    1    2    0    0 -0.33629180843E+02  0.23309045861E+02 -0.14470306758E+02  0.43400728114E+02  0.00000000000E+00 0. -1.
         11    1    3    3    0    0  0.11454912422E+02 -0.71309648536E+01 -0.12931905052E+01  0.13554999826E+02  0.51100000000E-03 0. -1.
        -11    1    3    3    0    0  0.20783859755E+01  0.18679490289E+01 -0.29453151764E+00  0.28099236491E+01  0.51100000000E-03 0.  1.
        -12    1    3    3    0    0  0.20095882446E+02 -0.18046030036E+02  0.16058028781E+02  0.31422348411E+02  0.00000000000E+00 0.  1.
</event>
<event>
 7    1  0.2653124E-010  0.4778727E+02  0.7816164E-02  0.1312668E+00
        -11   -1    0    0    0    0  0.00000000000E+00  0.00000000000E+00  0.45593999997E+02  0.45594000000E+02  0.51100000000E-03 0.  1.
         11   -1    0    0    0    0 -0.00000000000E+00 -0.00000000000E+00 -0.45593999997E+02  0.45594000000E+02  0.51100000000E-03 0. -1.
    9900012    2    1    2    0    0  0.29662800932E+02 -0.13337444579E+01  0.31653790898E+02  0.47787272914E+02  0.20000008524E+02 0.  0.
         12    1    1    2    0    0 -0.29662800932E+02  0.13337444579E+01 -0.31653790898E+02  0.43400727086E+02  0.00000000000E+00 0. -1.
         11    1    3    3    0    0  0.16092856693E+01  0.38348155685E+01 -0.22188793533E+00  0.41647143151E+01  0.51100000000E-03 0. -1.
        -11    1    3    3    0    0  0.14776736632E+01  0.17758758427E+01  0.26071493648E+01  0.34834584159E+01  0.51100000000E-03 0.  1.
        -12    1    3    3    0    0  0.26575841600E+02 -0.69444358690E+01  0.29268529468E+02  0.40139100183E+02  0.00000000000E+00 0.  1.
</event>
<event>
 7    1  0.2653124E-010  0.4778727E+02  0.7816164E-02  0.1312668E+00
        -11   -1    0    0    0    0  0.00000000000E+00  0.00000000000E+00  0.45593999997E+02  0.45594000000E+02  0.51100000000E-03 0.  1.
         11   -1    0    0    0    0 -0.00000000000E+00 -0.00000000000E+00 -0.45593999997E+02  0.45594000000E+02  0.51100000000E-03 0. -1.
    9900012    2    1    2    0    0 -0.51146191464E+01 -0.14456390761E+02  0.40601437149E+02  0.47787271188E+02  0.20000000655E+02 0.  0.
         12    1    1    2    0    0  0.51146191464E+01  0.14456390761E+02 -0.40601437149E+02  0.43400728812E+02  0.00000000000E+00 0. -1.
         11    1    3    3    0    0 -0.78893956290E+01 -0.95087081621E+01  0.18487195008E+02  0.22235882574E+02  0.51100000000E-03 0.  1.
        -11    1    3    3    0    0 -0.27702863294E+01  0.23495198476E+01  0.64980049328E+01  0.74443803119E+01  0.51100000000E-03 0. -1.
        -12    1    3    3    0    0  0.55450628119E+01 -0.72972024464E+01  0.15616237208E+02  0.18107008302E+02  0.00000000000E+00 0.  1.
</event>
<event>
 7    1  0.2653124E-010  0.4778726E+02  0.7816164E-02  0.1312668E+00
        -11   -1    0    0    0    0  0.00000000000E+00  0.00000000000E+00  0.45593999997E+02  0.45594000000E+02  0.51100000000E-03 0. -1.
         11   -1    0    0    0    0 -0.00000000000E+00 -0.00000000000E+00 -0.45593999997E+02  0.45594000000E+02  0.51100000000E-03 0.  1.
    9900012    2    1    2    0    0 -0.38101178360E+02 -0.20308303283E+02 -0.44156086360E+01  0.47787256063E+02  0.19999931693E+02 0.  0.
         12    1    1    2    0    0  0.38101178360E+02  0.20308303283E+02  0.44156086360E+01  0.43400743937E+02  0.00000000000E+00 0. -1.
         11    1    3    3    0    0 -0.21556391793E+02 -0.83063040904E+01  0.15546803246E+01  0.23153611942E+02  0.51100000000E-03 0.  1.
        -11    1    3    3    0    0 -0.11313915992E+02 -0.57346681329E+00 -0.29901918498E+01  0.11716433195E+02  0.51100000000E-03 0. -1.
         12    1    3    3    0    0 -0.52308705753E+01 -0.11428532379E+02 -0.29800971108E+01  0.12917210926E+02  0.00000000000E+00 0. -1.
</event>
<event>
 7    1  0.2653124E-010  0.4778727E+02  0.7816164E-02  0.1312668E+00
        -11   -1    0    0    0    0  0.00000000000E+00  0.00000000000E+00  0.45593999997E+02  0.45594000000E+02  0.51100000000E-03 0. -1.
         11   -1    0    0    0    0 -0.00000000000E+00 -0.00000000000E+00 -0.45593999997E+02  0.45594000000E+02  0.51100000000E-03 0.  1.
    9900012    2    1    2    0    0 -0.76810714408E+00 -0.31668711108E+02 -0.29666918952E+02  0.47787270376E+02  0.19999996951E+02 0.  0.
         12    1    1    2    0    0  0.76810714408E+00  0.31668711108E+02  0.29666918952E+02  0.43400729624E+02  0.00000000000E+00 0. -1.
         11    1    3    3    0    0 -0.22329917164E+01 -0.20634490788E+01 -0.54590074658E+01  0.62485867905E+01  0.51100000000E-03 0. -1.
        -11    1    3    3    0    0  0.77646316037E+01 -0.10734991918E+02 -0.59020589658E+01  0.14503925528E+02  0.51100000000E-03 0.  1.
        -12    1    3    3    0    0 -0.62997470313E+01 -0.18870270111E+02 -0.18305852520E+02  0.27034758058E+02  0.00000000000E+00 0.  1.
</event>
<event>
 7    1  0.2653124E-010  0.4778728E+02  0.7816164E-02  0.1312668E+00
        -11   -1    0    0    0    0  0.00000000000E+00  0.00000000000E+00  0.45593999997E+02  0.45594000000E+02  0.51100000000E-03 0.  1.
         11   -1    0    0    0    0 -0.00000000000E+00 -0.00000000000E+00 -0.45593999997E+02  0.45594000000E+02  0.51100000000E-03 0. -1.
    9900012    2    1    2    0    0 -0.11192768839E+02  0.32131284356E+02  0.26942999725E+02  0.47787277162E+02  0.20000027892E+02 0.  0.
         12    1    1    2    0    0  0.11192768839E+02 -0.32131284356E+02 -0.26942999725E+02  0.43400722838E+02  0.00000000000E+00 0. -1.
         11    1    3    3    0    0 -0.84352349087E+01  0.12194002539E+02  0.18351774884E+02  0.23593103389E+02  0.51100000000E-03 0. -1.
        -11    1    3    3    0    0 -0.15271187139E+01  0.12857827174E+02  0.10599353671E+02  0.16733263570E+02  0.51100000000E-03 0.  1.
        -12    1    3    3    0    0 -0.12304152168E+01  0.70794546434E+01 -0.20081288300E+01  0.74609102026E+01  0.00000000000E+00 0.  1.
</event>
<event>
 7    1  0.3230059E-010  0.4778727E+02  0.7816164E-02  0.1312668E+00
        -11   -1    0    0    0    0  0.00000000000E+00  0.00000000000E+00  0.45593999997E+02  0.45594000000E+02  0.51100000000E-03 0. -1.
         11   -1    0    0    0    0 -0.00000000000E+00 -0.00000000000E+00 -0.45593999997E+02  0.45594000000E+02  0.51100000000E-03 0.  1.
    9900012    2    1    2    0    0  0.69691986465E+01 -0.27840702028E+02 -0.32556854203E+02  0.47787272186E+02  0.20000005206E+02 0.  0.
         12    1    1    2    0    0 -0.69691986465E+01  0.27840702028E+02  0.32556854203E+02  0.43400727814E+02  0.00000000000E+00 0. -1.
         11    1    3    3    0    0  0.50848689505E+01 -0.56255091568E+01 -0.13293871505E+02  0.15304550480E+02  0.51100000000E-03 0. -1.
        -11    1    3    3    0    0  0.64612863412E+01 -0.16991058198E+02 -0.17682381900E+02  0.25359631500E+02  0.51100000000E-03 0.  1.
         12    1    3    3    0    0 -0.45769566452E+01 -0.52241346729E+01 -0.15806007969E+01  0.71230902067E+01  0.00000000000E+00 0. -1.
</event>
<event>
 7    1  0.2653124E-010  0.4778726E+02  0.7816164E-02  0.1312668E+00
        -11   -1    0    0    0    0  0.00000000000E+00  0.00000000000E+00  0.45593999997E+02  0.45594000000E+02  0.51100000000E-03 0.  1.
         11   -1    0    0    0    0 -0.00000000000E+00 -0.00000000000E+00 -0.45593999997E+02  0.45594000000E+02  0.51100000000E-03 0. -1.
    9900012    2    1    2    0    0 -0.17619076888E+02 -0.28655260778E+02  0.27423857611E+02  0.47787264904E+02  0.19999972003E+02 0.  0.
         12    1    1    2    0    0  0.17619076888E+02  0.28655260778E+02 -0.27423857611E+02  0.43400735096E+02  0.00000000000E+00 0. -1.
         11    1    3    3    0    0 -0.11664072046E+02 -0.24585088314E+02  0.12138014330E+02  0.29796116127E+02  0.51100000000E-03 0.  1.
        -11    1    3    3    0    0 -0.43300987322E+01 -0.51598600879E+01  0.80551590091E+01  0.10500452280E+02  0.51100000000E-03 0. -1.
         12    1    3    3    0    0 -0.16249061090E+01  0.10896876236E+01  0.72306842717E+01  0.74906964975E+01  0.00000000000E+00 0. -1.
</event>
<event>
 7    1  0.2653124E-010  0.4778728E+02  0.7816164E-02  0.1312668E+00
        -11   -1    0    0    0    0  0.00000000000E+00  0.00000000000E+00  0.45593999997E+02  0.45594000000E+02  0.51100000000E-03 0. -1.
         11   -1    0    0    0    0 -0.00000000000E+00 -0.00000000000E+00 -0.45593999997E+02  0.45594000000E+02  0.51100000000E-03 0.  1.
    9900012    2    1    2    0    0  0.13399025332E+01 -0.34099824696E+02 -0.26814714727E+02  0.47787282161E+02  0.20000050684E+02 0.  0.
         12    1    1    2    0    0 -0.13399025332E+01  0.34099824696E+02  0.26814714727E+02  0.43400717839E+02  0.00000000000E+00 0. -1.
         11    1    3    3    0    0 -0.13984424294E+01 -0.30049247569E+02 -0.28364231000E+02  0.41345405079E+02  0.51100000000E-03 0. -1.
        -11    1    3    3    0    0  0.22850928230E+00 -0.27217616282E+01 -0.69927990864E+00  0.28194317698E+01  0.51100000000E-03 0.  1.
         12    1    3    3    0    0  0.25098356803E+01 -0.13288154986E+01  0.22487961817E+01  0.36224453120E+01  0.00000000000E+00 0. -1.
</event>
<event>
 7    1  0.2653124E-010  0.4778727E+02  0.7816164E-02  0.1312668E+00
        -11   -1    0    0    0    0  0.00000000000E+00  0.00000000000E+00  0.45593999997E+02  0.45594000000E+02  0.51100000000E-03 0.  1.
         11   -1    0    0    0    0 -0.00000000000E+00 -0.00000000000E+00 -0.45593999997E+02  0.45594000000E+02  0.51100000000E-03 0. -1.
    9900012    2    1    2    0    0 -0.26630133634E+02  0.28430293430E+02  0.19135764500E+02  0.47787273221E+02  0.20000009925E+02 0.  0.
         12    1    1    2    0    0  0.26630133634E+02 -0.28430293430E+02 -0.19135764500E+02  0.43400726779E+02  0.00000000000E+00 0. -1.
         11    1    3    3    0    0 -0.12177981910E+02  0.10227608406E+02  0.29571535525E+01  0.16175659940E+02  0.51100000000E-03 0. -1.
        -11    1    3    3    0    0  0.13021929139E+01  0.34440885413E+01 -0.12271950959E+01  0.38811673927E+01  0.51100000000E-03 0.  1.
        -12    1    3    3    0    0 -0.15754344638E+02  0.14758596483E+02  0.17405806044E+02  0.27730445888E+02  0.00000000000E+00 0.  1.
</event>
<event>
 7    1  0.2653124E-010  0.4778727E+02  0.7816164E-02  0.1312668E+00
        -11   -1    0    0    0    0  0.00000000000E+00  0.00000000000E+00  0.45593999997E+02  0.45594000000E+02  0.51100000000E-03 0.  1.
         11   -1    0    0    0    0 -0.00000000000E+00 -0.00000000000E+00 -0.45593999997E+02  0.45594000000E+02  0.51100000000E-03 0. -1.
    9900012    2    1    2    0    0 -0.18164960413E+02 -0.57593670073E+01  0.38993424370E+02  0.47787271444E+02  0.20000001822E+02 0.  0.
         12    1    1    2    0    0  0.18164960413E+02  0.57593670073E+01 -0.38993424370E+02  0.43400728556E+02  0.00000000000E+00 0. -1.
         11    1    3    3    0    0 -0.12746056469E+01 -0.46699244360E+00  0.85052960010E+01  0.86129415314E+01  0.51100000000E-03 0. -1.
        -11    1    3    3    0    0 -0.52101863372E+01 -0.81175281954E+01  0.23186874487E+02  0.25113172926E+02  0.51100000000E-03 0.  1.
         12    1    3    3    0    0 -0.11680168428E+02  0.28251536317E+01  0.73012538818E+01  0.14061156987E+02  0.00000000000E+00 0. -1.
</event>
<event>
 7    1  0.2653124E-010  0.4778727E+02  0.7816164E-02  0.1312668E+00
        -11   -1    0    0    0    0  0.00000000000E+00  0.00000000000E+00  0.45593999997E+02  0.45594000000E+02  0.51100000000E-03 0.  1.
         11   -1    0    0    0    0 -0.00000000000E+00 -0.00000000000E+00 -0.45593999997E+02  0.45594000000E+02  0.51100000000E-03 0. -1.
    9900012    2    1    2    0    0  0.38939246339E+02 -0.17702876742E+02  0.73461847593E+01  0.47787272115E+02  0.20000004883E+02 0.  0.
         12    1    1    2    0    0 -0.38939246339E+02  0.17702876742E+02 -0.73461847593E+01  0.43400727885E+02  0.00000000000E+00 0. -1.
         11    1    3    3    0    0  0.89777061981E+01 -0.73027992098E+01  0.38643559989E+01  0.12200956209E+02  0.51100000000E-03 0. -1.
        -11    1    3    3    0    0  0.40480092400E+01 -0.79462520213E+01 -0.16138584980E+01  0.90627721755E+01  0.51100000000E-03 0.  1.
         12    1    3    3    0    0  0.25913530901E+02 -0.24538255112E+01  0.50956872584E+01  0.26523543730E+02  0.00000000000E+00 0. -1.
</event>
<event>
 7    1  0.2653124E-010  0.4778730E+02  0.7816164E-02  0.1312668E+00
        -11   -1    0    0    0    0  0.00000000000E+00  0.00000000000E+00  0.45593999997E+02  0.45594000000E+02  0.51100000000E-03 0.  1.
         11   -1    0    0    0    0 -0.00000000000E+00 -0.00000000000E+00 -0.45593999997E+02  0.45594000000E+02  0.51100000000E-03 0. -1.
    9900012    2    1    2    0    0 -0.26499770873E+02 -0.33727957065E+02  0.66187499403E+01  0.47787299604E+02  0.20000130215E+02 0.  0.
         12    1    1    2    0    0  0.26499770873E+02  0.33727957065E+02 -0.66187499403E+01  0.43400700396E+02  0.00000000000E+00 0. -1.
         11    1    3    3    0    0 -0.12327421382E+02 -0.12188531685E+02  0.88582263713E+01  0.19467763027E+02  0.51100000000E-03 0.  1.
        -11    1    3    3    0    0 -0.12067774837E+02 -0.79449949104E+01 -0.53800372118E+00  0.14458339528E+02  0.51100000000E-03 0. -1.
         12    1    3    3    0    0 -0.21045746537E+01 -0.13594430469E+02 -0.17014727098E+01  0.13861197049E+02  0.00000000000E+00 0. -1.
</event>
<event>
 7    1  0.2653124E-010  0.4778728E+02  0.7816164E-02  0.1312668E+00
        -11   -1    0    0    0    0  0.00000000000E+00  0.00000000000E+00  0.45593999997E+02  0.45594000000E+02  0.51100000000E-03 0.  1.
         11   -1    0    0    0    0 -0.00000000000E+00 -0.00000000000E+00 -0.45593999997E+02  0.45594000000E+02  0.51100000000E-03 0. -1.
    9900012    2    1    2    0    0 -0.23222874701E+02  0.29846962424E+02  0.21295048561E+02  0.47787283778E+02  0.20000058060E+02 0.  0.
         12    1    1    2    0    0  0.23222874701E+02 -0.29846962424E+02 -0.21295048561E+02  0.43400716222E+02  0.00000000000E+00 0. -1.
         11    1    3    3    0    0 -0.11328176343E+02  0.85393852221E+01  0.33620362472E+01  0.14579162089E+02  0.51100000000E-03 0.  1.
        -11    1    3    3    0    0  0.88416810803E-01  0.66168314398E+00 -0.20001559116E+01  0.21086170936E+01  0.51100000000E-03 0. -1.
        -12    1    3    3    0    0 -0.11983115169E+02  0.20645894058E+02  0.19933168225E+02  0.31099504596E+02  0.00000000000E+00 0.  1.
</event>
<event>
 7    1  0.2653124E-010  0.4778727E+02  0.7816164E-02  0.1312668E+00
        -11   -1    0    0    0    0  0.00000000000E+00  0.00000000000E+00  0.45593999997E+02  0.45594000000E+02  0.51100000000E-03 0.  1.
         11   -1    0    0    0    0 -0.00000000000E+00 -0.00000000000E+00 -0.45593999997E+02  0.45594000000E+02  0.51100000000E-03 0. -1.
    9900012    2    1    2    0    0 -0.12542674250E+02 -0.41531571219E+02  0.11971850882E+01  0.47787270313E+02  0.19999996663E+02 0.  0.
         12    1    1    2    0    0  0.12542674250E+02  0.41531571219E+02 -0.11971850882E+01  0.43400729687E+02  0.00000000000E+00 0. -1.
         11    1    3    3    0    0 -0.68176174898E+01 -0.27866470213E+02  0.29308532789E+00  0.28689823451E+02  0.51100000000E-03 0. -1.
        -11    1    3    3    0    0 -0.50559600631E+01 -0.15851219766E+02  0.15813970103E+01  0.16713010411E+02  0.51100000000E-03 0.  1.
         12    1    3    3    0    0 -0.66909669737E+00  0.21861187600E+01 -0.67729725000E+00  0.23844364508E+01  0.00000000000E+00 0. -1.
</event>
<event>
 7    1  0.2653124E-010  0.4778727E+02  0.7816164E-02  0.1312668E+00
        -11   -1    0    0    0    0  0.00000000000E+00  0.00000000000E+00  0.45593999997E+02  0.45594000000E+02  0.51100000000E-03 0.  1.
         11   -1    0    0    0    0 -0.00000000000E+00 -0.00000000000E+00 -0.45593999997E+02  0.45594000000E+02  0.51100000000E-03 0. -1.
    9900012    2    1    2    0    0  0.93954202023E+01  0.39483266133E+02  0.15375993110E+02  0.47787269713E+02  0.19999993929E+02 0.  0.
         12    1    1    2    0    0 -0.93954202023E+01 -0.39483266133E+02 -0.15375993110E+02  0.43400730287E+02  0.00000000000E+00 0. -1.
         11    1    3    3    0    0  0.69026495574E+01  0.15095652841E+02  0.10126744901E+02  0.19444183402E+02  0.51100000000E-03 0. -1.
        -11    1    3    3    0    0  0.72941022533E+01  0.17993966836E+02  0.59744539301E+01  0.20314548240E+02  0.51100000000E-03 0.  1.
        -12    1    3    3    0    0 -0.48013316085E+01  0.63936464557E+01 -0.72520572083E+00  0.80285380707E+01  0.00000000000E+00 0.  1.
</event>
<event>
 7    1  0.2653124E-010  0.4778727E+02  0.7816164E-02  0.1312668E+00
        -11   -1    0    0    0    0  0.00000000000E+00  0.00000000000E+00  0.45593999997E+02  0.45594000000E+02  0.51100000000E-03 0. -1.
         11   -1    0    0    0    0 -0.00000000000E+00 -0.00000000000E+00 -0.45593999997E+02  0.45594000000E+02  0.51100000000E-03 0.  1.
    9900012    2    1    2    0    0 -0.33669679138E+02  0.14921758790E+02 -0.22963382090E+02  0.47787273098E+02  0.20000009361E+02 0.  0.
         12    1    1    2    0    0  0.33669679138E+02 -0.14921758790E+02  0.22963382090E+02  0.43400726902E+02  0.00000000000E+00 0. -1.
         11    1    3    3    0    0 -0.11428882003E+02 -0.11130620698E+01 -0.37084280711E+01  0.12066925459E+02  0.51100000000E-03 0. -1.
        -11    1    3    3    0    0  0.12701032889E+01 -0.20053076707E+00 -0.36449592274E-01  0.12863529014E+01  0.51100000000E-03 0.  1.
        -12    1    3    3    0    0 -0.23510900424E+02  0.16235351627E+02 -0.19218504427E+02  0.34433994738E+02  0.00000000000E+00 0.  1.
</event>
<event>
 7    1  0.2653124E-010  0.4778728E+02  0.7816164E-02  0.1312668E+00
        -11   -1    0    0    0    0  0.00000000000E+00  0.00000000000E+00  0.45593999997E+02  0.45594000000E+02  0.51100000000E-03 0.  1.
         11   -1    0    0    0    0 -0.00000000000E+00 -0.00000000000E+00 -0.45593999997E+02  0.45594000000E+02  0.51100000000E-03 0. -1.
    9900012    2    1    2    0    0  0.11487243132E+02  0.41483386666E+02  0.55492977227E+01  0.47787276167E+02  0.20000023355E+02 0.  0.
         12    1    1    2    0    0 -0.11487243132E+02 -0.41483386666E+02 -0.55492977227E+01  0.43400723833E+02  0.00000000000E+00 0. -1.
         11    1    3    3    0    0  0.53467370554E+01  0.34336317822E+02  0.36011533984E+01  0.34936207934E+02  0.51100000000E-03 0. -1.
        -11    1    3    3    0    0 -0.10227406905E+01  0.38636372479E+01 -0.14743783829E+01  0.42599862887E+01  0.51100000000E-03 0.  1.
        -12    1    3    3    0    0  0.71632467674E+01  0.32834315955E+01  0.34225227072E+01  0.85910819443E+01  0.00000000000E+00 0.  1.
</event>
<event>
 7    1  0.2653124E-010  0.4778727E+02  0.7816164E-02  0.1312668E+00
        -11   -1    0    0    0    0  0.00000000000E+00  0.00000000000E+00  0.45593999997E+02  0.45594000000E+02  0.51100000000E-03 0.  1.
         11   -1    0    0    0    0 -0.00000000000E+00 -0.00000000000E+00 -0.45593999997E+02  0.45594000000E+02  0.51100000000E-03 0. -1.
    9900012    2    1    2    0    0  0.22695343662E+02  0.84939805012E+01 -0.36005511588E+02  0.47787271971E+02  0.20000004225E+02 0.  0.
         12    1    1    2    0    0 -0.22695343662E+02 -0.84939805012E+01  0.36005511588E+02  0.43400728029E+02  0.00000000000E+00 0. -1.
         11    1    3    3    0    0  0.22064935728E+01  0.77182066393E+00 -0.15829921650E+02  0.16001585569E+02  0.51100000000E-03 0. -1.
        -11    1    3    3    0    0  0.21237769331E+01 -0.19822271128E+01 -0.11293763746E+00  0.29073025229E+01  0.51100000000E-03 0.  1.
        -12    1    3    3    0    0  0.18365073156E+02  0.97043869501E+01 -0.20062652301E+02  0.28878383879E+02  0.00000000000E+00 0.  1.
</event>
<event>
 7    1  0.2653124E-010  0.4778727E+02  0.7816164E-02  0.1312668E+00
        -11   -1    0    0    0    0  0.00000000000E+00  0.00000000000E+00  0.45593999997E+02  0.45594000000E+02  0.51100000000E-03 0.  1.
         11   -1    0    0    0    0 -0.00000000000E+00 -0.00000000000E+00 -0.45593999997E+02  0.45594000000E+02  0.51100000000E-03 0. -1.
    9900012    2    1    2    0    0  0.41034676349E+01  0.28022471067E+02  0.32886561831E+02  0.47787270969E+02  0.19999999656E+02 0.  0.
         12    1    1    2    0    0 -0.41034676349E+01 -0.28022471067E+02 -0.32886561831E+02  0.43400729031E+02  0.00000000000E+00 0. -1.
         11    1    3    3    0    0  0.20607688854E+01  0.56734330037E+00  0.57142577569E+01  0.61009334362E+01  0.51100000000E-03 0. -1.
        -11    1    3    3    0    0 -0.42440430566E+01  0.25471568480E+01  0.10719058627E+01  0.50644735081E+01  0.51100000000E-03 0.  1.
        -12    1    3    3    0    0  0.62867418061E+01  0.24907970919E+02  0.26100398212E+02  0.36621864025E+02  0.00000000000E+00 0.  1.
</event>
<event>
 7    1  0.2653124E-010  0.4778727E+02  0.7816164E-02  0.1312668E+00
        -11   -1    0    0    0    0  0.00000000000E+00  0.00000000000E+00  0.45593999997E+02  0.45594000000E+02  0.51100000000E-03 0.  1.
         11   -1    0    0    0    0 -0.00000000000E+00 -0.00000000000E+00 -0.45593999997E+02  0.45594000000E+02  0.51100000000E-03 0. -1.
    9900012    2    1    2    0    0 -0.28743447368E+02 -0.18418634343E+02  0.26799097636E+02  0.47787268534E+02  0.19999988555E+02 0.  0.
         12    1    1    2    0    0  0.28743447368E+02  0.18418634343E+02 -0.26799097636E+02  0.43400731466E+02  0.00000000000E+00 0. -1.
         11    1    3    3    0    0 -0.12378767666E+01 -0.32794476293E+01  0.12642583757E+01  0.37263205907E+01  0.51100000000E-03 0. -1.
        -11    1    3    3    0    0 -0.44147896905E+01 -0.86032265894E+01  0.96815100360E+00  0.97181887400E+01  0.51100000000E-03 0.  1.
         12    1    3    3    0    0 -0.23090780910E+02 -0.65359601245E+01  0.24566688257E+02  0.34342759204E+02  0.00000000000E+00 0. -1.
</event>
<event>
 7    1  0.2653124E-010  0.4778726E+02  0.7816164E-02  0.1312668E+00
        -11   -1    0    0    0    0  0.00000000000E+00  0.00000000000E+00  0.45593999997E+02  0.45594000000E+02  0.51100000000E-03 0.  1.
         11   -1    0    0    0    0 -0.00000000000E+00 -0.00000000000E+00 -0.45593999997E+02  0.45594000000E+02  0.51100000000E-03 0. -1.
    9900012    2    1    2    0    0  0.38572791525E+01  0.19581765646E+02  0.38539589286E+02  0.47787261635E+02  0.19999957100E+02 0.  0.
         12    1    1    2    0    0 -0.38572791525E+01 -0.19581765646E+02 -0.38539589286E+02  0.43400738365E+02  0.00000000000E+00 0. -1.
         11    1    3    3    0    0 -0.23870184755E+01  0.34926453848E+01  0.12453591264E+01  0.44099148065E+01  0.51100000000E-03 0. -1.
        -11    1    3    3    0    0  0.51906877239E+01 -0.77308267163E+00  0.93874937108E+01  0.10754809821E+02  0.51100000000E-03 0.  1.
        -12    1    3    3    0    0  0.10536099042E+01  0.16862202933E+02  0.27906736449E+02  0.32622537007E+02  0.00000000000E+00 0.  1.
</event>
<event>
 7    1  0.2653124E-010  0.4778727E+02  0.7816164E-02  0.1312668E+00
        -11   -1    0    0    0    0  0.00000000000E+00  0.00000000000E+00  0.45593999997E+02  0.45594000000E+02  0.51100000000E-03 0.  1.
         11   -1    0    0    0    0 -0.00000000000E+00 -0.00000000000E+00 -0.45593999997E+02  0.45594000000E+02  0.51100000000E-03 0. -1.
    9900012    2    1    2    0    0 -0.10889948075E+02  0.32737544620E+02  0.26330317551E+02  0.47787269370E+02  0.19999992367E+02 0.  0.
         12    1    1    2    0    0  0.10889948075E+02 -0.32737544620E+02 -0.26330317551E+02  0.43400730630E+02  0.00000000000E+00 0. -1.
         11    1    3    3    0    0 -0.26438645920E+01  0.67946342699E+01  0.32800136473E+01  0.79947210476E+01  0.51100000000E-03 0. -1.
        -11    1    3    3    0    0 -0.28939859299E+01  0.17134589132E+02  0.35503178491E+01  0.17736235688E+02  0.51100000000E-03 0.  1.
         12    1    3    3    0    0 -0.53520975530E+01  0.88083212183E+01  0.19499986055E+02  0.22056312635E+02  0.00000000000E+00 0. -1.
</event>
<event>
 7    1  0.2653124E-010  0.4778727E+02  0.7816164E-02  0.1312668E+00
        -11   -1    0    0    0    0  0.00000000000E+00  0.00000000000E+00  0.45593999997E+02  0.45594000000E+02  0.51100000000E-03 0. -1.
         11   -1    0    0    0    0 -0.00000000000E+00 -0.00000000000E+00 -0.45593999997E+02  0.45594000000E+02  0.51100000000E-03 0.  1.
    9900012    2    1    2    0    0  0.10769590397E+02  0.38859977344E+02 -0.16048097081E+02  0.47787270324E+02  0.19999996713E+02 0.  0.
         12    1    1    2    0    0 -0.10769590397E+02 -0.38859977344E+02  0.16048097081E+02  0.43400729676E+02  0.00000000000E+00 0. -1.
         11    1    3    3    0    0  0.11348613907E+02  0.13878778447E+02 -0.15075526790E+01  0.17991226866E+02  0.51100000000E-03 0. -1.
        -11    1    3    3    0    0 -0.15572260293E+01  0.22597711023E+01  0.10413069158E+00  0.27463360689E+01  0.51100000000E-03 0.  1.
        -12    1    3    3    0    0  0.97820251901E+00  0.22721427795E+02 -0.14644675094E+02  0.27049707389E+02  0.00000000000E+00 0.  1.
</event>
<event>
 7    1  0.2653124E-010  0.4778726E+02  0.7816164E-02  0.1312668E+00
        -11   -1    0    0    0    0  0.00000000000E+00  0.00000000000E+00  0.45593999997E+02  0.45594000000E+02  0.51100000000E-03 0.  1.
         11   -1    0    0    0    0 -0.00000000000E+00 -0.00000000000E+00 -0.45593999997E+02  0.45594000000E+02  0.51100000000E-03 0. -1.
    9900012    2    1    2    0    0 -0.37500706556E+01 -0.43145706001E+02  0.28300017989E+01  0.47787263988E+02  0.19999967827E+02 0.  0.
         12    1    1    2    0    0  0.37500706556E+01  0.43145706001E+02 -0.28300017989E+01  0.43400736012E+02  0.00000000000E+00 0. -1.
         11    1    3    3    0    0  0.29033669748E+01 -0.44660326573E+00 -0.10001134829E+01  0.31030986944E+01  0.51100000000E-03 0. -1.
        -11    1    3    3    0    0  0.14149208004E+01 -0.17066142619E+02  0.48298862350E+01  0.17792780167E+02  0.51100000000E-03 0.  1.
        -12    1    3    3    0    0 -0.80683584308E+01 -0.25632960116E+02 -0.99977095319E+00  0.26891385127E+02  0.00000000000E+00 0.  1.
</event>
<event>
 7    1  0.2653124E-010  0.4778727E+02  0.7816164E-02  0.1312668E+00
        -11   -1    0    0    0    0  0.00000000000E+00  0.00000000000E+00  0.45593999997E+02  0.45594000000E+02  0.51100000000E-03 0.  1.
         11   -1    0    0    0    0 -0.00000000000E+00 -0.00000000000E+00 -0.45593999997E+02  0.45594000000E+02  0.51100000000E-03 0. -1.
    9900012    2    1    2    0    0 -0.34320236758E+02 -0.15713098844E+02  0.21420622185E+02  0.47787272112E+02  0.20000004868E+02 0.  0.
         12    1    1    2    0    0  0.34320236758E+02  0.15713098844E+02 -0.21420622185E+02  0.43400727888E+02  0.00000000000E+00 0. -1.
         11    1    3    3    0    0 -0.13694204158E+02 -0.19568602786E+01  0.10283078680E+01  0.13871479625E+02  0.51100000000E-03 0. -1.
        -11    1    3    3    0    0 -0.17598356928E+02 -0.96324911411E+01  0.10187628820E+02  0.22500551847E+02  0.51100000000E-03 0.  1.
        -12    1    3    3    0    0 -0.30276756721E+01 -0.41237474242E+01  0.10204685497E+02  0.11415240640E+02  0.00000000000E+00 0.  1.
</event>
<event>
 7    1  0.2653124E-010  0.4778727E+02  0.7816164E-02  0.1312668E+00
        -11   -1    0    0    0    0  0.00000000000E+00  0.00000000000E+00  0.45593999997E+02  0.45594000000E+02  0.51100000000E-03 0.  1.
         11   -1    0    0    0    0 -0.00000000000E+00 -0.00000000000E+00 -0.45593999997E+02  0.45594000000E+02  0.51100000000E-03 0. -1.
    9900012    2    1    2    0    0 -0.55683304554E+01  0.37568857041E+02  0.21004712532E+02  0.47787271066E+02  0.20000000100E+02 0.  0.
         12    1    1    2    0    0  0.55683304554E+01 -0.37568857041E+02 -0.21004712532E+02  0.43400728934E+02  0.00000000000E+00 0. -1.
         11    1    3    3    0    0  0.19053479669E+00  0.16541597024E+01  0.19463195443E+01  0.25613878776E+01  0.51100000000E-03 0. -1.
        -11    1    3    3    0    0  0.11429170676E+01  0.18281131012E+02 -0.60052372455E-01  0.18316921604E+02  0.51100000000E-03 0.  1.
        -12    1    3    3    0    0 -0.69017823197E+01  0.17633566327E+02  0.19118445360E+02  0.26908961585E+02  0.00000000000E+00 0.  1.
</event>
<event>
 7    1  0.2653124E-010  0.4778727E+02  0.7816164E-02  0.1312668E+00
        -11   -1    0    0    0    0  0.00000000000E+00  0.00000000000E+00  0.45593999997E+02  0.45594000000E+02  0.51100000000E-03 0.  1.
         11   -1    0    0    0    0 -0.00000000000E+00 -0.00000000000E+00 -0.45593999997E+02  0.45594000000E+02  0.51100000000E-03 0. -1.
    9900012    2    1    2    0    0  0.53955106566E+01 -0.19952412948E+02  0.38162978454E+02  0.47787271410E+02  0.20000001665E+02 0.  0.
         12    1    1    2    0    0 -0.53955106566E+01  0.19952412948E+02 -0.38162978454E+02  0.43400728590E+02  0.00000000000E+00 0. -1.
         11    1    3    3    0    0  0.34510969218E+01 -0.25138917263E+01  0.85291589641E+01  0.95381483776E+01  0.51100000000E-03 0. -1.
        -11    1    3    3    0    0  0.47546746567E+01 -0.17999581203E+02  0.30053758679E+02  0.35352797140E+02  0.51100000000E-03 0.  1.
         12    1    3    3    0    0 -0.28102609220E+01  0.56105998198E+00 -0.41993918894E+00  0.28963258925E+01  0.00000000000E+00 0. -1.
</event>
<event>
 7    1  0.2653124E-010  0.4778727E+02  0.7816164E-02  0.1312668E+00
        -11   -1    0    0    0    0  0.00000000000E+00  0.00000000000E+00  0.45593999997E+02  0.45594000000E+02  0.51100000000E-03 0. -1.
         11   -1    0    0    0    0 -0.00000000000E+00 -0.00000000000E+00 -0.45593999997E+02  0.45594000000E+02  0.51100000000E-03 0.  1.
    9900012    2    1    2    0    0 -0.39535602673E+02  0.13346837459E+02 -0.11934045010E+02  0.47787269831E+02  0.19999994468E+02 0.  0.
         12    1    1    2    0    0  0.39535602673E+02 -0.13346837459E+02  0.11934045010E+02  0.43400730169E+02  0.00000000000E+00 0. -1.
         11    1    3    3    0    0  0.21563356382E+00  0.50275118663E+00  0.41059901115E+00  0.68399444338E+00  0.51100000000E-03 0. -1.
        -11    1    3    3    0    0 -0.25638731756E+02  0.43346819425E+01 -0.15574825931E+02  0.30310216704E+02  0.51100000000E-03 0.  1.
        -12    1    3    3    0    0 -0.14112504481E+02  0.85094043301E+01  0.32301819098E+01  0.16793058683E+02  0.00000000000E+00 0.  1.
</event>
<event>
 7    1  0.2653124E-010  0.4778726E+02  0.7816164E-02  0.1312668E+00
        -11   -1    0    0    0    0  0.00000000000E+00  0.00000000000E+00  0.45593999997E+02  0.45594000000E+02  0.51100000000E-03 0.  1.
         11   -1    0    0    0    0 -0.00000000000E+00 -0.00000000000E+00 -0.45593999997E+02  0.45594000000E+02  0.51100000000E-03 0. -1.
    9900012    2    1    2    0    0 -0.39425254978E+02  0.92627144072E+01  0.15603691617E+02  0.47787264979E+02  0.19999972347E+02 0.  0.
         12    1    1    2    0    0  0.39425254978E+02 -0.92627144072E+01 -0.15603691617E+02  0.43400735021E+02  0.00000000000E+00 0. -1.
         11    1    3    3    0    0 -0.70664449106E+01  0.31297916207E+01  0.87912490089E+01  0.11705396134E+02  0.51100000000E-03 0. -1.
        -11    1    3    3    0    0 -0.11069809809E+02  0.82137460509E+01  0.48036301780E+01  0.14597300317E+02  0.51100000000E-03 0.  1.
         12    1    3    3    0    0 -0.21289000258E+02 -0.20808232643E+01  0.20088124296E+01  0.21484568528E+02  0.00000000000E+00 0. -1.
</event>
<event>
 7    1  0.2653124E-010  0.4778727E+02  0.7816164E-02  0.1312668E+00
        -11   -1    0    0    0    0  0.00000000000E+00  0.00000000000E+00  0.45593999997E+02  0.45594000000E+02  0.51100000000E-03 0.  1.
         11   -1    0    0    0    0 -0.00000000000E+00 -0.00000000000E+00 -0.45593999997E+02  0.45594000000E+02  0.51100000000E-03 0. -1.
    9900012    2    1    2    0    0  0.45963084183E+01  0.18220838391E+01  0.43118177527E+02  0.47787271045E+02  0.20000000003E+02 0.  0.
         12    1    1    2    0    0 -0.45963084183E+01 -0.18220838391E+01 -0.43118177527E+02  0.43400728955E+02  0.00000000000E+00 0. -1.
         11    1    3    3    0    0 -0.38099030763E+00  0.26231592355E+01  0.28642213741E+02  0.28764605442E+02  0.51100000000E-03 0.  1.
        -11    1    3    3    0    0  0.58578049229E+01  0.36556011141E+01  0.12010696858E+02  0.13854029641E+02  0.51100000000E-03 0. -1.
        -12    1    3    3    0    0 -0.88050619696E+00 -0.44566765105E+01  0.24652669276E+01  0.51686359619E+01  0.00000000000E+00 0.  1.
</event>
<event>
 7    1  0.2653124E-010  0.4778727E+02  0.7816164E-02  0.1312668E+00
        -11   -1    0    0    0    0  0.00000000000E+00  0.00000000000E+00  0.45593999997E+02  0.45594000000E+02  0.51100000000E-03 0.  1.
         11   -1    0    0    0    0 -0.00000000000E+00 -0.00000000000E+00 -0.45593999997E+02  0.45594000000E+02  0.51100000000E-03 0. -1.
    9900012    2    1    2    0    0  0.24474930821E+02  0.12077542537E+02  0.33745138632E+02  0.47787266668E+02  0.19999980047E+02 0.  0.
         12    1    1    2    0    0 -0.24474930821E+02 -0.12077542537E+02 -0.33745138632E+02  0.43400733332E+02  0.00000000000E+00 0. -1.
         11    1    3    3    0    0 -0.20661861633E+01  0.15744067648E+01  0.21775128571E+01  0.33896082999E+01  0.51100000000E-03 0. -1.
        -11    1    3    3    0    0  0.86707700019E+01  0.33911062967E+01  0.19721503370E+02  0.21808703533E+02  0.51100000000E-03 0.  1.
         12    1    3    3    0    0  0.17870346982E+02  0.71120294757E+01  0.11846122405E+02  0.22588954836E+02  0.00000000000E+00 0. -1.
</event>
<event>
 7    1  0.2653124E-010  0.4778727E+02  0.7816164E-02  0.1312668E+00
        -11   -1    0    0    0    0  0.00000000000E+00  0.00000000000E+00  0.45593999997E+02  0.45594000000E+02  0.51100000000E-03 0.  1.
         11   -1    0    0    0    0 -0.00000000000E+00 -0.00000000000E+00 -0.45593999997E+02  0.45594000000E+02  0.51100000000E-03 0. -1.
    9900012    2    1    2    0    0 -0.18475199275E+02  0.24345116624E+02  0.30815671280E+02  0.47787270881E+02  0.19999999254E+02 0.  0.
         12    1    1    2    0    0  0.18475199275E+02 -0.24345116624E+02 -0.30815671280E+02  0.43400729119E+02  0.00000000000E+00 0. -1.
         11    1    3    3    0    0 -0.20457566960E+01  0.38055522492E+00  0.49215674785E+01  0.53433855789E+01  0.51100000000E-03 0. -1.
        -11    1    3    3    0    0 -0.10097870513E+02  0.68802693810E+01  0.19734358838E+02  0.23210989093E+02  0.51100000000E-03 0.  1.
         12    1    3    3    0    0 -0.63315720659E+01  0.17084292018E+02  0.61597449629E+01  0.19232896209E+02  0.00000000000E+00 0. -1.
</event>
<event>
 7    1  0.2653124E-010  0.4778727E+02  0.7816164E-02  0.1312668E+00
        -11   -1    0    0    0    0  0.00000000000E+00  0.00000000000E+00  0.45593999997E+02  0.45594000000E+02  0.51100000000E-03 0. -1.
         11   -1    0    0    0    0 -0.00000000000E+00 -0.00000000000E+00 -0.45593999997E+02  0.45594000000E+02  0.51100000000E-03 0.  1.
    9900012    2    1    2    0    0 -0.42658627597E+02  0.65699730262E+01 -0.45497512091E+01  0.47787270857E+02  0.19999999148E+02 0.  0.
         12    1    1    2    0    0  0.42658627597E+02 -0.65699730262E+01  0.45497512091E+01  0.43400729143E+02  0.00000000000E+00 0. -1.
         11    1    3    3    0    0 -0.14898784939E+02  0.70202604366E+01 -0.44293296596E+01  0.17055110986E+02  0.51100000000E-03 0. -1.
        -11    1    3    3    0    0 -0.25803672299E+02  0.29007975508E+01 -0.26486188113E+01  0.26100944665E+02  0.51100000000E-03 0.  1.
        -12    1    3    3    0    0 -0.19561703592E+01 -0.33510849612E+01  0.25281972618E+01  0.46312152062E+01  0.00000000000E+00 0.  1.
</event>
<event>
 7    1  0.2653124E-010  0.4778727E+02  0.7816164E-02  0.1312668E+00
        -11   -1    0    0    0    0  0.00000000000E+00  0.00000000000E+00  0.45593999997E+02  0.45594000000E+02  0.51100000000E-03 0. -1.
         11   -1    0    0    0    0 -0.00000000000E+00 -0.00000000000E+00 -0.45593999997E+02  0.45594000000E+02  0.51100000000E-03 0.  1.
    9900012    2    1    2    0    0  0.16304941058E+02 -0.18447678895E+01 -0.40179213638E+02  0.47787268669E+02  0.19999989171E+02 0.  0.
         12    1    1    2    0    0 -0.16304941058E+02  0.18447678895E+01  0.40179213638E+02  0.43400731331E+02  0.00000000000E+00 0. -1.
         11    1    3    3    0    0  0.29133242122E+01  0.12326613107E+01 -0.17186599127E+01  0.36000977805E+01  0.51100000000E-03 0. -1.
        -11    1    3    3    0    0  0.61158272145E+01  0.62001883572E+01 -0.93399949083E+01  0.12770324324E+02  0.51100000000E-03 0.  1.
        -12    1    3    3    0    0  0.72757896318E+01 -0.92776175574E+01 -0.29120558817E+02  0.31416846565E+02  0.00000000000E+00 0.  1.
</event>
<event>
 7    1  0.2653124E-010  0.4778727E+02  0.7816164E-02  0.1312668E+00
        -11   -1    0    0    0    0  0.00000000000E+00  0.00000000000E+00  0.45593999997E+02  0.45594000000E+02  0.51100000000E-03 0. -1.
         11   -1    0    0    0    0 -0.00000000000E+00 -0.00000000000E+00 -0.45593999997E+02  0.45594000000E+02  0.51100000000E-03 0.  1.
    9900012    2    1    2    0    0  0.29669540618E+02  0.26727408776E+01 -0.31562605281E+02  0.47787271476E+02  0.20000001968E+02 0.  0.
         12    1    1    2    0    0 -0.29669540618E+02 -0.26727408776E+01  0.31562605281E+02  0.43400728524E+02  0.00000000000E+00 0. -1.
         11    1    3    3    0    0  0.20238296342E+02 -0.51216210553E+00 -0.10973753333E+02  0.23027683586E+02  0.51100000000E-03 0. -1.
        -11    1    3    3    0    0  0.63267962764E+01 -0.21392148207E+01 -0.15082252660E+02  0.16494815450E+02  0.51100000000E-03 0.  1.
        -12    1    3    3    0    0  0.31044479992E+01  0.53241178038E+01 -0.55065992888E+01  0.82647724407E+01  0.00000000000E+00 0.  1.
</event>
<event>
 7    1  0.2653124E-010  0.4778727E+02  0.7816164E-02  0.1312668E+00
        -11   -1    0    0    0    0  0.00000000000E+00  0.00000000000E+00  0.45593999997E+02  0.45594000000E+02  0.51100000000E-03 0.  1.
         11   -1    0    0    0    0 -0.00000000000E+00 -0.00000000000E+00 -0.45593999997E+02  0.45594000000E+02  0.51100000000E-03 0. -1.
    9900012    2    1    2    0    0  0.34802629578E+02  0.25635191793E+02 -0.39034687129E+01  0.47787272451E+02  0.20000006413E+02 0.  0.
         12    1    1    2    0    0 -0.34802629578E+02 -0.25635191793E+02  0.39034687129E+01  0.43400727549E+02  0.00000000000E+00 0. -1.
         11    1    3    3    0    0  0.12211132707E+01 -0.43890802025E+00 -0.59366306047E+00  0.14269526834E+01  0.51100000000E-03 0. -1.
        -11    1    3    3    0    0  0.92399599902E+01  0.17098872545E+02 -0.58387778181E+01  0.20293832304E+02  0.51100000000E-03 0.  1.
         12    1    3    3    0    0  0.24341556317E+02  0.89752272681E+01  0.25289721656E+01  0.26066487463E+02  0.00000000000E+00 0. -1.
</event>
<event>
 7    1  0.2653124E-010  0.4778730E+02  0.7816164E-02  0.1312668E+00
        -11   -1    0    0    0    0  0.00000000000E+00  0.00000000000E+00  0.45593999997E+02  0.45594000000E+02  0.51100000000E-03 0. -1.
         11   -1    0    0    0    0 -0.00000000000E+00 -0.00000000000E+00 -0.45593999997E+02  0.45594000000E+02  0.51100000000E-03 0.  1.
    9900012    2    1    2    0    0  0.69679756665E+01  0.38004288142E+02 -0.19767207971E+02  0.47787295939E+02  0.20000113504E+02 0.  0.
         12    1    1    2    0    0 -0.69679756665E+01 -0.38004288142E+02  0.19767207971E+02  0.43400704061E+02  0.00000000000E+00 0. -1.
         11    1    3    3    0    0  0.18348222335E+01  0.17369819217E+01  0.34862288915E+01  0.43055163419E+01  0.51100000000E-03 0. -1.
        -11    1    3    3    0    0  0.21614053458E+00  0.20343391493E+01 -0.21473045272E+01  0.29658336937E+01  0.51100000000E-03 0.  1.
         12    1    3    3    0    0  0.49170128984E+01  0.34232967071E+02 -0.21106132335E+02  0.40515945903E+02  0.00000000000E+00 0. -1.
</event>
<event>
 7    1  0.2653124E-010  0.4778726E+02  0.7816164E-02  0.1312668E+00
        -11   -1    0    0    0    0  0.00000000000E+00  0.00000000000E+00  0.45593999997E+02  0.45594000000E+02  0.51100000000E-03 0. -1.
         11   -1    0    0    0    0 -0.00000000000E+00 -0.00000000000E+00 -0.45593999997E+02  0.45594000000E+02  0.51100000000E-03 0.  1.
    9900012    2    1    2    0    0  0.31887139627E+02  0.95779665520E+01  0.27840558725E+02  0.47787264672E+02  0.19999970948E+02 0.  0.
         12    1    1    2    0    0 -0.31887139627E+02 -0.95779665520E+01 -0.27840558725E+02  0.43400735328E+02  0.00000000000E+00 0. -1.
         11    1    3    3    0    0  0.73338534870E+01  0.28247837152E+01  0.13240098698E+02  0.15396916049E+02  0.51100000000E-03 0. -1.
        -11    1    3    3    0    0  0.20507166522E+01  0.42857254955E+01  0.70993937630E+01  0.85424981050E+01  0.51100000000E-03 0.  1.
        -12    1    3    3    0    0  0.22502569488E+02  0.24674573413E+01  0.75010662635E+01  0.23847850519E+02  0.00000000000E+00 0.  1.
</event>
<event>
 7    1  0.2653124E-010  0.4778727E+02  0.7816164E-02  0.1312668E+00
        -11   -1    0    0    0    0  0.00000000000E+00  0.00000000000E+00  0.45593999997E+02  0.45594000000E+02  0.51100000000E-03 0.  1.
         11   -1    0    0    0    0 -0.00000000000E+00 -0.00000000000E+00 -0.45593999997E+02  0.45594000000E+02  0.51100000000E-03 0. -1.
    9900012    2    1    2    0    0  0.29029267250E+02  0.10224702050E+02  0.30600334321E+02  0.47787270172E+02  0.19999996021E+02 0.  0.
         12    1    1    2    0    0 -0.29029267250E+02 -0.10224702050E+02 -0.30600334321E+02  0.43400729828E+02  0.00000000000E+00 0. -1.
         11    1    3    3    0    0 -0.13598254508E+01  0.33023313438E+00  0.35192995464E+00  0.14429255469E+01  0.51100000000E-03 0. -1.
        -11    1    3    3    0    0  0.14160858631E+02  0.10345104398E+02  0.93275430348E+01  0.19863387463E+02  0.51100000000E-03 0.  1.
        -12    1    3    3    0    0  0.16228234070E+02 -0.45063548238E+00  0.20920861332E+02  0.26480957162E+02  0.00000000000E+00 0.  1.
</event>
<event>
 7    1  0.2653124E-010  0.4778727E+02  0.7816164E-02  0.1312668E+00
        -11   -1    0    0    0    0  0.00000000000E+00  0.00000000000E+00  0.45593999997E+02  0.45594000000E+02  0.51100000000E-03 0. -1.
         11   -1    0    0    0    0 -0.00000000000E+00 -0.00000000000E+00 -0.45593999997E+02  0.45594000000E+02  0.51100000000E-03 0.  1.
    9900012    2    1    2    0    0  0.31532765393E+02 -0.12470516776E-01 -0.29821259399E+02  0.47787274649E+02  0.20000016433E+02 0.  0.
         12    1    1    2    0    0 -0.31532765393E+02  0.12470516776E-01  0.29821259399E+02  0.43400725351E+02  0.00000000000E+00 0. -1.
         11    1    3    3    0    0 -0.12373354473E+01  0.18953837666E+01  0.70682222186E+00  0.23713027108E+01  0.51100000000E-03 0. -1.
        -11    1    3    3    0    0  0.98180992741E+01 -0.29983545880E+01 -0.64011899131E+01  0.12097951734E+02  0.51100000000E-03 0.  1.
        -12    1    3    3    0    0  0.22952001566E+02  0.10905003047E+01 -0.24126891708E+02  0.33318020204E+02  0.00000000000E+00 0.  1.
</event>
<event>
 7    1  0.2653124E-010  0.4778732E+02  0.7816164E-02  0.1312668E+00
        -11   -1    0    0    0    0  0.00000000000E+00  0.00000000000E+00  0.45593999997E+02  0.45594000000E+02  0.51100000000E-03 0. -1.
         11   -1    0    0    0    0 -0.00000000000E+00 -0.00000000000E+00 -0.45593999997E+02  0.45594000000E+02  0.51100000000E-03 0.  1.
    9900012    2    1    2    0    0  0.15936787865E+02 -0.36546657481E+02  0.17145826428E+02  0.47787323227E+02  0.20000237918E+02 0.  0.
         12    1    1    2    0    0 -0.15936787865E+02  0.36546657481E+02 -0.17145826428E+02  0.43400676773E+02  0.00000000000E+00 0. -1.
         11    1    3    3    0    0  0.51811796693E+01 -0.57766973807E+01  0.98444430972E+01  0.12535067433E+02  0.51100000000E-03 0. -1.
        -11    1    3    3    0    0 -0.13511070016E+00 -0.45607333777E+01  0.50125741090E+01  0.67782330517E+01  0.51100000000E-03 0.  1.
        -12    1    3    3    0    0  0.10890718896E+02 -0.26209226723E+02  0.22888092220E+01  0.28474022742E+02  0.00000000000E+00 0.  1.
</event>
<event>
 7    1  0.2653124E-010  0.4778721E+02  0.7816164E-02  0.1312668E+00
        -11   -1    0    0    0    0  0.00000000000E+00  0.00000000000E+00  0.45593999997E+02  0.45594000000E+02  0.51100000000E-03 0.  1.
         11   -1    0    0    0    0 -0.00000000000E+00 -0.00000000000E+00 -0.45593999997E+02  0.45594000000E+02  0.51100000000E-03 0. -1.
    9900012    2    1    2    0    0 -0.31536731036E+02 -0.29169433676E+02 -0.61812288317E+01  0.47787206744E+02  0.19999706825E+02 0.  0.
         12    1    1    2    0    0  0.31536731036E+02  0.29169433676E+02  0.61812288317E+01  0.43400793256E+02  0.00000000000E+00 0. -1.
         11    1    3    3    0    0 -0.70016782420E+01 -0.59461381332E+01 -0.70772481121E+00  0.92130848022E+01  0.51100000000E-03 0.  1.
        -11    1    3    3    0    0  0.10459101701E+00 -0.10398259961E+02 -0.11520729084E+01  0.10462409940E+02  0.51100000000E-03 0. -1.
         12    1    3    3    0    0 -0.24639643811E+02 -0.12825035581E+02 -0.43214311121E+01  0.28111712002E+02  0.00000000000E+00 0. -1.
</event>
<event>
 7    1  0.2653124E-010  0.4778727E+02  0.7816164E-02  0.1312668E+00
        -11   -1    0    0    0    0  0.00000000000E+00  0.00000000000E+00  0.45593999997E+02  0.45594000000E+02  0.51100000000E-03 0.  1.
         11   -1    0    0    0    0 -0.00000000000E+00 -0.00000000000E+00 -0.45593999997E+02  0.45594000000E+02  0.51100000000E-03 0. -1.
    9900012    2    1    2    0    0 -0.27575720259E+00  0.32723727530E+01  0.43276307520E+02  0.47787271227E+02  0.20000000832E+02 0.  0.
         12    1    1    2    0    0  0.27575720259E+00 -0.32723727530E+01 -0.43276307520E+02  0.43400728773E+02  0.00000000000E+00 0. -1.
         11    1    3    3    0    0 -0.11415163897E+01 -0.22308795344E+01  0.53573019069E+01  0.59144371793E+01  0.51100000000E-03 0.  1.
        -11    1    3    3    0    0 -0.45099886286E+01  0.53280717544E+01  0.35124809320E+02  0.35811737965E+02  0.51100000000E-03 0. -1.
         12    1    3    3    0    0  0.53757478157E+01  0.17518053301E+00  0.27941962927E+01  0.60610960823E+01  0.00000000000E+00 0. -1.
</event>
<event>
 7    1  0.2653124E-010  0.4778727E+02  0.7816164E-02  0.1312668E+00
        -11   -1    0    0    0    0  0.00000000000E+00  0.00000000000E+00  0.45593999997E+02  0.45594000000E+02  0.51100000000E-03 0.  1.
         11   -1    0    0    0    0 -0.00000000000E+00 -0.00000000000E+00 -0.45593999997E+02  0.45594000000E+02  0.51100000000E-03 0. -1.
    9900012    2    1    2    0    0 -0.79385386898E+01 -0.31365608520E+02  0.28927522986E+02  0.47787269817E+02  0.19999994403E+02 0.  0.
         12    1    1    2    0    0  0.79385386898E+01  0.31365608520E+02 -0.28927522986E+02  0.43400730183E+02  0.00000000000E+00 0. -1.
         11    1    3    3    0    0 -0.30277457640E+01 -0.38652787730E+01  0.61186401262E+01  0.78450864660E+01  0.51100000000E-03 0. -1.
        -11    1    3    3    0    0  0.12289103033E+01 -0.23337052343E+02  0.22616883622E+02  0.32521556815E+02  0.51100000000E-03 0.  1.
         12    1    3    3    0    0 -0.61397032290E+01 -0.41632774037E+01  0.19199923691E+00  0.74206265361E+01  0.00000000000E+00 0. -1.
</event>
<event>
 7    1  0.2653124E-010  0.4778728E+02  0.7816164E-02  0.1312668E+00
        -11   -1    0    0    0    0  0.00000000000E+00  0.00000000000E+00  0.45593999997E+02  0.45594000000E+02  0.51100000000E-03 0.  1.
         11   -1    0    0    0    0 -0.00000000000E+00 -0.00000000000E+00 -0.45593999997E+02  0.45594000000E+02  0.51100000000E-03 0. -1.
    9900012    2    1    2    0    0 -0.14796437506E+02  0.30047031082E+02  0.27601888325E+02  0.47787275596E+02  0.20000020750E+02 0.  0.
         12    1    1    2    0    0  0.14796437506E+02 -0.30047031082E+02 -0.27601888325E+02  0.43400724404E+02  0.00000000000E+00 0. -1.
         11    1    3    3    0    0 -0.28753692810E+01  0.11859866838E+02  0.44649238691E+01  0.12994604085E+02  0.51100000000E-03 0. -1.
        -11    1    3    3    0    0 -0.11849479713E+02  0.20438348526E+02  0.21943647015E+02  0.32243757605E+02  0.51100000000E-03 0.  1.
         12    1    3    3    0    0 -0.71588512130E-01 -0.22511842810E+01  0.11933174404E+01  0.25489139051E+01  0.00000000000E+00 0. -1.
</event>
<event>
 7    1  0.2653124E-010  0.4778728E+02  0.7816164E-02  0.1312668E+00
        -11   -1    0    0    0    0  0.00000000000E+00  0.00000000000E+00  0.45593999997E+02  0.45594000000E+02  0.51100000000E-03 0.  1.
         11   -1    0    0    0    0 -0.00000000000E+00 -0.00000000000E+00 -0.45593999997E+02  0.45594000000E+02  0.51100000000E-03 0. -1.
    9900012    2    1    2    0    0  0.96061298496E+01 -0.20053940549E+02  0.37271766660E+02  0.47787275902E+02  0.20000022150E+02 0.  0.
         12    1    1    2    0    0 -0.96061298496E+01  0.20053940549E+02 -0.37271766660E+02  0.43400724098E+02  0.00000000000E+00 0. -1.
         11    1    3    3    0    0 -0.45835372377E+00  0.13642727309E+01  0.51092683866E+01  0.53081024790E+01  0.51100000000E-03 0. -1.
        -11    1    3    3    0    0  0.12599349375E+02 -0.16657717238E+02  0.18923351294E+02  0.28183618872E+02  0.51100000000E-03 0.  1.
         12    1    3    3    0    0 -0.25348658016E+01 -0.47604960414E+01  0.13239146979E+02  0.14295554551E+02  0.00000000000E+00 0. -1.
</event>
<event>
 7    1  0.2653124E-010  0.4778729E+02  0.7816164E-02  0.1312668E+00
        -11   -1    0    0    0    0  0.00000000000E+00  0.00000000000E+00  0.45593999997E+02  0.45594000000E+02  0.51100000000E-03 0. -1.
         11   -1    0    0    0    0 -0.00000000000E+00 -0.00000000000E+00 -0.45593999997E+02  0.45594000000E+02  0.51100000000E-03 0.  1.
    9900012    2    1    2    0    0 -0.18948440375E+02 -0.29278430686E+02  0.25833158790E+02  0.47787285845E+02  0.20000067483E+02 0.  0.
         12    1    1    2    0    0  0.18948440375E+02  0.29278430686E+02 -0.25833158790E+02  0.43400714155E+02  0.00000000000E+00 0. -1.
         11    1    3    3    0    0 -0.28772420386E+01 -0.67459740640E+01  0.62096721845E+00  0.73601826314E+01  0.51100000000E-03 0.  1.
        -11    1    3    3    0    0  0.10519186728E+01 -0.10666629812E+02  0.96670410095E+01  0.14433821620E+02  0.51100000000E-03 0. -1.
         12    1    3    3    0    0 -0.17123117009E+02 -0.11865826810E+02  0.15545150562E+02  0.25993281593E+02  0.00000000000E+00 0. -1.
</event>
<event>
 7    1  0.2836492E-010  0.4778727E+02  0.7816164E-02  0.1312668E+00
        -11   -1    0    0    0    0  0.00000000000E+00  0.00000000000E+00  0.45593999997E+02  0.45594000000E+02  0.51100000000E-03 0. -1.
         11   -1    0    0    0    0 -0.00000000000E+00 -0.00000000000E+00 -0.45593999997E+02  0.45594000000E+02  0.51100000000E-03 0.  1.
    9900012    2    1    2    0    0  0.31104518313E+02 -0.13543832886E+02 -0.27068372909E+02  0.47787270966E+02  0.19999999644E+02 0.  0.
         12    1    1    2    0    0 -0.31104518313E+02  0.13543832886E+02  0.27068372909E+02  0.43400729034E+02  0.00000000000E+00 0. -1.
         11    1    3    3    0    0  0.17945056025E+02 -0.46592754715E+01 -0.14141837449E+02  0.23317921227E+02  0.51100000000E-03 0. -1.
        -11    1    3    3    0    0  0.15524906071E+02 -0.87991033848E+01 -0.13036654227E+02  0.22099802773E+02  0.51100000000E-03 0.  1.
         12    1    3    3    0    0 -0.23654437831E+01 -0.85454029356E-01  0.11011876761E+00  0.23695469662E+01  0.00000000000E+00 0. -1.
</event>
<event>
 7    1  0.2653124E-010  0.4778728E+02  0.7816164E-02  0.1312668E+00
        -11   -1    0    0    0    0  0.00000000000E+00  0.00000000000E+00  0.45593999997E+02  0.45594000000E+02  0.51100000000E-03 0.  1.
         11   -1    0    0    0    0 -0.00000000000E+00 -0.00000000000E+00 -0.45593999997E+02  0.45594000000E+02  0.51100000000E-03 0. -1.
    9900012    2    1    2    0    0  0.45902735636E+01  0.39472508800E+02  0.17449162207E+02  0.47787276227E+02  0.20000023627E+02 0.  0.
         12    1    1    2    0    0 -0.45902735636E+01 -0.39472508800E+02 -0.17449162207E+02  0.43400723773E+02  0.00000000000E+00 0. -1.
         11    1    3    3    0    0  0.34592224702E+01  0.44049435277E+01  0.36948150492E+00  0.56130441317E+01  0.51100000000E-03 0. -1.
        -11    1    3    3    0    0 -0.26291690611E+01  0.11175085597E+02  0.13504687904E+02  0.17724888256E+02  0.51100000000E-03 0.  1.
         12    1    3    3    0    0  0.37602201545E+01  0.23892479675E+02  0.35749927980E+01  0.24449343839E+02  0.00000000000E+00 0. -1.
</event>
<event>
 7    1  0.2653124E-010  0.4778728E+02  0.7816164E-02  0.1312668E+00
        -11   -1    0    0    0    0  0.00000000000E+00  0.00000000000E+00  0.45593999997E+02  0.45594000000E+02  0.51100000000E-03 0.  1.
         11   -1    0    0    0    0 -0.00000000000E+00 -0.00000000000E+00 -0.45593999997E+02  0.45594000000E+02  0.51100000000E-03 0. -1.
    9900012    2    1    2    0    0 -0.25302591132E+02  0.35255209630E+02  0.68701371119E+00  0.47787275214E+02  0.20000019012E+02 0.  0.
         12    1    1    2    0    0  0.25302591132E+02 -0.35255209630E+02 -0.68701371119E+00  0.43400724786E+02  0.00000000000E+00 0. -1.
         11    1    3    3    0    0 -0.10510664343E+01  0.51300674530E+00 -0.26581843257E+01  0.29041110070E+01  0.51100000000E-03 0. -1.
        -11    1    3    3    0    0 -0.88781971801E+01  0.75796916614E+01 -0.48073250081E+01  0.12624756823E+02  0.51100000000E-03 0.  1.
         12    1    3    3    0    0 -0.15373327518E+02  0.27162511224E+02  0.81525230451E+01  0.32258407384E+02  0.00000000000E+00 0. -1.
</event>
<event>
 7    1  0.2653124E-010  0.4778727E+02  0.7816164E-02  0.1312668E+00
        -11   -1    0    0    0    0  0.00000000000E+00  0.00000000000E+00  0.45593999997E+02  0.45594000000E+02  0.51100000000E-03 0. -1.
         11   -1    0    0    0    0 -0.00000000000E+00 -0.00000000000E+00 -0.45593999997E+02  0.45594000000E+02  0.51100000000E-03 0.  1.
    9900012    2    1    2    0    0  0.52739119889E+01  0.43042393207E+02 -0.17781193458E+01  0.47787268796E+02  0.19999989747E+02 0.  0.
         12    1    1    2    0    0 -0.52739119889E+01 -0.43042393207E+02  0.17781193458E+01  0.43400731204E+02  0.00000000000E+00 0. -1.
         11    1    3    3    0    0  0.37776129185E+01  0.84337309006E+01 -0.51419995183E+01  0.10575364560E+02  0.51100000000E-03 0. -1.
        -11    1    3    3    0    0  0.16700698199E+01  0.32403146652E+01 -0.35520078309E+01  0.50897477565E+01  0.51100000000E-03 0.  1.
         12    1    3    3    0    0 -0.17377074953E+00  0.31368347641E+02  0.69158880033E+01  0.32122156479E+02  0.00000000000E+00 0. -1.
</event>
<event>
 7    1  0.2653124E-010  0.4778727E+02  0.7816164E-02  0.1312668E+00
        -11   -1    0    0    0    0  0.00000000000E+00  0.00000000000E+00  0.45593999997E+02  0.45594000000E+02  0.51100000000E-03 0. -1.
         11   -1    0    0    0    0 -0.00000000000E+00 -0.00000000000E+00 -0.45593999997E+02  0.45594000000E+02  0.51100000000E-03 0.  1.
    9900012    2    1    2    0    0 -0.29067960611E+02 -0.48397745942E+01  0.31863044347E+02  0.47787270199E+02  0.19999996144E+02 0.  0.
         12    1    1    2    0    0  0.29067960611E+02  0.48397745942E+01 -0.31863044347E+02  0.43400729801E+02  0.00000000000E+00 0. -1.
         11    1    3    3    0    0 -0.24287686948E+01  0.50003791565E+00  0.55940309915E+01  0.61189981439E+01  0.51100000000E-03 0. -1.
        -11    1    3    3    0    0 -0.10607072746E+02  0.51806756001E+01  0.44378206622E+01  0.12611250708E+02  0.51100000000E-03 0.  1.
        -12    1    3    3    0    0 -0.16032119170E+02 -0.10520488110E+02  0.21831192694E+02  0.29057021347E+02  0.00000000000E+00 0.  1.
</event>
<event>
 7    1  0.2653124E-010  0.4778728E+02  0.7816164E-02  0.1312668E+00
        -11   -1    0    0    0    0  0.00000000000E+00  0.00000000000E+00  0.45593999997E+02  0.45594000000E+02  0.51100000000E-03 0.  1.
         11   -1    0    0    0    0 -0.00000000000E+00 -0.00000000000E+00 -0.45593999997E+02  0.45594000000E+02  0.51100000000E-03 0. -1.
    9900012    2    1    2    0    0  0.19269570697E+02  0.13042249271E+01  0.38866508039E+02  0.47787276451E+02  0.20000024649E+02 0.  0.
         12    1    1    2    0    0 -0.19269570697E+02 -0.13042249271E+01 -0.38866508039E+02  0.43400723549E+02  0.00000000000E+00 0. -1.
         11    1    3    3    0    0  0.10647600250E+02  0.21163549569E+01  0.29452708386E+02  0.31389685900E+02  0.51100000000E-03 0. -1.
        -11    1    3    3    0    0  0.80971412376E+01 -0.26919382444E+01  0.10972501239E+02  0.13899856526E+02  0.51100000000E-03 0.  1.
         12    1    3    3    0    0  0.52482920894E+00  0.18798082145E+01 -0.15587015864E+01  0.24977340245E+01  0.00000000000E+00 0. -1.
</event>
<event>
 7    1  0.2653124E-010  0.4778727E+02  0.7816164E-02  0.1312668E+00
        -11   -1    0    0    0    0  0.00000000000E+00  0.00000000000E+00  0.45593999997E+02  0.45594000000E+02  0.51100000000E-03 0. -1.
         11   -1    0    0    0    0 -0.00000000000E+00 -0.00000000000E+00 -0.45593999997E+02  0.45594000000E+02  0.51100000000E-03 0.  1.
    9900012    2    1    2    0    0  0.30955330482E+01  0.20616254512E+02 -0.38065876727E+02  0.47787271366E+02  0.20000001467E+02 0.  0.
         12    1    1    2    0    0 -0.30955330482E+01 -0.20616254512E+02  0.38065876727E+02  0.43400728634E+02  0.00000000000E+00 0. -1.
         11    1    3    3    0    0 -0.31599796902E+01  0.14944193299E+02 -0.13664686511E+02  0.20494829657E+02  0.51100000000E-03 0. -1.
        -11    1    3    3    0    0 -0.15822191283E+01 -0.80019005917E+00 -0.61630909066E+01  0.64130656697E+01  0.51100000000E-03 0.  1.
        -12    1    3    3    0    0  0.78377318667E+01  0.64722512730E+01 -0.18238099310E+02  0.20879376039E+02  0.00000000000E+00 0.  1.
</event>
<event>
 7    1  0.2653124E-010  0.4778728E+02  0.7816164E-02  0.1312668E+00
        -11   -1    0    0    0    0  0.00000000000E+00  0.00000000000E+00  0.45593999997E+02  0.45594000000E+02  0.51100000000E-03 0.  1.
         11   -1    0    0    0    0 -0.00000000000E+00 -0.00000000000E+00 -0.45593999997E+02  0.45594000000E+02  0.51100000000E-03 0. -1.
    9900012    2    1    2    0    0 -0.16863912111E+02 -0.62441816337E+01  0.39499892073E+02  0.47787276391E+02  0.20000024379E+02 0.  0.
         12    1    1    2    0    0  0.16863912111E+02  0.62441816337E+01 -0.39499892073E+02  0.43400723609E+02  0.00000000000E+00 0. -1.
         11    1    3    3    0    0  0.16668340548E+01  0.28133492309E+01  0.73990467291E+01  0.80894475968E+01  0.51100000000E-03 0. -1.
        -11    1    3    3    0    0 -0.90907682490E+01  0.12098102069E+01  0.10042614442E+02  0.13599993132E+02  0.51100000000E-03 0.  1.
        -12    1    3    3    0    0 -0.94399779167E+01 -0.10267341072E+02  0.22058230902E+02  0.26097835663E+02  0.00000000000E+00 0.  1.
</event>
<event>
 7    1  0.2653124E-010  0.4778726E+02  0.7816164E-02  0.1312668E+00
        -11   -1    0    0    0    0  0.00000000000E+00  0.00000000000E+00  0.45593999997E+02  0.45594000000E+02  0.51100000000E-03 0.  1.
         11   -1    0    0    0    0 -0.00000000000E+00 -0.00000000000E+00 -0.45593999997E+02  0.45594000000E+02  0.51100000000E-03 0. -1.
    9900012    2    1    2    0    0  0.60738561815E+01  0.27661239295E+02  0.32887504060E+02  0.47787264850E+02  0.19999971759E+02 0.  0.
         12    1    1    2    0    0 -0.60738561815E+01 -0.27661239295E+02 -0.32887504060E+02  0.43400735150E+02  0.00000000000E+00 0. -1.
         11    1    3    3    0    0  0.54566791386E+01  0.15242470367E+02  0.13203314885E+02  0.20891045314E+02  0.51100000000E-03 0. -1.
        -11    1    3    3    0    0 -0.47056453802E+00  0.11986807640E+02  0.21567319620E+02  0.24679024783E+02  0.51100000000E-03 0.  1.
         12    1    3    3    0    0  0.10877415809E+01  0.43196128794E+00 -0.18831304451E+01  0.22171947534E+01  0.00000000000E+00 0. -1.
</event>
<event>
 7    1  0.2653124E-010  0.4778729E+02  0.7816164E-02  0.1312668E+00
        -11   -1    0    0    0    0  0.00000000000E+00  0.00000000000E+00  0.45593999997E+02  0.45594000000E+02  0.51100000000E-03 0.  1.
         11   -1    0    0    0    0 -0.00000000000E+00 -0.00000000000E+00 -0.45593999997E+02  0.45594000000E+02  0.51100000000E-03 0. -1.
    9900012    2    1    2    0    0 -0.15142525945E+02 -0.32151708896E+02  0.24911709556E+02  0.47787288601E+02  0.20000080048E+02 0.  0.
         12    1    1    2    0    0  0.15142525945E+02  0.32151708896E+02 -0.24911709556E+02  0.43400711399E+02  0.00000000000E+00 0. -1.
         11    1    3    3    0    0 -0.82559541678E+01 -0.98087236746E+01  0.12285162892E+02  0.17756606289E+02  0.51100000000E-03 0. -1.
        -11    1    3    3    0    0 -0.92262291610E+01 -0.68496808720E+01  0.41611737430E+01  0.12221161964E+02  0.51100000000E-03 0.  1.
        -12    1    3    3    0    0  0.23396573841E+01 -0.15493304349E+02  0.84653729206E+01  0.17809520348E+02  0.00000000000E+00 0.  1.
</event>
<event>
 7    1  0.2653124E-010  0.4778726E+02  0.7816164E-02  0.1312668E+00
        -11   -1    0    0    0    0  0.00000000000E+00  0.00000000000E+00  0.45593999997E+02  0.45594000000E+02  0.51100000000E-03 0. -1.
         11   -1    0    0    0    0 -0.00000000000E+00 -0.00000000000E+00 -0.45593999997E+02  0.45594000000E+02  0.51100000000E-03 0.  1.
    9900012    2    1    2    0    0  0.39208666791E+02 -0.13705073401E+02 -0.12588693986E+02  0.47787264929E+02  0.19999972118E+02 0.  0.
         12    1    1    2    0    0 -0.39208666791E+02  0.13705073401E+02  0.12588693986E+02  0.43400735071E+02  0.00000000000E+00 0. -1.
         11    1    3    3    0    0  0.10375480598E+02 -0.22733765954E+01  0.14089534441E+00  0.10622555744E+02  0.51100000000E-03 0. -1.
        -11    1    3    3    0    0  0.26526671511E+02 -0.41407631565E+01 -0.74177530139E+01  0.27853783962E+02  0.51100000000E-03 0.  1.
         12    1    3    3    0    0  0.23065146815E+01 -0.72909336486E+01 -0.53118363165E+01  0.93109252224E+01  0.00000000000E+00 0. -1.
</event>
<event>
 7    1  0.2653124E-010  0.4778727E+02  0.7816164E-02  0.1312668E+00
        -11   -1    0    0    0    0  0.00000000000E+00  0.00000000000E+00  0.45593999997E+02  0.45594000000E+02  0.51100000000E-03 0.  1.
         11   -1    0    0    0    0 -0.00000000000E+00 -0.00000000000E+00 -0.45593999997E+02  0.45594000000E+02  0.51100000000E-03 0. -1.
    9900012    2    1    2    0    0 -0.31759732101E+02 -0.16006333947E+02  0.24874481104E+02  0.47787272820E+02  0.20000008096E+02 0.  0.
         12    1    1    2    0    0  0.31759732101E+02  0.16006333947E+02 -0.24874481104E+02  0.43400727180E+02  0.00000000000E+00 0. -1.
         11    1    3    3    0    0 -0.12749134173E+02 -0.28619324299E+01  0.15399106411E+02  0.20195632149E+02  0.51100000000E-03 0. -1.
        -11    1    3    3    0    0 -0.91986472517E+01 -0.81098240186E+01  0.10981079605E+02  0.16461119841E+02  0.51100000000E-03 0.  1.
         12    1    3    3    0    0 -0.98119506758E+01 -0.50345774984E+01 -0.15057049118E+01  0.11130520829E+02  0.00000000000E+00 0. -1.
</event>
<event>
 7    1  0.2653124E-010  0.4778727E+02  0.7816164E-02  0.1312668E+00
        -11   -1    0    0    0    0  0.00000000000E+00  0.00000000000E+00  0.45593999997E+02  0.45594000000E+02  0.51100000000E-03 0.  1.
         11   -1    0    0    0    0 -0.00000000000E+00 -0.00000000000E+00 -0.45593999997E+02  0.45594000000E+02  0.51100000000E-03 0. -1.
    9900012    2    1    2    0    0  0.11476483120E+02  0.20047001571E+02  0.36742774549E+02  0.47787269379E+02  0.19999992409E+02 0.  0.
         12    1    1    2    0    0 -0.11476483120E+02 -0.20047001571E+02 -0.36742774549E+02  0.43400730621E+02  0.00000000000E+00 0. -1.
         11    1    3    3    0    0  0.41616741911E+01  0.86032295734E+01  0.12276893252E+02  0.15558187534E+02  0.51100000000E-03 0. -1.
        -11    1    3    3    0    0 -0.13209243395E+01  0.10731591178E+02  0.74398052015E+01  0.13124884457E+02  0.51100000000E-03 0.  1.
         12    1    3    3    0    0  0.86357332689E+01  0.71218081958E+00  0.17026076096E+02  0.19104197388E+02  0.00000000000E+00 0. -1.
</event>
<event>
 7    1  0.2653124E-010  0.4778728E+02  0.7816164E-02  0.1312668E+00
        -11   -1    0    0    0    0  0.00000000000E+00  0.00000000000E+00  0.45593999997E+02  0.45594000000E+02  0.51100000000E-03 0. -1.
         11   -1    0    0    0    0 -0.00000000000E+00 -0.00000000000E+00 -0.45593999997E+02  0.45594000000E+02  0.51100000000E-03 0.  1.
    9900012    2    1    2    0    0 -0.40693535036E+02  0.59704992915E+01  0.13856841744E+02  0.47787277442E+02  0.20000029167E+02 0.  0.
         12    1    1    2    0    0  0.40693535036E+02 -0.59704992915E+01 -0.13856841744E+02  0.43400722558E+02  0.00000000000E+00 0. -1.
         11    1    3    3    0    0 -0.13385013587E+02  0.16618473604E+01  0.40609335685E+01  0.14085861958E+02  0.51100000000E-03 0. -1.
        -11    1    3    3    0    0 -0.27863216508E+02  0.59692385590E+00  0.63007050466E+01  0.28572959885E+02  0.51100000000E-03 0.  1.
         12    1    3    3    0    0  0.55469505973E+00  0.37117280753E+01  0.34952031289E+01  0.51284555985E+01  0.00000000000E+00 0. -1.
</event>
<event>
 7    1  0.2653124E-010  0.4778728E+02  0.7816164E-02  0.1312668E+00
        -11   -1    0    0    0    0  0.00000000000E+00  0.00000000000E+00  0.45593999997E+02  0.45594000000E+02  0.51100000000E-03 0.  1.
         11   -1    0    0    0    0 -0.00000000000E+00 -0.00000000000E+00 -0.45593999997E+02  0.45594000000E+02  0.51100000000E-03 0. -1.
    9900012    2    1    2    0    0 -0.22526345009E+02 -0.15702747396E+02  0.33609673662E+02  0.47787278129E+02  0.20000032300E+02 0.  0.
         12    1    1    2    0    0  0.22526345009E+02  0.15702747396E+02 -0.33609673662E+02  0.43400721871E+02  0.00000000000E+00 0. -1.
         11    1    3    3    0    0 -0.33560665039E+01 -0.11522708799E+01 -0.18577186206E+01  0.40052502161E+01  0.51100000000E-03 0. -1.
        -11    1    3    3    0    0  0.24145338205E+00 -0.31412287598E+01  0.41448127622E+01  0.52062549833E+01  0.51100000000E-03 0.  1.
        -12    1    3    3    0    0 -0.19411731887E+02 -0.11409247757E+02  0.31322579521E+02  0.38575772929E+02  0.00000000000E+00 0.  1.
</event>
<event>
 7    1  0.2653124E-010  0.4778726E+02  0.7816164E-02  0.1312668E+00
        -11   -1    0    0    0    0  0.00000000000E+00  0.00000000000E+00  0.45593999997E+02  0.45594000000E+02  0.51100000000E-03 0.  1.
         11   -1    0    0    0    0 -0.00000000000E+00 -0.00000000000E+00 -0.45593999997E+02  0.45594000000E+02  0.51100000000E-03 0. -1.
    9900012    2    1    2    0    0  0.34355790087E+02  0.25396962243E+02  0.76353074565E+01  0.47787263559E+02  0.19999965870E+02 0.  0.
         12    1    1    2    0    0 -0.34355790087E+02 -0.25396962243E+02 -0.76353074565E+01  0.43400736441E+02  0.00000000000E+00 0. -1.
         11    1    3    3    0    0 -0.16193125042E+01 -0.18713943639E+00  0.35974374343E+00  0.16693142235E+01  0.51100000000E-03 0. -1.
        -11    1    3    3    0    0  0.42295498601E+01  0.24500606715E+01  0.46552722384E+01  0.67500703098E+01  0.51100000000E-03 0.  1.
        -12    1    3    3    0    0  0.31745552731E+02  0.23134041008E+02  0.26202914746E+01  0.39367879026E+02  0.00000000000E+00 0.  1.
</event>
<event>
 7    1  0.2653124E-010  0.4778727E+02  0.7816164E-02  0.1312668E+00
        -11   -1    0    0    0    0  0.00000000000E+00  0.00000000000E+00  0.45593999997E+02  0.45594000000E+02  0.51100000000E-03 0. -1.
         11   -1    0    0    0    0 -0.00000000000E+00 -0.00000000000E+00 -0.45593999997E+02  0.45594000000E+02  0.51100000000E-03 0.  1.
    9900012    2    1    2    0    0 -0.75552077240E+01  0.42122151953E+02 -0.72295620219E+01  0.47787269408E+02  0.19999992540E+02 0.  0.
         12    1    1    2    0    0  0.75552077240E+01 -0.42122151953E+02  0.72295620219E+01  0.43400730592E+02  0.00000000000E+00 0. -1.
         11    1    3    3    0    0 -0.24319237870E+01  0.21797597966E+02  0.19432056787E+01  0.22018755164E+02  0.51100000000E-03 0. -1.
        -11    1    3    3    0    0  0.12175470635E+01  0.16764158798E+02 -0.63461357130E+01  0.17966437593E+02  0.51100000000E-03 0.  1.
         12    1    3    3    0    0 -0.63408310006E+01  0.35603951891E+01 -0.28266319876E+01  0.78020766514E+01  0.00000000000E+00 0. -1.
</event>
<event>
 7    1  0.2653124E-010  0.4778727E+02  0.7816164E-02  0.1312668E+00
        -11   -1    0    0    0    0  0.00000000000E+00  0.00000000000E+00  0.45593999997E+02  0.45594000000E+02  0.51100000000E-03 0.  1.
         11   -1    0    0    0    0 -0.00000000000E+00 -0.00000000000E+00 -0.45593999997E+02  0.45594000000E+02  0.51100000000E-03 0. -1.
    9900012    2    1    2    0    0  0.30223967216E+02 -0.24148289091E+02  0.19672195050E+02  0.47787270532E+02  0.19999997663E+02 0.  0.
         12    1    1    2    0    0 -0.30223967216E+02  0.24148289091E+02 -0.19672195050E+02  0.43400729468E+02  0.00000000000E+00 0. -1.
         11    1    3    3    0    0  0.71584488264E+00  0.12587456292E+01  0.37150652810E+00  0.14949554564E+01  0.51100000000E-03 0. -1.
        -11    1    3    3    0    0  0.24105281701E+02 -0.15653143684E+02  0.20162794022E+02  0.35108742161E+02  0.51100000000E-03 0.  1.
        -12    1    3    3    0    0  0.54028406323E+01 -0.97538910359E+01 -0.86210550064E+00  0.11183572914E+02  0.00000000000E+00 0.  1.
</event>
<event>
 7    1  0.2653124E-010  0.4778727E+02  0.7816164E-02  0.1312668E+00
        -11   -1    0    0    0    0  0.00000000000E+00  0.00000000000E+00  0.45593999997E+02  0.45594000000E+02  0.51100000000E-03 0. -1.
         11   -1    0    0    0    0 -0.00000000000E+00 -0.00000000000E+00 -0.45593999997E+02  0.45594000000E+02  0.51100000000E-03 0.  1.
    9900012    2    1    2    0    0  0.49691698600E+01 -0.36488062109E+02 -0.22968491860E+02  0.47787274846E+02  0.20000017334E+02 0.  0.
         12    1    1    2    0    0 -0.49691698600E+01  0.36488062109E+02  0.22968491860E+02  0.43400725154E+02  0.00000000000E+00 0. -1.
         11    1    3    3    0    0  0.24652502106E+01 -0.11196217679E+01 -0.17543861476E+01  0.32262799816E+01  0.51100000000E-03 0. -1.
        -11    1    3    3    0    0  0.77358832972E+01 -0.26426246835E+02 -0.20202111144E+02  0.34151364645E+02  0.51100000000E-03 0.  1.
         12    1    3    3    0    0 -0.52319636477E+01 -0.89421935058E+01 -0.10119945685E+01  0.10409630220E+02  0.00000000000E+00 0. -1.
</event>
<event>
 7    1  0.2653124E-010  0.4778727E+02  0.7816164E-02  0.1312668E+00
        -11   -1    0    0    0    0  0.00000000000E+00  0.00000000000E+00  0.45593999997E+02  0.45594000000E+02  0.51100000000E-03 0.  1.
         11   -1    0    0    0    0 -0.00000000000E+00 -0.00000000000E+00 -0.45593999997E+02  0.45594000000E+02  0.51100000000E-03 0. -1.
    9900012    2    1    2    0    0 -0.12772391166E+02  0.30553296852E+02  0.28053258327E+02  0.47787271580E+02  0.20000002441E+02 0.  0.
         12    1    1    2    0    0  0.12772391166E+02 -0.30553296852E+02 -0.28053258327E+02  0.43400728420E+02  0.00000000000E+00 0. -1.
         11    1    3    3    0    0 -0.81340125071E+01  0.95778037145E+01  0.66436438390E+01  0.14213883607E+02  0.51100000000E-03 0. -1.
        -11    1    3    3    0    0 -0.29770520439E+01  0.18126672096E+02  0.84846633174E+01  0.20234341898E+02  0.51100000000E-03 0.  1.
         12    1    3    3    0    0 -0.16613266152E+01  0.28488210416E+01  0.12924951170E+02  0.13339046076E+02  0.00000000000E+00 0. -1.
</event>
<event>
 7    1  0.2653124E-010  0.4778728E+02  0.7816164E-02  0.1312668E+00
        -11   -1    0    0    0    0  0.00000000000E+00  0.00000000000E+00  0.45593999997E+02  0.45594000000E+02  0.51100000000E-03 0. -1.
         11   -1    0    0    0    0 -0.00000000000E+00 -0.00000000000E+00 -0.45593999997E+02  0.45594000000E+02  0.51100000000E-03 0.  1.
    9900012    2    1    2    0    0 -0.13572498401E+02  0.41170096973E+02  0.21053828466E+01  0.47787283018E+02  0.20000054594E+02 0.  0.
         12    1    1    2    0    0  0.13572498401E+02 -0.41170096973E+02 -0.21053828466E+01  0.43400716982E+02  0.00000000000E+00 0. -1.
         11    1    3    3    0    0 -0.14428279040E+01  0.61884612200E+00 -0.95859399592E+00  0.18394633982E+01  0.51100000000E-03 0. -1.
        -11    1    3    3    0    0 -0.41132771331E+01  0.34438460995E+02 -0.18506012212E+01  0.34732569291E+02  0.51100000000E-03 0.  1.
        -12    1    3    3    0    0 -0.80163933638E+01  0.61127898563E+01  0.49145780637E+01  0.11215250329E+02  0.00000000000E+00 0.  1.
</event>
<event>
 7    1  0.2653124E-010  0.4778728E+02  0.7816164E-02  0.1312668E+00
        -11   -1    0    0    0    0  0.00000000000E+00  0.00000000000E+00  0.45593999997E+02  0.45594000000E+02  0.51100000000E-03 0.  1.
         11   -1    0    0    0    0 -0.00000000000E+00 -0.00000000000E+00 -0.45593999997E+02  0.45594000000E+02  0.51100000000E-03 0. -1.
    9900012    2    1    2    0    0 -0.27731818662E+01 -0.10453614768E+02  0.42031585932E+02  0.47787276326E+02  0.20000024083E+02 0.  0.
         12    1    1    2    0    0  0.27731818662E+01  0.10453614768E+02 -0.42031585932E+02  0.43400723674E+02  0.00000000000E+00 0. -1.
         11    1    3    3    0    0  0.31411733281E+01 -0.74466721798E+01  0.49218258617E+01  0.94627832325E+01  0.51100000000E-03 0. -1.
        -11    1    3    3    0    0  0.80095839629E+00 -0.27101893473E+01  0.12275587752E+02  0.12596694629E+02  0.51100000000E-03 0.  1.
        -12    1    3    3    0    0 -0.67153135906E+01 -0.29675324126E+00  0.24834172319E+02  0.25727798465E+02  0.00000000000E+00 0.  1.
</event>
<event>
 7    1  0.2653124E-010  0.4778727E+02  0.7816164E-02  0.1312668E+00
        -11   -1    0    0    0    0  0.00000000000E+00  0.00000000000E+00  0.45593999997E+02  0.45594000000E+02  0.51100000000E-03 0. -1.
         11   -1    0    0    0    0 -0.00000000000E+00 -0.00000000000E+00 -0.45593999997E+02  0.45594000000E+02  0.51100000000E-03 0.  1.
    9900012    2    1    2    0    0  0.83594034395E+01  0.41479064161E+02  0.96556007473E+01  0.47787274023E+02  0.20000013580E+02 0.  0.
         12    1    1    2    0    0 -0.83594034395E+01 -0.41479064161E+02 -0.96556007473E+01  0.43400725977E+02  0.00000000000E+00 0. -1.
         11    1    3    3    0    0  0.43442085315E-01  0.51137795032E+00  0.36243855584E+01  0.36605417031E+01  0.51100000000E-03 0. -1.
        -11    1    3    3    0    0  0.40782520248E+01  0.24728796851E+01  0.20634663179E+01  0.51966495958E+01  0.51100000000E-03 0.  1.
        -12    1    3    3    0    0  0.42377093294E+01  0.38494806526E+02  0.39677488710E+01  0.38930082724E+02  0.00000000000E+00 0.  1.
</event>
<event>
 7    1  0.2653124E-010  0.4778727E+02  0.7816164E-02  0.1312668E+00
        -11   -1    0    0    0    0  0.00000000000E+00  0.00000000000E+00  0.45593999997E+02  0.45594000000E+02  0.51100000000E-03 0.  1.
         11   -1    0    0    0    0 -0.00000000000E+00 -0.00000000000E+00 -0.45593999997E+02  0.45594000000E+02  0.51100000000E-03 0. -1.
    9900012    2    1    2    0    0  0.44344792042E+01 -0.39233472750E+01  0.42994949558E+02  0.47787274809E+02  0.20000017162E+02 0.  0.
         12    1    1    2    0    0 -0.44344792042E+01  0.39233472750E+01 -0.42994949558E+02  0.43400725191E+02  0.00000000000E+00 0. -1.
         11    1    3    3    0    0 -0.47021845669E+01 -0.40237634279E+00  0.96937968248E+01  0.10781564987E+02  0.51100000000E-03 0. -1.
        -11    1    3    3    0    0 -0.19153971435E+01 -0.68862982682E+00  0.26216232591E+00  0.20522394115E+01  0.51100000000E-03 0.  1.
        -12    1    3    3    0    0  0.11052060915E+02 -0.28323411054E+01  0.33038990407E+02  0.34953470410E+02  0.00000000000E+00 0.  1.
</event>
<event>
 7    1  0.2653124E-010  0.4778727E+02  0.7816164E-02  0.1312668E+00
        -11   -1    0    0    0    0  0.00000000000E+00  0.00000000000E+00  0.45593999997E+02  0.45594000000E+02  0.51100000000E-03 0.  1.
         11   -1    0    0    0    0 -0.00000000000E+00 -0.00000000000E+00 -0.45593999997E+02  0.45594000000E+02  0.51100000000E-03 0. -1.
    9900012    2    1    2    0    0  0.22758371850E+02  0.36695092065E+02 -0.43760680846E+01  0.47787271402E+02  0.20000001632E+02 0.  0.
         12    1    1    2    0    0 -0.22758371850E+02 -0.36695092065E+02  0.43760680846E+01  0.43400728598E+02  0.00000000000E+00 0. -1.
         11    1    3    3    0    0  0.60510752579E+01  0.88129991242E+01  0.36496760315E+01  0.11296220640E+02  0.51100000000E-03 0. -1.
        -11    1    3    3    0    0  0.75658479812E+01  0.18988217285E+01  0.24577837988E-02  0.78004862626E+01  0.51100000000E-03 0.  1.
        -12    1    3    3    0    0  0.91414486107E+01  0.25983271212E+02 -0.80282018999E+01  0.28690564500E+02  0.00000000000E+00 0.  1.
</event>
<event>
 7    1  0.2653124E-010  0.4778728E+02  0.7816164E-02  0.1312668E+00
        -11   -1    0    0    0    0  0.00000000000E+00  0.00000000000E+00  0.45593999997E+02  0.45594000000E+02  0.51100000000E-03 0.  1.
         11   -1    0    0    0    0 -0.00000000000E+00 -0.00000000000E+00 -0.45593999997E+02  0.45594000000E+02  0.51100000000E-03 0. -1.
    9900012    2    1    2    0    0  0.10111871703E+02  0.38036635541E+02  0.18291724169E+02  0.47787276898E+02  0.20000026691E+02 0.  0.
         12    1    1    2    0    0 -0.10111871703E+02 -0.38036635541E+02 -0.18291724169E+02  0.43400723102E+02  0.00000000000E+00 0. -1.
         11    1    3    3    0    0  0.14795607843E+01 -0.24874025969E+00 -0.20301875762E+01  0.25244075913E+01  0.51100000000E-03 0. -1.
        -11    1    3    3    0    0  0.77177791361E+01  0.13201124291E+02  0.65885172402E+01  0.16650596296E+02  0.51100000000E-03 0.  1.
         12    1    3    3    0    0  0.91453178299E+00  0.25084251510E+02  0.13733394505E+02  0.28612273011E+02  0.00000000000E+00 0. -1.
</event>
<event>
 7    1  0.2653124E-010  0.4778727E+02  0.7816164E-02  0.1312668E+00
        -11   -1    0    0    0    0  0.00000000000E+00  0.00000000000E+00  0.45593999997E+02  0.45594000000E+02  0.51100000000E-03 0. -1.
         11   -1    0    0    0    0 -0.00000000000E+00 -0.00000000000E+00 -0.45593999997E+02  0.45594000000E+02  0.51100000000E-03 0.  1.
    9900012    2    1    2    0    0  0.29512036719E+02  0.31822359527E+02 -0.19816005658E-01  0.47787271091E+02  0.20000000213E+02 0.  0.
         12    1    1    2    0    0 -0.29512036719E+02 -0.31822359527E+02  0.19816005658E-01  0.43400728909E+02  0.00000000000E+00 0. -1.
         11    1    3    3    0    0  0.15446406327E+02  0.26404039010E+02 -0.49066908214E+01  0.30981290476E+02  0.51100000000E-03 0. -1.
        -11    1    3    3    0    0  0.89998278863E+00 -0.98815485016E+00 -0.95170534439E-01  0.13399539990E+01  0.51100000000E-03 0.  1.
        -12    1    3    3    0    0  0.13165647602E+02  0.64064753676E+01  0.49820453502E+01  0.15466026616E+02  0.00000000000E+00 0.  1.
</event>
<event>
 7    1  0.2653124E-010  0.4778728E+02  0.7816164E-02  0.1312668E+00
        -11   -1    0    0    0    0  0.00000000000E+00  0.00000000000E+00  0.45593999997E+02  0.45594000000E+02  0.51100000000E-03 0.  1.
         11   -1    0    0    0    0 -0.00000000000E+00 -0.00000000000E+00 -0.45593999997E+02  0.45594000000E+02  0.51100000000E-03 0. -1.
    9900012    2    1    2    0    0 -0.15787825610E+02  0.13797481608E+02  0.37999957489E+02  0.47787277594E+02  0.20000029861E+02 0.  0.
         12    1    1    2    0    0  0.15787825610E+02 -0.13797481608E+02 -0.37999957489E+02  0.43400722406E+02  0.00000000000E+00 0. -1.
         11    1    3    3    0    0 -0.86276132412E+01  0.43660869815E+01  0.62589900408E+01  0.11518393220E+02  0.51100000000E-03 0. -1.
        -11    1    3    3    0    0 -0.29513137389E+01 -0.29496275771E+01  0.50831281671E+01  0.65763780193E+01  0.51100000000E-03 0.  1.
         12    1    3    3    0    0 -0.42088986300E+01  0.12381022204E+02  0.26657839281E+02  0.29692506355E+02  0.00000000000E+00 0. -1.
</event>
<event>
 7    1  0.2653124E-010  0.4778727E+02  0.7816164E-02  0.1312668E+00
        -11   -1    0    0    0    0  0.00000000000E+00  0.00000000000E+00  0.45593999997E+02  0.45594000000E+02  0.51100000000E-03 0.  1.
         11   -1    0    0    0    0 -0.00000000000E+00 -0.00000000000E+00 -0.45593999997E+02  0.45594000000E+02  0.51100000000E-03 0. -1.
    9900012    2    1    2    0    0  0.20159128465E+02 -0.17759459647E+02  0.34085694752E+02  0.47787268967E+02  0.19999990530E+02 0.  0.
         12    1    1    2    0    0 -0.20159128465E+02  0.17759459647E+02 -0.34085694752E+02  0.43400731033E+02  0.00000000000E+00 0. -1.
         11    1    3    3    0    0 -0.30236277442E+01 -0.20995378142E+01  0.97896332516E+00  0.38090357338E+01  0.51100000000E-03 0. -1.
        -11    1    3    3    0    0  0.58882099860E+01 -0.10142299107E+01  0.97407768359E+01  0.11427266199E+02  0.51100000000E-03 0.  1.
         12    1    3    3    0    0  0.17294546223E+02 -0.14645691922E+02  0.23365954591E+02  0.32550967035E+02  0.00000000000E+00 0. -1.
</event>
<event>
 7    1  0.2653124E-010  0.4778727E+02  0.7816164E-02  0.1312668E+00
        -11   -1    0    0    0    0  0.00000000000E+00  0.00000000000E+00  0.45593999997E+02  0.45594000000E+02  0.51100000000E-03 0. -1.
         11   -1    0    0    0    0 -0.00000000000E+00 -0.00000000000E+00 -0.45593999997E+02  0.45594000000E+02  0.51100000000E-03 0.  1.
    9900012    2    1    2    0    0 -0.97186701684E+01 -0.13763645982E+02 -0.39996658376E+02  0.47787272105E+02  0.20000004836E+02 0.  0.
         12    1    1    2    0    0  0.97186701684E+01  0.13763645982E+02  0.39996658376E+02  0.43400727895E+02  0.00000000000E+00 0. -1.
         11    1    3    3    0    0 -0.37034202089E+01  0.12840262146E+00 -0.68194886215E+01  0.77612649611E+01  0.51100000000E-03 0. -1.
        -11    1    3    3    0    0 -0.54603823686E+01 -0.15813910126E+02 -0.17458115918E+02  0.24180184878E+02  0.51100000000E-03 0.  1.
         12    1    3    3    0    0 -0.55486759094E+00  0.19218615227E+01 -0.15719053837E+02  0.15845822266E+02  0.00000000000E+00 0. -1.
</event>
<event>
 7    1  0.2653124E-010  0.4778727E+02  0.7816164E-02  0.1312668E+00
        -11   -1    0    0    0    0  0.00000000000E+00  0.00000000000E+00  0.45593999997E+02  0.45594000000E+02  0.51100000000E-03 0.  1.
         11   -1    0    0    0    0 -0.00000000000E+00 -0.00000000000E+00 -0.45593999997E+02  0.45594000000E+02  0.51100000000E-03 0. -1.
    9900012    2    1    2    0    0  0.45748650261E+01  0.23805201619E+02  0.36000086829E+02  0.47787271137E+02  0.20000000422E+02 0.  0.
         12    1    1    2    0    0 -0.45748650261E+01 -0.23805201619E+02 -0.36000086829E+02  0.43400728863E+02  0.00000000000E+00 0. -1.
         11    1    3    3    0    0  0.75680246329E+00  0.22782813668E+02  0.18568578314E+02  0.29401045040E+02  0.51100000000E-03 0. -1.
        -11    1    3    3    0    0 -0.88208801939E+00 -0.27174368461E-01  0.45302394289E+01  0.46153967613E+01  0.51100000000E-03 0.  1.
         12    1    3    3    0    0  0.47001505822E+01  0.10495623203E+01  0.12901269086E+02  0.13770829336E+02  0.00000000000E+00 0. -1.
</event>
<event>
 7    1  0.2653124E-010  0.4778728E+02  0.7816164E-02  0.1312668E+00
        -11   -1    0    0    0    0  0.00000000000E+00  0.00000000000E+00  0.45593999997E+02  0.45594000000E+02  0.51100000000E-03 0.  1.
         11   -1    0    0    0    0 -0.00000000000E+00 -0.00000000000E+00 -0.45593999997E+02  0.45594000000E+02  0.51100000000E-03 0. -1.
    9900012    2    1    2    0    0 -0.37449910853E+00  0.42732908424E+02  0.75749984708E+01  0.47787282105E+02  0.20000050432E+02 0.  0.
         12    1    1    2    0    0  0.37449910853E+00 -0.42732908424E+02 -0.75749984708E+01  0.43400717895E+02  0.00000000000E+00 0. -1.
         11    1    3    3    0    0  0.50330703259E+01  0.66688196929E+01 -0.23118419459E+01  0.86688849598E+01  0.51100000000E-03 0. -1.
        -11    1    3    3    0    0 -0.20208796326E+01  0.14458953176E+01 -0.98875999179E+00  0.26743624178E+01  0.51100000000E-03 0.  1.
        -12    1    3    3    0    0 -0.33866898018E+01  0.34618193413E+02  0.10875600408E+02  0.36444034728E+02  0.00000000000E+00 0.  1.
</event>
<event>
 7    1  0.2653124E-010  0.4778725E+02  0.7816164E-02  0.1312668E+00
        -11   -1    0    0    0    0  0.00000000000E+00  0.00000000000E+00  0.45593999997E+02  0.45594000000E+02  0.51100000000E-03 0. -1.
         11   -1    0    0    0    0 -0.00000000000E+00 -0.00000000000E+00 -0.45593999997E+02  0.45594000000E+02  0.51100000000E-03 0.  1.
    9900012    2    1    2    0    0 -0.14448013941E+02  0.11503515073E+02 -0.39275296924E+02  0.47787252145E+02  0.19999913832E+02 0.  0.
         12    1    1    2    0    0  0.14448013941E+02 -0.11503515073E+02  0.39275296924E+02  0.43400747855E+02  0.00000000000E+00 0. -1.
         11    1    3    3    0    0  0.20616848144E+00 -0.20335557101E+01 -0.11538962196E+01  0.23471964161E+01  0.51100000000E-03 0. -1.
        -11    1    3    3    0    0 -0.10752609040E+02  0.15772545720E+02 -0.24273142033E+02  0.30880045727E+02  0.51100000000E-03 0.  1.
         12    1    3    3    0    0 -0.39015733823E+01 -0.22354749371E+01 -0.13848258671E+02  0.14560010002E+02  0.00000000000E+00 0. -1.
</event>
<event>
 7    1  0.2653124E-010  0.4778727E+02  0.7816164E-02  0.1312668E+00
        -11   -1    0    0    0    0  0.00000000000E+00  0.00000000000E+00  0.45593999997E+02  0.45594000000E+02  0.51100000000E-03 0. -1.
         11   -1    0    0    0    0 -0.00000000000E+00 -0.00000000000E+00 -0.45593999997E+02  0.45594000000E+02  0.51100000000E-03 0.  1.
    9900012    2    1    2    0    0 -0.41584501786E+02 -0.13370169508E+01 -0.12351735384E+02  0.47787265328E+02  0.19999973934E+02 0.  0.
         12    1    1    2    0    0  0.41584501786E+02  0.13370169508E+01  0.12351735384E+02  0.43400734672E+02  0.00000000000E+00 0. -1.
         11    1    3    3    0    0 -0.82502073164E+00 -0.23951846495E+01 -0.12830880451E+01  0.28396978546E+01  0.51100000000E-03 0.  1.
        -11    1    3    3    0    0 -0.12006245595E+02 -0.65164698649E+01 -0.16648944749E+01  0.13761765391E+02  0.51100000000E-03 0. -1.
        -12    1    3    3    0    0 -0.28753235459E+02  0.75746375636E+01 -0.94037528638E+01  0.31185802082E+02  0.00000000000E+00 0.  1.
</event>
<event>
 7    1  0.2653124E-010  0.4778726E+02  0.7816164E-02  0.1312668E+00
        -11   -1    0    0    0    0  0.00000000000E+00  0.00000000000E+00  0.45593999997E+02  0.45594000000E+02  0.51100000000E-03 0. -1.
         11   -1    0    0    0    0 -0.00000000000E+00 -0.00000000000E+00 -0.45593999997E+02  0.45594000000E+02  0.51100000000E-03 0.  1.
    9900012    2    1    2    0    0 -0.23432244518E+02 -0.15957023121E+02 -0.32862249919E+02  0.47787261068E+02  0.19999954515E+02 0.  0.
         12    1    1    2    0    0  0.23432244518E+02  0.15957023121E+02  0.32862249919E+02  0.43400738932E+02  0.00000000000E+00 0. -1.
         11    1    3    3    0    0 -0.17646212882E+01 -0.35394329029E+01 -0.30556220381E+01  0.49978295155E+01  0.51100000000E-03 0.  1.
        -11    1    3    3    0    0 -0.11130444879E+01 -0.44056328774E+01 -0.16301608947E+02  0.16923088477E+02  0.51100000000E-03 0. -1.
         12    1    3    3    0    0 -0.20554578742E+02 -0.80119573402E+01 -0.13505018934E+02  0.25866343076E+02  0.00000000000E+00 0. -1.
</event>
<event>
 7    1  0.2653124E-010  0.4778727E+02  0.7816164E-02  0.1312668E+00
        -11   -1    0    0    0    0  0.00000000000E+00  0.00000000000E+00  0.45593999997E+02  0.45594000000E+02  0.51100000000E-03 0. -1.
         11   -1    0    0    0    0 -0.00000000000E+00 -0.00000000000E+00 -0.45593999997E+02  0.45594000000E+02  0.51100000000E-03 0.  1.
    9900012    2    1    2    0    0 -0.22838910955E+00  0.15296681917E+02 -0.40615051814E+02  0.47787273357E+02  0.20000010545E+02 0.  0.
         12    1    1    2    0    0  0.22838910955E+00 -0.15296681917E+02  0.40615051814E+02  0.43400726643E+02  0.00000000000E+00 0. -1.
         11    1    3    3    0    0 -0.18020818217E+01  0.45256981272E+01 -0.81407374769E+01  0.94868882864E+01  0.51100000000E-03 0.  1.
        -11    1    3    3    0    0  0.67499786522E+00 -0.47086773525E+01 -0.87244178227E+01  0.99369377141E+01  0.51100000000E-03 0. -1.
         12    1    3    3    0    0  0.89869484692E+00  0.15479661143E+02 -0.23749896514E+02  0.28363447357E+02  0.00000000000E+00 0. -1.
</event>
<event>
 7    1  0.2653124E-010  0.4778728E+02  0.7816164E-02  0.1312668E+00
        -11   -1    0    0    0    0  0.00000000000E+00  0.00000000000E+00  0.45593999997E+02  0.45594000000E+02  0.51100000000E-03 0.  1.
         11   -1    0    0    0    0 -0.00000000000E+00 -0.00000000000E+00 -0.45593999997E+02  0.45594000000E+02  0.51100000000E-03 0. -1.
    9900012    2    1    2    0    0  0.28010357523E+02 -0.31535519937E+02  0.10225119637E+02  0.47787283210E+02  0.20000055467E+02 0.  0.
         12    1    1    2    0    0 -0.28010357523E+02  0.31535519937E+02 -0.10225119637E+02  0.43400716790E+02  0.00000000000E+00 0. -1.
         11    1    3    3    0    0  0.11218555494E+02 -0.15319464360E+02  0.87068562724E+01  0.20889023962E+02  0.51100000000E-03 0. -1.
        -11    1    3    3    0    0  0.17215199306E+01  0.10492697215E+01  0.33478127864E+01  0.39079980213E+01  0.51100000000E-03 0.  1.
        -12    1    3    3    0    0  0.15070282099E+02 -0.17265325299E+02 -0.18295494215E+01  0.22990261227E+02  0.00000000000E+00 0.  1.
</event>
<event>
 7    1  0.2653124E-010  0.4778727E+02  0.7816164E-02  0.1312668E+00
        -11   -1    0    0    0    0  0.00000000000E+00  0.00000000000E+00  0.45593999997E+02  0.45594000000E+02  0.51100000000E-03 0. -1.
         11   -1    0    0    0    0 -0.00000000000E+00 -0.00000000000E+00 -0.45593999997E+02  0.45594000000E+02  0.51100000000E-03 0.  1.
    9900012    2    1    2    0    0  0.31038176726E+02  0.29124185935E+02 -0.84874375702E+01  0.47787271695E+02  0.20000002968E+02 0.  0.
         12    1    1    2    0    0 -0.31038176726E+02 -0.29124185935E+02  0.84874375702E+01  0.43400728305E+02  0.00000000000E+00 0. -1.
         11    1    3    3    0    0  0.17895740756E+01  0.39298464076E+01 -0.60369882799E+01  0.74223645769E+01  0.51100000000E-03 0. -1.
        -11    1    3    3    0    0  0.65511134256E+01  0.15611373494E+01 -0.34815628765E+01  0.75812609283E+01  0.51100000000E-03 0.  1.
        -12    1    3    3    0    0  0.22697489225E+02  0.23633202178E+02  0.10311135862E+01  0.32783646190E+02  0.00000000000E+00 0.  1.
</event>
<event>
 7    1  0.2653124E-010  0.4778727E+02  0.7816164E-02  0.1312668E+00
        -11   -1    0    0    0    0  0.00000000000E+00  0.00000000000E+00  0.45593999997E+02  0.45594000000E+02  0.51100000000E-03 0.  1.
         11   -1    0    0    0    0 -0.00000000000E+00 -0.00000000000E+00 -0.45593999997E+02  0.45594000000E+02  0.51100000000E-03 0. -1.
    9900012    2    1    2    0    0  0.26343463857E+02  0.21564057725E+02  0.26919073853E+02  0.47787271773E+02  0.20000003322E+02 0.  0.
         12    1    1    2    0    0 -0.26343463857E+02 -0.21564057725E+02 -0.26919073853E+02  0.43400728227E+02  0.00000000000E+00 0. -1.
         11    1    3    3    0    0  0.10179406489E+02  0.53125783991E+01  0.25406720771E+01  0.11760051896E+02  0.51100000000E-03 0. -1.
        -11    1    3    3    0    0  0.17522066080E+02  0.14720938079E+02  0.24995941439E+02  0.33889908621E+02  0.51100000000E-03 0.  1.
         12    1    3    3    0    0 -0.13580087121E+01  0.15305412471E+01 -0.61753966380E+00  0.21373112566E+01  0.00000000000E+00 0. -1.
</event>
<event>
 7    1  0.2653124E-010  0.4778728E+02  0.7816164E-02  0.1312668E+00
        -11   -1    0    0    0    0  0.00000000000E+00  0.00000000000E+00  0.45593999997E+02  0.45594000000E+02  0.51100000000E-03 0.  1.
         11   -1    0    0    0    0 -0.00000000000E+00 -0.00000000000E+00 -0.45593999997E+02  0.45594000000E+02  0.51100000000E-03 0. -1.
    9900012    2    1    2    0    0  0.34953650150E+02 -0.24860683419E+02  0.66189970059E+01  0.47787281570E+02  0.20000047989E+02 0.  0.
         12    1    1    2    0    0 -0.34953650150E+02  0.24860683419E+02 -0.66189970059E+01  0.43400718430E+02  0.00000000000E+00 0. -1.
         11    1    3    3    0    0  0.28773832163E+02 -0.15733448112E+02  0.38797076372E+01  0.33023127326E+02  0.51100000000E-03 0. -1.
        -11    1    3    3    0    0  0.83727523152E+01 -0.60059851402E+01  0.44704236592E+00  0.10313810449E+02  0.51100000000E-03 0.  1.
         12    1    3    3    0    0 -0.21929343273E+01 -0.31212501669E+01  0.22922470028E+01  0.44503437946E+01  0.00000000000E+00 0. -1.
</event>
<event>
 7    1  0.2653124E-010  0.4778727E+02  0.7816164E-02  0.1312668E+00
        -11   -1    0    0    0    0  0.00000000000E+00  0.00000000000E+00  0.45593999997E+02  0.45594000000E+02  0.51100000000E-03 0.  1.
         11   -1    0    0    0    0 -0.00000000000E+00 -0.00000000000E+00 -0.45593999997E+02  0.45594000000E+02  0.51100000000E-03 0. -1.
    9900012    2    1    2    0    0  0.43065443582E+02  0.46853540864E+01 -0.26530498875E+01  0.47787266740E+02  0.19999980374E+02 0.  0.
         12    1    1    2    0    0 -0.43065443582E+02 -0.46853540864E+01  0.26530498875E+01  0.43400733260E+02  0.00000000000E+00 0. -1.
         11    1    3    3    0    0  0.15494878604E+02 -0.46102530490E+01 -0.40624678300E+01  0.16668813433E+02  0.51100000000E-03 0. -1.
        -11    1    3    3    0    0  0.10759880181E+02  0.21351721573E+01  0.56813084599E+01  0.12353592503E+02  0.51100000000E-03 0.  1.
         12    1    3    3    0    0  0.16810684796E+02  0.71604349781E+01 -0.42718905174E+01  0.18764860804E+02  0.00000000000E+00 0. -1.
</event>
<event>
 7    1  0.2653124E-010  0.4778727E+02  0.7816164E-02  0.1312668E+00
        -11   -1    0    0    0    0  0.00000000000E+00  0.00000000000E+00  0.45593999997E+02  0.45594000000E+02  0.51100000000E-03 0. -1.
         11   -1    0    0    0    0 -0.00000000000E+00 -0.00000000000E+00 -0.45593999997E+02  0.45594000000E+02  0.51100000000E-03 0.  1.
    9900012    2    1    2    0    0  0.26139182276E+02  0.27327956208E+02 -0.21296696263E+02  0.47787270602E+02  0.19999997985E+02 0.  0.
         12    1    1    2    0    0 -0.26139182276E+02 -0.27327956208E+02  0.21296696263E+02  0.43400729398E+02  0.00000000000E+00 0. -1.
         11    1    3    3    0    0  0.79712162750E+01  0.18451923891E+02 -0.93655579406E+01  0.22174928636E+02  0.51100000000E-03 0. -1.
        -11    1    3    3    0    0  0.15885676214E+02  0.97091993251E+01 -0.13246655428E+02  0.22849445083E+02  0.51100000000E-03 0.  1.
         12    1    3    3    0    0  0.22822897869E+01 -0.83316700904E+00  0.13155171054E+01  0.27628968839E+01  0.00000000000E+00 0. -1.
</event>
<event>
 7    1  0.2653124E-010  0.4778728E+02  0.7816164E-02  0.1312668E+00
        -11   -1    0    0    0    0  0.00000000000E+00  0.00000000000E+00  0.45593999997E+02  0.45594000000E+02  0.51100000000E-03 0.  1.
         11   -1    0    0    0    0 -0.00000000000E+00 -0.00000000000E+00 -0.45593999997E+02  0.45594000000E+02  0.51100000000E-03 0. -1.
    9900012    2    1    2    0    0 -0.11172189689E+02 -0.28532187357E+02  0.30736276688E+02  0.47787282927E+02  0.20000054177E+02 0.  0.
         12    1    1    2    0    0  0.11172189689E+02  0.28532187357E+02 -0.30736276688E+02  0.43400717073E+02  0.00000000000E+00 0. -1.
         11    1    3    3    0    0 -0.70637210547E+01 -0.13445635423E+02  0.74460928992E+01  0.16915246578E+02  0.51100000000E-03 0. -1.
        -11    1    3    3    0    0 -0.68984887620E+01 -0.24567272220E+01  0.80237300833E+01  0.10863006055E+02  0.51100000000E-03 0.  1.
        -12    1    3    3    0    0  0.27900201274E+01 -0.12629824712E+02  0.15266453705E+02  0.20009030294E+02  0.00000000000E+00 0.  1.
</event>
<event>
 7    1  0.2653124E-010  0.4778727E+02  0.7816164E-02  0.1312668E+00
        -11   -1    0    0    0    0  0.00000000000E+00  0.00000000000E+00  0.45593999997E+02  0.45594000000E+02  0.51100000000E-03 0.  1.
         11   -1    0    0    0    0 -0.00000000000E+00 -0.00000000000E+00 -0.45593999997E+02  0.45594000000E+02  0.51100000000E-03 0. -1.
    9900012    2    1    2    0    0  0.20254237244E+02 -0.17047266142E+02  0.34391573370E+02  0.47787265811E+02  0.19999976139E+02 0.  0.
         12    1    1    2    0    0 -0.20254237244E+02  0.17047266142E+02 -0.34391573370E+02  0.43400734189E+02  0.00000000000E+00 0. -1.
         11    1    3    3    0    0 -0.17799508269E+01  0.22526892347E+00  0.49522095808E+01  0.52671957460E+01  0.51100000000E-03 0. -1.
        -11    1    3    3    0    0  0.28926023111E+01 -0.26756941064E+01 -0.64242302499E+00  0.39923921007E+01  0.51100000000E-03 0.  1.
        -12    1    3    3    0    0  0.19141585760E+02 -0.14596840959E+02  0.30081786814E+02  0.38527677964E+02  0.00000000000E+00 0.  1.
</event>
<event>
 7    1  0.2653124E-010  0.4778727E+02  0.7816164E-02  0.1312668E+00
        -11   -1    0    0    0    0  0.00000000000E+00  0.00000000000E+00  0.45593999997E+02  0.45594000000E+02  0.51100000000E-03 0. -1.
         11   -1    0    0    0    0 -0.00000000000E+00 -0.00000000000E+00 -0.45593999997E+02  0.45594000000E+02  0.51100000000E-03 0.  1.
    9900012    2    1    2    0    0  0.35880342133E+02 -0.19799465136E+02  0.14290054572E+02  0.47787269235E+02  0.19999991749E+02 0.  0.
         12    1    1    2    0    0 -0.35880342133E+02  0.19799465136E+02 -0.14290054572E+02  0.43400730765E+02  0.00000000000E+00 0. -1.
         11    1    3    3    0    0  0.13637981871E+01  0.11663422587E+01 -0.25423057963E+01  0.31118513433E+01  0.51100000000E-03 0. -1.
        -11    1    3    3    0    0  0.14407660405E+01 -0.36033448780E+01  0.27366469617E+01  0.47485932598E+01  0.51100000000E-03 0.  1.
        -12    1    3    3    0    0  0.33075777906E+02 -0.17362462517E+02  0.14095713407E+02  0.39926824632E+02  0.00000000000E+00 0.  1.
</event>
<event>
 7    1  0.2653124E-010  0.4778726E+02  0.7816164E-02  0.1312668E+00
        -11   -1    0    0    0    0  0.00000000000E+00  0.00000000000E+00  0.45593999997E+02  0.45594000000E+02  0.51100000000E-03 0.  1.
         11   -1    0    0    0    0 -0.00000000000E+00 -0.00000000000E+00 -0.45593999997E+02  0.45594000000E+02  0.51100000000E-03 0. -1.
    9900012    2    1    2    0    0  0.27464871356E+02  0.31327061552E+02  0.12162238865E+02  0.47787262699E+02  0.19999961948E+02 0.  0.
         12    1    1    2    0    0 -0.27464871356E+02 -0.31327061552E+02 -0.12162238865E+02  0.43400737301E+02  0.00000000000E+00 0. -1.
         11    1    3    3    0    0  0.43681534471E+01 -0.19751417741E+00  0.64348497007E+01  0.77799143517E+01  0.51100000000E-03 0. -1.
        -11    1    3    3    0    0  0.60205837765E+01  0.87061384972E+01  0.44378256535E+01  0.11477742519E+02  0.51100000000E-03 0.  1.
         12    1    3    3    0    0  0.17076134132E+02  0.22818437233E+02  0.12895635112E+01  0.28529605828E+02  0.00000000000E+00 0. -1.
</event>
<event>
 7    1  0.2653124E-010  0.4778727E+02  0.7816164E-02  0.1312668E+00
        -11   -1    0    0    0    0  0.00000000000E+00  0.00000000000E+00  0.45593999997E+02  0.45594000000E+02  0.51100000000E-03 0. -1.
         11   -1    0    0    0    0 -0.00000000000E+00 -0.00000000000E+00 -0.45593999997E+02  0.45594000000E+02  0.51100000000E-03 0.  1.
    9900012    2    1    2    0    0  0.16331399574E+02  0.36239813528E+02 -0.17423682128E+02  0.47787269644E+02  0.19999993613E+02 0.  0.
         12    1    1    2    0    0 -0.16331399574E+02 -0.36239813528E+02  0.17423682128E+02  0.43400730356E+02  0.00000000000E+00 0. -1.
         11    1    3    3    0    0 -0.38056398722E+01  0.53774431902E+01 -0.24986614346E+01  0.70457859268E+01  0.51100000000E-03 0. -1.
        -11    1    3    3    0    0  0.65623847787E+01  0.80756645429E+01 -0.85364302289E+01  0.13459267926E+02  0.51100000000E-03 0.  1.
        -12    1    3    3    0    0  0.13574654667E+02  0.22786705795E+02 -0.63885904641E+01  0.27282215791E+02  0.00000000000E+00 0.  1.
</event>
<event>
 7    1  0.2653124E-010  0.4778723E+02  0.7816164E-02  0.1312668E+00
        -11   -1    0    0    0    0  0.00000000000E+00  0.00000000000E+00  0.45593999997E+02  0.45594000000E+02  0.51100000000E-03 0.  1.
         11   -1    0    0    0    0 -0.00000000000E+00 -0.00000000000E+00 -0.45593999997E+02  0.45594000000E+02  0.51100000000E-03 0. -1.
    9900012    2    1    2    0    0 -0.35209390396E+01 -0.38361204453E+02  0.19991200883E+02  0.47787226602E+02  0.19999797367E+02 0.  0.
         12    1    1    2    0    0  0.35209390396E+01  0.38361204453E+02 -0.19991200883E+02  0.43400773398E+02  0.00000000000E+00 0. -1.
         11    1    3    3    0    0 -0.22206579616E+01 -0.96926417519E+01  0.14538958459E+02  0.17614197093E+02  0.51100000000E-03 0. -1.
        -11    1    3    3    0    0 -0.27022767118E+01 -0.32852933054E+01  0.84301173867E+00  0.43366024238E+01  0.51100000000E-03 0.  1.
        -12    1    3    3    0    0  0.14019956338E+01 -0.25383269396E+02  0.46092306855E+01  0.25836427085E+02  0.00000000000E+00 0.  1.
</event>
<event>
 7    1  0.2653124E-010  0.4778726E+02  0.7816164E-02  0.1312668E+00
        -11   -1    0    0    0    0  0.00000000000E+00  0.00000000000E+00  0.45593999997E+02  0.45594000000E+02  0.51100000000E-03 0. -1.
         11   -1    0    0    0    0 -0.00000000000E+00 -0.00000000000E+00 -0.45593999997E+02  0.45594000000E+02  0.51100000000E-03 0.  1.
    9900012    2    1    2    0    0  0.34295937681E+02  0.24424459549E+02 -0.10528927218E+02  0.47787264130E+02  0.19999968475E+02 0.  0.
         12    1    1    2    0    0 -0.34295937681E+02 -0.24424459549E+02  0.10528927218E+02  0.43400735870E+02  0.00000000000E+00 0. -1.
         11    1    3    3    0    0  0.68032024924E+01  0.22968405871E+01 -0.34411326040E+01  0.79624389916E+01  0.51100000000E-03 0. -1.
        -11    1    3    3    0    0  0.29881996846E+02  0.21050911042E+02 -0.68958621119E+01  0.37197143785E+02  0.51100000000E-03 0.  1.
         12    1    3    3    0    0 -0.23892616575E+01  0.10767079195E+01 -0.19193250199E+00  0.26276813539E+01  0.00000000000E+00 0. -1.
</event>
<event>
 7    1  0.2653124E-010  0.4778727E+02  0.7816164E-02  0.1312668E+00
        -11   -1    0    0    0    0  0.00000000000E+00  0.00000000000E+00  0.45593999997E+02  0.45594000000E+02  0.51100000000E-03 0. -1.
         11   -1    0    0    0    0 -0.00000000000E+00 -0.00000000000E+00 -0.45593999997E+02  0.45594000000E+02  0.51100000000E-03 0.  1.
    9900012    2    1    2    0    0 -0.21896640134E+02 -0.84601299128E+01 -0.36504608519E+02  0.47787273158E+02  0.20000009634E+02 0.  0.
         12    1    1    2    0    0  0.21896640134E+02  0.84601299128E+01  0.36504608519E+02  0.43400726842E+02  0.00000000000E+00 0. -1.
         11    1    3    3    0    0 -0.39791106896E+01  0.41968870144E+01 -0.36915625307E+01  0.68611089972E+01  0.51100000000E-03 0. -1.
        -11    1    3    3    0    0  0.91465500630E+00 -0.24141262992E+01 -0.64475543967E+01  0.69451823250E+01  0.51100000000E-03 0.  1.
         12    1    3    3    0    0 -0.18832184451E+02 -0.10242890628E+02 -0.26365491592E+02  0.33980981835E+02  0.00000000000E+00 0. -1.
</event>
<event>
 7    1  0.2653124E-010  0.4778727E+02  0.7816164E-02  0.1312668E+00
        -11   -1    0    0    0    0  0.00000000000E+00  0.00000000000E+00  0.45593999997E+02  0.45594000000E+02  0.51100000000E-03 0.  1.
         11   -1    0    0    0    0 -0.00000000000E+00 -0.00000000000E+00 -0.45593999997E+02  0.45594000000E+02  0.51100000000E-03 0. -1.
    9900012    2    1    2    0    0 -0.43105304300E+02  0.50335167298E+01 -0.46885676119E+00  0.47787269867E+02  0.19999994630E+02 0.  0.
         12    1    1    2    0    0  0.43105304300E+02 -0.50335167298E+01  0.46885676119E+00  0.43400730133E+02  0.00000000000E+00 0. -1.
         11    1    3    3    0    0 -0.10814520717E+02 -0.48404821855E+00 -0.58402741252E+01  0.12300283051E+02  0.51100000000E-03 0. -1.
        -11    1    3    3    0    0 -0.14888647546E+02 -0.18593306856E+01 -0.21240343199E+01  0.15153892517E+02  0.51100000000E-03 0.  1.
        -12    1    3    3    0    0 -0.17402136037E+02  0.73768956339E+01  0.74954516839E+01  0.20333094299E+02  0.00000000000E+00 0.  1.
</event>
<event>
 7    1  0.2653124E-010  0.4778727E+02  0.7816164E-02  0.1312668E+00
        -11   -1    0    0    0    0  0.00000000000E+00  0.00000000000E+00  0.45593999997E+02  0.45594000000E+02  0.51100000000E-03 0.  1.
         11   -1    0    0    0    0 -0.00000000000E+00 -0.00000000000E+00 -0.45593999997E+02  0.45594000000E+02  0.51100000000E-03 0. -1.
    9900012    2    1    2    0    0 -0.18188955189E+02 -0.93853669486E+01  0.38271397427E+02  0.47787273455E+02  0.20000010990E+02 0.  0.
         12    1    1    2    0    0  0.18188955189E+02  0.93853669486E+01 -0.38271397427E+02  0.43400726545E+02  0.00000000000E+00 0. -1.
         11    1    3    3    0    0 -0.12296154980E+01  0.23934978729E+01  0.53444506985E+00  0.27434318169E+01  0.51100000000E-03 0. -1.
        -11    1    3    3    0    0  0.11461983424E+01 -0.49485074232E+01  0.10103736781E+02  0.11308713170E+02  0.51100000000E-03 0.  1.
        -12    1    3    3    0    0 -0.18105538033E+02 -0.68303573982E+01  0.27633215577E+02  0.33735128468E+02  0.00000000000E+00 0.  1.
</event>
<event>
 7    1  0.2653124E-010  0.4778727E+02  0.7816164E-02  0.1312668E+00
        -11   -1    0    0    0    0  0.00000000000E+00  0.00000000000E+00  0.45593999997E+02  0.45594000000E+02  0.51100000000E-03 0.  1.
         11   -1    0    0    0    0 -0.00000000000E+00 -0.00000000000E+00 -0.45593999997E+02  0.45594000000E+02  0.51100000000E-03 0. -1.
    9900012    2    1    2    0    0 -0.13906073053E+02 -0.38239917750E+02  0.15098122795E+02  0.47787268563E+02  0.19999988687E+02 0.  0.
         12    1    1    2    0    0  0.13906073053E+02  0.38239917750E+02 -0.15098122795E+02  0.43400731437E+02  0.00000000000E+00 0. -1.
         11    1    3    3    0    0  0.26573164690E+01 -0.11341306938E+02  0.62832715959E+01  0.13235032153E+02  0.51100000000E-03 0. -1.
        -11    1    3    3    0    0  0.11192110807E+01 -0.42432807754E+01  0.27539102626E+01  0.51809349714E+01  0.51100000000E-03 0.  1.
         12    1    3    3    0    0 -0.17682600603E+02 -0.22655330037E+02  0.60609409368E+01  0.29371301439E+02  0.00000000000E+00 0. -1.
</event>
<event>
 7    1  0.2653124E-010  0.4778727E+02  0.7816164E-02  0.1312668E+00
        -11   -1    0    0    0    0  0.00000000000E+00  0.00000000000E+00  0.45593999997E+02  0.45594000000E+02  0.51100000000E-03 0. -1.
         11   -1    0    0    0    0 -0.00000000000E+00 -0.00000000000E+00 -0.45593999997E+02  0.45594000000E+02  0.51100000000E-03 0.  1.
    9900012    2    1    2    0    0 -0.93624915563E+01  0.38465128008E+02 -0.17787662261E+02  0.47787271325E+02  0.20000001279E+02 0.  0.
         12    1    1    2    0    0  0.93624915563E+01 -0.38465128008E+02  0.17787662261E+02  0.43400728675E+02  0.00000000000E+00 0. -1.
         11    1    3    3    0    0 -0.29176778665E+01  0.78334572550E+01  0.11675378935E+01  0.84403223690E+01  0.51100000000E-03 0. -1.
        -11    1    3    3    0    0  0.33465207401E+01  0.77911699708E+01 -0.69332885547E+00  0.85077750171E+01  0.51100000000E-03 0.  1.
         12    1    3    3    0    0 -0.97913344299E+01  0.22840500782E+02 -0.18261871299E+02  0.30839173939E+02  0.00000000000E+00 0. -1.
</event>
<event>
 7    1  0.2653124E-010  0.4778727E+02  0.7816164E-02  0.1312668E+00
        -11   -1    0    0    0    0  0.00000000000E+00  0.00000000000E+00  0.45593999997E+02  0.45594000000E+02  0.51100000000E-03 0.  1.
         11   -1    0    0    0    0 -0.00000000000E+00 -0.00000000000E+00 -0.45593999997E+02  0.45594000000E+02  0.51100000000E-03 0. -1.
    9900012    2    1    2    0    0  0.25832418997E+02  0.15415860701E+02  0.31283559572E+02  0.47787265768E+02  0.19999975944E+02 0.  0.
         12    1    1    2    0    0 -0.25832418997E+02 -0.15415860701E+02 -0.31283559572E+02  0.43400734232E+02  0.00000000000E+00 0. -1.
         11    1    3    3    0    0  0.75444574018E+01  0.38509463267E+01  0.91025661907E+00  0.85192248751E+01  0.51100000000E-03 0. -1.
        -11    1    3    3    0    0 -0.10427558567E+01 -0.53630652789E-01 -0.39720861841E+00  0.11171351624E+01  0.51100000000E-03 0.  1.
        -12    1    3    3    0    0  0.19330717452E+02  0.11618545027E+02  0.30770511571E+02  0.38150905731E+02  0.00000000000E+00 0.  1.
</event>
<event>
 7    1  0.2653124E-010  0.4778727E+02  0.7816164E-02  0.1312668E+00
        -11   -1    0    0    0    0  0.00000000000E+00  0.00000000000E+00  0.45593999997E+02  0.45594000000E+02  0.51100000000E-03 0.  1.
         11   -1    0    0    0    0 -0.00000000000E+00 -0.00000000000E+00 -0.45593999997E+02  0.45594000000E+02  0.51100000000E-03 0. -1.
    9900012    2    1    2    0    0 -0.19399447321E+02 -0.51378974193E+01  0.38482290170E+02  0.47787271861E+02  0.20000003724E+02 0.  0.
         12    1    1    2    0    0  0.19399447321E+02  0.51378974193E+01 -0.38482290170E+02  0.43400728139E+02  0.00000000000E+00 0. -1.
         11    1    3    3    0    0  0.13274195305E+01 -0.20509157159E+01  0.90473953671E+00  0.26051586850E+01  0.51100000000E-03 0. -1.
        -11    1    3    3    0    0 -0.91884007024E+01 -0.60849632122E+01  0.90380167337E+01  0.14252692079E+02  0.51100000000E-03 0.  1.
        -12    1    3    3    0    0 -0.11538466149E+02  0.29979815088E+01  0.28539533900E+02  0.30929421097E+02  0.00000000000E+00 0.  1.
</event>
<event>
 7    1  0.2653124E-010  0.4778727E+02  0.7816164E-02  0.1312668E+00
        -11   -1    0    0    0    0  0.00000000000E+00  0.00000000000E+00  0.45593999997E+02  0.45594000000E+02  0.51100000000E-03 0.  1.
         11   -1    0    0    0    0 -0.00000000000E+00 -0.00000000000E+00 -0.45593999997E+02  0.45594000000E+02  0.51100000000E-03 0. -1.
    9900012    2    1    2    0    0 -0.27025476839E+02  0.14710574427E+01  0.33927610037E+02  0.47787272689E+02  0.20000007497E+02 0.  0.
         12    1    1    2    0    0  0.27025476839E+02 -0.14710574427E+01 -0.33927610037E+02  0.43400727311E+02  0.00000000000E+00 0. -1.
         11    1    3    3    0    0 -0.85342623327E+01  0.40767617129E+01  0.54031884873E+01  0.10892569289E+02  0.51100000000E-03 0. -1.
        -11    1    3    3    0    0 -0.41116021003E+01  0.55174221201E+01  0.80794831143E+01  0.10612505187E+02  0.51100000000E-03 0.  1.
         12    1    3    3    0    0 -0.14379612406E+02 -0.81231263903E+01  0.20444938435E+02  0.26282198213E+02  0.00000000000E+00 0. -1.
</event>
<event>
 7    1  0.2653124E-010  0.4778727E+02  0.7816164E-02  0.1312668E+00
        -11   -1    0    0    0    0  0.00000000000E+00  0.00000000000E+00  0.45593999997E+02  0.45594000000E+02  0.51100000000E-03 0.  1.
         11   -1    0    0    0    0 -0.00000000000E+00 -0.00000000000E+00 -0.45593999997E+02  0.45594000000E+02  0.51100000000E-03 0. -1.
    9900012    2    1    2    0    0 -0.38360209425E+02  0.26905306393E+01  0.20121600126E+02  0.47787269432E+02  0.19999992647E+02 0.  0.
         12    1    1    2    0    0  0.38360209425E+02 -0.26905306393E+01 -0.20121600126E+02  0.43400730568E+02  0.00000000000E+00 0. -1.
         11    1    3    3    0    0 -0.90124352383E+01  0.11983251032E+01  0.33801808985E+01  0.96997729430E+01  0.51100000000E-03 0. -1.
        -11    1    3    3    0    0 -0.71734160250E+01 -0.72047901461E+01  0.30529302722E+01  0.10615426606E+02  0.51100000000E-03 0.  1.
        -12    1    3    3    0    0 -0.22174358161E+02  0.86969956822E+01  0.13688488955E+02  0.27472069883E+02  0.00000000000E+00 0.  1.
</event>
<event>
 7    1  0.2653124E-010  0.4778727E+02  0.7816164E-02  0.1312668E+00
        -11   -1    0    0    0    0  0.00000000000E+00  0.00000000000E+00  0.45593999997E+02  0.45594000000E+02  0.51100000000E-03 0. -1.
         11   -1    0    0    0    0 -0.00000000000E+00 -0.00000000000E+00 -0.45593999997E+02  0.45594000000E+02  0.51100000000E-03 0.  1.
    9900012    2    1    2    0    0  0.33180453916E+02 -0.12904778797E+02 -0.24822320258E+02  0.47787269351E+02  0.19999992280E+02 0.  0.
         12    1    1    2    0    0 -0.33180453916E+02  0.12904778797E+02  0.24822320258E+02  0.43400730649E+02  0.00000000000E+00 0. -1.
         11    1    3    3    0    0  0.26525724556E+01 -0.96098749722E+00 -0.62537378676E+01  0.68606760002E+01  0.51100000000E-03 0. -1.
        -11    1    3    3    0    0  0.15159990188E+02 -0.78434915669E+01 -0.18291789292E+02  0.25018697373E+02  0.51100000000E-03 0.  1.
         12    1    3    3    0    0  0.15367891272E+02 -0.41002997332E+01 -0.27679309868E+00  0.15907895979E+02  0.00000000000E+00 0. -1.
</event>
<event>
 7    1  0.2653124E-010  0.4778727E+02  0.7816164E-02  0.1312668E+00
        -11   -1    0    0    0    0  0.00000000000E+00  0.00000000000E+00  0.45593999997E+02  0.45594000000E+02  0.51100000000E-03 0.  1.
         11   -1    0    0    0    0 -0.00000000000E+00 -0.00000000000E+00 -0.45593999997E+02  0.45594000000E+02  0.51100000000E-03 0. -1.
    9900012    2    1    2    0    0 -0.16359779647E+02  0.39979865835E+02  0.41941782623E+01  0.47787271969E+02  0.20000004217E+02 0.  0.
         12    1    1    2    0    0  0.16359779647E+02 -0.39979865835E+02 -0.41941782623E+01  0.43400728031E+02  0.00000000000E+00 0. -1.
         11    1    3    3    0    0 -0.11080130376E+02  0.91244773614E+01  0.27476138390E+01  0.14614197150E+02  0.51100000000E-03 0. -1.
        -11    1    3    3    0    0 -0.39058385909E+01  0.25794716845E+01 -0.90090283282E+00  0.47666419463E+01  0.51100000000E-03 0.  1.
        -12    1    3    3    0    0 -0.13738106800E+01  0.28275916789E+02  0.23474672561E+01  0.28406432873E+02  0.00000000000E+00 0.  1.
</event>
<event>
 7    1  0.2653124E-010  0.4778724E+02  0.7816164E-02  0.1312668E+00
        -11   -1    0    0    0    0  0.00000000000E+00  0.00000000000E+00  0.45593999997E+02  0.45594000000E+02  0.51100000000E-03 0.  1.
         11   -1    0    0    0    0 -0.00000000000E+00 -0.00000000000E+00 -0.45593999997E+02  0.45594000000E+02  0.51100000000E-03 0. -1.
    9900012    2    1    2    0    0  0.15008732491E+02  0.13512065994E+02  0.38415987689E+02  0.47787238618E+02  0.19999852153E+02 0.  0.
         12    1    1    2    0    0 -0.15008732491E+02 -0.13512065994E+02 -0.38415987689E+02  0.43400761382E+02  0.00000000000E+00 0. -1.
         11    1    3    3    0    0  0.46695489325E+01  0.77156542236E+00  0.61103383575E+01  0.77289220165E+01  0.51100000000E-03 0. -1.
        -11    1    3    3    0    0  0.78494247393E+01  0.13971007881E+02  0.33421891647E+02  0.37065150364E+02  0.51100000000E-03 0.  1.
         12    1    3    3    0    0  0.24897588197E+01 -0.12305073098E+01 -0.11162423150E+01  0.29931662376E+01  0.00000000000E+00 0. -1.
</event>
<event>
 7    1  0.2653124E-010  0.4778727E+02  0.7816164E-02  0.1312668E+00
        -11   -1    0    0    0    0  0.00000000000E+00  0.00000000000E+00  0.45593999997E+02  0.45594000000E+02  0.51100000000E-03 0.  1.
         11   -1    0    0    0    0 -0.00000000000E+00 -0.00000000000E+00 -0.45593999997E+02  0.45594000000E+02  0.51100000000E-03 0. -1.
    9900012    2    1    2    0    0  0.10484212169E+02  0.80527467252E+01  0.41338336205E+02  0.47787268730E+02  0.19999989446E+02 0.  0.
         12    1    1    2    0    0 -0.10484212169E+02 -0.80527467252E+01 -0.41338336205E+02  0.43400731270E+02  0.00000000000E+00 0. -1.
         11    1    3    3    0    0  0.36661782369E+01  0.38816103407E+00  0.89267844186E+01  0.96581060343E+01  0.51100000000E-03 0. -1.
        -11    1    3    3    0    0  0.44188845497E+01  0.12176565060E+02  0.14228906297E+02  0.19242064651E+02  0.51100000000E-03 0.  1.
        -12    1    3    3    0    0  0.23991493824E+01 -0.45119793693E+01  0.18182645489E+02  0.18887098045E+02  0.00000000000E+00 0.  1.
</event>
<event>
 7    1  0.2653124E-010  0.4778727E+02  0.7816164E-02  0.1312668E+00
        -11   -1    0    0    0    0  0.00000000000E+00  0.00000000000E+00  0.45593999997E+02  0.45594000000E+02  0.51100000000E-03 0.  1.
         11   -1    0    0    0    0 -0.00000000000E+00 -0.00000000000E+00 -0.45593999997E+02  0.45594000000E+02  0.51100000000E-03 0. -1.
    9900012    2    1    2    0    0 -0.26506186306E+01  0.42124400665E+02 -0.10106053655E+02  0.47787271538E+02  0.20000002252E+02 0.  0.
         12    1    1    2    0    0  0.26506186306E+01 -0.42124400665E+02  0.10106053655E+02  0.43400728462E+02  0.00000000000E+00 0. -1.
         11    1    3    3    0    0 -0.61522668463E+01  0.18393253467E+02 -0.11290047042E+02  0.22441642607E+02  0.51100000000E-03 0. -1.
        -11    1    3    3    0    0  0.32214582159E+01  0.61994075193E+01 -0.25157065721E+01  0.74255791993E+01  0.51100000000E-03 0.  1.
         12    1    3    3    0    0  0.28018999971E+00  0.17531739679E+02  0.36996999584E+01  0.17920049731E+02  0.00000000000E+00 0. -1.
</event>
<event>
 7    1  0.2653124E-010  0.4778727E+02  0.7816164E-02  0.1312668E+00
        -11   -1    0    0    0    0  0.00000000000E+00  0.00000000000E+00  0.45593999997E+02  0.45594000000E+02  0.51100000000E-03 0.  1.
         11   -1    0    0    0    0 -0.00000000000E+00 -0.00000000000E+00 -0.45593999997E+02  0.45594000000E+02  0.51100000000E-03 0. -1.
    9900012    2    1    2    0    0 -0.22887827957E+02  0.34333812020E+02  0.13452132174E+02  0.47787272167E+02  0.20000005119E+02 0.  0.
         12    1    1    2    0    0  0.22887827957E+02 -0.34333812020E+02 -0.13452132174E+02  0.43400727833E+02  0.00000000000E+00 0. -1.
         11    1    3    3    0    0  0.89381478371E+00  0.38062329657E+00  0.18740306318E+01  0.21108694965E+01  0.51100000000E-03 0. -1.
        -11    1    3    3    0    0  0.65522910910E+00  0.94765462164E+01  0.37631181880E+01  0.10217402416E+02  0.51100000000E-03 0.  1.
         12    1    3    3    0    0 -0.24436871850E+02  0.24476642507E+02  0.78149833539E+01  0.35459000254E+02  0.00000000000E+00 0. -1.
</event>
<event>
 7    1  0.2653124E-010  0.4778727E+02  0.7816164E-02  0.1312668E+00
        -11   -1    0    0    0    0  0.00000000000E+00  0.00000000000E+00  0.45593999997E+02  0.45594000000E+02  0.51100000000E-03 0.  1.
         11   -1    0    0    0    0 -0.00000000000E+00 -0.00000000000E+00 -0.45593999997E+02  0.45594000000E+02  0.51100000000E-03 0. -1.
    9900012    2    1    2    0    0 -0.22138725328E+02  0.39132849039E+01  0.37123936432E+02  0.47787267125E+02  0.19999982128E+02 0.  0.
         12    1    1    2    0    0  0.22138725328E+02 -0.39132849039E+01 -0.37123936432E+02  0.43400732875E+02  0.00000000000E+00 0. -1.
         11    1    3    3    0    0 -0.14183486295E+02  0.90159266220E+00  0.13729827303E+02  0.19760878291E+02  0.51100000000E-03 0.  1.
        -11    1    3    3    0    0 -0.27432541630E+00  0.61399344664E+00 -0.16178231818E+01  0.17520258261E+01  0.51100000000E-03 0. -1.
        -12    1    3    3    0    0 -0.76809136169E+01  0.23976987951E+01  0.25011932311E+02  0.26274363007E+02  0.00000000000E+00 0.  1.
</event>
<event>
 7    1  0.2653124E-010  0.4778727E+02  0.7816164E-02  0.1312668E+00
        -11   -1    0    0    0    0  0.00000000000E+00  0.00000000000E+00  0.45593999997E+02  0.45594000000E+02  0.51100000000E-03 0.  1.
         11   -1    0    0    0    0 -0.00000000000E+00 -0.00000000000E+00 -0.45593999997E+02  0.45594000000E+02  0.51100000000E-03 0. -1.
    9900012    2    1    2    0    0 -0.72405758178E+01 -0.36502093106E+02  0.22333703469E+02  0.47787273625E+02  0.20000011764E+02 0.  0.
         12    1    1    2    0    0  0.72405758178E+01  0.36502093106E+02 -0.22333703469E+02  0.43400726375E+02  0.00000000000E+00 0. -1.
         11    1    3    3    0    0  0.85833337008E+00 -0.54398594207E+00  0.63945417862E+01  0.64747835328E+01  0.51100000000E-03 0. -1.
        -11    1    3    3    0    0  0.12604811335E+01 -0.14640677381E+02  0.78881817393E+01  0.16678179106E+02  0.51100000000E-03 0.  1.
         12    1    3    3    0    0 -0.93593903213E+01 -0.21317429782E+02  0.80509799432E+01  0.24634310986E+02  0.00000000000E+00 0. -1.
</event>
<event>
 7    1  0.2653124E-010  0.4778727E+02  0.7816164E-02  0.1312668E+00
        -11   -1    0    0    0    0  0.00000000000E+00  0.00000000000E+00  0.45593999997E+02  0.45594000000E+02  0.51100000000E-03 0.  1.
         11   -1    0    0    0    0 -0.00000000000E+00 -0.00000000000E+00 -0.45593999997E+02  0.45594000000E+02  0.51100000000E-03 0. -1.
    9900012    2    1    2    0    0  0.34464926720E+02 -0.66893297108E+01  0.25515581979E+02  0.47787271555E+02  0.20000002330E+02 0.  0.
         12    1    1    2    0    0 -0.34464926720E+02  0.66893297108E+01 -0.25515581979E+02  0.43400728445E+02  0.00000000000E+00 0. -1.
         11    1    3    3    0    0  0.15809251042E+02  0.59471251158E+00  0.15580356060E+02  0.22204359858E+02  0.51100000000E-03 0. -1.
        -11    1    3    3    0    0  0.16876442640E+02 -0.18668849666E+01  0.10317364482E+02  0.19868255730E+02  0.51100000000E-03 0.  1.
         12    1    3    3    0    0  0.17792330385E+01 -0.54171572558E+01 -0.38213856354E+00  0.57146559670E+01  0.00000000000E+00 0. -1.
</event>
<event>
 7    1  0.2653124E-010  0.4778727E+02  0.7816164E-02  0.1312668E+00
        -11   -1    0    0    0    0  0.00000000000E+00  0.00000000000E+00  0.45593999997E+02  0.45594000000E+02  0.51100000000E-03 0. -1.
         11   -1    0    0    0    0 -0.00000000000E+00 -0.00000000000E+00 -0.45593999997E+02  0.45594000000E+02  0.51100000000E-03 0.  1.
    9900012    2    1    2    0    0 -0.15515974566E+02  0.40271435237E+02 -0.45923201517E+01  0.47787269970E+02  0.19999995101E+02 0.  0.
         12    1    1    2    0    0  0.15515974566E+02 -0.40271435237E+02  0.45923201517E+01  0.43400730030E+02  0.00000000000E+00 0. -1.
         11    1    3    3    0    0 -0.22735326374E+01 -0.74992788194E+00  0.72735364382E-01  0.23951269645E+01  0.51100000000E-03 0. -1.
        -11    1    3    3    0    0 -0.11112661368E+02  0.13650061934E+02 -0.37973626073E+00  0.17605670489E+02  0.51100000000E-03 0.  1.
        -12    1    3    3    0    0 -0.21297805612E+01  0.27371301185E+02 -0.42853192553E+01  0.27786472517E+02  0.00000000000E+00 0.  1.
</event>
<event>
 7    1  0.2653124E-010  0.4778727E+02  0.7816164E-02  0.1312668E+00
        -11   -1    0    0    0    0  0.00000000000E+00  0.00000000000E+00  0.45593999997E+02  0.45594000000E+02  0.51100000000E-03 0. -1.
         11   -1    0    0    0    0 -0.00000000000E+00 -0.00000000000E+00 -0.45593999997E+02  0.45594000000E+02  0.51100000000E-03 0.  1.
    9900012    2    1    2    0    0 -0.27987386717E+02  0.26855011860E+02 -0.19471459969E+02  0.47787271543E+02  0.20000002275E+02 0.  0.
         12    1    1    2    0    0  0.27987386717E+02 -0.26855011860E+02  0.19471459969E+02  0.43400728457E+02  0.00000000000E+00 0. -1.
         11    1    3    3    0    0 -0.44267758675E+01  0.14161555365E+02 -0.27892386576E+01  0.15097213236E+02  0.51100000000E-03 0. -1.
        -11    1    3    3    0    0 -0.10410552053E+01  0.30497211216E+01 -0.38971870178E+01  0.50569419389E+01  0.51100000000E-03 0.  1.
        -12    1    3    3    0    0 -0.22519555644E+02  0.96437353732E+01 -0.12785034293E+02  0.27633116368E+02  0.00000000000E+00 0.  1.
</event>
<event>
 7    1  0.2653124E-010  0.4778727E+02  0.7816164E-02  0.1312668E+00
        -11   -1    0    0    0    0  0.00000000000E+00  0.00000000000E+00  0.45593999997E+02  0.45594000000E+02  0.51100000000E-03 0.  1.
         11   -1    0    0    0    0 -0.00000000000E+00 -0.00000000000E+00 -0.45593999997E+02  0.45594000000E+02  0.51100000000E-03 0. -1.
    9900012    2    1    2    0    0 -0.73011814914E+01  0.42715347754E+02 -0.23905917525E+01  0.47787272888E+02  0.20000008406E+02 0.  0.
         12    1    1    2    0    0  0.73011814914E+01 -0.42715347754E+02  0.23905917525E+01  0.43400727112E+02  0.00000000000E+00 0. -1.
         11    1    3    3    0    0  0.44182511259E+01  0.51474046953E+01  0.99490261992E+00  0.68561322619E+01  0.51100000000E-03 0. -1.
        -11    1    3    3    0    0 -0.16910890597E+01  0.20735416303E+02 -0.45760885257E+01  0.21301592850E+02  0.51100000000E-03 0.  1.
        -12    1    3    3    0    0 -0.10028343558E+02  0.16832526755E+02  0.11905941532E+01  0.19629547776E+02  0.00000000000E+00 0.  1.
</event>
<event>
 7    1  0.2653124E-010  0.4778727E+02  0.7816164E-02  0.1312668E+00
        -11   -1    0    0    0    0  0.00000000000E+00  0.00000000000E+00  0.45593999997E+02  0.45594000000E+02  0.51100000000E-03 0.  1.
         11   -1    0    0    0    0 -0.00000000000E+00 -0.00000000000E+00 -0.45593999997E+02  0.45594000000E+02  0.51100000000E-03 0. -1.
    9900012    2    1    2    0    0  0.16554067424E+01 -0.36270247279E+02  0.23777128768E+02  0.47787273490E+02  0.20000011152E+02 0.  0.
         12    1    1    2    0    0 -0.16554067424E+01  0.36270247279E+02 -0.23777128768E+02  0.43400726510E+02  0.00000000000E+00 0. -1.
         11    1    3    3    0    0  0.53792589578E+01 -0.75823071783E+01  0.52584089889E+00  0.93115153436E+01  0.51100000000E-03 0. -1.
        -11    1    3    3    0    0  0.30315994445E+01 -0.15407298443E+02  0.13057298275E+02  0.20422254503E+02  0.51100000000E-03 0.  1.
         12    1    3    3    0    0 -0.67554516599E+01 -0.13280641658E+02  0.10193989594E+02  0.18053503644E+02  0.00000000000E+00 0. -1.
</event>
<event>
 7    1  0.2653124E-010  0.4778728E+02  0.7816164E-02  0.1312668E+00
        -11   -1    0    0    0    0  0.00000000000E+00  0.00000000000E+00  0.45593999997E+02  0.45594000000E+02  0.51100000000E-03 0.  1.
         11   -1    0    0    0    0 -0.00000000000E+00 -0.00000000000E+00 -0.45593999997E+02  0.45594000000E+02  0.51100000000E-03 0. -1.
    9900012    2    1    2    0    0 -0.32614372284E+02 -0.25341432760E+02  0.13331790651E+02  0.47787284156E+02  0.20000059781E+02 0.  0.
         12    1    1    2    0    0  0.32614372284E+02  0.25341432760E+02 -0.13331790651E+02  0.43400715844E+02  0.00000000000E+00 0. -1.
         11    1    3    3    0    0 -0.36927319603E+01 -0.12240589115E+01 -0.24901531193E+01  0.46190315400E+01  0.51100000000E-03 0. -1.
        -11    1    3    3    0    0  0.12972960398E+01 -0.71217608360E+00  0.20745700233E+01  0.25483353060E+01  0.51100000000E-03 0.  1.
        -12    1    3    3    0    0 -0.30218936364E+02 -0.23405197764E+02  0.13747373747E+02  0.40619917310E+02  0.00000000000E+00 0.  1.
</event>
<event>
 7    1  0.2653124E-010  0.4778727E+02  0.7816164E-02  0.1312668E+00
        -11   -1    0    0    0    0  0.00000000000E+00  0.00000000000E+00  0.45593999997E+02  0.45594000000E+02  0.51100000000E-03 0.  1.
         11   -1    0    0    0    0 -0.00000000000E+00 -0.00000000000E+00 -0.45593999997E+02  0.45594000000E+02  0.51100000000E-03 0. -1.
    9900012    2    1    2    0    0  0.66749147504E+01 -0.20824401736E+02  0.37488842099E+02  0.47787268710E+02  0.19999989357E+02 0.  0.
         12    1    1    2    0    0 -0.66749147504E+01  0.20824401736E+02 -0.37488842099E+02  0.43400731290E+02  0.00000000000E+00 0. -1.
         11    1    3    3    0    0 -0.24121107979E+01 -0.27656589677E+01  0.19061406031E+02  0.19411448894E+02  0.51100000000E-03 0. -1.
        -11    1    3    3    0    0 -0.12016836181E+01 -0.38499368263E+01  0.36071734243E+01  0.54108924826E+01  0.51100000000E-03 0.  1.
        -12    1    3    3    0    0  0.10288709166E+02 -0.14208805942E+02  0.14820262644E+02  0.22964927334E+02  0.00000000000E+00 0.  1.
</event>
<event>
 7    1  0.2653124E-010  0.4778727E+02  0.7816164E-02  0.1312668E+00
        -11   -1    0    0    0    0  0.00000000000E+00  0.00000000000E+00  0.45593999997E+02  0.45594000000E+02  0.51100000000E-03 0.  1.
         11   -1    0    0    0    0 -0.00000000000E+00 -0.00000000000E+00 -0.45593999997E+02  0.45594000000E+02  0.51100000000E-03 0. -1.
    9900012    2    1    2    0    0 -0.28761100834E+02 -0.32403154228E+02  0.25412391880E+01  0.47787271645E+02  0.20000002740E+02 0.  0.
         12    1    1    2    0    0  0.28761100834E+02  0.32403154228E+02 -0.25412391880E+01  0.43400728355E+02  0.00000000000E+00 0. -1.
         11    1    3    3    0    0 -0.86946204386E+00  0.82252567105E+00  0.88230945614E+00  0.14869374441E+01  0.51100000000E-03 0. -1.
        -11    1    3    3    0    0 -0.13157739220E+02 -0.17659545703E+02  0.87899065139E+01  0.23711771604E+02  0.51100000000E-03 0.  1.
         12    1    3    3    0    0 -0.14733899570E+02 -0.15566134196E+02 -0.71309767821E+01  0.22588562597E+02  0.00000000000E+00 0. -1.
</event>
<event>
 7    1  0.2653124E-010  0.4778727E+02  0.7816164E-02  0.1312668E+00
        -11   -1    0    0    0    0  0.00000000000E+00  0.00000000000E+00  0.45593999997E+02  0.45594000000E+02  0.51100000000E-03 0. -1.
         11   -1    0    0    0    0 -0.00000000000E+00 -0.00000000000E+00 -0.45593999997E+02  0.45594000000E+02  0.51100000000E-03 0.  1.
    9900012    2    1    2    0    0  0.72818743806E+01 -0.42307880747E+02  0.63750044297E+01  0.47787272480E+02  0.20000006545E+02 0.  0.
         12    1    1    2    0    0 -0.72818743806E+01  0.42307880747E+02 -0.63750044297E+01  0.43400727520E+02  0.00000000000E+00 0. -1.
         11    1    3    3    0    0  0.81686559848E+00 -0.19854780295E+02  0.20908293713E+01  0.19981269672E+02  0.51100000000E-03 0. -1.
        -11    1    3    3    0    0  0.89251719293E+01 -0.23227763972E+02  0.36480693227E+01  0.25149475604E+02  0.51100000000E-03 0.  1.
         12    1    3    3    0    0 -0.24601631472E+01  0.77466352011E+00  0.63610573568E+00  0.26565272043E+01  0.00000000000E+00 0. -1.
</event>
<event>
 7    1  0.2653124E-010  0.4778727E+02  0.7816164E-02  0.1312668E+00
        -11   -1    0    0    0    0  0.00000000000E+00  0.00000000000E+00  0.45593999997E+02  0.45594000000E+02  0.51100000000E-03 0.  1.
         11   -1    0    0    0    0 -0.00000000000E+00 -0.00000000000E+00 -0.45593999997E+02  0.45594000000E+02  0.51100000000E-03 0. -1.
    9900012    2    1    2    0    0 -0.11226019586E+02 -0.33104346248E+02  0.25723568659E+02  0.47787271425E+02  0.20000001734E+02 0.  0.
         12    1    1    2    0    0  0.11226019586E+02  0.33104346248E+02 -0.25723568659E+02  0.43400728575E+02  0.00000000000E+00 0. -1.
         11    1    3    3    0    0 -0.71372242605E+00 -0.42828652325E+01  0.11081070143E+02  0.11901363371E+02  0.51100000000E-03 0. -1.
        -11    1    3    3    0    0 -0.76038331489E+01 -0.11256638477E+02  0.11517691534E+02  0.17809755946E+02  0.51100000000E-03 0.  1.
         12    1    3    3    0    0 -0.29084640111E+01 -0.17564842539E+02  0.31248069823E+01  0.18076152108E+02  0.00000000000E+00 0. -1.
</event>
<event>
 7    1  0.2653124E-010  0.4778727E+02  0.7816164E-02  0.1312668E+00
        -11   -1    0    0    0    0  0.00000000000E+00  0.00000000000E+00  0.45593999997E+02  0.45594000000E+02  0.51100000000E-03 0. -1.
         11   -1    0    0    0    0 -0.00000000000E+00 -0.00000000000E+00 -0.45593999997E+02  0.45594000000E+02  0.51100000000E-03 0.  1.
    9900012    2    1    2    0    0 -0.32354672708E+01  0.38805573304E+02 -0.19164624449E+02  0.47787267308E+02  0.19999982966E+02 0.  0.
         12    1    1    2    0    0  0.32354672708E+01 -0.38805573304E+02  0.19164624449E+02  0.43400732692E+02  0.00000000000E+00 0. -1.
         11    1    3    3    0    0 -0.27563396251E+01  0.15924619587E+02  0.19525131935E+01  0.16278919655E+02  0.51100000000E-03 0. -1.
        -11    1    3    3    0    0 -0.77510008572E+00  0.21815174796E+01 -0.66729653736E+00  0.24093741068E+01  0.51100000000E-03 0.  1.
        -12    1    3    3    0    0  0.29597243997E+00  0.20699436237E+02 -0.20449841105E+02  0.29098973546E+02  0.00000000000E+00 0.  1.
</event>
<event>
 7    1  0.2653124E-010  0.4778727E+02  0.7816164E-02  0.1312668E+00
        -11   -1    0    0    0    0  0.00000000000E+00  0.00000000000E+00  0.45593999997E+02  0.45594000000E+02  0.51100000000E-03 0. -1.
         11   -1    0    0    0    0 -0.00000000000E+00 -0.00000000000E+00 -0.45593999997E+02  0.45594000000E+02  0.51100000000E-03 0.  1.
    9900012    2    1    2    0    0 -0.11943588080E+02  0.39888134762E+02 -0.12243800889E+02  0.47787271306E+02  0.20000001190E+02 0.  0.
         12    1    1    2    0    0  0.11943588080E+02 -0.39888134762E+02  0.12243800889E+02  0.43400728694E+02  0.00000000000E+00 0. -1.
         11    1    3    3    0    0 -0.14252895381E+02  0.30827343954E+02 -0.49428386124E+01  0.34320574235E+02  0.51100000000E-03 0.  1.
        -11    1    3    3    0    0  0.15545413789E+01 -0.56396834809E+00 -0.89409332609E+00  0.18799101929E+01  0.51100000000E-03 0. -1.
        -12    1    3    3    0    0  0.75476592125E+00  0.96247591553E+01 -0.64068689510E+01  0.11586786878E+02  0.00000000000E+00 0.  1.
</event>
<event>
 7    1  0.2653124E-010  0.4778727E+02  0.7816164E-02  0.1312668E+00
        -11   -1    0    0    0    0  0.00000000000E+00  0.00000000000E+00  0.45593999997E+02  0.45594000000E+02  0.51100000000E-03 0. -1.
         11   -1    0    0    0    0 -0.00000000000E+00 -0.00000000000E+00 -0.45593999997E+02  0.45594000000E+02  0.51100000000E-03 0.  1.
    9900012    2    1    2    0    0  0.94821003849E+01 -0.33937965682E+02 -0.25336287855E+02  0.47787271611E+02  0.20000002585E+02 0.  0.
         12    1    1    2    0    0 -0.94821003849E+01  0.33937965682E+02  0.25336287855E+02  0.43400728389E+02  0.00000000000E+00 0. -1.
         11    1    3    3    0    0  0.66728332161E+01 -0.10579216109E+02 -0.10030586071E+02  0.16033065016E+02  0.51100000000E-03 0. -1.
        -11    1    3    3    0    0  0.83202174985E+01 -0.92646113902E+01 -0.48655012809E+01  0.13369074254E+02  0.51100000000E-03 0.  1.
         12    1    3    3    0    0 -0.55109503297E+01 -0.14094138184E+02 -0.10440200503E+02  0.18385132342E+02  0.00000000000E+00 0. -1.
</event>
<event>
 7    1  0.2653124E-010  0.4778726E+02  0.7816164E-02  0.1312668E+00
        -11   -1    0    0    0    0  0.00000000000E+00  0.00000000000E+00  0.45593999997E+02  0.45594000000E+02  0.51100000000E-03 0. -1.
         11   -1    0    0    0    0 -0.00000000000E+00 -0.00000000000E+00 -0.45593999997E+02  0.45594000000E+02  0.51100000000E-03 0.  1.
    9900012    2    1    2    0    0  0.21112190154E+02  0.18344702703E+02 -0.33186911775E+02  0.47787264943E+02  0.19999972180E+02 0.  0.
         12    1    1    2    0    0 -0.21112190154E+02 -0.18344702703E+02  0.33186911775E+02  0.43400735057E+02  0.00000000000E+00 0. -1.
         11    1    3    3    0    0  0.14572206426E+02  0.62360379193E+01 -0.12239405022E+02  0.20025993224E+02  0.51100000000E-03 0.  1.
        -11    1    3    3    0    0  0.36378217389E-01  0.13317934109E+01  0.15118984489E+01  0.20151511717E+01  0.51100000000E-03 0. -1.
        -12    1    3    3    0    0  0.65036055112E+01  0.10776871372E+02 -0.22459405202E+02  0.25746120547E+02  0.00000000000E+00 0.  1.
</event>
<event>
 7    1  0.2653124E-010  0.4778727E+02  0.7816164E-02  0.1312668E+00
        -11   -1    0    0    0    0  0.00000000000E+00  0.00000000000E+00  0.45593999997E+02  0.45594000000E+02  0.51100000000E-03 0. -1.
         11   -1    0    0    0    0 -0.00000000000E+00 -0.00000000000E+00 -0.45593999997E+02  0.45594000000E+02  0.51100000000E-03 0.  1.
    9900012    2    1    2    0    0  0.47105635272E+00  0.12170770092E+01 -0.43381102657E+02  0.47787271455E+02  0.20000001872E+02 0.  0.
         12    1    1    2    0    0 -0.47105635272E+00 -0.12170770092E+01  0.43381102657E+02  0.43400728545E+02  0.00000000000E+00 0. -1.
         11    1    3    3    0    0  0.21273733680E+01 -0.71572853277E+00 -0.77425367486E+01  0.80613187720E+01  0.51100000000E-03 0. -1.
        -11    1    3    3    0    0 -0.34147956703E+01  0.91230511700E+01 -0.15919797300E+02  0.18663623401E+02  0.51100000000E-03 0.  1.
        -12    1    3    3    0    0  0.17584786550E+01 -0.71902456280E+01 -0.19718768608E+02  0.21062329282E+02  0.00000000000E+00 0.  1.
</event>
<event>
 7    1 -0.3128964E-010  0.4778727E+02  0.7816164E-02  0.1312668E+00
        -11   -1    0    0    0    0  0.00000000000E+00  0.00000000000E+00  0.45593999997E+02  0.45594000000E+02  0.51100000000E-03 0.  1.
         11   -1    0    0    0    0 -0.00000000000E+00 -0.00000000000E+00 -0.45593999997E+02  0.45594000000E+02  0.51100000000E-03 0. -1.
    9900012    2    1    2    0    0 -0.27683227037E+02 -0.19807940470E+02  0.26924106809E+02  0.47787273136E+02  0.20000009538E+02 0.  0.
         12    1    1    2    0    0  0.27683227037E+02  0.19807940470E+02 -0.26924106809E+02  0.43400726864E+02  0.00000000000E+00 0. -1.
         11    1    3    3    0    0 -0.15610976047E+02 -0.10173061333E+02  0.46833895064E+01  0.19212701204E+02  0.51100000000E-03 0. -1.
        -11    1    3    3    0    0 -0.92917490651E+01 -0.20613205946E+01  0.91828164759E+01  0.13225345439E+02  0.51100000000E-03 0.  1.
         12    1    3    3    0    0 -0.27805019244E+01 -0.75735585424E+01  0.13057900827E+02  0.15349226494E+02  0.00000000000E+00 0. -1.
</event>
<event>
 7    1  0.2653124E-010  0.4778727E+02  0.7816164E-02  0.1312668E+00
        -11   -1    0    0    0    0  0.00000000000E+00  0.00000000000E+00  0.45593999997E+02  0.45594000000E+02  0.51100000000E-03 0. -1.
         11   -1    0    0    0    0 -0.00000000000E+00 -0.00000000000E+00 -0.45593999997E+02  0.45594000000E+02  0.51100000000E-03 0.  1.
    9900012    2    1    2    0    0 -0.29821373386E+02 -0.21436660939E+02 -0.23125280309E+02  0.47787270372E+02  0.19999996935E+02 0.  0.
         12    1    1    2    0    0  0.29821373386E+02  0.21436660939E+02  0.23125280309E+02  0.43400729628E+02  0.00000000000E+00 0. -1.
         11    1    3    3    0    0 -0.53394429628E+01 -0.67610739864E+01 -0.10715017439E+02  0.13748940744E+02  0.51100000000E-03 0. -1.
        -11    1    3    3    0    0 -0.84861514292E+01 -0.13026992625E+02 -0.49905786139E+01  0.16328600004E+02  0.51100000000E-03 0.  1.
        -12    1    3    3    0    0 -0.15995778994E+02 -0.16485943273E+01 -0.74196842559E+01  0.17709729624E+02  0.00000000000E+00 0.  1.
</event>
<event>
 7    1  0.2653124E-010  0.4778727E+02  0.7816164E-02  0.1312668E+00
        -11   -1    0    0    0    0  0.00000000000E+00  0.00000000000E+00  0.45593999997E+02  0.45594000000E+02  0.51100000000E-03 0.  1.
         11   -1    0    0    0    0 -0.00000000000E+00 -0.00000000000E+00 -0.45593999997E+02  0.45594000000E+02  0.51100000000E-03 0. -1.
    9900012    2    1    2    0    0 -0.11686617543E+02 -0.13989588505E+02  0.39387025919E+02  0.47787269282E+02  0.19999991965E+02 0.  0.
         12    1    1    2    0    0  0.11686617543E+02  0.13989588505E+02 -0.39387025919E+02  0.43400730718E+02  0.00000000000E+00 0. -1.
         11    1    3    3    0    0 -0.50553998389E+01 -0.95265235841E+01  0.11543110693E+02  0.15797313818E+02  0.51100000000E-03 0. -1.
        -11    1    3    3    0    0  0.94430333925E+00 -0.58457430455E+01  0.20539535538E+02  0.21376083386E+02  0.51100000000E-03 0.  1.
        -12    1    3    3    0    0 -0.75755210429E+01  0.13826781250E+01  0.73043796877E+01  0.10613872078E+02  0.00000000000E+00 0.  1.
</event>
<event>
 7    1  0.2653124E-010  0.4778727E+02  0.7816164E-02  0.1312668E+00
        -11   -1    0    0    0    0  0.00000000000E+00  0.00000000000E+00  0.45593999997E+02  0.45594000000E+02  0.51100000000E-03 0.  1.
         11   -1    0    0    0    0 -0.00000000000E+00 -0.00000000000E+00 -0.45593999997E+02  0.45594000000E+02  0.51100000000E-03 0. -1.
    9900012    2    1    2    0    0 -0.41038026087E+02  0.61028752099E+01  0.12738072275E+02  0.47787272400E+02  0.20000006180E+02 0.  0.
         12    1    1    2    0    0  0.41038026087E+02 -0.61028752099E+01 -0.12738072275E+02  0.43400727600E+02  0.00000000000E+00 0. -1.
         11    1    3    3    0    0 -0.75848948956E+01  0.11332395734E+01  0.89042268408E+01  0.11751600674E+02  0.51100000000E-03 0. -1.
        -11    1    3    3    0    0 -0.12796464479E+02 -0.34408118684E+01  0.35997026084E+01  0.13731225314E+02  0.51100000000E-03 0.  1.
         12    1    3    3    0    0 -0.20656666712E+02  0.84104475049E+01  0.23414282538E+00  0.22304446412E+02  0.00000000000E+00 0. -1.
</event>
<event>
 7    1  0.2653124E-010  0.4778727E+02  0.7816164E-02  0.1312668E+00
        -11   -1    0    0    0    0  0.00000000000E+00  0.00000000000E+00  0.45593999997E+02  0.45594000000E+02  0.51100000000E-03 0.  1.
         11   -1    0    0    0    0 -0.00000000000E+00 -0.00000000000E+00 -0.45593999997E+02  0.45594000000E+02  0.51100000000E-03 0. -1.
    9900012    2    1    2    0    0 -0.12185076671E+02  0.18889589392E+02  0.37125877586E+02  0.47787268814E+02  0.19999989833E+02 0.  0.
         12    1    1    2    0    0  0.12185076671E+02 -0.18889589392E+02 -0.37125877586E+02  0.43400731186E+02  0.00000000000E+00 0. -1.
         11    1    3    3    0    0 -0.82761244889E+01  0.14449395116E+02  0.18530552874E+02  0.24913061752E+02  0.51100000000E-03 0. -1.
        -11    1    3    3    0    0 -0.56505226059E+01  0.46244173258E+01  0.19557472866E+02  0.20876024203E+02  0.51100000000E-03 0.  1.
         12    1    3    3    0    0  0.17415704235E+01 -0.18422304947E+00 -0.96214815421E+00  0.19981828601E+01  0.00000000000E+00 0. -1.
</event>
<event>
 7    1  0.2653124E-010  0.4778727E+02  0.7816164E-02  0.1312668E+00
        -11   -1    0    0    0    0  0.00000000000E+00  0.00000000000E+00  0.45593999997E+02  0.45594000000E+02  0.51100000000E-03 0.  1.
         11   -1    0    0    0    0 -0.00000000000E+00 -0.00000000000E+00 -0.45593999997E+02  0.45594000000E+02  0.51100000000E-03 0. -1.
    9900012    2    1    2    0    0  0.81877215829E+01  0.42227262950E+02  0.57829678883E+01  0.47787271452E+02  0.20000001856E+02 0.  0.
         12    1    1    2    0    0 -0.81877215829E+01 -0.42227262950E+02 -0.57829678883E+01  0.43400728548E+02  0.00000000000E+00 0. -1.
         11    1    3    3    0    0 -0.30948497589E+00  0.22148847236E+01 -0.29185666815E+01  0.36768909454E+01  0.51100000000E-03 0. -1.
        -11    1    3    3    0    0  0.76645301813E+01  0.76122678476E+01  0.14620264704E+01  0.10900879155E+02  0.51100000000E-03 0.  1.
        -12    1    3    3    0    0  0.83267637754E+00  0.32400110379E+02  0.72395080993E+01  0.33209501351E+02  0.00000000000E+00 0.  1.
</event>
<event>
 7    1  0.2653124E-010  0.4778727E+02  0.7816164E-02  0.1312668E+00
        -11   -1    0    0    0    0  0.00000000000E+00  0.00000000000E+00  0.45593999997E+02  0.45594000000E+02  0.51100000000E-03 0.  1.
         11   -1    0    0    0    0 -0.00000000000E+00 -0.00000000000E+00 -0.45593999997E+02  0.45594000000E+02  0.51100000000E-03 0. -1.
    9900012    2    1    2    0    0 -0.17912288768E+02  0.15718114431E+02  0.36272771969E+02  0.47787271936E+02  0.20000004063E+02 0.  0.
         12    1    1    2    0    0  0.17912288768E+02 -0.15718114431E+02 -0.36272771969E+02  0.43400728064E+02  0.00000000000E+00 0. -1.
         11    1    3    3    0    0 -0.38478301226E+01  0.18558794793E+01  0.10170764946E+02  0.11031525059E+02  0.51100000000E-03 0. -1.
        -11    1    3    3    0    0 -0.11770994396E+02  0.17777036660E+02  0.22058536261E+02  0.30678304446E+02  0.51100000000E-03 0.  1.
         12    1    3    3    0    0 -0.22934642496E+01 -0.39148017080E+01  0.40434707631E+01  0.60774424300E+01  0.00000000000E+00 0. -1.
</event>
<event>
 7    1  0.2653124E-010  0.4778727E+02  0.7816164E-02  0.1312668E+00
        -11   -1    0    0    0    0  0.00000000000E+00  0.00000000000E+00  0.45593999997E+02  0.45594000000E+02  0.51100000000E-03 0.  1.
         11   -1    0    0    0    0 -0.00000000000E+00 -0.00000000000E+00 -0.45593999997E+02  0.45594000000E+02  0.51100000000E-03 0. -1.
    9900012    2    1    2    0    0 -0.27432064010E+01  0.35901284169E+02  0.24232120807E+02  0.47787273449E+02  0.20000010963E+02 0.  0.
         12    1    1    2    0    0  0.27432064010E+01 -0.35901284169E+02 -0.24232120807E+02  0.43400726551E+02  0.00000000000E+00 0. -1.
         11    1    3    3    0    0 -0.37837658633E+01  0.20899945944E+01  0.60711875255E+01  0.74528034822E+01  0.51100000000E-03 0. -1.
        -11    1    3    3    0    0 -0.84946318114E+00  0.50512295608E+01 -0.16259207795E+01  0.53740232986E+01  0.51100000000E-03 0.  1.
        -12    1    3    3    0    0  0.18900226434E+01  0.28760060014E+02  0.19786854061E+02  0.34960446668E+02  0.00000000000E+00 0.  1.
</event>
<event>
 7    1  0.2653124E-010  0.4778727E+02  0.7816164E-02  0.1312668E+00
        -11   -1    0    0    0    0  0.00000000000E+00  0.00000000000E+00  0.45593999997E+02  0.45594000000E+02  0.51100000000E-03 0.  1.
         11   -1    0    0    0    0 -0.00000000000E+00 -0.00000000000E+00 -0.45593999997E+02  0.45594000000E+02  0.51100000000E-03 0. -1.
    9900012    2    1    2    0    0  0.35041017381E+02  0.94604013446E+01  0.23796032647E+02  0.47787271176E+02  0.20000000601E+02 0.  0.
         12    1    1    2    0    0 -0.35041017381E+02 -0.94604013446E+01 -0.23796032647E+02  0.43400728824E+02  0.00000000000E+00 0. -1.
         11    1    3    3    0    0  0.95228097497E+01 -0.41222714443E+01  0.32059588365E+01  0.10860718195E+02  0.51100000000E-03 0. -1.
        -11    1    3    3    0    0  0.10617197425E+02  0.58323820519E+01  0.27459036698E+01  0.12421012389E+02  0.51100000000E-03 0.  1.
        -12    1    3    3    0    0  0.14901010207E+02  0.77502907369E+01  0.17844170141E+02  0.24505540592E+02  0.00000000000E+00 0.  1.
</event>
<event>
 7    1  0.2653124E-010  0.4778727E+02  0.7816164E-02  0.1312668E+00
        -11   -1    0    0    0    0  0.00000000000E+00  0.00000000000E+00  0.45593999997E+02  0.45594000000E+02  0.51100000000E-03 0.  1.
         11   -1    0    0    0    0 -0.00000000000E+00 -0.00000000000E+00 -0.45593999997E+02  0.45594000000E+02  0.51100000000E-03 0. -1.
    9900012    2    1    2    0    0 -0.43911658562E+01  0.13664398755E+01  0.43156388537E+02  0.47787269971E+02  0.19999995105E+02 0.  0.
         12    1    1    2    0    0  0.43911658562E+01 -0.13664398755E+01 -0.43156388537E+02  0.43400730029E+02  0.00000000000E+00 0. -1.
         11    1    3    3    0    0 -0.11586386247E+01 -0.33978318138E+01  0.26036609920E+01  0.44347215605E+01  0.51100000000E-03 0. -1.
        -11    1    3    3    0    0 -0.43295507816E+00 -0.38690037975E+01  0.36031452180E+01  0.53046485471E+01  0.51100000000E-03 0.  1.
        -12    1    3    3    0    0 -0.27995721533E+01  0.86332754867E+01  0.36949582327E+02  0.38047899863E+02  0.00000000000E+00 0.  1.
</event>
<event>
 7    1  0.2653124E-010  0.4778728E+02  0.7816164E-02  0.1312668E+00
        -11   -1    0    0    0    0  0.00000000000E+00  0.00000000000E+00  0.45593999997E+02  0.45594000000E+02  0.51100000000E-03 0.  1.
         11   -1    0    0    0    0 -0.00000000000E+00 -0.00000000000E+00 -0.45593999997E+02  0.45594000000E+02  0.51100000000E-03 0. -1.
    9900012    2    1    2    0    0 -0.41356960576E+02  0.11960143702E+02  0.54935982031E+01  0.47787275966E+02  0.20000022441E+02 0.  0.
         12    1    1    2    0    0  0.41356960576E+02 -0.11960143702E+02 -0.54935982031E+01  0.43400724034E+02  0.00000000000E+00 0. -1.
         11    1    3    3    0    0 -0.86992288107E+01 -0.15459938287E+01  0.55306549577E+01  0.10423762437E+02  0.51100000000E-03 0. -1.
        -11    1    3    3    0    0 -0.52050655435E+01 -0.21481361978E+01  0.11149081002E+01  0.57402279371E+01  0.51100000000E-03 0.  1.
         12    1    3    3    0    0 -0.27452666221E+02  0.15654273728E+02 -0.11519648547E+01  0.31623285592E+02  0.00000000000E+00 0. -1.
</event>
<event>
 7    1  0.2653124E-010  0.4778727E+02  0.7816164E-02  0.1312668E+00
        -11   -1    0    0    0    0  0.00000000000E+00  0.00000000000E+00  0.45593999997E+02  0.45594000000E+02  0.51100000000E-03 0.  1.
         11   -1    0    0    0    0 -0.00000000000E+00 -0.00000000000E+00 -0.45593999997E+02  0.45594000000E+02  0.51100000000E-03 0. -1.
    9900012    2    1    2    0    0 -0.34436083987E+01 -0.26713522398E+02  0.34031638480E+02  0.47787272641E+02  0.20000007278E+02 0.  0.
         12    1    1    2    0    0  0.34436083987E+01  0.26713522398E+02 -0.34031638480E+02  0.43400727359E+02  0.00000000000E+00 0. -1.
         11    1    3    3    0    0  0.33508906968E+01 -0.61420120111E+01  0.29549945829E+01  0.75950492594E+01  0.51100000000E-03 0.  1.
        -11    1    3    3    0    0  0.40749895123E+01 -0.43386583292E+01  0.73257366235E+01  0.94390631400E+01  0.51100000000E-03 0. -1.
        -12    1    3    3    0    0 -0.10869488608E+02 -0.16232852058E+02  0.23750907273E+02  0.30753160241E+02  0.00000000000E+00 0.  1.
</event>
<event>
 7    1  0.2653124E-010  0.4778727E+02  0.7816164E-02  0.1312668E+00
        -11   -1    0    0    0    0  0.00000000000E+00  0.00000000000E+00  0.45593999997E+02  0.45594000000E+02  0.51100000000E-03 0.  1.
         11   -1    0    0    0    0 -0.00000000000E+00 -0.00000000000E+00 -0.45593999997E+02  0.45594000000E+02  0.51100000000E-03 0. -1.
    9900012    2    1    2    0    0  0.28448919152E+02  0.23261543706E+02  0.23090753273E+02  0.47787270706E+02  0.19999998458E+02 0.  0.
         12    1    1    2    0    0 -0.28448919152E+02 -0.23261543706E+02 -0.23090753273E+02  0.43400729294E+02  0.00000000000E+00 0. -1.
         11    1    3    3    0    0  0.91824505346E+01  0.30345785849E+01  0.32753779703E+01  0.10210492942E+02  0.51100000000E-03 0. -1.
        -11    1    3    3    0    0  0.16607539272E+02  0.63476405500E+01  0.10439121637E+02  0.20617423749E+02  0.51100000000E-03 0.  1.
        -12    1    3    3    0    0  0.26589293457E+01  0.13879324571E+02  0.93762536654E+01  0.16959354015E+02  0.00000000000E+00 0.  1.
</event>
<event>
 7    1  0.2653124E-010  0.4778727E+02  0.7816164E-02  0.1312668E+00
        -11   -1    0    0    0    0  0.00000000000E+00  0.00000000000E+00  0.45593999997E+02  0.45594000000E+02  0.51100000000E-03 0. -1.
         11   -1    0    0    0    0 -0.00000000000E+00 -0.00000000000E+00 -0.45593999997E+02  0.45594000000E+02  0.51100000000E-03 0.  1.
    9900012    2    1    2    0    0 -0.29456833046E+02  0.27574791541E+02 -0.15985910606E+02  0.47787268675E+02  0.19999989197E+02 0.  0.
         12    1    1    2    0    0  0.29456833046E+02 -0.27574791541E+02  0.15985910606E+02  0.43400731325E+02  0.00000000000E+00 0. -1.
         11    1    3    3    0    0 -0.26822231325E+01 -0.18544224728E+01  0.12606202118E+01  0.34960502313E+01  0.51100000000E-03 0. -1.
        -11    1    3    3    0    0 -0.35684934695E+01  0.85249437018E+01 -0.16775269659E+01  0.93927050280E+01  0.51100000000E-03 0.  1.
        -12    1    3    3    0    0 -0.23206116444E+02  0.20904270312E+02 -0.15569003852E+02  0.34898513416E+02  0.00000000000E+00 0.  1.
</event>
<event>
 7    1  0.2653124E-010  0.4778727E+02  0.7816164E-02  0.1312668E+00
        -11   -1    0    0    0    0  0.00000000000E+00  0.00000000000E+00  0.45593999997E+02  0.45594000000E+02  0.51100000000E-03 0.  1.
         11   -1    0    0    0    0 -0.00000000000E+00 -0.00000000000E+00 -0.45593999997E+02  0.45594000000E+02  0.51100000000E-03 0. -1.
    9900012    2    1    2    0    0 -0.15189605490E+02 -0.33060987540E+02  0.23661573118E+02  0.47787273572E+02  0.20000011526E+02 0.  0.
         12    1    1    2    0    0  0.15189605490E+02  0.33060987540E+02 -0.23661573118E+02  0.43400726428E+02  0.00000000000E+00 0. -1.
         11    1    3    3    0    0 -0.16299829399E+02 -0.22437767411E+02  0.11904102777E+02  0.30180217163E+02  0.51100000000E-03 0. -1.
        -11    1    3    3    0    0 -0.22082018438E+01 -0.84331583171E+01  0.99818715312E+01  0.13252625178E+02  0.51100000000E-03 0.  1.
         12    1    3    3    0    0  0.33184257528E+01 -0.21900618111E+01  0.17755988095E+01  0.43544312310E+01  0.00000000000E+00 0. -1.
</event>
<event>
 7    1  0.2653124E-010  0.4778728E+02  0.7816164E-02  0.1312668E+00
        -11   -1    0    0    0    0  0.00000000000E+00  0.00000000000E+00  0.45593999997E+02  0.45594000000E+02  0.51100000000E-03 0.  1.
         11   -1    0    0    0    0 -0.00000000000E+00 -0.00000000000E+00 -0.45593999997E+02  0.45594000000E+02  0.51100000000E-03 0. -1.
    9900012    2    1    2    0    0  0.21941876018E+02  0.32972535099E+02  0.17747917504E+02  0.47787279156E+02  0.20000036986E+02 0.  0.
         12    1    1    2    0    0 -0.21941876018E+02 -0.32972535099E+02 -0.17747917504E+02  0.43400720844E+02  0.00000000000E+00 0. -1.
         11    1    3    3    0    0 -0.60974338419E+00  0.50459754336E+00 -0.17830171287E+00  0.81129368126E+00  0.51100000000E-03 0. -1.
        -11    1    3    3    0    0  0.17361503412E+01  0.17875864335E+02  0.84228746831E+01  0.19836974616E+02  0.51100000000E-03 0.  1.
         12    1    3    3    0    0  0.20815469061E+02  0.14592073221E+02  0.95033445336E+01  0.27139010859E+02  0.00000000000E+00 0. -1.
</event>
<event>
 7    1  0.2653124E-010  0.4778727E+02  0.7816164E-02  0.1312668E+00
        -11   -1    0    0    0    0  0.00000000000E+00  0.00000000000E+00  0.45593999997E+02  0.45594000000E+02  0.51100000000E-03 0.  1.
         11   -1    0    0    0    0 -0.00000000000E+00 -0.00000000000E+00 -0.45593999997E+02  0.45594000000E+02  0.51100000000E-03 0. -1.
    9900012    2    1    2    0    0 -0.32730982365E+02 -0.59961234926E+01  0.27863102470E+02  0.47787272094E+02  0.20000004786E+02 0.  0.
         12    1    1    2    0    0  0.32730982365E+02  0.59961234926E+01 -0.27863102470E+02  0.43400727906E+02  0.00000000000E+00 0. -1.
         11    1    3    3    0    0 -0.40097211577E+00  0.10292608931E+01  0.11760475238E+01  0.16134573632E+01  0.51100000000E-03 0. -1.
        -11    1    3    3    0    0 -0.21622379465E+02  0.43499779306E+01  0.15896686624E+02  0.27187391335E+02  0.51100000000E-03 0.  1.
         12    1    3    3    0    0 -0.10707630784E+02 -0.11375362316E+02  0.10790368322E+02  0.18986423396E+02  0.00000000000E+00 0. -1.
</event>
<event>
 7    1  0.2653124E-010  0.4778724E+02  0.7816164E-02  0.1312668E+00
        -11   -1    0    0    0    0  0.00000000000E+00  0.00000000000E+00  0.45593999997E+02  0.45594000000E+02  0.51100000000E-03 0.  1.
         11   -1    0    0    0    0 -0.00000000000E+00 -0.00000000000E+00 -0.45593999997E+02  0.45594000000E+02  0.51100000000E-03 0. -1.
    9900012    2    1    2    0    0 -0.19299685790E+01 -0.41268114594E+02  0.13298253254E+02  0.47787244241E+02  0.19999877792E+02 0.  0.
         12    1    1    2    0    0  0.19299685790E+01  0.41268114594E+02 -0.13298253254E+02  0.43400755759E+02  0.00000000000E+00 0. -1.
         11    1    3    3    0    0 -0.62752246122E+01 -0.21720605904E+02  0.12094698776E+01  0.22641245160E+02  0.51100000000E-03 0. -1.
        -11    1    3    3    0    0  0.37094031875E+01 -0.49896003396E+01  0.75775921730E-02  0.62173821852E+01  0.51100000000E-03 0.  1.
        -12    1    3    3    0    0  0.63585284574E+00 -0.14557908351E+02  0.12081205784E+02  0.18928616896E+02  0.00000000000E+00 0.  1.
</event>
<event>
 7    1  0.2653124E-010  0.4778727E+02  0.7816164E-02  0.1312668E+00
        -11   -1    0    0    0    0  0.00000000000E+00  0.00000000000E+00  0.45593999997E+02  0.45594000000E+02  0.51100000000E-03 0. -1.
         11   -1    0    0    0    0 -0.00000000000E+00 -0.00000000000E+00 -0.45593999997E+02  0.45594000000E+02  0.51100000000E-03 0.  1.
    9900012    2    1    2    0    0 -0.39683413069E+02  0.14833012085E+02 -0.94250592156E+01  0.47787271186E+02  0.20000000647E+02 0.  0.
         12    1    1    2    0    0  0.39683413069E+02 -0.14833012085E+02  0.94250592156E+01  0.43400728814E+02  0.00000000000E+00 0. -1.
         11    1    3    3    0    0 -0.90259648785E+01 -0.19588717059E+01  0.56704540301E+00  0.92534729209E+01  0.51100000000E-03 0. -1.
        -11    1    3    3    0    0 -0.12072879237E+02  0.53537364788E+01  0.24227793083E+01  0.13427090794E+02  0.51100000000E-03 0.  1.
        -12    1    3    3    0    0 -0.18584568954E+02  0.11438147312E+02 -0.12414883927E+02  0.25106707472E+02  0.00000000000E+00 0.  1.
</event>
<event>
 7    1  0.2653124E-010  0.4778727E+02  0.7816164E-02  0.1312668E+00
        -11   -1    0    0    0    0  0.00000000000E+00  0.00000000000E+00  0.45593999997E+02  0.45594000000E+02  0.51100000000E-03 0.  1.
         11   -1    0    0    0    0 -0.00000000000E+00 -0.00000000000E+00 -0.45593999997E+02  0.45594000000E+02  0.51100000000E-03 0. -1.
    9900012    2    1    2    0    0 -0.11119518871E+02 -0.38282299726E+02  0.17159402318E+02  0.47787271203E+02  0.20000000722E+02 0.  0.
         12    1    1    2    0    0  0.11119518871E+02  0.38282299726E+02 -0.17159402318E+02  0.43400728797E+02  0.00000000000E+00 0. -1.
         11    1    3    3    0    0  0.20365210689E+01 -0.59388288496E+01  0.22805403414E+01  0.66796684557E+01  0.51100000000E-03 0. -1.
        -11    1    3    3    0    0  0.17438995284E+01 -0.33509025308E+01  0.63902526871E+01  0.74232784538E+01  0.51100000000E-03 0.  1.
         12    1    3    3    0    0 -0.14899939468E+02 -0.28992568345E+02  0.84886092896E+01  0.33684324293E+02  0.00000000000E+00 0. -1.
</event>
<event>
 7    1  0.2653124E-010  0.4778727E+02  0.7816164E-02  0.1312668E+00
        -11   -1    0    0    0    0  0.00000000000E+00  0.00000000000E+00  0.45593999997E+02  0.45594000000E+02  0.51100000000E-03 0. -1.
         11   -1    0    0    0    0 -0.00000000000E+00 -0.00000000000E+00 -0.45593999997E+02  0.45594000000E+02  0.51100000000E-03 0.  1.
    9900012    2    1    2    0    0 -0.36430394235E+02 -0.21326450604E+02 -0.10081270016E+02  0.47787272764E+02  0.20000007838E+02 0.  0.
         12    1    1    2    0    0  0.36430394235E+02  0.21326450604E+02  0.10081270016E+02  0.43400727236E+02  0.00000000000E+00 0. -1.
         11    1    3    3    0    0 -0.18595886389E+01 -0.12389217023E+01 -0.49112382121E+01  0.53956702945E+01  0.51100000000E-03 0. -1.
        -11    1    3    3    0    0 -0.11097107469E+02 -0.38658974474E+01 -0.72076194196E+01  0.13785526295E+02  0.51100000000E-03 0.  1.
         12    1    3    3    0    0 -0.23473698127E+02 -0.16221631454E+02  0.20375876155E+01  0.28606076174E+02  0.00000000000E+00 0. -1.
</event>
<event>
 7    1  0.2653124E-010  0.4778724E+02  0.7816164E-02  0.1312668E+00
        -11   -1    0    0    0    0  0.00000000000E+00  0.00000000000E+00  0.45593999997E+02  0.45594000000E+02  0.51100000000E-03 0.  1.
         11   -1    0    0    0    0 -0.00000000000E+00 -0.00000000000E+00 -0.45593999997E+02  0.45594000000E+02  0.51100000000E-03 0. -1.
    9900012    2    1    2    0    0  0.16014860190E+02 -0.38304157633E+02  0.12646797628E+02  0.47787242759E+02  0.19999871034E+02 0.  0.
         12    1    1    2    0    0 -0.16014860190E+02  0.38304157633E+02 -0.12646797628E+02  0.43400757241E+02  0.00000000000E+00 0. -1.
         11    1    3    3    0    0  0.12929306464E+02 -0.15197074906E+02 -0.38302730712E-02  0.19952896188E+02  0.51100000000E-03 0. -1.
        -11    1    3    3    0    0 -0.45426120137E+00 -0.52061459515E+01 -0.63257377602E+00  0.52640724492E+01  0.51100000000E-03 0.  1.
        -12    1    3    3    0    0  0.35398149276E+01 -0.17900936775E+02  0.13283201677E+02  0.22570274122E+02  0.00000000000E+00 0.  1.
</event>
<event>
 7    1  0.2653124E-010  0.4778727E+02  0.7816164E-02  0.1312668E+00
        -11   -1    0    0    0    0  0.00000000000E+00  0.00000000000E+00  0.45593999997E+02  0.45594000000E+02  0.51100000000E-03 0. -1.
         11   -1    0    0    0    0 -0.00000000000E+00 -0.00000000000E+00 -0.45593999997E+02  0.45594000000E+02  0.51100000000E-03 0.  1.
    9900012    2    1    2    0    0 -0.37374090365E+01  0.17045272466E+02 -0.39738063390E+02  0.47787271645E+02  0.20000002740E+02 0.  0.
         12    1    1    2    0    0  0.37374090365E+01 -0.17045272466E+02  0.39738063390E+02  0.43400728355E+02  0.00000000000E+00 0. -1.
         11    1    3    3    0    0 -0.32815215628E+01  0.37088244105E+01 -0.18861973636E+02  0.19501225909E+02  0.51100000000E-03 0. -1.
        -11    1    3    3    0    0 -0.57804403575E+01  0.18957018539E+01 -0.95874127401E+01  0.11354543564E+02  0.51100000000E-03 0.  1.
        -12    1    3    3    0    0  0.53245528839E+01  0.11440746201E+02 -0.11288677014E+02  0.16931502172E+02  0.00000000000E+00 0.  1.
</event>
<event>
 7    1  0.2653124E-010  0.4778727E+02  0.7816164E-02  0.1312668E+00
        -11   -1    0    0    0    0  0.00000000000E+00  0.00000000000E+00  0.45593999997E+02  0.45594000000E+02  0.51100000000E-03 0. -1.
         11   -1    0    0    0    0 -0.00000000000E+00 -0.00000000000E+00 -0.45593999997E+02  0.45594000000E+02  0.51100000000E-03 0.  1.
    9900012    2    1    2    0    0 -0.22325248564E+02  0.37218319115E+02 -0.59752124368E-01  0.47787267616E+02  0.19999984366E+02 0.  0.
         12    1    1    2    0    0  0.22325248564E+02 -0.37218319115E+02  0.59752124368E-01  0.43400732384E+02  0.00000000000E+00 0. -1.
         11    1    3    3    0    0 -0.52074248178E+01  0.20207696695E+02  0.20263409614E+00  0.20868860530E+02  0.51100000000E-03 0. -1.
        -11    1    3    3    0    0 -0.15428564926E+02  0.18510345540E+02 -0.18335178339E+01  0.24166822207E+02  0.51100000000E-03 0.  1.
        -12    1    3    3    0    0 -0.16892588196E+01 -0.14997231203E+01  0.15711316134E+01  0.27515848785E+01  0.00000000000E+00 0.  1.
</event>
<event>
 7    1  0.2653124E-010  0.4778727E+02  0.7816164E-02  0.1312668E+00
        -11   -1    0    0    0    0  0.00000000000E+00  0.00000000000E+00  0.45593999997E+02  0.45594000000E+02  0.51100000000E-03 0.  1.
         11   -1    0    0    0    0 -0.00000000000E+00 -0.00000000000E+00 -0.45593999997E+02  0.45594000000E+02  0.51100000000E-03 0. -1.
    9900012    2    1    2    0    0  0.83293625592E+01 -0.13049398644E+02  0.40545755561E+02  0.47787269826E+02  0.19999994446E+02 0.  0.
         12    1    1    2    0    0 -0.83293625592E+01  0.13049398644E+02 -0.40545755561E+02  0.43400730174E+02  0.00000000000E+00 0. -1.
         11    1    3    3    0    0  0.65333095789E+01 -0.80431701504E+01  0.11528562449E+02  0.15501111977E+02  0.51100000000E-03 0.  1.
        -11    1    3    3    0    0  0.67420794222E+01 -0.10350859706E+01  0.20898022056E+02  0.21983047196E+02  0.51100000000E-03 0. -1.
         12    1    3    3    0    0 -0.49460264419E+01 -0.39711425229E+01  0.81191710564E+01  0.10303110654E+02  0.00000000000E+00 0. -1.
</event>
<event>
 7    1  0.2653124E-010  0.4778727E+02  0.7816164E-02  0.1312668E+00
        -11   -1    0    0    0    0  0.00000000000E+00  0.00000000000E+00  0.45593999997E+02  0.45594000000E+02  0.51100000000E-03 0. -1.
         11   -1    0    0    0    0 -0.00000000000E+00 -0.00000000000E+00 -0.45593999997E+02  0.45594000000E+02  0.51100000000E-03 0.  1.
    9900012    2    1    2    0    0 -0.42797075960E+02 -0.26295144982E+01  0.67170748118E+01  0.47787272458E+02  0.20000006443E+02 0.  0.
         12    1    1    2    0    0  0.42797075960E+02  0.26295144982E+01 -0.67170748118E+01  0.43400727542E+02  0.00000000000E+00 0. -1.
         11    1    3    3    0    0 -0.15920206690E+01 -0.40898858702E+00 -0.34215842707E+01  0.37959242165E+01  0.51100000000E-03 0. -1.
        -11    1    3    3    0    0 -0.21188292440E+02  0.31896813702E+01  0.13465384275E+01  0.21469302964E+02  0.51100000000E-03 0.  1.
        -12    1    3    3    0    0 -0.20016762851E+02 -0.54102072814E+01  0.87921206550E+01  0.22522045277E+02  0.00000000000E+00 0.  1.
</event>
<event>
 7    1  0.2653124E-010  0.4778729E+02  0.7816164E-02  0.1312668E+00
        -11   -1    0    0    0    0  0.00000000000E+00  0.00000000000E+00  0.45593999997E+02  0.45594000000E+02  0.51100000000E-03 0.  1.
         11   -1    0    0    0    0 -0.00000000000E+00 -0.00000000000E+00 -0.45593999997E+02  0.45594000000E+02  0.51100000000E-03 0. -1.
    9900012    2    1    2    0    0  0.24289082182E+02 -0.17587672907E+02  0.31374133310E+02  0.47787285807E+02  0.20000067309E+02 0.  0.
         12    1    1    2    0    0 -0.24289082182E+02  0.17587672907E+02 -0.31374133310E+02  0.43400714193E+02  0.00000000000E+00 0. -1.
         11    1    3    3    0    0  0.17730492232E+02 -0.61221033313E+01  0.14574918730E+02  0.23754552410E+02  0.51100000000E-03 0.  1.
        -11    1    3    3    0    0  0.10059487842E+01 -0.98993456673E-01 -0.14865315180E+01  0.17976398071E+01  0.51100000000E-03 0. -1.
        -12    1    3    3    0    0  0.55526411662E+01 -0.11366576119E+02  0.18285746098E+02  0.22235093590E+02  0.00000000000E+00 0.  1.
</event>
<event>
 7    1  0.2653124E-010  0.4778728E+02  0.7816164E-02  0.1312668E+00
        -11   -1    0    0    0    0  0.00000000000E+00  0.00000000000E+00  0.45593999997E+02  0.45594000000E+02  0.51100000000E-03 0.  1.
         11   -1    0    0    0    0 -0.00000000000E+00 -0.00000000000E+00 -0.45593999997E+02  0.45594000000E+02  0.51100000000E-03 0. -1.
    9900012    2    1    2    0    0 -0.56559338489E+01  0.73762083090E+01  0.42393689276E+02  0.47787275039E+02  0.20000018213E+02 0.  0.
         12    1    1    2    0    0  0.56559338489E+01 -0.73762083090E+01 -0.42393689276E+02  0.43400724961E+02  0.00000000000E+00 0. -1.
         11    1    3    3    0    0 -0.59792198856E+00  0.23381059272E+01  0.13622457147E-01  0.24133868036E+01  0.51100000000E-03 0. -1.
        -11    1    3    3    0    0 -0.30982204698E+01 -0.49171041192E+01  0.11782061382E+02  0.13137497998E+02  0.51100000000E-03 0.  1.
        -12    1    3    3    0    0 -0.19597913905E+01  0.99552065009E+01  0.30598005437E+02  0.32236390237E+02  0.00000000000E+00 0.  1.
</event>
<event>
 7    1  0.2653124E-010  0.4778727E+02  0.7816164E-02  0.1312668E+00
        -11   -1    0    0    0    0  0.00000000000E+00  0.00000000000E+00  0.45593999997E+02  0.45594000000E+02  0.51100000000E-03 0.  1.
         11   -1    0    0    0    0 -0.00000000000E+00 -0.00000000000E+00 -0.45593999997E+02  0.45594000000E+02  0.51100000000E-03 0. -1.
    9900012    2    1    2    0    0 -0.36606491524E+02  0.92334200684E+00  0.23296685740E+02  0.47787270184E+02  0.19999996075E+02 0.  0.
         12    1    1    2    0    0  0.36606491524E+02 -0.92334200684E+00 -0.23296685740E+02  0.43400729816E+02  0.00000000000E+00 0. -1.
         11    1    3    3    0    0 -0.47744273115E+01 -0.20423684347E+01  0.62420126057E+01  0.81196765087E+01  0.51100000000E-03 0. -1.
        -11    1    3    3    0    0 -0.23521098331E+02 -0.24157387898E+01  0.18006878478E+02  0.29720792946E+02  0.51100000000E-03 0.  1.
         12    1    3    3    0    0 -0.83109658819E+01  0.53814492314E+01 -0.95220534371E+00  0.99468007287E+01  0.00000000000E+00 0. -1.
</event>
<event>
 7    1  0.2653124E-010  0.4778728E+02  0.7816164E-02  0.1312668E+00
        -11   -1    0    0    0    0  0.00000000000E+00  0.00000000000E+00  0.45593999997E+02  0.45594000000E+02  0.51100000000E-03 0. -1.
         11   -1    0    0    0    0 -0.00000000000E+00 -0.00000000000E+00 -0.45593999997E+02  0.45594000000E+02  0.51100000000E-03 0.  1.
    9900012    2    1    2    0    0 -0.25725017022E+02 -0.32314401107E+02 -0.13327633851E+02  0.47787276000E+02  0.20000022592E+02 0.  0.
         12    1    1    2    0    0  0.25725017022E+02  0.32314401107E+02  0.13327633851E+02  0.43400724000E+02  0.00000000000E+00 0. -1.
         11    1    3    3    0    0 -0.82442551855E+01 -0.41686744710E+01 -0.55315077501E+01  0.10767690962E+02  0.51100000000E-03 0.  1.
        -11    1    3    3    0    0  0.22006372401E+01 -0.31955696045E+01 -0.29492702864E+01  0.48736705719E+01  0.51100000000E-03 0. -1.
        -12    1    3    3    0    0 -0.19681399077E+02 -0.24950157032E+02 -0.48468558141E+01  0.32145914465E+02  0.00000000000E+00 0.  1.
</event>
<event>
 7    1  0.2653124E-010  0.4778727E+02  0.7816164E-02  0.1312668E+00
        -11   -1    0    0    0    0  0.00000000000E+00  0.00000000000E+00  0.45593999997E+02  0.45594000000E+02  0.51100000000E-03 0. -1.
         11   -1    0    0    0    0 -0.00000000000E+00 -0.00000000000E+00 -0.45593999997E+02  0.45594000000E+02  0.51100000000E-03 0.  1.
    9900012    2    1    2    0    0 -0.28559426091E+02 -0.11854821735E+02 -0.30453995353E+02  0.47787269015E+02  0.19999990748E+02 0.  0.
         12    1    1    2    0    0  0.28559426091E+02  0.11854821735E+02  0.30453995353E+02  0.43400730985E+02  0.00000000000E+00 0. -1.
         11    1    3    3    0    0 -0.61198209344E+00 -0.99448607090E+00 -0.57023289387E+01  0.58206597748E+01  0.51100000000E-03 0. -1.
        -11    1    3    3    0    0 -0.13595929971E+02 -0.10194984025E+02 -0.21194168838E+02  0.27165783700E+02  0.51100000000E-03 0.  1.
        -12    1    3    3    0    0 -0.14351514027E+02 -0.66535163919E+00 -0.35574975769E+01  0.14800825540E+02  0.00000000000E+00 0.  1.
</event>
<event>
 7    1  0.2653124E-010  0.4778728E+02  0.7816164E-02  0.1312668E+00
        -11   -1    0    0    0    0  0.00000000000E+00  0.00000000000E+00  0.45593999997E+02  0.45594000000E+02  0.51100000000E-03 0. -1.
         11   -1    0    0    0    0 -0.00000000000E+00 -0.00000000000E+00 -0.45593999997E+02  0.45594000000E+02  0.51100000000E-03 0.  1.
    9900012    2    1    2    0    0 -0.13361172714E+02  0.40966896410E+02  0.51783539212E+01  0.47787275501E+02  0.20000020317E+02 0.  0.
         12    1    1    2    0    0  0.13361172714E+02 -0.40966896410E+02 -0.51783539212E+01  0.43400724499E+02  0.00000000000E+00 0. -1.
         11    1    3    3    0    0 -0.92959274789E+01  0.19823020621E+02  0.67868851113E+01  0.22922221184E+02  0.51100000000E-03 0. -1.
        -11    1    3    3    0    0 -0.46247592249E+01  0.20682329297E+02  0.19039721863E+01  0.21278445746E+02  0.51100000000E-03 0.  1.
         12    1    3    3    0    0  0.55951398985E+00  0.46154649233E+00 -0.35125033764E+01  0.35866085706E+01  0.00000000000E+00 0. -1.
</event>
<event>
 7    1  0.2653124E-010  0.4778727E+02  0.7816164E-02  0.1312668E+00
        -11   -1    0    0    0    0  0.00000000000E+00  0.00000000000E+00  0.45593999997E+02  0.45594000000E+02  0.51100000000E-03 0.  1.
         11   -1    0    0    0    0 -0.00000000000E+00 -0.00000000000E+00 -0.45593999997E+02  0.45594000000E+02  0.51100000000E-03 0. -1.
    9900012    2    1    2    0    0 -0.58255801462E+01 -0.20469427639E+02  0.37824439436E+02  0.47787273386E+02  0.20000010678E+02 0.  0.
         12    1    1    2    0    0  0.58255801462E+01  0.20469427639E+02 -0.37824439436E+02  0.43400726614E+02  0.00000000000E+00 0. -1.
         11    1    3    3    0    0  0.26908565252E+01 -0.44021648568E+01  0.93204139559E+01  0.10653162950E+02  0.51100000000E-03 0. -1.
        -11    1    3    3    0    0  0.39989676818E+01 -0.51969028689E+01  0.44638188760E+01  0.79325419109E+01  0.51100000000E-03 0.  1.
        -12    1    3    3    0    0 -0.12515404353E+02 -0.10870359914E+02  0.24040206604E+02  0.29201568526E+02  0.00000000000E+00 0.  1.
</event>
<event>
 7    1  0.2653124E-010  0.4778729E+02  0.7816164E-02  0.1312668E+00
        -11   -1    0    0    0    0  0.00000000000E+00  0.00000000000E+00  0.45593999997E+02  0.45594000000E+02  0.51100000000E-03 0.  1.
         11   -1    0    0    0    0 -0.00000000000E+00 -0.00000000000E+00 -0.45593999997E+02  0.45594000000E+02  0.51100000000E-03 0. -1.
    9900012    2    1    2    0    0  0.74737067205E+01  0.17917691646E+02  0.38816516427E+02  0.47787286715E+02  0.20000071448E+02 0.  0.
         12    1    1    2    0    0 -0.74737067205E+01 -0.17917691646E+02 -0.38816516427E+02  0.43400713285E+02  0.00000000000E+00 0. -1.
         11    1    3    3    0    0  0.64653154676E+01  0.23441633142E+01  0.14747153745E+02  0.16271876031E+02  0.51100000000E-03 0. -1.
        -11    1    3    3    0    0  0.34156267389E+01  0.77092540848E+01  0.21182413282E+02  0.22798985444E+02  0.51100000000E-03 0.  1.
         12    1    3    3    0    0 -0.24072354860E+01  0.78642742474E+01  0.28869494009E+01  0.87164252402E+01  0.00000000000E+00 0. -1.
</event>
<event>
 7    1  0.2653124E-010  0.4778727E+02  0.7816164E-02  0.1312668E+00
        -11   -1    0    0    0    0  0.00000000000E+00  0.00000000000E+00  0.45593999997E+02  0.45594000000E+02  0.51100000000E-03 0.  1.
         11   -1    0    0    0    0 -0.00000000000E+00 -0.00000000000E+00 -0.45593999997E+02  0.45594000000E+02  0.51100000000E-03 0. -1.
    9900012    2    1    2    0    0  0.29734625675E+02 -0.31402968519E+02  0.36508610948E+01  0.47787272096E+02  0.20000004796E+02 0.  0.
         12    1    1    2    0    0 -0.29734625675E+02  0.31402968519E+02 -0.36508610948E+01  0.43400727904E+02  0.00000000000E+00 0. -1.
         11    1    3    3    0    0  0.99111832325E+01 -0.20126151228E+02  0.18321270774E+01  0.22508891715E+02  0.51100000000E-03 0. -1.
        -11    1    3    3    0    0  0.11191918209E+02 -0.95730707434E+01  0.55272632153E+01  0.15730650195E+02  0.51100000000E-03 0.  1.
         12    1    3    3    0    0  0.86315242341E+01 -0.17037465468E+01 -0.37085291980E+01  0.95477301864E+01  0.00000000000E+00 0. -1.
</event>
<event>
 7    1  0.2653124E-010  0.4778727E+02  0.7816164E-02  0.1312668E+00
        -11   -1    0    0    0    0  0.00000000000E+00  0.00000000000E+00  0.45593999997E+02  0.45594000000E+02  0.51100000000E-03 0. -1.
         11   -1    0    0    0    0 -0.00000000000E+00 -0.00000000000E+00 -0.45593999997E+02  0.45594000000E+02  0.51100000000E-03 0.  1.
    9900012    2    1    2    0    0  0.34866174605E+02  0.23084912801E+02 -0.11621522890E+02  0.47787272760E+02  0.20000007824E+02 0.  0.
         12    1    1    2    0    0 -0.34866174605E+02 -0.23084912801E+02  0.11621522890E+02  0.43400727240E+02  0.00000000000E+00 0. -1.
         11    1    3    3    0    0  0.76106714359E+01  0.19993296260E+01  0.28863498227E+01  0.83815663345E+01  0.51100000000E-03 0. -1.
        -11    1    3    3    0    0  0.87287594402E+01  0.12257508281E+02 -0.15332576552E+01  0.15125760474E+02  0.51100000000E-03 0.  1.
        -12    1    3    3    0    0  0.18526743729E+02  0.88280748942E+01 -0.12974615057E+02  0.24279945952E+02  0.00000000000E+00 0.  1.
</event>
<event>
 7    1  0.2653124E-010  0.4778727E+02  0.7816164E-02  0.1312668E+00
        -11   -1    0    0    0    0  0.00000000000E+00  0.00000000000E+00  0.45593999997E+02  0.45594000000E+02  0.51100000000E-03 0. -1.
         11   -1    0    0    0    0 -0.00000000000E+00 -0.00000000000E+00 -0.45593999997E+02  0.45594000000E+02  0.51100000000E-03 0.  1.
    9900012    2    1    2    0    0 -0.37055872024E+02  0.34588578147E+00 -0.22591277560E+02  0.47787272930E+02  0.20000008596E+02 0.  0.
         12    1    1    2    0    0  0.37055872024E+02 -0.34588578147E+00  0.22591277560E+02  0.43400727070E+02  0.00000000000E+00 0. -1.
         11    1    3    3    0    0 -0.77248336416E+01  0.39084965449E+00 -0.12775539532E+01  0.78395129063E+01  0.51100000000E-03 0. -1.
        -11    1    3    3    0    0 -0.24506282823E+02 -0.52937170494E+00 -0.24083417598E+02  0.34363485500E+02  0.51100000000E-03 0.  1.
         12    1    3    3    0    0 -0.48247555590E+01  0.48440783192E+00  0.27696939913E+01  0.55842745238E+01  0.00000000000E+00 0. -1.
</event>
<event>
 7    1  0.2653124E-010  0.4778727E+02  0.7816164E-02  0.1312668E+00
        -11   -1    0    0    0    0  0.00000000000E+00  0.00000000000E+00  0.45593999997E+02  0.45594000000E+02  0.51100000000E-03 0. -1.
         11   -1    0    0    0    0 -0.00000000000E+00 -0.00000000000E+00 -0.45593999997E+02  0.45594000000E+02  0.51100000000E-03 0.  1.
    9900012    2    1    2    0    0 -0.42332551132E+02  0.34288297484E+01 -0.89342924251E+01  0.47787270283E+02  0.19999996530E+02 0.  0.
         12    1    1    2    0    0  0.42332551132E+02 -0.34288297484E+01  0.89342924251E+01  0.43400729717E+02  0.00000000000E+00 0. -1.
         11    1    3    3    0    0 -0.13834108742E+02 -0.40030751730E+01 -0.39487257193E+01  0.14933171485E+02  0.51100000000E-03 0. -1.
        -11    1    3    3    0    0 -0.61120441529E+01 -0.21478628687E+01 -0.55006000182E+01  0.84986469188E+01  0.51100000000E-03 0.  1.
         12    1    3    3    0    0 -0.22386398237E+02  0.95797677902E+01  0.51503331236E+00  0.24355451880E+02  0.00000000000E+00 0. -1.
</event>
<event>
 7    1  0.2653124E-010  0.4778727E+02  0.7816164E-02  0.1312668E+00
        -11   -1    0    0    0    0  0.00000000000E+00  0.00000000000E+00  0.45593999997E+02  0.45594000000E+02  0.51100000000E-03 0.  1.
         11   -1    0    0    0    0 -0.00000000000E+00 -0.00000000000E+00 -0.45593999997E+02  0.45594000000E+02  0.51100000000E-03 0. -1.
    9900012    2    1    2    0    0  0.21742490923E+02  0.26044446866E+02  0.27066105047E+02  0.47787272281E+02  0.20000005640E+02 0.  0.
         12    1    1    2    0    0 -0.21742490923E+02 -0.26044446866E+02 -0.27066105047E+02  0.43400727719E+02  0.00000000000E+00 0. -1.
         11    1    3    3    0    0  0.27593177808E+01  0.17689819577E+00 -0.14705286857E+00  0.27688901015E+01  0.51100000000E-03 0. -1.
        -11    1    3    3    0    0  0.15405335092E+02  0.25718790770E+02  0.17609614554E+02  0.34768938336E+02  0.51100000000E-03 0.  1.
        -12    1    3    3    0    0  0.35778380501E+01  0.14875790032E+00  0.96035433613E+01  0.10249443844E+02  0.00000000000E+00 0.  1.
</event>
<event>
 7    1  0.2653124E-010  0.4778728E+02  0.7816164E-02  0.1312668E+00
        -11   -1    0    0    0    0  0.00000000000E+00  0.00000000000E+00  0.45593999997E+02  0.45594000000E+02  0.51100000000E-03 0.  1.
         11   -1    0    0    0    0 -0.00000000000E+00 -0.00000000000E+00 -0.45593999997E+02  0.45594000000E+02  0.51100000000E-03 0. -1.
    9900012    2    1    2    0    0  0.40910937000E+02 -0.66776901944E+01 -0.12857933256E+02  0.47787276963E+02  0.20000026986E+02 0.  0.
         12    1    1    2    0    0 -0.40910937000E+02  0.66776901944E+01  0.12857933256E+02  0.43400723037E+02  0.00000000000E+00 0. -1.
         11    1    3    3    0    0  0.10224520598E+02  0.27153057142E+01 -0.56318419957E+01  0.11984629786E+02  0.51100000000E-03 0. -1.
        -11    1    3    3    0    0  0.21156059671E+02 -0.35810498026E+00 -0.77966077094E+00  0.21173449675E+02  0.51100000000E-03 0.  1.
        -12    1    3    3    0    0  0.95303567303E+01 -0.90348909283E+01 -0.64464304890E+01  0.14629197502E+02  0.00000000000E+00 0.  1.
</event>
<event>
 7    1  0.2653124E-010  0.4778726E+02  0.7816164E-02  0.1312668E+00
        -11   -1    0    0    0    0  0.00000000000E+00  0.00000000000E+00  0.45593999997E+02  0.45594000000E+02  0.51100000000E-03 0.  1.
         11   -1    0    0    0    0 -0.00000000000E+00 -0.00000000000E+00 -0.45593999997E+02  0.45594000000E+02  0.51100000000E-03 0. -1.
    9900012    2    1    2    0    0  0.23915155777E+02  0.19797220107E+02  0.30327536234E+02  0.47787262059E+02  0.19999959031E+02 0.  0.
         12    1    1    2    0    0 -0.23915155777E+02 -0.19797220107E+02 -0.30327536234E+02  0.43400737941E+02  0.00000000000E+00 0. -1.
         11    1    3    3    0    0  0.11786845930E+02  0.76924080798E+01  0.41396083882E+01  0.14671033941E+02  0.51100000000E-03 0. -1.
        -11    1    3    3    0    0  0.11520988290E+02  0.53774946914E+01  0.12385813338E+02  0.17749901201E+02  0.51100000000E-03 0.  1.
         12    1    3    3    0    0  0.60732155680E+00  0.67273173359E+01  0.13802114508E+02  0.15366326917E+02  0.00000000000E+00 0. -1.
</event>
<event>
 7    1  0.2653124E-010  0.4778727E+02  0.7816164E-02  0.1312668E+00
        -11   -1    0    0    0    0  0.00000000000E+00  0.00000000000E+00  0.45593999997E+02  0.45594000000E+02  0.51100000000E-03 0.  1.
         11   -1    0    0    0    0 -0.00000000000E+00 -0.00000000000E+00 -0.45593999997E+02  0.45594000000E+02  0.51100000000E-03 0. -1.
    9900012    2    1    2    0    0  0.69302540052E+01 -0.31926935369E+02  0.28570360206E+02  0.47787272991E+02  0.20000008874E+02 0.  0.
         12    1    1    2    0    0 -0.69302540052E+01  0.31926935369E+02 -0.28570360206E+02  0.43400727009E+02  0.00000000000E+00 0. -1.
         11    1    3    3    0    0  0.25020524101E+01 -0.10736672319E+02  0.25686199024E+01  0.11319638122E+02  0.51100000000E-03 0. -1.
        -11    1    3    3    0    0 -0.19479646877E+01 -0.18048326278E+02  0.21094104556E+02  0.27829802284E+02  0.51100000000E-03 0.  1.
         12    1    3    3    0    0  0.63761662828E+01 -0.31419367728E+01  0.49076357473E+01  0.86378325857E+01  0.00000000000E+00 0. -1.
</event>
<event>
 7    1  0.2653124E-010  0.4778726E+02  0.7816164E-02  0.1312668E+00
        -11   -1    0    0    0    0  0.00000000000E+00  0.00000000000E+00  0.45593999997E+02  0.45594000000E+02  0.51100000000E-03 0.  1.
         11   -1    0    0    0    0 -0.00000000000E+00 -0.00000000000E+00 -0.45593999997E+02  0.45594000000E+02  0.51100000000E-03 0. -1.
    9900012    2    1    2    0    0  0.19715400901E+02 -0.29281720132E+02  0.25248928351E+02  0.47787256349E+02  0.19999932999E+02 0.  0.
         12    1    1    2    0    0 -0.19715400901E+02  0.29281720132E+02 -0.25248928351E+02  0.43400743651E+02  0.00000000000E+00 0. -1.
         11    1    3    3    0    0  0.24623955774E+01 -0.70623408007E+01  0.37969164723E+01  0.83878855812E+01  0.51100000000E-03 0. -1.
        -11    1    3    3    0    0  0.18145726960E+02 -0.20092177931E+02  0.23843919402E+02  0.36076245836E+02  0.51100000000E-03 0.  1.
        -12    1    3    3    0    0 -0.89272163640E+00 -0.21272014004E+01 -0.23919075231E+01  0.33231249325E+01  0.00000000000E+00 0.  1.
</event>
<event>
 7    1  0.2653124E-010  0.4778727E+02  0.7816164E-02  0.1312668E+00
        -11   -1    0    0    0    0  0.00000000000E+00  0.00000000000E+00  0.45593999997E+02  0.45594000000E+02  0.51100000000E-03 0.  1.
         11   -1    0    0    0    0 -0.00000000000E+00 -0.00000000000E+00 -0.45593999997E+02  0.45594000000E+02  0.51100000000E-03 0. -1.
    9900012    2    1    2    0    0 -0.36685767128E+02 -0.23067308919E+02 -0.23826112799E+01  0.47787273197E+02  0.20000009814E+02 0.  0.
         12    1    1    2    0    0  0.36685767128E+02  0.23067308919E+02  0.23826112799E+01  0.43400726803E+02  0.00000000000E+00 0. -1.
         11    1    3    3    0    0 -0.99152900439E+01 -0.61276422550E+01 -0.91769444163E+01  0.14835002034E+02  0.51100000000E-03 0. -1.
        -11    1    3    3    0    0 -0.61302822864E+01 -0.55397766686E+01 -0.48024769622E+00  0.82764802036E+01  0.51100000000E-03 0.  1.
         12    1    3    3    0    0 -0.20640194797E+02 -0.11399889996E+02  0.72745808326E+01  0.24675790960E+02  0.00000000000E+00 0. -1.
</event>
<event>
 7    1  0.2653124E-010  0.4778727E+02  0.7816164E-02  0.1312668E+00
        -11   -1    0    0    0    0  0.00000000000E+00  0.00000000000E+00  0.45593999997E+02  0.45594000000E+02  0.51100000000E-03 0.  1.
         11   -1    0    0    0    0 -0.00000000000E+00 -0.00000000000E+00 -0.45593999997E+02  0.45594000000E+02  0.51100000000E-03 0. -1.
    9900012    2    1    2    0    0 -0.69330898190E+01 -0.26662195646E+02  0.33536291733E+02  0.47787271040E+02  0.19999999978E+02 0.  0.
         12    1    1    2    0    0  0.69330898190E+01  0.26662195646E+02 -0.33536291733E+02  0.43400728960E+02  0.00000000000E+00 0. -1.
         11    1    3    3    0    0 -0.20626640074E+01 -0.14916596859E+01  0.30919119776E+00  0.25642213017E+01  0.51100000000E-03 0. -1.
        -11    1    3    3    0    0 -0.80823088696E+01 -0.17350833758E+02  0.31079596872E+02  0.36500910821E+02  0.51100000000E-03 0.  1.
         12    1    3    3    0    0  0.32118830580E+01 -0.78197022023E+01  0.21475036631E+01  0.87221389174E+01  0.00000000000E+00 0. -1.
</event>
<event>
 7    1  0.2653124E-010  0.4778727E+02  0.7816164E-02  0.1312668E+00
        -11   -1    0    0    0    0  0.00000000000E+00  0.00000000000E+00  0.45593999997E+02  0.45594000000E+02  0.51100000000E-03 0. -1.
         11   -1    0    0    0    0 -0.00000000000E+00 -0.00000000000E+00 -0.45593999997E+02  0.45594000000E+02  0.51100000000E-03 0.  1.
    9900012    2    1    2    0    0  0.64438002557E+01  0.15942212435E+02 -0.39849043599E+02  0.47787274489E+02  0.20000015707E+02 0.  0.
         12    1    1    2    0    0 -0.64438002557E+01 -0.15942212435E+02  0.39849043599E+02  0.43400725511E+02  0.00000000000E+00 0. -1.
         11    1    3    3    0    0  0.72335354819E+01  0.57607004067E+01 -0.11607084952E+02  0.14840287264E+02  0.51100000000E-03 0. -1.
        -11    1    3    3    0    0  0.27376008350E+01  0.84697976860E+01 -0.69393020236E+01  0.11286533746E+02  0.51100000000E-03 0.  1.
         12    1    3    3    0    0 -0.35273360612E+01  0.17117143426E+01 -0.21302656623E+02  0.21660453479E+02  0.00000000000E+00 0. -1.
</event>
<event>
 7    1  0.2653124E-010  0.4778727E+02  0.7816164E-02  0.1312668E+00
        -11   -1    0    0    0    0  0.00000000000E+00  0.00000000000E+00  0.45593999997E+02  0.45594000000E+02  0.51100000000E-03 0.  1.
         11   -1    0    0    0    0 -0.00000000000E+00 -0.00000000000E+00 -0.45593999997E+02  0.45594000000E+02  0.51100000000E-03 0. -1.
    9900012    2    1    2    0    0  0.22457218674E+02 -0.17784965824E+02  0.32603550822E+02  0.47787271824E+02  0.20000003557E+02 0.  0.
         12    1    1    2    0    0 -0.22457218674E+02  0.17784965824E+02 -0.32603550822E+02  0.43400728176E+02  0.00000000000E+00 0. -1.
         11    1    3    3    0    0  0.78921803915E+01 -0.34571587346E+01  0.50505060617E+01  0.99872954091E+01  0.51100000000E-03 0. -1.
        -11    1    3    3    0    0  0.13904429271E+02 -0.32376948742E+01  0.11790799013E+02  0.18515905678E+02  0.51100000000E-03 0.  1.
         12    1    3    3    0    0  0.66060901238E+00 -0.11090112215E+02  0.15762245748E+02  0.19284070738E+02  0.00000000000E+00 0. -1.
</event>
<event>
 7    1  0.2653124E-010  0.4778727E+02  0.7816164E-02  0.1312668E+00
        -11   -1    0    0    0    0  0.00000000000E+00  0.00000000000E+00  0.45593999997E+02  0.45594000000E+02  0.51100000000E-03 0.  1.
         11   -1    0    0    0    0 -0.00000000000E+00 -0.00000000000E+00 -0.45593999997E+02  0.45594000000E+02  0.51100000000E-03 0. -1.
    9900012    2    1    2    0    0  0.41545295932E+02 -0.84896482064E+01  0.92486507462E+01  0.47787270958E+02  0.19999999604E+02 0.  0.
         12    1    1    2    0    0 -0.41545295932E+02  0.84896482064E+01 -0.92486507462E+01  0.43400729042E+02  0.00000000000E+00 0. -1.
         11    1    3    3    0    0  0.71459396032E+01 -0.33321473938E+01 -0.39264627684E+01  0.88082216820E+01  0.51100000000E-03 0. -1.
        -11    1    3    3    0    0  0.13089722908E+02  0.28402311398E+01  0.17396174334E+01  0.13506814125E+02  0.51100000000E-03 0.  1.
        -12    1    3    3    0    0  0.21309633421E+02 -0.79977319524E+01  0.11435496081E+02  0.25472235150E+02  0.00000000000E+00 0.  1.
</event>
<event>
 7    1  0.2653124E-010  0.4778727E+02  0.7816164E-02  0.1312668E+00
        -11   -1    0    0    0    0  0.00000000000E+00  0.00000000000E+00  0.45593999997E+02  0.45594000000E+02  0.51100000000E-03 0.  1.
         11   -1    0    0    0    0 -0.00000000000E+00 -0.00000000000E+00 -0.45593999997E+02  0.45594000000E+02  0.51100000000E-03 0. -1.
    9900012    2    1    2    0    0 -0.25854417711E+00  0.35649646111E+02  0.24751960231E+02  0.47787266731E+02  0.19999980335E+02 0.  0.
         12    1    1    2    0    0  0.25854417711E+00 -0.35649646111E+02 -0.24751960231E+02  0.43400733269E+02  0.00000000000E+00 0. -1.
         11    1    3    3    0    0  0.20958074273E+01  0.43288970801E+00 -0.12977916144E+01  0.25028115405E+01  0.51100000000E-03 0. -1.
        -11    1    3    3    0    0 -0.23252584239E+01  0.73365634965E+00  0.27086303997E+01  0.36444145320E+01  0.51100000000E-03 0.  1.
        -12    1    3    3    0    0 -0.29093180520E-01  0.34483100054E+02  0.23341121446E+02  0.41640040659E+02  0.00000000000E+00 0.  1.
</event>
<event>
 7    1  0.2653124E-010  0.4778725E+02  0.7816164E-02  0.1312668E+00
        -11   -1    0    0    0    0  0.00000000000E+00  0.00000000000E+00  0.45593999997E+02  0.45594000000E+02  0.51100000000E-03 0.  1.
         11   -1    0    0    0    0 -0.00000000000E+00 -0.00000000000E+00 -0.45593999997E+02  0.45594000000E+02  0.51100000000E-03 0. -1.
    9900012    2    1    2    0    0  0.17288321614E+02 -0.30057341234E+02  0.26101631051E+02  0.47787251507E+02  0.19999910920E+02 0.  0.
         12    1    1    2    0    0 -0.17288321614E+02  0.30057341234E+02 -0.26101631051E+02  0.43400748493E+02  0.00000000000E+00 0. -1.
         11    1    3    3    0    0  0.37815035400E+01 -0.82505223134E+01  0.10102808792E+01  0.91318976770E+01  0.51100000000E-03 0. -1.
        -11    1    3    3    0    0  0.38427979412E+01 -0.18919328348E+02  0.15925681916E+02  0.25026694266E+02  0.51100000000E-03 0.  1.
         12    1    3    3    0    0  0.96640201326E+01 -0.28874905730E+01  0.91656682550E+01  0.13628659563E+02  0.00000000000E+00 0. -1.
</event>
<event>
 7    1  0.2653124E-010  0.4778727E+02  0.7816164E-02  0.1312668E+00
        -11   -1    0    0    0    0  0.00000000000E+00  0.00000000000E+00  0.45593999997E+02  0.45594000000E+02  0.51100000000E-03 0.  1.
         11   -1    0    0    0    0 -0.00000000000E+00 -0.00000000000E+00 -0.45593999997E+02  0.45594000000E+02  0.51100000000E-03 0. -1.
    9900012    2    1    2    0    0 -0.32174778022E+02  0.28785943953E+02  0.44470598265E+01  0.47787271306E+02  0.20000001193E+02 0.  0.
         12    1    1    2    0    0  0.32174778022E+02 -0.28785943953E+02 -0.44470598265E+01  0.43400728694E+02  0.00000000000E+00 0. -1.
         11    1    3    3    0    0 -0.31168222591E+01  0.25138390443E+01  0.43860820034E+01  0.59389968292E+01  0.51100000000E-03 0. -1.
        -11    1    3    3    0    0 -0.11272269387E+02  0.39190003359E+01  0.48538281853E+01  0.12883410615E+02  0.51100000000E-03 0.  1.
         12    1    3    3    0    0 -0.17785686376E+02  0.22353104573E+02 -0.47928503621E+01  0.28964863862E+02  0.00000000000E+00 0. -1.
</event>
<event>
 7    1  0.2653124E-010  0.4778727E+02  0.7816164E-02  0.1312668E+00
        -11   -1    0    0    0    0  0.00000000000E+00  0.00000000000E+00  0.45593999997E+02  0.45594000000E+02  0.51100000000E-03 0. -1.
         11   -1    0    0    0    0 -0.00000000000E+00 -0.00000000000E+00 -0.45593999997E+02  0.45594000000E+02  0.51100000000E-03 0.  1.
    9900012    2    1    2    0    0  0.34060220983E+02 -0.21832915554E+02 -0.15711405815E+02  0.47787272728E+02  0.20000007678E+02 0.  0.
         12    1    1    2    0    0 -0.34060220983E+02  0.21832915554E+02  0.15711405815E+02  0.43400727272E+02  0.00000000000E+00 0. -1.
         11    1    3    3    0    0  0.15669504265E+02 -0.93758518751E+01 -0.54760741563E+01  0.19063770632E+02  0.51100000000E-03 0.  1.
        -11    1    3    3    0    0  0.17625490769E+02 -0.11857682836E+02 -0.30359375115E+01  0.21458785705E+02  0.51100000000E-03 0. -1.
         12    1    3    3    0    0  0.76522594866E+00 -0.59938084242E+00 -0.71993941474E+01  0.72647163907E+01  0.00000000000E+00 0. -1.
</event>
<event>
 7    1  0.2653124E-010  0.4778727E+02  0.7816164E-02  0.1312668E+00
        -11   -1    0    0    0    0  0.00000000000E+00  0.00000000000E+00  0.45593999997E+02  0.45594000000E+02  0.51100000000E-03 0.  1.
         11   -1    0    0    0    0 -0.00000000000E+00 -0.00000000000E+00 -0.45593999997E+02  0.45594000000E+02  0.51100000000E-03 0. -1.
    9900012    2    1    2    0    0 -0.26686952643E+02  0.33910047258E+02  0.46410002007E+01  0.47787266950E+02  0.19999981332E+02 0.  0.
         12    1    1    2    0    0  0.26686952643E+02 -0.33910047258E+02 -0.46410002007E+01  0.43400733050E+02  0.00000000000E+00 0. -1.
         11    1    3    3    0    0 -0.45881419977E+01  0.55423487985E+01  0.33204966122E+01  0.79242902022E+01  0.51100000000E-03 0. -1.
        -11    1    3    3    0    0  0.53021123897E+00  0.10717834877E+02 -0.21858509247E+01  0.10951303709E+02  0.51100000000E-03 0.  1.
        -12    1    3    3    0    0 -0.22629021885E+02  0.17649863582E+02  0.35063545132E+01  0.28911673039E+02  0.00000000000E+00 0.  1.
</event>
<event>
 7    1  0.2653124E-010  0.4778727E+02  0.7816164E-02  0.1312668E+00
        -11   -1    0    0    0    0  0.00000000000E+00  0.00000000000E+00  0.45593999997E+02  0.45594000000E+02  0.51100000000E-03 0.  1.
         11   -1    0    0    0    0 -0.00000000000E+00 -0.00000000000E+00 -0.45593999997E+02  0.45594000000E+02  0.51100000000E-03 0. -1.
    9900012    2    1    2    0    0  0.12783758326E+02  0.13719574696E+02  0.39140420336E+02  0.47787266010E+02  0.19999977045E+02 0.  0.
         12    1    1    2    0    0 -0.12783758326E+02 -0.13719574696E+02 -0.39140420336E+02  0.43400733990E+02  0.00000000000E+00 0. -1.
         11    1    3    3    0    0  0.12780852585E+02  0.73266370072E+01  0.21264945276E+02  0.25869435643E+02  0.51100000000E-03 0. -1.
        -11    1    3    3    0    0  0.48795761667E+01  0.37626698985E+01  0.13561390551E+02  0.14895612181E+02  0.51100000000E-03 0.  1.
        -12    1    3    3    0    0 -0.48766704254E+01  0.26302677905E+01  0.43140845097E+01  0.70222181855E+01  0.00000000000E+00 0.  1.
</event>
<event>
 7    1  0.2653124E-010  0.4778728E+02  0.7816164E-02  0.1312668E+00
        -11   -1    0    0    0    0  0.00000000000E+00  0.00000000000E+00  0.45593999997E+02  0.45594000000E+02  0.51100000000E-03 0. -1.
         11   -1    0    0    0    0 -0.00000000000E+00 -0.00000000000E+00 -0.45593999997E+02  0.45594000000E+02  0.51100000000E-03 0.  1.
    9900012    2    1    2    0    0  0.10660525839E+02 -0.36092152074E+02 -0.21617869226E+02  0.47787279702E+02  0.20000039474E+02 0.  0.
         12    1    1    2    0    0 -0.10660525839E+02  0.36092152074E+02  0.21617869226E+02  0.43400720298E+02  0.00000000000E+00 0. -1.
         11    1    3    3    0    0 -0.33154096966E+00 -0.18441055660E+02 -0.69570665302E+01  0.19712514508E+02  0.51100000000E-03 0. -1.
        -11    1    3    3    0    0  0.27335821526E+01 -0.95798793616E+01 -0.74263869888E+00  0.99898985213E+01  0.51100000000E-03 0.  1.
        -12    1    3    3    0    0  0.82584846565E+01 -0.80712170524E+01 -0.13918163997E+02  0.18084866673E+02  0.00000000000E+00 0.  1.
</event>
<event>
 7    1  0.2653124E-010  0.4778727E+02  0.7816164E-02  0.1312668E+00
        -11   -1    0    0    0    0  0.00000000000E+00  0.00000000000E+00  0.45593999997E+02  0.45594000000E+02  0.51100000000E-03 0.  1.
         11   -1    0    0    0    0 -0.00000000000E+00 -0.00000000000E+00 -0.45593999997E+02  0.45594000000E+02  0.51100000000E-03 0. -1.
    9900012    2    1    2    0    0  0.34349488295E+02 -0.18739697867E+02  0.18776572965E+02  0.47787270575E+02  0.19999997858E+02 0.  0.
         12    1    1    2    0    0 -0.34349488295E+02  0.18739697867E+02 -0.18776572965E+02  0.43400729425E+02  0.00000000000E+00 0. -1.
         11    1    3    3    0    0  0.28723773535E+02 -0.14739104914E+02  0.98621570467E+01  0.33757347669E+02  0.51100000000E-03 0. -1.
        -11    1    3    3    0    0  0.77669043764E+01 -0.23535871576E+01  0.70195601796E+01  0.10730256357E+02  0.51100000000E-03 0.  1.
        -12    1    3    3    0    0 -0.21411896162E+01 -0.16470057963E+01  0.18948557392E+01  0.32996665495E+01  0.00000000000E+00 0.  1.
</event>
<event>
 7    1  0.2653124E-010  0.4778728E+02  0.7816164E-02  0.1312668E+00
        -11   -1    0    0    0    0  0.00000000000E+00  0.00000000000E+00  0.45593999997E+02  0.45594000000E+02  0.51100000000E-03 0.  1.
         11   -1    0    0    0    0 -0.00000000000E+00 -0.00000000000E+00 -0.45593999997E+02  0.45594000000E+02  0.51100000000E-03 0. -1.
    9900012    2    1    2    0    0  0.35734070640E+02  0.32230112240E+01  0.24419486225E+02  0.47787275198E+02  0.20000018936E+02 0.  0.
         12    1    1    2    0    0 -0.35734070640E+02 -0.32230112240E+01 -0.24419486225E+02  0.43400724802E+02  0.00000000000E+00 0. -1.
         11    1    3    3    0    0  0.33995598964E+00 -0.11769422089E+01 -0.24134670651E+01  0.27065820832E+01  0.51100000000E-03 0. -1.
        -11    1    3    3    0    0  0.69123330757E+01  0.60505035064E+00  0.86013449303E+01  0.11051224789E+02  0.51100000000E-03 0.  1.
         12    1    3    3    0    0  0.28481781575E+02  0.37949030823E+01  0.18231608360E+02  0.34029468325E+02  0.00000000000E+00 0. -1.
</event>
<event>
 7    1  0.2653124E-010  0.4778727E+02  0.7816164E-02  0.1312668E+00
        -11   -1    0    0    0    0  0.00000000000E+00  0.00000000000E+00  0.45593999997E+02  0.45594000000E+02  0.51100000000E-03 0.  1.
         11   -1    0    0    0    0 -0.00000000000E+00 -0.00000000000E+00 -0.45593999997E+02  0.45594000000E+02  0.51100000000E-03 0. -1.
    9900012    2    1    2    0    0 -0.27411917074E+02 -0.15134903033E+02  0.30052370048E+02  0.47787269212E+02  0.19999991644E+02 0.  0.
         12    1    1    2    0    0  0.27411917074E+02  0.15134903033E+02 -0.30052370048E+02  0.43400730788E+02  0.00000000000E+00 0. -1.
         11    1    3    3    0    0 -0.60140461539E+01  0.62841047793E+00  0.35134849632E+00  0.60569874440E+01  0.51100000000E-03 0. -1.
        -11    1    3    3    0    0 -0.78262114900E+01  0.17713830897E+00  0.47374403098E+01  0.91500986452E+01  0.51100000000E-03 0.  1.
        -12    1    3    3    0    0 -0.13571659430E+02 -0.15940451820E+02  0.24963581242E+02  0.32580183123E+02  0.00000000000E+00 0.  1.
</event>
<event>
 7    1  0.2653124E-010  0.4778727E+02  0.7816164E-02  0.1312668E+00
        -11   -1    0    0    0    0  0.00000000000E+00  0.00000000000E+00  0.45593999997E+02  0.45594000000E+02  0.51100000000E-03 0. -1.
         11   -1    0    0    0    0 -0.00000000000E+00 -0.00000000000E+00 -0.45593999997E+02  0.45594000000E+02  0.51100000000E-03 0.  1.
    9900012    2    1    2    0    0 -0.84667982842E+01 -0.23009278390E+02 -0.35812142444E+02  0.47787272913E+02  0.20000008521E+02 0.  0.
         12    1    1    2    0    0  0.84667982842E+01  0.23009278390E+02  0.35812142444E+02  0.43400727087E+02  0.00000000000E+00 0. -1.
         11    1    3    3    0    0 -0.65428526795E+01 -0.18428184812E+02 -0.14320646122E+02  0.24238148078E+02  0.51100000000E-03 0. -1.
        -11    1    3    3    0    0 -0.29319100484E+01 -0.16770427321E+01 -0.22380927332E+01  0.40518672486E+01  0.51100000000E-03 0.  1.
        -12    1    3    3    0    0  0.10079644437E+01 -0.29040508462E+01 -0.19253403589E+02  0.19497257586E+02  0.00000000000E+00 0.  1.
</event>
<event>
 7    1  0.2653124E-010  0.4778727E+02  0.7816164E-02  0.1312668E+00
        -11   -1    0    0    0    0  0.00000000000E+00  0.00000000000E+00  0.45593999997E+02  0.45594000000E+02  0.51100000000E-03 0.  1.
         11   -1    0    0    0    0 -0.00000000000E+00 -0.00000000000E+00 -0.45593999997E+02  0.45594000000E+02  0.51100000000E-03 0. -1.
    9900012    2    1    2    0    0 -0.96702656613E+01 -0.35702277763E+02  0.22703667884E+02  0.47787271771E+02  0.20000003311E+02 0.  0.
         12    1    1    2    0    0  0.96702656613E+01  0.35702277763E+02 -0.22703667884E+02  0.43400728229E+02  0.00000000000E+00 0. -1.
         11    1    3    3    0    0 -0.19745821225E-01 -0.15148858815E+02  0.45863307462E+01  0.15827910262E+02  0.51100000000E-03 0. -1.
        -11    1    3    3    0    0 -0.70767694881E+01 -0.21587413815E+02  0.18311483884E+02  0.29178888668E+02  0.51100000000E-03 0.  1.
        -12    1    3    3    0    0 -0.25737503521E+01  0.10339948664E+01 -0.19414674610E+00  0.27804728406E+01  0.00000000000E+00 0.  1.
</event>
<event>
 7    1  0.2653124E-010  0.4778726E+02  0.7816164E-02  0.1312668E+00
        -11   -1    0    0    0    0  0.00000000000E+00  0.00000000000E+00  0.45593999997E+02  0.45594000000E+02  0.51100000000E-03 0.  1.
         11   -1    0    0    0    0 -0.00000000000E+00 -0.00000000000E+00 -0.45593999997E+02  0.45594000000E+02  0.51100000000E-03 0. -1.
    9900012    2    1    2    0    0 -0.34799236295E+02 -0.25083851448E+02  0.65907138726E+01  0.47787263145E+02  0.19999963984E+02 0.  0.
         12    1    1    2    0    0  0.34799236295E+02  0.25083851448E+02 -0.65907138726E+01  0.43400736855E+02  0.00000000000E+00 0. -1.
         11    1    3    3    0    0 -0.38974154335E+01 -0.70338330383E+01 -0.85720571870E+00  0.80869930245E+01  0.51100000000E-03 0. -1.
        -11    1    3    3    0    0  0.26834402594E+00 -0.16900161678E+01  0.39737992806E+01  0.43265741814E+01  0.51100000000E-03 0.  1.
         12    1    3    3    0    0 -0.31170164887E+02 -0.16360002242E+02  0.34741203108E+01  0.35373695939E+02  0.00000000000E+00 0. -1.
</event>
<event>
 7    1  0.2653124E-010  0.4778727E+02  0.7816164E-02  0.1312668E+00
        -11   -1    0    0    0    0  0.00000000000E+00  0.00000000000E+00  0.45593999997E+02  0.45594000000E+02  0.51100000000E-03 0.  1.
         11   -1    0    0    0    0 -0.00000000000E+00 -0.00000000000E+00 -0.45593999997E+02  0.45594000000E+02  0.51100000000E-03 0. -1.
    9900012    2    1    2    0    0  0.26212640643E+02 -0.34180824611E+02 -0.53096038395E+01  0.47787271971E+02  0.20000004223E+02 0.  0.
         12    1    1    2    0    0 -0.26212640643E+02  0.34180824611E+02  0.53096038395E+01  0.43400728029E+02  0.00000000000E+00 0. -1.
         11    1    3    3    0    0  0.36212767517E+01 -0.15012260840E+02  0.52055326572E+01  0.16296600607E+02  0.51100000000E-03 0. -1.
        -11    1    3    3    0    0  0.31828297690E+01 -0.31199366927E+01 -0.21906094998E+01  0.49662038366E+01  0.51100000000E-03 0.  1.
         12    1    3    3    0    0  0.19408534122E+02 -0.16048627078E+02 -0.83245269969E+01  0.26524467527E+02  0.00000000000E+00 0. -1.
</event>
<event>
 7    1  0.2653124E-010  0.4778727E+02  0.7816164E-02  0.1312668E+00
        -11   -1    0    0    0    0  0.00000000000E+00  0.00000000000E+00  0.45593999997E+02  0.45594000000E+02  0.51100000000E-03 0.  1.
         11   -1    0    0    0    0 -0.00000000000E+00 -0.00000000000E+00 -0.45593999997E+02  0.45594000000E+02  0.51100000000E-03 0. -1.
    9900012    2    1    2    0    0 -0.20470525200E+02 -0.59677274257E+01  0.37801679455E+02  0.47787272561E+02  0.20000006917E+02 0.  0.
         12    1    1    2    0    0  0.20470525200E+02  0.59677274257E+01 -0.37801679455E+02  0.43400727439E+02  0.00000000000E+00 0. -1.
         11    1    3    3    0    0 -0.32361322783E+01  0.20872983187E+01  0.11777257458E+02  0.12390849845E+02  0.51100000000E-03 0. -1.
        -11    1    3    3    0    0 -0.66109476986E+01 -0.45281460461E+00  0.19889347237E+02  0.20964155226E+02  0.51100000000E-03 0.  1.
        -12    1    3    3    0    0 -0.10623445223E+02 -0.76022111398E+01  0.61350747598E+01  0.14432267491E+02  0.00000000000E+00 0.  1.
</event>
<event>
 7    1  0.2653124E-010  0.4778728E+02  0.7816164E-02  0.1312668E+00
        -11   -1    0    0    0    0  0.00000000000E+00  0.00000000000E+00  0.45593999997E+02  0.45594000000E+02  0.51100000000E-03 0. -1.
         11   -1    0    0    0    0 -0.00000000000E+00 -0.00000000000E+00 -0.45593999997E+02  0.45594000000E+02  0.51100000000E-03 0.  1.
    9900012    2    1    2    0    0  0.14326321664E+02  0.27064545847E+02 -0.30755314028E+02  0.47787280245E+02  0.20000041947E+02 0.  0.
         12    1    1    2    0    0 -0.14326321664E+02 -0.27064545847E+02  0.30755314028E+02  0.43400719755E+02  0.00000000000E+00 0. -1.
         11    1    3    3    0    0  0.97925186880E+00  0.20313231366E+01  0.10570104089E+01  0.24904776999E+01  0.51100000000E-03 0. -1.
        -11    1    3    3    0    0  0.84433853481E+01  0.44660652915E+01 -0.39890221439E+01  0.10351270127E+02  0.51100000000E-03 0.  1.
        -12    1    3    3    0    0  0.49036844474E+01  0.20567157419E+02 -0.27823302293E+02  0.34945532417E+02  0.00000000000E+00 0.  1.
</event>
<event>
 7    1  0.2653124E-010  0.4778729E+02  0.7816164E-02  0.1312668E+00
        -11   -1    0    0    0    0  0.00000000000E+00  0.00000000000E+00  0.45593999997E+02  0.45594000000E+02  0.51100000000E-03 0.  1.
         11   -1    0    0    0    0 -0.00000000000E+00 -0.00000000000E+00 -0.45593999997E+02  0.45594000000E+02  0.51100000000E-03 0. -1.
    9900012    2    1    2    0    0  0.27583220330E+02 -0.14333720101E+02  0.30287493431E+02  0.47787287632E+02  0.20000075631E+02 0.  0.
         12    1    1    2    0    0 -0.27583220330E+02  0.14333720101E+02 -0.30287493431E+02  0.43400712368E+02  0.00000000000E+00 0. -1.
         11    1    3    3    0    0 -0.12234286565E+01 -0.10265128399E+01  0.24329042643E+01  0.29102456440E+01  0.51100000000E-03 0. -1.
        -11    1    3    3    0    0  0.35017449173E+01  0.26149936035E+01  0.58165785458E+00  0.44089380959E+01  0.51100000000E-03 0.  1.
        -12    1    3    3    0    0  0.25304904069E+02 -0.15922200864E+02  0.27272931312E+02  0.40468103892E+02  0.00000000000E+00 0.  1.
</event>
<event>
 7    1  0.2653124E-010  0.4778727E+02  0.7816164E-02  0.1312668E+00
        -11   -1    0    0    0    0  0.00000000000E+00  0.00000000000E+00  0.45593999997E+02  0.45594000000E+02  0.51100000000E-03 0.  1.
         11   -1    0    0    0    0 -0.00000000000E+00 -0.00000000000E+00 -0.45593999997E+02  0.45594000000E+02  0.51100000000E-03 0. -1.
    9900012    2    1    2    0    0  0.36688566202E+02  0.67076465820E+01  0.22194137029E+02  0.47787272690E+02  0.20000007502E+02 0.  0.
         12    1    1    2    0    0 -0.36688566202E+02 -0.67076465820E+01 -0.22194137029E+02  0.43400727310E+02  0.00000000000E+00 0. -1.
         11    1    3    3    0    0  0.38511263211E+01  0.25128596131E+01  0.29508994514E+01  0.54638306351E+01  0.51100000000E-03 0.  1.
        -11    1    3    3    0    0  0.29611283046E+02 -0.30013089398E+01  0.16055252799E+02  0.33817260115E+02  0.51100000000E-03 0. -1.
         12    1    3    3    0    0  0.32261568348E+01  0.71960959087E+01  0.31879847781E+01  0.85061819399E+01  0.00000000000E+00 0. -1.
</event>
<event>
 7    1  0.2653124E-010  0.4778727E+02  0.7816164E-02  0.1312668E+00
        -11   -1    0    0    0    0  0.00000000000E+00  0.00000000000E+00  0.45593999997E+02  0.45594000000E+02  0.51100000000E-03 0.  1.
         11   -1    0    0    0    0 -0.00000000000E+00 -0.00000000000E+00 -0.45593999997E+02  0.45594000000E+02  0.51100000000E-03 0. -1.
    9900012    2    1    2    0    0  0.15486936142E+02  0.40023553360E+02 -0.64725007473E+01  0.47787270968E+02  0.19999999651E+02 0.  0.
         12    1    1    2    0    0 -0.15486936142E+02 -0.40023553360E+02  0.64725007473E+01  0.43400729032E+02  0.00000000000E+00 0. -1.
         11    1    3    3    0    0  0.70505444919E+01  0.15767509517E+02 -0.11782329417E+02  0.20908080274E+02  0.51100000000E-03 0. -1.
        -11    1    3    3    0    0 -0.81545354896E+00  0.34626259585E+01  0.25968873183E+00  0.35668167205E+01  0.51100000000E-03 0.  1.
        -12    1    3    3    0    0  0.92518451986E+01  0.20793417884E+02  0.50501399376E+01  0.23312373973E+02  0.00000000000E+00 0.  1.
</event>
<event>
 7    1  0.2653124E-010  0.4778727E+02  0.7816164E-02  0.1312668E+00
        -11   -1    0    0    0    0  0.00000000000E+00  0.00000000000E+00  0.45593999997E+02  0.45594000000E+02  0.51100000000E-03 0.  1.
         11   -1    0    0    0    0 -0.00000000000E+00 -0.00000000000E+00 -0.45593999997E+02  0.45594000000E+02  0.51100000000E-03 0. -1.
    9900012    2    1    2    0    0  0.28113413655E+02 -0.30911147396E+02  0.11737133591E+02  0.47787269988E+02  0.19999995182E+02 0.  0.
         12    1    1    2    0    0 -0.28113413655E+02  0.30911147396E+02 -0.11737133591E+02  0.43400730012E+02  0.00000000000E+00 0. -1.
         11    1    3    3    0    0 -0.88437747603E+00 -0.18957588616E+01  0.53382140490E+00  0.21589327769E+01  0.51100000000E-03 0. -1.
        -11    1    3    3    0    0  0.12055218582E+01 -0.32120595372E+01 -0.35489748904E+01  0.49361758939E+01  0.51100000000E-03 0.  1.
        -12    1    3    3    0    0  0.27792269273E+02 -0.25803328997E+02  0.14752287076E+02  0.40692161317E+02  0.00000000000E+00 0.  1.
</event>
<event>
 7    1  0.3327670E-010  0.4778727E+02  0.7816164E-02  0.1312668E+00
        -11   -1    0    0    0    0  0.00000000000E+00  0.00000000000E+00  0.45593999997E+02  0.45594000000E+02  0.51100000000E-03 0.  1.
         11   -1    0    0    0    0 -0.00000000000E+00 -0.00000000000E+00 -0.45593999997E+02  0.45594000000E+02  0.51100000000E-03 0. -1.
    9900012    2    1    2    0    0 -0.95648027956E+01 -0.23925360379E+02  0.34924415887E+02  0.47787272508E+02  0.20000006674E+02 0.  0.
         12    1    1    2    0    0  0.95648027956E+01  0.23925360379E+02 -0.34924415887E+02  0.43400727492E+02  0.00000000000E+00 0. -1.
         11    1    3    3    0    0 -0.37628277940E+01 -0.14462237920E+02  0.11177859196E+02  0.18661718440E+02  0.51100000000E-03 0. -1.
        -11    1    3    3    0    0 -0.50053390452E+01 -0.12603965163E+02  0.20102657327E+02  0.24249333777E+02  0.51100000000E-03 0.  1.
         12    1    3    3    0    0 -0.79663595636E+00  0.31408427051E+01  0.36438993643E+01  0.48762202906E+01  0.00000000000E+00 0. -1.
</event>
<event>
 7    1  0.2653124E-010  0.4778728E+02  0.7816164E-02  0.1312668E+00
        -11   -1    0    0    0    0  0.00000000000E+00  0.00000000000E+00  0.45593999997E+02  0.45594000000E+02  0.51100000000E-03 0.  1.
         11   -1    0    0    0    0 -0.00000000000E+00 -0.00000000000E+00 -0.45593999997E+02  0.45594000000E+02  0.51100000000E-03 0. -1.
    9900012    2    1    2    0    0 -0.85681902962E+01  0.23350823902E+02 -0.35566106861E+02  0.47787276283E+02  0.20000023886E+02 0.  0.
         12    1    1    2    0    0  0.85681902962E+01 -0.23350823902E+02  0.35566106861E+02  0.43400723717E+02  0.00000000000E+00 0. -1.
         11    1    3    3    0    0 -0.22666694385E+01 -0.32884836423E+01 -0.41570193346E+01  0.57647831718E+01  0.51100000000E-03 0. -1.
        -11    1    3    3    0    0 -0.19068974800E+01  0.18632800497E+02 -0.19870772493E+02  0.27306869321E+02  0.51100000000E-03 0.  1.
         12    1    3    3    0    0 -0.43946233777E+01  0.80065070473E+01 -0.11538315034E+02  0.14715623791E+02  0.00000000000E+00 0. -1.
</event>
<event>
 7    1  0.2653124E-010  0.4778726E+02  0.7816164E-02  0.1312668E+00
        -11   -1    0    0    0    0  0.00000000000E+00  0.00000000000E+00  0.45593999997E+02  0.45594000000E+02  0.51100000000E-03 0. -1.
         11   -1    0    0    0    0 -0.00000000000E+00 -0.00000000000E+00 -0.45593999997E+02  0.45594000000E+02  0.51100000000E-03 0.  1.
    9900012    2    1    2    0    0 -0.18951079464E+02 -0.38232918596E+02 -0.79198939083E+01  0.47787260413E+02  0.19999951527E+02 0.  0.
         12    1    1    2    0    0  0.18951079464E+02  0.38232918596E+02  0.79198939083E+01  0.43400739587E+02  0.00000000000E+00 0. -1.
         11    1    3    3    0    0 -0.34262821956E+01 -0.65921913633E+01 -0.65704890358E+01  0.99180503671E+01  0.51100000000E-03 0. -1.
        -11    1    3    3    0    0 -0.54157629468E+01 -0.21778069583E+02 -0.55824645318E+01  0.23125282994E+02  0.51100000000E-03 0.  1.
        -12    1    3    3    0    0 -0.10109034321E+02 -0.98626576492E+01  0.42330596593E+01  0.14743927051E+02  0.00000000000E+00 0.  1.
</event>
<event>
 7    1  0.2653124E-010  0.4778726E+02  0.7816164E-02  0.1312668E+00
        -11   -1    0    0    0    0  0.00000000000E+00  0.00000000000E+00  0.45593999997E+02  0.45594000000E+02  0.51100000000E-03 0.  1.
         11   -1    0    0    0    0 -0.00000000000E+00 -0.00000000000E+00 -0.45593999997E+02  0.45594000000E+02  0.51100000000E-03 0. -1.
    9900012    2    1    2    0    0  0.42882699823E+02  0.13366379021E+00  0.66843605289E+01  0.47787257083E+02  0.19999936343E+02 0.  0.
         12    1    1    2    0    0 -0.42882699823E+02 -0.13366379021E+00 -0.66843605289E+01  0.43400742917E+02  0.00000000000E+00 0. -1.
         11    1    3    3    0    0  0.15621888858E+02 -0.59011684692E+01  0.30275213930E+01  0.16971537551E+02  0.51100000000E-03 0. -1.
        -11    1    3    3    0    0  0.88415285539E+01 -0.35704168257E+01 -0.80325199716E+00  0.95689977276E+01  0.51100000000E-03 0.  1.
         12    1    3    3    0    0  0.18419282410E+02  0.96052490851E+01  0.44600911331E+01  0.21246721804E+02  0.00000000000E+00 0. -1.
</event>
<event>
 7    1  0.2653124E-010  0.4778727E+02  0.7816164E-02  0.1312668E+00
        -11   -1    0    0    0    0  0.00000000000E+00  0.00000000000E+00  0.45593999997E+02  0.45594000000E+02  0.51100000000E-03 0.  1.
         11   -1    0    0    0    0 -0.00000000000E+00 -0.00000000000E+00 -0.45593999997E+02  0.45594000000E+02  0.51100000000E-03 0. -1.
    9900012    2    1    2    0    0 -0.40465345053E+02  0.15678869585E+02  0.59328577544E+00  0.47787273166E+02  0.20000009672E+02 0.  0.
         12    1    1    2    0    0  0.40465345053E+02 -0.15678869585E+02 -0.59328577544E+00  0.43400726834E+02  0.00000000000E+00 0. -1.
         11    1    3    3    0    0 -0.69270752245E+01  0.74337103993E+01  0.22262855472E+01  0.10401959867E+02  0.51100000000E-03 0. -1.
        -11    1    3    3    0    0 -0.91566532331E+01  0.56066398739E+01  0.51964094995E+01  0.11928175932E+02  0.51100000000E-03 0.  1.
        -12    1    3    3    0    0 -0.24381616595E+02  0.26385193122E+01 -0.68294092713E+01  0.25457137368E+02  0.00000000000E+00 0.  1.
</event>
<event>
 7    1  0.2653124E-010  0.4778727E+02  0.7816164E-02  0.1312668E+00
        -11   -1    0    0    0    0  0.00000000000E+00  0.00000000000E+00  0.45593999997E+02  0.45594000000E+02  0.51100000000E-03 0.  1.
         11   -1    0    0    0    0 -0.00000000000E+00 -0.00000000000E+00 -0.45593999997E+02  0.45594000000E+02  0.51100000000E-03 0. -1.
    9900012    2    1    2    0    0 -0.66508597068E+01  0.24735401330E+01  0.42816714989E+02  0.47787269383E+02  0.19999992427E+02 0.  0.
         12    1    1    2    0    0  0.66508597068E+01 -0.24735401330E+01 -0.42816714989E+02  0.43400730617E+02  0.00000000000E+00 0. -1.
         11    1    3    3    0    0 -0.32706503817E+01  0.33383193033E+01  0.36585942405E+01  0.59352204482E+01  0.51100000000E-03 0. -1.
        -11    1    3    3    0    0 -0.87777137018E+01 -0.36826241812E+00  0.29459095377E+02  0.30741212984E+02  0.51100000000E-03 0.  1.
         12    1    3    3    0    0  0.53975043767E+01 -0.49651675220E+00  0.96990253710E+01  0.11110835951E+02  0.00000000000E+00 0. -1.
</event>
<event>
 7    1  0.2653124E-010  0.4778727E+02  0.7816164E-02  0.1312668E+00
        -11   -1    0    0    0    0  0.00000000000E+00  0.00000000000E+00  0.45593999997E+02  0.45594000000E+02  0.51100000000E-03 0. -1.
         11   -1    0    0    0    0 -0.00000000000E+00 -0.00000000000E+00 -0.45593999997E+02  0.45594000000E+02  0.51100000000E-03 0.  1.
    9900012    2    1    2    0    0  0.18386731229E+02 -0.39299485232E+02 -0.10496862540E+01  0.47787271135E+02  0.20000000415E+02 0.  0.
         12    1    1    2    0    0 -0.18386731229E+02  0.39299485232E+02  0.10496862540E+01  0.43400728865E+02  0.00000000000E+00 0. -1.
         11    1    3    3    0    0  0.34876653563E-01 -0.44469634465E+01  0.34925583622E+00  0.44607936711E+01  0.51100000000E-03 0. -1.
        -11    1    3    3    0    0  0.20845453020E+02 -0.30091958323E+02  0.24922302029E+01  0.36691553237E+02  0.51100000000E-03 0.  1.
        -12    1    3    3    0    0 -0.24935984449E+01 -0.47605634623E+01 -0.38911722932E+01  0.66349242270E+01  0.00000000000E+00 0.  1.
</event>
<event>
 7    1  0.2653124E-010  0.4778728E+02  0.7816164E-02  0.1312668E+00
        -11   -1    0    0    0    0  0.00000000000E+00  0.00000000000E+00  0.45593999997E+02  0.45594000000E+02  0.51100000000E-03 0.  1.
         11   -1    0    0    0    0 -0.00000000000E+00 -0.00000000000E+00 -0.45593999997E+02  0.45594000000E+02  0.51100000000E-03 0. -1.
    9900012    2    1    2    0    0 -0.18045762031E+02  0.36434707342E+02  0.15181747525E+02  0.47787275533E+02  0.20000020464E+02 0.  0.
         12    1    1    2    0    0  0.18045762031E+02 -0.36434707342E+02 -0.15181747525E+02  0.43400724467E+02  0.00000000000E+00 0. -1.
         11    1    3    3    0    0 -0.13011360309E+01  0.60146352698E+01 -0.25481366114E+01  0.66604649125E+01  0.51100000000E-03 0. -1.
        -11    1    3    3    0    0 -0.12964844616E+02  0.22338583858E+02  0.62247496679E+01  0.26567781867E+02  0.51100000000E-03 0.  1.
         12    1    3    3    0    0 -0.37797813846E+01  0.80814882145E+01  0.11505134469E+02  0.14559028753E+02  0.00000000000E+00 0. -1.
</event>
<event>
 7    1  0.2653124E-010  0.4778728E+02  0.7816164E-02  0.1312668E+00
        -11   -1    0    0    0    0  0.00000000000E+00  0.00000000000E+00  0.45593999997E+02  0.45594000000E+02  0.51100000000E-03 0.  1.
         11   -1    0    0    0    0 -0.00000000000E+00 -0.00000000000E+00 -0.45593999997E+02  0.45594000000E+02  0.51100000000E-03 0. -1.
    9900012    2    1    2    0    0  0.15466658190E+02  0.32095664983E+02  0.24784543784E+02  0.47787276079E+02  0.20000022956E+02 0.  0.
         12    1    1    2    0    0 -0.15466658190E+02 -0.32095664983E+02 -0.24784543784E+02  0.43400723921E+02  0.00000000000E+00 0. -1.
         11    1    3    3    0    0 -0.37792683821E+00 -0.13488749310E+01  0.82593610727E+00  0.16261804908E+01  0.51100000000E-03 0. -1.
        -11    1    3    3    0    0 -0.11006101479E+01  0.12323795364E+02  0.71504091089E+01  0.14290403268E+02  0.51100000000E-03 0.  1.
        -12    1    3    3    0    0  0.16945195176E+02  0.21120744551E+02  0.16808198567E+02  0.31870692321E+02  0.00000000000E+00 0.  1.
</event>
<event>
 7    1  0.2653124E-010  0.4778727E+02  0.7816164E-02  0.1312668E+00
        -11   -1    0    0    0    0  0.00000000000E+00  0.00000000000E+00  0.45593999997E+02  0.45594000000E+02  0.51100000000E-03 0. -1.
         11   -1    0    0    0    0 -0.00000000000E+00 -0.00000000000E+00 -0.45593999997E+02  0.45594000000E+02  0.51100000000E-03 0.  1.
    9900012    2    1    2    0    0 -0.13481235639E+02  0.34793918401E+02 -0.22164449363E+02  0.47787270886E+02  0.19999999280E+02 0.  0.
         12    1    1    2    0    0  0.13481235639E+02 -0.34793918401E+02  0.22164449363E+02  0.43400729114E+02  0.00000000000E+00 0. -1.
         11    1    3    3    0    0 -0.57005249159E+01  0.43803566703E+01 -0.29554868449E+01  0.77729281244E+01  0.51100000000E-03 0. -1.
        -11    1    3    3    0    0 -0.68809142144E+01  0.49142215733E+01 -0.94907475994E+01  0.12711052055E+02  0.51100000000E-03 0.  1.
         12    1    3    3    0    0 -0.89979650827E+00  0.25499340157E+02 -0.97182149189E+01  0.27303290707E+02  0.00000000000E+00 0. -1.
</event>
<event>
 7    1  0.2653124E-010  0.4778727E+02  0.7816164E-02  0.1312668E+00
        -11   -1    0    0    0    0  0.00000000000E+00  0.00000000000E+00  0.45593999997E+02  0.45594000000E+02  0.51100000000E-03 0.  1.
         11   -1    0    0    0    0 -0.00000000000E+00 -0.00000000000E+00 -0.45593999997E+02  0.45594000000E+02  0.51100000000E-03 0. -1.
    9900012    2    1    2    0    0 -0.25841728736E+02  0.34302912505E+02  0.62560608721E+01  0.47787273647E+02  0.20000011864E+02 0.  0.
         12    1    1    2    0    0  0.25841728736E+02 -0.34302912505E+02 -0.62560608721E+01  0.43400726353E+02  0.00000000000E+00 0. -1.
         11    1    3    3    0    0 -0.25249962047E+01  0.13642841083E+02 -0.23621635305E+01  0.14074179744E+02  0.51100000000E-03 0. -1.
        -11    1    3    3    0    0 -0.55952761561E+00  0.96332476997E+00  0.28607044535E+01  0.30699667744E+01  0.51100000000E-03 0.  1.
         12    1    3    3    0    0 -0.22757204916E+02  0.19696746652E+02  0.57575199492E+01  0.30643127128E+02  0.00000000000E+00 0. -1.
</event>
<event>
 7    1  0.2653124E-010  0.4778727E+02  0.7816164E-02  0.1312668E+00
        -11   -1    0    0    0    0  0.00000000000E+00  0.00000000000E+00  0.45593999997E+02  0.45594000000E+02  0.51100000000E-03 0. -1.
         11   -1    0    0    0    0 -0.00000000000E+00 -0.00000000000E+00 -0.45593999997E+02  0.45594000000E+02  0.51100000000E-03 0.  1.
    9900012    2    1    2    0    0 -0.24255891748E+02 -0.38452460913E+01 -0.35783922101E+02  0.47787270940E+02  0.19999999523E+02 0.  0.
         12    1    1    2    0    0  0.24255891748E+02  0.38452460913E+01  0.35783922101E+02  0.43400729060E+02  0.00000000000E+00 0. -1.
         11    1    3    3    0    0 -0.48725530680E+01 -0.79529827466E+01 -0.90425161018E+01  0.12990719983E+02  0.51100000000E-03 0. -1.
        -11    1    3    3    0    0 -0.22197223854E+01 -0.92338160412E+00 -0.10045309660E+02  0.10328990632E+02  0.51100000000E-03 0.  1.
        -12    1    3    3    0    0 -0.17163616294E+02  0.50311182594E+01 -0.16696096340E+02  0.24467560325E+02  0.00000000000E+00 0.  1.
</event>
<event>
 7    1  0.2653124E-010  0.4778726E+02  0.7816164E-02  0.1312668E+00
        -11   -1    0    0    0    0  0.00000000000E+00  0.00000000000E+00  0.45593999997E+02  0.45594000000E+02  0.51100000000E-03 0. -1.
         11   -1    0    0    0    0 -0.00000000000E+00 -0.00000000000E+00 -0.45593999997E+02  0.45594000000E+02  0.51100000000E-03 0.  1.
    9900012    2    1    2    0    0 -0.40460205251E+02 -0.14740060320E+02 -0.54153711324E+01  0.47787264618E+02  0.19999970698E+02 0.  0.
         12    1    1    2    0    0  0.40460205251E+02  0.14740060320E+02  0.54153711324E+01  0.43400735382E+02  0.00000000000E+00 0. -1.
         11    1    3    3    0    0 -0.22581229757E+02 -0.66658641102E+01 -0.24099310385E+01  0.23667561124E+02  0.51100000000E-03 0. -1.
        -11    1    3    3    0    0 -0.18473768761E+02 -0.97835645363E+01 -0.35161520724E+00  0.20907460410E+02  0.51100000000E-03 0.  1.
         12    1    3    3    0    0  0.59479326637E+00  0.17093683262E+01 -0.26538248867E+01  0.32122430844E+01  0.00000000000E+00 0. -1.
</event>
<event>
 7    1  0.2653124E-010  0.4778726E+02  0.7816164E-02  0.1312668E+00
        -11   -1    0    0    0    0  0.00000000000E+00  0.00000000000E+00  0.45593999997E+02  0.45594000000E+02  0.51100000000E-03 0.  1.
         11   -1    0    0    0    0 -0.00000000000E+00 -0.00000000000E+00 -0.45593999997E+02  0.45594000000E+02  0.51100000000E-03 0. -1.
    9900012    2    1    2    0    0  0.32925244596E+02  0.21426212281E+02  0.18451818588E+02  0.47787263674E+02  0.19999966395E+02 0.  0.
         12    1    1    2    0    0 -0.32925244596E+02 -0.21426212281E+02 -0.18451818588E+02  0.43400736326E+02  0.00000000000E+00 0. -1.
         11    1    3    3    0    0  0.12091585392E+02  0.99008512939E+01  0.19068469554E+01  0.15743867352E+02  0.51100000000E-03 0. -1.
        -11    1    3    3    0    0  0.14074973613E+02  0.15058334754E+01  0.41955964918E+01  0.14763991562E+02  0.51100000000E-03 0.  1.
        -12    1    3    3    0    0  0.67586855914E+01  0.10019527512E+02  0.12349375141E+02  0.17279404760E+02  0.00000000000E+00 0.  1.
</event>
<event>
 7    1  0.2653124E-010  0.4778727E+02  0.7816164E-02  0.1312668E+00
        -11   -1    0    0    0    0  0.00000000000E+00  0.00000000000E+00  0.45593999997E+02  0.45594000000E+02  0.51100000000E-03 0. -1.
         11   -1    0    0    0    0 -0.00000000000E+00 -0.00000000000E+00 -0.45593999997E+02  0.45594000000E+02  0.51100000000E-03 0.  1.
    9900012    2    1    2    0    0  0.25247141196E+02 -0.29752194351E+02 -0.19000327973E+02  0.47787266477E+02  0.19999979175E+02 0.  0.
         12    1    1    2    0    0 -0.25247141196E+02  0.29752194351E+02  0.19000327973E+02  0.43400733523E+02  0.00000000000E+00 0. -1.
         11    1    3    3    0    0  0.30287183438E+01 -0.87697021374E+01  0.29724053114E+01  0.97424844871E+01  0.51100000000E-03 0. -1.
        -11    1    3    3    0    0 -0.29804133071E+00 -0.38195005396E+00 -0.92455509011E-01  0.49321674829E+00  0.51100000000E-03 0.  1.
        -12    1    3    3    0    0  0.22516464182E+02 -0.20600542160E+02 -0.21880277776E+02  0.37551565242E+02  0.00000000000E+00 0.  1.
</event>
<event>
 7    1  0.2653124E-010  0.4778727E+02  0.7816164E-02  0.1312668E+00
        -11   -1    0    0    0    0  0.00000000000E+00  0.00000000000E+00  0.45593999997E+02  0.45594000000E+02  0.51100000000E-03 0.  1.
         11   -1    0    0    0    0 -0.00000000000E+00 -0.00000000000E+00 -0.45593999997E+02  0.45594000000E+02  0.51100000000E-03 0. -1.
    9900012    2    1    2    0    0 -0.85542347139E+00 -0.41009077721E+02  0.14182632578E+02  0.47787271070E+02  0.20000000115E+02 0.  0.
         12    1    1    2    0    0  0.85542347139E+00  0.41009077721E+02 -0.14182632578E+02  0.43400728930E+02  0.00000000000E+00 0. -1.
         11    1    3    3    0    0  0.91415093758E+00 -0.40029389395E+01 -0.32457201313E+00  0.41188031445E+01  0.51100000000E-03 0. -1.
        -11    1    3    3    0    0 -0.19642364068E+01 -0.37737334423E+02  0.99876771871E+01  0.39086037531E+02  0.51100000000E-03 0.  1.
         12    1    3    3    0    0  0.19466199782E+00  0.73119564189E+00  0.45195274041E+01  0.45824303940E+01  0.00000000000E+00 0. -1.
</event>
<event>
 7    1  0.2653124E-010  0.4778727E+02  0.7816164E-02  0.1312668E+00
        -11   -1    0    0    0    0  0.00000000000E+00  0.00000000000E+00  0.45593999997E+02  0.45594000000E+02  0.51100000000E-03 0.  1.
         11   -1    0    0    0    0 -0.00000000000E+00 -0.00000000000E+00 -0.45593999997E+02  0.45594000000E+02  0.51100000000E-03 0. -1.
    9900012    2    1    2    0    0 -0.16596051331E+01 -0.29515717708E+02  0.31775643480E+02  0.47787269596E+02  0.19999993398E+02 0.  0.
         12    1    1    2    0    0  0.16596051331E+01  0.29515717708E+02 -0.31775643480E+02  0.43400730404E+02  0.00000000000E+00 0. -1.
         11    1    3    3    0    0  0.37346611669E+01 -0.63002723900E+01  0.34710831232E+01  0.81049086688E+01  0.51100000000E-03 0. -1.
        -11    1    3    3    0    0  0.23941851420E+01 -0.16691346445E+02  0.22024226079E+02  0.27738055146E+02  0.51100000000E-03 0.  1.
        -12    1    3    3    0    0 -0.77884514421E+01 -0.65240988733E+01  0.62803342771E+01  0.11944305782E+02  0.00000000000E+00 0.  1.
</event>
<event>
 7    1  0.2653124E-010  0.4778727E+02  0.7816164E-02  0.1312668E+00
        -11   -1    0    0    0    0  0.00000000000E+00  0.00000000000E+00  0.45593999997E+02  0.45594000000E+02  0.51100000000E-03 0.  1.
         11   -1    0    0    0    0 -0.00000000000E+00 -0.00000000000E+00 -0.45593999997E+02  0.45594000000E+02  0.51100000000E-03 0. -1.
    9900012    2    1    2    0    0 -0.80073723626E+00  0.19084364801E+02  0.38971384581E+02  0.47787274474E+02  0.20000015639E+02 0.  0.
         12    1    1    2    0    0  0.80073723626E+00 -0.19084364801E+02 -0.38971384581E+02  0.43400725526E+02  0.00000000000E+00 0. -1.
         11    1    3    3    0    0  0.14985682746E+00  0.52199152910E+01  0.92557623609E+01  0.10627281395E+02  0.51100000000E-03 0. -1.
        -11    1    3    3    0    0  0.82057607198E+01  0.68764486543E+01  0.15967642681E+02  0.19224611001E+02  0.51100000000E-03 0.  1.
         12    1    3    3    0    0 -0.91563547835E+01  0.69880008562E+01  0.13747979539E+02  0.17935382078E+02  0.00000000000E+00 0. -1.
</event>
<event>
 7    1  0.2653124E-010  0.4778727E+02  0.7816164E-02  0.1312668E+00
        -11   -1    0    0    0    0  0.00000000000E+00  0.00000000000E+00  0.45593999997E+02  0.45594000000E+02  0.51100000000E-03 0. -1.
         11   -1    0    0    0    0 -0.00000000000E+00 -0.00000000000E+00 -0.45593999997E+02  0.45594000000E+02  0.51100000000E-03 0.  1.
    9900012    2    1    2    0    0  0.10441052605E+02 -0.41543664566E+02 -0.69808001359E+01  0.47787271716E+02  0.20000003062E+02 0.  0.
         12    1    1    2    0    0 -0.10441052605E+02  0.41543664566E+02  0.69808001359E+01  0.43400728284E+02  0.00000000000E+00 0. -1.
         11    1    3    3    0    0  0.78442820442E+00 -0.10873099295E+02 -0.75301157037E+01  0.13249236154E+02  0.51100000000E-03 0. -1.
        -11    1    3    3    0    0 -0.27955592608E+01 -0.32178958183E+01 -0.90728156909E+00  0.43581148660E+01  0.51100000000E-03 0.  1.
        -12    1    3    3    0    0  0.12452183662E+02 -0.27452669453E+02  0.14565971369E+01  0.30179920696E+02  0.00000000000E+00 0.  1.
</event>
<event>
 7    1  0.2653124E-010  0.4778727E+02  0.7816164E-02  0.1312668E+00
        -11   -1    0    0    0    0  0.00000000000E+00  0.00000000000E+00  0.45593999997E+02  0.45594000000E+02  0.51100000000E-03 0. -1.
         11   -1    0    0    0    0 -0.00000000000E+00 -0.00000000000E+00 -0.45593999997E+02  0.45594000000E+02  0.51100000000E-03 0.  1.
    9900012    2    1    2    0    0 -0.21507414822E+02 -0.30401716510E+02 -0.22288788118E+02  0.47787270342E+02  0.19999996798E+02 0.  0.
         12    1    1    2    0    0  0.21507414822E+02  0.30401716510E+02  0.22288788118E+02  0.43400729658E+02  0.00000000000E+00 0. -1.
         11    1    3    3    0    0 -0.71562773748E+01 -0.64458020695E+00 -0.18622791627E+01  0.74226594593E+01  0.51100000000E-03 0. -1.
        -11    1    3    3    0    0 -0.79898582085E+01 -0.92828471814E+01 -0.26909746762E+01  0.12539953387E+02  0.51100000000E-03 0.  1.
         12    1    3    3    0    0 -0.63612792383E+01 -0.20474289122E+02 -0.17735534279E+02  0.27824657496E+02  0.00000000000E+00 0. -1.
</event>
<event>
 7    1  0.2653124E-010  0.4778727E+02  0.7816164E-02  0.1312668E+00
        -11   -1    0    0    0    0  0.00000000000E+00  0.00000000000E+00  0.45593999997E+02  0.45594000000E+02  0.51100000000E-03 0. -1.
         11   -1    0    0    0    0 -0.00000000000E+00 -0.00000000000E+00 -0.45593999997E+02  0.45594000000E+02  0.51100000000E-03 0.  1.
    9900012    2    1    2    0    0 -0.38700500900E+02  0.19406959499E+02 -0.30437559337E+01  0.47787270777E+02  0.19999998782E+02 0.  0.
         12    1    1    2    0    0  0.38700500900E+02 -0.19406959499E+02  0.30437559337E+01  0.43400729223E+02  0.00000000000E+00 0. -1.
         11    1    3    3    0    0 -0.14399536081E+01 -0.14541184383E+01 -0.12665377394E+01  0.24066667681E+01  0.51100000000E-03 0. -1.
        -11    1    3    3    0    0 -0.11716748386E+02 -0.19105008450E+00  0.25657028243E+01  0.11995896136E+02  0.51100000000E-03 0.  1.
         12    1    3    3    0    0 -0.25543798906E+02  0.21052128022E+02 -0.43429210186E+01  0.33384707873E+02  0.00000000000E+00 0. -1.
</event>
<event>
 7    1  0.2653124E-010  0.4778727E+02  0.7816164E-02  0.1312668E+00
        -11   -1    0    0    0    0  0.00000000000E+00  0.00000000000E+00  0.45593999997E+02  0.45594000000E+02  0.51100000000E-03 0.  1.
         11   -1    0    0    0    0 -0.00000000000E+00 -0.00000000000E+00 -0.45593999997E+02  0.45594000000E+02  0.51100000000E-03 0. -1.
    9900012    2    1    2    0    0 -0.37636744511E+02 -0.18229764428E+02  0.11609247969E+02  0.47787268590E+02  0.19999988810E+02 0.  0.
         12    1    1    2    0    0  0.37636744511E+02  0.18229764428E+02 -0.11609247969E+02  0.43400731410E+02  0.00000000000E+00 0. -1.
         11    1    3    3    0    0 -0.37981697619E+01 -0.44109887707E+01 -0.50638496121E+00  0.58428881100E+01  0.51100000000E-03 0. -1.
        -11    1    3    3    0    0 -0.88759358302E+01  0.15800423642E+01  0.85027580309E+01  0.12392564913E+02  0.51100000000E-03 0.  1.
        -12    1    3    3    0    0 -0.24962638919E+02 -0.15398818022E+02  0.36128748988E+01  0.29551815567E+02  0.00000000000E+00 0.  1.
</event>
<event>
 7    1  0.2653124E-010  0.4778725E+02  0.7816164E-02  0.1312668E+00
        -11   -1    0    0    0    0  0.00000000000E+00  0.00000000000E+00  0.45593999997E+02  0.45594000000E+02  0.51100000000E-03 0. -1.
         11   -1    0    0    0    0 -0.00000000000E+00 -0.00000000000E+00 -0.45593999997E+02  0.45594000000E+02  0.51100000000E-03 0.  1.
    9900012    2    1    2    0    0 -0.31828767086E+01 -0.19315959384E+02 -0.38734841712E+02  0.47787251694E+02  0.19999911773E+02 0.  0.
         12    1    1    2    0    0  0.31828767086E+01  0.19315959384E+02  0.38734841712E+02  0.43400748306E+02  0.00000000000E+00 0. -1.
         11    1    3    3    0    0 -0.32166105344E+00 -0.11728872014E+02 -0.17832703666E+02  0.21346550655E+02  0.51100000000E-03 0.  1.
        -11    1    3    3    0    0 -0.77767021548E+01 -0.74268980766E+01 -0.10991667590E+02  0.15377017530E+02  0.51100000000E-03 0. -1.
         12    1    3    3    0    0  0.49154864997E+01 -0.16018929359E+00 -0.99104704551E+01  0.11063683509E+02  0.00000000000E+00 0. -1.
</event>
<event>
 7    1  0.2653124E-010  0.4778727E+02  0.7816164E-02  0.1312668E+00
        -11   -1    0    0    0    0  0.00000000000E+00  0.00000000000E+00  0.45593999997E+02  0.45594000000E+02  0.51100000000E-03 0.  1.
         11   -1    0    0    0    0 -0.00000000000E+00 -0.00000000000E+00 -0.45593999997E+02  0.45594000000E+02  0.51100000000E-03 0. -1.
    9900012    2    1    2    0    0 -0.32572306306E+01 -0.19588825075E+02  0.38591339535E+02  0.47787272975E+02  0.20000008803E+02 0.  0.
         12    1    1    2    0    0  0.32572306306E+01  0.19588825075E+02 -0.38591339535E+02  0.43400727025E+02  0.00000000000E+00 0. -1.
         11    1    3    3    0    0 -0.11868735679E+01 -0.60476510371E+01  0.31404087744E+01  0.69170022022E+01  0.51100000000E-03 0. -1.
        -11    1    3    3    0    0 -0.39727559431E+00 -0.16702596886E+02  0.30268200960E+02  0.34573090117E+02  0.51100000000E-03 0.  1.
        -12    1    3    3    0    0 -0.16730814684E+01  0.31614228484E+01  0.51827298003E+01  0.62971806556E+01  0.00000000000E+00 0.  1.
</event>
<event>
 7    1  0.2653124E-010  0.4778727E+02  0.7816164E-02  0.1312668E+00
        -11   -1    0    0    0    0  0.00000000000E+00  0.00000000000E+00  0.45593999997E+02  0.45594000000E+02  0.51100000000E-03 0.  1.
         11   -1    0    0    0    0 -0.00000000000E+00 -0.00000000000E+00 -0.45593999997E+02  0.45594000000E+02  0.51100000000E-03 0. -1.
    9900012    2    1    2    0    0  0.16779310666E+02  0.39958659656E+02  0.23202682145E+01  0.47787269677E+02  0.19999993767E+02 0.  0.
         12    1    1    2    0    0 -0.16779310666E+02 -0.39958659656E+02 -0.23202682145E+01  0.43400730323E+02  0.00000000000E+00 0. -1.
         11    1    3    3    0    0  0.81878528568E+01  0.53341906589E+01 -0.10435932135E+01  0.98276961413E+01  0.51100000000E-03 0.  1.
        -11    1    3    3    0    0  0.54876102902E+01  0.98332596405E+01  0.61315962929E+01  0.12821986399E+02  0.51100000000E-03 0. -1.
        -12    1    3    3    0    0  0.31038475188E+01  0.24791209357E+02 -0.27677348649E+01  0.25137587137E+02  0.00000000000E+00 0.  1.
</event>
<event>
 7    1  0.2653124E-010  0.4778728E+02  0.7816164E-02  0.1312668E+00
        -11   -1    0    0    0    0  0.00000000000E+00  0.00000000000E+00  0.45593999997E+02  0.45594000000E+02  0.51100000000E-03 0.  1.
         11   -1    0    0    0    0 -0.00000000000E+00 -0.00000000000E+00 -0.45593999997E+02  0.45594000000E+02  0.51100000000E-03 0. -1.
    9900012    2    1    2    0    0  0.39085621987E+00 -0.11453890817E+00  0.43398812097E+02  0.47787276744E+02  0.20000025986E+02 0.  0.
         12    1    1    2    0    0 -0.39085621987E+00  0.11453890817E+00 -0.43398812097E+02  0.43400723256E+02  0.00000000000E+00 0. -1.
         11    1    3    3    0    0  0.47080364030E+01  0.50215115740E+01  0.27004185947E+02  0.27867673820E+02  0.51100000000E-03 0. -1.
        -11    1    3    3    0    0  0.11977365987E+01  0.12345533016E+01  0.73895896074E+01  0.75871423897E+01  0.51100000000E-03 0.  1.
        -12    1    3    3    0    0 -0.55149167818E+01 -0.63706037837E+01  0.90050365426E+01  0.12332460534E+02  0.00000000000E+00 0.  1.
</event>
<event>
 7    1  0.2653124E-010  0.4778727E+02  0.7816164E-02  0.1312668E+00
        -11   -1    0    0    0    0  0.00000000000E+00  0.00000000000E+00  0.45593999997E+02  0.45594000000E+02  0.51100000000E-03 0. -1.
         11   -1    0    0    0    0 -0.00000000000E+00 -0.00000000000E+00 -0.45593999997E+02  0.45594000000E+02  0.51100000000E-03 0.  1.
    9900012    2    1    2    0    0 -0.36293905214E+02  0.13725137758E+02 -0.19442122885E+02  0.47787272996E+02  0.20000008899E+02 0.  0.
         12    1    1    2    0    0  0.36293905214E+02 -0.13725137758E+02  0.19442122885E+02  0.43400727004E+02  0.00000000000E+00 0. -1.
         11    1    3    3    0    0 -0.73479850217E+01  0.94185121294E+00 -0.17125311539E+01  0.76034683402E+01  0.51100000000E-03 0. -1.
        -11    1    3    3    0    0 -0.17626359740E+02 -0.15312022865E+01 -0.10359224970E+02  0.20502357922E+02  0.51100000000E-03 0.  1.
         12    1    3    3    0    0 -0.11319560453E+02  0.14314488832E+02 -0.73703667612E+01  0.19681446734E+02  0.00000000000E+00 0. -1.
</event>
<event>
 7    1  0.2653124E-010  0.4778727E+02  0.7816164E-02  0.1312668E+00
        -11   -1    0    0    0    0  0.00000000000E+00  0.00000000000E+00  0.45593999997E+02  0.45594000000E+02  0.51100000000E-03 0. -1.
         11   -1    0    0    0    0 -0.00000000000E+00 -0.00000000000E+00 -0.45593999997E+02  0.45594000000E+02  0.51100000000E-03 0.  1.
    9900012    2    1    2    0    0 -0.15742000610E+02  0.30240373373E+02 -0.26857628105E+02  0.47787274748E+02  0.20000016886E+02 0.  0.
         12    1    1    2    0    0  0.15742000610E+02 -0.30240373373E+02  0.26857628105E+02  0.43400725252E+02  0.00000000000E+00 0. -1.
         11    1    3    3    0    0 -0.77550154588E+01  0.26161176763E+01 -0.59529641459E+01  0.10120381359E+02  0.51100000000E-03 0. -1.
        -11    1    3    3    0    0  0.96021480560E+00  0.12416398470E+02 -0.36249082766E+01  0.12970309315E+02  0.51100000000E-03 0.  1.
         12    1    3    3    0    0 -0.89471999572E+01  0.15207857227E+02 -0.17279755683E+02  0.24696584075E+02  0.00000000000E+00 0. -1.
</event>
<event>
 7    1  0.2653124E-010  0.4778726E+02  0.7816164E-02  0.1312668E+00
        -11   -1    0    0    0    0  0.00000000000E+00  0.00000000000E+00  0.45593999997E+02  0.45594000000E+02  0.51100000000E-03 0.  1.
         11   -1    0    0    0    0 -0.00000000000E+00 -0.00000000000E+00 -0.45593999997E+02  0.45594000000E+02  0.51100000000E-03 0. -1.
    9900012    2    1    2    0    0 -0.25026490756E+02 -0.15963656207E+01  0.35422459185E+02  0.47787259943E+02  0.19999949385E+02 0.  0.
         12    1    1    2    0    0  0.25026490756E+02  0.15963656207E+01 -0.35422459185E+02  0.43400740057E+02  0.00000000000E+00 0. -1.
         11    1    3    3    0    0 -0.72108707514E+01 -0.11457249803E+01  0.17724117693E+02  0.19169081641E+02  0.51100000000E-03 0. -1.
        -11    1    3    3    0    0 -0.24047780897E+01 -0.33413910705E+01  0.10667620342E+02  0.11434420666E+02  0.51100000000E-03 0.  1.
         12    1    3    3    0    0 -0.15410841915E+02  0.28907504302E+01  0.70307211500E+01  0.17183757636E+02  0.00000000000E+00 0. -1.
</event>
<event>
 7    1  0.2653124E-010  0.4778727E+02  0.7816164E-02  0.1312668E+00
        -11   -1    0    0    0    0  0.00000000000E+00  0.00000000000E+00  0.45593999997E+02  0.45594000000E+02  0.51100000000E-03 0.  1.
         11   -1    0    0    0    0 -0.00000000000E+00 -0.00000000000E+00 -0.45593999997E+02  0.45594000000E+02  0.51100000000E-03 0. -1.
    9900012    2    1    2    0    0  0.24406426782E+02  0.35735477949E+02  0.33053254009E+01  0.47787271567E+02  0.20000002381E+02 0.  0.
         12    1    1    2    0    0 -0.24406426782E+02 -0.35735477949E+02 -0.33053254009E+01  0.43400728433E+02  0.00000000000E+00 0. -1.
         11    1    3    3    0    0  0.70414024475E+01  0.25177160056E+02  0.72288053729E+00  0.26153265445E+02  0.51100000000E-03 0. -1.
        -11    1    3    3    0    0 -0.48057706081E-01 -0.16100499570E+00  0.11213905742E+01  0.11339088291E+01  0.51100000000E-03 0.  1.
        -12    1    3    3    0    0  0.17413082041E+02  0.10719322889E+02  0.14610542894E+01  0.20500097292E+02  0.00000000000E+00 0.  1.
</event>
<event>
 7    1  0.2653124E-010  0.4778727E+02  0.7816164E-02  0.1312668E+00
        -11   -1    0    0    0    0  0.00000000000E+00  0.00000000000E+00  0.45593999997E+02  0.45594000000E+02  0.51100000000E-03 0.  1.
         11   -1    0    0    0    0 -0.00000000000E+00 -0.00000000000E+00 -0.45593999997E+02  0.45594000000E+02  0.51100000000E-03 0. -1.
    9900012    2    1    2    0    0  0.14937214765E+02  0.48043770269E+01  0.40465054960E+02  0.47787273089E+02  0.20000009321E+02 0.  0.
         12    1    1    2    0    0 -0.14937214765E+02 -0.48043770269E+01 -0.40465054960E+02  0.43400726911E+02  0.00000000000E+00 0. -1.
         11    1    3    3    0    0  0.85862287657E+01 -0.15609754433E+01  0.11741378137E+02  0.14629420001E+02  0.51100000000E-03 0. -1.
        -11    1    3    3    0    0  0.85159274111E+01  0.11867274452E+01  0.24961070959E+02  0.26400462219E+02  0.51100000000E-03 0.  1.
         12    1    3    3    0    0 -0.21649414120E+01  0.51786250250E+01  0.37626058640E+01  0.67573908689E+01  0.00000000000E+00 0. -1.
</event>
<event>
 7    1  0.2653124E-010  0.4778727E+02  0.7816164E-02  0.1312668E+00
        -11   -1    0    0    0    0  0.00000000000E+00  0.00000000000E+00  0.45593999997E+02  0.45594000000E+02  0.51100000000E-03 0.  1.
         11   -1    0    0    0    0 -0.00000000000E+00 -0.00000000000E+00 -0.45593999997E+02  0.45594000000E+02  0.51100000000E-03 0. -1.
    9900012    2    1    2    0    0 -0.41730098640E+01  0.40910353167E+02  0.13876319379E+02  0.47787271353E+02  0.20000001406E+02 0.  0.
         12    1    1    2    0    0  0.41730098640E+01 -0.40910353167E+02 -0.13876319379E+02  0.43400728647E+02  0.00000000000E+00 0. -1.
         11    1    3    3    0    0  0.43097261005E+01  0.92899859319E+01  0.73918903436E+00  0.10267617950E+02  0.51100000000E-03 0. -1.
        -11    1    3    3    0    0 -0.21038232779E+01  0.94877805397E+01 -0.20471837575E+01  0.99315161759E+01  0.51100000000E-03 0.  1.
         12    1    3    3    0    0 -0.63789126866E+01  0.22132586696E+02  0.15184314102E+02  0.27588137227E+02  0.00000000000E+00 0. -1.
</event>
<event>
 7    1  0.2653124E-010  0.4778727E+02  0.7816164E-02  0.1312668E+00
        -11   -1    0    0    0    0  0.00000000000E+00  0.00000000000E+00  0.45593999997E+02  0.45594000000E+02  0.51100000000E-03 0. -1.
         11   -1    0    0    0    0 -0.00000000000E+00 -0.00000000000E+00 -0.45593999997E+02  0.45594000000E+02  0.51100000000E-03 0.  1.
    9900012    2    1    2    0    0  0.15955885076E+02 -0.11917398303E+02 -0.38561749194E+02  0.47787272451E+02  0.20000006414E+02 0.  0.
         12    1    1    2    0    0 -0.15955885076E+02  0.11917398303E+02  0.38561749194E+02  0.43400727549E+02  0.00000000000E+00 0. -1.
         11    1    3    3    0    0  0.51269098247E+01 -0.91107850930E+01 -0.24378253670E+02  0.26525287211E+02  0.51100000000E-03 0. -1.
        -11    1    3    3    0    0  0.11199998761E+02 -0.53174665664E+01 -0.14024301566E+02  0.18718879710E+02  0.51100000000E-03 0.  1.
         12    1    3    3    0    0 -0.37102350954E+00  0.25108533560E+01 -0.15919395782E+00  0.25431055299E+01  0.00000000000E+00 0. -1.
</event>
<event>
 7    1  0.2653124E-010  0.4778727E+02  0.7816164E-02  0.1312668E+00
        -11   -1    0    0    0    0  0.00000000000E+00  0.00000000000E+00  0.45593999997E+02  0.45594000000E+02  0.51100000000E-03 0.  1.
         11   -1    0    0    0    0 -0.00000000000E+00 -0.00000000000E+00 -0.45593999997E+02  0.45594000000E+02  0.51100000000E-03 0. -1.
    9900012    2    1    2    0    0 -0.23508124599E+02 -0.36240706983E+02 -0.41955154322E+01  0.47787272880E+02  0.20000008369E+02 0.  0.
         12    1    1    2    0    0  0.23508124599E+02  0.36240706983E+02  0.41955154322E+01  0.43400727120E+02  0.00000000000E+00 0. -1.
         11    1    3    3    0    0  0.14667816628E+01 -0.18751501631E+01  0.13174480054E+01  0.27209017051E+01  0.51100000000E-03 0. -1.
        -11    1    3    3    0    0 -0.14038672732E+02 -0.11085677002E+02  0.26462066591E+01  0.18082560013E+02  0.51100000000E-03 0.  1.
         12    1    3    3    0    0 -0.10936233530E+02 -0.23279879818E+02 -0.81591700968E+01  0.26983811162E+02  0.00000000000E+00 0. -1.
</event>
<event>
 7    1  0.2653124E-010  0.4778727E+02  0.7816164E-02  0.1312668E+00
        -11   -1    0    0    0    0  0.00000000000E+00  0.00000000000E+00  0.45593999997E+02  0.45594000000E+02  0.51100000000E-03 0. -1.
         11   -1    0    0    0    0 -0.00000000000E+00 -0.00000000000E+00 -0.45593999997E+02  0.45594000000E+02  0.51100000000E-03 0.  1.
    9900012    2    1    2    0    0  0.45889626931E+00 -0.34507202022E+02 -0.26318547760E+02  0.47787268055E+02  0.19999986370E+02 0.  0.
         12    1    1    2    0    0 -0.45889626931E+00  0.34507202022E+02  0.26318547760E+02  0.43400731945E+02  0.00000000000E+00 0. -1.
         11    1    3    3    0    0  0.15580381469E+01 -0.14422331606E+01 -0.39307881518E-01  0.21234558454E+01  0.51100000000E-03 0.  1.
        -11    1    3    3    0    0 -0.21818134962E+01 -0.86225469556E+01  0.10810159525E+01  0.89597556822E+01  0.51100000000E-03 0. -1.
         12    1    3    3    0    0  0.10826716186E+01 -0.24442421906E+02 -0.27360255830E+02  0.36704056527E+02  0.00000000000E+00 0. -1.
</event>
<event>
 7    1  0.2653124E-010  0.4778727E+02  0.7816164E-02  0.1312668E+00
        -11   -1    0    0    0    0  0.00000000000E+00  0.00000000000E+00  0.45593999997E+02  0.45594000000E+02  0.51100000000E-03 0.  1.
         11   -1    0    0    0    0 -0.00000000000E+00 -0.00000000000E+00 -0.45593999997E+02  0.45594000000E+02  0.51100000000E-03 0. -1.
    9900012    2    1    2    0    0 -0.83949012120E+01 -0.40470564145E+02  0.13239424695E+02  0.47787270803E+02  0.19999998901E+02 0.  0.
         12    1    1    2    0    0  0.83949012120E+01  0.40470564145E+02 -0.13239424695E+02  0.43400729197E+02  0.00000000000E+00 0. -1.
         11    1    3    3    0    0 -0.11044991059E+01 -0.24373800805E+02  0.19564322734E+00  0.24399597548E+02  0.51100000000E-03 0. -1.
        -11    1    3    3    0    0 -0.25740468195E+01 -0.77544899210E+01  0.13706609775E+01  0.82847174207E+01  0.51100000000E-03 0.  1.
         12    1    3    3    0    0 -0.47163552867E+01 -0.83422734182E+01  0.11673120490E+02  0.15102955835E+02  0.00000000000E+00 0. -1.
</event>
<event>
 7    1  0.2653124E-010  0.4778727E+02  0.7816164E-02  0.1312668E+00
        -11   -1    0    0    0    0  0.00000000000E+00  0.00000000000E+00  0.45593999997E+02  0.45594000000E+02  0.51100000000E-03 0.  1.
         11   -1    0    0    0    0 -0.00000000000E+00 -0.00000000000E+00 -0.45593999997E+02  0.45594000000E+02  0.51100000000E-03 0. -1.
    9900012    2    1    2    0    0 -0.19048644981E+02 -0.57482036393E+01  0.38571110502E+02  0.47787270904E+02  0.19999999359E+02 0.  0.
         12    1    1    2    0    0  0.19048644981E+02  0.57482036393E+01 -0.38571110502E+02  0.43400729096E+02  0.00000000000E+00 0. -1.
         11    1    3    3    0    0 -0.11922659836E+01  0.10019662292E+01  0.18203170890E+01  0.23956187230E+01  0.51100000000E-03 0. -1.
        -11    1    3    3    0    0 -0.17315129551E+01 -0.10034031928E+02  0.13689702011E+02  0.17061297584E+02  0.51100000000E-03 0.  1.
        -12    1    3    3    0    0 -0.16124866042E+02  0.32838620594E+01  0.23061091402E+02  0.28330354597E+02  0.00000000000E+00 0.  1.
</event>
<event>
 7    1  0.2653124E-010  0.4778727E+02  0.7816164E-02  0.1312668E+00
        -11   -1    0    0    0    0  0.00000000000E+00  0.00000000000E+00  0.45593999997E+02  0.45594000000E+02  0.51100000000E-03 0.  1.
         11   -1    0    0    0    0 -0.00000000000E+00 -0.00000000000E+00 -0.45593999997E+02  0.45594000000E+02  0.51100000000E-03 0. -1.
    9900012    2    1    2    0    0  0.18641653407E+02 -0.26266971858E+02  0.29088796302E+02  0.47787272786E+02  0.20000007942E+02 0.  0.
         12    1    1    2    0    0 -0.18641653407E+02  0.26266971858E+02 -0.29088796302E+02  0.43400727214E+02  0.00000000000E+00 0. -1.
         11    1    3    3    0    0  0.70501378277E+01 -0.37238023262E+01  0.15073546789E+02  0.17052359374E+02  0.51100000000E-03 0. -1.
        -11    1    3    3    0    0  0.59194796929E+01 -0.14381302959E+02  0.13802317900E+02  0.20793414686E+02  0.51100000000E-03 0.  1.
        -12    1    3    3    0    0  0.56720358868E+01 -0.81618665727E+01  0.21293161351E+00  0.99414987262E+01  0.00000000000E+00 0.  1.
</event>
<event>
 7    1  0.2653124E-010  0.4778727E+02  0.7816164E-02  0.1312668E+00
        -11   -1    0    0    0    0  0.00000000000E+00  0.00000000000E+00  0.45593999997E+02  0.45594000000E+02  0.51100000000E-03 0. -1.
         11   -1    0    0    0    0 -0.00000000000E+00 -0.00000000000E+00 -0.45593999997E+02  0.45594000000E+02  0.51100000000E-03 0.  1.
    9900012    2    1    2    0    0  0.27629765214E+02 -0.45298412314E+01 -0.33161720783E+02  0.47787272902E+02  0.20000008468E+02 0.  0.
         12    1    1    2    0    0 -0.27629765214E+02  0.45298412314E+01  0.33161720783E+02  0.43400727098E+02  0.00000000000E+00 0. -1.
         11    1    3    3    0    0  0.78275759541E+01 -0.15398930300E+00 -0.19528088680E+02  0.21039032909E+02  0.51100000000E-03 0. -1.
        -11    1    3    3    0    0  0.79326287147E+01  0.29533115972E+01 -0.81766325366E+01  0.11768855833E+02  0.51100000000E-03 0.  1.
         12    1    3    3    0    0  0.11869560545E+02 -0.73291635256E+01 -0.54569995669E+01  0.14979384159E+02  0.00000000000E+00 0. -1.
</event>
<event>
 7    1  0.2653124E-010  0.4778727E+02  0.7816164E-02  0.1312668E+00
        -11   -1    0    0    0    0  0.00000000000E+00  0.00000000000E+00  0.45593999997E+02  0.45594000000E+02  0.51100000000E-03 0.  1.
         11   -1    0    0    0    0 -0.00000000000E+00 -0.00000000000E+00 -0.45593999997E+02  0.45594000000E+02  0.51100000000E-03 0. -1.
    9900012    2    1    2    0    0  0.14434937086E+02  0.40112396790E+02  0.81395046802E+01  0.47787270497E+02  0.19999997506E+02 0.  0.
         12    1    1    2    0    0 -0.14434937086E+02 -0.40112396790E+02 -0.81395046802E+01  0.43400729503E+02  0.00000000000E+00 0. -1.
         11    1    3    3    0    0  0.92409035610E+01  0.10501410770E+02  0.46358478734E+01  0.14736519689E+02  0.51100000000E-03 0. -1.
        -11    1    3    3    0    0  0.30646868548E+01  0.22588017791E+02  0.83276903372E+01  0.24268524468E+02  0.51100000000E-03 0.  1.
        -12    1    3    3    0    0  0.21293466702E+01  0.70229682295E+01 -0.48240335304E+01  0.87822263406E+01  0.00000000000E+00 0.  1.
</event>
<event>
 7    1  0.2653124E-010  0.4778727E+02  0.7816164E-02  0.1312668E+00
        -11   -1    0    0    0    0  0.00000000000E+00  0.00000000000E+00  0.45593999997E+02  0.45594000000E+02  0.51100000000E-03 0. -1.
         11   -1    0    0    0    0 -0.00000000000E+00 -0.00000000000E+00 -0.45593999997E+02  0.45594000000E+02  0.51100000000E-03 0.  1.
    9900012    2    1    2    0    0  0.96547985024E+01 -0.40413768106E+02 -0.12535371401E+02  0.47787270481E+02  0.19999997430E+02 0.  0.
         12    1    1    2    0    0 -0.96547985024E+01  0.40413768106E+02  0.12535371401E+02  0.43400729519E+02  0.00000000000E+00 0. -1.
         11    1    3    3    0    0  0.48362136858E+01 -0.37439625151E+02 -0.73954250069E+01  0.38468257116E+02  0.51100000000E-03 0. -1.
        -11    1    3    3    0    0  0.55988612549E+00 -0.26807344546E+01 -0.40913642677E+01  0.49233191570E+01  0.51100000000E-03 0.  1.
         12    1    3    3    0    0  0.42586986911E+01 -0.29340850025E+00 -0.10485821265E+01  0.43956942075E+01  0.00000000000E+00 0. -1.
</event>
<event>
 7    1  0.2653124E-010  0.4778726E+02  0.7816164E-02  0.1312668E+00
        -11   -1    0    0    0    0  0.00000000000E+00  0.00000000000E+00  0.45593999997E+02  0.45594000000E+02  0.51100000000E-03 0.  1.
         11   -1    0    0    0    0 -0.00000000000E+00 -0.00000000000E+00 -0.45593999997E+02  0.45594000000E+02  0.51100000000E-03 0. -1.
    9900012    2    1    2    0    0 -0.20971817620E+02 -0.24929168216E+02  0.28676540871E+02  0.47787256244E+02  0.19999932521E+02 0.  0.
         12    1    1    2    0    0  0.20971817620E+02  0.24929168216E+02 -0.28676540871E+02  0.43400743756E+02  0.00000000000E+00 0. -1.
         11    1    3    3    0    0 -0.29817450317E+01 -0.10819125842E+01  0.51451521019E+01  0.60443302927E+01  0.51100000000E-03 0. -1.
        -11    1    3    3    0    0 -0.42868180532E+01 -0.17258619260E+02  0.65545939059E+01  0.18952557857E+02  0.51100000000E-03 0.  1.
        -12    1    3    3    0    0 -0.13703254535E+02 -0.65886363720E+01  0.16976794863E+02  0.22790368095E+02  0.00000000000E+00 0.  1.
</event>
<event>
 7    1  0.2653124E-010  0.4778728E+02  0.7816164E-02  0.1312668E+00
        -11   -1    0    0    0    0  0.00000000000E+00  0.00000000000E+00  0.45593999997E+02  0.45594000000E+02  0.51100000000E-03 0.  1.
         11   -1    0    0    0    0 -0.00000000000E+00 -0.00000000000E+00 -0.45593999997E+02  0.45594000000E+02  0.51100000000E-03 0. -1.
    9900012    2    1    2    0    0 -0.28674132214E+02  0.26140038895E+02  0.19445190175E+02  0.47787275207E+02  0.20000018978E+02 0.  0.
         12    1    1    2    0    0  0.28674132214E+02 -0.26140038895E+02 -0.19445190175E+02  0.43400724793E+02  0.00000000000E+00 0. -1.
         11    1    3    3    0    0 -0.40570695471E+01 -0.81292164960E+00  0.75702502914E+01  0.86272443257E+01  0.51100000000E-03 0. -1.
        -11    1    3    3    0    0 -0.53916695446E+00  0.40650650801E+00  0.18135268431E+01  0.19351559156E+01  0.51100000000E-03 0.  1.
        -12    1    3    3    0    0 -0.24077895712E+02  0.26546454036E+02  0.10061413040E+02  0.37224874966E+02  0.00000000000E+00 0.  1.
</event>
<event>
 7    1  0.2653124E-010  0.4778727E+02  0.7816164E-02  0.1312668E+00
        -11   -1    0    0    0    0  0.00000000000E+00  0.00000000000E+00  0.45593999997E+02  0.45594000000E+02  0.51100000000E-03 0.  1.
         11   -1    0    0    0    0 -0.00000000000E+00 -0.00000000000E+00 -0.45593999997E+02  0.45594000000E+02  0.51100000000E-03 0. -1.
    9900012    2    1    2    0    0  0.61855912216E+01  0.28762312800E+02  0.31907536533E+02  0.47787273463E+02  0.20000011026E+02 0.  0.
         12    1    1    2    0    0 -0.61855912216E+01 -0.28762312800E+02 -0.31907536533E+02  0.43400726537E+02  0.00000000000E+00 0. -1.
         11    1    3    3    0    0 -0.17051712006E+01  0.45330844603E+01  0.53801568792E+01  0.72389606888E+01  0.51100000000E-03 0. -1.
        -11    1    3    3    0    0  0.31265745947E+01  0.11476351996E+02  0.14088035329E+01  0.11977764879E+02  0.51100000000E-03 0.  1.
        -12    1    3    3    0    0  0.47641878275E+01  0.12752876344E+02  0.25118576121E+02  0.28570547895E+02  0.00000000000E+00 0.  1.
</event>
<event>
 7    1  0.2653124E-010  0.4778727E+02  0.7816164E-02  0.1312668E+00
        -11   -1    0    0    0    0  0.00000000000E+00  0.00000000000E+00  0.45593999997E+02  0.45594000000E+02  0.51100000000E-03 0. -1.
         11   -1    0    0    0    0 -0.00000000000E+00 -0.00000000000E+00 -0.45593999997E+02  0.45594000000E+02  0.51100000000E-03 0.  1.
    9900012    2    1    2    0    0 -0.11563779632E+00  0.39492445029E+02 -0.17998803327E+02  0.47787268351E+02  0.19999987721E+02 0.  0.
         12    1    1    2    0    0  0.11563779632E+00 -0.39492445029E+02  0.17998803327E+02  0.43400731649E+02  0.00000000000E+00 0. -1.
         11    1    3    3    0    0 -0.66475229016E+01  0.11711493877E+02 -0.50645981548E+01  0.14387453016E+02  0.51100000000E-03 0. -1.
        -11    1    3    3    0    0  0.14320493801E+01  0.37781095940E+01  0.21689428833E+01  0.45857595907E+01  0.51100000000E-03 0.  1.
        -12    1    3    3    0    0  0.50998357251E+01  0.24002841557E+02 -0.15103148056E+02  0.28814055744E+02  0.00000000000E+00 0.  1.
</event>
<event>
 7    1  0.2653124E-010  0.4778726E+02  0.7816164E-02  0.1312668E+00
        -11   -1    0    0    0    0  0.00000000000E+00  0.00000000000E+00  0.45593999997E+02  0.45594000000E+02  0.51100000000E-03 0.  1.
         11   -1    0    0    0    0 -0.00000000000E+00 -0.00000000000E+00 -0.45593999997E+02  0.45594000000E+02  0.51100000000E-03 0. -1.
    9900012    2    1    2    0    0 -0.22716838599E+02  0.30457484151E+01  0.36855031218E+02  0.47787255013E+02  0.19999926904E+02 0.  0.
         12    1    1    2    0    0  0.22716838599E+02 -0.30457484151E+01 -0.36855031218E+02  0.43400744987E+02  0.00000000000E+00 0. -1.
         11    1    3    3    0    0 -0.18265868599E+02  0.15613968258E+01  0.24162066207E+02  0.30329611922E+02  0.51100000000E-03 0. -1.
        -11    1    3    3    0    0 -0.78767250643E+01  0.24301317671E+01  0.73703061489E+01  0.11057565335E+02  0.51100000000E-03 0.  1.
         12    1    3    3    0    0  0.34257550642E+01 -0.94578017781E+00  0.53226588628E+01  0.64000777553E+01  0.00000000000E+00 0. -1.
</event>
<event>
 7    1  0.2653124E-010  0.4778727E+02  0.7816164E-02  0.1312668E+00
        -11   -1    0    0    0    0  0.00000000000E+00  0.00000000000E+00  0.45593999997E+02  0.45594000000E+02  0.51100000000E-03 0.  1.
         11   -1    0    0    0    0 -0.00000000000E+00 -0.00000000000E+00 -0.45593999997E+02  0.45594000000E+02  0.51100000000E-03 0. -1.
    9900012    2    1    2    0    0  0.20976218548E+02  0.77368599778E+01  0.37198958608E+02  0.47787271108E+02  0.20000000288E+02 0.  0.
         12    1    1    2    0    0 -0.20976218548E+02 -0.77368599778E+01 -0.37198958608E+02  0.43400728892E+02  0.00000000000E+00 0. -1.
         11    1    3    3    0    0  0.33856167071E+01 -0.16869042327E+01  0.20074298156E+02  0.20427566989E+02  0.51100000000E-03 0. -1.
        -11    1    3    3    0    0 -0.19074400281E+00 -0.64761591517E+00 -0.33801779452E-01  0.67596780220E+00  0.51100000000E-03 0.  1.
        -12    1    3    3    0    0  0.17781345844E+02  0.10071380126E+02  0.17158462231E+02  0.26683736316E+02  0.00000000000E+00 0.  1.
</event>
<event>
 7    1  0.2653124E-010  0.4778728E+02  0.7816164E-02  0.1312668E+00
        -11   -1    0    0    0    0  0.00000000000E+00  0.00000000000E+00  0.45593999997E+02  0.45594000000E+02  0.51100000000E-03 0.  1.
         11   -1    0    0    0    0 -0.00000000000E+00 -0.00000000000E+00 -0.45593999997E+02  0.45594000000E+02  0.51100000000E-03 0. -1.
    9900012    2    1    2    0    0  0.14537096313E+02 -0.39819081886E+02 -0.93132398147E+01  0.47787275498E+02  0.20000020305E+02 0.  0.
         12    1    1    2    0    0 -0.14537096313E+02  0.39819081886E+02  0.93132398147E+01  0.43400724502E+02  0.00000000000E+00 0. -1.
         11    1    3    3    0    0  0.86985413230E+01 -0.21483008698E+02 -0.62854901813E+01  0.24014405488E+02  0.51100000000E-03 0. -1.
        -11    1    3    3    0    0  0.47402487161E+01  0.44617344729E+00 -0.44175184267E+00  0.47816496721E+01  0.51100000000E-03 0.  1.
         12    1    3    3    0    0  0.10983062738E+01 -0.18782246635E+02 -0.25859977907E+01  0.18991220338E+02  0.00000000000E+00 0. -1.
</event>
<event>
 7    1  0.2653124E-010  0.4778723E+02  0.7816164E-02  0.1312668E+00
        -11   -1    0    0    0    0  0.00000000000E+00  0.00000000000E+00  0.45593999997E+02  0.45594000000E+02  0.51100000000E-03 0.  1.
         11   -1    0    0    0    0 -0.00000000000E+00 -0.00000000000E+00 -0.45593999997E+02  0.45594000000E+02  0.51100000000E-03 0. -1.
    9900012    2    1    2    0    0 -0.98684957793E+01 -0.65164760442E+01  0.41758529590E+02  0.47787234310E+02  0.19999832512E+02 0.  0.
         12    1    1    2    0    0  0.98684957793E+01  0.65164760442E+01 -0.41758529590E+02  0.43400765690E+02  0.00000000000E+00 0. -1.
         11    1    3    3    0    0 -0.29077230541E+01  0.15330773007E+01  0.10455477728E+01  0.34493984658E+01  0.51100000000E-03 0. -1.
        -11    1    3    3    0    0 -0.99708199698E+01 -0.13685032219E+01  0.20492517617E+02  0.22830535046E+02  0.51100000000E-03 0.  1.
         12    1    3    3    0    0  0.30100472446E+01 -0.66810501230E+01  0.20220464200E+02  0.21507300798E+02  0.00000000000E+00 0. -1.
</event>
<event>
 7    1  0.2653124E-010  0.4778727E+02  0.7816164E-02  0.1312668E+00
        -11   -1    0    0    0    0  0.00000000000E+00  0.00000000000E+00  0.45593999997E+02  0.45594000000E+02  0.51100000000E-03 0.  1.
         11   -1    0    0    0    0 -0.00000000000E+00 -0.00000000000E+00 -0.45593999997E+02  0.45594000000E+02  0.51100000000E-03 0. -1.
    9900012    2    1    2    0    0 -0.72977516206E+01 -0.35173780975E+02  0.24355110066E+02  0.47787269209E+02  0.19999991633E+02 0.  0.
         12    1    1    2    0    0  0.72977516206E+01  0.35173780975E+02 -0.24355110066E+02  0.43400730791E+02  0.00000000000E+00 0. -1.
         11    1    3    3    0    0 -0.18964693977E+01  0.40373548123E+00  0.15038402364E+01  0.24537999579E+01  0.51100000000E-03 0. -1.
        -11    1    3    3    0    0 -0.59930012600E+01 -0.11918457736E+02  0.15716567079E+02  0.20614950398E+02  0.51100000000E-03 0.  1.
         12    1    3    3    0    0  0.59171903705E+00 -0.23659058720E+02  0.71347027509E+01  0.24718518853E+02  0.00000000000E+00 0. -1.
</event>
<event>
 7    1  0.2653124E-010  0.4778727E+02  0.7816164E-02  0.1312668E+00
        -11   -1    0    0    0    0  0.00000000000E+00  0.00000000000E+00  0.45593999997E+02  0.45594000000E+02  0.51100000000E-03 0.  1.
         11   -1    0    0    0    0 -0.00000000000E+00 -0.00000000000E+00 -0.45593999997E+02  0.45594000000E+02  0.51100000000E-03 0. -1.
    9900012    2    1    2    0    0  0.99365227254E+01  0.20978787684E+01  0.42195825956E+02  0.47787270659E+02  0.19999998242E+02 0.  0.
         12    1    1    2    0    0 -0.99365227254E+01 -0.20978787684E+01 -0.42195825956E+02  0.43400729341E+02  0.00000000000E+00 0. -1.
         11    1    3    3    0    0 -0.23742768641E+01  0.11097018399E+01  0.15141595141E+02  0.15366734607E+02  0.51100000000E-03 0. -1.
        -11    1    3    3    0    0  0.72923300524E+01  0.29300231583E+01  0.25695670620E+02  0.26870627126E+02  0.51100000000E-03 0.  1.
         12    1    3    3    0    0  0.50184695371E+01 -0.19418462298E+01  0.13585601952E+01  0.55499089253E+01  0.00000000000E+00 0. -1.
</event>
<event>
 7    1  0.2653124E-010  0.4778727E+02  0.7816164E-02  0.1312668E+00
        -11   -1    0    0    0    0  0.00000000000E+00  0.00000000000E+00  0.45593999997E+02  0.45594000000E+02  0.51100000000E-03 0.  1.
         11   -1    0    0    0    0 -0.00000000000E+00 -0.00000000000E+00 -0.45593999997E+02  0.45594000000E+02  0.51100000000E-03 0. -1.
    9900012    2    1    2    0    0 -0.69431437561E+01 -0.14858236080E+02  0.40182692463E+02  0.47787271916E+02  0.20000003973E+02 0.  0.
         12    1    1    2    0    0  0.69431437561E+01  0.14858236080E+02 -0.40182692463E+02  0.43400728084E+02  0.00000000000E+00 0. -1.
         11    1    3    3    0    0  0.30476654607E+01 -0.78413057316E+01  0.46212051741E+01  0.95984310103E+01  0.51100000000E-03 0. -1.
        -11    1    3    3    0    0 -0.13483501341E+01 -0.48136316263E+01  0.13104759998E+02  0.14025827333E+02  0.51100000000E-03 0.  1.
         12    1    3    3    0    0 -0.86424590827E+01 -0.22032987224E+01  0.22456727291E+02  0.24163013572E+02  0.00000000000E+00 0. -1.
</event>
<event>
 7    1  0.2653124E-010  0.4778727E+02  0.7816164E-02  0.1312668E+00
        -11   -1    0    0    0    0  0.00000000000E+00  0.00000000000E+00  0.45593999997E+02  0.45594000000E+02  0.51100000000E-03 0.  1.
         11   -1    0    0    0    0 -0.00000000000E+00 -0.00000000000E+00 -0.45593999997E+02  0.45594000000E+02  0.51100000000E-03 0. -1.
    9900012    2    1    2    0    0  0.39990781127E+02 -0.87680962291E+01  0.14404219656E+02  0.47787266936E+02  0.19999981266E+02 0.  0.
         12    1    1    2    0    0 -0.39990781127E+02  0.87680962291E+01 -0.14404219656E+02  0.43400733064E+02  0.00000000000E+00 0. -1.
         11    1    3    3    0    0  0.19806931745E+02  0.15696307732E+00  0.10581268645E+02  0.22456678939E+02  0.51100000000E-03 0. -1.
        -11    1    3    3    0    0  0.72198175234E+01 -0.41900609661E+01  0.73092680696E+01  0.11095394357E+02  0.51100000000E-03 0.  1.
         12    1    3    3    0    0  0.12964031858E+02 -0.47349983404E+01 -0.34863170590E+01  0.14235193639E+02  0.00000000000E+00 0. -1.
</event>
<event>
 7    1  0.2653124E-010  0.4778727E+02  0.7816164E-02  0.1312668E+00
        -11   -1    0    0    0    0  0.00000000000E+00  0.00000000000E+00  0.45593999997E+02  0.45594000000E+02  0.51100000000E-03 0.  1.
         11   -1    0    0    0    0 -0.00000000000E+00 -0.00000000000E+00 -0.45593999997E+02  0.45594000000E+02  0.51100000000E-03 0. -1.
    9900012    2    1    2    0    0 -0.15204033077E+02  0.38339476544E+02  0.13510924967E+02  0.47787272161E+02  0.20000005091E+02 0.  0.
         12    1    1    2    0    0  0.15204033077E+02 -0.38339476544E+02 -0.13510924967E+02  0.43400727839E+02  0.00000000000E+00 0. -1.
         11    1    3    3    0    0 -0.67440797478E+01  0.27154336255E+01  0.65786978286E+01  0.98048690353E+01  0.51100000000E-03 0. -1.
        -11    1    3    3    0    0 -0.52558215055E+01  0.91496788513E+01  0.57426628116E+00  0.10567405774E+02  0.51100000000E-03 0.  1.
        -12    1    3    3    0    0 -0.32041318240E+01  0.26474364067E+02  0.63579608569E+01  0.27414997351E+02  0.00000000000E+00 0.  1.
</event>
<event>
 7    1  0.2653124E-010  0.4778730E+02  0.7816164E-02  0.1312668E+00
        -11   -1    0    0    0    0  0.00000000000E+00  0.00000000000E+00  0.45593999997E+02  0.45594000000E+02  0.51100000000E-03 0.  1.
         11   -1    0    0    0    0 -0.00000000000E+00 -0.00000000000E+00 -0.45593999997E+02  0.45594000000E+02  0.51100000000E-03 0. -1.
    9900012    2    1    2    0    0  0.34377700161E+02  0.68350200601E+01  0.25594479615E+02  0.47787295463E+02  0.20000111334E+02 0.  0.
         12    1    1    2    0    0 -0.34377700161E+02 -0.68350200601E+01 -0.25594479615E+02  0.43400704537E+02  0.00000000000E+00 0. -1.
         11    1    3    3    0    0  0.70203578062E+01 -0.32930997859E+01  0.36470860770E+01  0.85691987397E+01  0.51100000000E-03 0. -1.
        -11    1    3    3    0    0 -0.39513085349E+00  0.36058072356E+01  0.77984365384E+00  0.37102736553E+01  0.51100000000E-03 0.  1.
        -12    1    3    3    0    0  0.27752473208E+02  0.65223126103E+01  0.21167549884E+02  0.35507823068E+02  0.00000000000E+00 0.  1.
</event>
<event>
 7    1  0.2653124E-010  0.4778727E+02  0.7816164E-02  0.1312668E+00
        -11   -1    0    0    0    0  0.00000000000E+00  0.00000000000E+00  0.45593999997E+02  0.45594000000E+02  0.51100000000E-03 0.  1.
         11   -1    0    0    0    0 -0.00000000000E+00 -0.00000000000E+00 -0.45593999997E+02  0.45594000000E+02  0.51100000000E-03 0. -1.
    9900012    2    1    2    0    0 -0.71690681019E-01 -0.31273320094E+01  0.43287852745E+02  0.47787267975E+02  0.19999986006E+02 0.  0.
         12    1    1    2    0    0  0.71690681019E-01  0.31273320094E+01 -0.43287852745E+02  0.43400732025E+02  0.00000000000E+00 0. -1.
         11    1    3    3    0    0 -0.59777264741E+01 -0.29788014968E+01  0.22046469011E+02  0.23035912577E+02  0.51100000000E-03 0. -1.
        -11    1    3    3    0    0 -0.67865883860E-01  0.34226298552E+01  0.15055400720E+02  0.15439692095E+02  0.51100000000E-03 0.  1.
        -12    1    3    3    0    0  0.59739016769E+01 -0.35711603677E+01  0.61859830142E+01  0.93116633030E+01  0.00000000000E+00 0.  1.
</event>
<event>
 7    1  0.2653124E-010  0.4778727E+02  0.7816164E-02  0.1312668E+00
        -11   -1    0    0    0    0  0.00000000000E+00  0.00000000000E+00  0.45593999997E+02  0.45594000000E+02  0.51100000000E-03 0. -1.
         11   -1    0    0    0    0 -0.00000000000E+00 -0.00000000000E+00 -0.45593999997E+02  0.45594000000E+02  0.51100000000E-03 0.  1.
    9900012    2    1    2    0    0 -0.89506238605E+01 -0.46071431526E+01 -0.42217103247E+02  0.47787271410E+02  0.20000001668E+02 0.  0.
         12    1    1    2    0    0  0.89506238605E+01  0.46071431526E+01  0.42217103247E+02  0.43400728590E+02  0.00000000000E+00 0. -1.
         11    1    3    3    0    0 -0.26072546692E+00  0.34000927506E+01 -0.33499627435E+01  0.47802572238E+01  0.51100000000E-03 0. -1.
        -11    1    3    3    0    0  0.29402583969E+01 -0.56134711183E+01 -0.16664778231E+02  0.17828937466E+02  0.51100000000E-03 0.  1.
        -12    1    3    3    0    0 -0.11630156791E+02 -0.23937647849E+01 -0.22202362273E+02  0.25178076720E+02  0.00000000000E+00 0.  1.
</event>
<event>
 7    1  0.2653124E-010  0.4778727E+02  0.7816164E-02  0.1312668E+00
        -11   -1    0    0    0    0  0.00000000000E+00  0.00000000000E+00  0.45593999997E+02  0.45594000000E+02  0.51100000000E-03 0.  1.
         11   -1    0    0    0    0 -0.00000000000E+00 -0.00000000000E+00 -0.45593999997E+02  0.45594000000E+02  0.51100000000E-03 0. -1.
    9900012    2    1    2    0    0  0.15761496074E+01 -0.25171973010E+02  0.35320115755E+02  0.47787273627E+02  0.20000011774E+02 0.  0.
         12    1    1    2    0    0 -0.15761496074E+01  0.25171973010E+02 -0.35320115755E+02  0.43400726373E+02  0.00000000000E+00 0. -1.
         11    1    3    3    0    0 -0.73740626210E+01 -0.78632770318E+01  0.88712635260E+01  0.13960918381E+02  0.51100000000E-03 0. -1.
        -11    1    3    3    0    0  0.30544725522E+01 -0.18358783785E+01  0.14637284286E+01  0.38526293835E+01  0.51100000000E-03 0.  1.
        -12    1    3    3    0    0  0.58957396762E+01 -0.15472817599E+02  0.24985123800E+02  0.29973725863E+02  0.00000000000E+00 0.  1.
</event>
<event>
 7    1  0.2653124E-010  0.4778727E+02  0.7816164E-02  0.1312668E+00
        -11   -1    0    0    0    0  0.00000000000E+00  0.00000000000E+00  0.45593999997E+02  0.45594000000E+02  0.51100000000E-03 0. -1.
         11   -1    0    0    0    0 -0.00000000000E+00 -0.00000000000E+00 -0.45593999997E+02  0.45594000000E+02  0.51100000000E-03 0.  1.
    9900012    2    1    2    0    0  0.32899090826E+02 -0.12592406810E+02 -0.25351612968E+02  0.47787272281E+02  0.20000005639E+02 0.  0.
         12    1    1    2    0    0 -0.32899090826E+02  0.12592406810E+02  0.25351612968E+02  0.43400727719E+02  0.00000000000E+00 0. -1.
         11    1    3    3    0    0  0.15622805715E+02 -0.71877285768E+01 -0.54320440570E+01  0.18034483730E+02  0.51100000000E-03 0. -1.
        -11    1    3    3    0    0  0.15723596133E+02 -0.72518924206E+01 -0.11003189881E+02  0.20515642980E+02  0.51100000000E-03 0.  1.
         12    1    3    3    0    0  0.15526889775E+01  0.18472141871E+01 -0.89163790300E+01  0.92371455721E+01  0.00000000000E+00 0. -1.
</event>
<event>
 7    1  0.2653124E-010  0.4778726E+02  0.7816164E-02  0.1312668E+00
        -11   -1    0    0    0    0  0.00000000000E+00  0.00000000000E+00  0.45593999997E+02  0.45594000000E+02  0.51100000000E-03 0.  1.
         11   -1    0    0    0    0 -0.00000000000E+00 -0.00000000000E+00 -0.45593999997E+02  0.45594000000E+02  0.51100000000E-03 0. -1.
    9900012    2    1    2    0    0 -0.19992210886E+01  0.10338548834E+02  0.42103936703E+02  0.47787263107E+02  0.19999963810E+02 0.  0.
         12    1    1    2    0    0  0.19992210886E+01 -0.10338548834E+02 -0.42103936703E+02  0.43400736893E+02  0.00000000000E+00 0. -1.
         11    1    3    3    0    0  0.22288826079E+01 -0.32713840934E+01  0.54329455334E+01  0.67221104570E+01  0.51100000000E-03 0. -1.
        -11    1    3    3    0    0  0.12241691632E+01 -0.17762618877E+01  0.44266109536E+01  0.49242848445E+01  0.51100000000E-03 0.  1.
         12    1    3    3    0    0 -0.54522728596E+01  0.15386194815E+02  0.32244380216E+02  0.36140867806E+02  0.00000000000E+00 0. -1.
</event>
<event>
 7    1  0.2653124E-010  0.4778727E+02  0.7816164E-02  0.1312668E+00
        -11   -1    0    0    0    0  0.00000000000E+00  0.00000000000E+00  0.45593999997E+02  0.45594000000E+02  0.51100000000E-03 0. -1.
         11   -1    0    0    0    0 -0.00000000000E+00 -0.00000000000E+00 -0.45593999997E+02  0.45594000000E+02  0.51100000000E-03 0.  1.
    9900012    2    1    2    0    0  0.41550266519E+02 -0.10733784982E+02  0.64795399812E+01  0.47787271594E+02  0.20000002505E+02 0.  0.
         12    1    1    2    0    0 -0.41550266519E+02  0.10733784982E+02 -0.64795399812E+01  0.43400728406E+02  0.00000000000E+00 0. -1.
         11    1    3    3    0    0  0.40465982132E-01  0.18780212391E+01 -0.38176488091E+00  0.19168583557E+01  0.51100000000E-03 0. -1.
        -11    1    3    3    0    0  0.18293024052E+02  0.42839953859E+00 -0.28355117063E+00  0.18300236519E+02  0.51100000000E-03 0.  1.
         12    1    3    3    0    0  0.23216776484E+02 -0.13040205760E+02  0.71448560328E+01  0.27570176719E+02  0.00000000000E+00 0. -1.
</event>
<event>
 7    1  0.2653124E-010  0.4778730E+02  0.7816164E-02  0.1312668E+00
        -11   -1    0    0    0    0  0.00000000000E+00  0.00000000000E+00  0.45593999997E+02  0.45594000000E+02  0.51100000000E-03 0.  1.
         11   -1    0    0    0    0 -0.00000000000E+00 -0.00000000000E+00 -0.45593999997E+02  0.45594000000E+02  0.51100000000E-03 0. -1.
    9900012    2    1    2    0    0  0.14106325977E+02 -0.20451887025E+02  0.35585853646E+02  0.47787296144E+02  0.20000114440E+02 0.  0.
         12    1    1    2    0    0 -0.14106325977E+02  0.20451887025E+02 -0.35585853646E+02  0.43400703856E+02  0.00000000000E+00 0. -1.
         11    1    3    3    0    0  0.42091181850E+01  0.31399090369E+00  0.76559828143E+01  0.87423875056E+01  0.51100000000E-03 0.  1.
        -11    1    3    3    0    0  0.30189179832E+01 -0.44458651004E+01 -0.65969548375E+00  0.54143125761E+01  0.51100000000E-03 0. -1.
         12    1    3    3    0    0  0.68782898092E+01 -0.16320012828E+02  0.28589566315E+02  0.33630596062E+02  0.00000000000E+00 0. -1.
</event>
<event>
 7    1  0.2653124E-010  0.4778727E+02  0.7816164E-02  0.1312668E+00
        -11   -1    0    0    0    0  0.00000000000E+00  0.00000000000E+00  0.45593999997E+02  0.45594000000E+02  0.51100000000E-03 0.  1.
         11   -1    0    0    0    0 -0.00000000000E+00 -0.00000000000E+00 -0.45593999997E+02  0.45594000000E+02  0.51100000000E-03 0. -1.
    9900012    2    1    2    0    0 -0.19275512283E+01  0.38610851382E+02 -0.19725872087E+02  0.47787270424E+02  0.19999997170E+02 0.  0.
         12    1    1    2    0    0  0.19275512283E+01 -0.38610851382E+02  0.19725872087E+02  0.43400729576E+02  0.00000000000E+00 0. -1.
         11    1    3    3    0    0 -0.39214570673E+01  0.17013043400E+01 -0.22031504957E+01  0.48089639587E+01  0.51100000000E-03 0. -1.
        -11    1    3    3    0    0 -0.25915879447E+01  0.11368789481E+02  0.11581220155E-01  0.11660438960E+02  0.51100000000E-03 0.  1.
        -12    1    3    3    0    0  0.45854937837E+01  0.25540757561E+02 -0.17534302811E+02  0.31317867505E+02  0.00000000000E+00 0.  1.
</event>
<event>
 7    1  0.2653124E-010  0.4778727E+02  0.7816164E-02  0.1312668E+00
        -11   -1    0    0    0    0  0.00000000000E+00  0.00000000000E+00  0.45593999997E+02  0.45594000000E+02  0.51100000000E-03 0. -1.
         11   -1    0    0    0    0 -0.00000000000E+00 -0.00000000000E+00 -0.45593999997E+02  0.45594000000E+02  0.51100000000E-03 0.  1.
    9900012    2    1    2    0    0 -0.30187179849E+02  0.19651229011E+02  0.24211296826E+02  0.47787268176E+02  0.19999986920E+02 0.  0.
         12    1    1    2    0    0  0.30187179849E+02 -0.19651229011E+02 -0.24211296826E+02  0.43400731824E+02  0.00000000000E+00 0. -1.
         11    1    3    3    0    0 -0.19173281150E+02  0.39368674439E+01  0.15954623224E+02  0.25252002650E+02  0.51100000000E-03 0. -1.
        -11    1    3    3    0    0 -0.45477111903E+01  0.50349693836E+01  0.73728999401E+01  0.10019593183E+02  0.51100000000E-03 0.  1.
        -12    1    3    3    0    0 -0.64661875088E+01  0.10679392184E+02  0.88377366182E+00  0.12515672343E+02  0.00000000000E+00 0.  1.
</event>
<event>
 7    1  0.3220850E-010  0.4778727E+02  0.7816164E-02  0.1312668E+00
        -11   -1    0    0    0    0  0.00000000000E+00  0.00000000000E+00  0.45593999997E+02  0.45594000000E+02  0.51100000000E-03 0.  1.
         11   -1    0    0    0    0 -0.00000000000E+00 -0.00000000000E+00 -0.45593999997E+02  0.45594000000E+02  0.51100000000E-03 0. -1.
    9900012    2    1    2    0    0  0.24130472142E+02 -0.33834034077E+02  0.12514064115E+02  0.47787270186E+02  0.19999996084E+02 0.  0.
         12    1    1    2    0    0 -0.24130472142E+02  0.33834034077E+02 -0.12514064115E+02  0.43400729814E+02  0.00000000000E+00 0. -1.
         11    1    3    3    0    0  0.12145539245E+02 -0.17028859650E+02  0.93244891971E+01  0.22900704871E+02  0.51100000000E-03 0.  1.
        -11    1    3    3    0    0  0.62190372696E+01 -0.17272875092E+02  0.46132989185E+01  0.18929108951E+02  0.51100000000E-03 0. -1.
         12    1    3    3    0    0  0.57658956276E+01  0.46770066429E+00 -0.14237240011E+01  0.59574563642E+01  0.00000000000E+00 0. -1.
</event>
<event>
 7    1  0.2653124E-010  0.4778727E+02  0.7816164E-02  0.1312668E+00
        -11   -1    0    0    0    0  0.00000000000E+00  0.00000000000E+00  0.45593999997E+02  0.45594000000E+02  0.51100000000E-03 0.  1.
         11   -1    0    0    0    0 -0.00000000000E+00 -0.00000000000E+00 -0.45593999997E+02  0.45594000000E+02  0.51100000000E-03 0. -1.
    9900012    2    1    2    0    0  0.13691519445E+02  0.39450783543E+02  0.11823756199E+02  0.47787271463E+02  0.20000001908E+02 0.  0.
         12    1    1    2    0    0 -0.13691519445E+02 -0.39450783543E+02 -0.11823756199E+02  0.43400728537E+02  0.00000000000E+00 0. -1.
         11    1    3    3    0    0  0.10326839893E+02  0.14232690783E+02  0.87431591831E+01  0.19638124703E+02  0.51100000000E-03 0. -1.
        -11    1    3    3    0    0  0.11781915668E+01  0.17171027586E+02  0.74271193183E+01  0.18745517474E+02  0.51100000000E-03 0.  1.
        -12    1    3    3    0    0  0.21864879854E+01  0.80470651744E+01 -0.43465223020E+01  0.94036292862E+01  0.00000000000E+00 0.  1.
</event>
<event>
 7    1  0.2653124E-010  0.4778727E+02  0.7816164E-02  0.1312668E+00
        -11   -1    0    0    0    0  0.00000000000E+00  0.00000000000E+00  0.45593999997E+02  0.45594000000E+02  0.51100000000E-03 0.  1.
         11   -1    0    0    0    0 -0.00000000000E+00 -0.00000000000E+00 -0.45593999997E+02  0.45594000000E+02  0.51100000000E-03 0. -1.
    9900012    2    1    2    0    0 -0.23078707810E+02  0.36541644680E+02  0.39629138638E+01  0.47787271476E+02  0.20000001968E+02 0.  0.
         12    1    1    2    0    0  0.23078707810E+02 -0.36541644680E+02 -0.39629138638E+01  0.43400728524E+02  0.00000000000E+00 0. -1.
         11    1    3    3    0    0 -0.79449131905E+01  0.60369743894E+01 -0.19857226767E+01  0.10173976617E+02  0.51100000000E-03 0. -1.
        -11    1    3    3    0    0 -0.16801668448E+02  0.28700499328E+02  0.24618542762E+01  0.33347795296E+02  0.51100000000E-03 0.  1.
         12    1    3    3    0    0  0.16678738290E+01  0.18041709626E+01  0.34867822644E+01  0.42654995641E+01  0.00000000000E+00 0. -1.
</event>
<event>
 7    1  0.2653124E-010  0.4778728E+02  0.7816164E-02  0.1312668E+00
        -11   -1    0    0    0    0  0.00000000000E+00  0.00000000000E+00  0.45593999997E+02  0.45594000000E+02  0.51100000000E-03 0.  1.
         11   -1    0    0    0    0 -0.00000000000E+00 -0.00000000000E+00 -0.45593999997E+02  0.45594000000E+02  0.51100000000E-03 0. -1.
    9900012    2    1    2    0    0  0.32273964604E+02 -0.19583115709E+02 -0.21412973255E+02  0.47787278396E+02  0.20000033517E+02 0.  0.
         12    1    1    2    0    0 -0.32273964604E+02  0.19583115709E+02  0.21412973255E+02  0.43400721604E+02  0.00000000000E+00 0. -1.
         11    1    3    3    0    0  0.23300501533E+02 -0.37222376326E+01 -0.15378385782E+02  0.28164928088E+02  0.51100000000E-03 0. -1.
        -11    1    3    3    0    0  0.23098882249E+01 -0.35631196480E+01  0.32217527601E+00  0.42585446348E+01  0.51100000000E-03 0.  1.
         12    1    3    3    0    0  0.66635748467E+01 -0.12297758429E+02 -0.63567627488E+01  0.15363805673E+02  0.00000000000E+00 0. -1.
</event>
<event>
 7    1  0.2653124E-010  0.4778727E+02  0.7816164E-02  0.1312668E+00
        -11   -1    0    0    0    0  0.00000000000E+00  0.00000000000E+00  0.45593999997E+02  0.45594000000E+02  0.51100000000E-03 0.  1.
         11   -1    0    0    0    0 -0.00000000000E+00 -0.00000000000E+00 -0.45593999997E+02  0.45594000000E+02  0.51100000000E-03 0. -1.
    9900012    2    1    2    0    0  0.19144558278E+02 -0.31155114474E+02  0.23376661039E+02  0.47787267853E+02  0.19999985449E+02 0.  0.
         12    1    1    2    0    0 -0.19144558278E+02  0.31155114474E+02 -0.23376661039E+02  0.43400732147E+02  0.00000000000E+00 0. -1.
         11    1    3    3    0    0  0.94931777104E+01 -0.15862640278E+02  0.17063790937E+02  0.25157836573E+02  0.51100000000E-03 0. -1.
        -11    1    3    3    0    0  0.53433380092E+00 -0.10705411693E+02  0.62809207157E+01  0.12423418105E+02  0.51100000000E-03 0.  1.
         12    1    3    3    0    0  0.91170467668E+01 -0.45870625029E+01  0.31949386407E-01  0.10206013174E+02  0.00000000000E+00 0. -1.
</event>
<event>
 7    1  0.2653124E-010  0.4778727E+02  0.7816164E-02  0.1312668E+00
        -11   -1    0    0    0    0  0.00000000000E+00  0.00000000000E+00  0.45593999997E+02  0.45594000000E+02  0.51100000000E-03 0.  1.
         11   -1    0    0    0    0 -0.00000000000E+00 -0.00000000000E+00 -0.45593999997E+02  0.45594000000E+02  0.51100000000E-03 0. -1.
    9900012    2    1    2    0    0 -0.22792125051E+02 -0.24171408596E+02  0.27926421769E+02  0.47787274307E+02  0.20000014874E+02 0.  0.
         12    1    1    2    0    0  0.22792125051E+02  0.24171408596E+02 -0.27926421769E+02  0.43400725693E+02  0.00000000000E+00 0. -1.
         11    1    3    3    0    0 -0.63234156979E+01 -0.14799818855E+01  0.10791276423E+02  0.12594744124E+02  0.51100000000E-03 0. -1.
        -11    1    3    3    0    0 -0.45500029562E-01 -0.86600683479E+01  0.78209734109E+01  0.11669039352E+02  0.51100000000E-03 0.  1.
         12    1    3    3    0    0 -0.16423209324E+02 -0.14031358362E+02  0.93141719358E+01  0.23523490830E+02  0.00000000000E+00 0. -1.
</event>
<event>
 7    1  0.2653124E-010  0.4778726E+02  0.7816164E-02  0.1312668E+00
        -11   -1    0    0    0    0  0.00000000000E+00  0.00000000000E+00  0.45593999997E+02  0.45594000000E+02  0.51100000000E-03 0. -1.
         11   -1    0    0    0    0 -0.00000000000E+00 -0.00000000000E+00 -0.45593999997E+02  0.45594000000E+02  0.51100000000E-03 0.  1.
    9900012    2    1    2    0    0 -0.33280005692E+02 -0.26810030811E+02  0.75688625012E+01  0.47787260254E+02  0.19999950804E+02 0.  0.
         12    1    1    2    0    0  0.33280005692E+02  0.26810030811E+02 -0.75688625012E+01  0.43400739746E+02  0.00000000000E+00 0. -1.
         11    1    3    3    0    0 -0.25690812543E+01  0.64780571869E+00  0.34418704984E+01  0.43435358326E+01  0.51100000000E-03 0. -1.
        -11    1    3    3    0    0 -0.19402451309E+02 -0.11105337637E+02  0.68373301096E+01  0.23378039356E+02  0.51100000000E-03 0.  1.
        -12    1    3    3    0    0 -0.11308473129E+02 -0.16352498892E+02 -0.27103381067E+01  0.20065685066E+02  0.00000000000E+00 0.  1.
</event>
<event>
 7    1  0.4447140E-010  0.4778727E+02  0.7816164E-02  0.1312668E+00
        -11   -1    0    0    0    0  0.00000000000E+00  0.00000000000E+00  0.45593999997E+02  0.45594000000E+02  0.51100000000E-03 0. -1.
         11   -1    0    0    0    0 -0.00000000000E+00 -0.00000000000E+00 -0.45593999997E+02  0.45594000000E+02  0.51100000000E-03 0.  1.
    9900012    2    1    2    0    0  0.17372903236E+02 -0.14663567834E+02 -0.36970058235E+02  0.47787271960E+02  0.20000004176E+02 0.  0.
         12    1    1    2    0    0 -0.17372903236E+02  0.14663567834E+02  0.36970058235E+02  0.43400728040E+02  0.00000000000E+00 0. -1.
         11    1    3    3    0    0  0.54137032272E+01  0.51502125972E+00 -0.71699459382E+01  0.89989751943E+01  0.51100000000E-03 0. -1.
        -11    1    3    3    0    0  0.10694613642E+02 -0.14243224913E+02 -0.31675991561E+02  0.36340234707E+02  0.51100000000E-03 0.  1.
         12    1    3    3    0    0  0.12645863676E+01 -0.93536418017E+00  0.18758792647E+01  0.24480620593E+01  0.00000000000E+00 0. -1.
</event>
<event>
 7    1  0.2653124E-010  0.4778727E+02  0.7816164E-02  0.1312668E+00
        -11   -1    0    0    0    0  0.00000000000E+00  0.00000000000E+00  0.45593999997E+02  0.45594000000E+02  0.51100000000E-03 0.  1.
         11   -1    0    0    0    0 -0.00000000000E+00 -0.00000000000E+00 -0.45593999997E+02  0.45594000000E+02  0.51100000000E-03 0. -1.
    9900012    2    1    2    0    0 -0.34727804319E+02 -0.85969067279E+01  0.24570227397E+02  0.47787271061E+02  0.20000000076E+02 0.  0.
         12    1    1    2    0    0  0.34727804319E+02  0.85969067279E+01 -0.24570227397E+02  0.43400728939E+02  0.00000000000E+00 0. -1.
         11    1    3    3    0    0 -0.22044322614E+01 -0.73880156239E+01  0.66663913903E+01  0.10192304493E+02  0.51100000000E-03 0.  1.
        -11    1    3    3    0    0 -0.16592628979E+02 -0.24303725397E+01  0.65933534737E+01  0.18019277383E+02  0.51100000000E-03 0. -1.
        -12    1    3    3    0    0 -0.15930743079E+02  0.12214814357E+01  0.11310482533E+02  0.19575689185E+02  0.00000000000E+00 0.  1.
</event>
<event>
 7    1  0.2653124E-010  0.4778727E+02  0.7816164E-02  0.1312668E+00
        -11   -1    0    0    0    0  0.00000000000E+00  0.00000000000E+00  0.45593999997E+02  0.45594000000E+02  0.51100000000E-03 0. -1.
         11   -1    0    0    0    0 -0.00000000000E+00 -0.00000000000E+00 -0.45593999997E+02  0.45594000000E+02  0.51100000000E-03 0.  1.
    9900012    2    1    2    0    0  0.42974501836E+02  0.47969027943E+01  0.37155493792E+01  0.47787269687E+02  0.19999993813E+02 0.  0.
         12    1    1    2    0    0 -0.42974501836E+02 -0.47969027943E+01 -0.37155493792E+01  0.43400730313E+02  0.00000000000E+00 0. -1.
         11    1    3    3    0    0 -0.67210835919E+00  0.13859521163E+01 -0.27676309115E+01  0.31673923089E+01  0.51100000000E-03 0. -1.
        -11    1    3    3    0    0  0.14314762926E+02  0.28743789170E+01  0.12013101435E+00  0.14600990498E+02  0.51100000000E-03 0.  1.
         12    1    3    3    0    0  0.29331847269E+02  0.53657176104E+00  0.63630492764E+01  0.30018886881E+02  0.00000000000E+00 0. -1.
</event>
<event>
 7    1  0.2653124E-010  0.4778727E+02  0.7816164E-02  0.1312668E+00
        -11   -1    0    0    0    0  0.00000000000E+00  0.00000000000E+00  0.45593999997E+02  0.45594000000E+02  0.51100000000E-03 0.  1.
         11   -1    0    0    0    0 -0.00000000000E+00 -0.00000000000E+00 -0.45593999997E+02  0.45594000000E+02  0.51100000000E-03 0. -1.
    9900012    2    1    2    0    0  0.11531759650E+02  0.38967083224E+02  0.15238390383E+02  0.47787267321E+02  0.19999983025E+02 0.  0.
         12    1    1    2    0    0 -0.11531759650E+02 -0.38967083224E+02 -0.15238390383E+02  0.43400732679E+02  0.00000000000E+00 0. -1.
         11    1    3    3    0    0  0.57854635125E+01  0.36879964081E+01  0.32086806911E+01  0.75742021098E+01  0.51100000000E-03 0. -1.
        -11    1    3    3    0    0  0.65081163361E+01  0.57432347078E+01  0.12859165087E+01  0.87746170675E+01  0.51100000000E-03 0.  1.
         12    1    3    3    0    0 -0.76182019916E+00  0.29535852108E+02  0.10743793183E+02  0.31438448144E+02  0.00000000000E+00 0. -1.
</event>
<event>
 7    1  0.2653124E-010  0.4778727E+02  0.7816164E-02  0.1312668E+00
        -11   -1    0    0    0    0  0.00000000000E+00  0.00000000000E+00  0.45593999997E+02  0.45594000000E+02  0.51100000000E-03 0.  1.
         11   -1    0    0    0    0 -0.00000000000E+00 -0.00000000000E+00 -0.45593999997E+02  0.45594000000E+02  0.51100000000E-03 0. -1.
    9900012    2    1    2    0    0 -0.78770793149E+01  0.35542486121E+02  0.23628513104E+02  0.47787270402E+02  0.19999997070E+02 0.  0.
         12    1    1    2    0    0  0.78770793149E+01 -0.35542486121E+02 -0.23628513104E+02  0.43400729598E+02  0.00000000000E+00 0. -1.
         11    1    3    3    0    0 -0.29154092908E+01  0.40360519742E+00  0.22333750125E+00  0.29516755223E+01  0.51100000000E-03 0. -1.
        -11    1    3    3    0    0  0.22532745224E+01  0.42400022539E+01  0.85372810133E+01  0.97948982919E+01  0.51100000000E-03 0.  1.
        -12    1    3    3    0    0 -0.72149445465E+01  0.30898878669E+02  0.14867894589E+02  0.35040696588E+02  0.00000000000E+00 0.  1.
</event>
<event>
 7    1  0.2653124E-010  0.4778727E+02  0.7816164E-02  0.1312668E+00
        -11   -1    0    0    0    0  0.00000000000E+00  0.00000000000E+00  0.45593999997E+02  0.45594000000E+02  0.51100000000E-03 0.  1.
         11   -1    0    0    0    0 -0.00000000000E+00 -0.00000000000E+00 -0.45593999997E+02  0.45594000000E+02  0.51100000000E-03 0. -1.
    9900012    2    1    2    0    0 -0.12472416350E+01  0.43687325889E+00  0.43380602517E+02  0.47787272533E+02  0.20000006785E+02 0.  0.
         12    1    1    2    0    0  0.12472416350E+01 -0.43687325889E+00 -0.43380602517E+02  0.43400727467E+02  0.00000000000E+00 0. -1.
         11    1    3    3    0    0 -0.32193522322E+01 -0.35525970852E+01  0.24859849695E+01  0.54004903828E+01  0.51100000000E-03 0. -1.
        -11    1    3    3    0    0 -0.37699576406E+01  0.25347201033E+00  0.89326828562E+01  0.96989510743E+01  0.51100000000E-03 0.  1.
        -12    1    3    3    0    0  0.57420682378E+01  0.37359983338E+01  0.31961934692E+02  0.32687831076E+02  0.00000000000E+00 0.  1.
</event>
<event>
 7    1  0.2653124E-010  0.4778727E+02  0.7816164E-02  0.1312668E+00
        -11   -1    0    0    0    0  0.00000000000E+00  0.00000000000E+00  0.45593999997E+02  0.45594000000E+02  0.51100000000E-03 0.  1.
         11   -1    0    0    0    0 -0.00000000000E+00 -0.00000000000E+00 -0.45593999997E+02  0.45594000000E+02  0.51100000000E-03 0. -1.
    9900012    2    1    2    0    0 -0.23068052778E+02  0.33361233845E+02  0.15443968959E+02  0.47787272358E+02  0.20000005989E+02 0.  0.
         12    1    1    2    0    0  0.23068052778E+02 -0.33361233845E+02 -0.15443968959E+02  0.43400727642E+02  0.00000000000E+00 0. -1.
         11    1    3    3    0    0  0.35336770971E+01  0.30411240521E+01  0.29262247778E+01  0.55043710847E+01  0.51100000000E-03 0. -1.
        -11    1    3    3    0    0 -0.64287060142E+01  0.70405743709E+01  0.20777552223E+01  0.97578181739E+01  0.51100000000E-03 0.  1.
         12    1    3    3    0    0 -0.20173023861E+02  0.23279535422E+02  0.10439988959E+02  0.32525083099E+02  0.00000000000E+00 0. -1.
</event>
<event>
 7    1  0.2653124E-010  0.4778727E+02  0.7816164E-02  0.1312668E+00
        -11   -1    0    0    0    0  0.00000000000E+00  0.00000000000E+00  0.45593999997E+02  0.45594000000E+02  0.51100000000E-03 0.  1.
         11   -1    0    0    0    0 -0.00000000000E+00 -0.00000000000E+00 -0.45593999997E+02  0.45594000000E+02  0.51100000000E-03 0. -1.
    9900012    2    1    2    0    0 -0.33001384657E+02  0.87185040153E+00  0.28173954330E+02  0.47787271722E+02  0.20000003090E+02 0.  0.
         12    1    1    2    0    0  0.33001384657E+02 -0.87185040153E+00 -0.28173954330E+02  0.43400728278E+02  0.00000000000E+00 0. -1.
         11    1    3    3    0    0 -0.91991770504E+01 -0.41587492902E+01  0.16860065020E+01  0.10235363806E+02  0.51100000000E-03 0. -1.
        -11    1    3    3    0    0 -0.10294099888E+02 -0.25027262286E+01  0.71119155461E+01  0.12759759954E+02  0.51100000000E-03 0.  1.
         12    1    3    3    0    0 -0.13508107719E+02  0.75333259203E+01  0.19376032282E+02  0.24792147962E+02  0.00000000000E+00 0. -1.
</event>
<event>
 7    1  0.2653124E-010  0.4778727E+02  0.7816164E-02  0.1312668E+00
        -11   -1    0    0    0    0  0.00000000000E+00  0.00000000000E+00  0.45593999997E+02  0.45594000000E+02  0.51100000000E-03 0.  1.
         11   -1    0    0    0    0 -0.00000000000E+00 -0.00000000000E+00 -0.45593999997E+02  0.45594000000E+02  0.51100000000E-03 0. -1.
    9900012    2    1    2    0    0  0.32546404588E+02  0.15959370082E+02  0.23867411164E+02  0.47787271196E+02  0.20000000691E+02 0.  0.
         12    1    1    2    0    0 -0.32546404588E+02 -0.15959370082E+02 -0.23867411164E+02  0.43400728804E+02  0.00000000000E+00 0. -1.
         11    1    3    3    0    0  0.12515617599E+02  0.31176707346E+00  0.14762600683E+02  0.19356452717E+02  0.51100000000E-03 0. -1.
        -11    1    3    3    0    0 -0.61424094530E+00 -0.43878154988E+00  0.15517154312E+00  0.77064885409E+00  0.51100000000E-03 0.  1.
        -12    1    3    3    0    0  0.20645027935E+02  0.16086384558E+02  0.89496389381E+01  0.27660169625E+02  0.00000000000E+00 0.  1.
</event>
<event>
 7    1  0.2653124E-010  0.4778728E+02  0.7816164E-02  0.1312668E+00
        -11   -1    0    0    0    0  0.00000000000E+00  0.00000000000E+00  0.45593999997E+02  0.45594000000E+02  0.51100000000E-03 0. -1.
         11   -1    0    0    0    0 -0.00000000000E+00 -0.00000000000E+00 -0.45593999997E+02  0.45594000000E+02  0.51100000000E-03 0.  1.
    9900012    2    1    2    0    0  0.37143702415E+02  0.19455490732E+02 -0.11200521388E+02  0.47787280789E+02  0.20000044429E+02 0.  0.
         12    1    1    2    0    0 -0.37143702415E+02 -0.19455490732E+02  0.11200521388E+02  0.43400719211E+02  0.00000000000E+00 0. -1.
         11    1    3    3    0    0  0.69262422225E+00  0.11576800649E+01 -0.37265975159E+01  0.39632664246E+01  0.51100000000E-03 0. -1.
        -11    1    3    3    0    0  0.75333717761E+01  0.10794367382E+02 -0.39410436955E+01  0.13740519756E+02  0.51100000000E-03 0.  1.
         12    1    3    3    0    0  0.28917706416E+02  0.75034432854E+01 -0.35328801762E+01  0.30083494608E+02  0.00000000000E+00 0. -1.
</event>
<event>
 7    1  0.2653124E-010  0.4778727E+02  0.7816164E-02  0.1312668E+00
        -11   -1    0    0    0    0  0.00000000000E+00  0.00000000000E+00  0.45593999997E+02  0.45594000000E+02  0.51100000000E-03 0.  1.
         11   -1    0    0    0    0 -0.00000000000E+00 -0.00000000000E+00 -0.45593999997E+02  0.45594000000E+02  0.51100000000E-03 0. -1.
    9900012    2    1    2    0    0 -0.12066701376E+02 -0.30717485166E+02 -0.28186063154E+02  0.47787270362E+02  0.19999996887E+02 0.  0.
         12    1    1    2    0    0  0.12066701376E+02  0.30717485166E+02  0.28186063154E+02  0.43400729638E+02  0.00000000000E+00 0. -1.
         11    1    3    3    0    0 -0.53928172379E+01 -0.16623673523E+02 -0.18286023061E+02  0.25294419124E+02  0.51100000000E-03 0. -1.
        -11    1    3    3    0    0 -0.13616888003E+01 -0.47040746369E+01 -0.10605475552E+02  0.11681550690E+02  0.51100000000E-03 0.  1.
        -12    1    3    3    0    0 -0.53121953373E+01 -0.93897370063E+01  0.70543545904E+00  0.10811300548E+02  0.00000000000E+00 0.  1.
</event>
<event>
 7    1  0.2653124E-010  0.4778727E+02  0.7816164E-02  0.1312668E+00
        -11   -1    0    0    0    0  0.00000000000E+00  0.00000000000E+00  0.45593999997E+02  0.45594000000E+02  0.51100000000E-03 0. -1.
         11   -1    0    0    0    0 -0.00000000000E+00 -0.00000000000E+00 -0.45593999997E+02  0.45594000000E+02  0.51100000000E-03 0.  1.
    9900012    2    1    2    0    0 -0.23180683881E+02  0.36681593846E+02  0.86018906673E+00  0.47787270081E+02  0.19999995605E+02 0.  0.
         12    1    1    2    0    0  0.23180683881E+02 -0.36681593846E+02 -0.86018906673E+00  0.43400729919E+02  0.00000000000E+00 0. -1.
         11    1    3    3    0    0 -0.47891449353E+01  0.25206542440E+02  0.26919871171E+01  0.25798303935E+02  0.51100000000E-03 0. -1.
        -11    1    3    3    0    0 -0.39094341686E+01  0.37427341947E+01 -0.12857886964E+01  0.55628219101E+01  0.51100000000E-03 0.  1.
         12    1    3    3    0    0 -0.14482104777E+02  0.77323172114E+01 -0.54600935394E+00  0.16426144236E+02  0.00000000000E+00 0. -1.
</event>
<event>
 7    1  0.2653124E-010  0.4778727E+02  0.7816164E-02  0.1312668E+00
        -11   -1    0    0    0    0  0.00000000000E+00  0.00000000000E+00  0.45593999997E+02  0.45594000000E+02  0.51100000000E-03 0. -1.
         11   -1    0    0    0    0 -0.00000000000E+00 -0.00000000000E+00 -0.45593999997E+02  0.45594000000E+02  0.51100000000E-03 0.  1.
    9900012    2    1    2    0    0 -0.11144621635E+02  0.40071109214E+02  0.12398667446E+02  0.47787270289E+02  0.19999996555E+02 0.  0.
         12    1    1    2    0    0  0.11144621635E+02 -0.40071109214E+02 -0.12398667446E+02  0.43400729711E+02  0.00000000000E+00 0. -1.
         11    1    3    3    0    0 -0.11047391590E+01  0.48975493508E+01 -0.31858147860E+01  0.59460789067E+01  0.51100000000E-03 0. -1.
        -11    1    3    3    0    0  0.23336856074E+01  0.14798767279E+02  0.55275348624E+01  0.15968820977E+02  0.51100000000E-03 0.  1.
         12    1    3    3    0    0 -0.12373568084E+02  0.20374792584E+02  0.10056947370E+02  0.25872370405E+02  0.00000000000E+00 0. -1.
</event>
<event>
 7    1  0.2653124E-010  0.4778722E+02  0.7816164E-02  0.1312668E+00
        -11   -1    0    0    0    0  0.00000000000E+00  0.00000000000E+00  0.45593999997E+02  0.45594000000E+02  0.51100000000E-03 0.  1.
         11   -1    0    0    0    0 -0.00000000000E+00 -0.00000000000E+00 -0.45593999997E+02  0.45594000000E+02  0.51100000000E-03 0. -1.
    9900012    2    1    2    0    0 -0.21610134703E+02 -0.24774081415E+02  0.28335045551E+02  0.47787218461E+02  0.19999760251E+02 0.  0.
         12    1    1    2    0    0  0.21610134703E+02  0.24774081415E+02 -0.28335045551E+02  0.43400781539E+02  0.00000000000E+00 0. -1.
         11    1    3    3    0    0 -0.22071895363E+01 -0.51125470712E+00 -0.26329808729E+00  0.22808755268E+01  0.51100000000E-03 0. -1.
        -11    1    3    3    0    0  0.64970705156E+00 -0.11352727552E+02  0.71582888037E+01  0.13436801739E+02  0.51100000000E-03 0.  1.
        -12    1    3    3    0    0 -0.20052652218E+02 -0.12910099156E+02  0.21440054834E+02  0.32069541195E+02  0.00000000000E+00 0.  1.
</event>
<event>
 7    1  0.2653124E-010  0.4778729E+02  0.7816164E-02  0.1312668E+00
        -11   -1    0    0    0    0  0.00000000000E+00  0.00000000000E+00  0.45593999997E+02  0.45594000000E+02  0.51100000000E-03 0.  1.
         11   -1    0    0    0    0 -0.00000000000E+00 -0.00000000000E+00 -0.45593999997E+02  0.45594000000E+02  0.51100000000E-03 0. -1.
    9900012    2    1    2    0    0  0.18521980770E+01 -0.36827718308E+02  0.22889075067E+02  0.47787294581E+02  0.20000107311E+02 0.  0.
         12    1    1    2    0    0 -0.18521980770E+01  0.36827718308E+02 -0.22889075067E+02  0.43400705419E+02  0.00000000000E+00 0. -1.
         11    1    3    3    0    0 -0.62368494922E+00  0.12062348329E+01  0.61842933241E+00  0.14921261637E+01  0.51100000000E-03 0. -1.
        -11    1    3    3    0    0  0.61392562109E+01 -0.16882059401E+02  0.47368810803E+01  0.18577740419E+02  0.51100000000E-03 0.  1.
        -12    1    3    3    0    0 -0.36633731848E+01 -0.21151893739E+02  0.17533764655E+02  0.27717427998E+02  0.00000000000E+00 0.  1.
</event>
<event>
 7    1  0.2653124E-010  0.4778727E+02  0.7816164E-02  0.1312668E+00
        -11   -1    0    0    0    0  0.00000000000E+00  0.00000000000E+00  0.45593999997E+02  0.45594000000E+02  0.51100000000E-03 0. -1.
         11   -1    0    0    0    0 -0.00000000000E+00 -0.00000000000E+00 -0.45593999997E+02  0.45594000000E+02  0.51100000000E-03 0.  1.
    9900012    2    1    2    0    0 -0.96811971674E+01 -0.39763684912E+02  0.14448078200E+02  0.47787272125E+02  0.20000004929E+02 0.  0.
         12    1    1    2    0    0  0.96811971674E+01  0.39763684912E+02 -0.14448078200E+02  0.43400727875E+02  0.00000000000E+00 0. -1.
         11    1    3    3    0    0  0.22179134523E+01 -0.11599663304E+02  0.16148294820E+01  0.11919689734E+02  0.51100000000E-03 0. -1.
        -11    1    3    3    0    0  0.16430689950E+01 -0.71522975509E+01  0.71208492423E+01  0.10225533246E+02  0.51100000000E-03 0.  1.
        -12    1    3    3    0    0 -0.13542179615E+02 -0.21011724057E+02  0.57123994755E+01  0.25642049145E+02  0.00000000000E+00 0.  1.
</event>
<event>
 7    1  0.2653124E-010  0.4778727E+02  0.7816164E-02  0.1312668E+00
        -11   -1    0    0    0    0  0.00000000000E+00  0.00000000000E+00  0.45593999997E+02  0.45594000000E+02  0.51100000000E-03 0. -1.
         11   -1    0    0    0    0 -0.00000000000E+00 -0.00000000000E+00 -0.45593999997E+02  0.45594000000E+02  0.51100000000E-03 0.  1.
    9900012    2    1    2    0    0  0.23653253893E+02  0.16272871202E+02 -0.32547513040E+02  0.47787270030E+02  0.19999995373E+02 0.  0.
         12    1    1    2    0    0 -0.23653253893E+02 -0.16272871202E+02  0.32547513040E+02  0.43400729970E+02  0.00000000000E+00 0. -1.
         11    1    3    3    0    0 -0.11363660893E+01  0.15720516847E+00 -0.35660133795E+00  0.12013351444E+01  0.51100000000E-03 0. -1.
        -11    1    3    3    0    0  0.18558667687E+01  0.13505953822E+01 -0.13083766580E+02  0.13283572469E+02  0.51100000000E-03 0.  1.
         12    1    3    3    0    0  0.22933753214E+02  0.14765070652E+02 -0.19107145121E+02  0.33302362416E+02  0.00000000000E+00 0. -1.
</event>
<event>
 7    1  0.2653124E-010  0.4778727E+02  0.7816164E-02  0.1312668E+00
        -11   -1    0    0    0    0  0.00000000000E+00  0.00000000000E+00  0.45593999997E+02  0.45594000000E+02  0.51100000000E-03 0. -1.
         11   -1    0    0    0    0 -0.00000000000E+00 -0.00000000000E+00 -0.45593999997E+02  0.45594000000E+02  0.51100000000E-03 0.  1.
    9900012    2    1    2    0    0  0.39638727090E+02 -0.26136146349E+01 -0.17480375792E+02  0.47787271842E+02  0.20000003636E+02 0.  0.
         12    1    1    2    0    0 -0.39638727090E+02  0.26136146349E+01  0.17480375792E+02  0.43400728158E+02  0.00000000000E+00 0. -1.
         11    1    3    3    0    0  0.78848559165E+01 -0.17888836326E+01 -0.15522117947E+01  0.82328864435E+01  0.51100000000E-03 0.  1.
        -11    1    3    3    0    0  0.31760130304E+02 -0.86774386302E+00 -0.95502014190E+01  0.33176274711E+02  0.51100000000E-03 0. -1.
         12    1    3    3    0    0 -0.62591298977E-02  0.43012860674E-01 -0.63779625785E+01  0.63781106870E+01  0.00000000000E+00 0. -1.
</event>
<event>
 7    1  0.2653124E-010  0.4778727E+02  0.7816164E-02  0.1312668E+00
        -11   -1    0    0    0    0  0.00000000000E+00  0.00000000000E+00  0.45593999997E+02  0.45594000000E+02  0.51100000000E-03 0. -1.
         11   -1    0    0    0    0 -0.00000000000E+00 -0.00000000000E+00 -0.45593999997E+02  0.45594000000E+02  0.51100000000E-03 0.  1.
    9900012    2    1    2    0    0  0.28697323654E+02 -0.31712837451E+02 -0.73744771662E+01  0.47787270081E+02  0.19999995605E+02 0.  0.
         12    1    1    2    0    0 -0.28697323654E+02  0.31712837451E+02  0.73744771662E+01  0.43400729919E+02  0.00000000000E+00 0. -1.
         11    1    3    3    0    0  0.96478099804E+01 -0.62866321906E+01  0.21720308747E+01  0.11718348864E+02  0.51100000000E-03 0. -1.
        -11    1    3    3    0    0  0.15832517667E+02 -0.24091263651E+02 -0.34315304711E+01  0.29031586275E+02  0.51100000000E-03 0.  1.
         12    1    3    3    0    0  0.32169960066E+01 -0.13349416088E+01 -0.61149775698E+01  0.70373349418E+01  0.00000000000E+00 0. -1.
</event>
<event>
 7    1  0.2653124E-010  0.4778727E+02  0.7816164E-02  0.1312668E+00
        -11   -1    0    0    0    0  0.00000000000E+00  0.00000000000E+00  0.45593999997E+02  0.45594000000E+02  0.51100000000E-03 0.  1.
         11   -1    0    0    0    0 -0.00000000000E+00 -0.00000000000E+00 -0.45593999997E+02  0.45594000000E+02  0.51100000000E-03 0. -1.
    9900012    2    1    2    0    0 -0.39810253213E+02 -0.16944852651E+02 -0.34115775594E+01  0.47787272429E+02  0.20000006311E+02 0.  0.
         12    1    1    2    0    0  0.39810253213E+02  0.16944852651E+02  0.34115775594E+01  0.43400727571E+02  0.00000000000E+00 0. -1.
         11    1    3    3    0    0 -0.16469725842E+02 -0.64598714496E+01 -0.69550921543E+01  0.19009342850E+02  0.51100000000E-03 0. -1.
        -11    1    3    3    0    0 -0.12887655392E+02 -0.11224103597E+02 -0.14857431727E+01  0.17154579450E+02  0.51100000000E-03 0.  1.
         12    1    3    3    0    0 -0.10452871979E+02  0.73912239512E+00  0.50292577676E+01  0.11623350129E+02  0.00000000000E+00 0. -1.
</event>
<event>
 7    1  0.2653124E-010  0.4778727E+02  0.7816164E-02  0.1312668E+00
        -11   -1    0    0    0    0  0.00000000000E+00  0.00000000000E+00  0.45593999997E+02  0.45594000000E+02  0.51100000000E-03 0.  1.
         11   -1    0    0    0    0 -0.00000000000E+00 -0.00000000000E+00 -0.45593999997E+02  0.45594000000E+02  0.51100000000E-03 0. -1.
    9900012    2    1    2    0    0  0.40007754746E+02 -0.11003972613E+02  0.12724602809E+02  0.47787269940E+02  0.19999994966E+02 0.  0.
         12    1    1    2    0    0 -0.40007754746E+02  0.11003972613E+02 -0.12724602809E+02  0.43400730060E+02  0.00000000000E+00 0. -1.
         11    1    3    3    0    0  0.98757130000E+01  0.91944858672E+00 -0.35951488393E+01  0.10549890445E+02  0.51100000000E-03 0.  1.
        -11    1    3    3    0    0  0.18788357692E+01  0.15880875205E+00  0.34321950916E+01  0.39160193405E+01  0.51100000000E-03 0. -1.
        -12    1    3    3    0    0  0.28253205977E+02 -0.12082229952E+02  0.12887556556E+02  0.33321360155E+02  0.00000000000E+00 0.  1.
</event>
<event>
 7    1  0.2653124E-010  0.4778727E+02  0.7816164E-02  0.1312668E+00
        -11   -1    0    0    0    0  0.00000000000E+00  0.00000000000E+00  0.45593999997E+02  0.45594000000E+02  0.51100000000E-03 0.  1.
         11   -1    0    0    0    0 -0.00000000000E+00 -0.00000000000E+00 -0.45593999997E+02  0.45594000000E+02  0.51100000000E-03 0. -1.
    9900012    2    1    2    0    0  0.31901284071E+02 -0.26357705375E+02  0.13084447547E+02  0.47787270449E+02  0.19999997284E+02 0.  0.
         12    1    1    2    0    0 -0.31901284071E+02  0.26357705375E+02 -0.13084447547E+02  0.43400729551E+02  0.00000000000E+00 0. -1.
         11    1    3    3    0    0  0.15437787337E+02 -0.13514030684E+02  0.93742400045E+01  0.22557275525E+02  0.51100000000E-03 0. -1.
        -11    1    3    3    0    0  0.13134141405E+02 -0.90820010864E+01  0.86703555536E+01  0.18170401203E+02  0.51100000000E-03 0.  1.
         12    1    3    3    0    0  0.33293553289E+01 -0.37616736043E+01 -0.49601480113E+01  0.70595937210E+01  0.00000000000E+00 0. -1.
</event>
<event>
 7    1  0.2653124E-010  0.4778727E+02  0.7816164E-02  0.1312668E+00
        -11   -1    0    0    0    0  0.00000000000E+00  0.00000000000E+00  0.45593999997E+02  0.45594000000E+02  0.51100000000E-03 0. -1.
         11   -1    0    0    0    0 -0.00000000000E+00 -0.00000000000E+00 -0.45593999997E+02  0.45594000000E+02  0.51100000000E-03 0.  1.
    9900012    2    1    2    0    0 -0.41739783758E+02  0.36857421945E+01  0.11306151808E+02  0.47787270601E+02  0.19999997977E+02 0.  0.
         12    1    1    2    0    0  0.41739783758E+02 -0.36857421945E+01 -0.11306151808E+02  0.43400729399E+02  0.00000000000E+00 0. -1.
         11    1    3    3    0    0 -0.21742204121E+02 -0.19453766666E+01  0.72260781109E+01  0.22994002164E+02  0.51100000000E-03 0. -1.
        -11    1    3    3    0    0 -0.12548809411E+02 -0.28975962464E+01  0.39422841598E+01  0.13468863586E+02  0.51100000000E-03 0.  1.
         12    1    3    3    0    0 -0.74487702260E+01  0.85287151075E+01  0.13778953771E+00  0.11324404851E+02  0.00000000000E+00 0. -1.
</event>
<event>
 7    1  0.2653124E-010  0.4778726E+02  0.7816164E-02  0.1312668E+00
        -11   -1    0    0    0    0  0.00000000000E+00  0.00000000000E+00  0.45593999997E+02  0.45594000000E+02  0.51100000000E-03 0.  1.
         11   -1    0    0    0    0 -0.00000000000E+00 -0.00000000000E+00 -0.45593999997E+02  0.45594000000E+02  0.51100000000E-03 0. -1.
    9900012    2    1    2    0    0 -0.53653226949E+01 -0.25917795509E+02  0.34396295101E+02  0.47787263504E+02  0.19999965621E+02 0.  0.
         12    1    1    2    0    0  0.53653226949E+01  0.25917795509E+02 -0.34396295101E+02  0.43400736496E+02  0.00000000000E+00 0. -1.
         11    1    3    3    0    0  0.57635833499E+00 -0.17587062964E+01  0.76498835075E+01  0.78705752462E+01  0.51100000000E-03 0. -1.
        -11    1    3    3    0    0  0.20950939739E+01 -0.19433112311E+02  0.22088049946E+02  0.29494359181E+02  0.51100000000E-03 0.  1.
         12    1    3    3    0    0 -0.80367750038E+01 -0.47259769013E+01  0.46583616483E+01  0.10422329077E+02  0.00000000000E+00 0. -1.
</event>
<event>
 7    1  0.2653124E-010  0.4778727E+02  0.7816164E-02  0.1312668E+00
        -11   -1    0    0    0    0  0.00000000000E+00  0.00000000000E+00  0.45593999997E+02  0.45594000000E+02  0.51100000000E-03 0.  1.
         11   -1    0    0    0    0 -0.00000000000E+00 -0.00000000000E+00 -0.45593999997E+02  0.45594000000E+02  0.51100000000E-03 0. -1.
    9900012    2    1    2    0    0  0.88555081662E+01 -0.41830364865E+02  0.74447150582E+01  0.47787271528E+02  0.20000002203E+02 0.  0.
         12    1    1    2    0    0 -0.88555081662E+01  0.41830364865E+02 -0.74447150582E+01  0.43400728472E+02  0.00000000000E+00 0. -1.
         11    1    3    3    0    0 -0.39897012488E+00 -0.17906449850E+02  0.89035245602E+01  0.20001821748E+02  0.51100000000E-03 0. -1.
        -11    1    3    3    0    0  0.43913435519E+01 -0.40626806424E+01  0.32415985570E+01  0.68042070559E+01  0.51100000000E-03 0.  1.
         12    1    3    3    0    0  0.48631347391E+01 -0.19861234373E+02 -0.47004080590E+01  0.20981242724E+02  0.00000000000E+00 0. -1.
</event>
<event>
 7    1  0.2653124E-010  0.4778724E+02  0.7816164E-02  0.1312668E+00
        -11   -1    0    0    0    0  0.00000000000E+00  0.00000000000E+00  0.45593999997E+02  0.45594000000E+02  0.51100000000E-03 0. -1.
         11   -1    0    0    0    0 -0.00000000000E+00 -0.00000000000E+00 -0.45593999997E+02  0.45594000000E+02  0.51100000000E-03 0.  1.
    9900012    2    1    2    0    0  0.22794878907E+02 -0.18243551737E+01 -0.36887549156E+02  0.47787238959E+02  0.19999853709E+02 0.  0.
         12    1    1    2    0    0 -0.22794878907E+02  0.18243551737E+01  0.36887549156E+02  0.43400761041E+02  0.00000000000E+00 0. -1.
         11    1    3    3    0    0  0.99699589834E+00 -0.14885458576E+01  0.49519885414E+00  0.18587608124E+01  0.51100000000E-03 0. -1.
        -11    1    3    3    0    0 -0.43962674156E+00 -0.36865835651E+01 -0.26909816277E+01  0.45853628468E+01  0.51100000000E-03 0.  1.
        -12    1    3    3    0    0  0.22237509750E+02  0.33507742490E+01 -0.34691766383E+02  0.41343115300E+02  0.00000000000E+00 0.  1.
</event>
<event>
 7    1  0.2653124E-010  0.4778727E+02  0.7816164E-02  0.1312668E+00
        -11   -1    0    0    0    0  0.00000000000E+00  0.00000000000E+00  0.45593999997E+02  0.45594000000E+02  0.51100000000E-03 0.  1.
         11   -1    0    0    0    0 -0.00000000000E+00 -0.00000000000E+00 -0.45593999997E+02  0.45594000000E+02  0.51100000000E-03 0. -1.
    9900012    2    1    2    0    0  0.50343047972E+01 -0.38345116354E+02  0.19695968492E+02  0.47787270193E+02  0.19999996116E+02 0.  0.
         12    1    1    2    0    0 -0.50343047972E+01  0.38345116354E+02 -0.19695968492E+02  0.43400729807E+02  0.00000000000E+00 0. -1.
         11    1    3    3    0    0 -0.34920753286E+00 -0.24218761384E+01 -0.17119802673E+01  0.29863533996E+01  0.51100000000E-03 0. -1.
        -11    1    3    3    0    0  0.47636073544E+01 -0.54108460141E+01  0.97627852702E+01  0.12135946033E+02  0.51100000000E-03 0.  1.
         12    1    3    3    0    0  0.61990497570E+00 -0.30512394201E+02  0.11645163489E+02  0.32664970760E+02  0.00000000000E+00 0. -1.
</event>
<event>
 7    1  0.2653124E-010  0.4778728E+02  0.7816164E-02  0.1312668E+00
        -11   -1    0    0    0    0  0.00000000000E+00  0.00000000000E+00  0.45593999997E+02  0.45594000000E+02  0.51100000000E-03 0.  1.
         11   -1    0    0    0    0 -0.00000000000E+00 -0.00000000000E+00 -0.45593999997E+02  0.45594000000E+02  0.51100000000E-03 0. -1.
    9900012    2    1    2    0    0 -0.37771861070E+02 -0.16682934486E+02 -0.13363703541E+02  0.47787281525E+02  0.20000047787E+02 0.  0.
         12    1    1    2    0    0  0.37771861070E+02  0.16682934486E+02  0.13363703541E+02  0.43400718475E+02  0.00000000000E+00 0. -1.
         11    1    3    3    0    0 -0.37570195672E+01 -0.83377414374E+01 -0.60401874882E+01  0.10959789846E+02  0.51100000000E-03 0. -1.
        -11    1    3    3    0    0 -0.13010515367E+02 -0.75612035202E+01 -0.23817104148E+01  0.15235414453E+02  0.51100000000E-03 0.  1.
        -12    1    3    3    0    0 -0.21004326136E+02 -0.78398952834E+00 -0.49418056378E+01  0.21592077227E+02  0.00000000000E+00 0.  1.
</event>
<event>
 7    1  0.2653124E-010  0.4778728E+02  0.7816164E-02  0.1312668E+00
        -11   -1    0    0    0    0  0.00000000000E+00  0.00000000000E+00  0.45593999997E+02  0.45594000000E+02  0.51100000000E-03 0. -1.
         11   -1    0    0    0    0 -0.00000000000E+00 -0.00000000000E+00 -0.45593999997E+02  0.45594000000E+02  0.51100000000E-03 0.  1.
    9900012    2    1    2    0    0 -0.16430353341E+02  0.36515412809E+02 -0.16741882203E+02  0.47787279922E+02  0.20000040478E+02 0.  0.
         12    1    1    2    0    0  0.16430353341E+02 -0.36515412809E+02  0.16741882203E+02  0.43400720078E+02  0.00000000000E+00 0. -1.
         11    1    3    3    0    0  0.18184160261E+01  0.52863160904E+00 -0.31737815955E+01  0.36958054736E+01  0.51100000000E-03 0. -1.
        -11    1    3    3    0    0 -0.35360836996E+01  0.16068819732E+02 -0.14339730541E+01  0.16515663308E+02  0.51100000000E-03 0.  1.
         12    1    3    3    0    0 -0.14712685667E+02  0.19917961468E+02 -0.12134127553E+02  0.27575811141E+02  0.00000000000E+00 0. -1.
</event>
<event>
 7    1  0.2653124E-010  0.4778727E+02  0.7816164E-02  0.1312668E+00
        -11   -1    0    0    0    0  0.00000000000E+00  0.00000000000E+00  0.45593999997E+02  0.45594000000E+02  0.51100000000E-03 0.  1.
         11   -1    0    0    0    0 -0.00000000000E+00 -0.00000000000E+00 -0.45593999997E+02  0.45594000000E+02  0.51100000000E-03 0. -1.
    9900012    2    1    2    0    0 -0.17930133981E+02 -0.28065730820E+02  0.27828910712E+02  0.47787271638E+02  0.20000002704E+02 0.  0.
         12    1    1    2    0    0  0.17930133981E+02  0.28065730820E+02 -0.27828910712E+02  0.43400728362E+02  0.00000000000E+00 0. -1.
         11    1    3    3    0    0 -0.88163243778E+01 -0.16867259694E+02  0.82252854212E+01  0.20733724838E+02  0.51100000000E-03 0. -1.
        -11    1    3    3    0    0 -0.11188148757E+02 -0.94134153312E+01  0.11815995517E+02  0.18799064103E+02  0.51100000000E-03 0.  1.
         12    1    3    3    0    0  0.20743391545E+01 -0.17850557942E+01  0.77876297729E+01  0.82544826971E+01  0.00000000000E+00 0. -1.
</event>
<event>
 7    1  0.2653124E-010  0.4778727E+02  0.7816164E-02  0.1312668E+00
        -11   -1    0    0    0    0  0.00000000000E+00  0.00000000000E+00  0.45593999997E+02  0.45594000000E+02  0.51100000000E-03 0.  1.
         11   -1    0    0    0    0 -0.00000000000E+00 -0.00000000000E+00 -0.45593999997E+02  0.45594000000E+02  0.51100000000E-03 0. -1.
    9900012    2    1    2    0    0  0.33383264589E+01  0.86530403579E+01  0.42398155489E+02  0.47787272819E+02  0.20000008090E+02 0.  0.
         12    1    1    2    0    0 -0.33383264589E+01 -0.86530403579E+01 -0.42398155489E+02  0.43400727181E+02  0.00000000000E+00 0. -1.
         11    1    3    3    0    0 -0.90109059905E+00  0.91609808960E+00  0.80095477612E+01  0.81119698950E+01  0.51100000000E-03 0. -1.
        -11    1    3    3    0    0 -0.72274758039E+00 -0.55501689458E+01  0.10218765783E+02  0.11651176498E+02  0.51100000000E-03 0.  1.
         12    1    3    3    0    0  0.49621646383E+01  0.13287111214E+02  0.24169841945E+02  0.28024126426E+02  0.00000000000E+00 0. -1.
</event>
<event>
 7    1  0.2653124E-010  0.4778727E+02  0.7816164E-02  0.1312668E+00
        -11   -1    0    0    0    0  0.00000000000E+00  0.00000000000E+00  0.45593999997E+02  0.45594000000E+02  0.51100000000E-03 0.  1.
         11   -1    0    0    0    0 -0.00000000000E+00 -0.00000000000E+00 -0.45593999997E+02  0.45594000000E+02  0.51100000000E-03 0. -1.
    9900012    2    1    2    0    0 -0.21983124930E+02  0.26911819237E+02  0.26002300004E+02  0.47787269570E+02  0.19999993277E+02 0.  0.
         12    1    1    2    0    0  0.21983124930E+02 -0.26911819237E+02 -0.26002300004E+02  0.43400730430E+02  0.00000000000E+00 0. -1.
         11    1    3    3    0    0 -0.12465674165E+02  0.17186018004E+02  0.80500122977E+01  0.22705835054E+02  0.51100000000E-03 0. -1.
        -11    1    3    3    0    0 -0.74786051039E+01  0.92988984923E+01  0.67965547697E+01  0.13732887696E+02  0.51100000000E-03 0.  1.
        -12    1    3    3    0    0 -0.20388456611E+01  0.42690274084E+00  0.11155732936E+02  0.11348546820E+02  0.00000000000E+00 0.  1.
</event>
<event>
 7    1  0.2653124E-010  0.4778733E+02  0.7816164E-02  0.1312668E+00
        -11   -1    0    0    0    0  0.00000000000E+00  0.00000000000E+00  0.45593999997E+02  0.45594000000E+02  0.51100000000E-03 0.  1.
         11   -1    0    0    0    0 -0.00000000000E+00 -0.00000000000E+00 -0.45593999997E+02  0.45594000000E+02  0.51100000000E-03 0. -1.
    9900012    2    1    2    0    0 -0.25204184595E+02  0.21055000373E+02  0.28373479836E+02  0.47787328118E+02  0.20000260220E+02 0.  0.
         12    1    1    2    0    0  0.25204184595E+02 -0.21055000373E+02 -0.28373479836E+02  0.43400671882E+02  0.00000000000E+00 0. -1.
         11    1    3    3    0    0 -0.16555683368E+02  0.22537536804E+01  0.12550938847E+02  0.20897275508E+02  0.51100000000E-03 0. -1.
        -11    1    3    3    0    0 -0.58579829813E+01  0.56128794764E+01  0.74935313105E+01  0.11044156481E+02  0.51100000000E-03 0.  1.
         12    1    3    3    0    0 -0.27905182457E+01  0.13188367216E+02  0.83290096781E+01  0.15845896129E+02  0.00000000000E+00 0. -1.
</event>
<event>
 7    1  0.2653124E-010  0.4778727E+02  0.7816164E-02  0.1312668E+00
        -11   -1    0    0    0    0  0.00000000000E+00  0.00000000000E+00  0.45593999997E+02  0.45594000000E+02  0.51100000000E-03 0.  1.
         11   -1    0    0    0    0 -0.00000000000E+00 -0.00000000000E+00 -0.45593999997E+02  0.45594000000E+02  0.51100000000E-03 0. -1.
    9900012    2    1    2    0    0 -0.22937793056E+02  0.33971917956E+02 -0.14261484559E+02  0.47787268420E+02  0.19999988032E+02 0.  0.
         12    1    1    2    0    0  0.22937793056E+02 -0.33971917956E+02  0.14261484559E+02  0.43400731580E+02  0.00000000000E+00 0. -1.
         11    1    3    3    0    0 -0.51525755258E+01  0.28517620606E+01 -0.50489008332E+01  0.77571245500E+01  0.51100000000E-03 0. -1.
        -11    1    3    3    0    0 -0.27783154269E+01  0.66657817393E+01 -0.87358416125E+01  0.11334311260E+02  0.51100000000E-03 0.  1.
        -12    1    3    3    0    0 -0.15006902103E+02  0.24454374156E+02 -0.47674211361E+00  0.28695832609E+02  0.00000000000E+00 0.  1.
</event>
<event>
 7    1  0.2653124E-010  0.4778727E+02  0.7816164E-02  0.1312668E+00
        -11   -1    0    0    0    0  0.00000000000E+00  0.00000000000E+00  0.45593999997E+02  0.45594000000E+02  0.51100000000E-03 0. -1.
         11   -1    0    0    0    0 -0.00000000000E+00 -0.00000000000E+00 -0.45593999997E+02  0.45594000000E+02  0.51100000000E-03 0.  1.
    9900012    2    1    2    0    0 -0.10232637612E+02 -0.25195294008E+02 -0.33824749458E+02  0.47787269723E+02  0.19999993977E+02 0.  0.
         12    1    1    2    0    0  0.10232637612E+02  0.25195294008E+02  0.33824749458E+02  0.43400730277E+02  0.00000000000E+00 0. -1.
         11    1    3    3    0    0 -0.38679862849E+01 -0.15053625617E+02 -0.16536342601E+02  0.22694131158E+02  0.51100000000E-03 0. -1.
        -11    1    3    3    0    0 -0.12852444042E+01 -0.11068819820E+02 -0.16439924228E+02  0.19860557249E+02  0.51100000000E-03 0.  1.
         12    1    3    3    0    0 -0.50794069224E+01  0.92715142954E+00 -0.84848262935E+00  0.52325813161E+01  0.00000000000E+00 0. -1.
</event>
<event>
 7    1  0.2653124E-010  0.4778727E+02  0.7816164E-02  0.1312668E+00
        -11   -1    0    0    0    0  0.00000000000E+00  0.00000000000E+00  0.45593999997E+02  0.45594000000E+02  0.51100000000E-03 0.  1.
         11   -1    0    0    0    0 -0.00000000000E+00 -0.00000000000E+00 -0.45593999997E+02  0.45594000000E+02  0.51100000000E-03 0. -1.
    9900012    2    1    2    0    0 -0.28038403359E+02 -0.10248721242E+02  0.31502933866E+02  0.47787271986E+02  0.20000004293E+02 0.  0.
         12    1    1    2    0    0  0.28038403359E+02  0.10248721242E+02 -0.31502933866E+02  0.43400728014E+02  0.00000000000E+00 0. -1.
         11    1    3    3    0    0 -0.12784959051E+01 -0.84774305359E+00 -0.89000092655E+00  0.17735055609E+01  0.51100000000E-03 0. -1.
        -11    1    3    3    0    0 -0.15482761694E+02  0.36010390223E+00  0.24898132335E+02  0.29321708315E+02  0.51100000000E-03 0.  1.
        -12    1    3    3    0    0 -0.11277145760E+02 -0.97610820903E+01  0.74948024570E+01  0.16692058110E+02  0.00000000000E+00 0.  1.
</event>
<event>
 7    1  0.2653124E-010  0.4778727E+02  0.7816164E-02  0.1312668E+00
        -11   -1    0    0    0    0  0.00000000000E+00  0.00000000000E+00  0.45593999997E+02  0.45594000000E+02  0.51100000000E-03 0. -1.
         11   -1    0    0    0    0 -0.00000000000E+00 -0.00000000000E+00 -0.45593999997E+02  0.45594000000E+02  0.51100000000E-03 0.  1.
    9900012    2    1    2    0    0  0.43071890240E+02  0.27670242559E+01  0.45584220634E+01  0.47787270009E+02  0.19999995279E+02 0.  0.
         12    1    1    2    0    0 -0.43071890240E+02 -0.27670242559E+01 -0.45584220634E+01  0.43400729991E+02  0.00000000000E+00 0. -1.
         11    1    3    3    0    0  0.14645051831E+02  0.94483076123E+01  0.46751712289E+01  0.18044536186E+02  0.51100000000E-03 0. -1.
        -11    1    3    3    0    0  0.13511957023E+02 -0.41568243480E+01  0.25991227217E+01  0.14373851621E+02  0.51100000000E-03 0.  1.
        -12    1    3    3    0    0  0.14914881385E+02 -0.25244590084E+01 -0.27158718872E+01  0.15368882202E+02  0.00000000000E+00 0.  1.
</event>
<event>
 7    1  0.2653124E-010  0.4778727E+02  0.7816164E-02  0.1312668E+00
        -11   -1    0    0    0    0  0.00000000000E+00  0.00000000000E+00  0.45593999997E+02  0.45594000000E+02  0.51100000000E-03 0.  1.
         11   -1    0    0    0    0 -0.00000000000E+00 -0.00000000000E+00 -0.45593999997E+02  0.45594000000E+02  0.51100000000E-03 0. -1.
    9900012    2    1    2    0    0 -0.20667469306E+02  0.33274615992E+02  0.18688997840E+02  0.47787274232E+02  0.20000014534E+02 0.  0.
         12    1    1    2    0    0  0.20667469306E+02 -0.33274615992E+02 -0.18688997840E+02  0.43400725768E+02  0.00000000000E+00 0. -1.
         11    1    3    3    0    0 -0.14524229030E+02  0.12417793904E+02  0.50187259003E+01  0.19757085926E+02  0.51100000000E-03 0. -1.
        -11    1    3    3    0    0 -0.31402294144E+01  0.11777385960E+02  0.11037972836E+01  0.12238718460E+02  0.51100000000E-03 0.  1.
        -12    1    3    3    0    0 -0.30030108611E+01  0.90794361277E+01  0.12566474656E+02  0.15791469847E+02  0.00000000000E+00 0.  1.
</event>
<event>
 7    1  0.2653124E-010  0.4778728E+02  0.7816164E-02  0.1312668E+00
        -11   -1    0    0    0    0  0.00000000000E+00  0.00000000000E+00  0.45593999997E+02  0.45594000000E+02  0.51100000000E-03 0.  1.
         11   -1    0    0    0    0 -0.00000000000E+00 -0.00000000000E+00 -0.45593999997E+02  0.45594000000E+02  0.51100000000E-03 0. -1.
    9900012    2    1    2    0    0  0.16209096901E+02  0.22170812264E+02  0.33605698430E+02  0.47787277590E+02  0.20000029842E+02 0.  0.
         12    1    1    2    0    0 -0.16209096901E+02 -0.22170812264E+02 -0.33605698430E+02  0.43400722410E+02  0.00000000000E+00 0. -1.
         11    1    3    3    0    0  0.17208901465E+01  0.16172036497E+02  0.10121806720E+02  0.19155865913E+02  0.51100000000E-03 0. -1.
        -11    1    3    3    0    0  0.14860291581E+01 -0.71011034367E+00  0.34577501888E+01  0.38299577006E+01  0.51100000000E-03 0.  1.
         12    1    3    3    0    0  0.13002177597E+02  0.67088861110E+01  0.20026141521E+02  0.24801453976E+02  0.00000000000E+00 0. -1.
</event>
<event>
 7    1  0.2653124E-010  0.4778725E+02  0.7816164E-02  0.1312668E+00
        -11   -1    0    0    0    0  0.00000000000E+00  0.00000000000E+00  0.45593999997E+02  0.45594000000E+02  0.51100000000E-03 0.  1.
         11   -1    0    0    0    0 -0.00000000000E+00 -0.00000000000E+00 -0.45593999997E+02  0.45594000000E+02  0.51100000000E-03 0. -1.
    9900012    2    1    2    0    0 -0.39958426455E+02  0.13069606655E+02  0.10776597922E+02  0.47787245103E+02  0.19999881722E+02 0.  0.
         12    1    1    2    0    0  0.39958426455E+02 -0.13069606655E+02 -0.10776597922E+02  0.43400754897E+02  0.00000000000E+00 0. -1.
         11    1    3    3    0    0 -0.20939308534E+02  0.64201789888E+01  0.53902816846E+01  0.22555010020E+02  0.51100000000E-03 0. -1.
        -11    1    3    3    0    0 -0.20003136625E+02  0.88525676024E+01  0.34637140687E+01  0.22147025611E+02  0.51100000000E-03 0.  1.
         12    1    3    3    0    0  0.98401870398E+00 -0.22031399357E+01  0.19226021685E+01  0.30852094717E+01  0.00000000000E+00 0. -1.
</event>
<event>
 7    1  0.2653124E-010  0.4778727E+02  0.7816164E-02  0.1312668E+00
        -11   -1    0    0    0    0  0.00000000000E+00  0.00000000000E+00  0.45593999997E+02  0.45594000000E+02  0.51100000000E-03 0.  1.
         11   -1    0    0    0    0 -0.00000000000E+00 -0.00000000000E+00 -0.45593999997E+02  0.45594000000E+02  0.51100000000E-03 0. -1.
    9900012    2    1    2    0    0  0.25456251872E+02  0.19287635307E+02  0.29386892873E+02  0.47787272958E+02  0.20000008723E+02 0.  0.
         12    1    1    2    0    0 -0.25456251872E+02 -0.19287635307E+02 -0.29386892873E+02  0.43400727042E+02  0.00000000000E+00 0. -1.
         11    1    3    3    0    0  0.64478342919E+01  0.20522727933E+01  0.85001271832E+01  0.10864554895E+02  0.51100000000E-03 0. -1.
        -11    1    3    3    0    0  0.55419906032E+01  0.21579045373E+01  0.14579628674E+02  0.15745976768E+02  0.51100000000E-03 0.  1.
         12    1    3    3    0    0  0.13466426977E+02  0.15077457976E+02  0.63071370156E+01  0.21176741295E+02  0.00000000000E+00 0. -1.
</event>
<event>
 7    1  0.2653124E-010  0.4778727E+02  0.7816164E-02  0.1312668E+00
        -11   -1    0    0    0    0  0.00000000000E+00  0.00000000000E+00  0.45593999997E+02  0.45594000000E+02  0.51100000000E-03 0. -1.
         11   -1    0    0    0    0 -0.00000000000E+00 -0.00000000000E+00 -0.45593999997E+02  0.45594000000E+02  0.51100000000E-03 0.  1.
    9900012    2    1    2    0    0  0.12560182697E+02 -0.39803620349E+02 -0.11896936089E+02  0.47787268778E+02  0.19999989668E+02 0.  0.
         12    1    1    2    0    0 -0.12560182697E+02  0.39803620349E+02  0.11896936089E+02  0.43400731222E+02  0.00000000000E+00 0. -1.
         11    1    3    3    0    0 -0.23819713461E+01 -0.56564694251E+01 -0.22407925678E+01  0.65338032909E+01  0.51100000000E-03 0. -1.
        -11    1    3    3    0    0  0.31063613709E+01 -0.50706996010E+00  0.20073423508E+01  0.37330985100E+01  0.51100000000E-03 0.  1.
        -12    1    3    3    0    0  0.11835792672E+02 -0.33640080964E+02 -0.11663485872E+02  0.37520366977E+02  0.00000000000E+00 0.  1.
</event>
<event>
 7    1  0.2653124E-010  0.4778727E+02  0.7816164E-02  0.1312668E+00
        -11   -1    0    0    0    0  0.00000000000E+00  0.00000000000E+00  0.45593999997E+02  0.45594000000E+02  0.51100000000E-03 0.  1.
         11   -1    0    0    0    0 -0.00000000000E+00 -0.00000000000E+00 -0.45593999997E+02  0.45594000000E+02  0.51100000000E-03 0. -1.
    9900012    2    1    2    0    0 -0.96112564138E+01 -0.30771322120E+02  0.29058100567E+02  0.47787265865E+02  0.19999976386E+02 0.  0.
         12    1    1    2    0    0  0.96112564138E+01  0.30771322120E+02 -0.29058100567E+02  0.43400734135E+02  0.00000000000E+00 0. -1.
         11    1    3    3    0    0 -0.73335131062E+01 -0.71770340713E+01  0.31103646337E+01  0.10722154679E+02  0.51100000000E-03 0. -1.
        -11    1    3    3    0    0  0.17084113751E+01 -0.23313594130E+00  0.55010859200E+01  0.57649777410E+01  0.51100000000E-03 0.  1.
        -12    1    3    3    0    0 -0.39861546827E+01 -0.23361152108E+02  0.20446650013E+02  0.31300133446E+02  0.00000000000E+00 0.  1.
</event>
<event>
 7    1  0.2653124E-010  0.4778727E+02  0.7816164E-02  0.1312668E+00
        -11   -1    0    0    0    0  0.00000000000E+00  0.00000000000E+00  0.45593999997E+02  0.45594000000E+02  0.51100000000E-03 0.  1.
         11   -1    0    0    0    0 -0.00000000000E+00 -0.00000000000E+00 -0.45593999997E+02  0.45594000000E+02  0.51100000000E-03 0. -1.
    9900012    2    1    2    0    0  0.13556222104E+02  0.15822544069E+02  0.38072287525E+02  0.47787272634E+02  0.20000007246E+02 0.  0.
         12    1    1    2    0    0 -0.13556222104E+02 -0.15822544069E+02 -0.38072287525E+02  0.43400727366E+02  0.00000000000E+00 0. -1.
         11    1    3    3    0    0  0.72660252854E+01  0.62872937299E+01  0.15492399736E+02  0.18230184742E+02  0.51100000000E-03 0. -1.
        -11    1    3    3    0    0  0.98813132803E+01  0.66026335112E+01  0.21837170454E+02  0.24861559386E+02  0.51100000000E-03 0.  1.
         12    1    3    3    0    0 -0.35911164620E+01  0.29326168282E+01  0.74271733529E+00  0.46955285054E+01  0.00000000000E+00 0. -1.
</event>
<event>
 7    1  0.2653124E-010  0.4778728E+02  0.7816164E-02  0.1312668E+00
        -11   -1    0    0    0    0  0.00000000000E+00  0.00000000000E+00  0.45593999997E+02  0.45594000000E+02  0.51100000000E-03 0.  1.
         11   -1    0    0    0    0 -0.00000000000E+00 -0.00000000000E+00 -0.45593999997E+02  0.45594000000E+02  0.51100000000E-03 0. -1.
    9900012    2    1    2    0    0  0.17025380589E+02 -0.39598323246E+02 -0.50726544419E+01  0.47787278679E+02  0.20000034808E+02 0.  0.
         12    1    1    2    0    0 -0.17025380589E+02  0.39598323246E+02  0.50726544419E+01  0.43400721321E+02  0.00000000000E+00 0. -1.
         11    1    3    3    0    0 -0.38008619136E+00 -0.91251029461E+01  0.44887450743E+01  0.10176482786E+02  0.51100000000E-03 0. -1.
        -11    1    3    3    0    0  0.47725781366E+01 -0.16364983470E+02 -0.17891949420E+01  0.17140344362E+02  0.51100000000E-03 0.  1.
         12    1    3    3    0    0  0.12632888644E+02 -0.14108236830E+02 -0.77722045741E+01  0.20470451531E+02  0.00000000000E+00 0. -1.
</event>
<event>
 7    1  0.2653124E-010  0.4778728E+02  0.7816164E-02  0.1312668E+00
        -11   -1    0    0    0    0  0.00000000000E+00  0.00000000000E+00  0.45593999997E+02  0.45594000000E+02  0.51100000000E-03 0. -1.
         11   -1    0    0    0    0 -0.00000000000E+00 -0.00000000000E+00 -0.45593999997E+02  0.45594000000E+02  0.51100000000E-03 0.  1.
    9900012    2    1    2    0    0  0.10586976248E+02 -0.99798910440E+01 -0.40889368912E+02  0.47787276718E+02  0.20000025869E+02 0.  0.
         12    1    1    2    0    0 -0.10586976248E+02  0.99798910440E+01  0.40889368912E+02  0.43400723282E+02  0.00000000000E+00 0. -1.
         11    1    3    3    0    0 -0.23368402328E+01 -0.50668728202E+01 -0.14281901140E+02  0.15333190238E+02  0.51100000000E-03 0. -1.
        -11    1    3    3    0    0  0.56839591836E+01 -0.77303188109E+01 -0.87735830441E+01  0.13001576082E+02  0.51100000000E-03 0.  1.
         12    1    3    3    0    0  0.72398572972E+01  0.28173005871E+01 -0.17833884728E+02  0.19452510398E+02  0.00000000000E+00 0. -1.
</event>
<event>
 7    1  0.2653124E-010  0.4778727E+02  0.7816164E-02  0.1312668E+00
        -11   -1    0    0    0    0  0.00000000000E+00  0.00000000000E+00  0.45593999997E+02  0.45594000000E+02  0.51100000000E-03 0.  1.
         11   -1    0    0    0    0 -0.00000000000E+00 -0.00000000000E+00 -0.45593999997E+02  0.45594000000E+02  0.51100000000E-03 0. -1.
    9900012    2    1    2    0    0  0.31935390365E+01 -0.12118724670E+02  0.41551909309E+02  0.47787270209E+02  0.19999996190E+02 0.  0.
         12    1    1    2    0    0 -0.31935390365E+01  0.12118724670E+02 -0.41551909309E+02  0.43400729791E+02  0.00000000000E+00 0. -1.
         11    1    3    3    0    0  0.50407585120E+01 -0.15807695961E+02  0.23885292942E+02  0.29082636008E+02  0.51100000000E-03 0.  1.
        -11    1    3    3    0    0  0.14662038732E+01  0.51467517509E+00  0.42671204162E+01  0.45412510656E+01  0.51100000000E-03 0. -1.
        -12    1    3    3    0    0 -0.33134233487E+01  0.31742961156E+01  0.13399495951E+02  0.14163383136E+02  0.00000000000E+00 0.  1.
</event>
<event>
 7    1  0.2653124E-010  0.4778726E+02  0.7816164E-02  0.1312668E+00
        -11   -1    0    0    0    0  0.00000000000E+00  0.00000000000E+00  0.45593999997E+02  0.45594000000E+02  0.51100000000E-03 0. -1.
         11   -1    0    0    0    0 -0.00000000000E+00 -0.00000000000E+00 -0.45593999997E+02  0.45594000000E+02  0.51100000000E-03 0.  1.
    9900012    2    1    2    0    0  0.61145455065E+01  0.41056688749E+02 -0.12672218403E+02  0.47787257183E+02  0.19999936802E+02 0.  0.
         12    1    1    2    0    0 -0.61145455065E+01 -0.41056688749E+02  0.12672218403E+02  0.43400742817E+02  0.00000000000E+00 0. -1.
         11    1    3    3    0    0 -0.11694639049E+01  0.99564958680E+01 -0.30038885471E+01  0.10465314255E+02  0.51100000000E-03 0. -1.
        -11    1    3    3    0    0  0.81005897330E+01  0.22740362558E+02  0.48448780020E+00  0.24144945060E+02  0.51100000000E-03 0.  1.
        -12    1    3    3    0    0 -0.81658032156E+00  0.83598303232E+01 -0.10152817656E+02  0.13176997868E+02  0.00000000000E+00 0.  1.
</event>
<event>
 7    1  0.2653124E-010  0.4778727E+02  0.7816164E-02  0.1312668E+00
        -11   -1    0    0    0    0  0.00000000000E+00  0.00000000000E+00  0.45593999997E+02  0.45594000000E+02  0.51100000000E-03 0.  1.
         11   -1    0    0    0    0 -0.00000000000E+00 -0.00000000000E+00 -0.45593999997E+02  0.45594000000E+02  0.51100000000E-03 0. -1.
    9900012    2    1    2    0    0 -0.20344372011E+02 -0.21882257306E+02  0.31478514167E+02  0.47787268307E+02  0.19999987519E+02 0.  0.
         12    1    1    2    0    0  0.20344372011E+02  0.21882257306E+02 -0.31478514167E+02  0.43400731693E+02  0.00000000000E+00 0. -1.
         11    1    3    3    0    0  0.21207670385E+01 -0.10728593455E+01  0.18990137679E+01  0.30421922291E+01  0.51100000000E-03 0. -1.
        -11    1    3    3    0    0 -0.72794078292E+01 -0.24349573510E+01  0.13437014884E+01  0.77925817029E+01  0.51100000000E-03 0.  1.
        -12    1    3    3    0    0 -0.15185731220E+02 -0.18374440609E+02  0.28235798911E+02  0.36952494375E+02  0.00000000000E+00 0.  1.
</event>
<event>
 7    1  0.2653124E-010  0.4778727E+02  0.7816164E-02  0.1312668E+00
        -11   -1    0    0    0    0  0.00000000000E+00  0.00000000000E+00  0.45593999997E+02  0.45594000000E+02  0.51100000000E-03 0.  1.
         11   -1    0    0    0    0 -0.00000000000E+00 -0.00000000000E+00 -0.45593999997E+02  0.45594000000E+02  0.51100000000E-03 0. -1.
    9900012    2    1    2    0    0  0.32991717197E+02 -0.24280165614E+02 -0.14340288800E+02  0.47787265805E+02  0.19999976110E+02 0.  0.
         12    1    1    2    0    0 -0.32991717197E+02  0.24280165614E+02  0.14340288800E+02  0.43400734195E+02  0.00000000000E+00 0. -1.
         11    1    3    3    0    0  0.97061936674E+01 -0.61059851185E+01 -0.73599934831E+01  0.13625812053E+02  0.51100000000E-03 0. -1.
        -11    1    3    3    0    0 -0.16322631631E+01  0.85125696563E+00  0.54576474856E+00  0.19200991842E+01  0.51100000000E-03 0.  1.
         12    1    3    3    0    0  0.24917786692E+02 -0.19025437461E+02 -0.75260600659E+01  0.32241354567E+02  0.00000000000E+00 0. -1.
</event>
<event>
 7    1  0.2653124E-010  0.4778727E+02  0.7816164E-02  0.1312668E+00
        -11   -1    0    0    0    0  0.00000000000E+00  0.00000000000E+00  0.45593999997E+02  0.45594000000E+02  0.51100000000E-03 0.  1.
         11   -1    0    0    0    0 -0.00000000000E+00 -0.00000000000E+00 -0.45593999997E+02  0.45594000000E+02  0.51100000000E-03 0. -1.
    9900012    2    1    2    0    0  0.41184761194E+02 -0.62834824623E+01  0.12163727322E+02  0.47787274559E+02  0.20000016026E+02 0.  0.
         12    1    1    2    0    0 -0.41184761194E+02  0.62834824623E+01 -0.12163727322E+02  0.43400725441E+02  0.00000000000E+00 0. -1.
         11    1    3    3    0    0  0.75137351454E+01 -0.55587030230E+01  0.61244247640E+01  0.11174254968E+02  0.51100000000E-03 0. -1.
        -11    1    3    3    0    0  0.29518011172E+01 -0.21736392368E+01  0.45234333228E+01  0.58223093918E+01  0.51100000000E-03 0.  1.
        -12    1    3    3    0    0  0.30719224931E+02  0.14488597974E+01  0.15158692350E+01  0.30790710200E+02  0.00000000000E+00 0.  1.
</event>
<event>
 7    1  0.2653124E-010  0.4778727E+02  0.7816164E-02  0.1312668E+00
        -11   -1    0    0    0    0  0.00000000000E+00  0.00000000000E+00  0.45593999997E+02  0.45594000000E+02  0.51100000000E-03 0.  1.
         11   -1    0    0    0    0 -0.00000000000E+00 -0.00000000000E+00 -0.45593999997E+02  0.45594000000E+02  0.51100000000E-03 0. -1.
    9900012    2    1    2    0    0 -0.15746347302E+02  0.38247253963E+01  0.40262228779E+02  0.47787273693E+02  0.20000012074E+02 0.  0.
         12    1    1    2    0    0  0.15746347302E+02 -0.38247253963E+01 -0.40262228779E+02  0.43400726307E+02  0.00000000000E+00 0. -1.
         11    1    3    3    0    0 -0.40091281603E+00  0.44358714876E+01  0.23554514430E+01  0.50384361366E+01  0.51100000000E-03 0. -1.
        -11    1    3    3    0    0 -0.10016843963E+02 -0.20318042762E+01  0.99884688096E+01  0.14291077672E+02  0.51100000000E-03 0.  1.
        -12    1    3    3    0    0 -0.53285905230E+01  0.14206581849E+01  0.27918308527E+02  0.28457759884E+02  0.00000000000E+00 0.  1.
</event>
<event>
 7    1  0.2653124E-010  0.4778727E+02  0.7816164E-02  0.1312668E+00
        -11   -1    0    0    0    0  0.00000000000E+00  0.00000000000E+00  0.45593999997E+02  0.45594000000E+02  0.51100000000E-03 0.  1.
         11   -1    0    0    0    0 -0.00000000000E+00 -0.00000000000E+00 -0.45593999997E+02  0.45594000000E+02  0.51100000000E-03 0. -1.
    9900012    2    1    2    0    0  0.22254565456E+02 -0.19151846815E+02  0.31961919406E+02  0.47787271755E+02  0.20000003240E+02 0.  0.
         12    1    1    2    0    0 -0.22254565456E+02  0.19151846815E+02 -0.31961919406E+02  0.43400728245E+02  0.00000000000E+00 0. -1.
         11    1    3    3    0    0  0.90677621246E+01 -0.60020548686E+01  0.17222905738E+02  0.20368540815E+02  0.51100000000E-03 0. -1.
        -11    1    3    3    0    0  0.66146233796E+01 -0.25253844416E+01  0.13003169454E+02  0.14805851044E+02  0.51100000000E-03 0.  1.
         12    1    3    3    0    0  0.65721799518E+01 -0.10624407505E+02  0.17358442141E+01  0.12612879896E+02  0.00000000000E+00 0. -1.
</event>
<event>
 7    1  0.2653124E-010  0.4778727E+02  0.7816164E-02  0.1312668E+00
        -11   -1    0    0    0    0  0.00000000000E+00  0.00000000000E+00  0.45593999997E+02  0.45594000000E+02  0.51100000000E-03 0. -1.
         11   -1    0    0    0    0 -0.00000000000E+00 -0.00000000000E+00 -0.45593999997E+02  0.45594000000E+02  0.51100000000E-03 0.  1.
    9900012    2    1    2    0    0 -0.42827353964E+02  0.23979813855E+01 -0.66098943757E+01  0.47787271135E+02  0.20000000415E+02 0.  0.
         12    1    1    2    0    0  0.42827353964E+02 -0.23979813855E+01  0.66098943757E+01  0.43400728865E+02  0.00000000000E+00 0. -1.
         11    1    3    3    0    0 -0.27848382604E+02  0.65464803757E+01  0.51799418085E+00  0.28612185118E+02  0.51100000000E-03 0. -1.
        -11    1    3    3    0    0 -0.11587114202E+02 -0.23348329751E+01 -0.89873752067E+00  0.11854129658E+02  0.51100000000E-03 0.  1.
        -12    1    3    3    0    0 -0.33918571585E+01 -0.18136660152E+01 -0.62291510358E+01  0.73209563600E+01  0.00000000000E+00 0.  1.
</event>
<event>
 7    1  0.2653124E-010  0.4778727E+02  0.7816164E-02  0.1312668E+00
        -11   -1    0    0    0    0  0.00000000000E+00  0.00000000000E+00  0.45593999997E+02  0.45594000000E+02  0.51100000000E-03 0.  1.
         11   -1    0    0    0    0 -0.00000000000E+00 -0.00000000000E+00 -0.45593999997E+02  0.45594000000E+02  0.51100000000E-03 0. -1.
    9900012    2    1    2    0    0  0.39916274352E+02 -0.15979256371E+02  0.59141937839E+01  0.47787270969E+02  0.19999999656E+02 0.  0.
         12    1    1    2    0    0 -0.39916274352E+02  0.15979256371E+02 -0.59141937839E+01  0.43400729031E+02  0.00000000000E+00 0. -1.
         11    1    3    3    0    0  0.12317009726E+02 -0.24408028741E+01 -0.62660614821E+01  0.14033166928E+02  0.51100000000E-03 0. -1.
        -11    1    3    3    0    0  0.19665171906E+02 -0.64122258936E+01  0.65618364026E+01  0.21700076595E+02  0.51100000000E-03 0.  1.
        -12    1    3    3    0    0  0.79340927193E+01 -0.71262276034E+01  0.56184188634E+01  0.12054027446E+02  0.00000000000E+00 0.  1.
</event>
<event>
 7    1  0.2653124E-010  0.4778727E+02  0.7816164E-02  0.1312668E+00
        -11   -1    0    0    0    0  0.00000000000E+00  0.00000000000E+00  0.45593999997E+02  0.45594000000E+02  0.51100000000E-03 0. -1.
         11   -1    0    0    0    0 -0.00000000000E+00 -0.00000000000E+00 -0.45593999997E+02  0.45594000000E+02  0.51100000000E-03 0.  1.
    9900012    2    1    2    0    0  0.31600628341E+02 -0.29320895787E+02  0.50307662767E+01  0.47787271312E+02  0.20000001220E+02 0.  0.
         12    1    1    2    0    0 -0.31600628341E+02  0.29320895787E+02 -0.50307662767E+01  0.43400728688E+02  0.00000000000E+00 0. -1.
         11    1    3    3    0    0  0.20703874761E+01 -0.44448333439E+01 -0.48683146584E+01  0.69096697194E+01  0.51100000000E-03 0. -1.
        -11    1    3    3    0    0  0.67863705051E+01 -0.16019670097E+01  0.31108729524E+01  0.76353555071E+01  0.51100000000E-03 0.  1.
        -12    1    3    3    0    0  0.22743870360E+02 -0.23274095434E+02  0.67882079827E+01  0.33242246086E+02  0.00000000000E+00 0.  1.
</event>
<event>
 7    1  0.2653124E-010  0.4778727E+02  0.7816164E-02  0.1312668E+00
        -11   -1    0    0    0    0  0.00000000000E+00  0.00000000000E+00  0.45593999997E+02  0.45594000000E+02  0.51100000000E-03 0.  1.
         11   -1    0    0    0    0 -0.00000000000E+00 -0.00000000000E+00 -0.45593999997E+02  0.45594000000E+02  0.51100000000E-03 0. -1.
    9900012    2    1    2    0    0  0.42026904699E+01  0.35091590198E+02  0.25190095579E+02  0.47787271606E+02  0.20000002561E+02 0.  0.
         12    1    1    2    0    0 -0.42026904699E+01 -0.35091590198E+02 -0.25190095579E+02  0.43400728394E+02  0.00000000000E+00 0. -1.
         11    1    3    3    0    0  0.53305591368E+01  0.53395655591E+01  0.10607470167E+02  0.13017075119E+02  0.51100000000E-03 0. -1.
        -11    1    3    3    0    0  0.11561065362E+01  0.36726398427E+01 -0.14010178090E+01  0.40972816476E+01  0.51100000000E-03 0.  1.
        -12    1    3    3    0    0 -0.22839752031E+01  0.26079384797E+02  0.15983643221E+02  0.30672914839E+02  0.00000000000E+00 0.  1.
</event>
<event>
 7    1  0.2653124E-010  0.4778727E+02  0.7816164E-02  0.1312668E+00
        -11   -1    0    0    0    0  0.00000000000E+00  0.00000000000E+00  0.45593999997E+02  0.45594000000E+02  0.51100000000E-03 0.  1.
         11   -1    0    0    0    0 -0.00000000000E+00 -0.00000000000E+00 -0.45593999997E+02  0.45594000000E+02  0.51100000000E-03 0. -1.
    9900012    2    1    2    0    0  0.70017967223E+01 -0.62499857127E+01  0.42373763173E+02  0.47787270926E+02  0.19999999458E+02 0.  0.
         12    1    1    2    0    0 -0.70017967223E+01  0.62499857127E+01 -0.42373763173E+02  0.43400729074E+02  0.00000000000E+00 0. -1.
         11    1    3    3    0    0 -0.74821946069E+00  0.57507234375E+00  0.19639076352E+00  0.96390360256E+00  0.51100000000E-03 0. -1.
        -11    1    3    3    0    0  0.76936048393E+01 -0.12391578860E+02  0.27556302755E+02  0.31178399635E+02  0.51100000000E-03 0.  1.
        -12    1    3    3    0    0  0.56411343704E-01  0.55665208034E+01  0.14621069655E+02  0.15644967688E+02  0.00000000000E+00 0.  1.
</event>
<event>
 7    1  0.2653124E-010  0.4778726E+02  0.7816164E-02  0.1312668E+00
        -11   -1    0    0    0    0  0.00000000000E+00  0.00000000000E+00  0.45593999997E+02  0.45594000000E+02  0.51100000000E-03 0.  1.
         11   -1    0    0    0    0 -0.00000000000E+00 -0.00000000000E+00 -0.45593999997E+02  0.45594000000E+02  0.51100000000E-03 0. -1.
    9900012    2    1    2    0    0 -0.28049724628E+02  0.22595251016E+02  0.24213454759E+02  0.47787264850E+02  0.19999971755E+02 0.  0.
         12    1    1    2    0    0  0.28049724628E+02 -0.22595251016E+02 -0.24213454759E+02  0.43400735150E+02  0.00000000000E+00 0. -1.
         11    1    3    3    0    0 -0.13191765331E+02  0.16128053607E+02  0.76750391362E+01  0.22204571865E+02  0.51100000000E-03 0. -1.
        -11    1    3    3    0    0 -0.11441347336E+02  0.92344729659E+01  0.10305259776E+02  0.17954896245E+02  0.51100000000E-03 0.  1.
         12    1    3    3    0    0 -0.34166119613E+01 -0.27672755569E+01  0.62331558468E+01  0.76277967404E+01  0.00000000000E+00 0. -1.
</event>
<event>
 7    1  0.2653124E-010  0.4778727E+02  0.7816164E-02  0.1312668E+00
        -11   -1    0    0    0    0  0.00000000000E+00  0.00000000000E+00  0.45593999997E+02  0.45594000000E+02  0.51100000000E-03 0.  1.
         11   -1    0    0    0    0 -0.00000000000E+00 -0.00000000000E+00 -0.45593999997E+02  0.45594000000E+02  0.51100000000E-03 0. -1.
    9900012    2    1    2    0    0  0.32309396629E+02 -0.27400277626E+02  0.94313829803E+01  0.47787270635E+02  0.19999998133E+02 0.  0.
         12    1    1    2    0    0 -0.32309396629E+02  0.27400277626E+02 -0.94313829803E+01  0.43400729365E+02  0.00000000000E+00 0. -1.
         11    1    3    3    0    0  0.78575961244E+01 -0.73453063289E+01  0.42133901916E+01  0.11551969490E+02  0.51100000000E-03 0. -1.
        -11    1    3    3    0    0  0.70193571830E+00  0.26853807900E+01  0.14706868426E+01  0.31411628086E+01  0.51100000000E-03 0.  1.
        -12    1    3    3    0    0  0.23749864787E+02 -0.22740352087E+02  0.37473059460E+01  0.33094138337E+02  0.00000000000E+00 0.  1.
</event>
<event>
 7    1  0.2653124E-010  0.4778727E+02  0.7816164E-02  0.1312668E+00
        -11   -1    0    0    0    0  0.00000000000E+00  0.00000000000E+00  0.45593999997E+02  0.45594000000E+02  0.51100000000E-03 0.  1.
         11   -1    0    0    0    0 -0.00000000000E+00 -0.00000000000E+00 -0.45593999997E+02  0.45594000000E+02  0.51100000000E-03 0. -1.
    9900012    2    1    2    0    0  0.42394419082E+02 -0.64308128523E+01  0.67068054622E+01  0.47787270021E+02  0.19999995332E+02 0.  0.
         12    1    1    2    0    0 -0.42394419082E+02  0.64308128523E+01 -0.67068054622E+01  0.43400729979E+02  0.00000000000E+00 0. -1.
         11    1    3    3    0    0  0.70004332054E+01 -0.23713571980E+01  0.68190622717E+01  0.10056292088E+02  0.51100000000E-03 0. -1.
        -11    1    3    3    0    0  0.10618753967E+02 -0.50000236143E+01  0.43923668646E+01  0.12532001392E+02  0.51100000000E-03 0.  1.
         12    1    3    3    0    0  0.24775231910E+02  0.94056795995E+00 -0.45046236742E+01  0.25198976541E+02  0.00000000000E+00 0. -1.
</event>
<event>
 7    1  0.2653124E-010  0.4778727E+02  0.7816164E-02  0.1312668E+00
        -11   -1    0    0    0    0  0.00000000000E+00  0.00000000000E+00  0.45593999997E+02  0.45594000000E+02  0.51100000000E-03 0.  1.
         11   -1    0    0    0    0 -0.00000000000E+00 -0.00000000000E+00 -0.45593999997E+02  0.45594000000E+02  0.51100000000E-03 0. -1.
    9900012    2    1    2    0    0 -0.33991167000E+02 -0.51587953998E+01  0.26487934027E+02  0.47787271285E+02  0.20000001096E+02 0.  0.
         12    1    1    2    0    0  0.33991167000E+02  0.51587953998E+01 -0.26487934027E+02  0.43400728715E+02  0.00000000000E+00 0. -1.
         11    1    3    3    0    0 -0.20737062408E+01  0.17419476278E+01  0.37082976739E-01  0.27085078031E+01  0.51100000000E-03 0. -1.
        -11    1    3    3    0    0 -0.90562744088E+01  0.45009258813E+01  0.33985106796E+01  0.10668847879E+02  0.51100000000E-03 0.  1.
        -12    1    3    3    0    0 -0.22861186350E+02 -0.11401668909E+02  0.23052340371E+02  0.34409915603E+02  0.00000000000E+00 0.  1.
</event>
<event>
 7    1  0.2653124E-010  0.4778727E+02  0.7816164E-02  0.1312668E+00
        -11   -1    0    0    0    0  0.00000000000E+00  0.00000000000E+00  0.45593999997E+02  0.45594000000E+02  0.51100000000E-03 0. -1.
         11   -1    0    0    0    0 -0.00000000000E+00 -0.00000000000E+00 -0.45593999997E+02  0.45594000000E+02  0.51100000000E-03 0.  1.
    9900012    2    1    2    0    0 -0.91664906309E+01 -0.37591041945E+01 -0.42254795800E+02  0.47787272092E+02  0.20000004776E+02 0.  0.
         12    1    1    2    0    0  0.91664906309E+01  0.37591041945E+01  0.42254795800E+02  0.43400727908E+02  0.00000000000E+00 0. -1.
         11    1    3    3    0    0 -0.65451784110E+00 -0.47470966762E+00 -0.42593981689E+01  0.43354602865E+01  0.51100000000E-03 0. -1.
        -11    1    3    3    0    0  0.91889609367E+00 -0.15471206042E+01 -0.32193428689E+02  0.32243678500E+02  0.51100000000E-03 0.  1.
         12    1    3    3    0    0 -0.94308688834E+01 -0.17372739227E+01 -0.58019689420E+01  0.11208133305E+02  0.00000000000E+00 0. -1.
</event>
<event>
 7    1  0.2653124E-010  0.4778727E+02  0.7816164E-02  0.1312668E+00
        -11   -1    0    0    0    0  0.00000000000E+00  0.00000000000E+00  0.45593999997E+02  0.45594000000E+02  0.51100000000E-03 0.  1.
         11   -1    0    0    0    0 -0.00000000000E+00 -0.00000000000E+00 -0.45593999997E+02  0.45594000000E+02  0.51100000000E-03 0. -1.
    9900012    2    1    2    0    0  0.17731511362E+02  0.37143455794E+02  0.13768815387E+02  0.47787273271E+02  0.20000010150E+02 0.  0.
         12    1    1    2    0    0 -0.17731511362E+02 -0.37143455794E+02 -0.13768815387E+02  0.43400726729E+02  0.00000000000E+00 0. -1.
         11    1    3    3    0    0  0.42902375962E+01  0.44689380162E+00  0.47749772538E+01  0.64347696724E+01  0.51100000000E-03 0. -1.
        -11    1    3    3    0    0  0.31313277131E+01  0.14057161859E+01 -0.25244521607E+00  0.34416536854E+01  0.51100000000E-03 0.  1.
        -12    1    3    3    0    0  0.10309946052E+02  0.35290845806E+02  0.92462833490E+01  0.37910849913E+02  0.00000000000E+00 0.  1.
</event>
<event>
 7    1  0.2653124E-010  0.4778727E+02  0.7816164E-02  0.1312668E+00
        -11   -1    0    0    0    0  0.00000000000E+00  0.00000000000E+00  0.45593999997E+02  0.45594000000E+02  0.51100000000E-03 0. -1.
         11   -1    0    0    0    0 -0.00000000000E+00 -0.00000000000E+00 -0.45593999997E+02  0.45594000000E+02  0.51100000000E-03 0.  1.
    9900012    2    1    2    0    0  0.19490336294E+02  0.21991355602E+02 -0.31939480592E+02  0.47787270161E+02  0.19999995974E+02 0.  0.
         12    1    1    2    0    0 -0.19490336294E+02 -0.21991355602E+02  0.31939480592E+02  0.43400729839E+02  0.00000000000E+00 0. -1.
         11    1    3    3    0    0  0.79841186116E+01  0.50329052076E+01 -0.49869623847E+01  0.10674552867E+02  0.51100000000E-03 0.  1.
        -11    1    3    3    0    0  0.20238951581E+01 -0.16015472202E+01  0.51619341638E+00  0.26320260283E+01  0.51100000000E-03 0. -1.
        -12    1    3    3    0    0  0.94823225245E+01  0.18559997615E+02 -0.27468711623E+02  0.34480691266E+02  0.00000000000E+00 0.  1.
</event>
<event>
 7    1  0.2653124E-010  0.4778727E+02  0.7816164E-02  0.1312668E+00
        -11   -1    0    0    0    0  0.00000000000E+00  0.00000000000E+00  0.45593999997E+02  0.45594000000E+02  0.51100000000E-03 0.  1.
         11   -1    0    0    0    0 -0.00000000000E+00 -0.00000000000E+00 -0.45593999997E+02  0.45594000000E+02  0.51100000000E-03 0. -1.
    9900012    2    1    2    0    0 -0.30069942823E+02  0.62922710087E+01  0.30656632996E+02  0.47787270946E+02  0.19999999550E+02 0.  0.
         12    1    1    2    0    0  0.30069942823E+02 -0.62922710087E+01 -0.30656632996E+02  0.43400729054E+02  0.00000000000E+00 0. -1.
         11    1    3    3    0    0  0.13715603229E+01  0.11685843229E+01  0.79496949973E+01  0.81513445425E+01  0.51100000000E-03 0. -1.
        -11    1    3    3    0    0 -0.92623894218E+01 -0.86368691414E-01  0.96528543270E+01  0.13378225378E+02  0.51100000000E-03 0.  1.
         12    1    3    3    0    0 -0.22179113724E+02  0.52100553772E+01  0.13054083671E+02  0.26257701025E+02  0.00000000000E+00 0. -1.
</event>
<event>
 7    1  0.2653124E-010  0.4778727E+02  0.7816164E-02  0.1312668E+00
        -11   -1    0    0    0    0  0.00000000000E+00  0.00000000000E+00  0.45593999997E+02  0.45594000000E+02  0.51100000000E-03 0. -1.
         11   -1    0    0    0    0 -0.00000000000E+00 -0.00000000000E+00 -0.45593999997E+02  0.45594000000E+02  0.51100000000E-03 0.  1.
    9900012    2    1    2    0    0 -0.35829652436E+02 -0.20168668661E+02 -0.13895466239E+02  0.47787272227E+02  0.20000005392E+02 0.  0.
         12    1    1    2    0    0  0.35829652436E+02  0.20168668661E+02  0.13895466239E+02  0.43400727773E+02  0.00000000000E+00 0. -1.
         11    1    3    3    0    0 -0.53221253419E-01 -0.16906393667E+00  0.24647989120E+00  0.30359136085E+00  0.51100000000E-03 0. -1.
        -11    1    3    3    0    0 -0.35892274753E+02 -0.14484861701E+02 -0.15675223232E+02  0.41758582699E+02  0.51100000000E-03 0.  1.
        -12    1    3    3    0    0  0.11584357007E+00 -0.55147430236E+01  0.15332771025E+01  0.57250981670E+01  0.00000000000E+00 0.  1.
</event>
<event>
 7    1  0.2653124E-010  0.4778727E+02  0.7816164E-02  0.1312668E+00
        -11   -1    0    0    0    0  0.00000000000E+00  0.00000000000E+00  0.45593999997E+02  0.45594000000E+02  0.51100000000E-03 0. -1.
         11   -1    0    0    0    0 -0.00000000000E+00 -0.00000000000E+00 -0.45593999997E+02  0.45594000000E+02  0.51100000000E-03 0.  1.
    9900012    2    1    2    0    0 -0.34620708702E+02  0.22582277174E+02  0.13231420406E+02  0.47787271903E+02  0.20000003913E+02 0.  0.
         12    1    1    2    0    0  0.34620708702E+02 -0.22582277174E+02 -0.13231420406E+02  0.43400728097E+02  0.00000000000E+00 0. -1.
         11    1    3    3    0    0 -0.22030421750E+02  0.14077136936E+02  0.15107051782E+02  0.30194838642E+02  0.51100000000E-03 0. -1.
        -11    1    3    3    0    0 -0.48070179933E+01  0.77394632343E+01  0.11981326631E+01  0.91892456319E+01  0.51100000000E-03 0.  1.
        -12    1    3    3    0    0 -0.77832689590E+01  0.76567700312E+00 -0.30737640388E+01  0.84031876290E+01  0.00000000000E+00 0.  1.
</event>
<event>
 7    1  0.2781068E-010  0.4778727E+02  0.7816164E-02  0.1312668E+00
        -11   -1    0    0    0    0  0.00000000000E+00  0.00000000000E+00  0.45593999997E+02  0.45594000000E+02  0.51100000000E-03 0. -1.
         11   -1    0    0    0    0 -0.00000000000E+00 -0.00000000000E+00 -0.45593999997E+02  0.45594000000E+02  0.51100000000E-03 0.  1.
    9900012    2    1    2    0    0 -0.19706311890E+02 -0.40543747837E+01 -0.38455771520E+02  0.47787273665E+02  0.20000011947E+02 0.  0.
         12    1    1    2    0    0  0.19706311890E+02  0.40543747837E+01  0.38455771520E+02  0.43400726335E+02  0.00000000000E+00 0. -1.
         11    1    3    3    0    0 -0.12246988064E+02  0.24450776993E+01 -0.16956286905E+02  0.21059031019E+02  0.51100000000E-03 0. -1.
        -11    1    3    3    0    0 -0.48912094676E+01 -0.23045488077E+01 -0.21113171722E+02  0.21794515266E+02  0.51100000000E-03 0.  1.
         12    1    3    3    0    0 -0.25681143584E+01 -0.41949036753E+01 -0.38631289312E+00  0.49337273794E+01  0.00000000000E+00 0. -1.
</event>
<event>
 7    1  0.2696566E-010  0.4778727E+02  0.7816164E-02  0.1312668E+00
        -11   -1    0    0    0    0  0.00000000000E+00  0.00000000000E+00  0.45593999997E+02  0.45594000000E+02  0.51100000000E-03 0.  1.
         11   -1    0    0    0    0 -0.00000000000E+00 -0.00000000000E+00 -0.45593999997E+02  0.45594000000E+02  0.51100000000E-03 0. -1.
    9900012    2    1    2    0    0 -0.73019818551E+01 -0.24218022043E+02  0.35267438055E+02  0.47787265932E+02  0.19999976690E+02 0.  0.
         12    1    1    2    0    0  0.73019818551E+01  0.24218022043E+02 -0.35267438055E+02  0.43400734068E+02  0.00000000000E+00 0. -1.
         11    1    3    3    0    0 -0.76997465822E+01 -0.81015880562E+01  0.15617269245E+02  0.19204711021E+02  0.51100000000E-03 0. -1.
        -11    1    3    3    0    0 -0.18194289378E+01 -0.13993052250E+02  0.20941564970E+02  0.25252029158E+02  0.51100000000E-03 0.  1.
         12    1    3    3    0    0  0.22171936649E+01 -0.21233817370E+01 -0.12913961603E+01  0.33305257530E+01  0.00000000000E+00 0. -1.
</event>
<event>
 7    1  0.2653124E-010  0.4778727E+02  0.7816164E-02  0.1312668E+00
        -11   -1    0    0    0    0  0.00000000000E+00  0.00000000000E+00  0.45593999997E+02  0.45594000000E+02  0.51100000000E-03 0.  1.
         11   -1    0    0    0    0 -0.00000000000E+00 -0.00000000000E+00 -0.45593999997E+02  0.45594000000E+02  0.51100000000E-03 0. -1.
    9900012    2    1    2    0    0  0.15795790534E+02 -0.21104909729E+01  0.40369073731E+02  0.47787270920E+02  0.19999999434E+02 0.  0.
         12    1    1    2    0    0 -0.15795790534E+02  0.21104909729E+01 -0.40369073731E+02  0.43400729080E+02  0.00000000000E+00 0. -1.
         11    1    3    3    0    0  0.50078894288E+00 -0.77145148604E+00  0.14292326478E+01  0.16995979475E+01  0.51100000000E-03 0. -1.
        -11    1    3    3    0    0  0.69323934344E+01 -0.79902217794E+01  0.31057970284E+02  0.32810047870E+02  0.51100000000E-03 0.  1.
         12    1    3    3    0    0  0.83626081563E+01  0.66511822926E+01  0.78818707995E+01  0.13277625103E+02  0.00000000000E+00 0. -1.
</event>
<event>
 7    1  0.2653124E-010  0.4778727E+02  0.7816164E-02  0.1312668E+00
        -11   -1    0    0    0    0  0.00000000000E+00  0.00000000000E+00  0.45593999997E+02  0.45594000000E+02  0.51100000000E-03 0.  1.
         11   -1    0    0    0    0 -0.00000000000E+00 -0.00000000000E+00 -0.45593999997E+02  0.45594000000E+02  0.51100000000E-03 0. -1.
    9900012    2    1    2    0    0  0.34300514283E+02 -0.26181587155E+02  0.46499892251E+01  0.47787272059E+02  0.20000004626E+02 0.  0.
         12    1    1    2    0    0 -0.34300514283E+02  0.26181587155E+02 -0.46499892251E+01  0.43400727941E+02  0.00000000000E+00 0. -1.
         11    1    3    3    0    0  0.15009205267E+02 -0.12133830806E+02  0.56958749460E+01  0.20123346750E+02  0.51100000000E-03 0. -1.
        -11    1    3    3    0    0  0.77895657561E+01 -0.47506838032E+01  0.63619827097E+01  0.11123001192E+02  0.51100000000E-03 0.  1.
         12    1    3    3    0    0  0.11501743260E+02 -0.92970725460E+01 -0.74078684307E+01  0.16540924116E+02  0.00000000000E+00 0. -1.
</event>
<event>
 7    1  0.2653124E-010  0.4778728E+02  0.7816164E-02  0.1312668E+00
        -11   -1    0    0    0    0  0.00000000000E+00  0.00000000000E+00  0.45593999997E+02  0.45594000000E+02  0.51100000000E-03 0.  1.
         11   -1    0    0    0    0 -0.00000000000E+00 -0.00000000000E+00 -0.45593999997E+02  0.45594000000E+02  0.51100000000E-03 0. -1.
    9900012    2    1    2    0    0  0.38629269593E+02 -0.14694898120E+02  0.13246218278E+02  0.47787276518E+02  0.20000024958E+02 0.  0.
         12    1    1    2    0    0 -0.38629269593E+02  0.14694898120E+02 -0.13246218278E+02  0.43400723482E+02  0.00000000000E+00 0. -1.
         11    1    3    3    0    0 -0.67227124113E+00 -0.14669424559E+00 -0.78929007409E+00  0.10471136068E+01  0.51100000000E-03 0. -1.
        -11    1    3    3    0    0  0.18882960560E+02 -0.22280900086E+01 -0.10740547721E+00  0.19014260984E+02  0.51100000000E-03 0.  1.
        -12    1    3    3    0    0  0.20418580275E+02 -0.12320113866E+02  0.14142913829E+02  0.27725901927E+02  0.00000000000E+00 0.  1.
</event>
<event>
 7    1  0.2653124E-010  0.4778726E+02  0.7816164E-02  0.1312668E+00
        -11   -1    0    0    0    0  0.00000000000E+00  0.00000000000E+00  0.45593999997E+02  0.45594000000E+02  0.51100000000E-03 0.  1.
         11   -1    0    0    0    0 -0.00000000000E+00 -0.00000000000E+00 -0.45593999997E+02  0.45594000000E+02  0.51100000000E-03 0. -1.
    9900012    2    1    2    0    0  0.13808054803E+01 -0.12824276042E+02  0.41439780505E+02  0.47787261665E+02  0.19999957234E+02 0.  0.
         12    1    1    2    0    0 -0.13808054803E+01  0.12824276042E+02 -0.41439780505E+02  0.43400738335E+02  0.00000000000E+00 0. -1.
         11    1    3    3    0    0 -0.38386026262E+00  0.98734896646E+00  0.15102876227E+02  0.15139982737E+02  0.51100000000E-03 0. -1.
        -11    1    3    3    0    0  0.45800125415E+01 -0.10845108163E+02  0.26003087138E+02  0.28543885981E+02  0.51100000000E-03 0.  1.
        -12    1    3    3    0    0 -0.28153467986E+01 -0.29665168456E+01  0.33381713998E+00  0.41033929466E+01  0.00000000000E+00 0.  1.
</event>
<event>
 7    1  0.2653124E-010  0.4778728E+02  0.7816164E-02  0.1312668E+00
        -11   -1    0    0    0    0  0.00000000000E+00  0.00000000000E+00  0.45593999997E+02  0.45594000000E+02  0.51100000000E-03 0. -1.
         11   -1    0    0    0    0 -0.00000000000E+00 -0.00000000000E+00 -0.45593999997E+02  0.45594000000E+02  0.51100000000E-03 0.  1.
    9900012    2    1    2    0    0 -0.38482894754E+02  0.18839982197E+02 -0.69097531431E+01  0.47787276431E+02  0.20000024560E+02 0.  0.
         12    1    1    2    0    0  0.38482894754E+02 -0.18839982197E+02  0.69097531431E+01  0.43400723569E+02  0.00000000000E+00 0. -1.
         11    1    3    3    0    0 -0.41810743023E+00  0.15697026007E+01  0.29843649029E+01  0.33978249238E+01  0.51100000000E-03 0. -1.
        -11    1    3    3    0    0 -0.10801365133E+02  0.10676923249E+02 -0.43382895549E+01  0.15795155439E+02  0.51100000000E-03 0.  1.
        -12    1    3    3    0    0 -0.27263422190E+02  0.65933563476E+01 -0.55558284912E+01  0.28594296069E+02  0.00000000000E+00 0.  1.
</event>
<event>
 7    1  0.2653124E-010  0.4778727E+02  0.7816164E-02  0.1312668E+00
        -11   -1    0    0    0    0  0.00000000000E+00  0.00000000000E+00  0.45593999997E+02  0.45594000000E+02  0.51100000000E-03 0. -1.
         11   -1    0    0    0    0 -0.00000000000E+00 -0.00000000000E+00 -0.45593999997E+02  0.45594000000E+02  0.51100000000E-03 0.  1.
    9900012    2    1    2    0    0 -0.68109494285E+01  0.22822661996E+02 -0.36281677087E+02  0.47787273912E+02  0.20000013075E+02 0.  0.
         12    1    1    2    0    0  0.68109494285E+01 -0.22822661996E+02  0.36281677087E+02  0.43400726088E+02  0.00000000000E+00 0. -1.
         11    1    3    3    0    0 -0.60185927786E+01  0.10320695852E+02 -0.12711084043E+02  0.17444537245E+02  0.51100000000E-03 0. -1.
        -11    1    3    3    0    0  0.35362091155E-01  0.15532547942E+02 -0.21700846927E+02  0.26686851700E+02  0.51100000000E-03 0.  1.
        -12    1    3    3    0    0 -0.82771874108E+00 -0.30305817979E+01 -0.18697461179E+01  0.36558849672E+01  0.00000000000E+00 0.  1.
</event>
<event>
 7    1  0.2653124E-010  0.4778728E+02  0.7816164E-02  0.1312668E+00
        -11   -1    0    0    0    0  0.00000000000E+00  0.00000000000E+00  0.45593999997E+02  0.45594000000E+02  0.51100000000E-03 0.  1.
         11   -1    0    0    0    0 -0.00000000000E+00 -0.00000000000E+00 -0.45593999997E+02  0.45594000000E+02  0.51100000000E-03 0. -1.
    9900012    2    1    2    0    0  0.37159267606E+02  0.10294820743E+02  0.19920547740E+02  0.47787277363E+02  0.20000028808E+02 0.  0.
         12    1    1    2    0    0 -0.37159267606E+02 -0.10294820743E+02 -0.19920547740E+02  0.43400722637E+02  0.00000000000E+00 0. -1.
         11    1    3    3    0    0  0.19523691736E+02  0.51828616540E+01  0.15345264733E+02  0.25367572685E+02  0.51100000000E-03 0. -1.
        -11    1    3    3    0    0  0.71944872740E+01  0.88168003611E+00  0.78532570419E+01  0.10686985227E+02  0.51100000000E-03 0.  1.
        -12    1    3    3    0    0  0.10441088596E+02  0.42302790530E+01 -0.32779740346E+01  0.11732719451E+02  0.00000000000E+00 0.  1.
</event>
<event>
 7    1  0.2653124E-010  0.4778727E+02  0.7816164E-02  0.1312668E+00
        -11   -1    0    0    0    0  0.00000000000E+00  0.00000000000E+00  0.45593999997E+02  0.45594000000E+02  0.51100000000E-03 0.  1.
         11   -1    0    0    0    0 -0.00000000000E+00 -0.00000000000E+00 -0.45593999997E+02  0.45594000000E+02  0.51100000000E-03 0. -1.
    9900012    2    1    2    0    0  0.10338021342E+00 -0.28011424969E+02  0.33150757850E+02  0.47787270026E+02  0.19999995357E+02 0.  0.
         12    1    1    2    0    0 -0.10338021342E+00  0.28011424969E+02 -0.33150757850E+02  0.43400729974E+02  0.00000000000E+00 0. -1.
         11    1    3    3    0    0 -0.27443556779E+01 -0.12446776580E+01  0.49433513041E+01  0.57894242318E+01  0.51100000000E-03 0. -1.
        -11    1    3    3    0    0  0.88207758938E+01 -0.10246272483E+02  0.13155849397E+02  0.18864478810E+02  0.51100000000E-03 0.  1.
        -12    1    3    3    0    0 -0.59730400025E+01 -0.16520474828E+02  0.15051557149E+02  0.23133366984E+02  0.00000000000E+00 0.  1.
</event>
<event>
 7    1  0.2653124E-010  0.4778727E+02  0.7816164E-02  0.1312668E+00
        -11   -1    0    0    0    0  0.00000000000E+00  0.00000000000E+00  0.45593999997E+02  0.45594000000E+02  0.51100000000E-03 0.  1.
         11   -1    0    0    0    0 -0.00000000000E+00 -0.00000000000E+00 -0.45593999997E+02  0.45594000000E+02  0.51100000000E-03 0. -1.
    9900012    2    1    2    0    0  0.14927517249E+02  0.23843475018E+02  0.33049673508E+02  0.47787274302E+02  0.20000014854E+02 0.  0.
         12    1    1    2    0    0 -0.14927517249E+02 -0.23843475018E+02 -0.33049673508E+02  0.43400725698E+02  0.00000000000E+00 0. -1.
         11    1    3    3    0    0  0.41048979340E+01  0.13470029802E+02  0.13117328540E+02  0.19244640766E+02  0.51100000000E-03 0. -1.
        -11    1    3    3    0    0  0.13765451724E+02  0.10728185225E+02  0.16662504656E+02  0.24129249492E+02  0.51100000000E-03 0.  1.
         12    1    3    3    0    0 -0.29428324088E+01 -0.35474000957E+00  0.32698403115E+01  0.44133840444E+01  0.00000000000E+00 0. -1.
</event>
<event>
 7    1  0.2653124E-010  0.4778727E+02  0.7816164E-02  0.1312668E+00
        -11   -1    0    0    0    0  0.00000000000E+00  0.00000000000E+00  0.45593999997E+02  0.45594000000E+02  0.51100000000E-03 0.  1.
         11   -1    0    0    0    0 -0.00000000000E+00 -0.00000000000E+00 -0.45593999997E+02  0.45594000000E+02  0.51100000000E-03 0. -1.
    9900012    2    1    2    0    0  0.14428498857E+02  0.30338706571E+00  0.40931034084E+02  0.47787272193E+02  0.20000005236E+02 0.  0.
         12    1    1    2    0    0 -0.14428498857E+02 -0.30338706571E+00 -0.40931034084E+02  0.43400727807E+02  0.00000000000E+00 0. -1.
         11    1    3    3    0    0  0.15688433212E+01 -0.50233215417E+01  0.32505770270E+01  0.61855703009E+01  0.51100000000E-03 0. -1.
        -11    1    3    3    0    0  0.12159804247E+01 -0.26336854325E+01  0.30508484044E+01  0.42098199010E+01  0.51100000000E-03 0.  1.
        -12    1    3    3    0    0  0.11643675111E+02  0.79603940399E+01  0.34629608653E+02  0.37391881991E+02  0.00000000000E+00 0.  1.
</event>
<event>
 7    1  0.2653124E-010  0.4778727E+02  0.7816164E-02  0.1312668E+00
        -11   -1    0    0    0    0  0.00000000000E+00  0.00000000000E+00  0.45593999997E+02  0.45594000000E+02  0.51100000000E-03 0. -1.
         11   -1    0    0    0    0 -0.00000000000E+00 -0.00000000000E+00 -0.45593999997E+02  0.45594000000E+02  0.51100000000E-03 0.  1.
    9900012    2    1    2    0    0 -0.28991792470E+02 -0.28689833016E+02 -0.14832143157E+02  0.47787273972E+02  0.20000013348E+02 0.  0.
         12    1    1    2    0    0  0.28991792470E+02  0.28689833016E+02  0.14832143157E+02  0.43400726028E+02  0.00000000000E+00 0. -1.
         11    1    3    3    0    0 -0.99492144805E+01 -0.12693222527E+02 -0.10243880785E+02  0.19106068687E+02  0.51100000000E-03 0.  1.
        -11    1    3    3    0    0 -0.36410326269E+01 -0.10470148502E+02 -0.53328237049E+01  0.12301225028E+02  0.51100000000E-03 0. -1.
         12    1    3    3    0    0 -0.15401545363E+02 -0.55264619870E+01  0.74456133216E+00  0.16379980257E+02  0.00000000000E+00 0. -1.
</event>
<event>
 7    1  0.2653124E-010  0.4778727E+02  0.7816164E-02  0.1312668E+00
        -11   -1    0    0    0    0  0.00000000000E+00  0.00000000000E+00  0.45593999997E+02  0.45594000000E+02  0.51100000000E-03 0. -1.
         11   -1    0    0    0    0 -0.00000000000E+00 -0.00000000000E+00 -0.45593999997E+02  0.45594000000E+02  0.51100000000E-03 0.  1.
    9900012    2    1    2    0    0  0.10550436380E+01 -0.30350658807E+02 -0.31005604285E+02  0.47787273000E+02  0.20000008915E+02 0.  0.
         12    1    1    2    0    0 -0.10550436380E+01  0.30350658807E+02  0.31005604285E+02  0.43400727000E+02  0.00000000000E+00 0. -1.
         11    1    3    3    0    0  0.13998702437E+01 -0.23014866873E+02 -0.16416205251E+02  0.28304337635E+02  0.51100000000E-03 0. -1.
        -11    1    3    3    0    0  0.11842380395E+01 -0.85606022682E+01 -0.56355397162E+01  0.10317249589E+02  0.51100000000E-03 0.  1.
        -12    1    3    3    0    0 -0.15290646451E+01  0.12248103344E+01 -0.89538593183E+01  0.91656857755E+01  0.00000000000E+00 0.  1.
</event>
<event>
 7    1  0.2653124E-010  0.4778724E+02  0.7816164E-02  0.1312668E+00
        -11   -1    0    0    0    0  0.00000000000E+00  0.00000000000E+00  0.45593999997E+02  0.45594000000E+02  0.51100000000E-03 0.  1.
         11   -1    0    0    0    0 -0.00000000000E+00 -0.00000000000E+00 -0.45593999997E+02  0.45594000000E+02  0.51100000000E-03 0. -1.
    9900012    2    1    2    0    0 -0.40087230755E+02  0.14794635675E+02  0.75999177508E+01  0.47787238899E+02  0.19999853433E+02 0.  0.
         12    1    1    2    0    0  0.40087230755E+02 -0.14794635675E+02 -0.75999177508E+01  0.43400761101E+02  0.00000000000E+00 0. -1.
         11    1    3    3    0    0 -0.12704953436E+01 -0.14230756575E+00 -0.15833709096E+01  0.20350610703E+01  0.51100000000E-03 0. -1.
        -11    1    3    3    0    0 -0.39941016689E+02  0.15541727564E+02  0.72977830374E+01  0.43475139417E+02  0.51100000000E-03 0.  1.
        -12    1    3    3    0    0  0.11242812778E+01 -0.60478432320E+00  0.18855056231E+01  0.22770384107E+01  0.00000000000E+00 0.  1.
</event>
<event>
 7    1  0.2653124E-010  0.4778727E+02  0.7816164E-02  0.1312668E+00
        -11   -1    0    0    0    0  0.00000000000E+00  0.00000000000E+00  0.45593999997E+02  0.45594000000E+02  0.51100000000E-03 0.  1.
         11   -1    0    0    0    0 -0.00000000000E+00 -0.00000000000E+00 -0.45593999997E+02  0.45594000000E+02  0.51100000000E-03 0. -1.
    9900012    2    1    2    0    0 -0.18117057286E+02  0.29666243631E+02  0.25986721323E+02  0.47787268889E+02  0.19999990171E+02 0.  0.
         12    1    1    2    0    0  0.18117057286E+02 -0.29666243631E+02 -0.25986721323E+02  0.43400731111E+02  0.00000000000E+00 0. -1.
         11    1    3    3    0    0 -0.11866386866E+02  0.50861364350E+01  0.12078235383E+02  0.17679470900E+02  0.51100000000E-03 0.  1.
        -11    1    3    3    0    0 -0.57725622959E+01  0.97471762074E+01  0.30889089704E+01  0.11741860090E+02  0.51100000000E-03 0. -1.
         12    1    3    3    0    0 -0.47810812425E+00  0.14832930989E+02  0.10819576969E+02  0.18365937898E+02  0.00000000000E+00 0. -1.
</event>
<event>
 7    1  0.2653124E-010  0.4778727E+02  0.7816164E-02  0.1312668E+00
        -11   -1    0    0    0    0  0.00000000000E+00  0.00000000000E+00  0.45593999997E+02  0.45594000000E+02  0.51100000000E-03 0.  1.
         11   -1    0    0    0    0 -0.00000000000E+00 -0.00000000000E+00 -0.45593999997E+02  0.45594000000E+02  0.51100000000E-03 0. -1.
    9900012    2    1    2    0    0  0.41486222136E+02  0.11537689228E+02  0.54220126645E+01  0.47787272803E+02  0.20000008019E+02 0.  0.
         12    1    1    2    0    0 -0.41486222136E+02 -0.11537689228E+02 -0.54220126645E+01  0.43400727197E+02  0.00000000000E+00 0. -1.
         11    1    3    3    0    0  0.24710711718E+02  0.10083831354E+02  0.53913365382E+00  0.26694448744E+02  0.51100000000E-03 0. -1.
        -11    1    3    3    0    0  0.16717337578E+02  0.25991217678E+01  0.72934951464E+01  0.18423351524E+02  0.51100000000E-03 0.  1.
        -12    1    3    3    0    0  0.58172840097E-01 -0.11452638929E+01 -0.24106161357E+01  0.26694725354E+01  0.00000000000E+00 0.  1.
</event>
<event>
 7    1  0.2653124E-010  0.4778727E+02  0.7816164E-02  0.1312668E+00
        -11   -1    0    0    0    0  0.00000000000E+00  0.00000000000E+00  0.45593999997E+02  0.45594000000E+02  0.51100000000E-03 0.  1.
         11   -1    0    0    0    0 -0.00000000000E+00 -0.00000000000E+00 -0.45593999997E+02  0.45594000000E+02  0.51100000000E-03 0. -1.
    9900012    2    1    2    0    0 -0.97359897298E+01 -0.71868509649E+01  0.41679527798E+02  0.47787270049E+02  0.19999995463E+02 0.  0.
         12    1    1    2    0    0  0.97359897298E+01  0.71868509649E+01 -0.41679527798E+02  0.43400729951E+02  0.00000000000E+00 0. -1.
         11    1    3    3    0    0 -0.25916534298E+00 -0.49867689918E+01  0.51396452656E+01  0.71659601848E+01  0.51100000000E-03 0. -1.
        -11    1    3    3    0    0 -0.11935112812E+02 -0.34294895474E+01  0.17935046935E+02  0.21814541599E+02  0.51100000000E-03 0.  1.
        -12    1    3    3    0    0  0.24582884248E+01  0.12294075743E+01  0.18604835598E+02  0.18806768265E+02  0.00000000000E+00 0.  1.
</event>
<event>
 7    1  0.2653124E-010  0.4778727E+02  0.7816164E-02  0.1312668E+00
        -11   -1    0    0    0    0  0.00000000000E+00  0.00000000000E+00  0.45593999997E+02  0.45594000000E+02  0.51100000000E-03 0.  1.
         11   -1    0    0    0    0 -0.00000000000E+00 -0.00000000000E+00 -0.45593999997E+02  0.45594000000E+02  0.51100000000E-03 0. -1.
    9900012    2    1    2    0    0 -0.30090666123E+02 -0.19862122214E+02  0.24159286648E+02  0.47787271689E+02  0.20000002938E+02 0.  0.
         12    1    1    2    0    0  0.30090666123E+02  0.19862122214E+02 -0.24159286648E+02  0.43400728311E+02  0.00000000000E+00 0. -1.
         11    1    3    3    0    0  0.13694572549E+00  0.14266914157E+00  0.73233692257E+01  0.73260388814E+01  0.51100000000E-03 0. -1.
        -11    1    3    3    0    0 -0.12580215855E+02 -0.11418800783E+02  0.97959227590E+01  0.19611500331E+02  0.51100000000E-03 0.  1.
         12    1    3    3    0    0 -0.17647395993E+02 -0.85859905730E+01  0.70399946634E+01  0.20849732476E+02  0.00000000000E+00 0. -1.
</event>
<event>
 7    1  0.2653124E-010  0.4778734E+02  0.7816164E-02  0.1312667E+00
        -11   -1    0    0    0    0  0.00000000000E+00  0.00000000000E+00  0.45593999997E+02  0.45594000000E+02  0.51100000000E-03 0.  1.
         11   -1    0    0    0    0 -0.00000000000E+00 -0.00000000000E+00 -0.45593999997E+02  0.45594000000E+02  0.51100000000E-03 0. -1.
    9900012    2    1    2    0    0 -0.41320244171E+02 -0.57911514656E+01  0.11946449776E+02  0.47787335537E+02  0.20000294044E+02 0.  0.
         12    1    1    2    0    0  0.41320244171E+02  0.57911514656E+01 -0.11946449776E+02  0.43400664463E+02  0.00000000000E+00 0. -1.
         11    1    3    3    0    0 -0.57155488081E+01  0.15847272887E+01 -0.15068693643E+01  0.61196008284E+01  0.51100000000E-03 0. -1.
        -11    1    3    3    0    0 -0.20909745969E+02  0.20926270603E+01  0.11819992496E+02  0.24110346065E+02  0.51100000000E-03 0.  1.
         12    1    3    3    0    0 -0.14694949393E+02 -0.94685058146E+01  0.16333266436E+01  0.17557388643E+02  0.00000000000E+00 0. -1.
</event>
<event>
 7    1  0.2669892E-010  0.4778727E+02  0.7816164E-02  0.1312668E+00
        -11   -1    0    0    0    0  0.00000000000E+00  0.00000000000E+00  0.45593999997E+02  0.45594000000E+02  0.51100000000E-03 0. -1.
         11   -1    0    0    0    0 -0.00000000000E+00 -0.00000000000E+00 -0.45593999997E+02  0.45594000000E+02  0.51100000000E-03 0.  1.
    9900012    2    1    2    0    0 -0.22124920305E+02 -0.36255329886E+02 -0.89253628027E+01  0.47787272531E+02  0.20000006780E+02 0.  0.
         12    1    1    2    0    0  0.22124920305E+02  0.36255329886E+02  0.89253628027E+01  0.43400727469E+02  0.00000000000E+00 0. -1.
         11    1    3    3    0    0 -0.64779743580E+01 -0.39740344790E+01  0.11368500532E+01  0.76843692082E+01  0.51100000000E-03 0. -1.
        -11    1    3    3    0    0 -0.14408705663E+02 -0.14116192968E+02 -0.22708822630E+01  0.20298635651E+02  0.51100000000E-03 0.  1.
         12    1    3    3    0    0 -0.12382402842E+01 -0.18165102439E+02 -0.77913305929E+01  0.19804267672E+02  0.00000000000E+00 0. -1.
</event>
<event>
 7    1  0.2653124E-010  0.4778727E+02  0.7816164E-02  0.1312668E+00
        -11   -1    0    0    0    0  0.00000000000E+00  0.00000000000E+00  0.45593999997E+02  0.45594000000E+02  0.51100000000E-03 0. -1.
         11   -1    0    0    0    0 -0.00000000000E+00 -0.00000000000E+00 -0.45593999997E+02  0.45594000000E+02  0.51100000000E-03 0.  1.
    9900012    2    1    2    0    0  0.93780009547E+01  0.96248543917E+01 -0.41267886360E+02  0.47787272257E+02  0.20000005530E+02 0.  0.
         12    1    1    2    0    0 -0.93780009547E+01 -0.96248543917E+01  0.41267886360E+02  0.43400727743E+02  0.00000000000E+00 0. -1.
         11    1    3    3    0    0  0.92058707261E+01  0.98963740703E+01 -0.23251440172E+02  0.26894530037E+02  0.51100000000E-03 0. -1.
        -11    1    3    3    0    0  0.50231786132E+01 -0.87195435930E+00 -0.12623752009E+02  0.13614394692E+02  0.51100000000E-03 0.  1.
         12    1    3    3    0    0 -0.48510483847E+01  0.60043468070E+00 -0.53926941793E+01  0.72783475286E+01  0.00000000000E+00 0. -1.
</event>
<event>
 7    1  0.2653124E-010  0.4778726E+02  0.7816164E-02  0.1312668E+00
        -11   -1    0    0    0    0  0.00000000000E+00  0.00000000000E+00  0.45593999997E+02  0.45594000000E+02  0.51100000000E-03 0.  1.
         11   -1    0    0    0    0 -0.00000000000E+00 -0.00000000000E+00 -0.45593999997E+02  0.45594000000E+02  0.51100000000E-03 0. -1.
    9900012    2    1    2    0    0  0.87726329457E+01 -0.36151395457E+02  0.22354895560E+02  0.47787264548E+02  0.19999970379E+02 0.  0.
         12    1    1    2    0    0 -0.87726329457E+01  0.36151395457E+02 -0.22354895560E+02  0.43400735452E+02  0.00000000000E+00 0. -1.
         11    1    3    3    0    0  0.72885854553E+01 -0.57117716133E+01  0.23382975377E+01  0.95506779098E+01  0.51100000000E-03 0. -1.
        -11    1    3    3    0    0  0.13431367986E+01 -0.16945088792E+02  0.17706426817E+02  0.24545011744E+02  0.51100000000E-03 0.  1.
         12    1    3    3    0    0  0.14091069182E+00 -0.13494535051E+02  0.23101712059E+01  0.13691574894E+02  0.00000000000E+00 0. -1.
</event>
<event>
 7    1  0.2653124E-010  0.4778726E+02  0.7816164E-02  0.1312668E+00
        -11   -1    0    0    0    0  0.00000000000E+00  0.00000000000E+00  0.45593999997E+02  0.45594000000E+02  0.51100000000E-03 0. -1.
         11   -1    0    0    0    0 -0.00000000000E+00 -0.00000000000E+00 -0.45593999997E+02  0.45594000000E+02  0.51100000000E-03 0.  1.
    9900012    2    1    2    0    0  0.22743852636E+02 -0.30947811161E+02 -0.20213213612E+02  0.47787264374E+02  0.19999969586E+02 0.  0.
         12    1    1    2    0    0 -0.22743852636E+02  0.30947811161E+02  0.20213213612E+02  0.43400735626E+02  0.00000000000E+00 0. -1.
         11    1    3    3    0    0  0.14940933213E+02 -0.13434985373E+02 -0.39945611523E+01  0.20486259696E+02  0.51100000000E-03 0. -1.
        -11    1    3    3    0    0  0.50841749307E+01 -0.68203675384E+01 -0.10894082182E+01  0.85763079826E+01  0.51100000000E-03 0.  1.
        -12    1    3    3    0    0  0.27187444919E+01 -0.10692458250E+02 -0.15129244241E+02  0.18724696696E+02  0.00000000000E+00 0.  1.
</event>
<event>
 7    1  0.2653124E-010  0.4778727E+02  0.7816164E-02  0.1312668E+00
        -11   -1    0    0    0    0  0.00000000000E+00  0.00000000000E+00  0.45593999997E+02  0.45594000000E+02  0.51100000000E-03 0.  1.
         11   -1    0    0    0    0 -0.00000000000E+00 -0.00000000000E+00 -0.45593999997E+02  0.45594000000E+02  0.51100000000E-03 0. -1.
    9900012    2    1    2    0    0  0.11241524586E+02  0.45167230910E+01  0.41675541098E+02  0.47787269727E+02  0.19999993991E+02 0.  0.
         12    1    1    2    0    0 -0.11241524586E+02 -0.45167230910E+01 -0.41675541098E+02  0.43400730273E+02  0.00000000000E+00 0. -1.
         11    1    3    3    0    0 -0.12660240196E+01  0.83726993702E+01  0.16571987114E+02  0.18610095882E+02  0.51100000000E-03 0. -1.
        -11    1    3    3    0    0  0.19367620792E+01 -0.11360909495E+01  0.11592764293E+02  0.11808214692E+02  0.51100000000E-03 0.  1.
         12    1    3    3    0    0  0.10570786526E+02 -0.27198853297E+01  0.13510789691E+02  0.17368959153E+02  0.00000000000E+00 0. -1.
</event>
<event>
 7    1  0.2653124E-010  0.4778726E+02  0.7816164E-02  0.1312668E+00
        -11   -1    0    0    0    0  0.00000000000E+00  0.00000000000E+00  0.45593999997E+02  0.45594000000E+02  0.51100000000E-03 0. -1.
         11   -1    0    0    0    0 -0.00000000000E+00 -0.00000000000E+00 -0.45593999997E+02  0.45594000000E+02  0.51100000000E-03 0.  1.
    9900012    2    1    2    0    0  0.40284379065E+02  0.43710836530E+01 -0.15546278434E+02  0.47787258738E+02  0.19999943888E+02 0.  0.
         12    1    1    2    0    0 -0.40284379065E+02 -0.43710836530E+01  0.15546278434E+02  0.43400741262E+02  0.00000000000E+00 0. -1.
         11    1    3    3    0    0 -0.11413940990E+01 -0.10257735623E+01 -0.60624460481E+00  0.16500074764E+01  0.51100000000E-03 0. -1.
        -11    1    3    3    0    0  0.13708438116E+02  0.64810448097E+01 -0.94311341206E+01  0.17856973665E+02  0.51100000000E-03 0.  1.
         12    1    3    3    0    0  0.27717335048E+02 -0.10841875943E+01 -0.55088997082E+01  0.28280277596E+02  0.00000000000E+00 0. -1.
</event>
<event>
 7    1  0.2653124E-010  0.4778727E+02  0.7816164E-02  0.1312668E+00
        -11   -1    0    0    0    0  0.00000000000E+00  0.00000000000E+00  0.45593999997E+02  0.45594000000E+02  0.51100000000E-03 0.  1.
         11   -1    0    0    0    0 -0.00000000000E+00 -0.00000000000E+00 -0.45593999997E+02  0.45594000000E+02  0.51100000000E-03 0. -1.
    9900012    2    1    2    0    0 -0.62879104128E+01 -0.35723561547E+02  0.23830924459E+02  0.47787266970E+02  0.19999981423E+02 0.  0.
         12    1    1    2    0    0  0.62879104128E+01  0.35723561547E+02 -0.23830924459E+02  0.43400733030E+02  0.00000000000E+00 0. -1.
         11    1    3    3    0    0 -0.14202675557E+01 -0.22206599751E+00 -0.25778812312E+01  0.29516004371E+01  0.51100000000E-03 0. -1.
        -11    1    3    3    0    0  0.12374336597E+00  0.16851411328E+00  0.93888383623E-01  0.22918271465E+00  0.51100000000E-03 0.  1.
        -12    1    3    3    0    0 -0.49913862230E+01 -0.35670009663E+02  0.26314917306E+02  0.44606483818E+02  0.00000000000E+00 0.  1.
</event>
<event>
 7    1  0.2653124E-010  0.4778727E+02  0.7816164E-02  0.1312668E+00
        -11   -1    0    0    0    0  0.00000000000E+00  0.00000000000E+00  0.45593999997E+02  0.45594000000E+02  0.51100000000E-03 0. -1.
         11   -1    0    0    0    0 -0.00000000000E+00 -0.00000000000E+00 -0.45593999997E+02  0.45594000000E+02  0.51100000000E-03 0.  1.
    9900012    2    1    2    0    0 -0.39290513536E+02 -0.13116945288E+02  0.12954703928E+02  0.47787273491E+02  0.20000011155E+02 0.  0.
         12    1    1    2    0    0  0.39290513536E+02  0.13116945288E+02 -0.12954703928E+02  0.43400726509E+02  0.00000000000E+00 0. -1.
         11    1    3    3    0    0 -0.16369734855E+02 -0.53739950439E+01 -0.50904524633E+00  0.17236796955E+02  0.51100000000E-03 0.  1.
        -11    1    3    3    0    0 -0.14017977711E+02  0.18209178483E+01  0.50554724986E+01  0.15012569513E+02  0.51100000000E-03 0. -1.
         12    1    3    3    0    0 -0.89028009701E+01 -0.95638680928E+01  0.84082766759E+01  0.15537907023E+02  0.00000000000E+00 0. -1.
</event>
<event>
 7    1  0.2653124E-010  0.4778727E+02  0.7816164E-02  0.1312668E+00
        -11   -1    0    0    0    0  0.00000000000E+00  0.00000000000E+00  0.45593999997E+02  0.45594000000E+02  0.51100000000E-03 0.  1.
         11   -1    0    0    0    0 -0.00000000000E+00 -0.00000000000E+00 -0.45593999997E+02  0.45594000000E+02  0.51100000000E-03 0. -1.
    9900012    2    1    2    0    0  0.18777936067E+02 -0.29068896472E+02  0.26191823527E+02  0.47787271381E+02  0.20000001532E+02 0.  0.
         12    1    1    2    0    0 -0.18777936067E+02  0.29068896472E+02 -0.26191823527E+02  0.43400728619E+02  0.00000000000E+00 0. -1.
         11    1    3    3    0    0  0.30420820693E+01 -0.31526787525E+01  0.90603726932E+01  0.10063995242E+02  0.51100000000E-03 0. -1.
        -11    1    3    3    0    0  0.53616743443E+01 -0.19287481804E+02  0.54390499107E+01  0.20744584120E+02  0.51100000000E-03 0.  1.
        -12    1    3    3    0    0  0.10374179653E+02 -0.66287359156E+01  0.11692400923E+02  0.16978692019E+02  0.00000000000E+00 0.  1.
</event>
<event>
 7    1  0.2821496E-010  0.4778730E+02  0.7816164E-02  0.1312668E+00
        -11   -1    0    0    0    0  0.00000000000E+00  0.00000000000E+00  0.45593999997E+02  0.45594000000E+02  0.51100000000E-03 0. -1.
         11   -1    0    0    0    0 -0.00000000000E+00 -0.00000000000E+00 -0.45593999997E+02  0.45594000000E+02  0.51100000000E-03 0.  1.
    9900012    2    1    2    0    0  0.31023585575E+02  0.84375219250E+01 -0.29154182879E+02  0.47787297039E+02  0.20000118518E+02 0.  0.
         12    1    1    2    0    0 -0.31023585575E+02 -0.84375219250E+01  0.29154182879E+02  0.43400702961E+02  0.00000000000E+00 0. -1.
         11    1    3    3    0    0  0.68854572901E+01 -0.38491556355E+01 -0.75540788006E+01  0.10921979124E+02  0.51100000000E-03 0. -1.
        -11    1    3    3    0    0  0.11043594509E+02  0.37035234509E+01 -0.16886774572E+02  0.20514390591E+02  0.51100000000E-03 0.  1.
         12    1    3    3    0    0  0.13094533777E+02  0.85831541096E+01 -0.47133295063E+01  0.16350927323E+02  0.00000000000E+00 0. -1.
</event>
<event>
 7    1  0.2653124E-010  0.4778727E+02  0.7816164E-02  0.1312668E+00
        -11   -1    0    0    0    0  0.00000000000E+00  0.00000000000E+00  0.45593999997E+02  0.45594000000E+02  0.51100000000E-03 0.  1.
         11   -1    0    0    0    0 -0.00000000000E+00 -0.00000000000E+00 -0.45593999997E+02  0.45594000000E+02  0.51100000000E-03 0. -1.
    9900012    2    1    2    0    0 -0.40432447544E+02  0.15702134390E+02 -0.15110540398E+01  0.47787272781E+02  0.20000007918E+02 0.  0.
         12    1    1    2    0    0  0.40432447544E+02 -0.15702134390E+02  0.15110540398E+01  0.43400727219E+02  0.00000000000E+00 0. -1.
         11    1    3    3    0    0 -0.90944397139E+01  0.89482340181E+01  0.50036157133E+01  0.13704593982E+02  0.51100000000E-03 0. -1.
        -11    1    3    3    0    0 -0.20013244708E+02  0.79597749207E+01 -0.13579275941E+01  0.21580823621E+02  0.51100000000E-03 0.  1.
         12    1    3    3    0    0 -0.11324763122E+02 -0.12058745484E+01 -0.51567421589E+01  0.12501855178E+02  0.00000000000E+00 0. -1.
</event>
<event>
 7    1  0.2653124E-010  0.4778727E+02  0.7816164E-02  0.1312668E+00
        -11   -1    0    0    0    0  0.00000000000E+00  0.00000000000E+00  0.45593999997E+02  0.45594000000E+02  0.51100000000E-03 0.  1.
         11   -1    0    0    0    0 -0.00000000000E+00 -0.00000000000E+00 -0.45593999997E+02  0.45594000000E+02  0.51100000000E-03 0. -1.
    9900012    2    1    2    0    0  0.30015280348E+01  0.20597448268E+02  0.38083586969E+02  0.47787266802E+02  0.19999980657E+02 0.  0.
         12    1    1    2    0    0 -0.30015280348E+01 -0.20597448268E+02 -0.38083586969E+02  0.43400733198E+02  0.00000000000E+00 0. -1.
         11    1    3    3    0    0 -0.30592968350E+01  0.12659840565E+02  0.19761849976E+02  0.23667732781E+02  0.51100000000E-03 0. -1.
        -11    1    3    3    0    0 -0.20149130370E+01  0.48730464394E+01  0.12862106630E+02  0.13901087849E+02  0.51100000000E-03 0.  1.
         12    1    3    3    0    0  0.80757379068E+01  0.30645612640E+01  0.54596303628E+01  0.10218446172E+02  0.00000000000E+00 0. -1.
</event>
<event>
 7    1  0.2653124E-010  0.4778727E+02  0.7816164E-02  0.1312668E+00
        -11   -1    0    0    0    0  0.00000000000E+00  0.00000000000E+00  0.45593999997E+02  0.45594000000E+02  0.51100000000E-03 0.  1.
         11   -1    0    0    0    0 -0.00000000000E+00 -0.00000000000E+00 -0.45593999997E+02  0.45594000000E+02  0.51100000000E-03 0. -1.
    9900012    2    1    2    0    0 -0.66340716047E+01 -0.22308217270E+02  0.36632714065E+02  0.47787271855E+02  0.20000003694E+02 0.  0.
         12    1    1    2    0    0  0.66340716047E+01  0.22308217270E+02 -0.36632714065E+02  0.43400728145E+02  0.00000000000E+00 0. -1.
         11    1    3    3    0    0 -0.62845638035E+01 -0.10108398969E+02  0.27904688991E+02  0.30337223668E+02  0.51100000000E-03 0.  1.
        -11    1    3    3    0    0 -0.13956625465E+01  0.10161423417E+01  0.33288659227E+00  0.17581902476E+01  0.51100000000E-03 0. -1.
        -12    1    3    3    0    0  0.10461547452E+01 -0.13215960643E+02  0.83951384810E+01  0.15691857939E+02  0.00000000000E+00 0.  1.
</event>
<event>
 7    1  0.2653124E-010  0.4778728E+02  0.7816164E-02  0.1312668E+00
        -11   -1    0    0    0    0  0.00000000000E+00  0.00000000000E+00  0.45593999997E+02  0.45594000000E+02  0.51100000000E-03 0.  1.
         11   -1    0    0    0    0 -0.00000000000E+00 -0.00000000000E+00 -0.45593999997E+02  0.45594000000E+02  0.51100000000E-03 0. -1.
    9900012    2    1    2    0    0  0.26521640365E+02  0.75779015842E+01  0.33508214085E+02  0.47787280983E+02  0.20000045313E+02 0.  0.
         12    1    1    2    0    0 -0.26521640365E+02 -0.75779015842E+01 -0.33508214085E+02  0.43400719017E+02  0.00000000000E+00 0. -1.
         11    1    3    3    0    0  0.15060001090E+02  0.29207019522E+01  0.14522413813E+02  0.21124266519E+02  0.51100000000E-03 0.  1.
        -11    1    3    3    0    0  0.47549229184E+01  0.13520970345E+01 -0.12424460143E+01  0.50971688917E+01  0.51100000000E-03 0. -1.
         12    1    3    3    0    0  0.67067163567E+01  0.33051025975E+01  0.20228246285E+02  0.21565845572E+02  0.00000000000E+00 0. -1.
</event>
<event>
 7    1  0.2653124E-010  0.4778727E+02  0.7816164E-02  0.1312668E+00
        -11   -1    0    0    0    0  0.00000000000E+00  0.00000000000E+00  0.45593999997E+02  0.45594000000E+02  0.51100000000E-03 0. -1.
         11   -1    0    0    0    0 -0.00000000000E+00 -0.00000000000E+00 -0.45593999997E+02  0.45594000000E+02  0.51100000000E-03 0.  1.
    9900012    2    1    2    0    0  0.15286658540E+02 -0.37639638177E+02 -0.15270849339E+02  0.47787272691E+02  0.20000007505E+02 0.  0.
         12    1    1    2    0    0 -0.15286658540E+02  0.37639638177E+02  0.15270849339E+02  0.43400727309E+02  0.00000000000E+00 0. -1.
         11    1    3    3    0    0  0.66515064896E+01 -0.16793628473E+02 -0.99764829220E+01  0.20634890541E+02  0.51100000000E-03 0. -1.
        -11    1    3    3    0    0  0.90317445042E+01 -0.22535926882E+02 -0.32890993087E+01  0.24500175178E+02  0.51100000000E-03 0.  1.
         12    1    3    3    0    0 -0.39659245341E+00  0.16899171782E+01 -0.20052671088E+01  0.26522069717E+01  0.00000000000E+00 0. -1.
</event>
<event>
 7    1  0.2653124E-010  0.4778727E+02  0.7816164E-02  0.1312668E+00
        -11   -1    0    0    0    0  0.00000000000E+00  0.00000000000E+00  0.45593999997E+02  0.45594000000E+02  0.51100000000E-03 0. -1.
         11   -1    0    0    0    0 -0.00000000000E+00 -0.00000000000E+00 -0.45593999997E+02  0.45594000000E+02  0.51100000000E-03 0.  1.
    9900012    2    1    2    0    0 -0.39919930554E+02 -0.15416151559E+01 -0.16960136068E+02  0.47787266732E+02  0.19999980340E+02 0.  0.
         12    1    1    2    0    0  0.39919930554E+02  0.15416151559E+01  0.16960136068E+02  0.43400733268E+02  0.00000000000E+00 0. -1.
         11    1    3    3    0    0 -0.18300757230E+01 -0.17254735940E+00  0.22245433039E+01  0.28857482418E+01  0.51100000000E-03 0. -1.
        -11    1    3    3    0    0 -0.44062492332E+01  0.41517363945E+01 -0.72717415384E+00  0.60976003399E+01  0.51100000000E-03 0.  1.
        -12    1    3    3    0    0 -0.33683605598E+02 -0.55208041910E+01 -0.18457505218E+02  0.38803918151E+02  0.00000000000E+00 0.  1.
</event>
<event>
 7    1  0.2653124E-010  0.4778727E+02  0.7816164E-02  0.1312668E+00
        -11   -1    0    0    0    0  0.00000000000E+00  0.00000000000E+00  0.45593999997E+02  0.45594000000E+02  0.51100000000E-03 0.  1.
         11   -1    0    0    0    0 -0.00000000000E+00 -0.00000000000E+00 -0.45593999997E+02  0.45594000000E+02  0.51100000000E-03 0. -1.
    9900012    2    1    2    0    0  0.21073990985E+02 -0.10006533566E+02  0.36597535929E+02  0.47787269061E+02  0.19999990955E+02 0.  0.
         12    1    1    2    0    0 -0.21073990985E+02  0.10006533566E+02 -0.36597535929E+02  0.43400730939E+02  0.00000000000E+00 0. -1.
         11    1    3    3    0    0  0.78573250009E+00 -0.39543250839E+01  0.26789978894E+01  0.48405673618E+01  0.51100000000E-03 0. -1.
        -11    1    3    3    0    0 -0.21565797428E+01  0.12948694224E+01  0.51060888983E+01  0.56920705466E+01  0.51100000000E-03 0.  1.
        -12    1    3    3    0    0  0.22444838228E+02 -0.73470779043E+01  0.28812449141E+02  0.37254631152E+02  0.00000000000E+00 0.  1.
</event>
<event>
 7    1  0.2653124E-010  0.4778727E+02  0.7816164E-02  0.1312668E+00
        -11   -1    0    0    0    0  0.00000000000E+00  0.00000000000E+00  0.45593999997E+02  0.45594000000E+02  0.51100000000E-03 0.  1.
         11   -1    0    0    0    0 -0.00000000000E+00 -0.00000000000E+00 -0.45593999997E+02  0.45594000000E+02  0.51100000000E-03 0. -1.
    9900012    2    1    2    0    0  0.23630595715E+01  0.16471424769E+02  0.40084056954E+02  0.47787268366E+02  0.19999987789E+02 0.  0.
         12    1    1    2    0    0 -0.23630595715E+01 -0.16471424769E+02 -0.40084056954E+02  0.43400731634E+02  0.00000000000E+00 0. -1.
         11    1    3    3    0    0 -0.82436789647E+00  0.14450922545E+01  0.42033131826E+01  0.45205880176E+01  0.51100000000E-03 0. -1.
        -11    1    3    3    0    0 -0.19270884346E+01  0.15779255302E+01  0.25261805526E+02  0.25384293126E+02  0.51100000000E-03 0.  1.
         12    1    3    3    0    0  0.51145159026E+01  0.13448406984E+02  0.10618938246E+02  0.17882387223E+02  0.00000000000E+00 0. -1.
</event>
<event>
 7    1  0.2653124E-010  0.4778727E+02  0.7816164E-02  0.1312668E+00
        -11   -1    0    0    0    0  0.00000000000E+00  0.00000000000E+00  0.45593999997E+02  0.45594000000E+02  0.51100000000E-03 0.  1.
         11   -1    0    0    0    0 -0.00000000000E+00 -0.00000000000E+00 -0.45593999997E+02  0.45594000000E+02  0.51100000000E-03 0. -1.
    9900012    2    1    2    0    0  0.75196830094E+01 -0.38498210519E+02 -0.18573243437E+02  0.47787271693E+02  0.20000002959E+02 0.  0.
         12    1    1    2    0    0 -0.75196830094E+01  0.38498210519E+02  0.18573243437E+02  0.43400728307E+02  0.00000000000E+00 0. -1.
         11    1    3    3    0    0  0.36038236023E+01 -0.14380714139E+02 -0.97175110517E+01  0.17726322377E+02  0.51100000000E-03 0. -1.
        -11    1    3    3    0    0 -0.76865202146E+00 -0.23338485946E+02 -0.48527710396E+01  0.23850055329E+02  0.51100000000E-03 0.  1.
         12    1    3    3    0    0  0.46845114285E+01 -0.77901043385E+00 -0.40029613460E+01  0.62108939869E+01  0.00000000000E+00 0. -1.
</event>
<event>
 7    1  0.2653124E-010  0.4778727E+02  0.7816164E-02  0.1312668E+00
        -11   -1    0    0    0    0  0.00000000000E+00  0.00000000000E+00  0.45593999997E+02  0.45594000000E+02  0.51100000000E-03 0.  1.
         11   -1    0    0    0    0 -0.00000000000E+00 -0.00000000000E+00 -0.45593999997E+02  0.45594000000E+02  0.51100000000E-03 0. -1.
    9900012    2    1    2    0    0 -0.11023816208E+02  0.20959679668E+02  0.36370186526E+02  0.47787272316E+02  0.20000005800E+02 0.  0.
         12    1    1    2    0    0  0.11023816208E+02 -0.20959679668E+02 -0.36370186526E+02  0.43400727684E+02  0.00000000000E+00 0. -1.
         11    1    3    3    0    0 -0.52259441789E+01  0.21833080074E+01  0.43825146117E+01  0.71612681139E+01  0.51100000000E-03 0. -1.
        -11    1    3    3    0    0 -0.44530188917E+01  0.19092464585E+02  0.18140529829E+02  0.26710118006E+02  0.51100000000E-03 0.  1.
        -12    1    3    3    0    0 -0.13448531370E+01 -0.31609292483E+00  0.13847142085E+02  0.13915886196E+02  0.00000000000E+00 0.  1.
</event>
<event>
 7    1  0.2653124E-010  0.4778730E+02  0.7816164E-02  0.1312668E+00
        -11   -1    0    0    0    0  0.00000000000E+00  0.00000000000E+00  0.45593999997E+02  0.45594000000E+02  0.51100000000E-03 0. -1.
         11   -1    0    0    0    0 -0.00000000000E+00 -0.00000000000E+00 -0.45593999997E+02  0.45594000000E+02  0.51100000000E-03 0.  1.
    9900012    2    1    2    0    0  0.27278546508E+02 -0.21689297512E+02 -0.25866498604E+02  0.47787303275E+02  0.20000146953E+02 0.  0.
         12    1    1    2    0    0 -0.27278546508E+02  0.21689297512E+02  0.25866498604E+02  0.43400696725E+02  0.00000000000E+00 0. -1.
         11    1    3    3    0    0  0.15972405417E+02 -0.10767689357E+02 -0.10674061467E+02  0.22022635114E+02  0.51100000000E-03 0. -1.
        -11    1    3    3    0    0  0.75714576384E+01 -0.13975097593E+02 -0.10604035602E+02  0.19106959330E+02  0.51100000000E-03 0.  1.
         12    1    3    3    0    0  0.37346834533E+01  0.30534894387E+01 -0.45884015344E+01  0.66577088318E+01  0.00000000000E+00 0. -1.
</event>
<event>
 7    1  0.2653124E-010  0.4778727E+02  0.7816164E-02  0.1312668E+00
        -11   -1    0    0    0    0  0.00000000000E+00  0.00000000000E+00  0.45593999997E+02  0.45594000000E+02  0.51100000000E-03 0.  1.
         11   -1    0    0    0    0 -0.00000000000E+00 -0.00000000000E+00 -0.45593999997E+02  0.45594000000E+02  0.51100000000E-03 0. -1.
    9900012    2    1    2    0    0 -0.31428940250E+02 -0.29737431960E+02 -0.33955774698E+01  0.47787273150E+02  0.20000009599E+02 0.  0.
         12    1    1    2    0    0  0.31428940250E+02  0.29737431960E+02  0.33955774698E+01  0.43400726850E+02  0.00000000000E+00 0. -1.
         11    1    3    3    0    0  0.27331555825E-02 -0.18118624029E+01  0.19947433342E+01  0.26947827496E+01  0.51100000000E-03 0. -1.
        -11    1    3    3    0    0 -0.11323867753E+02 -0.20336780810E+02 -0.28416637346E+01  0.23449726814E+02  0.51100000000E-03 0.  1.
         12    1    3    3    0    0 -0.20107805652E+02 -0.75887887465E+01 -0.25486570693E+01  0.21642763586E+02  0.00000000000E+00 0. -1.
</event>
<event>
 7    1  0.2653124E-010  0.4778727E+02  0.7816164E-02  0.1312668E+00
        -11   -1    0    0    0    0  0.00000000000E+00  0.00000000000E+00  0.45593999997E+02  0.45594000000E+02  0.51100000000E-03 0. -1.
         11   -1    0    0    0    0 -0.00000000000E+00 -0.00000000000E+00 -0.45593999997E+02  0.45594000000E+02  0.51100000000E-03 0.  1.
    9900012    2    1    2    0    0 -0.38973418010E+02  0.11577497057E+00 -0.19096673306E+02  0.47787266750E+02  0.19999980422E+02 0.  0.
         12    1    1    2    0    0  0.38973418010E+02 -0.11577497057E+00  0.19096673306E+02  0.43400733250E+02  0.00000000000E+00 0. -1.
         11    1    3    3    0    0 -0.50531583133E+01  0.81558596694E+00  0.18533454970E+01  0.54437559829E+01  0.51100000000E-03 0. -1.
        -11    1    3    3    0    0 -0.28626525799E+02  0.87973868422E+00 -0.10464865295E+02  0.30492053479E+02  0.51100000000E-03 0.  1.
        -12    1    3    3    0    0 -0.52937338983E+01 -0.15795496806E+01 -0.10485153508E+02  0.11851457288E+02  0.00000000000E+00 0.  1.
</event>
<event>
 7    1  0.2653124E-010  0.4778728E+02  0.7816164E-02  0.1312668E+00
        -11   -1    0    0    0    0  0.00000000000E+00  0.00000000000E+00  0.45593999997E+02  0.45594000000E+02  0.51100000000E-03 0.  1.
         11   -1    0    0    0    0 -0.00000000000E+00 -0.00000000000E+00 -0.45593999997E+02  0.45594000000E+02  0.51100000000E-03 0. -1.
    9900012    2    1    2    0    0 -0.18108298503E+02  0.76918680241E+01  0.38685231322E+02  0.47787280756E+02  0.20000044281E+02 0.  0.
         12    1    1    2    0    0  0.18108298503E+02 -0.76918680241E+01 -0.38685231322E+02  0.43400719244E+02  0.00000000000E+00 0. -1.
         11    1    3    3    0    0 -0.21720053105E+01  0.21865304124E+01  0.11923773654E+02  0.12315636432E+02  0.51100000000E-03 0. -1.
        -11    1    3    3    0    0 -0.66047405615E+01  0.66157972897E+01  0.23876562962E+02  0.25641404619E+02  0.51100000000E-03 0.  1.
         12    1    3    3    0    0 -0.93315526315E+01 -0.11104596779E+01  0.28848947061E+01  0.98302397059E+01  0.00000000000E+00 0. -1.
</event>
<event>
 7    1  0.2653124E-010  0.4778727E+02  0.7816164E-02  0.1312668E+00
        -11   -1    0    0    0    0  0.00000000000E+00  0.00000000000E+00  0.45593999997E+02  0.45594000000E+02  0.51100000000E-03 0.  1.
         11   -1    0    0    0    0 -0.00000000000E+00 -0.00000000000E+00 -0.45593999997E+02  0.45594000000E+02  0.51100000000E-03 0. -1.
    9900012    2    1    2    0    0 -0.27405012333E+02 -0.20841747016E+02  0.26423674514E+02  0.47787266199E+02  0.19999977909E+02 0.  0.
         12    1    1    2    0    0  0.27405012333E+02  0.20841747016E+02 -0.26423674514E+02  0.43400733801E+02  0.00000000000E+00 0. -1.
         11    1    3    3    0    0 -0.13505283694E+02 -0.16630083807E+02  0.16647774984E+02  0.27131177402E+02  0.51100000000E-03 0. -1.
        -11    1    3    3    0    0 -0.14982409662E+02 -0.52325614812E+01  0.10471670876E+02  0.19013368722E+02  0.51100000000E-03 0.  1.
        -12    1    3    3    0    0  0.10826810231E+01  0.10208982723E+01 -0.69577134595E+00  0.16427200754E+01  0.00000000000E+00 0.  1.
</event>
<event>
 7    1  0.2653124E-010  0.4778727E+02  0.7816164E-02  0.1312668E+00
        -11   -1    0    0    0    0  0.00000000000E+00  0.00000000000E+00  0.45593999997E+02  0.45594000000E+02  0.51100000000E-03 0.  1.
         11   -1    0    0    0    0 -0.00000000000E+00 -0.00000000000E+00 -0.45593999997E+02  0.45594000000E+02  0.51100000000E-03 0. -1.
    9900012    2    1    2    0    0  0.15058736649E+02 -0.11729769923E+02  0.38977812792E+02  0.47787274868E+02  0.20000017435E+02 0.  0.
         12    1    1    2    0    0 -0.15058736649E+02  0.11729769923E+02 -0.38977812792E+02  0.43400725132E+02  0.00000000000E+00 0. -1.
         11    1    3    3    0    0  0.61183889465E+01 -0.54495073612E+01  0.26370860212E+01  0.86073245974E+01  0.51100000000E-03 0. -1.
        -11    1    3    3    0    0  0.95684542639E+00 -0.15300007248E+01  0.14420586376E+00  0.18103179224E+01  0.51100000000E-03 0.  1.
        -12    1    3    3    0    0  0.79835022760E+01 -0.47502618366E+01  0.36196520907E+02  0.37369632349E+02  0.00000000000E+00 0.  1.
</event>
<event>
 7    1  0.2653124E-010  0.4778727E+02  0.7816164E-02  0.1312668E+00
        -11   -1    0    0    0    0  0.00000000000E+00  0.00000000000E+00  0.45593999997E+02  0.45594000000E+02  0.51100000000E-03 0.  1.
         11   -1    0    0    0    0 -0.00000000000E+00 -0.00000000000E+00 -0.45593999997E+02  0.45594000000E+02  0.51100000000E-03 0. -1.
    9900012    2    1    2    0    0  0.11596608288E+02 -0.54040074047E+01  0.41472142298E+02  0.47787271820E+02  0.20000003535E+02 0.  0.
         12    1    1    2    0    0 -0.11596608288E+02  0.54040074047E+01 -0.41472142298E+02  0.43400728180E+02  0.00000000000E+00 0. -1.
         11    1    3    3    0    0  0.84179929999E+01  0.58159330939E+01  0.12345483484E+02  0.16034295950E+02  0.51100000000E-03 0. -1.
        -11    1    3    3    0    0  0.24368258936E+00 -0.12055087976E+01  0.89814489737E+01  0.90652666036E+01  0.51100000000E-03 0.  1.
         12    1    3    3    0    0  0.29349326984E+01 -0.10014431701E+02  0.20145209841E+02  0.22687709266E+02  0.00000000000E+00 0. -1.
</event>
<event>
 7    1  0.2653124E-010  0.4778727E+02  0.7816164E-02  0.1312668E+00
        -11   -1    0    0    0    0  0.00000000000E+00  0.00000000000E+00  0.45593999997E+02  0.45594000000E+02  0.51100000000E-03 0.  1.
         11   -1    0    0    0    0 -0.00000000000E+00 -0.00000000000E+00 -0.45593999997E+02  0.45594000000E+02  0.51100000000E-03 0. -1.
    9900012    2    1    2    0    0  0.14028785581E+01  0.27857332486E+02  0.33250930582E+02  0.47787269291E+02  0.19999992005E+02 0.  0.
         12    1    1    2    0    0 -0.14028785581E+01 -0.27857332486E+02 -0.33250930582E+02  0.43400730709E+02  0.00000000000E+00 0. -1.
         11    1    3    3    0    0 -0.48318539878E+01  0.88682264806E+01  0.18616522634E+02  0.21179404361E+02  0.51100000000E-03 0. -1.
        -11    1    3    3    0    0 -0.18498267194E+01  0.91510150531E+00  0.30049795098E+01  0.36454316305E+01  0.51100000000E-03 0.  1.
        -12    1    3    3    0    0  0.80845592653E+01  0.18074004500E+02  0.11629428439E+02  0.22962433299E+02  0.00000000000E+00 0.  1.
</event>
<event>
 7    1  0.2653124E-010  0.4778727E+02  0.7816164E-02  0.1312668E+00
        -11   -1    0    0    0    0  0.00000000000E+00  0.00000000000E+00  0.45593999997E+02  0.45594000000E+02  0.51100000000E-03 0.  1.
         11   -1    0    0    0    0 -0.00000000000E+00 -0.00000000000E+00 -0.45593999997E+02  0.45594000000E+02  0.51100000000E-03 0. -1.
    9900012    2    1    2    0    0 -0.28497152857E+02  0.31687271893E+02  0.82129344403E+01  0.47787271745E+02  0.20000003193E+02 0.  0.
         12    1    1    2    0    0  0.28497152857E+02 -0.31687271893E+02 -0.82129344403E+01  0.43400728255E+02  0.00000000000E+00 0. -1.
         11    1    3    3    0    0 -0.12843779041E+02  0.97549911326E+01 -0.44807152727E+01  0.16739155345E+02  0.51100000000E-03 0. -1.
        -11    1    3    3    0    0 -0.12298087072E+02  0.97999390624E+01  0.76537961823E+01  0.17488920708E+02  0.51100000000E-03 0.  1.
        -12    1    3    3    0    0 -0.33552867439E+01  0.12132341698E+02  0.50398535307E+01  0.13559195692E+02  0.00000000000E+00 0.  1.
</event>
<event>
 7    1  0.2653124E-010  0.4778728E+02  0.7816164E-02  0.1312668E+00
        -11   -1    0    0    0    0  0.00000000000E+00  0.00000000000E+00  0.45593999997E+02  0.45594000000E+02  0.51100000000E-03 0. -1.
         11   -1    0    0    0    0 -0.00000000000E+00 -0.00000000000E+00 -0.45593999997E+02  0.45594000000E+02  0.51100000000E-03 0.  1.
    9900012    2    1    2    0    0 -0.32661207436E+02  0.28580844628E+02  0.58600417738E-01  0.47787278983E+02  0.20000036194E+02 0.  0.
         12    1    1    2    0    0  0.32661207436E+02 -0.28580844628E+02 -0.58600417738E-01  0.43400721017E+02  0.00000000000E+00 0. -1.
         11    1    3    3    0    0 -0.53044519276E+01 -0.11718122193E+01 -0.95957480218E+00  0.55164425305E+01  0.51100000000E-03 0. -1.
        -11    1    3    3    0    0 -0.21629647601E+01  0.27220959239E+01 -0.36325521091E+01  0.50282857774E+01  0.51100000000E-03 0.  1.
        -12    1    3    3    0    0 -0.25193790748E+02  0.27030560923E+02  0.46507273290E+01  0.37242550675E+02  0.00000000000E+00 0.  1.
</event>
<event>
 7    1  0.2653124E-010  0.4778727E+02  0.7816164E-02  0.1312668E+00
        -11   -1    0    0    0    0  0.00000000000E+00  0.00000000000E+00  0.45593999997E+02  0.45594000000E+02  0.51100000000E-03 0.  1.
         11   -1    0    0    0    0 -0.00000000000E+00 -0.00000000000E+00 -0.45593999997E+02  0.45594000000E+02  0.51100000000E-03 0. -1.
    9900012    2    1    2    0    0  0.37939912350E+02  0.20600552501E+02 -0.44501195607E+01  0.47787271013E+02  0.19999999859E+02 0.  0.
         12    1    1    2    0    0 -0.37939912350E+02 -0.20600552501E+02  0.44501195607E+01  0.43400728987E+02  0.00000000000E+00 0. -1.
         11    1    3    3    0    0  0.23123052561E+02  0.12165223335E+02 -0.12660168774E+01  0.26158574455E+02  0.51100000000E-03 0. -1.
        -11    1    3    3    0    0  0.15927782071E+02  0.53056555968E+01  0.33289896453E+00  0.16791517054E+02  0.51100000000E-03 0.  1.
         12    1    3    3    0    0 -0.11109222816E+01  0.31296735688E+01 -0.35170016478E+01  0.48371795040E+01  0.00000000000E+00 0. -1.
</event>
<event>
 7    1  0.2653124E-010  0.4778732E+02  0.7816164E-02  0.1312668E+00
        -11   -1    0    0    0    0  0.00000000000E+00  0.00000000000E+00  0.45593999997E+02  0.45594000000E+02  0.51100000000E-03 0. -1.
         11   -1    0    0    0    0 -0.00000000000E+00 -0.00000000000E+00 -0.45593999997E+02  0.45594000000E+02  0.51100000000E-03 0.  1.
    9900012    2    1    2    0    0 -0.42716908600E+02  0.56551101485E+01 -0.51869530808E+01  0.47787319897E+02  0.20000222736E+02 0.  0.
         12    1    1    2    0    0  0.42716908600E+02 -0.56551101485E+01  0.51869530808E+01  0.43400680103E+02  0.00000000000E+00 0. -1.
         11    1    3    3    0    0 -0.16304483259E+02 -0.18737863946E+01  0.16424196083E+00  0.16412623967E+02  0.51100000000E-03 0. -1.
        -11    1    3    3    0    0 -0.15961529083E+02  0.48170296804E+00  0.30083258623E+01  0.16249691479E+02  0.51100000000E-03 0.  1.
        -12    1    3    3    0    0 -0.10450896259E+02  0.70471935751E+01 -0.83595209039E+01  0.15125004451E+02  0.00000000000E+00 0.  1.
</event>
<event>
 7    1  0.2653124E-010  0.4778727E+02  0.7816164E-02  0.1312668E+00
        -11   -1    0    0    0    0  0.00000000000E+00  0.00000000000E+00  0.45593999997E+02  0.45594000000E+02  0.51100000000E-03 0.  1.
         11   -1    0    0    0    0 -0.00000000000E+00 -0.00000000000E+00 -0.45593999997E+02  0.45594000000E+02  0.51100000000E-03 0. -1.
    9900012    2    1    2    0    0  0.19603790053E+01  0.36084947858E+02  0.24034488556E+02  0.47787272035E+02  0.20000004516E+02 0.  0.
         12    1    1    2    0    0 -0.19603790053E+01 -0.36084947858E+02 -0.24034488556E+02  0.43400727965E+02  0.00000000000E+00 0. -1.
         11    1    3    3    0    0  0.22756595709E+01  0.32861290794E+00  0.56424610792E+00  0.23674853447E+01  0.51100000000E-03 0. -1.
        -11    1    3    3    0    0  0.71864976368E+01  0.12922889974E+02  0.76753568243E+01  0.16660070114E+02  0.51100000000E-03 0.  1.
         12    1    3    3    0    0 -0.75017782023E+01  0.22833444976E+02  0.15794885623E+02  0.28759716576E+02  0.00000000000E+00 0. -1.
</event>
<event>
 7    1  0.2653124E-010  0.4778727E+02  0.7816164E-02  0.1312668E+00
        -11   -1    0    0    0    0  0.00000000000E+00  0.00000000000E+00  0.45593999997E+02  0.45594000000E+02  0.51100000000E-03 0.  1.
         11   -1    0    0    0    0 -0.00000000000E+00 -0.00000000000E+00 -0.45593999997E+02  0.45594000000E+02  0.51100000000E-03 0. -1.
    9900012    2    1    2    0    0 -0.35485686314E+02 -0.24252366798E+02  0.60176626779E+01  0.47787268525E+02  0.19999988514E+02 0.  0.
         12    1    1    2    0    0  0.35485686314E+02  0.24252366798E+02 -0.60176626779E+01  0.43400731475E+02  0.00000000000E+00 0. -1.
         11    1    3    3    0    0 -0.12668994126E+02 -0.13696847766E+02 -0.26286053916E+01  0.18841884658E+02  0.51100000000E-03 0. -1.
        -11    1    3    3    0    0 -0.90517954689E+01 -0.55649645566E+01 -0.20388254498E+01  0.10819456604E+02  0.51100000000E-03 0.  1.
         12    1    3    3    0    0 -0.13764896719E+02 -0.49905544746E+01  0.10685093519E+02  0.18125927263E+02  0.00000000000E+00 0. -1.
</event>
<event>
 7    1  0.2653124E-010  0.4778728E+02  0.7816164E-02  0.1312668E+00
        -11   -1    0    0    0    0  0.00000000000E+00  0.00000000000E+00  0.45593999997E+02  0.45594000000E+02  0.51100000000E-03 0. -1.
         11   -1    0    0    0    0 -0.00000000000E+00 -0.00000000000E+00 -0.45593999997E+02  0.45594000000E+02  0.51100000000E-03 0.  1.
    9900012    2    1    2    0    0 -0.52792599455E+01 -0.33624220186E+02 -0.26928856395E+02  0.47787284851E+02  0.20000062950E+02 0.  0.
         12    1    1    2    0    0  0.52792599455E+01  0.33624220186E+02  0.26928856395E+02  0.43400715149E+02  0.00000000000E+00 0. -1.
         11    1    3    3    0    0  0.12136911164E+01 -0.37395993513E+00 -0.11458479209E+01  0.17105145068E+01  0.51100000000E-03 0. -1.
        -11    1    3    3    0    0 -0.88230506954E+01 -0.58366604940E+01 -0.86560033633E+01  0.13668914506E+02  0.51100000000E-03 0.  1.
         12    1    3    3    0    0  0.23300996335E+01 -0.27413599757E+02 -0.17127005111E+02  0.32407855838E+02  0.00000000000E+00 0. -1.
</event>
<event>
 7    1  0.2653124E-010  0.4778726E+02  0.7816164E-02  0.1312668E+00
        -11   -1    0    0    0    0  0.00000000000E+00  0.00000000000E+00  0.45593999997E+02  0.45594000000E+02  0.51100000000E-03 0. -1.
         11   -1    0    0    0    0 -0.00000000000E+00 -0.00000000000E+00 -0.45593999997E+02  0.45594000000E+02  0.51100000000E-03 0.  1.
    9900012    2    1    2    0    0 -0.34325766340E+02 -0.18143619062E+02 -0.19395226124E+02  0.47787263325E+02  0.19999964806E+02 0.  0.
         12    1    1    2    0    0  0.34325766340E+02  0.18143619062E+02  0.19395226124E+02  0.43400736675E+02  0.00000000000E+00 0. -1.
         11    1    3    3    0    0 -0.71432673064E+01 -0.75338027486E+01 -0.19612401310E+00  0.10383781419E+02  0.51100000000E-03 0. -1.
        -11    1    3    3    0    0 -0.12593717359E+01 -0.51297122858E+01 -0.13361021019E+01  0.54484065920E+01  0.51100000000E-03 0.  1.
        -12    1    3    3    0    0 -0.25923127297E+02 -0.54801040281E+01 -0.17863000009E+02  0.31955075315E+02  0.00000000000E+00 0.  1.
</event>
<event>
 7    1  0.2653124E-010  0.4778727E+02  0.7816164E-02  0.1312668E+00
        -11   -1    0    0    0    0  0.00000000000E+00  0.00000000000E+00  0.45593999997E+02  0.45594000000E+02  0.51100000000E-03 0.  1.
         11   -1    0    0    0    0 -0.00000000000E+00 -0.00000000000E+00 -0.45593999997E+02  0.45594000000E+02  0.51100000000E-03 0. -1.
    9900012    2    1    2    0    0 -0.20681672445E+02 -0.65831330991E+01  0.37583961506E+02  0.47787269833E+02  0.19999994478E+02 0.  0.
         12    1    1    2    0    0  0.20681672445E+02  0.65831330991E+01 -0.37583961506E+02  0.43400730167E+02  0.00000000000E+00 0. -1.
         11    1    3    3    0    0 -0.80822159799E+01 -0.12386131765E+01  0.32965862239E+01  0.88161135847E+01  0.51100000000E-03 0. -1.
        -11    1    3    3    0    0 -0.81724736403E+01  0.12328720950E+01  0.79559362466E+01  0.11471975454E+02  0.51100000000E-03 0.  1.
         12    1    3    3    0    0 -0.44269828251E+01 -0.65773920176E+01  0.26331439035E+02  0.27499180794E+02  0.00000000000E+00 0. -1.
</event>
<event>
 7    1  0.2653124E-010  0.4778727E+02  0.7816164E-02  0.1312668E+00
        -11   -1    0    0    0    0  0.00000000000E+00  0.00000000000E+00  0.45593999997E+02  0.45594000000E+02  0.51100000000E-03 0. -1.
         11   -1    0    0    0    0 -0.00000000000E+00 -0.00000000000E+00 -0.45593999997E+02  0.45594000000E+02  0.51100000000E-03 0.  1.
    9900012    2    1    2    0    0 -0.32026034575E+02  0.92896186575E+01 -0.27778765590E+02  0.47787265870E+02  0.19999976406E+02 0.  0.
         12    1    1    2    0    0  0.32026034575E+02 -0.92896186575E+01  0.27778765590E+02  0.43400734130E+02  0.00000000000E+00 0. -1.
         11    1    3    3    0    0 -0.35214129301E+01  0.87882962441E-01 -0.23778459832E+01  0.42499675552E+01  0.51100000000E-03 0. -1.
        -11    1    3    3    0    0 -0.15127892305E+02  0.92382346358E+01 -0.24351175095E+02  0.30119392981E+02  0.51100000000E-03 0.  1.
         12    1    3    3    0    0 -0.13376729339E+02 -0.36498940728E-01 -0.10497445112E+01  0.13417905333E+02  0.00000000000E+00 0. -1.
</event>
<event>
 7    1  0.2653124E-010  0.4778727E+02  0.7816164E-02  0.1312668E+00
        -11   -1    0    0    0    0  0.00000000000E+00  0.00000000000E+00  0.45593999997E+02  0.45594000000E+02  0.51100000000E-03 0.  1.
         11   -1    0    0    0    0 -0.00000000000E+00 -0.00000000000E+00 -0.45593999997E+02  0.45594000000E+02  0.51100000000E-03 0. -1.
    9900012    2    1    2    0    0 -0.31607822295E+02  0.87500455650E+01  0.28425440191E+02  0.47787269849E+02  0.19999994548E+02 0.  0.
         12    1    1    2    0    0  0.31607822295E+02 -0.87500455650E+01 -0.28425440191E+02  0.43400730151E+02  0.00000000000E+00 0. -1.
         11    1    3    3    0    0 -0.89830792476E+01  0.39128586696E+01  0.63314586512E+01  0.11665913794E+02  0.51100000000E-03 0. -1.
        -11    1    3    3    0    0 -0.23789652717E+02  0.75982917211E+01  0.21727298020E+02  0.33102221874E+02  0.51100000000E-03 0.  1.
         12    1    3    3    0    0  0.11649096697E+01 -0.27611048257E+01  0.36668351947E+00  0.30191341806E+01  0.00000000000E+00 0. -1.
</event>
<event>
 7    1  0.2653124E-010  0.4778727E+02  0.7816164E-02  0.1312668E+00
        -11   -1    0    0    0    0  0.00000000000E+00  0.00000000000E+00  0.45593999997E+02  0.45594000000E+02  0.51100000000E-03 0.  1.
         11   -1    0    0    0    0 -0.00000000000E+00 -0.00000000000E+00 -0.45593999997E+02  0.45594000000E+02  0.51100000000E-03 0. -1.
    9900012    2    1    2    0    0  0.24966459987E+02  0.25170342166E+02  0.25035040570E+02  0.47787268378E+02  0.19999987841E+02 0.  0.
         12    1    1    2    0    0 -0.24966459987E+02 -0.25170342166E+02 -0.25035040570E+02  0.43400731622E+02  0.00000000000E+00 0. -1.
         11    1    3    3    0    0  0.88553095010E+01  0.41056611331E+01  0.69442408394E+01  0.11978958252E+02  0.51100000000E-03 0.  1.
        -11    1    3    3    0    0  0.17761353519E+02  0.11779708925E+02  0.10829386190E+02  0.23906125297E+02  0.51100000000E-03 0. -1.
         12    1    3    3    0    0 -0.16502030337E+01  0.92849721075E+01  0.72614135405E+01  0.11902184829E+02  0.00000000000E+00 0. -1.
</event>
<event>
 7    1  0.2653124E-010  0.4778728E+02  0.7816164E-02  0.1312668E+00
        -11   -1    0    0    0    0  0.00000000000E+00  0.00000000000E+00  0.45593999997E+02  0.45594000000E+02  0.51100000000E-03 0.  1.
         11   -1    0    0    0    0 -0.00000000000E+00 -0.00000000000E+00 -0.45593999997E+02  0.45594000000E+02  0.51100000000E-03 0. -1.
    9900012    2    1    2    0    0 -0.23636042245E+00 -0.11243670728E+02  0.41918329347E+02  0.47787281885E+02  0.20000049425E+02 0.  0.
         12    1    1    2    0    0  0.23636042245E+00  0.11243670728E+02 -0.41918329347E+02  0.43400718115E+02  0.00000000000E+00 0. -1.
         11    1    3    3    0    0 -0.29614006215E+00 -0.42399628185E+01  0.71653998759E+01  0.83311427356E+01  0.51100000000E-03 0. -1.
        -11    1    3    3    0    0 -0.79824399843E+01 -0.64753093811E+01  0.23143960124E+02  0.25323741236E+02  0.51100000000E-03 0.  1.
         12    1    3    3    0    0  0.80422196240E+01 -0.52839852806E+00  0.11608969347E+02  0.14132397913E+02  0.00000000000E+00 0. -1.
</event>
<event>
 7    1  0.2653124E-010  0.4778727E+02  0.7816164E-02  0.1312668E+00
        -11   -1    0    0    0    0  0.00000000000E+00  0.00000000000E+00  0.45593999997E+02  0.45594000000E+02  0.51100000000E-03 0.  1.
         11   -1    0    0    0    0 -0.00000000000E+00 -0.00000000000E+00 -0.45593999997E+02  0.45594000000E+02  0.51100000000E-03 0. -1.
    9900012    2    1    2    0    0  0.20631597050E+02 -0.63769524722E+01  0.37646979424E+02  0.47787269829E+02  0.19999994457E+02 0.  0.
         12    1    1    2    0    0 -0.20631597050E+02  0.63769524722E+01 -0.37646979424E+02  0.43400730171E+02  0.00000000000E+00 0. -1.
         11    1    3    3    0    0  0.40419207385E+00  0.72769773047E+00 -0.18383625041E+00  0.85247360521E+00  0.51100000000E-03 0. -1.
        -11    1    3    3    0    0  0.15037771484E+02 -0.10382072383E+01  0.35578342237E+02  0.38639757790E+02  0.51100000000E-03 0.  1.
        -12    1    3    3    0    0  0.51896334922E+01 -0.60664429643E+01  0.22524734369E+01  0.82950384331E+01  0.00000000000E+00 0.  1.
</event>
<event>
 7    1  0.2653124E-010  0.4778727E+02  0.7816164E-02  0.1312668E+00
        -11   -1    0    0    0    0  0.00000000000E+00  0.00000000000E+00  0.45593999997E+02  0.45594000000E+02  0.51100000000E-03 0.  1.
         11   -1    0    0    0    0 -0.00000000000E+00 -0.00000000000E+00 -0.45593999997E+02  0.45594000000E+02  0.51100000000E-03 0. -1.
    9900012    2    1    2    0    0  0.16361467038E+02 -0.28317711172E+02  0.28531263260E+02  0.47787270134E+02  0.19999995851E+02 0.  0.
         12    1    1    2    0    0 -0.16361467038E+02  0.28317711172E+02 -0.28531263260E+02  0.43400729866E+02  0.00000000000E+00 0. -1.
         11    1    3    3    0    0 -0.17416385483E+01 -0.20874631176E+01  0.99535187043E+00  0.28950876856E+01  0.51100000000E-03 0. -1.
        -11    1    3    3    0    0  0.21633051263E+01 -0.42740384649E+01  0.13540978519E+02  0.14363335037E+02  0.51100000000E-03 0.  1.
        -12    1    3    3    0    0  0.15939800460E+02 -0.21956209590E+02  0.13994932870E+02  0.30528847412E+02  0.00000000000E+00 0.  1.
</event>
<event>
 7    1  0.2653124E-010  0.4778728E+02  0.7816164E-02  0.1312668E+00
        -11   -1    0    0    0    0  0.00000000000E+00  0.00000000000E+00  0.45593999997E+02  0.45594000000E+02  0.51100000000E-03 0.  1.
         11   -1    0    0    0    0 -0.00000000000E+00 -0.00000000000E+00 -0.45593999997E+02  0.45594000000E+02  0.51100000000E-03 0. -1.
    9900012    2    1    2    0    0 -0.31055163250E+02 -0.93506031366E+01  0.28840340800E+02  0.47787283405E+02  0.20000056355E+02 0.  0.
         12    1    1    2    0    0  0.31055163250E+02  0.93506031366E+01 -0.28840340800E+02  0.43400716595E+02  0.00000000000E+00 0. -1.
         11    1    3    3    0    0 -0.31150722703E+02 -0.10862233710E+02  0.28957225965E+02  0.43896202364E+02  0.51100000000E-03 0.  1.
        -11    1    3    3    0    0  0.10348623152E+01 -0.62099513477E+00 -0.81752733243E+00  0.14577126497E+01  0.51100000000E-03 0. -1.
        -12    1    3    3    0    0 -0.93930286223E+00  0.21326257084E+01  0.70064216756E+00  0.24333683910E+01  0.00000000000E+00 0.  1.
</event>
<event>
 7    1  0.2653124E-010  0.4778727E+02  0.7816164E-02  0.1312668E+00
        -11   -1    0    0    0    0  0.00000000000E+00  0.00000000000E+00  0.45593999997E+02  0.45594000000E+02  0.51100000000E-03 0.  1.
         11   -1    0    0    0    0 -0.00000000000E+00 -0.00000000000E+00 -0.45593999997E+02  0.45594000000E+02  0.51100000000E-03 0. -1.
    9900012    2    1    2    0    0 -0.19806732013E+02 -0.23003518276E+01  0.38548993748E+02  0.47787272235E+02  0.20000005426E+02 0.  0.
         12    1    1    2    0    0  0.19806732013E+02  0.23003518276E+01 -0.38548993748E+02  0.43400727765E+02  0.00000000000E+00 0. -1.
         11    1    3    3    0    0 -0.14882595721E+01 -0.38672052346E+01  0.54015980715E+01  0.68078965083E+01  0.51100000000E-03 0. -1.
        -11    1    3    3    0    0 -0.51110830913E+01  0.10986142828E+01  0.24807166631E+02  0.25352034243E+02  0.51100000000E-03 0.  1.
         12    1    3    3    0    0 -0.13207389350E+02  0.46823912423E+00  0.83402290454E+01  0.15627341484E+02  0.00000000000E+00 0. -1.
</event>
<event>
 7    1  0.2653124E-010  0.4778727E+02  0.7816164E-02  0.1312668E+00
        -11   -1    0    0    0    0  0.00000000000E+00  0.00000000000E+00  0.45593999997E+02  0.45594000000E+02  0.51100000000E-03 0. -1.
         11   -1    0    0    0    0 -0.00000000000E+00 -0.00000000000E+00 -0.45593999997E+02  0.45594000000E+02  0.51100000000E-03 0.  1.
    9900012    2    1    2    0    0 -0.31422900960E+02  0.20666763597E+02 -0.21658936461E+02  0.47787270157E+02  0.19999995953E+02 0.  0.
         12    1    1    2    0    0  0.31422900960E+02 -0.20666763597E+02  0.21658936461E+02  0.43400729843E+02  0.00000000000E+00 0. -1.
         11    1    3    3    0    0 -0.98409856348E+01  0.13725889165E+02 -0.90142434125E+01  0.19144231930E+02  0.51100000000E-03 0. -1.
        -11    1    3    3    0    0 -0.20389215779E+01  0.57734730221E+01 -0.30511863412E+01  0.68410474555E+01  0.51100000000E-03 0.  1.
        -12    1    3    3    0    0 -0.19542993747E+02  0.11674014098E+01 -0.95935067070E+01  0.21801990771E+02  0.00000000000E+00 0.  1.
</event>
<event>
 7    1  0.2653124E-010  0.4778726E+02  0.7816164E-02  0.1312668E+00
        -11   -1    0    0    0    0  0.00000000000E+00  0.00000000000E+00  0.45593999997E+02  0.45594000000E+02  0.51100000000E-03 0.  1.
         11   -1    0    0    0    0 -0.00000000000E+00 -0.00000000000E+00 -0.45593999997E+02  0.45594000000E+02  0.51100000000E-03 0. -1.
    9900012    2    1    2    0    0 -0.29506491640E+02  0.30950935687E+02  0.74182692140E+01  0.47787260525E+02  0.19999952038E+02 0.  0.
         12    1    1    2    0    0  0.29506491640E+02 -0.30950935687E+02 -0.74182692140E+01  0.43400739475E+02  0.00000000000E+00 0. -1.
         11    1    3    3    0    0 -0.12182585176E+02  0.95210719707E+01  0.89562555399E+01  0.17868427647E+02  0.51100000000E-03 0. -1.
        -11    1    3    3    0    0 -0.11846666075E+02  0.86058928926E+01  0.35640654870E+01  0.15070084692E+02  0.51100000000E-03 0.  1.
        -12    1    3    3    0    0 -0.54772403898E+01  0.12823970824E+02 -0.51020518128E+01  0.14848748186E+02  0.00000000000E+00 0.  1.
</event>
<event>
 7    1  0.2653124E-010  0.4778727E+02  0.7816164E-02  0.1312668E+00
        -11   -1    0    0    0    0  0.00000000000E+00  0.00000000000E+00  0.45593999997E+02  0.45594000000E+02  0.51100000000E-03 0.  1.
         11   -1    0    0    0    0 -0.00000000000E+00 -0.00000000000E+00 -0.45593999997E+02  0.45594000000E+02  0.51100000000E-03 0. -1.
    9900012    2    1    2    0    0 -0.32864829152E+01  0.28497375724E+02  0.32568726084E+02  0.47787270608E+02  0.19999998008E+02 0.  0.
         12    1    1    2    0    0  0.32864829152E+01 -0.28497375724E+02 -0.32568726084E+02  0.43400729392E+02  0.00000000000E+00 0. -1.
         11    1    3    3    0    0  0.29693553428E+01  0.87724364156E+01  0.91704266173E+01  0.13033396964E+02  0.51100000000E-03 0.  1.
        -11    1    3    3    0    0 -0.10000881134E+02  0.12563728515E+02  0.94467402541E+01  0.18630775597E+02  0.51100000000E-03 0. -1.
         12    1    3    3    0    0  0.37450428761E+01  0.71612107929E+01  0.13951559212E+02  0.16123098047E+02  0.00000000000E+00 0. -1.
</event>
<event>
 7    1  0.2653124E-010  0.4778727E+02  0.7816164E-02  0.1312668E+00
        -11   -1    0    0    0    0  0.00000000000E+00  0.00000000000E+00  0.45593999997E+02  0.45594000000E+02  0.51100000000E-03 0.  1.
         11   -1    0    0    0    0 -0.00000000000E+00 -0.00000000000E+00 -0.45593999997E+02  0.45594000000E+02  0.51100000000E-03 0. -1.
    9900012    2    1    2    0    0 -0.16396753898E+02 -0.14126268496E+02  0.37619387618E+02  0.47787270458E+02  0.19999997328E+02 0.  0.
         12    1    1    2    0    0  0.16396753898E+02  0.14126268496E+02 -0.37619387618E+02  0.43400729542E+02  0.00000000000E+00 0. -1.
         11    1    3    3    0    0 -0.44504592067E+01  0.18568025599E+01  0.12158415217E+02  0.13079807482E+02  0.51100000000E-03 0. -1.
        -11    1    3    3    0    0 -0.12609350276E+02 -0.67364974995E+01  0.16150320214E+02  0.21568703165E+02  0.51100000000E-03 0.  1.
         12    1    3    3    0    0  0.66305558526E+00 -0.92465735567E+01  0.93106521863E+01  0.13138759811E+02  0.00000000000E+00 0. -1.
</event>
<event>
 7    1  0.2653124E-010  0.4778727E+02  0.7816164E-02  0.1312668E+00
        -11   -1    0    0    0    0  0.00000000000E+00  0.00000000000E+00  0.45593999997E+02  0.45594000000E+02  0.51100000000E-03 0.  1.
         11   -1    0    0    0    0 -0.00000000000E+00 -0.00000000000E+00 -0.45593999997E+02  0.45594000000E+02  0.51100000000E-03 0. -1.
    9900012    2    1    2    0    0 -0.34247886602E+02 -0.11812128656E+02  0.23899350900E+02  0.47787273123E+02  0.20000009476E+02 0.  0.
         12    1    1    2    0    0  0.34247886602E+02  0.11812128656E+02 -0.23899350900E+02  0.43400726877E+02  0.00000000000E+00 0. -1.
         11    1    3    3    0    0 -0.17179855043E+02 -0.55103244480E+01  0.37326622659E+01  0.18424002352E+02  0.51100000000E-03 0.  1.
        -11    1    3    3    0    0  0.10146675346E+01  0.11386634635E+01  0.43939629348E+00  0.15871906164E+01  0.51100000000E-03 0. -1.
         12    1    3    3    0    0 -0.18082699093E+02 -0.74404676712E+01  0.19727292340E+02  0.27776080154E+02  0.00000000000E+00 0. -1.
</event>
<event>
 7    1  0.2653124E-010  0.4778727E+02  0.7816164E-02  0.1312668E+00
        -11   -1    0    0    0    0  0.00000000000E+00  0.00000000000E+00  0.45593999997E+02  0.45594000000E+02  0.51100000000E-03 0.  1.
         11   -1    0    0    0    0 -0.00000000000E+00 -0.00000000000E+00 -0.45593999997E+02  0.45594000000E+02  0.51100000000E-03 0. -1.
    9900012    2    1    2    0    0  0.10814371997E+02  0.41990544503E+02 -0.18619834746E+01  0.47787268995E+02  0.19999990655E+02 0.  0.
         12    1    1    2    0    0 -0.10814371997E+02 -0.41990544503E+02  0.18619834746E+01  0.43400731005E+02  0.00000000000E+00 0. -1.
         11    1    3    3    0    0  0.10144067749E+01  0.40262619032E+01 -0.29804035578E+00  0.41627676290E+01  0.51100000000E-03 0. -1.
        -11    1    3    3    0    0  0.90301142813E+01  0.34073513743E+02 -0.79236710850E+01  0.36129376779E+02  0.51100000000E-03 0.  1.
         12    1    3    3    0    0  0.76985094125E+00  0.38907688568E+01  0.63597279662E+01  0.74951245869E+01  0.00000000000E+00 0. -1.
</event>
<event>
 7    1  0.2653124E-010  0.4778727E+02  0.7816164E-02  0.1312668E+00
        -11   -1    0    0    0    0  0.00000000000E+00  0.00000000000E+00  0.45593999997E+02  0.45594000000E+02  0.51100000000E-03 0.  1.
         11   -1    0    0    0    0 -0.00000000000E+00 -0.00000000000E+00 -0.45593999997E+02  0.45594000000E+02  0.51100000000E-03 0. -1.
    9900012    2    1    2    0    0  0.28889974441E+02 -0.15009215639E+02  0.28700458453E+02  0.47787268524E+02  0.19999988506E+02 0.  0.
         12    1    1    2    0    0 -0.28889974441E+02  0.15009215639E+02 -0.28700458453E+02  0.43400731476E+02  0.00000000000E+00 0. -1.
         11    1    3    3    0    0  0.60648172927E+00 -0.55294871726E+01  0.55833368841E+01  0.78814148161E+01  0.51100000000E-03 0. -1.
        -11    1    3    3    0    0 -0.12815608357E+01 -0.54338091224E+00  0.11743868841E+00  0.13969442000E+01  0.51100000000E-03 0.  1.
        -12    1    3    3    0    0  0.29565053547E+02 -0.89363475545E+01  0.22999682880E+02  0.38508909507E+02  0.00000000000E+00 0.  1.
</event>
<event>
 7    1  0.2653124E-010  0.4778727E+02  0.7816164E-02  0.1312668E+00
        -11   -1    0    0    0    0  0.00000000000E+00  0.00000000000E+00  0.45593999997E+02  0.45594000000E+02  0.51100000000E-03 0.  1.
         11   -1    0    0    0    0 -0.00000000000E+00 -0.00000000000E+00 -0.45593999997E+02  0.45594000000E+02  0.51100000000E-03 0. -1.
    9900012    2    1    2    0    0  0.38551897932E+02  0.98808071061E+00  0.19909751028E+02  0.47787270471E+02  0.19999997386E+02 0.  0.
         12    1    1    2    0    0 -0.38551897932E+02 -0.98808071061E+00 -0.19909751028E+02  0.43400729529E+02  0.00000000000E+00 0. -1.
         11    1    3    3    0    0  0.46669086192E+01  0.45433430318E+01 -0.59555697393E+00  0.65403891577E+01  0.51100000000E-03 0. -1.
        -11    1    3    3    0    0 -0.13828535057E+00  0.11268518052E+01 -0.18763406925E+00  0.11507061459E+01  0.51100000000E-03 0.  1.
        -12    1    3    3    0    0  0.34023274663E+02 -0.46821141264E+01  0.20692942072E+02  0.40096175168E+02  0.00000000000E+00 0.  1.
</event>
<event>
 7    1  0.2653124E-010  0.4778728E+02  0.7816164E-02  0.1312668E+00
        -11   -1    0    0    0    0  0.00000000000E+00  0.00000000000E+00  0.45593999997E+02  0.45594000000E+02  0.51100000000E-03 0. -1.
         11   -1    0    0    0    0 -0.00000000000E+00 -0.00000000000E+00 -0.45593999997E+02  0.45594000000E+02  0.51100000000E-03 0.  1.
    9900012    2    1    2    0    0 -0.38999582084E+02 -0.18966887993E+02  0.17066514170E+01  0.47787275329E+02  0.20000019536E+02 0.  0.
         12    1    1    2    0    0  0.38999582084E+02  0.18966887993E+02 -0.17066514170E+01  0.43400724671E+02  0.00000000000E+00 0. -1.
         11    1    3    3    0    0 -0.67596995805E+01 -0.59119156238E+01  0.37407364703E+01  0.97281752843E+01  0.51100000000E-03 0. -1.
        -11    1    3    3    0    0 -0.13081505240E+02 -0.13532947111E+02 -0.41583927309E+00  0.18826559947E+02  0.51100000000E-03 0.  1.
        -12    1    3    3    0    0 -0.19158377263E+02  0.47797474149E+00 -0.16182457802E+01  0.19232540098E+02  0.00000000000E+00 0.  1.
</event>
<event>
 7    1  0.2653124E-010  0.4778727E+02  0.7816164E-02  0.1312668E+00
        -11   -1    0    0    0    0  0.00000000000E+00  0.00000000000E+00  0.45593999997E+02  0.45594000000E+02  0.51100000000E-03 0.  1.
         11   -1    0    0    0    0 -0.00000000000E+00 -0.00000000000E+00 -0.45593999997E+02  0.45594000000E+02  0.51100000000E-03 0. -1.
    9900012    2    1    2    0    0  0.36183485808E+02 -0.68990013113E+01  0.22951747278E+02  0.47787267663E+02  0.19999984581E+02 0.  0.
         12    1    1    2    0    0 -0.36183485808E+02  0.68990013113E+01 -0.22951747278E+02  0.43400732337E+02  0.00000000000E+00 0. -1.
         11    1    3    3    0    0  0.18250723942E+01 -0.46941547937E+00 -0.26023791815E+01  0.32130387177E+01  0.51100000000E-03 0. -1.
        -11    1    3    3    0    0  0.12223114817E+01 -0.66993282345E+00  0.49256680866E+01  0.51190879761E+01  0.51100000000E-03 0.  1.
        -12    1    3    3    0    0  0.33136101932E+02 -0.57596530085E+01  0.20628458373E+02  0.39455140969E+02  0.00000000000E+00 0.  1.
</event>
<event>
 7    1  0.2653124E-010  0.4778727E+02  0.7816164E-02  0.1312668E+00
        -11   -1    0    0    0    0  0.00000000000E+00  0.00000000000E+00  0.45593999997E+02  0.45594000000E+02  0.51100000000E-03 0. -1.
         11   -1    0    0    0    0 -0.00000000000E+00 -0.00000000000E+00 -0.45593999997E+02  0.45594000000E+02  0.51100000000E-03 0.  1.
    9900012    2    1    2    0    0 -0.16964911465E+02  0.38347190509E+02  0.11194107398E+02  0.47787270958E+02  0.19999999607E+02 0.  0.
         12    1    1    2    0    0  0.16964911465E+02 -0.38347190509E+02 -0.11194107398E+02  0.43400729042E+02  0.00000000000E+00 0. -1.
         11    1    3    3    0    0 -0.44659099525E+01  0.56056765231E+01  0.58005120260E+01  0.92202983146E+01  0.51100000000E-03 0. -1.
        -11    1    3    3    0    0 -0.42898730380E+01 -0.14448932145E+00  0.67105721595E+00  0.43444454070E+01  0.51100000000E-03 0.  1.
        -12    1    3    3    0    0 -0.82091284748E+01  0.32886003307E+02  0.47225381561E+01  0.34222527236E+02  0.00000000000E+00 0.  1.
</event>
<event>
 7    1  0.2653124E-010  0.4778727E+02  0.7816164E-02  0.1312668E+00
        -11   -1    0    0    0    0  0.00000000000E+00  0.00000000000E+00  0.45593999997E+02  0.45594000000E+02  0.51100000000E-03 0.  1.
         11   -1    0    0    0    0 -0.00000000000E+00 -0.00000000000E+00 -0.45593999997E+02  0.45594000000E+02  0.51100000000E-03 0. -1.
    9900012    2    1    2    0    0  0.38044843094E+02  0.56841126809E+01  0.20097360602E+02  0.47787272746E+02  0.20000007757E+02 0.  0.
         12    1    1    2    0    0 -0.38044843094E+02 -0.56841126809E+01 -0.20097360602E+02  0.43400727254E+02  0.00000000000E+00 0. -1.
         11    1    3    3    0    0  0.98956615356E+01  0.45721071212E+01 -0.87818874479E+00  0.10936155471E+02  0.51100000000E-03 0. -1.
        -11    1    3    3    0    0  0.60095738224E+01  0.49872165268E+01  0.58925806402E+01  0.97831392239E+01  0.51100000000E-03 0.  1.
        -12    1    3    3    0    0  0.22139607736E+02 -0.38752109671E+01  0.15082968706E+02  0.27067978051E+02  0.00000000000E+00 0.  1.
</event>
<event>
 7    1  0.2653124E-010  0.4778726E+02  0.7816164E-02  0.1312668E+00
        -11   -1    0    0    0    0  0.00000000000E+00  0.00000000000E+00  0.45593999997E+02  0.45594000000E+02  0.51100000000E-03 0.  1.
         11   -1    0    0    0    0 -0.00000000000E+00 -0.00000000000E+00 -0.45593999997E+02  0.45594000000E+02  0.51100000000E-03 0. -1.
    9900012    2    1    2    0    0 -0.43328066219E+02 -0.17338400807E+01 -0.18155915197E+01  0.47787263874E+02  0.19999967307E+02 0.  0.
         12    1    1    2    0    0  0.43328066219E+02  0.17338400807E+01  0.18155915197E+01  0.43400736126E+02  0.00000000000E+00 0. -1.
         11    1    3    3    0    0 -0.74372184321E+01 -0.39527124663E+01 -0.75040302500E+01  0.11280364538E+02  0.51100000000E-03 0. -1.
        -11    1    3    3    0    0 -0.98291883653E+01 -0.20510286447E+00  0.65461220474E+00  0.98530974067E+01  0.51100000000E-03 0.  1.
         12    1    3    3    0    0 -0.26061659422E+02  0.24239752500E+01  0.50338265256E+01  0.26653801930E+02  0.00000000000E+00 0. -1.
</event>
<event>
 7    1  0.2653124E-010  0.4778724E+02  0.7816164E-02  0.1312668E+00
        -11   -1    0    0    0    0  0.00000000000E+00  0.00000000000E+00  0.45593999997E+02  0.45594000000E+02  0.51100000000E-03 0. -1.
         11   -1    0    0    0    0 -0.00000000000E+00 -0.00000000000E+00 -0.45593999997E+02  0.45594000000E+02  0.51100000000E-03 0.  1.
    9900012    2    1    2    0    0  0.13718399130E+02 -0.33535525834E+02 -0.23891415157E+02  0.47787243257E+02  0.19999873305E+02 0.  0.
         12    1    1    2    0    0 -0.13718399130E+02  0.33535525834E+02  0.23891415157E+02  0.43400756743E+02  0.00000000000E+00 0. -1.
         11    1    3    3    0    0  0.12544323805E+00  0.44571831138E-01 -0.47095921332E+01  0.47114733340E+01  0.51100000000E-03 0. -1.
        -11    1    3    3    0    0  0.56251692553E+01 -0.20927800494E+02 -0.17829615847E+02  0.28062618627E+02  0.51100000000E-03 0.  1.
        -12    1    3    3    0    0  0.79677866364E+01 -0.12652297171E+02 -0.13522071765E+01  0.15013151296E+02  0.00000000000E+00 0.  1.
</event>
<event>
 7    1  0.2653124E-010  0.4778730E+02  0.7816164E-02  0.1312668E+00
        -11   -1    0    0    0    0  0.00000000000E+00  0.00000000000E+00  0.45593999997E+02  0.45594000000E+02  0.51100000000E-03 0. -1.
         11   -1    0    0    0    0 -0.00000000000E+00 -0.00000000000E+00 -0.45593999997E+02  0.45594000000E+02  0.51100000000E-03 0.  1.
    9900012    2    1    2    0    0 -0.10602271544E+01 -0.16579807362E+02 -0.40094969091E+02  0.47787301386E+02  0.20000138337E+02 0.  0.
         12    1    1    2    0    0  0.10602271544E+01  0.16579807362E+02  0.40094969091E+02  0.43400698614E+02  0.00000000000E+00 0. -1.
         11    1    3    3    0    0  0.35643067468E+01 -0.11039916207E+02 -0.97032780181E+01  0.15124074748E+02  0.51100000000E-03 0. -1.
        -11    1    3    3    0    0 -0.23293802708E+01  0.70173470983E+00 -0.11795262509E+01  0.27036505852E+01  0.51100000000E-03 0.  1.
        -12    1    3    3    0    0 -0.22951536304E+01 -0.62416258655E+01 -0.29212164822E+02  0.29959576052E+02  0.00000000000E+00 0.  1.
</event>
<event>
 7    1  0.2653124E-010  0.4778729E+02  0.7816164E-02  0.1312668E+00
        -11   -1    0    0    0    0  0.00000000000E+00  0.00000000000E+00  0.45593999997E+02  0.45594000000E+02  0.51100000000E-03 0. -1.
         11   -1    0    0    0    0 -0.00000000000E+00 -0.00000000000E+00 -0.45593999997E+02  0.45594000000E+02  0.51100000000E-03 0.  1.
    9900012    2    1    2    0    0 -0.35786017997E+01 -0.33249374319E+02  0.27663956723E+02  0.47787288196E+02  0.20000078203E+02 0.  0.
         12    1    1    2    0    0  0.35786017997E+01  0.33249374319E+02 -0.27663956723E+02  0.43400711804E+02  0.00000000000E+00 0. -1.
         11    1    3    3    0    0  0.13390589616E+00  0.10350736922E+01 -0.88564796995E+00  0.13688246509E+01  0.51100000000E-03 0. -1.
        -11    1    3    3    0    0  0.23742489932E+01 -0.80319594888E+00  0.13044356373E+01  0.28255503193E+01  0.51100000000E-03 0.  1.
        -12    1    3    3    0    0 -0.60867566890E+01 -0.33481252062E+02  0.27245169056E+02  0.43592913226E+02  0.00000000000E+00 0.  1.
</event>
<event>
 7    1  0.2653124E-010  0.4778727E+02  0.7816164E-02  0.1312668E+00
        -11   -1    0    0    0    0  0.00000000000E+00  0.00000000000E+00  0.45593999997E+02  0.45594000000E+02  0.51100000000E-03 0.  1.
         11   -1    0    0    0    0 -0.00000000000E+00 -0.00000000000E+00 -0.45593999997E+02  0.45594000000E+02  0.51100000000E-03 0. -1.
    9900012    2    1    2    0    0 -0.13747745067E+02  0.20552748573E+02  0.35668019899E+02  0.47787267150E+02  0.19999982246E+02 0.  0.
         12    1    1    2    0    0  0.13747745067E+02 -0.20552748573E+02 -0.35668019899E+02  0.43400732850E+02  0.00000000000E+00 0. -1.
         11    1    3    3    0    0 -0.50160110622E+00 -0.10777976324E+01  0.75088681924E+01  0.76023912816E+01  0.51100000000E-03 0. -1.
        -11    1    3    3    0    0 -0.63527111825E+01  0.11286970941E+02  0.23645864166E+02  0.26960703715E+02  0.51100000000E-03 0.  1.
         12    1    3    3    0    0 -0.68934327787E+01  0.10343575264E+02  0.45132875407E+01  0.13224172154E+02  0.00000000000E+00 0. -1.
</event>
<event>
 7    1  0.2653124E-010  0.4778727E+02  0.7816164E-02  0.1312668E+00
        -11   -1    0    0    0    0  0.00000000000E+00  0.00000000000E+00  0.45593999997E+02  0.45594000000E+02  0.51100000000E-03 0. -1.
         11   -1    0    0    0    0 -0.00000000000E+00 -0.00000000000E+00 -0.45593999997E+02  0.45594000000E+02  0.51100000000E-03 0.  1.
    9900012    2    1    2    0    0  0.40804608406E+02  0.12939274593E+02 -0.71541891357E+01  0.47787270555E+02  0.19999997769E+02 0.  0.
         12    1    1    2    0    0 -0.40804608406E+02 -0.12939274593E+02  0.71541891357E+01  0.43400729445E+02  0.00000000000E+00 0. -1.
         11    1    3    3    0    0  0.14510075176E+02  0.55884934457E+01 -0.15863707442E+01  0.15629782884E+02  0.51100000000E-03 0. -1.
        -11    1    3    3    0    0  0.54374697870E+01  0.92053393869E+01 -0.11091594034E+01  0.10748701585E+02  0.51100000000E-03 0.  1.
         12    1    3    3    0    0  0.20857063443E+02 -0.18545582393E+01 -0.44586589881E+01  0.21408786087E+02  0.00000000000E+00 0. -1.
</event>
<event>
 7    1  0.2653124E-010  0.4778726E+02  0.7816164E-02  0.1312668E+00
        -11   -1    0    0    0    0  0.00000000000E+00  0.00000000000E+00  0.45593999997E+02  0.45594000000E+02  0.51100000000E-03 0. -1.
         11   -1    0    0    0    0 -0.00000000000E+00 -0.00000000000E+00 -0.45593999997E+02  0.45594000000E+02  0.51100000000E-03 0.  1.
    9900012    2    1    2    0    0  0.37513487080E+02  0.17540114641E+02 -0.12988707323E+02  0.47787264379E+02  0.19999969608E+02 0.  0.
         12    1    1    2    0    0 -0.37513487080E+02 -0.17540114641E+02  0.12988707323E+02  0.43400735621E+02  0.00000000000E+00 0. -1.
         11    1    3    3    0    0  0.12472608855E+01  0.54890921145E+01 -0.40993028719E+00  0.56439201854E+01  0.51100000000E-03 0. -1.
        -11    1    3    3    0    0  0.76895011227E+01 -0.11822120357E+01  0.10090149988E+01  0.78450088810E+01  0.51100000000E-03 0.  1.
         12    1    3    3    0    0  0.28576725072E+02  0.13233234563E+02 -0.13587792035E+02  0.34298335312E+02  0.00000000000E+00 0. -1.
</event>
<event>
 7    1  0.2653124E-010  0.4778727E+02  0.7816164E-02  0.1312668E+00
        -11   -1    0    0    0    0  0.00000000000E+00  0.00000000000E+00  0.45593999997E+02  0.45594000000E+02  0.51100000000E-03 0.  1.
         11   -1    0    0    0    0 -0.00000000000E+00 -0.00000000000E+00 -0.45593999997E+02  0.45594000000E+02  0.51100000000E-03 0. -1.
    9900012    2    1    2    0    0 -0.23022616966E+02 -0.33357283742E+02  0.15520116601E+02  0.47787270860E+02  0.19999999158E+02 0.  0.
         12    1    1    2    0    0  0.23022616966E+02  0.33357283742E+02 -0.15520116601E+02  0.43400729140E+02  0.00000000000E+00 0. -1.
         11    1    3    3    0    0 -0.10212072578E+02 -0.82946707693E+01  0.94428474630E+01  0.16194300170E+02  0.51100000000E-03 0. -1.
        -11    1    3    3    0    0 -0.11901515957E+02 -0.12801758240E+02  0.78681842784E+01  0.19168709404E+02  0.51100000000E-03 0.  1.
         12    1    3    3    0    0 -0.90902843037E+00 -0.12260854733E+02 -0.17909151403E+01  0.12424261286E+02  0.00000000000E+00 0. -1.
</event>
<event>
 7    1  0.2653124E-010  0.4778727E+02  0.7816164E-02  0.1312668E+00
        -11   -1    0    0    0    0  0.00000000000E+00  0.00000000000E+00  0.45593999997E+02  0.45594000000E+02  0.51100000000E-03 0.  1.
         11   -1    0    0    0    0 -0.00000000000E+00 -0.00000000000E+00 -0.45593999997E+02  0.45594000000E+02  0.51100000000E-03 0. -1.
    9900012    2    1    2    0    0 -0.96693828192E+01 -0.36176408491E+02  0.21940691005E+02  0.47787269393E+02  0.19999992472E+02 0.  0.
         12    1    1    2    0    0  0.96693828192E+01  0.36176408491E+02 -0.21940691005E+02  0.43400730607E+02  0.00000000000E+00 0. -1.
         11    1    3    3    0    0 -0.26689325156E+01 -0.36780897108E+01  0.96851271315E+00  0.46464569115E+01  0.51100000000E-03 0. -1.
        -11    1    3    3    0    0 -0.72824762784E+01 -0.34711637137E+02  0.19822324781E+02  0.40630736807E+02  0.51100000000E-03 0.  1.
         12    1    3    3    0    0  0.28202597483E+00  0.22133183567E+01  0.11498535111E+01  0.25100756752E+01  0.00000000000E+00 0. -1.
</event>
<event>
 7    1  0.2653124E-010  0.4778727E+02  0.7816164E-02  0.1312668E+00
        -11   -1    0    0    0    0  0.00000000000E+00  0.00000000000E+00  0.45593999997E+02  0.45594000000E+02  0.51100000000E-03 0.  1.
         11   -1    0    0    0    0 -0.00000000000E+00 -0.00000000000E+00 -0.45593999997E+02  0.45594000000E+02  0.51100000000E-03 0. -1.
    9900012    2    1    2    0    0  0.25147463024E+02 -0.11995719742E+02  0.33276585065E+02  0.47787270717E+02  0.19999998509E+02 0.  0.
         12    1    1    2    0    0 -0.25147463024E+02  0.11995719742E+02 -0.33276585065E+02  0.43400729283E+02  0.00000000000E+00 0. -1.
         11    1    3    3    0    0 -0.13115115272E+01 -0.77840251923E-01 -0.10173661494E+01  0.16616725712E+01  0.51100000000E-03 0. -1.
        -11    1    3    3    0    0  0.77850067525E+00 -0.65573929726E-01  0.62395216470E+01  0.62882425117E+01  0.51100000000E-03 0.  1.
        -12    1    3    3    0    0  0.25680473876E+02 -0.11852305560E+02  0.28054429567E+02  0.39837355634E+02  0.00000000000E+00 0.  1.
</event>
<event>
 7    1  0.2653124E-010  0.4778727E+02  0.7816164E-02  0.1312668E+00
        -11   -1    0    0    0    0  0.00000000000E+00  0.00000000000E+00  0.45593999997E+02  0.45594000000E+02  0.51100000000E-03 0. -1.
         11   -1    0    0    0    0 -0.00000000000E+00 -0.00000000000E+00 -0.45593999997E+02  0.45594000000E+02  0.51100000000E-03 0.  1.
    9900012    2    1    2    0    0 -0.35453626954E+01  0.15661513864E+02 -0.40320846723E+02  0.47787270817E+02  0.19999998964E+02 0.  0.
         12    1    1    2    0    0  0.35453626954E+01 -0.15661513864E+02  0.40320846723E+02  0.43400729183E+02  0.00000000000E+00 0. -1.
         11    1    3    3    0    0 -0.22938247533E+01  0.34940301170E+01 -0.11345725377E+02  0.12091127452E+02  0.51100000000E-03 0. -1.
        -11    1    3    3    0    0 -0.17608185380E+01  0.66854583481E+01 -0.29373496651E+02  0.30176118720E+02  0.51100000000E-03 0.  1.
         12    1    3    3    0    0  0.50928059594E+00  0.54820253991E+01  0.39837530520E+00  0.55200246454E+01  0.00000000000E+00 0. -1.
</event>
<event>
 7    1  0.2653124E-010  0.4778728E+02  0.7816164E-02  0.1312668E+00
        -11   -1    0    0    0    0  0.00000000000E+00  0.00000000000E+00  0.45593999997E+02  0.45594000000E+02  0.51100000000E-03 0. -1.
         11   -1    0    0    0    0 -0.00000000000E+00 -0.00000000000E+00 -0.45593999997E+02  0.45594000000E+02  0.51100000000E-03 0.  1.
    9900012    2    1    2    0    0  0.13132045833E+02 -0.40172019603E+02  0.98681545895E+01  0.47787282704E+02  0.20000053163E+02 0.  0.
         12    1    1    2    0    0 -0.13132045833E+02  0.40172019603E+02 -0.98681545895E+01  0.43400717296E+02  0.00000000000E+00 0. -1.
         11    1    3    3    0    0 -0.12350757039E+01 -0.14397293165E+02  0.28010809909E+01  0.14719154781E+02  0.51100000000E-03 0. -1.
        -11    1    3    3    0    0  0.57338786011E+01 -0.20918304827E+02  0.15871604939E+01  0.21747917586E+02  0.51100000000E-03 0.  1.
         12    1    3    3    0    0  0.86332429358E+01 -0.48564216113E+01  0.54799131047E+01  0.11320210338E+02  0.00000000000E+00 0. -1.
</event>
<event>
 7    1  0.2653124E-010  0.4778728E+02  0.7816164E-02  0.1312668E+00
        -11   -1    0    0    0    0  0.00000000000E+00  0.00000000000E+00  0.45593999997E+02  0.45594000000E+02  0.51100000000E-03 0.  1.
         11   -1    0    0    0    0 -0.00000000000E+00 -0.00000000000E+00 -0.45593999997E+02  0.45594000000E+02  0.51100000000E-03 0. -1.
    9900012    2    1    2    0    0  0.17103614071E+02 -0.39726842812E+02 -0.35870847533E+01  0.47787276145E+02  0.20000023254E+02 0.  0.
         12    1    1    2    0    0 -0.17103614071E+02  0.39726842812E+02  0.35870847533E+01  0.43400723855E+02  0.00000000000E+00 0. -1.
         11    1    3    3    0    0 -0.52724284506E-01  0.47008727903E+00  0.87559956098E-01  0.48107058434E+00  0.51100000000E-03 0. -1.
        -11    1    3    3    0    0  0.56886723757E+01 -0.19971383298E+02 -0.10230702664E+02  0.23149177555E+02  0.51100000000E-03 0.  1.
        -12    1    3    3    0    0  0.11467665980E+02 -0.20225546793E+02  0.65560579545E+01  0.24157028005E+02  0.00000000000E+00 0.  1.
</event>
<event>
 7    1  0.2653124E-010  0.4778728E+02  0.7816164E-02  0.1312668E+00
        -11   -1    0    0    0    0  0.00000000000E+00  0.00000000000E+00  0.45593999997E+02  0.45594000000E+02  0.51100000000E-03 0. -1.
         11   -1    0    0    0    0 -0.00000000000E+00 -0.00000000000E+00 -0.45593999997E+02  0.45594000000E+02  0.51100000000E-03 0.  1.
    9900012    2    1    2    0    0  0.15943639456E+02 -0.39791888870E+02  0.67844496384E+01  0.47787276321E+02  0.20000024058E+02 0.  0.
         12    1    1    2    0    0 -0.15943639456E+02  0.39791888870E+02 -0.67844496384E+01  0.43400723679E+02  0.00000000000E+00 0. -1.
         11    1    3    3    0    0  0.34920356117E+01 -0.56089906869E+01 -0.46149687453E+01  0.80593440192E+01  0.51100000000E-03 0.  1.
        -11    1    3    3    0    0  0.13199857086E+01  0.29563906083E+00 -0.70895048533E+00  0.15272117656E+01  0.51100000000E-03 0. -1.
        -12    1    3    3    0    0  0.11131618136E+02 -0.34478537244E+02  0.12108368869E+02  0.38200720536E+02  0.00000000000E+00 0.  1.
</event>
<event>
 7    1  0.2653124E-010  0.4778732E+02  0.7816164E-02  0.1312668E+00
        -11   -1    0    0    0    0  0.00000000000E+00  0.00000000000E+00  0.45593999997E+02  0.45594000000E+02  0.51100000000E-03 0.  1.
         11   -1    0    0    0    0 -0.00000000000E+00 -0.00000000000E+00 -0.45593999997E+02  0.45594000000E+02  0.51100000000E-03 0. -1.
    9900012    2    1    2    0    0 -0.14151073884E+02  0.20877197047E+02  0.35320088344E+02  0.47787321558E+02  0.20000230310E+02 0.  0.
         12    1    1    2    0    0  0.14151073884E+02 -0.20877197047E+02 -0.35320088344E+02  0.43400678442E+02  0.00000000000E+00 0. -1.
         11    1    3    3    0    0 -0.31200556483E+01  0.89098620447E+01  0.98969023725E+01  0.13677319391E+02  0.51100000000E-03 0. -1.
        -11    1    3    3    0    0 -0.56258972453E+00  0.84929754223E+01  0.28326571139E+01  0.89705677249E+01  0.51100000000E-03 0.  1.
        -12    1    3    3    0    0 -0.10468428511E+02  0.34743595804E+01  0.22590528857E+02  0.25139434442E+02  0.00000000000E+00 0.  1.
</event>
<event>
 7    1  0.2653124E-010  0.4778727E+02  0.7816164E-02  0.1312668E+00
        -11   -1    0    0    0    0  0.00000000000E+00  0.00000000000E+00  0.45593999997E+02  0.45594000000E+02  0.51100000000E-03 0.  1.
         11   -1    0    0    0    0 -0.00000000000E+00 -0.00000000000E+00 -0.45593999997E+02  0.45594000000E+02  0.51100000000E-03 0. -1.
    9900012    2    1    2    0    0 -0.26452480198E+02 -0.16118969000E+02  0.30398493538E+02  0.47787270978E+02  0.19999999697E+02 0.  0.
         12    1    1    2    0    0  0.26452480198E+02  0.16118969000E+02 -0.30398493538E+02  0.43400729022E+02  0.00000000000E+00 0. -1.
         11    1    3    3    0    0 -0.60406705559E+01 -0.12538314262E+01 -0.70406515527E-01  0.61698258767E+01  0.51100000000E-03 0. -1.
        -11    1    3    3    0    0 -0.17803695160E+02 -0.11406048363E+02  0.16004352632E+02  0.26518084472E+02  0.51100000000E-03 0.  1.
         12    1    3    3    0    0 -0.26081144822E+01 -0.34590892115E+01  0.14464547421E+02  0.15099360630E+02  0.00000000000E+00 0. -1.
</event>
<event>
 7    1  0.2653580E-010  0.4778727E+02  0.7816164E-02  0.1312668E+00
        -11   -1    0    0    0    0  0.00000000000E+00  0.00000000000E+00  0.45593999997E+02  0.45594000000E+02  0.51100000000E-03 0. -1.
         11   -1    0    0    0    0 -0.00000000000E+00 -0.00000000000E+00 -0.45593999997E+02  0.45594000000E+02  0.51100000000E-03 0.  1.
    9900012    2    1    2    0    0 -0.28648058725E+02 -0.25003007592E+02 -0.20922745767E+02  0.47787274801E+02  0.20000017128E+02 0.  0.
         12    1    1    2    0    0  0.28648058725E+02  0.25003007592E+02  0.20922745767E+02  0.43400725199E+02  0.00000000000E+00 0. -1.
         11    1    3    3    0    0 -0.20340218082E+02 -0.12399992171E+02 -0.60752519687E+01  0.24584404899E+02  0.51100000000E-03 0. -1.
        -11    1    3    3    0    0 -0.94728094604E+01 -0.11488984704E+02 -0.96086457069E+01  0.17721652327E+02  0.51100000000E-03 0.  1.
         12    1    3    3    0    0  0.11649688182E+01 -0.11140307173E+01 -0.52388480916E+01  0.54812175758E+01  0.00000000000E+00 0. -1.
</event>
<event>
 7    1  0.2653124E-010  0.4778728E+02  0.7816164E-02  0.1312668E+00
        -11   -1    0    0    0    0  0.00000000000E+00  0.00000000000E+00  0.45593999997E+02  0.45594000000E+02  0.51100000000E-03 0.  1.
         11   -1    0    0    0    0 -0.00000000000E+00 -0.00000000000E+00 -0.45593999997E+02  0.45594000000E+02  0.51100000000E-03 0. -1.
    9900012    2    1    2    0    0 -0.57133328893E+01 -0.62370877843E+01  0.42568522546E+02  0.47787279402E+02  0.20000038104E+02 0.  0.
         12    1    1    2    0    0  0.57133328893E+01  0.62370877843E+01 -0.42568522546E+02  0.43400720598E+02  0.00000000000E+00 0. -1.
         11    1    3    3    0    0  0.18946077842E+00 -0.24636204166E+01  0.17737789747E+01  0.30416464383E+01  0.51100000000E-03 0. -1.
        -11    1    3    3    0    0 -0.10932205238E+02  0.15372617736E+01  0.23280331637E+02  0.25765289180E+02  0.51100000000E-03 0.  1.
        -12    1    3    3    0    0  0.50294115701E+01 -0.53107291412E+01  0.17514411934E+02  0.18980343783E+02  0.00000000000E+00 0.  1.
</event>
<event>
 7    1  0.3957182E-010  0.4778727E+02  0.7816164E-02  0.1312668E+00
        -11   -1    0    0    0    0  0.00000000000E+00  0.00000000000E+00  0.45593999997E+02  0.45594000000E+02  0.51100000000E-03 0.  1.
         11   -1    0    0    0    0 -0.00000000000E+00 -0.00000000000E+00 -0.45593999997E+02  0.45594000000E+02  0.51100000000E-03 0. -1.
    9900012    2    1    2    0    0 -0.22050038756E+01 -0.42711980174E+02 -0.73788718635E+01  0.47787273711E+02  0.20000012156E+02 0.  0.
         12    1    1    2    0    0  0.22050038756E+01  0.42711980174E+02  0.73788718635E+01  0.43400726289E+02  0.00000000000E+00 0. -1.
         11    1    3    3    0    0 -0.73129870264E+00 -0.98659863885E+01  0.20668557553E+01  0.10106650196E+02  0.51100000000E-03 0. -1.
        -11    1    3    3    0    0 -0.43638635137E+01 -0.30612783222E+02 -0.40807123738E+01  0.31190351314E+02  0.51100000000E-03 0.  1.
         12    1    3    3    0    0  0.28901583407E+01 -0.22332105631E+01 -0.53650152450E+01  0.64902722002E+01  0.00000000000E+00 0. -1.
</event>
<event>
 7    1  0.2653124E-010  0.4778723E+02  0.7816164E-02  0.1312668E+00
        -11   -1    0    0    0    0  0.00000000000E+00  0.00000000000E+00  0.45593999997E+02  0.45594000000E+02  0.51100000000E-03 0. -1.
         11   -1    0    0    0    0 -0.00000000000E+00 -0.00000000000E+00 -0.45593999997E+02  0.45594000000E+02  0.51100000000E-03 0.  1.
    9900012    2    1    2    0    0  0.25412479388E+02  0.33281356930E+02 -0.11409818851E+02  0.47787230491E+02  0.19999815099E+02 0.  0.
         12    1    1    2    0    0 -0.25412479388E+02 -0.33281356930E+02  0.11409818851E+02  0.43400769509E+02  0.00000000000E+00 0. -1.
         11    1    3    3    0    0  0.15120427718E+02  0.20995270988E+02 -0.74619314437E+00  0.25884078943E+02  0.51100000000E-03 0. -1.
        -11    1    3    3    0    0  0.85996035106E+01  0.54280466281E+01 -0.14178124748E+01  0.10267768171E+02  0.51100000000E-03 0.  1.
        -12    1    3    3    0    0  0.16924481590E+01  0.68580393138E+01 -0.92458132323E+01  0.11635383377E+02  0.00000000000E+00 0.  1.
</event>
<event>
 7    1  0.2653124E-010  0.4778727E+02  0.7816164E-02  0.1312668E+00
        -11   -1    0    0    0    0  0.00000000000E+00  0.00000000000E+00  0.45593999997E+02  0.45594000000E+02  0.51100000000E-03 0.  1.
         11   -1    0    0    0    0 -0.00000000000E+00 -0.00000000000E+00 -0.45593999997E+02  0.45594000000E+02  0.51100000000E-03 0. -1.
    9900012    2    1    2    0    0 -0.31049440014E+02 -0.24576667959E+02  0.17763525617E+02  0.47787272178E+02  0.20000005167E+02 0.  0.
         12    1    1    2    0    0  0.31049440014E+02  0.24576667959E+02 -0.17763525617E+02  0.43400727822E+02  0.00000000000E+00 0. -1.
         11    1    3    3    0    0 -0.12857593469E+02 -0.13554490780E+02  0.83302023984E+01  0.20455664310E+02  0.51100000000E-03 0. -1.
        -11    1    3    3    0    0 -0.11510500758E+02 -0.14175140372E+02  0.64918322263E+01  0.19379631529E+02  0.51100000000E-03 0.  1.
         12    1    3    3    0    0 -0.66813457873E+01  0.31529631936E+01  0.29414909927E+01  0.79519763386E+01  0.00000000000E+00 0. -1.
</event>
<event>
 7    1  0.2653124E-010  0.4778727E+02  0.7816164E-02  0.1312668E+00
        -11   -1    0    0    0    0  0.00000000000E+00  0.00000000000E+00  0.45593999997E+02  0.45594000000E+02  0.51100000000E-03 0.  1.
         11   -1    0    0    0    0 -0.00000000000E+00 -0.00000000000E+00 -0.45593999997E+02  0.45594000000E+02  0.51100000000E-03 0. -1.
    9900012    2    1    2    0    0 -0.24799052146E+02  0.21638188071E+02  0.28291685362E+02  0.47787266931E+02  0.19999981244E+02 0.  0.
         12    1    1    2    0    0  0.24799052146E+02 -0.21638188071E+02 -0.28291685362E+02  0.43400733069E+02  0.00000000000E+00 0. -1.
         11    1    3    3    0    0 -0.79492866606E+01  0.44327680552E+01  0.76922639721E+00  0.91341283413E+01  0.51100000000E-03 0. -1.
        -11    1    3    3    0    0 -0.10027604136E+02  0.19078412806E+01  0.82938324525E+01  0.13152199819E+02  0.51100000000E-03 0.  1.
        -12    1    3    3    0    0 -0.68221613490E+01  0.15297578735E+02  0.19228626512E+02  0.25500938771E+02  0.00000000000E+00 0.  1.
</event>
<event>
 7    1  0.2653124E-010  0.4778731E+02  0.7816164E-02  0.1312668E+00
        -11   -1    0    0    0    0  0.00000000000E+00  0.00000000000E+00  0.45593999997E+02  0.45594000000E+02  0.51100000000E-03 0.  1.
         11   -1    0    0    0    0 -0.00000000000E+00 -0.00000000000E+00 -0.45593999997E+02  0.45594000000E+02  0.51100000000E-03 0. -1.
    9900012    2    1    2    0    0  0.15857357750E+02  0.29508386247E+02  0.27593831291E+02  0.47787306699E+02  0.20000162562E+02 0.  0.
         12    1    1    2    0    0 -0.15857357750E+02 -0.29508386247E+02 -0.27593831291E+02  0.43400693301E+02  0.00000000000E+00 0. -1.
         11    1    3    3    0    0  0.15629069035E+01  0.40353166183E+00 -0.11702012284E+01  0.19937118566E+01  0.51100000000E-03 0. -1.
        -11    1    3    3    0    0  0.23427835881E+01  0.10293850106E+02  0.16332207979E+01  0.10682667990E+02  0.51100000000E-03 0.  1.
        -12    1    3    3    0    0  0.11951667259E+02  0.18811004479E+02  0.27130811722E+02  0.35110926853E+02  0.00000000000E+00 0.  1.
</event>
<event>
 7    1  0.2653124E-010  0.4778727E+02  0.7816164E-02  0.1312668E+00
        -11   -1    0    0    0    0  0.00000000000E+00  0.00000000000E+00  0.45593999997E+02  0.45594000000E+02  0.51100000000E-03 0. -1.
         11   -1    0    0    0    0 -0.00000000000E+00 -0.00000000000E+00 -0.45593999997E+02  0.45594000000E+02  0.51100000000E-03 0.  1.
    9900012    2    1    2    0    0  0.27797532284E+02 -0.30561142617E+02  0.13301779437E+02  0.47787267572E+02  0.19999984166E+02 0.  0.
         12    1    1    2    0    0 -0.27797532284E+02  0.30561142617E+02 -0.13301779437E+02  0.43400732428E+02  0.00000000000E+00 0. -1.
         11    1    3    3    0    0  0.79127671061E+01 -0.11768466665E+02  0.11989098992E+00  0.14181786384E+02  0.51100000000E-03 0. -1.
        -11    1    3    3    0    0  0.14514715179E+02 -0.11407393955E+02  0.11441901571E+01  0.18496344638E+02  0.51100000000E-03 0.  1.
         12    1    3    3    0    0  0.53700499982E+01 -0.73852819971E+01  0.12037698290E+02  0.15109136550E+02  0.00000000000E+00 0. -1.
</event>
<event>
 7    1  0.2653124E-010  0.4778726E+02  0.7816164E-02  0.1312668E+00
        -11   -1    0    0    0    0  0.00000000000E+00  0.00000000000E+00  0.45593999997E+02  0.45594000000E+02  0.51100000000E-03 0. -1.
         11   -1    0    0    0    0 -0.00000000000E+00 -0.00000000000E+00 -0.45593999997E+02  0.45594000000E+02  0.51100000000E-03 0.  1.
    9900012    2    1    2    0    0  0.37662992692E+02 -0.38530007523E+01 -0.21219739942E+02  0.47787262719E+02  0.19999962042E+02 0.  0.
         12    1    1    2    0    0 -0.37662992692E+02  0.38530007523E+01  0.21219739942E+02  0.43400737281E+02  0.00000000000E+00 0. -1.
         11    1    3    3    0    0  0.85887772065E+00 -0.32741234964E+01  0.10739668961E+00  0.33866044822E+01  0.51100000000E-03 0. -1.
        -11    1    3    3    0    0  0.49361821813E+00 -0.24160213959E+01 -0.55315767710E+00  0.25272122997E+01  0.51100000000E-03 0.  1.
        -12    1    3    3    0    0  0.36310496753E+02  0.18371441401E+01 -0.20773978954E+02  0.41873445937E+02  0.00000000000E+00 0.  1.
</event>
<event>
 7    1  0.2653124E-010  0.4778727E+02  0.7816164E-02  0.1312668E+00
        -11   -1    0    0    0    0  0.00000000000E+00  0.00000000000E+00  0.45593999997E+02  0.45594000000E+02  0.51100000000E-03 0. -1.
         11   -1    0    0    0    0 -0.00000000000E+00 -0.00000000000E+00 -0.45593999997E+02  0.45594000000E+02  0.51100000000E-03 0.  1.
    9900012    2    1    2    0    0 -0.47919288876E+01  0.37767144763E+02 -0.20839948904E+02  0.47787271016E+02  0.19999999869E+02 0.  0.
         12    1    1    2    0    0  0.47919288876E+01 -0.37767144763E+02  0.20839948904E+02  0.43400728984E+02  0.00000000000E+00 0. -1.
         11    1    3    3    0    0  0.55644625977E+00  0.10518622485E+02 -0.82575035757E+00  0.10565647890E+02  0.51100000000E-03 0. -1.
        -11    1    3    3    0    0 -0.83185410839E+01  0.24356192139E+02 -0.12438286467E+02  0.28585541656E+02  0.51100000000E-03 0.  1.
        -12    1    3    3    0    0  0.29701659365E+01  0.28923301398E+01 -0.75759120788E+01  0.86360814698E+01  0.00000000000E+00 0.  1.
</event>
<event>
 7    1  0.2653124E-010  0.4778727E+02  0.7816164E-02  0.1312668E+00
        -11   -1    0    0    0    0  0.00000000000E+00  0.00000000000E+00  0.45593999997E+02  0.45594000000E+02  0.51100000000E-03 0.  1.
         11   -1    0    0    0    0 -0.00000000000E+00 -0.00000000000E+00 -0.45593999997E+02  0.45594000000E+02  0.51100000000E-03 0. -1.
    9900012    2    1    2    0    0  0.15526931314E+02  0.14505192449E+02  0.37843588961E+02  0.47787269252E+02  0.19999991827E+02 0.  0.
         12    1    1    2    0    0 -0.15526931314E+02 -0.14505192449E+02 -0.37843588961E+02  0.43400730748E+02  0.00000000000E+00 0. -1.
         11    1    3    3    0    0  0.10375337333E+02  0.10610552641E+02  0.23991379531E+02  0.28210241831E+02  0.51100000000E-03 0.  1.
        -11    1    3    3    0    0  0.93787045414E+00  0.78809935948E+01  0.91296785657E+01  0.12097135694E+02  0.51100000000E-03 0. -1.
         12    1    3    3    0    0  0.42137235269E+01 -0.39863537867E+01  0.47225308642E+01  0.74798917263E+01  0.00000000000E+00 0. -1.
</event>
<event>
 7    1  0.2653124E-010  0.4778727E+02  0.7816164E-02  0.1312668E+00
        -11   -1    0    0    0    0  0.00000000000E+00  0.00000000000E+00  0.45593999997E+02  0.45594000000E+02  0.51100000000E-03 0.  1.
         11   -1    0    0    0    0 -0.00000000000E+00 -0.00000000000E+00 -0.45593999997E+02  0.45594000000E+02  0.51100000000E-03 0. -1.
    9900012    2    1    2    0    0 -0.19349155213E+02  0.19131294789E+01  0.38801715391E+02  0.47787274325E+02  0.20000014958E+02 0.  0.
         12    1    1    2    0    0  0.19349155213E+02 -0.19131294789E+01 -0.38801715391E+02  0.43400725675E+02  0.00000000000E+00 0. -1.
         11    1    3    3    0    0 -0.58842498724E+01 -0.21935734737E+00  0.12613119745E+02  0.13919888799E+02  0.51100000000E-03 0. -1.
        -11    1    3    3    0    0 -0.32243843144E+01 -0.70023280745E+01  0.84087294403E+01  0.11407715973E+02  0.51100000000E-03 0.  1.
         12    1    3    3    0    0 -0.10240521026E+02  0.91348149008E+01  0.17779866205E+02  0.22459669553E+02  0.00000000000E+00 0. -1.
</event>
<event>
 7    1  0.2653124E-010  0.4778727E+02  0.7816164E-02  0.1312668E+00
        -11   -1    0    0    0    0  0.00000000000E+00  0.00000000000E+00  0.45593999997E+02  0.45594000000E+02  0.51100000000E-03 0.  1.
         11   -1    0    0    0    0 -0.00000000000E+00 -0.00000000000E+00 -0.45593999997E+02  0.45594000000E+02  0.51100000000E-03 0. -1.
    9900012    2    1    2    0    0  0.27191358401E+02  0.25991660019E+02  0.21649177844E+02  0.47787271164E+02  0.20000000544E+02 0.  0.
         12    1    1    2    0    0 -0.27191358401E+02 -0.25991660019E+02 -0.21649177844E+02  0.43400728836E+02  0.00000000000E+00 0. -1.
         11    1    3    3    0    0  0.17039733610E+01 -0.34214897455E-01  0.31892389150E+01  0.36160670614E+01  0.51100000000E-03 0. -1.
        -11    1    3    3    0    0  0.68718131047E+01 -0.75280462958E+00  0.47922209850E+00  0.69295154403E+01  0.51100000000E-03 0.  1.
         12    1    3    3    0    0  0.18615571935E+02  0.26778679546E+02  0.17980716830E+02  0.37241688662E+02  0.00000000000E+00 0. -1.
</event>
<event>
 7    1  0.2653124E-010  0.4778727E+02  0.7816164E-02  0.1312668E+00
        -11   -1    0    0    0    0  0.00000000000E+00  0.00000000000E+00  0.45593999997E+02  0.45594000000E+02  0.51100000000E-03 0. -1.
         11   -1    0    0    0    0 -0.00000000000E+00 -0.00000000000E+00 -0.45593999997E+02  0.45594000000E+02  0.51100000000E-03 0.  1.
    9900012    2    1    2    0    0  0.39684598879E+02 -0.10904501191E+02 -0.13778540009E+02  0.47787266145E+02  0.19999977659E+02 0.  0.
         12    1    1    2    0    0 -0.39684598879E+02  0.10904501191E+02  0.13778540009E+02  0.43400733855E+02  0.00000000000E+00 0. -1.
         11    1    3    3    0    0  0.43994860477E+00  0.80289420104E+00  0.26132907078E+01  0.27690219316E+01  0.51100000000E-03 0. -1.
        -11    1    3    3    0    0  0.46276980187E+01  0.14974974759E+01 -0.22785849932E+01  0.53712230893E+01  0.51100000000E-03 0.  1.
        -12    1    3    3    0    0  0.34616952256E+02 -0.13204892868E+02 -0.14113245723E+02  0.39647021124E+02  0.00000000000E+00 0.  1.
</event>
<event>
 7    1  0.2653124E-010  0.4778727E+02  0.7816164E-02  0.1312668E+00
        -11   -1    0    0    0    0  0.00000000000E+00  0.00000000000E+00  0.45593999997E+02  0.45594000000E+02  0.51100000000E-03 0. -1.
         11   -1    0    0    0    0 -0.00000000000E+00 -0.00000000000E+00 -0.45593999997E+02  0.45594000000E+02  0.51100000000E-03 0.  1.
    9900012    2    1    2    0    0  0.17743969376E+01  0.42066726625E+02  0.10529257662E+02  0.47787271430E+02  0.20000001759E+02 0.  0.
         12    1    1    2    0    0 -0.17743969376E+01 -0.42066726625E+02 -0.10529257662E+02  0.43400728570E+02  0.00000000000E+00 0. -1.
         11    1    3    3    0    0  0.60602940848E+01  0.25433135884E+02  0.12883725475E+02  0.29147245971E+02  0.51100000000E-03 0.  1.
        -11    1    3    3    0    0 -0.10234943322E+01  0.68348841379E+01  0.23387889132E+01  0.72961027726E+01  0.51100000000E-03 0. -1.
         12    1    3    3    0    0 -0.32624028150E+01  0.97987066032E+01 -0.46932567263E+01  0.11343922687E+02  0.00000000000E+00 0. -1.
</event>
<event>
 7    1  0.2653124E-010  0.4778727E+02  0.7816164E-02  0.1312668E+00
        -11   -1    0    0    0    0  0.00000000000E+00  0.00000000000E+00  0.45593999997E+02  0.45594000000E+02  0.51100000000E-03 0.  1.
         11   -1    0    0    0    0 -0.00000000000E+00 -0.00000000000E+00 -0.45593999997E+02  0.45594000000E+02  0.51100000000E-03 0. -1.
    9900012    2    1    2    0    0 -0.10470985208E+02 -0.41999049376E+02 -0.31719940352E+01  0.47787271597E+02  0.20000002520E+02 0.  0.
         12    1    1    2    0    0  0.10470985208E+02  0.41999049376E+02  0.31719940352E+01  0.43400728403E+02  0.00000000000E+00 0. -1.
         11    1    3    3    0    0  0.17555322559E+01 -0.50853526457E+01 -0.21414670158E+01  0.57903874027E+01  0.51100000000E-03 0. -1.
        -11    1    3    3    0    0  0.69335979143E+00 -0.21485915375E+02  0.22257324847E+01  0.21612015007E+02  0.51100000000E-03 0.  1.
         12    1    3    3    0    0 -0.12919877255E+02 -0.15427781355E+02 -0.32562595041E+01  0.20384869187E+02  0.00000000000E+00 0. -1.
</event>
<event>
 7    1  0.3507875E-010  0.4778727E+02  0.7816164E-02  0.1312668E+00
        -11   -1    0    0    0    0  0.00000000000E+00  0.00000000000E+00  0.45593999997E+02  0.45594000000E+02  0.51100000000E-03 0. -1.
         11   -1    0    0    0    0 -0.00000000000E+00 -0.00000000000E+00 -0.45593999997E+02  0.45594000000E+02  0.51100000000E-03 0.  1.
    9900012    2    1    2    0    0 -0.13384151718E+02  0.29538038137E+02 -0.28844271440E+02  0.47787271791E+02  0.20000003402E+02 0.  0.
         12    1    1    2    0    0  0.13384151718E+02 -0.29538038137E+02  0.28844271440E+02  0.43400728209E+02  0.00000000000E+00 0. -1.
         11    1    3    3    0    0 -0.39821586176E+01  0.24613822232E+00 -0.57815017182E+01  0.70245237318E+01  0.51100000000E-03 0. -1.
        -11    1    3    3    0    0 -0.11557665023E+02  0.19762251974E+02 -0.20329456894E+02  0.30617201729E+02  0.51100000000E-03 0.  1.
         12    1    3    3    0    0  0.21556719226E+01  0.95296479407E+01 -0.27333128285E+01  0.10145546330E+02  0.00000000000E+00 0. -1.
</event>
<event>
 7    1  0.2653124E-010  0.4778727E+02  0.7816164E-02  0.1312668E+00
        -11   -1    0    0    0    0  0.00000000000E+00  0.00000000000E+00  0.45593999997E+02  0.45594000000E+02  0.51100000000E-03 0.  1.
         11   -1    0    0    0    0 -0.00000000000E+00 -0.00000000000E+00 -0.45593999997E+02  0.45594000000E+02  0.51100000000E-03 0. -1.
    9900012    2    1    2    0    0  0.11965910147E+00  0.10781593423E+02  0.42040057234E+02  0.47787268585E+02  0.19999988789E+02 0.  0.
         12    1    1    2    0    0 -0.11965910147E+00 -0.10781593423E+02 -0.42040057234E+02  0.43400731415E+02  0.00000000000E+00 0. -1.
         11    1    3    3    0    0 -0.15366871982E+01 -0.27402986935E+01  0.49842295195E+00  0.31810485968E+01  0.51100000000E-03 0. -1.
        -11    1    3    3    0    0  0.46163800370E+01  0.74550551172E+01  0.16679399677E+02  0.18843863332E+02  0.51100000000E-03 0.  1.
        -12    1    3    3    0    0 -0.29600337373E+01  0.60668369995E+01  0.24862234606E+02  0.25762356656E+02  0.00000000000E+00 0.  1.
</event>
<event>
 7    1  0.2653124E-010  0.4778727E+02  0.7816164E-02  0.1312668E+00
        -11   -1    0    0    0    0  0.00000000000E+00  0.00000000000E+00  0.45593999997E+02  0.45594000000E+02  0.51100000000E-03 0.  1.
         11   -1    0    0    0    0 -0.00000000000E+00 -0.00000000000E+00 -0.45593999997E+02  0.45594000000E+02  0.51100000000E-03 0. -1.
    9900012    2    1    2    0    0 -0.17379109756E+02 -0.21190925357E+02  0.33653151622E+02  0.47787269735E+02  0.19999994031E+02 0.  0.
         12    1    1    2    0    0  0.17379109756E+02  0.21190925357E+02 -0.33653151622E+02  0.43400730265E+02  0.00000000000E+00 0. -1.
         11    1    3    3    0    0 -0.54261997793E+01 -0.65379872273E+01  0.19467940236E+02  0.21241224501E+02  0.51100000000E-03 0. -1.
        -11    1    3    3    0    0  0.16265333794E+01 -0.62687147428E+01  0.39095301860E+01  0.75648411680E+01  0.51100000000E-03 0.  1.
        -12    1    3    3    0    0 -0.13579443356E+02 -0.83842233870E+01  0.10275681201E+02  0.18981204066E+02  0.00000000000E+00 0.  1.
</event>
<event>
 7    1  0.2653124E-010  0.4778726E+02  0.7816164E-02  0.1312668E+00
        -11   -1    0    0    0    0  0.00000000000E+00  0.00000000000E+00  0.45593999997E+02  0.45594000000E+02  0.51100000000E-03 0.  1.
         11   -1    0    0    0    0 -0.00000000000E+00 -0.00000000000E+00 -0.45593999997E+02  0.45594000000E+02  0.51100000000E-03 0. -1.
    9900012    2    1    2    0    0  0.41586932122E+02 -0.10559646423E+02  0.65303097640E+01  0.47787262662E+02  0.19999961780E+02 0.  0.
         12    1    1    2    0    0 -0.41586932122E+02  0.10559646423E+02 -0.65303097640E+01  0.43400737338E+02  0.00000000000E+00 0. -1.
         11    1    3    3    0    0  0.34116020938E+01  0.77521300925E+00  0.33473734280E+01  0.48419926873E+01  0.51100000000E-03 0. -1.
        -11    1    3    3    0    0  0.24718061461E+01  0.33930334676E+01  0.54867319785E+00  0.42336207052E+01  0.51100000000E-03 0.  1.
        -12    1    3    3    0    0  0.35703523882E+02 -0.14727892900E+02  0.26342631381E+01  0.38711649269E+02  0.00000000000E+00 0.  1.
</event>
<event>
 7    1  0.2653124E-010  0.4778727E+02  0.7816164E-02  0.1312668E+00
        -11   -1    0    0    0    0  0.00000000000E+00  0.00000000000E+00  0.45593999997E+02  0.45594000000E+02  0.51100000000E-03 0. -1.
         11   -1    0    0    0    0 -0.00000000000E+00 -0.00000000000E+00 -0.45593999997E+02  0.45594000000E+02  0.51100000000E-03 0.  1.
    9900012    2    1    2    0    0  0.43732595289E+01  0.33466800706E+02 -0.27285001233E+02  0.47787269123E+02  0.19999991239E+02 0.  0.
         12    1    1    2    0    0 -0.43732595289E+01 -0.33466800706E+02  0.27285001233E+02  0.43400730877E+02  0.00000000000E+00 0. -1.
         11    1    3    3    0    0  0.40241373119E+01  0.51917383188E+01 -0.56855060451E+01  0.86875086835E+01  0.51100000000E-03 0. -1.
        -11    1    3    3    0    0  0.14809806301E+01  0.18050937127E+02 -0.22371891150E+02  0.28784217006E+02  0.51100000000E-03 0.  1.
         12    1    3    3    0    0 -0.11318584131E+01  0.10224125260E+02  0.77239596217E+00  0.10315543433E+02  0.00000000000E+00 0. -1.
</event>
<event>
 7    1  0.2653124E-010  0.4778727E+02  0.7816164E-02  0.1312668E+00
        -11   -1    0    0    0    0  0.00000000000E+00  0.00000000000E+00  0.45593999997E+02  0.45594000000E+02  0.51100000000E-03 0.  1.
         11   -1    0    0    0    0 -0.00000000000E+00 -0.00000000000E+00 -0.45593999997E+02  0.45594000000E+02  0.51100000000E-03 0. -1.
    9900012    2    1    2    0    0  0.76047949611E+01 -0.29944268282E+02  0.30481653146E+02  0.47787270883E+02  0.19999999264E+02 0.  0.
         12    1    1    2    0    0 -0.76047949611E+01  0.29944268282E+02 -0.30481653146E+02  0.43400729117E+02  0.00000000000E+00 0. -1.
         11    1    3    3    0    0  0.16347524098E+00 -0.11851576488E+01  0.21602646505E+01  0.24694263359E+01  0.51100000000E-03 0.  1.
        -11    1    3    3    0    0  0.10539776529E+02 -0.11954467094E+02  0.56096757957E+01  0.16895698730E+02  0.51100000000E-03 0. -1.
         12    1    3    3    0    0 -0.30984568085E+01 -0.16804643539E+02  0.22711712700E+02  0.28422145817E+02  0.00000000000E+00 0. -1.
</event>
<event>
 7    1  0.2653124E-010  0.4778727E+02  0.7816164E-02  0.1312668E+00
        -11   -1    0    0    0    0  0.00000000000E+00  0.00000000000E+00  0.45593999997E+02  0.45594000000E+02  0.51100000000E-03 0.  1.
         11   -1    0    0    0    0 -0.00000000000E+00 -0.00000000000E+00 -0.45593999997E+02  0.45594000000E+02  0.51100000000E-03 0. -1.
    9900012    2    1    2    0    0  0.26231105200E+02  0.28949467192E+02  0.18907155736E+02  0.47787273407E+02  0.20000010772E+02 0.  0.
         12    1    1    2    0    0 -0.26231105200E+02 -0.28949467192E+02 -0.18907155736E+02  0.43400726593E+02  0.00000000000E+00 0. -1.
         11    1    3    3    0    0 -0.14307031769E+01  0.45398147065E+01 -0.54134192536E+00  0.47906033536E+01  0.51100000000E-03 0. -1.
        -11    1    3    3    0    0  0.74362728658E+01  0.26274938107E+01  0.84804766922E+00  0.79322798091E+01  0.51100000000E-03 0.  1.
        -12    1    3    3    0    0  0.20225535512E+02  0.21782158675E+02  0.18600449993E+02  0.35064390244E+02  0.00000000000E+00 0.  1.
</event>
<event>
 7    1  0.2653124E-010  0.4778728E+02  0.7816164E-02  0.1312668E+00
        -11   -1    0    0    0    0  0.00000000000E+00  0.00000000000E+00  0.45593999997E+02  0.45594000000E+02  0.51100000000E-03 0. -1.
         11   -1    0    0    0    0 -0.00000000000E+00 -0.00000000000E+00 -0.45593999997E+02  0.45594000000E+02  0.51100000000E-03 0.  1.
    9900012    2    1    2    0    0  0.12824600677E+02 -0.33060626401E+02 -0.25022929342E+02  0.47787281188E+02  0.20000046250E+02 0.  0.
         12    1    1    2    0    0 -0.12824600677E+02  0.33060626401E+02  0.25022929342E+02  0.43400718812E+02  0.00000000000E+00 0. -1.
         11    1    3    3    0    0  0.16294721008E+01 -0.85795510643E+01 -0.35264736044E-01  0.87329903043E+01  0.51100000000E-03 0. -1.
        -11    1    3    3    0    0  0.89696651918E+00 -0.17566174472E+02 -0.13934265810E+02  0.22439670195E+02  0.51100000000E-03 0.  1.
         12    1    3    3    0    0  0.10298162057E+02 -0.69149008644E+01 -0.11053398796E+02  0.16614620689E+02  0.00000000000E+00 0. -1.
</event>
<event>
 7    1  0.2653124E-010  0.4778728E+02  0.7816164E-02  0.1312668E+00
        -11   -1    0    0    0    0  0.00000000000E+00  0.00000000000E+00  0.45593999997E+02  0.45594000000E+02  0.51100000000E-03 0.  1.
         11   -1    0    0    0    0 -0.00000000000E+00 -0.00000000000E+00 -0.45593999997E+02  0.45594000000E+02  0.51100000000E-03 0. -1.
    9900012    2    1    2    0    0 -0.30350183283E+02  0.31018808687E+02 -0.56814837521E+00  0.47787275233E+02  0.20000019098E+02 0.  0.
         12    1    1    2    0    0  0.30350183283E+02 -0.31018808687E+02  0.56814837521E+00  0.43400724767E+02  0.00000000000E+00 0. -1.
         11    1    3    3    0    0 -0.78996720246E+01  0.89082593062E+01  0.52518296990E+01  0.13013209343E+02  0.51100000000E-03 0. -1.
        -11    1    3    3    0    0 -0.33367088601E+01 -0.16968227124E+01 -0.89132418431E+00  0.38480244798E+01  0.51100000000E-03 0.  1.
        -12    1    3    3    0    0 -0.19113802399E+02  0.23807372093E+02 -0.49286538899E+01  0.30926041410E+02  0.00000000000E+00 0.  1.
</event>
<event>
 7    1  0.2653124E-010  0.4778726E+02  0.7816164E-02  0.1312668E+00
        -11   -1    0    0    0    0  0.00000000000E+00  0.00000000000E+00  0.45593999997E+02  0.45594000000E+02  0.51100000000E-03 0. -1.
         11   -1    0    0    0    0 -0.00000000000E+00 -0.00000000000E+00 -0.45593999997E+02  0.45594000000E+02  0.51100000000E-03 0.  1.
    9900012    2    1    2    0    0 -0.33250061917E+02 -0.70488512687E+01 -0.26988350240E+02  0.47787263020E+02  0.19999963414E+02 0.  0.
         12    1    1    2    0    0  0.33250061917E+02  0.70488512687E+01  0.26988350240E+02  0.43400736980E+02  0.00000000000E+00 0. -1.
         11    1    3    3    0    0 -0.36080596695E+01  0.30358640632E+01 -0.89402086616E+01  0.10107516825E+02  0.51100000000E-03 0. -1.
        -11    1    3    3    0    0 -0.89660880612E+00 -0.18495192302E-01  0.13128662729E+01  0.15899268961E+01  0.51100000000E-03 0.  1.
        -12    1    3    3    0    0 -0.28745393442E+02 -0.10066220140E+02 -0.19361007852E+02  0.36089819299E+02  0.00000000000E+00 0.  1.
</event>
<event>
 7    1  0.2653124E-010  0.4778727E+02  0.7816164E-02  0.1312668E+00
        -11   -1    0    0    0    0  0.00000000000E+00  0.00000000000E+00  0.45593999997E+02  0.45594000000E+02  0.51100000000E-03 0. -1.
         11   -1    0    0    0    0 -0.00000000000E+00 -0.00000000000E+00 -0.45593999997E+02  0.45594000000E+02  0.51100000000E-03 0.  1.
    9900012    2    1    2    0    0  0.29916583985E+02 -0.20665727162E+02  0.23697026895E+02  0.47787270051E+02  0.19999995471E+02 0.  0.
         12    1    1    2    0    0 -0.29916583985E+02  0.20665727162E+02 -0.23697026895E+02  0.43400729949E+02  0.00000000000E+00 0. -1.
         11    1    3    3    0    0  0.13724887156E+02 -0.84716496698E+01  0.15232026346E+02  0.22184589301E+02  0.51100000000E-03 0. -1.
        -11    1    3    3    0    0  0.85345008656E+01 -0.56365043946E+01  0.11189552155E+02  0.15159616238E+02  0.51100000000E-03 0.  1.
        -12    1    3    3    0    0  0.76571959634E+01 -0.65575730973E+01 -0.27245516061E+01  0.10443064512E+02  0.00000000000E+00 0.  1.
</event>
<event>
 7    1  0.2653124E-010  0.4778727E+02  0.7816164E-02  0.1312668E+00
        -11   -1    0    0    0    0  0.00000000000E+00  0.00000000000E+00  0.45593999997E+02  0.45594000000E+02  0.51100000000E-03 0.  1.
         11   -1    0    0    0    0 -0.00000000000E+00 -0.00000000000E+00 -0.45593999997E+02  0.45594000000E+02  0.51100000000E-03 0. -1.
    9900012    2    1    2    0    0 -0.11870211843E+02 -0.24971676319E+02  0.33453507581E+02  0.47787265941E+02  0.19999976730E+02 0.  0.
         12    1    1    2    0    0  0.11870211843E+02  0.24971676319E+02 -0.33453507581E+02  0.43400734059E+02  0.00000000000E+00 0. -1.
         11    1    3    3    0    0 -0.18706959580E+01 -0.11406279757E+02  0.19133430119E+02  0.22353766341E+02  0.51100000000E-03 0. -1.
        -11    1    3    3    0    0 -0.37993627748E+01 -0.20421029657E+01  0.11170514738E+02  0.11974378556E+02  0.51100000000E-03 0.  1.
         12    1    3    3    0    0 -0.62001531100E+01 -0.11523293597E+02  0.31495627238E+01  0.13459121043E+02  0.00000000000E+00 0. -1.
</event>
<event>
 7    1  0.2653124E-010  0.4778727E+02  0.7816164E-02  0.1312668E+00
        -11   -1    0    0    0    0  0.00000000000E+00  0.00000000000E+00  0.45593999997E+02  0.45594000000E+02  0.51100000000E-03 0.  1.
         11   -1    0    0    0    0 -0.00000000000E+00 -0.00000000000E+00 -0.45593999997E+02  0.45594000000E+02  0.51100000000E-03 0. -1.
    9900012    2    1    2    0    0  0.12634227692E+02  0.20130554214E+02  0.36314740500E+02  0.47787270745E+02  0.19999998633E+02 0.  0.
         12    1    1    2    0    0 -0.12634227692E+02 -0.20130554214E+02 -0.36314740500E+02  0.43400729255E+02  0.00000000000E+00 0. -1.
         11    1    3    3    0    0  0.44279585670E+01  0.10984888067E+02  0.80283835899E+01  0.14308372593E+02  0.51100000000E-03 0. -1.
        -11    1    3    3    0    0  0.10337497305E+02  0.10989048759E+02  0.23586263758E+02  0.27998837145E+02  0.51100000000E-03 0.  1.
         12    1    3    3    0    0 -0.21312281797E+01 -0.18433826117E+01  0.47000931516E+01  0.54800610070E+01  0.00000000000E+00 0. -1.
</event>
<event>
 7    1  0.2653124E-010  0.4778727E+02  0.7816164E-02  0.1312668E+00
        -11   -1    0    0    0    0  0.00000000000E+00  0.00000000000E+00  0.45593999997E+02  0.45594000000E+02  0.51100000000E-03 0. -1.
         11   -1    0    0    0    0 -0.00000000000E+00 -0.00000000000E+00 -0.45593999997E+02  0.45594000000E+02  0.51100000000E-03 0.  1.
    9900012    2    1    2    0    0 -0.14851889339E+01  0.19921883665E+02 -0.38529681130E+02  0.47787267714E+02  0.19999984816E+02 0.  0.
         12    1    1    2    0    0  0.14851889339E+01 -0.19921883665E+02  0.38529681130E+02  0.43400732286E+02  0.00000000000E+00 0. -1.
         11    1    3    3    0    0 -0.58364583371E+01  0.33785577871E+01 -0.68665384286E+01  0.96243570640E+01  0.51100000000E-03 0. -1.
        -11    1    3    3    0    0 -0.25232948582E+01  0.64906861148E+01 -0.42297487636E+01  0.81478094017E+01  0.51100000000E-03 0.  1.
        -12    1    3    3    0    0  0.68745642614E+01  0.10052639763E+02 -0.27433393938E+02  0.30015101249E+02  0.00000000000E+00 0.  1.
</event>
<event>
 7    1  0.2653124E-010  0.4778727E+02  0.7816164E-02  0.1312668E+00
        -11   -1    0    0    0    0  0.00000000000E+00  0.00000000000E+00  0.45593999997E+02  0.45594000000E+02  0.51100000000E-03 0.  1.
         11   -1    0    0    0    0 -0.00000000000E+00 -0.00000000000E+00 -0.45593999997E+02  0.45594000000E+02  0.51100000000E-03 0. -1.
    9900012    2    1    2    0    0  0.20132734637E+02  0.95916484837E+01  0.37233004911E+02  0.47787269830E+02  0.19999994463E+02 0.  0.
         12    1    1    2    0    0 -0.20132734637E+02 -0.95916484837E+01 -0.37233004911E+02  0.43400730170E+02  0.00000000000E+00 0. -1.
         11    1    3    3    0    0  0.12526082384E+02  0.71937656168E+01  0.20896413672E+02  0.25403013763E+02  0.51100000000E-03 0. -1.
        -11    1    3    3    0    0  0.63336857889E+01  0.76291399366E+01  0.10371064133E+02  0.14348460662E+02  0.51100000000E-03 0.  1.
         12    1    3    3    0    0  0.12729664640E+01 -0.52312570697E+01  0.59655271057E+01  0.80357954054E+01  0.00000000000E+00 0. -1.
</event>
<event>
 7    1  0.2653124E-010  0.4778727E+02  0.7816164E-02  0.1312668E+00
        -11   -1    0    0    0    0  0.00000000000E+00  0.00000000000E+00  0.45593999997E+02  0.45594000000E+02  0.51100000000E-03 0.  1.
         11   -1    0    0    0    0 -0.00000000000E+00 -0.00000000000E+00 -0.45593999997E+02  0.45594000000E+02  0.51100000000E-03 0. -1.
    9900012    2    1    2    0    0 -0.47896926283E+01  0.19155152932E+02  0.38649216021E+02  0.47787274910E+02  0.20000017623E+02 0.  0.
         12    1    1    2    0    0  0.47896926283E+01 -0.19155152932E+02 -0.38649216021E+02  0.43400725090E+02  0.00000000000E+00 0. -1.
         11    1    3    3    0    0  0.43514960224E+01  0.15453500834E+02  0.16883557353E+02  0.23298083930E+02  0.51100000000E-03 0. -1.
        -11    1    3    3    0    0 -0.14333519351E+01  0.19709310263E+01  0.10172754061E+02  0.10460592350E+02  0.51100000000E-03 0.  1.
         12    1    3    3    0    0 -0.77078367156E+01  0.17307210713E+01  0.11592904607E+02  0.14028598629E+02  0.00000000000E+00 0. -1.
</event>
<event>
 7    1  0.2653124E-010  0.4778727E+02  0.7816164E-02  0.1312668E+00
        -11   -1    0    0    0    0  0.00000000000E+00  0.00000000000E+00  0.45593999997E+02  0.45594000000E+02  0.51100000000E-03 0. -1.
         11   -1    0    0    0    0 -0.00000000000E+00 -0.00000000000E+00 -0.45593999997E+02  0.45594000000E+02  0.51100000000E-03 0.  1.
    9900012    2    1    2    0    0  0.73481117363E+01 -0.33172156154E+02 -0.27004380478E+02  0.47787271262E+02  0.20000000993E+02 0.  0.
         12    1    1    2    0    0 -0.73481117363E+01  0.33172156154E+02  0.27004380478E+02  0.43400728738E+02  0.00000000000E+00 0. -1.
         11    1    3    3    0    0 -0.74644726482E+00 -0.17314022191E+01  0.22060598788E+01  0.29020057914E+01  0.51100000000E-03 0. -1.
        -11    1    3    3    0    0  0.88559199484E+00 -0.99590361661E+01 -0.15362867834E+02  0.18329876783E+02  0.51100000000E-03 0.  1.
         12    1    3    3    0    0  0.72089670063E+01 -0.21481717769E+02 -0.13847572523E+02  0.26555388688E+02  0.00000000000E+00 0. -1.
</event>
<event>
 7    1  0.2653124E-010  0.4778727E+02  0.7816164E-02  0.1312668E+00
        -11   -1    0    0    0    0  0.00000000000E+00  0.00000000000E+00  0.45593999997E+02  0.45594000000E+02  0.51100000000E-03 0. -1.
         11   -1    0    0    0    0 -0.00000000000E+00 -0.00000000000E+00 -0.45593999997E+02  0.45594000000E+02  0.51100000000E-03 0.  1.
    9900012    2    1    2    0    0 -0.31639227548E+02  0.15236738436E+02 -0.25503415648E+02  0.47787272728E+02  0.20000007676E+02 0.  0.
         12    1    1    2    0    0  0.31639227548E+02 -0.15236738436E+02  0.25503415648E+02  0.43400727272E+02  0.00000000000E+00 0. -1.
         11    1    3    3    0    0 -0.19217835770E+01  0.21868649195E+01 -0.28744768890E+01  0.40912403913E+01  0.51100000000E-03 0. -1.
        -11    1    3    3    0    0 -0.31980039897E+02  0.13979919595E+02 -0.21576254038E+02  0.41032862955E+02  0.51100000000E-03 0.  1.
         12    1    3    3    0    0  0.22625959260E+01 -0.93004607817E+00 -0.10526847205E+01  0.26631693812E+01  0.00000000000E+00 0. -1.
</event>
<event>
 7    1  0.2653124E-010  0.4778727E+02  0.7816164E-02  0.1312668E+00
        -11   -1    0    0    0    0  0.00000000000E+00  0.00000000000E+00  0.45593999997E+02  0.45594000000E+02  0.51100000000E-03 0.  1.
         11   -1    0    0    0    0 -0.00000000000E+00 -0.00000000000E+00 -0.45593999997E+02  0.45594000000E+02  0.51100000000E-03 0. -1.
    9900012    2    1    2    0    0 -0.38341018910E+02 -0.20086987027E+02 -0.31784700345E+01  0.47787269008E+02  0.19999990714E+02 0.  0.
         12    1    1    2    0    0  0.38341018910E+02  0.20086987027E+02  0.31784700345E+01  0.43400730992E+02  0.00000000000E+00 0. -1.
         11    1    3    3    0    0 -0.23131669571E+02 -0.47386187971E+01 -0.60729239498E+01  0.24380505549E+02  0.51100000000E-03 0. -1.
        -11    1    3    3    0    0  0.69714149115E-01  0.48235338904E+00 -0.95403559511E+00  0.10713118278E+01  0.51100000000E-03 0.  1.
        -12    1    3    3    0    0 -0.15279063488E+02 -0.15830721619E+02  0.38484895103E+01  0.22335451631E+02  0.00000000000E+00 0.  1.
</event>
<event>
 7    1  0.2653124E-010  0.4778727E+02  0.7816164E-02  0.1312668E+00
        -11   -1    0    0    0    0  0.00000000000E+00  0.00000000000E+00  0.45593999997E+02  0.45594000000E+02  0.51100000000E-03 0.  1.
         11   -1    0    0    0    0 -0.00000000000E+00 -0.00000000000E+00 -0.45593999997E+02  0.45594000000E+02  0.51100000000E-03 0. -1.
    9900012    2    1    2    0    0 -0.23185170676E+02 -0.53842932914E+01  0.36291606760E+02  0.47787268730E+02  0.19999989448E+02 0.  0.
         12    1    1    2    0    0  0.23185170676E+02  0.53842932914E+01 -0.36291606760E+02  0.43400731270E+02  0.00000000000E+00 0. -1.
         11    1    3    3    0    0 -0.14361792593E+02 -0.46096663871E+01  0.14841466490E+02  0.21160794846E+02  0.51100000000E-03 0. -1.
        -11    1    3    3    0    0 -0.17212890225E+01 -0.64549064974E+01  0.89688297745E+01  0.11183405634E+02  0.51100000000E-03 0.  1.
         12    1    3    3    0    0 -0.71020890606E+01  0.56802795931E+01  0.12481310496E+02  0.15443068250E+02  0.00000000000E+00 0. -1.
</event>
<event>
 7    1  0.2653124E-010  0.4778727E+02  0.7816164E-02  0.1312668E+00
        -11   -1    0    0    0    0  0.00000000000E+00  0.00000000000E+00  0.45593999997E+02  0.45594000000E+02  0.51100000000E-03 0.  1.
         11   -1    0    0    0    0 -0.00000000000E+00 -0.00000000000E+00 -0.45593999997E+02  0.45594000000E+02  0.51100000000E-03 0. -1.
    9900012    2    1    2    0    0  0.31747575997E+02  0.28814955761E+02 -0.67389209388E+01  0.47787270598E+02  0.19999997965E+02 0.  0.
         12    1    1    2    0    0 -0.31747575997E+02 -0.28814955761E+02  0.67389209388E+01  0.43400729402E+02  0.00000000000E+00 0. -1.
         11    1    3    3    0    0  0.53405421889E+01  0.40023728811E+01 -0.59401242961E+01  0.89345093019E+01  0.51100000000E-03 0. -1.
        -11    1    3    3    0    0  0.14159957869E+02  0.59590850099E+01 -0.46327086743E+01  0.16046092700E+02  0.51100000000E-03 0.  1.
        -12    1    3    3    0    0  0.12247075939E+02  0.18853497870E+02  0.38339120316E+01  0.22806668596E+02  0.00000000000E+00 0.  1.
</event>
<event>
 7    1  0.2653124E-010  0.4778728E+02  0.7816164E-02  0.1312668E+00
        -11   -1    0    0    0    0  0.00000000000E+00  0.00000000000E+00  0.45593999997E+02  0.45594000000E+02  0.51100000000E-03 0. -1.
         11   -1    0    0    0    0 -0.00000000000E+00 -0.00000000000E+00 -0.45593999997E+02  0.45594000000E+02  0.51100000000E-03 0.  1.
    9900012    2    1    2    0    0 -0.12253031073E+02 -0.40734640627E+02 -0.86124687101E+01  0.47787281863E+02  0.20000049328E+02 0.  0.
         12    1    1    2    0    0  0.12253031073E+02  0.40734640627E+02  0.86124687101E+01  0.43400718137E+02  0.00000000000E+00 0. -1.
         11    1    3    3    0    0 -0.18544166513E+01 -0.75544964404E+01  0.21552848104E+01  0.80718356313E+01  0.51100000000E-03 0. -1.
        -11    1    3    3    0    0 -0.77909079012E+01 -0.62332545165E+01 -0.74248938800E+01  0.12437071889E+02  0.51100000000E-03 0.  1.
        -12    1    3    3    0    0 -0.26077065203E+01 -0.26946889670E+02 -0.33428596405E+01  0.27278374343E+02  0.00000000000E+00 0.  1.
</event>
<event>
 7    1  0.2653124E-010  0.4778732E+02  0.7816164E-02  0.1312668E+00
        -11   -1    0    0    0    0  0.00000000000E+00  0.00000000000E+00  0.45593999997E+02  0.45594000000E+02  0.51100000000E-03 0.  1.
         11   -1    0    0    0    0 -0.00000000000E+00 -0.00000000000E+00 -0.45593999997E+02  0.45594000000E+02  0.51100000000E-03 0. -1.
    9900012    2    1    2    0    0  0.19239829172E+02 -0.27340706714E+01  0.38806866317E+02  0.47787319794E+02  0.20000222269E+02 0.  0.
         12    1    1    2    0    0 -0.19239829172E+02  0.27340706714E+01 -0.38806866317E+02  0.43400680206E+02  0.00000000000E+00 0. -1.
         11    1    3    3    0    0  0.11224465232E+02 -0.40842117768E+01  0.22273879679E+02  0.25274396566E+02  0.51100000000E-03 0. -1.
        -11    1    3    3    0    0  0.23165377536E+01  0.67450875619E+00  0.16599371768E+02  0.16773802568E+02  0.51100000000E-03 0.  1.
         12    1    3    3    0    0  0.56988261856E+01  0.67563234918E+00 -0.66385130057E-01  0.57391206600E+01  0.00000000000E+00 0. -1.
</event>
<event>
 7    1  0.2653124E-010  0.4778727E+02  0.7816164E-02  0.1312668E+00
        -11   -1    0    0    0    0  0.00000000000E+00  0.00000000000E+00  0.45593999997E+02  0.45594000000E+02  0.51100000000E-03 0.  1.
         11   -1    0    0    0    0 -0.00000000000E+00 -0.00000000000E+00 -0.45593999997E+02  0.45594000000E+02  0.51100000000E-03 0. -1.
    9900012    2    1    2    0    0  0.21623551305E+02  0.22419329973E+02  0.30222824727E+02  0.47787268877E+02  0.19999990120E+02 0.  0.
         12    1    1    2    0    0 -0.21623551305E+02 -0.22419329973E+02 -0.30222824727E+02  0.43400731123E+02  0.00000000000E+00 0. -1.
         11    1    3    3    0    0  0.95298039871E+01  0.31895503859E+01  0.12666022082E+02  0.16168441834E+02  0.51100000000E-03 0. -1.
        -11    1    3    3    0    0  0.10765058912E+02  0.50538849678E+01  0.97677124319E+01  0.15389491644E+02  0.51100000000E-03 0.  1.
        -12    1    3    3    0    0  0.13286884053E+01  0.14175894620E+02  0.77890902129E+01  0.16229335399E+02  0.00000000000E+00 0.  1.
</event>
<event>
 7    1  0.2653124E-010  0.4778727E+02  0.7816164E-02  0.1312668E+00
        -11   -1    0    0    0    0  0.00000000000E+00  0.00000000000E+00  0.45593999997E+02  0.45594000000E+02  0.51100000000E-03 0. -1.
         11   -1    0    0    0    0 -0.00000000000E+00 -0.00000000000E+00 -0.45593999997E+02  0.45594000000E+02  0.51100000000E-03 0.  1.
    9900012    2    1    2    0    0  0.39951382517E+02 -0.38914484329E+01  0.16503554298E+02  0.47787266822E+02  0.19999980748E+02 0.  0.
         12    1    1    2    0    0 -0.39951382517E+02  0.38914484329E+01 -0.16503554298E+02  0.43400733178E+02  0.00000000000E+00 0. -1.
         11    1    3    3    0    0  0.46804651090E+01  0.41435156627E+01  0.62399041656E+01  0.88324334099E+01  0.51100000000E-03 0. -1.
        -11    1    3    3    0    0  0.16576365591E+02 -0.35836244515E+01  0.10095894959E+02  0.19736903397E+02  0.51100000000E-03 0.  1.
        -12    1    3    3    0    0  0.18694551817E+02 -0.44513396441E+01  0.16775517338E+00  0.19217930015E+02  0.00000000000E+00 0.  1.
</event>
<event>
 7    1  0.2653124E-010  0.4778727E+02  0.7816164E-02  0.1312668E+00
        -11   -1    0    0    0    0  0.00000000000E+00  0.00000000000E+00  0.45593999997E+02  0.45594000000E+02  0.51100000000E-03 0.  1.
         11   -1    0    0    0    0 -0.00000000000E+00 -0.00000000000E+00 -0.45593999997E+02  0.45594000000E+02  0.51100000000E-03 0. -1.
    9900012    2    1    2    0    0 -0.24481972698E+02  0.35553739323E+02  0.44931053903E+01  0.47787270017E+02  0.19999995314E+02 0.  0.
         12    1    1    2    0    0  0.24481972698E+02 -0.35553739323E+02 -0.44931053903E+01  0.43400729983E+02  0.00000000000E+00 0. -1.
         11    1    3    3    0    0  0.27658876736E+00  0.79160143364E+00  0.25105701935E+01  0.26469033102E+01  0.51100000000E-03 0. -1.
        -11    1    3    3    0    0 -0.48415750779E+01  0.33811170923E+01  0.51529662837E+01  0.78374653944E+01  0.51100000000E-03 0.  1.
        -12    1    3    3    0    0 -0.19916986387E+02  0.31381020797E+02 -0.31704310869E+01  0.37302901312E+02  0.00000000000E+00 0.  1.
</event>
<event>
 7    1  0.2653124E-010  0.4778727E+02  0.7816164E-02  0.1312668E+00
        -11   -1    0    0    0    0  0.00000000000E+00  0.00000000000E+00  0.45593999997E+02  0.45594000000E+02  0.51100000000E-03 0. -1.
         11   -1    0    0    0    0 -0.00000000000E+00 -0.00000000000E+00 -0.45593999997E+02  0.45594000000E+02  0.51100000000E-03 0.  1.
    9900012    2    1    2    0    0 -0.25506130692E+02 -0.22930480679E+02 -0.26594240489E+02  0.47787271040E+02  0.19999999979E+02 0.  0.
         12    1    1    2    0    0  0.25506130692E+02  0.22930480679E+02  0.26594240489E+02  0.43400728960E+02  0.00000000000E+00 0. -1.
         11    1    3    3    0    0 -0.63806582190E+01 -0.10812177318E+01 -0.66726875810E+01  0.92955145584E+01  0.51100000000E-03 0. -1.
        -11    1    3    3    0    0 -0.86646352514E+01 -0.37915687634E+01 -0.13825025052E+02  0.16750618367E+02  0.51100000000E-03 0.  1.
         12    1    3    3    0    0 -0.10460837222E+02 -0.18057694184E+02 -0.60965278567E+01  0.21741138115E+02  0.00000000000E+00 0. -1.
</event>
<event>
 7    1  0.2653124E-010  0.4778726E+02  0.7816164E-02  0.1312668E+00
        -11   -1    0    0    0    0  0.00000000000E+00  0.00000000000E+00  0.45593999997E+02  0.45594000000E+02  0.51100000000E-03 0.  1.
         11   -1    0    0    0    0 -0.00000000000E+00 -0.00000000000E+00 -0.45593999997E+02  0.45594000000E+02  0.51100000000E-03 0. -1.
    9900012    2    1    2    0    0 -0.26160192463E+02 -0.76394615181E+01  0.33777316021E+02  0.47787261302E+02  0.19999955578E+02 0.  0.
         12    1    1    2    0    0  0.26160192463E+02  0.76394615181E+01 -0.33777316021E+02  0.43400738698E+02  0.00000000000E+00 0. -1.
         11    1    3    3    0    0 -0.74216841533E+01  0.20194833585E+01  0.36411232733E+01  0.85098465121E+01  0.51100000000E-03 0. -1.
        -11    1    3    3    0    0 -0.10106222055E+01 -0.43545193010E+01  0.72411185546E+00  0.45285244645E+01  0.51100000000E-03 0.  1.
        -12    1    3    3    0    0 -0.17727886105E+02 -0.53044255757E+01  0.29412080892E+02  0.34748890325E+02  0.00000000000E+00 0.  1.
</event>
<event>
 7    1  0.2653124E-010  0.4778727E+02  0.7816164E-02  0.1312668E+00
        -11   -1    0    0    0    0  0.00000000000E+00  0.00000000000E+00  0.45593999997E+02  0.45594000000E+02  0.51100000000E-03 0. -1.
         11   -1    0    0    0    0 -0.00000000000E+00 -0.00000000000E+00 -0.45593999997E+02  0.45594000000E+02  0.51100000000E-03 0.  1.
    9900012    2    1    2    0    0 -0.26242368104E+02  0.32702323044E+02 -0.11203558527E+02  0.47787267980E+02  0.19999986029E+02 0.  0.
         12    1    1    2    0    0  0.26242368104E+02 -0.32702323044E+02  0.11203558527E+02  0.43400732020E+02  0.00000000000E+00 0. -1.
         11    1    3    3    0    0 -0.50372003177E+01  0.15316980282E+02 -0.30477156412E+01  0.16409504651E+02  0.51100000000E-03 0. -1.
        -11    1    3    3    0    0 -0.22557747915E+02  0.14074590439E+02 -0.81216547080E+01  0.27801211529E+02  0.51100000000E-03 0.  1.
         12    1    3    3    0    0  0.13525801287E+01  0.33107523228E+01 -0.34188177789E-01  0.35765518002E+01  0.00000000000E+00 0. -1.
</event>
<event>
 7    1  0.2653124E-010  0.4778728E+02  0.7816164E-02  0.1312668E+00
        -11   -1    0    0    0    0  0.00000000000E+00  0.00000000000E+00  0.45593999997E+02  0.45594000000E+02  0.51100000000E-03 0.  1.
         11   -1    0    0    0    0 -0.00000000000E+00 -0.00000000000E+00 -0.45593999997E+02  0.45594000000E+02  0.51100000000E-03 0. -1.
    9900012    2    1    2    0    0  0.73944022046E+00  0.53086959493E+01  0.43068478826E+02  0.47787275433E+02  0.20000020010E+02 0.  0.
         12    1    1    2    0    0 -0.73944022046E+00 -0.53086959493E+01 -0.43068478826E+02  0.43400724567E+02  0.00000000000E+00 0. -1.
         11    1    3    3    0    0 -0.75612387649E+00  0.47945760310E+01  0.41894933358E+01  0.64118279223E+01  0.51100000000E-03 0. -1.
        -11    1    3    3    0    0  0.33090916645E+01  0.62997473163E+01  0.13259820545E+02  0.15048579502E+02  0.51100000000E-03 0.  1.
        -12    1    3    3    0    0 -0.18135275675E+01 -0.57856273981E+01  0.25619164945E+02  0.26326868008E+02  0.00000000000E+00 0.  1.
</event>
<event>
 7    1  0.2653124E-010  0.4778727E+02  0.7816164E-02  0.1312668E+00
        -11   -1    0    0    0    0  0.00000000000E+00  0.00000000000E+00  0.45593999997E+02  0.45594000000E+02  0.51100000000E-03 0.  1.
         11   -1    0    0    0    0 -0.00000000000E+00 -0.00000000000E+00 -0.45593999997E+02  0.45594000000E+02  0.51100000000E-03 0. -1.
    9900012    2    1    2    0    0  0.26409117429E+02 -0.19992520926E+02  0.28044267856E+02  0.47787270330E+02  0.19999996740E+02 0.  0.
         12    1    1    2    0    0 -0.26409117429E+02  0.19992520926E+02 -0.28044267856E+02  0.43400729670E+02  0.00000000000E+00 0. -1.
         11    1    3    3    0    0  0.68644566232E+01 -0.31289650246E+00  0.11729193718E+02  0.13593846199E+02  0.51100000000E-03 0. -1.
        -11    1    3    3    0    0  0.10911163925E+02 -0.35250376585E+01  0.85276258809E+01  0.14289849268E+02  0.51100000000E-03 0.  1.
         12    1    3    3    0    0  0.86334968814E+01 -0.16154586765E+02  0.77874482574E+01  0.19903574862E+02  0.00000000000E+00 0. -1.
</event>
<event>
 7    1  0.2653124E-010  0.4778728E+02  0.7816164E-02  0.1312668E+00
        -11   -1    0    0    0    0  0.00000000000E+00  0.00000000000E+00  0.45593999997E+02  0.45594000000E+02  0.51100000000E-03 0.  1.
         11   -1    0    0    0    0 -0.00000000000E+00 -0.00000000000E+00 -0.45593999997E+02  0.45594000000E+02  0.51100000000E-03 0. -1.
    9900012    2    1    2    0    0  0.18331339545E+02 -0.13327736654E+02  0.37012913736E+02  0.47787281607E+02  0.20000048157E+02 0.  0.
         12    1    1    2    0    0 -0.18331339545E+02  0.13327736654E+02 -0.37012913736E+02  0.43400718393E+02  0.00000000000E+00 0. -1.
         11    1    3    3    0    0 -0.38119619578E+00 -0.65907388580E+01  0.15631552576E+01  0.67842909618E+01  0.51100000000E-03 0. -1.
        -11    1    3    3    0    0  0.19903273780E+01  0.92780651127E+00  0.33364683356E+01  0.39942770572E+01  0.51100000000E-03 0.  1.
         12    1    3    3    0    0  0.16722208363E+02 -0.76648043072E+01  0.32113290143E+02  0.37008713587E+02  0.00000000000E+00 0. -1.
</event>
<event>
 7    1  0.2653124E-010  0.4778728E+02  0.7816164E-02  0.1312668E+00
        -11   -1    0    0    0    0  0.00000000000E+00  0.00000000000E+00  0.45593999997E+02  0.45594000000E+02  0.51100000000E-03 0.  1.
         11   -1    0    0    0    0 -0.00000000000E+00 -0.00000000000E+00 -0.45593999997E+02  0.45594000000E+02  0.51100000000E-03 0. -1.
    9900012    2    1    2    0    0  0.41144892383E+02 -0.79949660820E+01  0.11260598693E+02  0.47787277255E+02  0.20000028317E+02 0.  0.
         12    1    1    2    0    0 -0.41144892383E+02  0.79949660820E+01 -0.11260598693E+02  0.43400722745E+02  0.00000000000E+00 0. -1.
         11    1    3    3    0    0  0.11967155493E+02 -0.34533367351E+01 -0.85698106079E+00  0.12484901361E+02  0.51100000000E-03 0. -1.
        -11    1    3    3    0    0  0.12899178389E+02 -0.95078985018E+01  0.44182258861E+01  0.16622564702E+02  0.51100000000E-03 0.  1.
         12    1    3    3    0    0  0.16278558501E+02  0.49662691549E+01  0.76993538676E+01  0.18679811192E+02  0.00000000000E+00 0. -1.
</event>
<event>
 7    1  0.2653124E-010  0.4778727E+02  0.7816164E-02  0.1312668E+00
        -11   -1    0    0    0    0  0.00000000000E+00  0.00000000000E+00  0.45593999997E+02  0.45594000000E+02  0.51100000000E-03 0.  1.
         11   -1    0    0    0    0 -0.00000000000E+00 -0.00000000000E+00 -0.45593999997E+02  0.45594000000E+02  0.51100000000E-03 0. -1.
    9900012    2    1    2    0    0 -0.29440844328E+02 -0.64632829094E+01  0.31226366213E+02  0.47787270887E+02  0.19999999281E+02 0.  0.
         12    1    1    2    0    0  0.29440844328E+02  0.64632829094E+01 -0.31226366213E+02  0.43400729113E+02  0.00000000000E+00 0. -1.
         11    1    3    3    0    0 -0.83979184489E+01 -0.38378005089E+01  0.13020236172E+02  0.15961838781E+02  0.51100000000E-03 0. -1.
        -11    1    3    3    0    0 -0.12382778518E+02  0.41412777476E+01  0.15938053517E+02  0.20603517548E+02  0.51100000000E-03 0.  1.
         12    1    3    3    0    0 -0.86601473615E+01 -0.67667601480E+01  0.22680765241E+01  0.11221914558E+02  0.00000000000E+00 0. -1.
</event>
<event>
 7    1  0.2653124E-010  0.4778726E+02  0.7816164E-02  0.1312668E+00
        -11   -1    0    0    0    0  0.00000000000E+00  0.00000000000E+00  0.45593999997E+02  0.45594000000E+02  0.51100000000E-03 0. -1.
         11   -1    0    0    0    0 -0.00000000000E+00 -0.00000000000E+00 -0.45593999997E+02  0.45594000000E+02  0.51100000000E-03 0.  1.
    9900012    2    1    2    0    0  0.41658827442E+02  0.11944746325E+02 -0.23429017412E+01  0.47787262021E+02  0.19999958857E+02 0.  0.
         12    1    1    2    0    0 -0.41658827442E+02 -0.11944746325E+02  0.23429017412E+01  0.43400737979E+02  0.00000000000E+00 0. -1.
         11    1    3    3    0    0  0.46737891472E+01 -0.33359139137E+01 -0.30803336755E+01  0.65162168814E+01  0.51100000000E-03 0. -1.
        -11    1    3    3    0    0  0.29326856583E+02  0.87987028268E+01 -0.25213494065E+01  0.30721961063E+02  0.51100000000E-03 0.  1.
        -12    1    3    3    0    0  0.76581817117E+01  0.64819574119E+01  0.32587813408E+01  0.10549084076E+02  0.00000000000E+00 0.  1.
</event>
<event>
 7    1  0.2653124E-010  0.4778727E+02  0.7816164E-02  0.1312668E+00
        -11   -1    0    0    0    0  0.00000000000E+00  0.00000000000E+00  0.45593999997E+02  0.45594000000E+02  0.51100000000E-03 0.  1.
         11   -1    0    0    0    0 -0.00000000000E+00 -0.00000000000E+00 -0.45593999997E+02  0.45594000000E+02  0.51100000000E-03 0. -1.
    9900012    2    1    2    0    0  0.25601911840E+02  0.12555420953E+02  0.32718905520E+02  0.47787271163E+02  0.20000000541E+02 0.  0.
         12    1    1    2    0    0 -0.25601911840E+02 -0.12555420953E+02 -0.32718905520E+02  0.43400728837E+02  0.00000000000E+00 0. -1.
         11    1    3    3    0    0  0.26360759563E+01 -0.29586720292E+01 -0.80125350070E+00  0.40428509814E+01  0.51100000000E-03 0. -1.
        -11    1    3    3    0    0  0.12195505715E+02  0.76093823680E+01  0.13813201793E+02  0.19935837171E+02  0.51100000000E-03 0.  1.
        -12    1    3    3    0    0  0.10770330169E+02  0.79047106141E+01  0.19706957227E+02  0.23808583011E+02  0.00000000000E+00 0.  1.
</event>
<event>
 7    1  0.2653124E-010  0.4778727E+02  0.7816164E-02  0.1312668E+00
        -11   -1    0    0    0    0  0.00000000000E+00  0.00000000000E+00  0.45593999997E+02  0.45594000000E+02  0.51100000000E-03 0.  1.
         11   -1    0    0    0    0 -0.00000000000E+00 -0.00000000000E+00 -0.45593999997E+02  0.45594000000E+02  0.51100000000E-03 0. -1.
    9900012    2    1    2    0    0 -0.75057528156E+01 -0.12289184371E+02  0.40942189096E+02  0.47787271598E+02  0.20000002526E+02 0.  0.
         12    1    1    2    0    0  0.75057528156E+01  0.12289184371E+02 -0.40942189096E+02  0.43400728402E+02  0.00000000000E+00 0. -1.
         11    1    3    3    0    0  0.28060607443E+01 -0.72689521406E+01  0.13793708864E+02  0.15842286660E+02  0.51100000000E-03 0. -1.
        -11    1    3    3    0    0 -0.25208525903E+01 -0.75971346882E+01  0.17729824030E+02  0.19452964135E+02  0.51100000000E-03 0.  1.
         12    1    3    3    0    0 -0.77909609696E+01  0.25769024580E+01  0.94186562022E+01  0.12492020804E+02  0.00000000000E+00 0. -1.
</event>
<event>
 7    1  0.2653124E-010  0.4778728E+02  0.7816164E-02  0.1312668E+00
        -11   -1    0    0    0    0  0.00000000000E+00  0.00000000000E+00  0.45593999997E+02  0.45594000000E+02  0.51100000000E-03 0.  1.
         11   -1    0    0    0    0 -0.00000000000E+00 -0.00000000000E+00 -0.45593999997E+02  0.45594000000E+02  0.51100000000E-03 0. -1.
    9900012    2    1    2    0    0 -0.14782572141E+02 -0.29248048399E+02  0.28454350064E+02  0.47787276368E+02  0.20000024272E+02 0.  0.
         12    1    1    2    0    0  0.14782572141E+02  0.29248048399E+02 -0.28454350064E+02  0.43400723632E+02  0.00000000000E+00 0. -1.
         11    1    3    3    0    0 -0.12551106555E+01 -0.61359956198E+01 -0.68126583335E+00  0.62999895556E+01  0.51100000000E-03 0. -1.
        -11    1    3    3    0    0 -0.28173724291E+01 -0.15840433832E+02  0.12311013918E+02  0.20258775761E+02  0.51100000000E-03 0.  1.
        -12    1    3    3    0    0 -0.10710089056E+02 -0.72716189477E+01  0.16824601979E+02  0.21228511052E+02  0.00000000000E+00 0.  1.
</event>
<event>
 7    1  0.2653124E-010  0.4778727E+02  0.7816164E-02  0.1312668E+00
        -11   -1    0    0    0    0  0.00000000000E+00  0.00000000000E+00  0.45593999997E+02  0.45594000000E+02  0.51100000000E-03 0.  1.
         11   -1    0    0    0    0 -0.00000000000E+00 -0.00000000000E+00 -0.45593999997E+02  0.45594000000E+02  0.51100000000E-03 0. -1.
    9900012    2    1    2    0    0 -0.83095363588E+01 -0.19893744980E+02  0.37667144305E+02  0.47787271390E+02  0.20000001575E+02 0.  0.
         12    1    1    2    0    0  0.83095363588E+01  0.19893744980E+02 -0.37667144305E+02  0.43400728610E+02  0.00000000000E+00 0. -1.
         11    1    3    3    0    0 -0.78152507709E+01 -0.50034582160E+01  0.17694016224E+02  0.19979763490E+02  0.51100000000E-03 0. -1.
        -11    1    3    3    0    0 -0.34867226164E+01 -0.15112669712E+02  0.19250415356E+02  0.24721013573E+02  0.51100000000E-03 0.  1.
         12    1    3    3    0    0  0.29924370286E+01  0.22238294894E+00  0.72271272563E+00  0.30864943269E+01  0.00000000000E+00 0. -1.
</event>
<event>
 7    1  0.2653124E-010  0.4778727E+02  0.7816164E-02  0.1312668E+00
        -11   -1    0    0    0    0  0.00000000000E+00  0.00000000000E+00  0.45593999997E+02  0.45594000000E+02  0.51100000000E-03 0.  1.
         11   -1    0    0    0    0 -0.00000000000E+00 -0.00000000000E+00 -0.45593999997E+02  0.45594000000E+02  0.51100000000E-03 0. -1.
    9900012    2    1    2    0    0 -0.17781336048E+01 -0.20324195422E+02  0.38306509426E+02  0.47787270247E+02  0.19999996366E+02 0.  0.
         12    1    1    2    0    0  0.17781336048E+01  0.20324195422E+02 -0.38306509426E+02  0.43400729753E+02  0.00000000000E+00 0. -1.
         11    1    3    3    0    0 -0.37558768110E+01  0.17276679490E+01  0.54211967060E+01  0.68176844418E+01  0.51100000000E-03 0. -1.
        -11    1    3    3    0    0 -0.33950225351E+01 -0.67942639655E+01  0.15265250308E+02  0.17050397886E+02  0.51100000000E-03 0.  1.
        -12    1    3    3    0    0  0.53727657413E+01 -0.15257599406E+02  0.17620062412E+02  0.23919187919E+02  0.00000000000E+00 0.  1.
</event>
<event>
 7    1  0.2653124E-010  0.4778727E+02  0.7816164E-02  0.1312668E+00
        -11   -1    0    0    0    0  0.00000000000E+00  0.00000000000E+00  0.45593999997E+02  0.45594000000E+02  0.51100000000E-03 0.  1.
         11   -1    0    0    0    0 -0.00000000000E+00 -0.00000000000E+00 -0.45593999997E+02  0.45594000000E+02  0.51100000000E-03 0. -1.
    9900012    2    1    2    0    0  0.35715510117E+02 -0.57128893219E+01  0.23987267726E+02  0.47787265210E+02  0.19999973401E+02 0.  0.
         12    1    1    2    0    0 -0.35715510117E+02  0.57128893219E+01 -0.23987267726E+02  0.43400734790E+02  0.00000000000E+00 0. -1.
         11    1    3    3    0    0 -0.15685691987E+01 -0.85005662581E+00 -0.64893016255E-01  0.17852778392E+01  0.51100000000E-03 0. -1.
        -11    1    3    3    0    0  0.11788396204E+02 -0.57234137043E+00  0.18972325843E+01  0.11953800712E+02  0.51100000000E-03 0.  1.
         12    1    3    3    0    0  0.25495683111E+02 -0.42904913256E+01  0.22154928158E+02  0.34048186660E+02  0.00000000000E+00 0. -1.
</event>
<event>
 7    1  0.2653124E-010  0.4778727E+02  0.7816164E-02  0.1312668E+00
        -11   -1    0    0    0    0  0.00000000000E+00  0.00000000000E+00  0.45593999997E+02  0.45594000000E+02  0.51100000000E-03 0. -1.
         11   -1    0    0    0    0 -0.00000000000E+00 -0.00000000000E+00 -0.45593999997E+02  0.45594000000E+02  0.51100000000E-03 0.  1.
    9900012    2    1    2    0    0 -0.30675740492E+02 -0.22286677313E+02  0.21116972175E+02  0.47787267814E+02  0.19999985273E+02 0.  0.
         12    1    1    2    0    0  0.30675740492E+02  0.22286677313E+02 -0.21116972175E+02  0.43400732186E+02  0.00000000000E+00 0. -1.
         11    1    3    3    0    0 -0.49526078217E+01  0.24171029063E+00  0.50352755069E+01  0.70668768060E+01  0.51100000000E-03 0. -1.
        -11    1    3    3    0    0  0.90190694493E+00  0.44762243820E+00 -0.11743655875E+01  0.15469120139E+01  0.51100000000E-03 0.  1.
         12    1    3    3    0    0 -0.26625039615E+02 -0.22976010042E+02  0.17256062255E+02  0.39173478995E+02  0.00000000000E+00 0. -1.
</event>
<event>
 7    1  0.2653124E-010  0.4778727E+02  0.7816164E-02  0.1312668E+00
        -11   -1    0    0    0    0  0.00000000000E+00  0.00000000000E+00  0.45593999997E+02  0.45594000000E+02  0.51100000000E-03 0. -1.
         11   -1    0    0    0    0 -0.00000000000E+00 -0.00000000000E+00 -0.45593999997E+02  0.45594000000E+02  0.51100000000E-03 0.  1.
    9900012    2    1    2    0    0 -0.40671477310E+02  0.13975449719E+02  0.58430103969E+01  0.47787273832E+02  0.20000012710E+02 0.  0.
         12    1    1    2    0    0  0.40671477310E+02 -0.13975449719E+02 -0.58430103969E+01  0.43400726168E+02  0.00000000000E+00 0. -1.
         11    1    3    3    0    0 -0.18522077710E+02 -0.30041483279E+01  0.60651021705E+00  0.18773921401E+02  0.51100000000E-03 0. -1.
        -11    1    3    3    0    0 -0.96474196137E+01  0.44392777979E+01  0.27314483537E+00  0.10623299908E+02  0.51100000000E-03 0.  1.
        -12    1    3    3    0    0 -0.12501979986E+02  0.12540320249E+02  0.49633553445E+01  0.18390052523E+02  0.00000000000E+00 0.  1.
</event>
<event>
 7    1  0.2653124E-010  0.4778727E+02  0.7816164E-02  0.1312668E+00
        -11   -1    0    0    0    0  0.00000000000E+00  0.00000000000E+00  0.45593999997E+02  0.45594000000E+02  0.51100000000E-03 0. -1.
         11   -1    0    0    0    0 -0.00000000000E+00 -0.00000000000E+00 -0.45593999997E+02  0.45594000000E+02  0.51100000000E-03 0.  1.
    9900012    2    1    2    0    0  0.28534778692E+02 -0.39282227849E+01 -0.32464737001E+02  0.47787266391E+02  0.19999978784E+02 0.  0.
         12    1    1    2    0    0 -0.28534778692E+02  0.39282227849E+01  0.32464737001E+02  0.43400733609E+02  0.00000000000E+00 0. -1.
         11    1    3    3    0    0  0.22953685661E+02  0.12754537322E+01 -0.20563768080E+02  0.30844238126E+02  0.51100000000E-03 0.  1.
        -11    1    3    3    0    0  0.82054420809E+01 -0.43726780752E+01 -0.94518781132E+01  0.13258491371E+02  0.51100000000E-03 0. -1.
        -12    1    3    3    0    0 -0.26243490501E+01 -0.83099844186E+00 -0.24490908074E+01  0.36845368950E+01  0.00000000000E+00 0.  1.
</event>
<event>
 7    1  0.2653124E-010  0.4778728E+02  0.7816164E-02  0.1312668E+00
        -11   -1    0    0    0    0  0.00000000000E+00  0.00000000000E+00  0.45593999997E+02  0.45594000000E+02  0.51100000000E-03 0.  1.
         11   -1    0    0    0    0 -0.00000000000E+00 -0.00000000000E+00 -0.45593999997E+02  0.45594000000E+02  0.51100000000E-03 0. -1.
    9900012    2    1    2    0    0  0.23365817215E+02 -0.12017624365E+02  0.34543278791E+02  0.47787276283E+02  0.20000023887E+02 0.  0.
         12    1    1    2    0    0 -0.23365817215E+02  0.12017624365E+02 -0.34543278791E+02  0.43400723717E+02  0.00000000000E+00 0. -1.
         11    1    3    3    0    0 -0.16718218189E+01 -0.25674788523E+01  0.42048895843E+00  0.30925308529E+01  0.51100000000E-03 0. -1.
        -11    1    3    3    0    0  0.71124756373E+01 -0.71529260457E+01  0.77332168050E+01  0.12710401375E+02  0.51100000000E-03 0.  1.
         12    1    3    3    0    0  0.17925163397E+02 -0.22972194672E+01  0.26389573027E+02  0.31984344055E+02  0.00000000000E+00 0. -1.
</event>
<event>
 7    1  0.2653124E-010  0.4778728E+02  0.7816164E-02  0.1312668E+00
        -11   -1    0    0    0    0  0.00000000000E+00  0.00000000000E+00  0.45593999997E+02  0.45594000000E+02  0.51100000000E-03 0. -1.
         11   -1    0    0    0    0 -0.00000000000E+00 -0.00000000000E+00 -0.45593999997E+02  0.45594000000E+02  0.51100000000E-03 0.  1.
    9900012    2    1    2    0    0 -0.41259548250E+02  0.99246858516E+01  0.90979787167E+01  0.47787275032E+02  0.20000018180E+02 0.  0.
         12    1    1    2    0    0  0.41259548250E+02 -0.99246858516E+01 -0.90979787167E+01  0.43400724968E+02  0.00000000000E+00 0. -1.
         11    1    3    3    0    0 -0.14622188307E+01 -0.12779949872E+01 -0.11909738568E+01  0.22781075666E+01  0.51100000000E-03 0. -1.
        -11    1    3    3    0    0 -0.12632307226E+02  0.18521562800E+01 -0.40580264505E+01  0.13396762582E+02  0.51100000000E-03 0.  1.
        -12    1    3    3    0    0 -0.27165022193E+02  0.93505245588E+01  0.14346979024E+02  0.32112404883E+02  0.00000000000E+00 0.  1.
</event>
<event>
 7    1  0.2653124E-010  0.4778723E+02  0.7816164E-02  0.1312668E+00
        -11   -1    0    0    0    0  0.00000000000E+00  0.00000000000E+00  0.45593999997E+02  0.45594000000E+02  0.51100000000E-03 0.  1.
         11   -1    0    0    0    0 -0.00000000000E+00 -0.00000000000E+00 -0.45593999997E+02  0.45594000000E+02  0.51100000000E-03 0. -1.
    9900012    2    1    2    0    0  0.48776679373E+01 -0.15785757175E+02  0.40132841446E+02  0.47787231152E+02  0.19999818114E+02 0.  0.
         12    1    1    2    0    0 -0.48776679373E+01  0.15785757175E+02 -0.40132841446E+02  0.43400768848E+02  0.00000000000E+00 0. -1.
         11    1    3    3    0    0 -0.40255163386E+01  0.23841154626E+01  0.10420186533E+02  0.11422306070E+02  0.51100000000E-03 0. -1.
        -11    1    3    3    0    0  0.10238988605E+01 -0.29807261431E+01  0.18128985709E+01  0.36358903595E+01  0.51100000000E-03 0.  1.
        -12    1    3    3    0    0  0.78792854153E+01 -0.15189146494E+02  0.27899756342E+02  0.32729034722E+02  0.00000000000E+00 0.  1.
</event>
<event>
 7    1  0.2653124E-010  0.4778727E+02  0.7816164E-02  0.1312668E+00
        -11   -1    0    0    0    0  0.00000000000E+00  0.00000000000E+00  0.45593999997E+02  0.45594000000E+02  0.51100000000E-03 0.  1.
         11   -1    0    0    0    0 -0.00000000000E+00 -0.00000000000E+00 -0.45593999997E+02  0.45594000000E+02  0.51100000000E-03 0. -1.
    9900012    2    1    2    0    0  0.24852078033E+02 -0.30841521515E+02  0.17742550731E+02  0.47787270301E+02  0.19999996612E+02 0.  0.
         12    1    1    2    0    0 -0.24852078033E+02  0.30841521515E+02 -0.17742550731E+02  0.43400729699E+02  0.00000000000E+00 0. -1.
         11    1    3    3    0    0  0.10287304648E+01 -0.17186843721E+01 -0.75875924674E+00  0.21419332846E+01  0.51100000000E-03 0. -1.
        -11    1    3    3    0    0  0.15243585462E+02 -0.12123021614E+02  0.18115846018E+02  0.26599218560E+02  0.51100000000E-03 0.  1.
        -12    1    3    3    0    0  0.85797621065E+01 -0.16999815529E+02  0.38546396063E+00  0.19046118457E+02  0.00000000000E+00 0.  1.
</event>
<event>
 7    1  0.2653124E-010  0.4778727E+02  0.7816164E-02  0.1312668E+00
        -11   -1    0    0    0    0  0.00000000000E+00  0.00000000000E+00  0.45593999997E+02  0.45594000000E+02  0.51100000000E-03 0.  1.
         11   -1    0    0    0    0 -0.00000000000E+00 -0.00000000000E+00 -0.45593999997E+02  0.45594000000E+02  0.51100000000E-03 0. -1.
    9900012    2    1    2    0    0  0.10370962821E+02 -0.34442470552E+02  0.24285438049E+02  0.47787272486E+02  0.20000006571E+02 0.  0.
         12    1    1    2    0    0 -0.10370962821E+02  0.34442470552E+02 -0.24285438049E+02  0.43400727514E+02  0.00000000000E+00 0. -1.
         11    1    3    3    0    0 -0.15250390686E+01 -0.52657544115E+01  0.77658541229E+01  0.95059141698E+01  0.51100000000E-03 0. -1.
        -11    1    3    3    0    0  0.19599002423E+01 -0.13870884317E+02  0.14095804384E+02  0.19872955045E+02  0.51100000000E-03 0.  1.
         12    1    3    3    0    0  0.99361016468E+01 -0.15305831823E+02  0.24237795420E+01  0.18408403271E+02  0.00000000000E+00 0. -1.
</event>
<event>
 7    1  0.2653124E-010  0.4778727E+02  0.7816164E-02  0.1312668E+00
        -11   -1    0    0    0    0  0.00000000000E+00  0.00000000000E+00  0.45593999997E+02  0.45594000000E+02  0.51100000000E-03 0.  1.
         11   -1    0    0    0    0 -0.00000000000E+00 -0.00000000000E+00 -0.45593999997E+02  0.45594000000E+02  0.51100000000E-03 0. -1.
    9900012    2    1    2    0    0 -0.32458716225E+02 -0.27338846621E+02 -0.90907979933E+01  0.47787269572E+02  0.19999993286E+02 0.  0.
         12    1    1    2    0    0  0.32458716225E+02  0.27338846621E+02  0.90907979933E+01  0.43400730428E+02  0.00000000000E+00 0. -1.
         11    1    3    3    0    0 -0.58494877952E+01  0.12948794824E+01 -0.54921437835E+01  0.81275373847E+01  0.51100000000E-03 0. -1.
        -11    1    3    3    0    0 -0.10470579890E+02 -0.10110867685E+02 -0.39787036575E+01  0.15089492094E+02  0.51100000000E-03 0.  1.
        -12    1    3    3    0    0 -0.16138648539E+02 -0.18522858419E+02  0.38004944777E+00  0.24570240093E+02  0.00000000000E+00 0.  1.
</event>
<event>
 7    1  0.2653124E-010  0.4778727E+02  0.7816164E-02  0.1312668E+00
        -11   -1    0    0    0    0  0.00000000000E+00  0.00000000000E+00  0.45593999997E+02  0.45594000000E+02  0.51100000000E-03 0.  1.
         11   -1    0    0    0    0 -0.00000000000E+00 -0.00000000000E+00 -0.45593999997E+02  0.45594000000E+02  0.51100000000E-03 0. -1.
    9900012    2    1    2    0    0 -0.71168988730E+01 -0.30186500596E+00  0.42812166828E+02  0.47787274193E+02  0.20000014354E+02 0.  0.
         12    1    1    2    0    0  0.71168988730E+01  0.30186500596E+00 -0.42812166828E+02  0.43400725807E+02  0.00000000000E+00 0. -1.
         11    1    3    3    0    0  0.33768260764E+01  0.60893431382E-01  0.27303051849E+01  0.43429516488E+01  0.51100000000E-03 0. -1.
        -11    1    3    3    0    0 -0.46139879464E+01  0.61365454488E+01  0.14571291343E+02  0.16470233953E+02  0.51100000000E-03 0.  1.
         12    1    3    3    0    0 -0.58797370030E+01 -0.64993038861E+01  0.25510570301E+02  0.26974088591E+02  0.00000000000E+00 0. -1.
</event>
<event>
 7    1  0.2653124E-010  0.4778727E+02  0.7816164E-02  0.1312668E+00
        -11   -1    0    0    0    0  0.00000000000E+00  0.00000000000E+00  0.45593999997E+02  0.45594000000E+02  0.51100000000E-03 0.  1.
         11   -1    0    0    0    0 -0.00000000000E+00 -0.00000000000E+00 -0.45593999997E+02  0.45594000000E+02  0.51100000000E-03 0. -1.
    9900012    2    1    2    0    0  0.14919116545E+01  0.31527783947E+02  0.29789199673E+02  0.47787269843E+02  0.19999994524E+02 0.  0.
         12    1    1    2    0    0 -0.14919116545E+01 -0.31527783947E+02 -0.29789199673E+02  0.43400730157E+02  0.00000000000E+00 0. -1.
         11    1    3    3    0    0  0.84034480975E+01  0.21818277027E+02  0.21167384594E+02  0.31539076131E+02  0.51100000000E-03 0. -1.
        -11    1    3    3    0    0 -0.16133191339E+01  0.68491985534E+01  0.20368411996E+01  0.73255062477E+01  0.51100000000E-03 0.  1.
         12    1    3    3    0    0 -0.52982173092E+01  0.28603083660E+01  0.65849738792E+01  0.89226874648E+01  0.00000000000E+00 0. -1.
</event>
<event>
 7    1  0.2653124E-010  0.4778727E+02  0.7816164E-02  0.1312668E+00
        -11   -1    0    0    0    0  0.00000000000E+00  0.00000000000E+00  0.45593999997E+02  0.45594000000E+02  0.51100000000E-03 0.  1.
         11   -1    0    0    0    0 -0.00000000000E+00 -0.00000000000E+00 -0.45593999997E+02  0.45594000000E+02  0.51100000000E-03 0. -1.
    9900012    2    1    2    0    0 -0.24842921391E+02 -0.26014170659E+02  0.24284065170E+02  0.47787266832E+02  0.19999980794E+02 0.  0.
         12    1    1    2    0    0  0.24842921391E+02  0.26014170659E+02 -0.24284065170E+02  0.43400733168E+02  0.00000000000E+00 0. -1.
         11    1    3    3    0    0 -0.13646614983E+02 -0.64299735326E+01  0.89785099041E+01  0.17555292663E+02  0.51100000000E-03 0. -1.
        -11    1    3    3    0    0 -0.13530020482E+02 -0.12674041734E+02  0.90820551020E+01  0.20644043046E+02  0.51100000000E-03 0.  1.
         12    1    3    3    0    0  0.23337140748E+01 -0.69101553923E+01  0.62235001639E+01  0.95879311230E+01  0.00000000000E+00 0. -1.
</event>
<event>
 7    1  0.2653124E-010  0.4778727E+02  0.7816164E-02  0.1312668E+00
        -11   -1    0    0    0    0  0.00000000000E+00  0.00000000000E+00  0.45593999997E+02  0.45594000000E+02  0.51100000000E-03 0. -1.
         11   -1    0    0    0    0 -0.00000000000E+00 -0.00000000000E+00 -0.45593999997E+02  0.45594000000E+02  0.51100000000E-03 0.  1.
    9900012    2    1    2    0    0 -0.35427518861E+02 -0.65056964381E+01 -0.24211359566E+02  0.47787272923E+02  0.20000008564E+02 0.  0.
         12    1    1    2    0    0  0.35427518861E+02  0.65056964381E+01  0.24211359566E+02  0.43400727077E+02  0.00000000000E+00 0. -1.
         11    1    3    3    0    0 -0.77293343363E+01 -0.69974036245E+01 -0.46431469819E+01  0.11413372899E+02  0.51100000000E-03 0. -1.
        -11    1    3    3    0    0 -0.18561926014E+02 -0.52299871594E+01 -0.15876659062E+02  0.24979314768E+02  0.51100000000E-03 0.  1.
        -12    1    3    3    0    0 -0.91362585106E+01  0.57216943459E+01 -0.36915535228E+01  0.11394585257E+02  0.00000000000E+00 0.  1.
</event>
<event>
 7    1  0.2653124E-010  0.4778727E+02  0.7816164E-02  0.1312668E+00
        -11   -1    0    0    0    0  0.00000000000E+00  0.00000000000E+00  0.45593999997E+02  0.45594000000E+02  0.51100000000E-03 0.  1.
         11   -1    0    0    0    0 -0.00000000000E+00 -0.00000000000E+00 -0.45593999997E+02  0.45594000000E+02  0.51100000000E-03 0. -1.
    9900012    2    1    2    0    0  0.22907004975E+02  0.28259288892E+02  0.23670770178E+02  0.47787266752E+02  0.19999980431E+02 0.  0.
         12    1    1    2    0    0 -0.22907004975E+02 -0.28259288892E+02 -0.23670770178E+02  0.43400733248E+02  0.00000000000E+00 0. -1.
         11    1    3    3    0    0 -0.25979156426E+00  0.10975205890E+00  0.21181796344E+01  0.21368721056E+01  0.51100000000E-03 0. -1.
        -11    1    3    3    0    0  0.16326072545E+02  0.88334944190E+01  0.15774039053E+02  0.24359630061E+02  0.51100000000E-03 0.  1.
         12    1    3    3    0    0  0.68407239940E+01  0.19316042414E+02  0.57785514906E+01  0.21290764586E+02  0.00000000000E+00 0. -1.
</event>
<event>
 7    1  0.2653124E-010  0.4778727E+02  0.7816164E-02  0.1312668E+00
        -11   -1    0    0    0    0  0.00000000000E+00  0.00000000000E+00  0.45593999997E+02  0.45594000000E+02  0.51100000000E-03 0.  1.
         11   -1    0    0    0    0 -0.00000000000E+00 -0.00000000000E+00 -0.45593999997E+02  0.45594000000E+02  0.51100000000E-03 0. -1.
    9900012    2    1    2    0    0  0.37940700972E+02  0.12753670267E+01  0.21035678922E+02  0.47787272598E+02  0.20000007084E+02 0.  0.
         12    1    1    2    0    0 -0.37940700972E+02 -0.12753670267E+01 -0.21035678922E+02  0.43400727402E+02  0.00000000000E+00 0. -1.
         11    1    3    3    0    0  0.68500548147E+01 -0.32671950176E+01  0.41351956270E+01  0.86427806510E+01  0.51100000000E-03 0. -1.
        -11    1    3    3    0    0  0.31972206124E+02  0.69284703763E+01  0.16203044730E+02  0.36507044868E+02  0.51100000000E-03 0.  1.
        -12    1    3    3    0    0 -0.88155996656E+00 -0.23859083320E+01  0.69743856427E+00  0.26374470790E+01  0.00000000000E+00 0.  1.
</event>
<event>
 7    1  0.2653124E-010  0.4778727E+02  0.7816164E-02  0.1312668E+00
        -11   -1    0    0    0    0  0.00000000000E+00  0.00000000000E+00  0.45593999997E+02  0.45594000000E+02  0.51100000000E-03 0.  1.
         11   -1    0    0    0    0 -0.00000000000E+00 -0.00000000000E+00 -0.45593999997E+02  0.45594000000E+02  0.51100000000E-03 0. -1.
    9900012    2    1    2    0    0 -0.37654814583E+01 -0.43064004505E+02  0.38647102035E+01  0.47787270518E+02  0.19999997600E+02 0.  0.
         12    1    1    2    0    0  0.37654814583E+01  0.43064004505E+02 -0.38647102035E+01  0.43400729482E+02  0.00000000000E+00 0. -1.
         11    1    3    3    0    0 -0.15108447447E+01 -0.25542111253E+02 -0.42607814688E+01  0.25939089384E+02  0.51100000000E-03 0.  1.
        -11    1    3    3    0    0 -0.15067179620E+01 -0.27815195398E+01 -0.21845903074E+01  0.38444095827E+01  0.51100000000E-03 0. -1.
        -12    1    3    3    0    0 -0.74791875159E+00 -0.14740373713E+02  0.10310081980E+02  0.18003771551E+02  0.00000000000E+00 0.  1.
</event>
<event>
 7    1  0.2653124E-010  0.4778727E+02  0.7816164E-02  0.1312668E+00
        -11   -1    0    0    0    0  0.00000000000E+00  0.00000000000E+00  0.45593999997E+02  0.45594000000E+02  0.51100000000E-03 0.  1.
         11   -1    0    0    0    0 -0.00000000000E+00 -0.00000000000E+00 -0.45593999997E+02  0.45594000000E+02  0.51100000000E-03 0. -1.
    9900012    2    1    2    0    0  0.49356620665E+01  0.41094032600E+02  0.13059212146E+02  0.47787270776E+02  0.19999998775E+02 0.  0.
         12    1    1    2    0    0 -0.49356620665E+01 -0.41094032600E+02 -0.13059212146E+02  0.43400729224E+02  0.00000000000E+00 0. -1.
         11    1    3    3    0    0  0.31134799174E+01  0.71174927055E+01  0.27720016923E+01  0.82484212581E+01  0.51100000000E-03 0. -1.
        -11    1    3    3    0    0 -0.53002193870E+01  0.18011953354E+02 -0.87811442467E+00  0.18796113279E+02  0.51100000000E-03 0.  1.
        -12    1    3    3    0    0  0.71224015361E+01  0.15964586540E+02  0.11165324878E+02  0.20742736239E+02  0.00000000000E+00 0.  1.
</event>
<event>
 7    1  0.2767343E-010  0.4778727E+02  0.7816164E-02  0.1312668E+00
        -11   -1    0    0    0    0  0.00000000000E+00  0.00000000000E+00  0.45593999997E+02  0.45594000000E+02  0.51100000000E-03 0.  1.
         11   -1    0    0    0    0 -0.00000000000E+00 -0.00000000000E+00 -0.45593999997E+02  0.45594000000E+02  0.51100000000E-03 0. -1.
    9900012    2    1    2    0    0 -0.39512582797E+02 -0.15462258770E+02  0.91267365538E+01  0.47787274595E+02  0.20000016188E+02 0.  0.
         12    1    1    2    0    0  0.39512582797E+02  0.15462258770E+02 -0.91267365538E+01  0.43400725405E+02  0.00000000000E+00 0. -1.
         11    1    3    3    0    0 -0.19323560943E+02 -0.38739741744E-01  0.96284865820E+01  0.21589563738E+02  0.51100000000E-03 0. -1.
        -11    1    3    3    0    0 -0.11345361213E+02 -0.69321513374E+01  0.26086633475E+01  0.13549061515E+02  0.51100000000E-03 0.  1.
         12    1    3    3    0    0 -0.88436606403E+01 -0.84913676911E+01 -0.31104133757E+01  0.12648649341E+02  0.00000000000E+00 0. -1.
</event>
<event>
 7    1  0.2653124E-010  0.4778727E+02  0.7816164E-02  0.1312668E+00
        -11   -1    0    0    0    0  0.00000000000E+00  0.00000000000E+00  0.45593999997E+02  0.45594000000E+02  0.51100000000E-03 0.  1.
         11   -1    0    0    0    0 -0.00000000000E+00 -0.00000000000E+00 -0.45593999997E+02  0.45594000000E+02  0.51100000000E-03 0. -1.
    9900012    2    1    2    0    0 -0.22874778104E+02 -0.17839771083E+00  0.36882729863E+02  0.47787273495E+02  0.20000011174E+02 0.  0.
         12    1    1    2    0    0  0.22874778104E+02  0.17839771083E+00 -0.36882729863E+02  0.43400726505E+02  0.00000000000E+00 0. -1.
         11    1    3    3    0    0 -0.14221005773E+02 -0.17324051580E+01  0.58828129859E+01  0.15486953274E+02  0.51100000000E-03 0.  1.
        -11    1    3    3    0    0 -0.91395605161E+00  0.74557066366E+00  0.26283877395E+01  0.28809050052E+01  0.51100000000E-03 0. -1.
        -12    1    3    3    0    0 -0.77398162794E+01  0.80843678354E+00  0.28371529137E+02  0.29419415216E+02  0.00000000000E+00 0.  1.
</event>
<event>
 7    1  0.2653124E-010  0.4778729E+02  0.7816164E-02  0.1312668E+00
        -11   -1    0    0    0    0  0.00000000000E+00  0.00000000000E+00  0.45593999997E+02  0.45594000000E+02  0.51100000000E-03 0.  1.
         11   -1    0    0    0    0 -0.00000000000E+00 -0.00000000000E+00 -0.45593999997E+02  0.45594000000E+02  0.51100000000E-03 0. -1.
    9900012    2    1    2    0    0 -0.24718576614E+02  0.29519784469E+02  0.20029868453E+02  0.47787293379E+02  0.20000101834E+02 0.  0.
         12    1    1    2    0    0  0.24718576614E+02 -0.29519784469E+02 -0.20029868453E+02  0.43400706621E+02  0.00000000000E+00 0. -1.
         11    1    3    3    0    0 -0.25785945722E+01  0.20345985405E+01 -0.31881673255E+01  0.45774613429E+01  0.51100000000E-03 0. -1.
        -11    1    3    3    0    0 -0.14375842052E+01  0.69414498261E+01  0.63538626873E+01  0.95195559427E+01  0.51100000000E-03 0.  1.
        -12    1    3    3    0    0 -0.20702397836E+02  0.20543736103E+02  0.16864173091E+02  0.33690276094E+02  0.00000000000E+00 0.  1.
</event>
<event>
 7    1  0.2653124E-010  0.4778727E+02  0.7816164E-02  0.1312668E+00
        -11   -1    0    0    0    0  0.00000000000E+00  0.00000000000E+00  0.45593999997E+02  0.45594000000E+02  0.51100000000E-03 0.  1.
         11   -1    0    0    0    0 -0.00000000000E+00 -0.00000000000E+00 -0.45593999997E+02  0.45594000000E+02  0.51100000000E-03 0. -1.
    9900012    2    1    2    0    0  0.28968599729E+02  0.29635815477E+02  0.12890385136E+02  0.47787270073E+02  0.19999995570E+02 0.  0.
         12    1    1    2    0    0 -0.28968599729E+02 -0.29635815477E+02 -0.12890385136E+02  0.43400729927E+02  0.00000000000E+00 0. -1.
         11    1    3    3    0    0  0.85061335192E+01  0.17693402238E+01 -0.39550938172E+00  0.86972007109E+01  0.51100000000E-03 0. -1.
        -11    1    3    3    0    0  0.22413370226E+01  0.10980699654E+01  0.51183723951E+01  0.56944785129E+01  0.51100000000E-03 0.  1.
        -12    1    3    3    0    0  0.18221129188E+02  0.26768405288E+02  0.81675221222E+01  0.33395590849E+02  0.00000000000E+00 0.  1.
</event>
<event>
 7    1  0.2653124E-010  0.4778728E+02  0.7816164E-02  0.1312668E+00
        -11   -1    0    0    0    0  0.00000000000E+00  0.00000000000E+00  0.45593999997E+02  0.45594000000E+02  0.51100000000E-03 0.  1.
         11   -1    0    0    0    0 -0.00000000000E+00 -0.00000000000E+00 -0.45593999997E+02  0.45594000000E+02  0.51100000000E-03 0. -1.
    9900012    2    1    2    0    0 -0.30366331804E+01  0.42028883187E+02  0.10391083954E+02  0.47787276633E+02  0.20000025482E+02 0.  0.
         12    1    1    2    0    0  0.30366331804E+01 -0.42028883187E+02 -0.10391083954E+02  0.43400723367E+02  0.00000000000E+00 0. -1.
         11    1    3    3    0    0  0.24185171441E+01  0.44270732082E+01 -0.10728077024E+00  0.50457617653E+01  0.51100000000E-03 0. -1.
        -11    1    3    3    0    0 -0.65294491389E+01  0.35975468109E+02  0.49945499554E+01  0.36902757909E+02  0.51100000000E-03 0.  1.
        -12    1    3    3    0    0  0.10742988144E+01  0.16263418690E+01  0.55038147692E+01  0.58387569594E+01  0.00000000000E+00 0.  1.
</event>
<event>
 7    1  0.2653124E-010  0.4778727E+02  0.7816164E-02  0.1312668E+00
        -11   -1    0    0    0    0  0.00000000000E+00  0.00000000000E+00  0.45593999997E+02  0.45594000000E+02  0.51100000000E-03 0. -1.
         11   -1    0    0    0    0 -0.00000000000E+00 -0.00000000000E+00 -0.45593999997E+02  0.45594000000E+02  0.51100000000E-03 0.  1.
    9900012    2    1    2    0    0  0.19792723556E+02  0.61421094449E+01 -0.38133267483E+02  0.47787268403E+02  0.19999987958E+02 0.  0.
         12    1    1    2    0    0 -0.19792723556E+02 -0.61421094449E+01  0.38133267483E+02  0.43400731597E+02  0.00000000000E+00 0. -1.
         11    1    3    3    0    0  0.78173613341E+01  0.72968186123E+01 -0.88054828442E+01  0.13852480950E+02  0.51100000000E-03 0.  1.
        -11    1    3    3    0    0 -0.34168815517E-01 -0.30245347444E+01 -0.11296965258E+01  0.32288066572E+01  0.51100000000E-03 0. -1.
        -12    1    3    3    0    0  0.12009531037E+02  0.18698255770E+01 -0.28198088113E+02  0.30705980796E+02  0.00000000000E+00 0.  1.
</event>
<event>
 7    1  0.2653124E-010  0.4778727E+02  0.7816164E-02  0.1312668E+00
        -11   -1    0    0    0    0  0.00000000000E+00  0.00000000000E+00  0.45593999997E+02  0.45594000000E+02  0.51100000000E-03 0. -1.
         11   -1    0    0    0    0 -0.00000000000E+00 -0.00000000000E+00 -0.45593999997E+02  0.45594000000E+02  0.51100000000E-03 0.  1.
    9900012    2    1    2    0    0  0.22905800316E+02  0.35637822491E+02 -0.94283233105E+01  0.47787270047E+02  0.19999995454E+02 0.  0.
         12    1    1    2    0    0 -0.22905800316E+02 -0.35637822491E+02  0.94283233105E+01  0.43400729953E+02  0.00000000000E+00 0. -1.
         11    1    3    3    0    0  0.18960829469E+01  0.26625982813E+01  0.23488199771E+01  0.40251106438E+01  0.51100000000E-03 0. -1.
        -11    1    3    3    0    0 -0.38905015264E+00 -0.87690235990E+00 -0.24653965994E+01  0.26454675245E+01  0.51100000000E-03 0.  1.
        -12    1    3    3    0    0  0.21398767521E+02  0.33852126569E+02 -0.93117466883E+01  0.41116691879E+02  0.00000000000E+00 0.  1.
</event>
<event>
 7    1  0.2653124E-010  0.4778727E+02  0.7816164E-02  0.1312668E+00
        -11   -1    0    0    0    0  0.00000000000E+00  0.00000000000E+00  0.45593999997E+02  0.45594000000E+02  0.51100000000E-03 0.  1.
         11   -1    0    0    0    0 -0.00000000000E+00 -0.00000000000E+00 -0.45593999997E+02  0.45594000000E+02  0.51100000000E-03 0. -1.
    9900012    2    1    2    0    0  0.70699099409E+01 -0.28433626864E+02  0.32018250511E+02  0.47787272713E+02  0.20000007610E+02 0.  0.
         12    1    1    2    0    0 -0.70699099409E+01  0.28433626864E+02 -0.32018250511E+02  0.43400727287E+02  0.00000000000E+00 0. -1.
         11    1    3    3    0    0  0.30382843728E+01 -0.44509601722E+01  0.82839980091E+01  0.98826535738E+01  0.51100000000E-03 0. -1.
        -11    1    3    3    0    0  0.36661161541E+01 -0.13252529859E+02  0.23130597105E+01  0.13943464447E+02  0.51100000000E-03 0.  1.
         12    1    3    3    0    0  0.36550941397E+00 -0.10730136834E+02  0.21421192791E+02  0.23961154692E+02  0.00000000000E+00 0. -1.
</event>
<event>
 7    1  0.2653124E-010  0.4778727E+02  0.7816164E-02  0.1312668E+00
        -11   -1    0    0    0    0  0.00000000000E+00  0.00000000000E+00  0.45593999997E+02  0.45594000000E+02  0.51100000000E-03 0.  1.
         11   -1    0    0    0    0 -0.00000000000E+00 -0.00000000000E+00 -0.45593999997E+02  0.45594000000E+02  0.51100000000E-03 0. -1.
    9900012    2    1    2    0    0 -0.15530210234E+02  0.17049845763E+02  0.36766004451E+02  0.47787265517E+02  0.19999974797E+02 0.  0.
         12    1    1    2    0    0  0.15530210234E+02 -0.17049845763E+02 -0.36766004451E+02  0.43400734483E+02  0.00000000000E+00 0. -1.
         11    1    3    3    0    0 -0.65199160470E+01 -0.12753795856E+01  0.97435140187E+01  0.11792877683E+02  0.51100000000E-03 0. -1.
        -11    1    3    3    0    0 -0.73324147467E+01  0.50316444733E+01  0.17259504281E+02  0.19415772980E+02  0.51100000000E-03 0.  1.
         12    1    3    3    0    0 -0.16778794401E+01  0.13293580875E+02  0.97629861511E+01  0.16578614854E+02  0.00000000000E+00 0. -1.
</event>
<event>
 7    1  0.2653124E-010  0.4778727E+02  0.7816164E-02  0.1312668E+00
        -11   -1    0    0    0    0  0.00000000000E+00  0.00000000000E+00  0.45593999997E+02  0.45594000000E+02  0.51100000000E-03 0.  1.
         11   -1    0    0    0    0 -0.00000000000E+00 -0.00000000000E+00 -0.45593999997E+02  0.45594000000E+02  0.51100000000E-03 0. -1.
    9900012    2    1    2    0    0 -0.24273488475E+02  0.74230916241E+01  0.35203959006E+02  0.47787271184E+02  0.20000000638E+02 0.  0.
         12    1    1    2    0    0  0.24273488475E+02 -0.74230916241E+01 -0.35203959006E+02  0.43400728816E+02  0.00000000000E+00 0. -1.
         11    1    3    3    0    0 -0.11633244598E+02  0.78892942951E+01  0.59046726772E+01  0.15245934016E+02  0.51100000000E-03 0. -1.
        -11    1    3    3    0    0 -0.70733597820E+01  0.36757674164E+00  0.88712017147E+01  0.11351905188E+02  0.51100000000E-03 0.  1.
        -12    1    3    3    0    0 -0.55668840954E+01 -0.83377941262E+00  0.20428084614E+02  0.21189431980E+02  0.00000000000E+00 0.  1.
</event>
<event>
 7    1  0.2653124E-010  0.4778727E+02  0.7816164E-02  0.1312668E+00
        -11   -1    0    0    0    0  0.00000000000E+00  0.00000000000E+00  0.45593999997E+02  0.45594000000E+02  0.51100000000E-03 0.  1.
         11   -1    0    0    0    0 -0.00000000000E+00 -0.00000000000E+00 -0.45593999997E+02  0.45594000000E+02  0.51100000000E-03 0. -1.
    9900012    2    1    2    0    0  0.14944335483E+02  0.52748587421E+00  0.40743242803E+02  0.47787271452E+02  0.20000001858E+02 0.  0.
         12    1    1    2    0    0 -0.14944335483E+02 -0.52748587421E+00 -0.40743242803E+02  0.43400728548E+02  0.00000000000E+00 0. -1.
         11    1    3    3    0    0  0.77108450586E+01 -0.47593954401E+01  0.14730446209E+02  0.17294363887E+02  0.51100000000E-03 0. -1.
        -11    1    3    3    0    0  0.93706428369E+01  0.32076752376E+01  0.95375406426E+01  0.13750011250E+02  0.51100000000E-03 0.  1.
        -12    1    3    3    0    0 -0.21371524130E+01  0.20792060768E+01  0.16475255951E+02  0.16742896315E+02  0.00000000000E+00 0.  1.
</event>
<event>
 7    1  0.2653124E-010  0.4778727E+02  0.7816164E-02  0.1312668E+00
        -11   -1    0    0    0    0  0.00000000000E+00  0.00000000000E+00  0.45593999997E+02  0.45594000000E+02  0.51100000000E-03 0.  1.
         11   -1    0    0    0    0 -0.00000000000E+00 -0.00000000000E+00 -0.45593999997E+02  0.45594000000E+02  0.51100000000E-03 0. -1.
    9900012    2    1    2    0    0  0.47156644737E-01  0.38853670548E+02  0.19339415819E+02  0.47787274856E+02  0.20000017377E+02 0.  0.
         12    1    1    2    0    0 -0.47156644737E-01 -0.38853670548E+02 -0.19339415819E+02  0.43400725144E+02  0.00000000000E+00 0. -1.
         11    1    3    3    0    0  0.22005707326E+01 -0.14142058405E+00  0.87492764315E-01  0.22068453901E+01  0.51100000000E-03 0. -1.
        -11    1    3    3    0    0 -0.34269746015E+01  0.19317034750E+01  0.33239047369E+00  0.39479256481E+01  0.51100000000E-03 0.  1.
        -12    1    3    3    0    0  0.12735605137E+01  0.37063387657E+02  0.18919532581E+02  0.41632503818E+02  0.00000000000E+00 0.  1.
</event>
<event>
 7    1  0.2653124E-010  0.4778727E+02  0.7816164E-02  0.1312668E+00
        -11   -1    0    0    0    0  0.00000000000E+00  0.00000000000E+00  0.45593999997E+02  0.45594000000E+02  0.51100000000E-03 0.  1.
         11   -1    0    0    0    0 -0.00000000000E+00 -0.00000000000E+00 -0.45593999997E+02  0.45594000000E+02  0.51100000000E-03 0. -1.
    9900012    2    1    2    0    0  0.10689269658E+02 -0.12528021782E+02  0.40154843451E+02  0.47787271110E+02  0.20000000300E+02 0.  0.
         12    1    1    2    0    0 -0.10689269658E+02  0.12528021782E+02 -0.40154843451E+02  0.43400728890E+02  0.00000000000E+00 0. -1.
         11    1    3    3    0    0  0.61303273911E+01 -0.10798835702E+02  0.16719468672E+02  0.20826339078E+02  0.51100000000E-03 0. -1.
        -11    1    3    3    0    0  0.11923764932E+01 -0.66631014347E+01  0.84356035081E+01  0.10815640954E+02  0.51100000000E-03 0.  1.
        -12    1    3    3    0    0  0.33665657741E+01  0.49339153551E+01  0.14999771271E+02  0.16145291079E+02  0.00000000000E+00 0.  1.
</event>
<event>
 7    1  0.2653124E-010  0.4778728E+02  0.7816164E-02  0.1312668E+00
        -11   -1    0    0    0    0  0.00000000000E+00  0.00000000000E+00  0.45593999997E+02  0.45594000000E+02  0.51100000000E-03 0. -1.
         11   -1    0    0    0    0 -0.00000000000E+00 -0.00000000000E+00 -0.45593999997E+02  0.45594000000E+02  0.51100000000E-03 0.  1.
    9900012    2    1    2    0    0  0.24987018450E+02 -0.14187811927E+02 -0.32526568376E+02  0.47787277096E+02  0.20000027589E+02 0.  0.
         12    1    1    2    0    0 -0.24987018450E+02  0.14187811927E+02  0.32526568376E+02  0.43400722904E+02  0.00000000000E+00 0. -1.
         11    1    3    3    0    0 -0.20634214197E+01 -0.17469136096E+01 -0.17027110085E+01  0.31950962668E+01  0.51100000000E-03 0. -1.
        -11    1    3    3    0    0 -0.26670173643E+00 -0.25696333431E+01 -0.55700570515E+00  0.26428017237E+01  0.51100000000E-03 0.  1.
         12    1    3    3    0    0  0.27317141607E+02 -0.98712649740E+01 -0.30266851662E+02  0.41949379105E+02  0.00000000000E+00 0. -1.
</event>
<event>
 7    1  0.2653124E-010  0.4778727E+02  0.7816164E-02  0.1312668E+00
        -11   -1    0    0    0    0  0.00000000000E+00  0.00000000000E+00  0.45593999997E+02  0.45594000000E+02  0.51100000000E-03 0.  1.
         11   -1    0    0    0    0 -0.00000000000E+00 -0.00000000000E+00 -0.45593999997E+02  0.45594000000E+02  0.51100000000E-03 0. -1.
    9900012    2    1    2    0    0  0.43388732665E+02 -0.69097413830E+00  0.75107784663E+00  0.47787266303E+02  0.19999978381E+02 0.  0.
         12    1    1    2    0    0 -0.43388732665E+02  0.69097413830E+00 -0.75107784663E+00  0.43400733697E+02  0.00000000000E+00 0. -1.
         11    1    3    3    0    0  0.13169627376E+02  0.19119262420E+01 -0.43198394995E+01  0.13991267303E+02  0.51100000000E-03 0. -1.
        -11    1    3    3    0    0  0.21099200977E+01 -0.43826099103E+01  0.26181714429E+01  0.55239346855E+01  0.51100000000E-03 0.  1.
        -12    1    3    3    0    0  0.28109185191E+02  0.17797095301E+01  0.24527459033E+01  0.28272064314E+02  0.00000000000E+00 0.  1.
</event>
<event>
 7    1  0.2653124E-010  0.4778727E+02  0.7816164E-02  0.1312668E+00
        -11   -1    0    0    0    0  0.00000000000E+00  0.00000000000E+00  0.45593999997E+02  0.45594000000E+02  0.51100000000E-03 0.  1.
         11   -1    0    0    0    0 -0.00000000000E+00 -0.00000000000E+00 -0.45593999997E+02  0.45594000000E+02  0.51100000000E-03 0. -1.
    9900012    2    1    2    0    0 -0.40214366615E+02 -0.29054859285E+00  0.16320038106E+02  0.47787270231E+02  0.19999996291E+02 0.  0.
         12    1    1    2    0    0  0.40214366615E+02  0.29054859285E+00 -0.16320038106E+02  0.43400729769E+02  0.00000000000E+00 0. -1.
         11    1    3    3    0    0 -0.18214518206E+02  0.80509148346E+00  0.29199933227E+01  0.18464647493E+02  0.51100000000E-03 0.  1.
        -11    1    3    3    0    0 -0.20771720777E+02  0.91551851672E+00  0.15681627614E+02  0.26042580577E+02  0.51100000000E-03 0. -1.
         12    1    3    3    0    0 -0.12281276309E+01 -0.20111585930E+01 -0.22815828307E+01  0.32800421609E+01  0.00000000000E+00 0. -1.
</event>
<event>
 7    1  0.2653124E-010  0.4778728E+02  0.7816164E-02  0.1312668E+00
        -11   -1    0    0    0    0  0.00000000000E+00  0.00000000000E+00  0.45593999997E+02  0.45594000000E+02  0.51100000000E-03 0. -1.
         11   -1    0    0    0    0 -0.00000000000E+00 -0.00000000000E+00 -0.45593999997E+02  0.45594000000E+02  0.51100000000E-03 0.  1.
    9900012    2    1    2    0    0 -0.34002162806E+01  0.41752420325E+02  0.11348854409E+02  0.47787279152E+02  0.20000036964E+02 0.  0.
         12    1    1    2    0    0  0.34002162806E+01 -0.41752420325E+02 -0.11348854409E+02  0.43400720848E+02  0.00000000000E+00 0. -1.
         11    1    3    3    0    0 -0.64870049010E+00  0.46616306232E+01  0.73007344207E+01  0.86863303953E+01  0.51100000000E-03 0. -1.
        -11    1    3    3    0    0  0.35227444119E+00  0.11655067730E+02  0.65168306762E+01  0.13357910892E+02  0.51100000000E-03 0.  1.
        -12    1    3    3    0    0 -0.31037902317E+01  0.25435721972E+02 -0.24687106879E+01  0.25743037864E+02  0.00000000000E+00 0.  1.
</event>
<event>
 7    1  0.2653124E-010  0.4778727E+02  0.7816164E-02  0.1312668E+00
        -11   -1    0    0    0    0  0.00000000000E+00  0.00000000000E+00  0.45593999997E+02  0.45594000000E+02  0.51100000000E-03 0.  1.
         11   -1    0    0    0    0 -0.00000000000E+00 -0.00000000000E+00 -0.45593999997E+02  0.45594000000E+02  0.51100000000E-03 0. -1.
    9900012    2    1    2    0    0  0.36765338918E+02  0.18767884334E+02  0.13405211737E+02  0.47787270400E+02  0.19999997061E+02 0.  0.
         12    1    1    2    0    0 -0.36765338918E+02 -0.18767884334E+02 -0.13405211737E+02  0.43400729600E+02  0.00000000000E+00 0. -1.
         11    1    3    3    0    0 -0.42851109577E+00  0.12852561543E+01  0.42364820758E+01  0.44478405751E+01  0.51100000000E-03 0. -1.
        -11    1    3    3    0    0  0.11202446567E+02  0.54991960482E+01  0.77359920942E+01  0.14682695264E+02  0.51100000000E-03 0.  1.
         12    1    3    3    0    0  0.25991403447E+02  0.11983432131E+02  0.14327375672E+01  0.28656734561E+02  0.00000000000E+00 0. -1.
</event>
<event>
 7    1  0.2653124E-010  0.4778729E+02  0.7816164E-02  0.1312668E+00
        -11   -1    0    0    0    0  0.00000000000E+00  0.00000000000E+00  0.45593999997E+02  0.45594000000E+02  0.51100000000E-03 0. -1.
         11   -1    0    0    0    0 -0.00000000000E+00 -0.00000000000E+00 -0.45593999997E+02  0.45594000000E+02  0.51100000000E-03 0.  1.
    9900012    2    1    2    0    0  0.59213414758E+01 -0.39511499209E+02  0.16952895099E+02  0.47787291402E+02  0.20000092818E+02 0.  0.
         12    1    1    2    0    0 -0.59213414758E+01  0.39511499209E+02 -0.16952895099E+02  0.43400708598E+02  0.00000000000E+00 0. -1.
         11    1    3    3    0    0  0.61718802900E+01 -0.80891845247E+01  0.18782673712E+01  0.10346733841E+02  0.51100000000E-03 0. -1.
        -11    1    3    3    0    0  0.29080313650E+01 -0.20824036012E+02  0.32941363975E+01  0.21282585771E+02  0.51100000000E-03 0.  1.
        -12    1    3    3    0    0 -0.31585701792E+01 -0.10598278672E+02  0.11780491330E+02  0.16157971790E+02  0.00000000000E+00 0.  1.
</event>
<event>
 7    1  0.2653124E-010  0.4778728E+02  0.7816164E-02  0.1312668E+00
        -11   -1    0    0    0    0  0.00000000000E+00  0.00000000000E+00  0.45593999997E+02  0.45594000000E+02  0.51100000000E-03 0.  1.
         11   -1    0    0    0    0 -0.00000000000E+00 -0.00000000000E+00 -0.45593999997E+02  0.45594000000E+02  0.51100000000E-03 0. -1.
    9900012    2    1    2    0    0  0.12924239629E+01  0.25671703199E+01  0.43305449990E+02  0.47787277402E+02  0.20000028987E+02 0.  0.
         12    1    1    2    0    0 -0.12924239629E+01 -0.25671703199E+01 -0.43305449990E+02  0.43400722598E+02  0.00000000000E+00 0. -1.
         11    1    3    3    0    0 -0.79629628978E+01  0.16900572680E+01  0.16924244399E+02  0.18780178924E+02  0.51100000000E-03 0. -1.
        -11    1    3    3    0    0  0.81396545878E+00 -0.15270845528E+01  0.69871866335E+00  0.18662087320E+01  0.51100000000E-03 0.  1.
        -12    1    3    3    0    0  0.84414214019E+01  0.24041976048E+01  0.25682486928E+02  0.27140889746E+02  0.00000000000E+00 0.  1.
</event>
<event>
 7    1  0.2653124E-010  0.4778726E+02  0.7816164E-02  0.1312668E+00
        -11   -1    0    0    0    0  0.00000000000E+00  0.00000000000E+00  0.45593999997E+02  0.45594000000E+02  0.51100000000E-03 0. -1.
         11   -1    0    0    0    0 -0.00000000000E+00 -0.00000000000E+00 -0.45593999997E+02  0.45594000000E+02  0.51100000000E-03 0.  1.
    9900012    2    1    2    0    0 -0.23389455451E+02  0.36233145232E+02 -0.48700038464E+01  0.47787258334E+02  0.19999942048E+02 0.  0.
         12    1    1    2    0    0  0.23389455451E+02 -0.36233145232E+02  0.48700038464E+01  0.43400741666E+02  0.00000000000E+00 0. -1.
         11    1    3    3    0    0 -0.19010713849E+02  0.20352262354E+02  0.22813413401E+01  0.27943270076E+02  0.51100000000E-03 0. -1.
        -11    1    3    3    0    0 -0.31769003154E+01  0.12644590446E+02 -0.13686922084E+01  0.13109221250E+02  0.51100000000E-03 0.  1.
         12    1    3    3    0    0 -0.12018412871E+01  0.32362924317E+01 -0.57826529781E+01  0.67347670077E+01  0.00000000000E+00 0. -1.
</event>
<event>
 7    1  0.2653124E-010  0.4778730E+02  0.7816164E-02  0.1312668E+00
        -11   -1    0    0    0    0  0.00000000000E+00  0.00000000000E+00  0.45593999997E+02  0.45594000000E+02  0.51100000000E-03 0.  1.
         11   -1    0    0    0    0 -0.00000000000E+00 -0.00000000000E+00 -0.45593999997E+02  0.45594000000E+02  0.51100000000E-03 0. -1.
    9900012    2    1    2    0    0  0.46692246846E+01 -0.39348899149E+02  0.17705464545E+02  0.47787297262E+02  0.20000119537E+02 0.  0.
         12    1    1    2    0    0 -0.46692246846E+01  0.39348899149E+02 -0.17705464545E+02  0.43400702738E+02  0.00000000000E+00 0. -1.
         11    1    3    3    0    0  0.70674284078E+00  0.72573855573E-01 -0.39428730871E-01  0.71155273413E+00  0.51100000000E-03 0. -1.
        -11    1    3    3    0    0  0.50519914660E+01 -0.31803485442E+02  0.21289171691E+02  0.38603278819E+02  0.51100000000E-03 0.  1.
        -12    1    3    3    0    0 -0.10895096222E+01 -0.76179875619E+01 -0.35442784146E+01  0.84724657090E+01  0.00000000000E+00 0.  1.
</event>
<event>
 7    1  0.2653124E-010  0.4778727E+02  0.7816164E-02  0.1312668E+00
        -11   -1    0    0    0    0  0.00000000000E+00  0.00000000000E+00  0.45593999997E+02  0.45594000000E+02  0.51100000000E-03 0. -1.
         11   -1    0    0    0    0 -0.00000000000E+00 -0.00000000000E+00 -0.45593999997E+02  0.45594000000E+02  0.51100000000E-03 0.  1.
    9900012    2    1    2    0    0  0.37264852422E+02  0.91428441465E+01 -0.20282068877E+02  0.47787272552E+02  0.20000006873E+02 0.  0.
         12    1    1    2    0    0 -0.37264852422E+02 -0.91428441465E+01  0.20282068877E+02  0.43400727448E+02  0.00000000000E+00 0. -1.
         11    1    3    3    0    0  0.18944644062E+02  0.63264164053E+00 -0.53013261830E+01  0.19682576906E+02  0.51100000000E-03 0. -1.
        -11    1    3    3    0    0  0.70398634013E+01 -0.27328715274E+01 -0.69718324796E+01  0.10277874872E+02  0.51100000000E-03 0.  1.
         12    1    3    3    0    0  0.11280344958E+02  0.11243074033E+02 -0.80089102145E+01  0.17826820774E+02  0.00000000000E+00 0. -1.
</event>
<event>
 7    1  0.3042658E-010  0.4778727E+02  0.7816164E-02  0.1312668E+00
        -11   -1    0    0    0    0  0.00000000000E+00  0.00000000000E+00  0.45593999997E+02  0.45594000000E+02  0.51100000000E-03 0. -1.
         11   -1    0    0    0    0 -0.00000000000E+00 -0.00000000000E+00 -0.45593999997E+02  0.45594000000E+02  0.51100000000E-03 0.  1.
    9900012    2    1    2    0    0 -0.83261053601E+00  0.38036419134E+02 -0.20884469932E+02  0.47787268380E+02  0.19999987850E+02 0.  0.
         12    1    1    2    0    0  0.83261053601E+00 -0.38036419134E+02  0.20884469932E+02  0.43400731620E+02  0.00000000000E+00 0. -1.
         11    1    3    3    0    0  0.14125797974E+01  0.15430631899E+02 -0.67053263983E+01  0.16883755058E+02  0.51100000000E-03 0. -1.
        -11    1    3    3    0    0  0.44172948476E+00  0.11903747014E+02 -0.15761447631E+02  0.19756455897E+02  0.51100000000E-03 0.  1.
         12    1    3    3    0    0 -0.26869198182E+01  0.10702040220E+02  0.15823040965E+01  0.11147057425E+02  0.00000000000E+00 0. -1.
</event>
<event>
 7    1  0.2653124E-010  0.4778728E+02  0.7816164E-02  0.1312668E+00
        -11   -1    0    0    0    0  0.00000000000E+00  0.00000000000E+00  0.45593999997E+02  0.45594000000E+02  0.51100000000E-03 0.  1.
         11   -1    0    0    0    0 -0.00000000000E+00 -0.00000000000E+00 -0.45593999997E+02  0.45594000000E+02  0.51100000000E-03 0. -1.
    9900012    2    1    2    0    0 -0.61046137882E+00  0.18103672713E+02  0.39439916837E+02  0.47787278015E+02  0.20000031779E+02 0.  0.
         12    1    1    2    0    0  0.61046137882E+00 -0.18103672713E+02 -0.39439916837E+02  0.43400721985E+02  0.00000000000E+00 0. -1.
         11    1    3    3    0    0  0.47616563191E+01  0.25822636293E+01  0.21860513819E+02  0.22521623410E+02  0.51100000000E-03 0.  1.
        -11    1    3    3    0    0  0.19282134111E+01  0.42890551011E+01  0.53983087948E+01  0.71593113303E+01  0.51100000000E-03 0. -1.
        -12    1    3    3    0    0 -0.73003311090E+01  0.11232353982E+02  0.12181094223E+02  0.18106343274E+02  0.00000000000E+00 0.  1.
</event>
<event>
 7    1  0.2653124E-010  0.4778727E+02  0.7816164E-02  0.1312668E+00
        -11   -1    0    0    0    0  0.00000000000E+00  0.00000000000E+00  0.45593999997E+02  0.45594000000E+02  0.51100000000E-03 0. -1.
         11   -1    0    0    0    0 -0.00000000000E+00 -0.00000000000E+00 -0.45593999997E+02  0.45594000000E+02  0.51100000000E-03 0.  1.
    9900012    2    1    2    0    0 -0.23550552883E+01 -0.43118436349E+02 -0.43447893232E+01  0.47787273822E+02  0.20000012662E+02 0.  0.
         12    1    1    2    0    0  0.23550552883E+01  0.43118436349E+02  0.43447893232E+01  0.43400726178E+02  0.00000000000E+00 0. -1.
         11    1    3    3    0    0 -0.10087514447E+01 -0.19797411796E+00 -0.27499145286E+01  0.29357798631E+01  0.51100000000E-03 0. -1.
        -11    1    3    3    0    0 -0.34979886249E+01 -0.13128379336E+02 -0.56373188138E+01  0.14709508220E+02  0.51100000000E-03 0.  1.
         12    1    3    3    0    0  0.21516847813E+01 -0.29792082895E+02  0.40424440193E+01  0.30141985739E+02  0.00000000000E+00 0. -1.
</event>
<event>
 7    1  0.2653124E-010  0.4778727E+02  0.7816164E-02  0.1312668E+00
        -11   -1    0    0    0    0  0.00000000000E+00  0.00000000000E+00  0.45593999997E+02  0.45594000000E+02  0.51100000000E-03 0. -1.
         11   -1    0    0    0    0 -0.00000000000E+00 -0.00000000000E+00 -0.45593999997E+02  0.45594000000E+02  0.51100000000E-03 0.  1.
    9900012    2    1    2    0    0  0.11799030696E+02  0.22028799874E+02 -0.35484337733E+02  0.47787269895E+02  0.19999994761E+02 0.  0.
         12    1    1    2    0    0 -0.11799030696E+02 -0.22028799874E+02  0.35484337733E+02  0.43400730105E+02  0.00000000000E+00 0. -1.
         11    1    3    3    0    0  0.11088023264E+01 -0.28352390473E+01 -0.49801610993E+01  0.58369536482E+01  0.51100000000E-03 0.  1.
        -11    1    3    3    0    0  0.96027749889E+00  0.62789661455E+01 -0.22053966327E+01  0.67239365925E+01  0.51100000000E-03 0. -1.
         12    1    3    3    0    0  0.97299508710E+01  0.18585072776E+02 -0.28298780001E+02  0.35226379655E+02  0.00000000000E+00 0. -1.
</event>
<event>
 7    1  0.2653124E-010  0.4778730E+02  0.7816164E-02  0.1312668E+00
        -11   -1    0    0    0    0  0.00000000000E+00  0.00000000000E+00  0.45593999997E+02  0.45594000000E+02  0.51100000000E-03 0.  1.
         11   -1    0    0    0    0 -0.00000000000E+00 -0.00000000000E+00 -0.45593999997E+02  0.45594000000E+02  0.51100000000E-03 0. -1.
    9900012    2    1    2    0    0 -0.61313106936E+01  0.42495601873E+02  0.63365045323E+01  0.47787303703E+02  0.20000148904E+02 0.  0.
         12    1    1    2    0    0  0.61313106936E+01 -0.42495601873E+02 -0.63365045323E+01  0.43400696297E+02  0.00000000000E+00 0. -1.
         11    1    3    3    0    0  0.35613542516E+01  0.26459440082E+01 -0.34351030082E+00  0.44499734143E+01  0.51100000000E-03 0. -1.
        -11    1    3    3    0    0 -0.21463009217E+01  0.16523417482E+01 -0.20959958066E+01  0.34249145364E+01  0.51100000000E-03 0.  1.
        -12    1    3    3    0    0 -0.75463640234E+01  0.38197316116E+02  0.87760106397E+01  0.39912415753E+02  0.00000000000E+00 0.  1.
</event>
<event>
 7    1  0.2653124E-010  0.4778726E+02  0.7816164E-02  0.1312668E+00
        -11   -1    0    0    0    0  0.00000000000E+00  0.00000000000E+00  0.45593999997E+02  0.45594000000E+02  0.51100000000E-03 0.  1.
         11   -1    0    0    0    0 -0.00000000000E+00 -0.00000000000E+00 -0.45593999997E+02  0.45594000000E+02  0.51100000000E-03 0. -1.
    9900012    2    1    2    0    0  0.75286698164E+01  0.17877310037E+02  0.38824542896E+02  0.47787260208E+02  0.19999950594E+02 0.  0.
         12    1    1    2    0    0 -0.75286698164E+01 -0.17877310037E+02 -0.38824542896E+02  0.43400739792E+02  0.00000000000E+00 0. -1.
         11    1    3    3    0    0  0.64078995580E+00  0.49076548088E+01  0.12127104065E+02  0.13098180819E+02  0.51100000000E-03 0. -1.
        -11    1    3    3    0    0  0.80520236761E+00  0.12675238518E+02  0.25492557252E+02  0.28481230623E+02  0.51100000000E-03 0.  1.
         12    1    3    3    0    0  0.60826774930E+01  0.29441671070E+00  0.12048815788E+01  0.62078487660E+01  0.00000000000E+00 0. -1.
</event>
<event>
 7    1  0.2653124E-010  0.4778727E+02  0.7816164E-02  0.1312668E+00
        -11   -1    0    0    0    0  0.00000000000E+00  0.00000000000E+00  0.45593999997E+02  0.45594000000E+02  0.51100000000E-03 0.  1.
         11   -1    0    0    0    0 -0.00000000000E+00 -0.00000000000E+00 -0.45593999997E+02  0.45594000000E+02  0.51100000000E-03 0. -1.
    9900012    2    1    2    0    0  0.83201624183E+00  0.21047445361E+02  0.37946492588E+02  0.47787268360E+02  0.19999987758E+02 0.  0.
         12    1    1    2    0    0 -0.83201624183E+00 -0.21047445361E+02 -0.37946492588E+02  0.43400731640E+02  0.00000000000E+00 0. -1.
         11    1    3    3    0    0 -0.47955060573E+01  0.14608890532E+02  0.16624317771E+02  0.22644745583E+02  0.51100000000E-03 0. -1.
        -11    1    3    3    0    0 -0.47706090476E+00  0.42574118600E+01  0.16543012551E+02  0.17088721642E+02  0.51100000000E-03 0.  1.
         12    1    3    3    0    0  0.61045832039E+01  0.21811429690E+01  0.47791622654E+01  0.80538011338E+01  0.00000000000E+00 0. -1.
</event>
<event>
 7    1  0.2653124E-010  0.4778727E+02  0.7816164E-02  0.1312668E+00
        -11   -1    0    0    0    0  0.00000000000E+00  0.00000000000E+00  0.45593999997E+02  0.45594000000E+02  0.51100000000E-03 0. -1.
         11   -1    0    0    0    0 -0.00000000000E+00 -0.00000000000E+00 -0.45593999997E+02  0.45594000000E+02  0.51100000000E-03 0.  1.
    9900012    2    1    2    0    0  0.43022602611E+02 -0.54928983859E+01 -0.15832834378E+01  0.47787273571E+02  0.20000011520E+02 0.  0.
         12    1    1    2    0    0 -0.43022602611E+02  0.54928983859E+01  0.15832834378E+01  0.43400726429E+02  0.00000000000E+00 0. -1.
         11    1    3    3    0    0  0.12580826180E+01  0.28483041686E+01  0.17934527698E+00  0.31189378801E+01  0.51100000000E-03 0. -1.
        -11    1    3    3    0    0  0.25579067818E+02 -0.15341841123E+01  0.45179724950E+01  0.26020271080E+02  0.51100000000E-03 0.  1.
        -12    1    3    3    0    0  0.16185452175E+02 -0.68070184422E+01 -0.62806012098E+01  0.18648064611E+02  0.00000000000E+00 0.  1.
</event>
<event>
 7    1  0.2653124E-010  0.4778727E+02  0.7816164E-02  0.1312668E+00
        -11   -1    0    0    0    0  0.00000000000E+00  0.00000000000E+00  0.45593999997E+02  0.45594000000E+02  0.51100000000E-03 0. -1.
         11   -1    0    0    0    0 -0.00000000000E+00 -0.00000000000E+00 -0.45593999997E+02  0.45594000000E+02  0.51100000000E-03 0.  1.
    9900012    2    1    2    0    0 -0.10948468569E+02  0.35256272845E+02 -0.22819945011E+02  0.47787266950E+02  0.19999981334E+02 0.  0.
         12    1    1    2    0    0  0.10948468569E+02 -0.35256272845E+02  0.22819945011E+02  0.43400733050E+02  0.00000000000E+00 0. -1.
         11    1    3    3    0    0  0.17162477847E+01  0.18355492359E+01  0.31329503964E+00  0.25323707270E+01  0.51100000000E-03 0. -1.
        -11    1    3    3    0    0 -0.39889421300E+01  0.24953882343E+02 -0.21186754756E+02  0.32977059915E+02  0.51100000000E-03 0.  1.
        -12    1    3    3    0    0 -0.86757742235E+01  0.84668412664E+01 -0.19464852944E+01  0.12277836308E+02  0.00000000000E+00 0.  1.
</event>
<event>
 7    1  0.2653124E-010  0.4778727E+02  0.7816164E-02  0.1312668E+00
        -11   -1    0    0    0    0  0.00000000000E+00  0.00000000000E+00  0.45593999997E+02  0.45594000000E+02  0.51100000000E-03 0.  1.
         11   -1    0    0    0    0 -0.00000000000E+00 -0.00000000000E+00 -0.45593999997E+02  0.45594000000E+02  0.51100000000E-03 0. -1.
    9900012    2    1    2    0    0  0.56112173005E+01  0.30059337998E+02  0.30798922669E+02  0.47787271918E+02  0.20000003982E+02 0.  0.
         12    1    1    2    0    0 -0.56112173005E+01 -0.30059337998E+02 -0.30798922669E+02  0.43400728082E+02  0.00000000000E+00 0. -1.
         11    1    3    3    0    0  0.80397830160E+01  0.73118779034E+01  0.12199932642E+02  0.16338299365E+02  0.51100000000E-03 0. -1.
        -11    1    3    3    0    0  0.16496030804E+01  0.15567880768E+01  0.61068278600E+01  0.65144551739E+01  0.51100000000E-03 0.  1.
        -12    1    3    3    0    0 -0.40781687959E+01  0.21190672018E+02  0.12492162167E+02  0.24934517379E+02  0.00000000000E+00 0.  1.
</event>
<event>
 7    1  0.2653124E-010  0.4778727E+02  0.7816164E-02  0.1312668E+00
        -11   -1    0    0    0    0  0.00000000000E+00  0.00000000000E+00  0.45593999997E+02  0.45594000000E+02  0.51100000000E-03 0.  1.
         11   -1    0    0    0    0 -0.00000000000E+00 -0.00000000000E+00 -0.45593999997E+02  0.45594000000E+02  0.51100000000E-03 0. -1.
    9900012    2    1    2    0    0  0.26988008339E+02 -0.33944566034E+02  0.17426681861E+01  0.47787273627E+02  0.20000011774E+02 0.  0.
         12    1    1    2    0    0 -0.26988008339E+02  0.33944566034E+02 -0.17426681861E+01  0.43400726373E+02  0.00000000000E+00 0. -1.
         11    1    3    3    0    0  0.46164191953E+01 -0.27874256717E+01 -0.17971229737E+01  0.56842518686E+01  0.51100000000E-03 0. -1.
        -11    1    3    3    0    0  0.72588651163E+01 -0.11034936283E+02  0.94649405436E+01  0.16249493571E+02  0.51100000000E-03 0.  1.
         12    1    3    3    0    0  0.15112724027E+02 -0.20122204079E+02 -0.59251493838E+01  0.25853528187E+02  0.00000000000E+00 0. -1.
</event>
<event>
 7    1  0.2653124E-010  0.4778727E+02  0.7816164E-02  0.1312668E+00
        -11   -1    0    0    0    0  0.00000000000E+00  0.00000000000E+00  0.45593999997E+02  0.45594000000E+02  0.51100000000E-03 0. -1.
         11   -1    0    0    0    0 -0.00000000000E+00 -0.00000000000E+00 -0.45593999997E+02  0.45594000000E+02  0.51100000000E-03 0.  1.
    9900012    2    1    2    0    0 -0.32362820420E+01 -0.42316842161E+02 -0.90793592939E+01  0.47787269394E+02  0.19999992477E+02 0.  0.
         12    1    1    2    0    0  0.32362820420E+01  0.42316842161E+02  0.90793592939E+01  0.43400730606E+02  0.00000000000E+00 0. -1.
         11    1    3    3    0    0 -0.74502576450E+01 -0.41133948658E+02 -0.93698260483E+01  0.42840421469E+02  0.51100000000E-03 0.  1.
        -11    1    3    3    0    0  0.15294557182E+01 -0.11302397329E+01 -0.78105569072E+00  0.20559000221E+01  0.51100000000E-03 0. -1.
        -12    1    3    3    0    0  0.26845198848E+01 -0.52653769921E-01  0.10715224452E+01  0.28909479037E+01  0.00000000000E+00 0.  1.
</event>
<event>
 7    1  0.2653124E-010  0.4778727E+02  0.7816164E-02  0.1312668E+00
        -11   -1    0    0    0    0  0.00000000000E+00  0.00000000000E+00  0.45593999997E+02  0.45594000000E+02  0.51100000000E-03 0.  1.
         11   -1    0    0    0    0 -0.00000000000E+00 -0.00000000000E+00 -0.45593999997E+02  0.45594000000E+02  0.51100000000E-03 0. -1.
    9900012    2    1    2    0    0 -0.63137823921E+01  0.22840482559E+02  0.36360308473E+02  0.47787268164E+02  0.19999986868E+02 0.  0.
         12    1    1    2    0    0  0.63137823921E+01 -0.22840482559E+02 -0.36360308473E+02  0.43400731836E+02  0.00000000000E+00 0. -1.
         11    1    3    3    0    0  0.25033275516E+01  0.12472364488E+02  0.21208782963E+02  0.24731336393E+02  0.51100000000E-03 0. -1.
        -11    1    3    3    0    0 -0.64751497141E+01  0.66754816282E+01  0.16089381553E+02  0.18583805256E+02  0.51100000000E-03 0.  1.
         12    1    3    3    0    0 -0.23419602296E+01  0.36926364427E+01 -0.93785604213E+00  0.44721265155E+01  0.00000000000E+00 0. -1.
</event>
<event>
 7    1  0.2653124E-010  0.4778727E+02  0.7816164E-02  0.1312668E+00
        -11   -1    0    0    0    0  0.00000000000E+00  0.00000000000E+00  0.45593999997E+02  0.45594000000E+02  0.51100000000E-03 0.  1.
         11   -1    0    0    0    0 -0.00000000000E+00 -0.00000000000E+00 -0.45593999997E+02  0.45594000000E+02  0.51100000000E-03 0. -1.
    9900012    2    1    2    0    0 -0.79383196061E+01  0.64780604115E+01  0.42173939499E+02  0.47787270079E+02  0.19999995596E+02 0.  0.
         12    1    1    2    0    0  0.79383196061E+01 -0.64780604115E+01 -0.42173939499E+02  0.43400729921E+02  0.00000000000E+00 0. -1.
         11    1    3    3    0    0  0.24567404818E+01  0.14107433498E+01  0.44382647899E+01  0.52653551828E+01  0.51100000000E-03 0. -1.
        -11    1    3    3    0    0 -0.43605647226E+01 -0.37124431801E+01  0.26203061788E+02  0.26821580982E+02  0.51100000000E-03 0.  1.
        -12    1    3    3    0    0 -0.60344953653E+01  0.87797602418E+01  0.11532612921E+02  0.15700333914E+02  0.00000000000E+00 0.  1.
</event>
<event>
 7    1  0.2653124E-010  0.4778728E+02  0.7816164E-02  0.1312668E+00
        -11   -1    0    0    0    0  0.00000000000E+00  0.00000000000E+00  0.45593999997E+02  0.45594000000E+02  0.51100000000E-03 0. -1.
         11   -1    0    0    0    0 -0.00000000000E+00 -0.00000000000E+00 -0.45593999997E+02  0.45594000000E+02  0.51100000000E-03 0.  1.
    9900012    2    1    2    0    0 -0.22513944167E+02 -0.27054401152E+02 -0.25392997391E+02  0.47787278576E+02  0.20000034339E+02 0.  0.
         12    1    1    2    0    0  0.22513944167E+02  0.27054401152E+02  0.25392997391E+02  0.43400721424E+02  0.00000000000E+00 0. -1.
         11    1    3    3    0    0  0.23412929008E+01 -0.12086679654E+01 -0.29376512841E+01  0.39461786612E+01  0.51100000000E-03 0. -1.
        -11    1    3    3    0    0 -0.38471368776E+01 -0.37044582895E+01  0.89051990605E+00  0.54144712888E+01  0.51100000000E-03 0.  1.
        -12    1    3    3    0    0 -0.21008100190E+02 -0.22141274897E+02 -0.23345866013E+02  0.38426628626E+02  0.00000000000E+00 0.  1.
</event>
<event>
 7    1  0.2653124E-010  0.4778727E+02  0.7816164E-02  0.1312668E+00
        -11   -1    0    0    0    0  0.00000000000E+00  0.00000000000E+00  0.45593999997E+02  0.45594000000E+02  0.51100000000E-03 0.  1.
         11   -1    0    0    0    0 -0.00000000000E+00 -0.00000000000E+00 -0.45593999997E+02  0.45594000000E+02  0.51100000000E-03 0. -1.
    9900012    2    1    2    0    0  0.26190524521E+01 -0.37988422927E+01  0.43154753455E+02  0.47787269773E+02  0.19999994203E+02 0.  0.
         12    1    1    2    0    0 -0.26190524521E+01  0.37988422927E+01 -0.43154753455E+02  0.43400730227E+02  0.00000000000E+00 0. -1.
         11    1    3    3    0    0 -0.27088691859E+01 -0.13722312611E+01  0.21325406378E+01  0.37106226881E+01  0.51100000000E-03 0. -1.
        -11    1    3    3    0    0 -0.17589450258E+01  0.84498243273E+00  0.32350731876E+02  0.32409531562E+02  0.51100000000E-03 0.  1.
         12    1    3    3    0    0  0.70868666638E+01 -0.32715934643E+01  0.86714809408E+01  0.11667115522E+02  0.00000000000E+00 0. -1.
</event>
<event>
 7    1  0.2653124E-010  0.4778727E+02  0.7816164E-02  0.1312668E+00
        -11   -1    0    0    0    0  0.00000000000E+00  0.00000000000E+00  0.45593999997E+02  0.45594000000E+02  0.51100000000E-03 0.  1.
         11   -1    0    0    0    0 -0.00000000000E+00 -0.00000000000E+00 -0.45593999997E+02  0.45594000000E+02  0.51100000000E-03 0. -1.
    9900012    2    1    2    0    0 -0.15984373306E+02 -0.38724338956E+02  0.11337932355E+02  0.47787270425E+02  0.19999997175E+02 0.  0.
         12    1    1    2    0    0  0.15984373306E+02  0.38724338956E+02 -0.11337932355E+02  0.43400729575E+02  0.00000000000E+00 0. -1.
         11    1    3    3    0    0 -0.30698737311E+01 -0.17300204275E+02  0.78230364174E+01  0.19233332829E+02  0.51100000000E-03 0.  1.
        -11    1    3    3    0    0 -0.44174558960E+01 -0.28300143583E+00 -0.23705208631E+01  0.50212922469E+01  0.51100000000E-03 0. -1.
         12    1    3    3    0    0 -0.84970436785E+01 -0.21141133246E+02  0.58854168010E+01  0.23532645349E+02  0.00000000000E+00 0. -1.
</event>
<event>
 7    1  0.2653124E-010  0.4778727E+02  0.7816164E-02  0.1312668E+00
        -11   -1    0    0    0    0  0.00000000000E+00  0.00000000000E+00  0.45593999997E+02  0.45594000000E+02  0.51100000000E-03 0.  1.
         11   -1    0    0    0    0 -0.00000000000E+00 -0.00000000000E+00 -0.45593999997E+02  0.45594000000E+02  0.51100000000E-03 0. -1.
    9900012    2    1    2    0    0  0.40196331991E+02  0.13506341428E+02 -0.92442942956E+01  0.47787270267E+02  0.19999996456E+02 0.  0.
         12    1    1    2    0    0 -0.40196331991E+02 -0.13506341428E+02  0.92442942956E+01  0.43400729733E+02  0.00000000000E+00 0. -1.
         11    1    3    3    0    0  0.97637720998E+01  0.96024005450E+00 -0.33105685537E+01  0.10354379314E+02  0.51100000000E-03 0. -1.
        -11    1    3    3    0    0  0.30350136996E+02  0.14137634707E+02 -0.24129508711E+01  0.33568226986E+02  0.51100000000E-03 0.  1.
         12    1    3    3    0    0  0.82422895012E-01 -0.15915333333E+01 -0.35207748707E+01  0.38646639666E+01  0.00000000000E+00 0. -1.
</event>
<event>
 7    1  0.2653124E-010  0.4778727E+02  0.7816164E-02  0.1312668E+00
        -11   -1    0    0    0    0  0.00000000000E+00  0.00000000000E+00  0.45593999997E+02  0.45594000000E+02  0.51100000000E-03 0. -1.
         11   -1    0    0    0    0 -0.00000000000E+00 -0.00000000000E+00 -0.45593999997E+02  0.45594000000E+02  0.51100000000E-03 0.  1.
    9900012    2    1    2    0    0 -0.10816168762E+02  0.42001583844E+02  0.15813301602E+01  0.47787272389E+02  0.20000006132E+02 0.  0.
         12    1    1    2    0    0  0.10816168762E+02 -0.42001583844E+02 -0.15813301602E+01  0.43400727611E+02  0.00000000000E+00 0. -1.
         11    1    3    3    0    0 -0.16895548442E+01  0.16338948489E+02 -0.89835742961E-04  0.16426071763E+02  0.51100000000E-03 0.  1.
        -11    1    3    3    0    0 -0.20668453380E+01 -0.18775160134E+01  0.85886674299E+00  0.29213983596E+01  0.51100000000E-03 0. -1.
         12    1    3    3    0    0 -0.70597685797E+01  0.27540151368E+02  0.72255325292E+00  0.28439802267E+02  0.00000000000E+00 0. -1.
</event>
<event>
 7    1  0.2653124E-010  0.4778727E+02  0.7816164E-02  0.1312668E+00
        -11   -1    0    0    0    0  0.00000000000E+00  0.00000000000E+00  0.45593999997E+02  0.45594000000E+02  0.51100000000E-03 0.  1.
         11   -1    0    0    0    0 -0.00000000000E+00 -0.00000000000E+00 -0.45593999997E+02  0.45594000000E+02  0.51100000000E-03 0. -1.
    9900012    2    1    2    0    0 -0.11763513914E+02 -0.17370268795E+02  0.37993643565E+02  0.47787269027E+02  0.19999990803E+02 0.  0.
         12    1    1    2    0    0  0.11763513914E+02  0.17370268795E+02 -0.37993643565E+02  0.43400730973E+02  0.00000000000E+00 0. -1.
         11    1    3    3    0    0  0.14403624745E+01 -0.60812118408E+00  0.49737722666E+01  0.52137190424E+01  0.51100000000E-03 0. -1.
        -11    1    3    3    0    0 -0.59941843316E+01 -0.13097091384E+02  0.84332052317E+01  0.16690805830E+02  0.51100000000E-03 0.  1.
        -12    1    3    3    0    0 -0.72096920566E+01 -0.36650562274E+01  0.24586666067E+02  0.25882744155E+02  0.00000000000E+00 0.  1.
</event>
<event>
 7    1  0.2653124E-010  0.4778727E+02  0.7816164E-02  0.1312668E+00
        -11   -1    0    0    0    0  0.00000000000E+00  0.00000000000E+00  0.45593999997E+02  0.45594000000E+02  0.51100000000E-03 0. -1.
         11   -1    0    0    0    0 -0.00000000000E+00 -0.00000000000E+00 -0.45593999997E+02  0.45594000000E+02  0.51100000000E-03 0.  1.
    9900012    2    1    2    0    0  0.68938119416E+01  0.35898658875E+02 -0.23396259334E+02  0.47787270709E+02  0.19999998472E+02 0.  0.
         12    1    1    2    0    0 -0.68938119416E+01 -0.35898658875E+02  0.23396259334E+02  0.43400729291E+02  0.00000000000E+00 0. -1.
         11    1    3    3    0    0  0.30946141310E+01  0.15742818707E+02 -0.96473369504E+01  0.18721220258E+02  0.51100000000E-03 0. -1.
        -11    1    3    3    0    0  0.90538221758E+01  0.10492500200E+02 -0.41491549808E+01  0.14466504200E+02  0.51100000000E-03 0.  1.
         12    1    3    3    0    0 -0.52546243651E+01  0.96633399676E+01 -0.95997674031E+01  0.14599546251E+02  0.00000000000E+00 0. -1.
</event>
<event>
 7    1  0.2653124E-010  0.4778727E+02  0.7816164E-02  0.1312668E+00
        -11   -1    0    0    0    0  0.00000000000E+00  0.00000000000E+00  0.45593999997E+02  0.45594000000E+02  0.51100000000E-03 0. -1.
         11   -1    0    0    0    0 -0.00000000000E+00 -0.00000000000E+00 -0.45593999997E+02  0.45594000000E+02  0.51100000000E-03 0.  1.
    9900012    2    1    2    0    0 -0.25166900809E+02  0.23889806123E+02 -0.26067745604E+02  0.47787273119E+02  0.20000009459E+02 0.  0.
         12    1    1    2    0    0  0.25166900809E+02 -0.23889806123E+02  0.26067745604E+02  0.43400726881E+02  0.00000000000E+00 0. -1.
         11    1    3    3    0    0  0.94203356231E+00  0.60716624600E+00 -0.65777638797E+00  0.12995184187E+01  0.51100000000E-03 0. -1.
        -11    1    3    3    0    0 -0.23294314332E+02  0.25882362200E+02 -0.21075424107E+02  0.40702521479E+02  0.51100000000E-03 0.  1.
        -12    1    3    3    0    0 -0.28146200390E+01 -0.25997223226E+01 -0.43345451093E+01  0.57852332212E+01  0.00000000000E+00 0.  1.
</event>
<event>
 7    1  0.2653124E-010  0.4778727E+02  0.7816164E-02  0.1312668E+00
        -11   -1    0    0    0    0  0.00000000000E+00  0.00000000000E+00  0.45593999997E+02  0.45594000000E+02  0.51100000000E-03 0.  1.
         11   -1    0    0    0    0 -0.00000000000E+00 -0.00000000000E+00 -0.45593999997E+02  0.45594000000E+02  0.51100000000E-03 0. -1.
    9900012    2    1    2    0    0 -0.39315878263E+02  0.10736910784E+02  0.14919907103E+02  0.47787272302E+02  0.20000005735E+02 0.  0.
         12    1    1    2    0    0  0.39315878263E+02 -0.10736910784E+02 -0.14919907103E+02  0.43400727698E+02  0.00000000000E+00 0. -1.
         11    1    3    3    0    0 -0.58154177965E+01  0.25972135097E+01 -0.29249269012E+01  0.70085519047E+01  0.51100000000E-03 0. -1.
        -11    1    3    3    0    0 -0.18449937992E+02 -0.10955052515E+01  0.56782948357E+01  0.19335029769E+02  0.51100000000E-03 0.  1.
        -12    1    3    3    0    0 -0.15050522474E+02  0.92352025258E+01  0.12166539168E+02  0.21443690628E+02  0.00000000000E+00 0.  1.
</event>
<event>
 7    1  0.2653124E-010  0.4778729E+02  0.7816164E-02  0.1312668E+00
        -11   -1    0    0    0    0  0.00000000000E+00  0.00000000000E+00  0.45593999997E+02  0.45594000000E+02  0.51100000000E-03 0.  1.
         11   -1    0    0    0    0 -0.00000000000E+00 -0.00000000000E+00 -0.45593999997E+02  0.45594000000E+02  0.51100000000E-03 0. -1.
    9900012    2    1    2    0    0  0.27324672366E+02 -0.22748610979E+02  0.24889450689E+02  0.47787288289E+02  0.20000078626E+02 0.  0.
         12    1    1    2    0    0 -0.27324672366E+02  0.22748610979E+02 -0.24889450689E+02  0.43400711711E+02  0.00000000000E+00 0. -1.
         11    1    3    3    0    0  0.95667946653E+01 -0.66534409743E+01  0.28211715181E+01  0.11989614087E+02  0.51100000000E-03 0. -1.
        -11    1    3    3    0    0  0.81184711634E+01 -0.16446208682E+02  0.12391362771E+02  0.22134435291E+02  0.51100000000E-03 0.  1.
        -12    1    3    3    0    0  0.96394065374E+01  0.35103867699E+00  0.96769163996E+01  0.13663238911E+02  0.00000000000E+00 0.  1.
</event>
<event>
 7    1  0.2653124E-010  0.4778727E+02  0.7816164E-02  0.1312668E+00
        -11   -1    0    0    0    0  0.00000000000E+00  0.00000000000E+00  0.45593999997E+02  0.45594000000E+02  0.51100000000E-03 0. -1.
         11   -1    0    0    0    0 -0.00000000000E+00 -0.00000000000E+00 -0.45593999997E+02  0.45594000000E+02  0.51100000000E-03 0.  1.
    9900012    2    1    2    0    0  0.38578613592E+02 -0.67082453911E+01  0.18716667978E+02  0.47787266790E+02  0.19999980603E+02 0.  0.
         12    1    1    2    0    0 -0.38578613592E+02  0.67082453911E+01 -0.18716667978E+02  0.43400733210E+02  0.00000000000E+00 0. -1.
         11    1    3    3    0    0  0.24487075370E+01 -0.40793036142E+00 -0.80625728456E+00  0.26101009275E+01  0.51100000000E-03 0. -1.
        -11    1    3    3    0    0  0.30370287259E+02  0.21228280465E+01  0.15920956711E+02  0.34356041826E+02  0.51100000000E-03 0.  1.
        -12    1    3    3    0    0  0.57596187962E+01 -0.84231430762E+01  0.36019685518E+01  0.10821124036E+02  0.00000000000E+00 0.  1.
</event>
<event>
 7    1  0.2653124E-010  0.4778728E+02  0.7816164E-02  0.1312668E+00
        -11   -1    0    0    0    0  0.00000000000E+00  0.00000000000E+00  0.45593999997E+02  0.45594000000E+02  0.51100000000E-03 0. -1.
         11   -1    0    0    0    0 -0.00000000000E+00 -0.00000000000E+00 -0.45593999997E+02  0.45594000000E+02  0.51100000000E-03 0.  1.
    9900012    2    1    2    0    0 -0.22239973721E+02 -0.32411781432E+02 -0.18397898292E+02  0.47787278022E+02  0.20000031812E+02 0.  0.
         12    1    1    2    0    0  0.22239973721E+02  0.32411781432E+02  0.18397898292E+02  0.43400721978E+02  0.00000000000E+00 0. -1.
         11    1    3    3    0    0 -0.16841341923E+01 -0.39743100518E+01 -0.61356177926E+01  0.75018167348E+01  0.51100000000E-03 0. -1.
        -11    1    3    3    0    0 -0.11107418808E+02 -0.36793769336E+01 -0.20136969929E+01  0.11872975323E+02  0.51100000000E-03 0.  1.
         12    1    3    3    0    0 -0.94484207210E+01 -0.24758094446E+02 -0.10248583507E+02  0.28412485963E+02  0.00000000000E+00 0. -1.
</event>
<event>
 7    1  0.2916550E-010  0.4778726E+02  0.7816164E-02  0.1312668E+00
        -11   -1    0    0    0    0  0.00000000000E+00  0.00000000000E+00  0.45593999997E+02  0.45594000000E+02  0.51100000000E-03 0.  1.
         11   -1    0    0    0    0 -0.00000000000E+00 -0.00000000000E+00 -0.45593999997E+02  0.45594000000E+02  0.51100000000E-03 0. -1.
    9900012    2    1    2    0    0  0.92136528184E+01  0.31493352013E+02  0.28406011348E+02  0.47787261527E+02  0.19999956607E+02 0.  0.
         12    1    1    2    0    0 -0.92136528184E+01 -0.31493352013E+02 -0.28406011348E+02  0.43400738473E+02  0.00000000000E+00 0. -1.
         11    1    3    3    0    0  0.36275812988E+01  0.18172140974E+02  0.70148654471E+01  0.19813994831E+02  0.51100000000E-03 0. -1.
        -11    1    3    3    0    0  0.40521470235E+01  0.14631313747E+02  0.15289415740E+02  0.21546727626E+02  0.51100000000E-03 0.  1.
         12    1    3    3    0    0  0.15339244961E+01 -0.13101027079E+01  0.61017301606E+01  0.64265390700E+01  0.00000000000E+00 0. -1.
</event>
<event>
 7    1  0.2653124E-010  0.4778727E+02  0.7816164E-02  0.1312668E+00
        -11   -1    0    0    0    0  0.00000000000E+00  0.00000000000E+00  0.45593999997E+02  0.45594000000E+02  0.51100000000E-03 0.  1.
         11   -1    0    0    0    0 -0.00000000000E+00 -0.00000000000E+00 -0.45593999997E+02  0.45594000000E+02  0.51100000000E-03 0. -1.
    9900012    2    1    2    0    0  0.82152267177E+01  0.12432020090E+02  0.40762466188E+02  0.47787265868E+02  0.19999976397E+02 0.  0.
         12    1    1    2    0    0 -0.82152267177E+01 -0.12432020090E+02 -0.40762466188E+02  0.43400734132E+02  0.00000000000E+00 0. -1.
         11    1    3    3    0    0  0.30204532934E+01  0.38582188928E+01  0.34837097518E+01  0.60120899044E+01  0.51100000000E-03 0. -1.
        -11    1    3    3    0    0  0.95606712767E+01  0.36053334096E+01  0.31056670097E+02  0.32694366825E+02  0.51100000000E-03 0.  1.
        -12    1    3    3    0    0 -0.43658978524E+01  0.49684677873E+01  0.62220863384E+01  0.90808091387E+01  0.00000000000E+00 0.  1.
</event>
<event>
 7    1  0.2653124E-010  0.4778727E+02  0.7816164E-02  0.1312668E+00
        -11   -1    0    0    0    0  0.00000000000E+00  0.00000000000E+00  0.45593999997E+02  0.45594000000E+02  0.51100000000E-03 0.  1.
         11   -1    0    0    0    0 -0.00000000000E+00 -0.00000000000E+00 -0.45593999997E+02  0.45594000000E+02  0.51100000000E-03 0. -1.
    9900012    2    1    2    0    0  0.43712160624E+01 -0.42792052821E+02 -0.57754640940E+01  0.47787270743E+02  0.19999998625E+02 0.  0.
         12    1    1    2    0    0 -0.43712160624E+01  0.42792052821E+02  0.57754640940E+01  0.43400729257E+02  0.00000000000E+00 0. -1.
         11    1    3    3    0    0  0.35765504735E+01 -0.16272368886E+02 -0.18023732022E+01  0.16757990688E+02  0.51100000000E-03 0. -1.
        -11    1    3    3    0    0  0.58600425351E+01 -0.29512888199E+01 -0.19149400031E+01  0.68349981484E+01  0.51100000000E-03 0.  1.
         12    1    3    3    0    0 -0.50653769462E+01 -0.23568395115E+02 -0.20581508888E+01  0.24194281907E+02  0.00000000000E+00 0. -1.
</event>
<event>
 7    1  0.2653124E-010  0.4778727E+02  0.7816164E-02  0.1312668E+00
        -11   -1    0    0    0    0  0.00000000000E+00  0.00000000000E+00  0.45593999997E+02  0.45594000000E+02  0.51100000000E-03 0. -1.
         11   -1    0    0    0    0 -0.00000000000E+00 -0.00000000000E+00 -0.45593999997E+02  0.45594000000E+02  0.51100000000E-03 0.  1.
    9900012    2    1    2    0    0 -0.33568093001E+02  0.69602237003E+01 -0.26615062669E+02  0.47787272557E+02  0.20000006896E+02 0.  0.
         12    1    1    2    0    0  0.33568093001E+02 -0.69602237003E+01  0.26615062669E+02  0.43400727443E+02  0.00000000000E+00 0. -1.
         11    1    3    3    0    0  0.54239791981E+00  0.12851530840E+01 -0.83683671417E+00  0.16266867861E+01  0.51100000000E-03 0. -1.
        -11    1    3    3    0    0 -0.24000301783E+02 -0.27305401123E+01 -0.21489967545E+02  0.32330930087E+02  0.51100000000E-03 0.  1.
        -12    1    3    3    0    0 -0.10110189138E+02  0.84056107286E+01 -0.42882584100E+01  0.13829655683E+02  0.00000000000E+00 0.  1.
</event>
<event>
 7    1  0.2653124E-010  0.4778728E+02  0.7816164E-02  0.1312668E+00
        -11   -1    0    0    0    0  0.00000000000E+00  0.00000000000E+00  0.45593999997E+02  0.45594000000E+02  0.51100000000E-03 0.  1.
         11   -1    0    0    0    0 -0.00000000000E+00 -0.00000000000E+00 -0.45593999997E+02  0.45594000000E+02  0.51100000000E-03 0. -1.
    9900012    2    1    2    0    0 -0.32105037474E+02  0.23044605885E+02  0.17939777549E+02  0.47787275236E+02  0.20000019109E+02 0.  0.
         12    1    1    2    0    0  0.32105037474E+02 -0.23044605885E+02 -0.17939777549E+02  0.43400724764E+02  0.00000000000E+00 0. -1.
         11    1    3    3    0    0 -0.14920598424E+02  0.57020571933E+01 -0.22848299284E+00  0.15974664889E+02  0.51100000000E-03 0. -1.
        -11    1    3    3    0    0 -0.90222138396E+01  0.78352614519E+01  0.33572852017E+01  0.12412212888E+02  0.51100000000E-03 0.  1.
        -12    1    3    3    0    0 -0.81622252100E+01  0.95072872397E+01  0.14810975340E+02  0.19400397459E+02  0.00000000000E+00 0.  1.
</event>
<event>
 7    1  0.2653124E-010  0.4778727E+02  0.7816164E-02  0.1312668E+00
        -11   -1    0    0    0    0  0.00000000000E+00  0.00000000000E+00  0.45593999997E+02  0.45594000000E+02  0.51100000000E-03 0. -1.
         11   -1    0    0    0    0 -0.00000000000E+00 -0.00000000000E+00 -0.45593999997E+02  0.45594000000E+02  0.51100000000E-03 0.  1.
    9900012    2    1    2    0    0 -0.26456231140E+02  0.21299381174E+02 -0.27019014845E+02  0.47787274571E+02  0.20000016080E+02 0.  0.
         12    1    1    2    0    0  0.26456231140E+02 -0.21299381174E+02  0.27019014845E+02  0.43400725429E+02  0.00000000000E+00 0. -1.
         11    1    3    3    0    0 -0.20208871644E+01  0.15295010056E+01  0.86485423142E+00  0.26779341590E+01  0.51100000000E-03 0. -1.
        -11    1    3    3    0    0 -0.10553036761E+02  0.24672809295E+01 -0.17574628122E+02  0.20647557095E+02  0.51100000000E-03 0.  1.
         12    1    3    3    0    0 -0.13882307214E+02  0.17302599239E+02 -0.10309240954E+02  0.24461783318E+02  0.00000000000E+00 0. -1.
</event>
<event>
 7    1  0.2653124E-010  0.4778727E+02  0.7816164E-02  0.1312668E+00
        -11   -1    0    0    0    0  0.00000000000E+00  0.00000000000E+00  0.45593999997E+02  0.45594000000E+02  0.51100000000E-03 0.  1.
         11   -1    0    0    0    0 -0.00000000000E+00 -0.00000000000E+00 -0.45593999997E+02  0.45594000000E+02  0.51100000000E-03 0. -1.
    9900012    2    1    2    0    0 -0.21038267028E+02  0.11360686017E+02  0.36220842409E+02  0.47787270846E+02  0.19999999094E+02 0.  0.
         12    1    1    2    0    0  0.21038267028E+02 -0.11360686017E+02 -0.36220842409E+02  0.43400729154E+02  0.00000000000E+00 0. -1.
         11    1    3    3    0    0  0.31466318651E+00 -0.35875818711E+00 -0.16424911984E+00  0.50467652239E+00  0.51100000000E-03 0. -1.
        -11    1    3    3    0    0 -0.36389282877E+01  0.10784234928E+02  0.20611321761E+02  0.23545022979E+02  0.51100000000E-03 0.  1.
        -12    1    3    3    0    0 -0.17714001927E+02  0.93520927533E+00  0.15773769768E+02  0.23737571344E+02  0.00000000000E+00 0.  1.
</event>
<event>
 7    1  0.2653124E-010  0.4778727E+02  0.7816164E-02  0.1312668E+00
        -11   -1    0    0    0    0  0.00000000000E+00  0.00000000000E+00  0.45593999997E+02  0.45594000000E+02  0.51100000000E-03 0. -1.
         11   -1    0    0    0    0 -0.00000000000E+00 -0.00000000000E+00 -0.45593999997E+02  0.45594000000E+02  0.51100000000E-03 0.  1.
    9900012    2    1    2    0    0  0.42514211415E+02 -0.11488649582E+01 -0.86513041627E+01  0.47787272740E+02  0.20000007731E+02 0.  0.
         12    1    1    2    0    0 -0.42514211415E+02  0.11488649582E+01  0.86513041627E+01  0.43400727260E+02  0.00000000000E+00 0. -1.
         11    1    3    3    0    0  0.25480862489E+01 -0.24938584416E+01 -0.20052382731E+01  0.40906056094E+01  0.51100000000E-03 0. -1.
        -11    1    3    3    0    0  0.45525526590E+01 -0.32713285301E+01 -0.56651383035E+01  0.79700136966E+01  0.51100000000E-03 0.  1.
        -12    1    3    3    0    0  0.35413572507E+02  0.46163220134E+01 -0.98092758614E+00  0.35726653434E+02  0.00000000000E+00 0.  1.
</event>
<event>
 7    1  0.2653124E-010  0.4778728E+02  0.7816164E-02  0.1312668E+00
        -11   -1    0    0    0    0  0.00000000000E+00  0.00000000000E+00  0.45593999997E+02  0.45594000000E+02  0.51100000000E-03 0.  1.
         11   -1    0    0    0    0 -0.00000000000E+00 -0.00000000000E+00 -0.45593999997E+02  0.45594000000E+02  0.51100000000E-03 0. -1.
    9900012    2    1    2    0    0  0.25931146647E+02 -0.71449435019E+01  0.34060942187E+02  0.47787281495E+02  0.20000047649E+02 0.  0.
         12    1    1    2    0    0 -0.25931146647E+02  0.71449435019E+01 -0.34060942187E+02  0.43400718505E+02  0.00000000000E+00 0. -1.
         11    1    3    3    0    0 -0.25404780079E+01  0.20331343408E+01  0.34149610650E+01  0.47169506138E+01  0.51100000000E-03 0. -1.
        -11    1    3    3    0    0  0.18796777871E+01 -0.16500887608E+01  0.37391622284E+01  0.44985904385E+01  0.51100000000E-03 0.  1.
         12    1    3    3    0    0  0.26591946867E+02 -0.75279890819E+01  0.26906818894E+02  0.38571740443E+02  0.00000000000E+00 0. -1.
</event>
<event>
 7    1  0.2653124E-010  0.4778727E+02  0.7816164E-02  0.1312668E+00
        -11   -1    0    0    0    0  0.00000000000E+00  0.00000000000E+00  0.45593999997E+02  0.45594000000E+02  0.51100000000E-03 0. -1.
         11   -1    0    0    0    0 -0.00000000000E+00 -0.00000000000E+00 -0.45593999997E+02  0.45594000000E+02  0.51100000000E-03 0.  1.
    9900012    2    1    2    0    0 -0.36873944798E+02 -0.10835354562E+02  0.20162599466E+02  0.47787272694E+02  0.20000007520E+02 0.  0.
         12    1    1    2    0    0  0.36873944798E+02  0.10835354562E+02 -0.20162599466E+02  0.43400727306E+02  0.00000000000E+00 0. -1.
         11    1    3    3    0    0 -0.11902205637E+02  0.23863512560E+00  0.87050226051E+01  0.14747774902E+02  0.51100000000E-03 0. -1.
        -11    1    3    3    0    0 -0.78107621905E+01 -0.95168770551E+00  0.10462070736E+02  0.13090784538E+02  0.51100000000E-03 0.  1.
        -12    1    3    3    0    0 -0.17160976971E+02 -0.10122301982E+02  0.99550612534E+00  0.19948713253E+02  0.00000000000E+00 0.  1.
</event>
<event>
 7    1  0.2653124E-010  0.4778731E+02  0.7816164E-02  0.1312668E+00
        -11   -1    0    0    0    0  0.00000000000E+00  0.00000000000E+00  0.45593999997E+02  0.45594000000E+02  0.51100000000E-03 0.  1.
         11   -1    0    0    0    0 -0.00000000000E+00 -0.00000000000E+00 -0.45593999997E+02  0.45594000000E+02  0.51100000000E-03 0. -1.
    9900012    2    1    2    0    0  0.34407667142E+02  0.23159342164E+02  0.12781912831E+02  0.47787308954E+02  0.20000172845E+02 0.  0.
         12    1    1    2    0    0 -0.34407667142E+02 -0.23159342164E+02 -0.12781912831E+02  0.43400691046E+02  0.00000000000E+00 0. -1.
         11    1    3    3    0    0  0.44130963573E+01  0.38904409725E+01  0.44043331991E+01  0.73490884883E+01  0.51100000000E-03 0. -1.
        -11    1    3    3    0    0  0.16962024348E+02  0.15074070410E+02  0.12796621178E+02  0.26051705943E+02  0.51100000000E-03 0.  1.
         12    1    3    3    0    0  0.13032546438E+02  0.41948307814E+01 -0.44190415463E+01  0.14386514523E+02  0.00000000000E+00 0. -1.
</event>
<event>
 7    1  0.2653124E-010  0.4778726E+02  0.7816164E-02  0.1312668E+00
        -11   -1    0    0    0    0  0.00000000000E+00  0.00000000000E+00  0.45593999997E+02  0.45594000000E+02  0.51100000000E-03 0. -1.
         11   -1    0    0    0    0 -0.00000000000E+00 -0.00000000000E+00 -0.45593999997E+02  0.45594000000E+02  0.51100000000E-03 0.  1.
    9900012    2    1    2    0    0  0.25609363000E+02  0.31197524986E+02 -0.15953020599E+02  0.47787263777E+02  0.19999966863E+02 0.  0.
         12    1    1    2    0    0 -0.25609363000E+02 -0.31197524986E+02  0.15953020599E+02  0.43400736223E+02  0.00000000000E+00 0. -1.
         11    1    3    3    0    0  0.16180269212E+01 -0.91253746736E+00  0.10910076506E+01  0.21543058515E+01  0.51100000000E-03 0. -1.
        -11    1    3    3    0    0  0.90355149715E+01  0.10404762339E+02 -0.13039007574E+02  0.18971434551E+02  0.51100000000E-03 0.  1.
        -12    1    3    3    0    0  0.14955821108E+02  0.21705300114E+02 -0.40050206753E+01  0.26661523375E+02  0.00000000000E+00 0.  1.
</event>
<event>
 7    1  0.2653124E-010  0.4778721E+02  0.7816164E-02  0.1312668E+00
        -11   -1    0    0    0    0  0.00000000000E+00  0.00000000000E+00  0.45593999997E+02  0.45594000000E+02  0.51100000000E-03 0.  1.
         11   -1    0    0    0    0 -0.00000000000E+00 -0.00000000000E+00 -0.45593999997E+02  0.45594000000E+02  0.51100000000E-03 0. -1.
    9900012    2    1    2    0    0 -0.41974607019E+01 -0.35583284945E+02  0.24491629307E+02  0.47787207957E+02  0.19999712359E+02 0.  0.
         12    1    1    2    0    0  0.41974607019E+01  0.35583284945E+02 -0.24491629307E+02  0.43400792043E+02  0.00000000000E+00 0. -1.
         11    1    3    3    0    0 -0.31497762688E+01 -0.24446656775E+02  0.70660404616E+01  0.25641549214E+02  0.51100000000E-03 0. -1.
        -11    1    3    3    0    0 -0.19654042803E+01 -0.10607905668E+02  0.10213379600E+02  0.14856096383E+02  0.51100000000E-03 0.  1.
         12    1    3    3    0    0  0.91771984716E+00 -0.52872250198E+00  0.72122092451E+01  0.72895623598E+01  0.00000000000E+00 0. -1.
</event>
<event>
 7    1  0.2653124E-010  0.4778727E+02  0.7816164E-02  0.1312668E+00
        -11   -1    0    0    0    0  0.00000000000E+00  0.00000000000E+00  0.45593999997E+02  0.45594000000E+02  0.51100000000E-03 0.  1.
         11   -1    0    0    0    0 -0.00000000000E+00 -0.00000000000E+00 -0.45593999997E+02  0.45594000000E+02  0.51100000000E-03 0. -1.
    9900012    2    1    2    0    0  0.49572633565E+01  0.14657602966E+02  0.40548780249E+02  0.47787270002E+02  0.19999995247E+02 0.  0.
         12    1    1    2    0    0 -0.49572633565E+01 -0.14657602966E+02 -0.40548780249E+02  0.43400729998E+02  0.00000000000E+00 0. -1.
         11    1    3    3    0    0 -0.46700758952E+01  0.21301395162E+01  0.70200629136E+01  0.86964582905E+01  0.51100000000E-03 0. -1.
        -11    1    3    3    0    0  0.13747162732E+01  0.51870274522E+01  0.23719533546E+02  0.24318950851E+02  0.51100000000E-03 0.  1.
         12    1    3    3    0    0  0.82526229785E+01  0.73404359976E+01  0.98091837895E+01  0.14771860860E+02  0.00000000000E+00 0. -1.
</event>
<event>
 7    1  0.2653124E-010  0.4778727E+02  0.7816164E-02  0.1312668E+00
        -11   -1    0    0    0    0  0.00000000000E+00  0.00000000000E+00  0.45593999997E+02  0.45594000000E+02  0.51100000000E-03 0.  1.
         11   -1    0    0    0    0 -0.00000000000E+00 -0.00000000000E+00 -0.45593999997E+02  0.45594000000E+02  0.51100000000E-03 0. -1.
    9900012    2    1    2    0    0  0.12607377434E+02  0.28049171954E+02  0.30625501463E+02  0.47787270134E+02  0.19999995847E+02 0.  0.
         12    1    1    2    0    0 -0.12607377434E+02 -0.28049171954E+02 -0.30625501463E+02  0.43400729866E+02  0.00000000000E+00 0. -1.
         11    1    3    3    0    0 -0.40435332187E+00  0.27143303945E+01  0.26764485903E+01  0.38333364602E+01  0.51100000000E-03 0. -1.
        -11    1    3    3    0    0 -0.10481619818E+00  0.18318454580E+02  0.10853122458E+02  0.21292417242E+02  0.51100000000E-03 0.  1.
         12    1    3    3    0    0  0.13116546954E+02  0.70163869794E+01  0.17095930414E+02  0.22661516431E+02  0.00000000000E+00 0. -1.
</event>
<event>
 7    1  0.2653124E-010  0.4778727E+02  0.7816164E-02  0.1312668E+00
        -11   -1    0    0    0    0  0.00000000000E+00  0.00000000000E+00  0.45593999997E+02  0.45594000000E+02  0.51100000000E-03 0. -1.
         11   -1    0    0    0    0 -0.00000000000E+00 -0.00000000000E+00 -0.45593999997E+02  0.45594000000E+02  0.51100000000E-03 0.  1.
    9900012    2    1    2    0    0 -0.19942021813E+02  0.31295677398E+02 -0.22505991260E+02  0.47787270739E+02  0.19999998608E+02 0.  0.
         12    1    1    2    0    0  0.19942021813E+02 -0.31295677398E+02  0.22505991260E+02  0.43400729261E+02  0.00000000000E+00 0. -1.
         11    1    3    3    0    0 -0.73803846994E+01  0.16638595522E+02 -0.12342409935E+02  0.21991999057E+02  0.51100000000E-03 0. -1.
        -11    1    3    3    0    0 -0.78397492582E+01  0.16751066446E+02 -0.72520552946E+01  0.19865855174E+02  0.51100000000E-03 0.  1.
         12    1    3    3    0    0 -0.47218878554E+01 -0.20939845709E+01 -0.29115260312E+01  0.59294165086E+01  0.00000000000E+00 0. -1.
</event>
<event>
 7    1  0.2653124E-010  0.4778727E+02  0.7816164E-02  0.1312668E+00
        -11   -1    0    0    0    0  0.00000000000E+00  0.00000000000E+00  0.45593999997E+02  0.45594000000E+02  0.51100000000E-03 0.  1.
         11   -1    0    0    0    0 -0.00000000000E+00 -0.00000000000E+00 -0.45593999997E+02  0.45594000000E+02  0.51100000000E-03 0. -1.
    9900012    2    1    2    0    0  0.16354361817E+02  0.40200494116E+02 -0.28016133698E+00  0.47787269960E+02  0.19999995057E+02 0.  0.
         12    1    1    2    0    0 -0.16354361817E+02 -0.40200494116E+02  0.28016133698E+00  0.43400730040E+02  0.00000000000E+00 0. -1.
         11    1    3    3    0    0  0.68713677490E+01  0.12447163445E+02  0.91773059441E+00  0.14247448974E+02  0.51100000000E-03 0. -1.
        -11    1    3    3    0    0 -0.24753241505E-01  0.11565151126E+02  0.64798575882E+01  0.13256767627E+02  0.51100000000E-03 0.  1.
         12    1    3    3    0    0  0.95077473098E+01  0.16188179545E+02 -0.76777495196E+01  0.20283053359E+02  0.00000000000E+00 0. -1.
</event>
<event>
 7    1  0.2653124E-010  0.4778727E+02  0.7816164E-02  0.1312668E+00
        -11   -1    0    0    0    0  0.00000000000E+00  0.00000000000E+00  0.45593999997E+02  0.45594000000E+02  0.51100000000E-03 0. -1.
         11   -1    0    0    0    0 -0.00000000000E+00 -0.00000000000E+00 -0.45593999997E+02  0.45594000000E+02  0.51100000000E-03 0.  1.
    9900012    2    1    2    0    0  0.13734333849E+02 -0.19330449247E+02 -0.36350038903E+02  0.47787268179E+02  0.19999986934E+02 0.  0.
         12    1    1    2    0    0 -0.13734333849E+02  0.19330449247E+02  0.36350038903E+02  0.43400731821E+02  0.00000000000E+00 0. -1.
         11    1    3    3    0    0  0.10124204500E+02 -0.45738220961E+01 -0.12743547104E+02  0.16906133750E+02  0.51100000000E-03 0. -1.
        -11    1    3    3    0    0  0.62435412090E+01 -0.10406763137E+02 -0.81728309327E+01  0.14631394039E+02  0.51100000000E-03 0.  1.
        -12    1    3    3    0    0 -0.26334118601E+01 -0.43498640132E+01 -0.15433660867E+02  0.16249740389E+02  0.00000000000E+00 0.  1.
</event>
<event>
 7    1  0.2653124E-010  0.4778727E+02  0.7816164E-02  0.1312668E+00
        -11   -1    0    0    0    0  0.00000000000E+00  0.00000000000E+00  0.45593999997E+02  0.45594000000E+02  0.51100000000E-03 0.  1.
         11   -1    0    0    0    0 -0.00000000000E+00 -0.00000000000E+00 -0.45593999997E+02  0.45594000000E+02  0.51100000000E-03 0. -1.
    9900012    2    1    2    0    0  0.25376417940E+02 -0.16527658584E+02  0.31088536183E+02  0.47787272267E+02  0.20000005572E+02 0.  0.
         12    1    1    2    0    0 -0.25376417940E+02  0.16527658584E+02 -0.31088536183E+02  0.43400727733E+02  0.00000000000E+00 0. -1.
         11    1    3    3    0    0  0.82552634579E+01 -0.40364887293E+01  0.53609402997E+01  0.10638716895E+02  0.51100000000E-03 0. -1.
        -11    1    3    3    0    0  0.17285256817E+02 -0.59994211607E+01  0.24437053785E+02  0.30527737476E+02  0.51100000000E-03 0.  1.
         12    1    3    3    0    0 -0.16410233414E+00 -0.64917486945E+01  0.12905420990E+01  0.66208178950E+01  0.00000000000E+00 0. -1.
</event>
<event>
 7    1  0.2653124E-010  0.4778727E+02  0.7816164E-02  0.1312668E+00
        -11   -1    0    0    0    0  0.00000000000E+00  0.00000000000E+00  0.45593999997E+02  0.45594000000E+02  0.51100000000E-03 0.  1.
         11   -1    0    0    0    0 -0.00000000000E+00 -0.00000000000E+00 -0.45593999997E+02  0.45594000000E+02  0.51100000000E-03 0. -1.
    9900012    2    1    2    0    0  0.13316276027E+02  0.36933881766E+01  0.41141936633E+02  0.47787271050E+02  0.20000000027E+02 0.  0.
         12    1    1    2    0    0 -0.13316276027E+02 -0.36933881766E+01 -0.41141936633E+02  0.43400728950E+02  0.00000000000E+00 0. -1.
         11    1    3    3    0    0  0.11704386162E+02  0.36771267646E+01  0.20777082441E+02  0.24128843149E+02  0.51100000000E-03 0. -1.
        -11    1    3    3    0    0 -0.26912908122E+00  0.52994138110E+01  0.14946464931E+02  0.15860423431E+02  0.51100000000E-03 0.  1.
         12    1    3    3    0    0  0.18810189471E+01 -0.52831523990E+01  0.54183892608E+01  0.77980044712E+01  0.00000000000E+00 0. -1.
</event>
<event>
 7    1  0.2653124E-010  0.4778727E+02  0.7816164E-02  0.1312668E+00
        -11   -1    0    0    0    0  0.00000000000E+00  0.00000000000E+00  0.45593999997E+02  0.45594000000E+02  0.51100000000E-03 0.  1.
         11   -1    0    0    0    0 -0.00000000000E+00 -0.00000000000E+00 -0.45593999997E+02  0.45594000000E+02  0.51100000000E-03 0. -1.
    9900012    2    1    2    0    0 -0.38367694938E+02 -0.16939147022E+02  0.11162808051E+02  0.47787274197E+02  0.20000014372E+02 0.  0.
         12    1    1    2    0    0  0.38367694938E+02  0.16939147022E+02 -0.11162808051E+02  0.43400725803E+02  0.00000000000E+00 0. -1.
         11    1    3    3    0    0 -0.16784212913E+02 -0.12873964039E+02  0.13045505040E+01  0.21193173558E+02  0.51100000000E-03 0. -1.
        -11    1    3    3    0    0 -0.14739679706E+02 -0.26622832705E+01  0.59263871858E+00  0.14989900965E+02  0.51100000000E-03 0.  1.
         12    1    3    3    0    0 -0.68438023193E+01 -0.14028997129E+01  0.92656188281E+01  0.11604199673E+02  0.00000000000E+00 0. -1.
</event>
<event>
 7    1  0.2653124E-010  0.4778727E+02  0.7816164E-02  0.1312668E+00
        -11   -1    0    0    0    0  0.00000000000E+00  0.00000000000E+00  0.45593999997E+02  0.45594000000E+02  0.51100000000E-03 0. -1.
         11   -1    0    0    0    0 -0.00000000000E+00 -0.00000000000E+00 -0.45593999997E+02  0.45594000000E+02  0.51100000000E-03 0.  1.
    9900012    2    1    2    0    0  0.42574319816E+02  0.82948813687E+01  0.14985579413E+01  0.47787269123E+02  0.19999991240E+02 0.  0.
         12    1    1    2    0    0 -0.42574319816E+02 -0.82948813687E+01 -0.14985579413E+01  0.43400730877E+02  0.00000000000E+00 0. -1.
         11    1    3    3    0    0  0.16334989018E+02  0.31542483892E+01  0.43419727096E+01  0.17194006991E+02  0.51100000000E-03 0. -1.
        -11    1    3    3    0    0  0.16848908139E+02  0.42668762981E+01 -0.87563912600E+01  0.19461919920E+02  0.51100000000E-03 0.  1.
        -12    1    3    3    0    0  0.93904226588E+01  0.87375668140E+00  0.59129764917E+01  0.11131342212E+02  0.00000000000E+00 0.  1.
</event>
<event>
 7    1  0.2653124E-010  0.4778727E+02  0.7816164E-02  0.1312668E+00
        -11   -1    0    0    0    0  0.00000000000E+00  0.00000000000E+00  0.45593999997E+02  0.45594000000E+02  0.51100000000E-03 0. -1.
         11   -1    0    0    0    0 -0.00000000000E+00 -0.00000000000E+00 -0.45593999997E+02  0.45594000000E+02  0.51100000000E-03 0.  1.
    9900012    2    1    2    0    0  0.17063292552E+01 -0.40431526688E+02 -0.15684492932E+02  0.47787271569E+02  0.20000002390E+02 0.  0.
         12    1    1    2    0    0 -0.17063292552E+01  0.40431526688E+02  0.15684492932E+02  0.43400728431E+02  0.00000000000E+00 0. -1.
         11    1    3    3    0    0 -0.42338250596E+01 -0.16016246855E+02 -0.36030861757E+01  0.16953691876E+02  0.51100000000E-03 0. -1.
        -11    1    3    3    0    0 -0.33641537277E+01 -0.13767720050E+02 -0.70096949649E+01  0.15811498014E+02  0.51100000000E-03 0.  1.
         12    1    3    3    0    0  0.93043080425E+01 -0.10647559782E+02 -0.50717117913E+01  0.15022081679E+02  0.00000000000E+00 0. -1.
</event>
<event>
 7    1  0.2653124E-010  0.4778727E+02  0.7816164E-02  0.1312668E+00
        -11   -1    0    0    0    0  0.00000000000E+00  0.00000000000E+00  0.45593999997E+02  0.45594000000E+02  0.51100000000E-03 0. -1.
         11   -1    0    0    0    0 -0.00000000000E+00 -0.00000000000E+00 -0.45593999997E+02  0.45594000000E+02  0.51100000000E-03 0.  1.
    9900012    2    1    2    0    0  0.20180957589E+02  0.13739719057E+02 -0.35882763868E+02  0.47787266460E+02  0.19999979098E+02 0.  0.
         12    1    1    2    0    0 -0.20180957589E+02 -0.13739719057E+02  0.35882763868E+02  0.43400733540E+02  0.00000000000E+00 0. -1.
         11    1    3    3    0    0  0.11119838204E+02  0.62348975309E+01 -0.50866508109E+01  0.13725842985E+02  0.51100000000E-03 0. -1.
        -11    1    3    3    0    0  0.20560180964E+01  0.64618900626E+01 -0.99163441374E+01  0.12013205855E+02  0.51100000000E-03 0.  1.
         12    1    3    3    0    0  0.70051012883E+01  0.10429314638E+01 -0.20879768920E+02  0.22048217621E+02  0.00000000000E+00 0. -1.
</event>
<event>
 7    1  0.2653124E-010  0.4778727E+02  0.7816164E-02  0.1312668E+00
        -11   -1    0    0    0    0  0.00000000000E+00  0.00000000000E+00  0.45593999997E+02  0.45594000000E+02  0.51100000000E-03 0.  1.
         11   -1    0    0    0    0 -0.00000000000E+00 -0.00000000000E+00 -0.45593999997E+02  0.45594000000E+02  0.51100000000E-03 0. -1.
    9900012    2    1    2    0    0 -0.16751808064E+02  0.30100617867E+02  0.26399869993E+02  0.47787269534E+02  0.19999993112E+02 0.  0.
         12    1    1    2    0    0  0.16751808064E+02 -0.30100617867E+02 -0.26399869993E+02  0.43400730466E+02  0.00000000000E+00 0. -1.
         11    1    3    3    0    0 -0.28559478282E+01  0.12405569412E+02  0.75446857613E+01  0.14797867209E+02  0.51100000000E-03 0. -1.
        -11    1    3    3    0    0 -0.97704827752E+01  0.18839030547E+02  0.19299664030E+02  0.28685334887E+02  0.51100000000E-03 0.  1.
         12    1    3    3    0    0 -0.41253774608E+01 -0.11439820920E+01 -0.44447979901E+00  0.43040674382E+01  0.00000000000E+00 0. -1.
</event>
<event>
 7    1  0.2653124E-010  0.4778727E+02  0.7816164E-02  0.1312668E+00
        -11   -1    0    0    0    0  0.00000000000E+00  0.00000000000E+00  0.45593999997E+02  0.45594000000E+02  0.51100000000E-03 0.  1.
         11   -1    0    0    0    0 -0.00000000000E+00 -0.00000000000E+00 -0.45593999997E+02  0.45594000000E+02  0.51100000000E-03 0. -1.
    9900012    2    1    2    0    0 -0.15389737842E+02  0.23718916129E+02  0.32927075832E+02  0.47787270328E+02  0.19999996735E+02 0.  0.
         12    1    1    2    0    0  0.15389737842E+02 -0.23718916129E+02 -0.32927075832E+02  0.43400729672E+02  0.00000000000E+00 0. -1.
         11    1    3    3    0    0 -0.62862534623E+01  0.45955964709E+01  0.10624328150E+02  0.13172427203E+02  0.51100000000E-03 0.  1.
        -11    1    3    3    0    0 -0.70353730274E+00  0.16466537806E+02  0.19130372406E+02  0.25250999598E+02  0.51100000000E-03 0. -1.
         12    1    3    3    0    0 -0.83999470774E+01  0.26567818523E+01  0.31723752761E+01  0.93638435275E+01  0.00000000000E+00 0. -1.
</event>
<event>
 7    1  0.2653124E-010  0.4778727E+02  0.7816164E-02  0.1312668E+00
        -11   -1    0    0    0    0  0.00000000000E+00  0.00000000000E+00  0.45593999997E+02  0.45594000000E+02  0.51100000000E-03 0.  1.
         11   -1    0    0    0    0 -0.00000000000E+00 -0.00000000000E+00 -0.45593999997E+02  0.45594000000E+02  0.51100000000E-03 0. -1.
    9900012    2    1    2    0    0 -0.15717401644E+01  0.39556728103E+02  0.17788149943E+02  0.47787269778E+02  0.19999994228E+02 0.  0.
         12    1    1    2    0    0  0.15717401644E+01 -0.39556728103E+02 -0.17788149943E+02  0.43400730222E+02  0.00000000000E+00 0. -1.
         11    1    3    3    0    0 -0.23736239412E+01  0.22290530180E+02  0.15964833576E+02  0.27520496683E+02  0.51100000000E-03 0. -1.
        -11    1    3    3    0    0  0.13733406362E+01  0.34341162025E+01  0.48466001851E+01  0.60966180961E+01  0.51100000000E-03 0.  1.
         12    1    3    3    0    0 -0.57145685940E+00  0.13832081721E+02 -0.30232838173E+01  0.14170155000E+02  0.00000000000E+00 0. -1.
</event>
<event>
 7    1  0.2653124E-010  0.4778726E+02  0.7816164E-02  0.1312668E+00
        -11   -1    0    0    0    0  0.00000000000E+00  0.00000000000E+00  0.45593999997E+02  0.45594000000E+02  0.51100000000E-03 0.  1.
         11   -1    0    0    0    0 -0.00000000000E+00 -0.00000000000E+00 -0.45593999997E+02  0.45594000000E+02  0.51100000000E-03 0. -1.
    9900012    2    1    2    0    0 -0.21468004090E+02 -0.17219592718E+02  0.33559424596E+02  0.47787256318E+02  0.19999932855E+02 0.  0.
         12    1    1    2    0    0  0.21468004090E+02  0.17219592718E+02 -0.33559424596E+02  0.43400743682E+02  0.00000000000E+00 0. -1.
         11    1    3    3    0    0 -0.12405638908E+02 -0.76302008226E+01  0.59160839499E+01  0.15720047420E+02  0.51100000000E-03 0. -1.
        -11    1    3    3    0    0 -0.27413698797E+01 -0.68638055560E+01  0.65382331579E+01  0.98678988957E+01  0.51100000000E-03 0.  1.
        -12    1    3    3    0    0 -0.63209953022E+01 -0.27255863391E+01  0.21105107488E+02  0.22199310002E+02  0.00000000000E+00 0.  1.
</event>
<event>
 7    1  0.2653124E-010  0.4778727E+02  0.7816164E-02  0.1312668E+00
        -11   -1    0    0    0    0  0.00000000000E+00  0.00000000000E+00  0.45593999997E+02  0.45594000000E+02  0.51100000000E-03 0.  1.
         11   -1    0    0    0    0 -0.00000000000E+00 -0.00000000000E+00 -0.45593999997E+02  0.45594000000E+02  0.51100000000E-03 0. -1.
    9900012    2    1    2    0    0  0.13231706234E+02 -0.33202596004E+02  0.24619768161E+02  0.47787269412E+02  0.19999992559E+02 0.  0.
         12    1    1    2    0    0 -0.13231706234E+02  0.33202596004E+02 -0.24619768161E+02  0.43400730588E+02  0.00000000000E+00 0. -1.
         11    1    3    3    0    0  0.16210890353E+01  0.23535005477E+01  0.64442495742E+00  0.29295355050E+01  0.51100000000E-03 0. -1.
        -11    1    3    3    0    0  0.45344380675E+01 -0.78261690134E+01  0.80400024555E+01  0.12101722595E+02  0.51100000000E-03 0.  1.
        -12    1    3    3    0    0  0.70761791310E+01 -0.27729927538E+02  0.15935340748E+02  0.32756011313E+02  0.00000000000E+00 0.  1.
</event>
<event>
 7    1  0.2653124E-010  0.4778727E+02  0.7816164E-02  0.1312668E+00
        -11   -1    0    0    0    0  0.00000000000E+00  0.00000000000E+00  0.45593999997E+02  0.45594000000E+02  0.51100000000E-03 0.  1.
         11   -1    0    0    0    0 -0.00000000000E+00 -0.00000000000E+00 -0.45593999997E+02  0.45594000000E+02  0.51100000000E-03 0. -1.
    9900012    2    1    2    0    0 -0.29662624819E+02  0.27083398346E+02  0.16439036269E+02  0.47787266244E+02  0.19999978113E+02 0.  0.
         12    1    1    2    0    0  0.29662624819E+02 -0.27083398346E+02 -0.16439036269E+02  0.43400733756E+02  0.00000000000E+00 0. -1.
         11    1    3    3    0    0 -0.25151709906E+01  0.81676538164E+01  0.40086763598E+01  0.94396048855E+01  0.51100000000E-03 0. -1.
        -11    1    3    3    0    0 -0.97770427046E+01  0.14604623213E+02  0.21455744038E+01  0.17705622639E+02  0.51100000000E-03 0.  1.
         12    1    3    3    0    0 -0.17370411124E+02  0.43111213164E+01  0.10284785505E+02  0.20642038720E+02  0.00000000000E+00 0. -1.
</event>
<event>
 7    1  0.3207117E-010  0.4778727E+02  0.7816164E-02  0.1312668E+00
        -11   -1    0    0    0    0  0.00000000000E+00  0.00000000000E+00  0.45593999997E+02  0.45594000000E+02  0.51100000000E-03 0. -1.
         11   -1    0    0    0    0 -0.00000000000E+00 -0.00000000000E+00 -0.45593999997E+02  0.45594000000E+02  0.51100000000E-03 0.  1.
    9900012    2    1    2    0    0  0.94318597319E+00 -0.19541879858E+01 -0.43346449816E+02  0.47787272332E+02  0.20000005871E+02 0.  0.
         12    1    1    2    0    0 -0.94318597319E+00  0.19541879858E+01  0.43346449816E+02  0.43400727668E+02  0.00000000000E+00 0. -1.
         11    1    3    3    0    0  0.62004959118E+01  0.36708552465E+01 -0.13183109260E+02  0.15023837653E+02  0.51100000000E-03 0.  1.
        -11    1    3    3    0    0  0.56859179427E+00 -0.28340612947E+01 -0.22739560205E+02  0.22922539096E+02  0.51100000000E-03 0. -1.
         12    1    3    3    0    0 -0.58259017329E+01 -0.27909819375E+01 -0.74237803511E+01  0.98408955832E+01  0.00000000000E+00 0. -1.
</event>
<event>
 7    1  0.2653124E-010  0.4778727E+02  0.7816164E-02  0.1312668E+00
        -11   -1    0    0    0    0  0.00000000000E+00  0.00000000000E+00  0.45593999997E+02  0.45594000000E+02  0.51100000000E-03 0.  1.
         11   -1    0    0    0    0 -0.00000000000E+00 -0.00000000000E+00 -0.45593999997E+02  0.45594000000E+02  0.51100000000E-03 0. -1.
    9900012    2    1    2    0    0  0.15637555829E+01  0.11153153879E+02  0.41914022541E+02  0.47787268917E+02  0.19999990300E+02 0.  0.
         12    1    1    2    0    0 -0.15637555829E+01 -0.11153153879E+02 -0.41914022541E+02  0.43400731083E+02  0.00000000000E+00 0. -1.
         11    1    3    3    0    0 -0.11494606512E+00 -0.43832856217E+00  0.15074594908E+02  0.15081404325E+02  0.51100000000E-03 0. -1.
        -11    1    3    3    0    0 -0.28079056409E+01  0.36765052857E+01  0.21840038738E+02  0.22324612372E+02  0.51100000000E-03 0.  1.
         12    1    3    3    0    0  0.44866072889E+01  0.79149771554E+01  0.49993888953E+01  0.10381252220E+02  0.00000000000E+00 0. -1.
</event>
<event>
 7    1  0.2653124E-010  0.4778727E+02  0.7816164E-02  0.1312668E+00
        -11   -1    0    0    0    0  0.00000000000E+00  0.00000000000E+00  0.45593999997E+02  0.45594000000E+02  0.51100000000E-03 0.  1.
         11   -1    0    0    0    0 -0.00000000000E+00 -0.00000000000E+00 -0.45593999997E+02  0.45594000000E+02  0.51100000000E-03 0. -1.
    9900012    2    1    2    0    0  0.42080818343E+02 -0.54447200384E+01  0.91204695581E+01  0.47787271738E+02  0.20000003164E+02 0.  0.
         12    1    1    2    0    0 -0.42080818343E+02  0.54447200384E+01 -0.91204695581E+01  0.43400728262E+02  0.00000000000E+00 0. -1.
         11    1    3    3    0    0  0.18888149585E+02  0.45155437216E+01  0.20451289222E+01  0.19527797685E+02  0.51100000000E-03 0. -1.
        -11    1    3    3    0    0  0.18544683344E+02 -0.27712178450E+01  0.56300194279E+01  0.19577590446E+02  0.51100000000E-03 0.  1.
         12    1    3    3    0    0  0.46479854138E+01 -0.71890459150E+01  0.14453212080E+01  0.86818836072E+01  0.00000000000E+00 0. -1.
</event>
<event>
 7    1  0.2653124E-010  0.4778727E+02  0.7816164E-02  0.1312668E+00
        -11   -1    0    0    0    0  0.00000000000E+00  0.00000000000E+00  0.45593999997E+02  0.45594000000E+02  0.51100000000E-03 0.  1.
         11   -1    0    0    0    0 -0.00000000000E+00 -0.00000000000E+00 -0.45593999997E+02  0.45594000000E+02  0.51100000000E-03 0. -1.
    9900012    2    1    2    0    0  0.36680176494E+02  0.15894511581E+01  0.23144371702E+02  0.47787266780E+02  0.19999980555E+02 0.  0.
         12    1    1    2    0    0 -0.36680176494E+02 -0.15894511581E+01 -0.23144371702E+02  0.43400733220E+02  0.00000000000E+00 0. -1.
         11    1    3    3    0    0  0.15063771294E+02  0.43598483228E+01  0.67260275884E+01  0.17063555620E+02  0.51100000000E-03 0. -1.
        -11    1    3    3    0    0  0.18087579695E+02 -0.37885326765E+01  0.56167722029E+01  0.19314803890E+02  0.51100000000E-03 0.  1.
        -12    1    3    3    0    0  0.35288255048E+01  0.10181355118E+01  0.10801571911E+02  0.11408907270E+02  0.00000000000E+00 0.  1.
</event>
<event>
 7    1  0.2653124E-010  0.4778726E+02  0.7816164E-02  0.1312668E+00
        -11   -1    0    0    0    0  0.00000000000E+00  0.00000000000E+00  0.45593999997E+02  0.45594000000E+02  0.51100000000E-03 0.  1.
         11   -1    0    0    0    0 -0.00000000000E+00 -0.00000000000E+00 -0.45593999997E+02  0.45594000000E+02  0.51100000000E-03 0. -1.
    9900012    2    1    2    0    0 -0.15353473378E+02  0.40593494881E+02 -0.25119370629E+00  0.47787261876E+02  0.19999958199E+02 0.  0.
         12    1    1    2    0    0  0.15353473378E+02 -0.40593494881E+02  0.25119370629E+00  0.43400738124E+02  0.00000000000E+00 0. -1.
         11    1    3    3    0    0 -0.10995576413E+02  0.14199762938E+02 -0.53002900668E+01  0.18725091273E+02  0.51100000000E-03 0. -1.
        -11    1    3    3    0    0 -0.28777155877E+01  0.13061879508E+01 -0.79860642745E+00  0.32596236675E+01  0.51100000000E-03 0.  1.
        -12    1    3    3    0    0 -0.14801813774E+01  0.25087543992E+02  0.58477027880E+01  0.25802546935E+02  0.00000000000E+00 0.  1.
</event>
<event>
 7    1  0.2653124E-010  0.4778727E+02  0.7816164E-02  0.1312668E+00
        -11   -1    0    0    0    0  0.00000000000E+00  0.00000000000E+00  0.45593999997E+02  0.45594000000E+02  0.51100000000E-03 0.  1.
         11   -1    0    0    0    0 -0.00000000000E+00 -0.00000000000E+00 -0.45593999997E+02  0.45594000000E+02  0.51100000000E-03 0. -1.
    9900012    2    1    2    0    0  0.37566071312E+02  0.68245789514E+01  0.20635860022E+02  0.47787270622E+02  0.19999998072E+02 0.  0.
         12    1    1    2    0    0 -0.37566071312E+02 -0.68245789514E+01 -0.20635860022E+02  0.43400729378E+02  0.00000000000E+00 0. -1.
         11    1    3    3    0    0  0.14900461257E+02  0.88104910614E+01  0.16895939336E+02  0.24189279955E+02  0.51100000000E-03 0. -1.
        -11    1    3    3    0    0  0.10155816924E+02 -0.69110287003E+00  0.42029240235E+01  0.11012847551E+02  0.51100000000E-03 0.  1.
         12    1    3    3    0    0  0.12509793131E+02 -0.12948092399E+01 -0.46300333753E+00  0.12585143115E+02  0.00000000000E+00 0. -1.
</event>
<event>
 7    1  0.2653124E-010  0.4778727E+02  0.7816164E-02  0.1312668E+00
        -11   -1    0    0    0    0  0.00000000000E+00  0.00000000000E+00  0.45593999997E+02  0.45594000000E+02  0.51100000000E-03 0. -1.
         11   -1    0    0    0    0 -0.00000000000E+00 -0.00000000000E+00 -0.45593999997E+02  0.45594000000E+02  0.51100000000E-03 0.  1.
    9900012    2    1    2    0    0  0.19136038277E+02 -0.22159099452E+02 -0.32037627695E+02  0.47787271460E+02  0.20000001895E+02 0.  0.
         12    1    1    2    0    0 -0.19136038277E+02  0.22159099452E+02  0.32037627695E+02  0.43400728540E+02  0.00000000000E+00 0. -1.
         11    1    3    3    0    0  0.76266521431E+01 -0.60416569859E+01 -0.98712282186E+01  0.13860324269E+02  0.51100000000E-03 0.  1.
        -11    1    3    3    0    0 -0.23948641736E+01 -0.47472688808E+01 -0.12377731724E+02  0.13471457943E+02  0.51100000000E-03 0. -1.
         12    1    3    3    0    0  0.13904250308E+02 -0.11370173585E+02 -0.97886677530E+01  0.20455489247E+02  0.00000000000E+00 0. -1.
</event>
<event>
 7    1  0.2653124E-010  0.4778727E+02  0.7816164E-02  0.1312668E+00
        -11   -1    0    0    0    0  0.00000000000E+00  0.00000000000E+00  0.45593999997E+02  0.45594000000E+02  0.51100000000E-03 0.  1.
         11   -1    0    0    0    0 -0.00000000000E+00 -0.00000000000E+00 -0.45593999997E+02  0.45594000000E+02  0.51100000000E-03 0. -1.
    9900012    2    1    2    0    0  0.31188079723E+02 -0.20082455272E+02  0.22530468585E+02  0.47787270268E+02  0.19999996462E+02 0.  0.
         12    1    1    2    0    0 -0.31188079723E+02  0.20082455272E+02 -0.22530468585E+02  0.43400729732E+02  0.00000000000E+00 0. -1.
         11    1    3    3    0    0  0.11415114879E+02 -0.88968688612E+00  0.16304229627E+01  0.11565235395E+02  0.51100000000E-03 0.  1.
        -11    1    3    3    0    0  0.65621692733E+01 -0.12435313272E+02  0.63083970128E+01  0.15410871321E+02  0.51100000000E-03 0. -1.
        -12    1    3    3    0    0  0.13210795571E+02 -0.67574551137E+01  0.14591648609E+02  0.20811163552E+02  0.00000000000E+00 0.  1.
</event>
<event>
 7    1  0.2653124E-010  0.4778729E+02  0.7816164E-02  0.1312668E+00
        -11   -1    0    0    0    0  0.00000000000E+00  0.00000000000E+00  0.45593999997E+02  0.45594000000E+02  0.51100000000E-03 0. -1.
         11   -1    0    0    0    0 -0.00000000000E+00 -0.00000000000E+00 -0.45593999997E+02  0.45594000000E+02  0.51100000000E-03 0.  1.
    9900012    2    1    2    0    0  0.27183480972E+02 -0.25111293607E+02 -0.22673835960E+02  0.47787291002E+02  0.20000090994E+02 0.  0.
         12    1    1    2    0    0 -0.27183480972E+02  0.25111293607E+02  0.22673835960E+02  0.43400708998E+02  0.00000000000E+00 0. -1.
         11    1    3    3    0    0  0.93904868150E+01 -0.13540549765E+02 -0.10487060807E+02  0.19532183062E+02  0.51100000000E-03 0. -1.
        -11    1    3    3    0    0  0.10644043055E+02 -0.11698944532E+02 -0.13725175715E+02  0.20941380192E+02  0.51100000000E-03 0.  1.
         12    1    3    3    0    0  0.71489511023E+01  0.12820068902E+00  0.15384005609E+01  0.73137277476E+01  0.00000000000E+00 0. -1.
</event>
<event>
 7    1  0.2653124E-010  0.4778727E+02  0.7816164E-02  0.1312668E+00
        -11   -1    0    0    0    0  0.00000000000E+00  0.00000000000E+00  0.45593999997E+02  0.45594000000E+02  0.51100000000E-03 0.  1.
         11   -1    0    0    0    0 -0.00000000000E+00 -0.00000000000E+00 -0.45593999997E+02  0.45594000000E+02  0.51100000000E-03 0. -1.
    9900012    2    1    2    0    0 -0.31405725595E+02  0.40523131728E+01  0.29679663329E+02  0.47787271233E+02  0.20000000859E+02 0.  0.
         12    1    1    2    0    0  0.31405725595E+02 -0.40523131728E+01 -0.29679663329E+02  0.43400728767E+02  0.00000000000E+00 0. -1.
         11    1    3    3    0    0 -0.34245758395E+01 -0.39160545402E+01  0.44285226829E+01  0.68319116107E+01  0.51100000000E-03 0.  1.
        -11    1    3    3    0    0 -0.64391764543E+01 -0.25070930960E+01  0.12053808413E+01  0.70143747002E+01  0.51100000000E-03 0. -1.
        -12    1    3    3    0    0 -0.21541973301E+02  0.10475460809E+02  0.24045759805E+02  0.33940984922E+02  0.00000000000E+00 0.  1.
</event>
<event>
 7    1  0.2653124E-010  0.4778727E+02  0.7816164E-02  0.1312668E+00
        -11   -1    0    0    0    0  0.00000000000E+00  0.00000000000E+00  0.45593999997E+02  0.45594000000E+02  0.51100000000E-03 0. -1.
         11   -1    0    0    0    0 -0.00000000000E+00 -0.00000000000E+00 -0.45593999997E+02  0.45594000000E+02  0.51100000000E-03 0.  1.
    9900012    2    1    2    0    0  0.35735341043E+02  0.53314208120E+01 -0.24045466192E+02  0.47787273143E+02  0.20000009566E+02 0.  0.
         12    1    1    2    0    0 -0.35735341043E+02 -0.53314208120E+01  0.24045466192E+02  0.43400726857E+02  0.00000000000E+00 0. -1.
         11    1    3    3    0    0  0.17258223774E+02  0.90388200550E+01 -0.71937115452E+01  0.20767668186E+02  0.51100000000E-03 0. -1.
        -11    1    3    3    0    0  0.22136295804E+01  0.24071787587E+01 -0.80422398022E+00  0.33677057424E+01  0.51100000000E-03 0.  1.
         12    1    3    3    0    0  0.16263487689E+02 -0.61145780017E+01 -0.16047530667E+02  0.23651899214E+02  0.00000000000E+00 0. -1.
</event>
<event>
 7    1  0.2653124E-010  0.4778727E+02  0.7816164E-02  0.1312668E+00
        -11   -1    0    0    0    0  0.00000000000E+00  0.00000000000E+00  0.45593999997E+02  0.45594000000E+02  0.51100000000E-03 0. -1.
         11   -1    0    0    0    0 -0.00000000000E+00 -0.00000000000E+00 -0.45593999997E+02  0.45594000000E+02  0.51100000000E-03 0.  1.
    9900012    2    1    2    0    0  0.24026143546E+02  0.32706512423E+02 -0.15383492335E+02  0.47787269995E+02  0.19999995216E+02 0.  0.
         12    1    1    2    0    0 -0.24026143546E+02 -0.32706512423E+02  0.15383492335E+02  0.43400730005E+02  0.00000000000E+00 0. -1.
         11    1    3    3    0    0 -0.14177822529E+01  0.20173389758E+01 -0.35791022451E+01  0.43462324146E+01  0.51100000000E-03 0. -1.
        -11    1    3    3    0    0  0.33430433571E-01 -0.41176274755E-01  0.14268116467E+01  0.14277971900E+01  0.51100000000E-03 0.  1.
        -12    1    3    3    0    0  0.25410495365E+02  0.30730349722E+02 -0.13231201737E+02  0.42013240391E+02  0.00000000000E+00 0.  1.
</event>
<event>
 7    1  0.2653124E-010  0.4778728E+02  0.7816164E-02  0.1312668E+00
        -11   -1    0    0    0    0  0.00000000000E+00  0.00000000000E+00  0.45593999997E+02  0.45594000000E+02  0.51100000000E-03 0. -1.
         11   -1    0    0    0    0 -0.00000000000E+00 -0.00000000000E+00 -0.45593999997E+02  0.45594000000E+02  0.51100000000E-03 0.  1.
    9900012    2    1    2    0    0  0.18909028996E+02  0.12527621928E+02 -0.37001755491E+02  0.47787278829E+02  0.20000035491E+02 0.  0.
         12    1    1    2    0    0 -0.18909028996E+02 -0.12527621928E+02  0.37001755491E+02  0.43400721171E+02  0.00000000000E+00 0. -1.
         11    1    3    3    0    0  0.16408720784E+01  0.15327667496E+01  0.13891579896E+01  0.26403778646E+01  0.51100000000E-03 0. -1.
        -11    1    3    3    0    0  0.87434493026E+01 -0.12544358004E+01 -0.14318364700E+02  0.16823705977E+02  0.51100000000E-03 0.  1.
        -12    1    3    3    0    0  0.85247076153E+01  0.12249290979E+02 -0.24072548781E+02  0.28323194987E+02  0.00000000000E+00 0.  1.
</event>
<event>
 7    1  0.2653124E-010  0.4778727E+02  0.7816164E-02  0.1312668E+00
        -11   -1    0    0    0    0  0.00000000000E+00  0.00000000000E+00  0.45593999997E+02  0.45594000000E+02  0.51100000000E-03 0. -1.
         11   -1    0    0    0    0 -0.00000000000E+00 -0.00000000000E+00 -0.45593999997E+02  0.45594000000E+02  0.51100000000E-03 0.  1.
    9900012    2    1    2    0    0 -0.22519211872E+02  0.25369021273E+02 -0.27072515117E+02  0.47787271683E+02  0.20000002912E+02 0.  0.
         12    1    1    2    0    0  0.22519211872E+02 -0.25369021273E+02  0.27072515117E+02  0.43400728317E+02  0.00000000000E+00 0. -1.
         11    1    3    3    0    0 -0.15165457149E+01  0.18674208696E+00 -0.12067576487E+01  0.19470613232E+01  0.51100000000E-03 0. -1.
        -11    1    3    3    0    0 -0.23967776814E+02  0.19907832408E+02 -0.18233226062E+02  0.36100230602E+02  0.51100000000E-03 0.  1.
         12    1    3    3    0    0  0.29651106573E+01  0.52744467775E+01 -0.76325314060E+01  0.97399797578E+01  0.00000000000E+00 0. -1.
</event>
<event>
 7    1  0.2653124E-010  0.4778727E+02  0.7816164E-02  0.1312668E+00
        -11   -1    0    0    0    0  0.00000000000E+00  0.00000000000E+00  0.45593999997E+02  0.45594000000E+02  0.51100000000E-03 0.  1.
         11   -1    0    0    0    0 -0.00000000000E+00 -0.00000000000E+00 -0.45593999997E+02  0.45594000000E+02  0.51100000000E-03 0. -1.
    9900012    2    1    2    0    0 -0.38195494745E+01 -0.11983286395E+02  0.41538362495E+02  0.47787266483E+02  0.19999979203E+02 0.  0.
         12    1    1    2    0    0  0.38195494745E+01  0.11983286395E+02 -0.41538362495E+02  0.43400733517E+02  0.00000000000E+00 0. -1.
         11    1    3    3    0    0 -0.11081609931E+01  0.14507368260E+01 -0.49011177284E-01  0.18262147961E+01  0.51100000000E-03 0. -1.
        -11    1    3    3    0    0  0.30380899676E+01  0.16253313634E+01  0.76315899173E+01  0.83733420818E+01  0.51100000000E-03 0.  1.
         12    1    3    3    0    0 -0.57494784490E+01 -0.15059354584E+02  0.33955783755E+02  0.37587709605E+02  0.00000000000E+00 0. -1.
</event>
<event>
 7    1  0.2653124E-010  0.4778728E+02  0.7816164E-02  0.1312668E+00
        -11   -1    0    0    0    0  0.00000000000E+00  0.00000000000E+00  0.45593999997E+02  0.45594000000E+02  0.51100000000E-03 0. -1.
         11   -1    0    0    0    0 -0.00000000000E+00 -0.00000000000E+00 -0.45593999997E+02  0.45594000000E+02  0.51100000000E-03 0.  1.
    9900012    2    1    2    0    0  0.15699772006E+02  0.50724600629E+01 -0.40142373456E+02  0.47787276057E+02  0.20000022853E+02 0.  0.
         12    1    1    2    0    0 -0.15699772006E+02 -0.50724600629E+01  0.40142373456E+02  0.43400723943E+02  0.00000000000E+00 0. -1.
         11    1    3    3    0    0  0.27645153241E+01  0.35372711816E+01 -0.91475755806E+00  0.45816606204E+01  0.51100000000E-03 0.  1.
        -11    1    3    3    0    0  0.31497840328E+01 -0.42555457843E+01 -0.55949297572E+01  0.77028597693E+01  0.51100000000E-03 0. -1.
        -12    1    3    3    0    0  0.97854726493E+01  0.57907346656E+01 -0.33632686140E+02  0.35502755667E+02  0.00000000000E+00 0.  1.
</event>
<event>
 7    1  0.2653124E-010  0.4778728E+02  0.7816164E-02  0.1312668E+00
        -11   -1    0    0    0    0  0.00000000000E+00  0.00000000000E+00  0.45593999997E+02  0.45594000000E+02  0.51100000000E-03 0. -1.
         11   -1    0    0    0    0 -0.00000000000E+00 -0.00000000000E+00 -0.45593999997E+02  0.45594000000E+02  0.51100000000E-03 0.  1.
    9900012    2    1    2    0    0  0.40082542687E+02 -0.29608694633E+01 -0.16378212050E+02  0.47787276432E+02  0.20000024563E+02 0.  0.
         12    1    1    2    0    0 -0.40082542687E+02  0.29608694633E+01  0.16378212050E+02  0.43400723568E+02  0.00000000000E+00 0. -1.
         11    1    3    3    0    0  0.17359447009E+02  0.42995959968E+01 -0.63400981959E+01  0.18974555899E+02  0.51100000000E-03 0. -1.
        -11    1    3    3    0    0  0.10053312316E+02 -0.18934284194E+00 -0.10171578244E+02  0.14302655120E+02  0.51100000000E-03 0.  1.
         12    1    3    3    0    0  0.12669783362E+02 -0.70711226181E+01  0.13346438975E+00  0.14510065412E+02  0.00000000000E+00 0. -1.
</event>
<event>
 7    1  0.2653124E-010  0.4778726E+02  0.7816164E-02  0.1312668E+00
        -11   -1    0    0    0    0  0.00000000000E+00  0.00000000000E+00  0.45593999997E+02  0.45594000000E+02  0.51100000000E-03 0.  1.
         11   -1    0    0    0    0 -0.00000000000E+00 -0.00000000000E+00 -0.45593999997E+02  0.45594000000E+02  0.51100000000E-03 0. -1.
    9900012    2    1    2    0    0 -0.12913309849E+00  0.36838074294E+02  0.22946970993E+02  0.47787264167E+02  0.19999968645E+02 0.  0.
         12    1    1    2    0    0  0.12913309849E+00 -0.36838074294E+02 -0.22946970993E+02  0.43400735833E+02  0.00000000000E+00 0. -1.
         11    1    3    3    0    0  0.60924366672E+01  0.49615567155E+01  0.59130064248E+01  0.98335382659E+01  0.51100000000E-03 0. -1.
        -11    1    3    3    0    0 -0.42521983273E+00  0.15204631509E+02  0.12607772025E+02  0.19756455830E+02  0.51100000000E-03 0.  1.
        -12    1    3    3    0    0 -0.57963499330E+01  0.16671886069E+02  0.44261925429E+01  0.18197270072E+02  0.00000000000E+00 0.  1.
</event>
<event>
 7    1  0.2653124E-010  0.4778727E+02  0.7816164E-02  0.1312668E+00
        -11   -1    0    0    0    0  0.00000000000E+00  0.00000000000E+00  0.45593999997E+02  0.45594000000E+02  0.51100000000E-03 0.  1.
         11   -1    0    0    0    0 -0.00000000000E+00 -0.00000000000E+00 -0.45593999997E+02  0.45594000000E+02  0.51100000000E-03 0. -1.
    9900012    2    1    2    0    0  0.50857278971E-01 -0.42642531227E+02  0.80768230356E+01  0.47787272745E+02  0.20000007752E+02 0.  0.
         12    1    1    2    0    0 -0.50857278971E-01  0.42642531227E+02 -0.80768230356E+01  0.43400727255E+02  0.00000000000E+00 0. -1.
         11    1    3    3    0    0  0.38776904922E+01 -0.13156777026E+02 -0.97490685667E+00  0.13750916656E+02  0.51100000000E-03 0. -1.
        -11    1    3    3    0    0  0.50529500680E+01 -0.11884525278E+02  0.18407329248E+01  0.13044636577E+02  0.51100000000E-03 0.  1.
         12    1    3    3    0    0 -0.88797832812E+01 -0.17601228924E+02  0.72109969674E+01  0.20991719511E+02  0.00000000000E+00 0. -1.
</event>
<event>
 7    1  0.2653124E-010  0.4778727E+02  0.7816164E-02  0.1312668E+00
        -11   -1    0    0    0    0  0.00000000000E+00  0.00000000000E+00  0.45593999997E+02  0.45594000000E+02  0.51100000000E-03 0.  1.
         11   -1    0    0    0    0 -0.00000000000E+00 -0.00000000000E+00 -0.45593999997E+02  0.45594000000E+02  0.51100000000E-03 0. -1.
    9900012    2    1    2    0    0 -0.22424712510E+02  0.27545124273E+02  0.24940359914E+02  0.47787272414E+02  0.20000006243E+02 0.  0.
         12    1    1    2    0    0  0.22424712510E+02 -0.27545124273E+02 -0.24940359914E+02  0.43400727586E+02  0.00000000000E+00 0. -1.
         11    1    3    3    0    0  0.10760230730E+01  0.55490720340E+00 -0.10309337670E+01  0.15901485311E+01  0.51100000000E-03 0. -1.
        -11    1    3    3    0    0 -0.11284959405E+02  0.10587037707E+02  0.36018892307E+01  0.15887393823E+02  0.51100000000E-03 0.  1.
        -12    1    3    3    0    0 -0.12215776178E+02  0.16403179363E+02  0.22369404450E+02  0.30309730059E+02  0.00000000000E+00 0.  1.
</event>
<event>
 7    1  0.2653124E-010  0.4778727E+02  0.7816164E-02  0.1312668E+00
        -11   -1    0    0    0    0  0.00000000000E+00  0.00000000000E+00  0.45593999997E+02  0.45594000000E+02  0.51100000000E-03 0.  1.
         11   -1    0    0    0    0 -0.00000000000E+00 -0.00000000000E+00 -0.45593999997E+02  0.45594000000E+02  0.51100000000E-03 0. -1.
    9900012    2    1    2    0    0 -0.21351120644E+02 -0.14431044755E+02  0.34921309760E+02  0.47787270965E+02  0.19999999636E+02 0.  0.
         12    1    1    2    0    0  0.21351120644E+02  0.14431044755E+02 -0.34921309760E+02  0.43400729035E+02  0.00000000000E+00 0. -1.
         11    1    3    3    0    0 -0.23557473734E+01 -0.48205872968E+00  0.60595152773E+01  0.65191757119E+01  0.51100000000E-03 0. -1.
        -11    1    3    3    0    0 -0.21674185098E+02 -0.87335391044E+01  0.20692737899E+02  0.31212728285E+02  0.51100000000E-03 0.  1.
         12    1    3    3    0    0  0.26788118280E+01 -0.52154469204E+01  0.81690565835E+01  0.10055366968E+02  0.00000000000E+00 0. -1.
</event>
<event>
 7    1  0.2653124E-010  0.4778727E+02  0.7816164E-02  0.1312668E+00
        -11   -1    0    0    0    0  0.00000000000E+00  0.00000000000E+00  0.45593999997E+02  0.45594000000E+02  0.51100000000E-03 0.  1.
         11   -1    0    0    0    0 -0.00000000000E+00 -0.00000000000E+00 -0.45593999997E+02  0.45594000000E+02  0.51100000000E-03 0. -1.
    9900012    2    1    2    0    0  0.20425777309E+02 -0.38182339965E+02  0.29189444028E+01  0.47787266132E+02  0.19999977600E+02 0.  0.
         12    1    1    2    0    0 -0.20425777309E+02  0.38182339965E+02 -0.29189444028E+01  0.43400733868E+02  0.00000000000E+00 0. -1.
         11    1    3    3    0    0  0.88779708160E+01 -0.17079653448E+02 -0.62412490676E+01  0.20235763339E+02  0.51100000000E-03 0. -1.
        -11    1    3    3    0    0  0.40478127919E+01 -0.98809578098E+01 -0.90246981386E+00  0.10715995878E+02  0.51100000000E-03 0.  1.
        -12    1    3    3    0    0  0.74999937008E+01 -0.11221728707E+02  0.10062663284E+02  0.16835506914E+02  0.00000000000E+00 0.  1.
</event>
<event>
 7    1  0.2653124E-010  0.4778729E+02  0.7816164E-02  0.1312668E+00
        -11   -1    0    0    0    0  0.00000000000E+00  0.00000000000E+00  0.45593999997E+02  0.45594000000E+02  0.51100000000E-03 0.  1.
         11   -1    0    0    0    0 -0.00000000000E+00 -0.00000000000E+00 -0.45593999997E+02  0.45594000000E+02  0.51100000000E-03 0. -1.
    9900012    2    1    2    0    0 -0.35430730191E+00 -0.30259533259E+02  0.31110402537E+02  0.47787285343E+02  0.20000065193E+02 0.  0.
         12    1    1    2    0    0  0.35430730191E+00  0.30259533259E+02 -0.31110402537E+02  0.43400714657E+02  0.00000000000E+00 0. -1.
         11    1    3    3    0    0 -0.31577228807E+01 -0.16925546082E+02  0.15131832146E+02  0.22921990933E+02  0.51100000000E-03 0. -1.
        -11    1    3    3    0    0  0.23421990912E+01 -0.15555176272E+02  0.10438834149E+02  0.18879053580E+02  0.51100000000E-03 0.  1.
         12    1    3    3    0    0  0.46121648759E+00  0.22211890950E+01  0.55397362418E+01  0.59862408298E+01  0.00000000000E+00 0. -1.
</event>
<event>
 7    1  0.2653124E-010  0.4778726E+02  0.7816164E-02  0.1312668E+00
        -11   -1    0    0    0    0  0.00000000000E+00  0.00000000000E+00  0.45593999997E+02  0.45594000000E+02  0.51100000000E-03 0.  1.
         11   -1    0    0    0    0 -0.00000000000E+00 -0.00000000000E+00 -0.45593999997E+02  0.45594000000E+02  0.51100000000E-03 0. -1.
    9900012    2    1    2    0    0 -0.12571033031E+02  0.40987829509E+02  0.67521534786E+01  0.47787255583E+02  0.19999929506E+02 0.  0.
         12    1    1    2    0    0  0.12571033031E+02 -0.40987829509E+02 -0.67521534786E+01  0.43400744417E+02  0.00000000000E+00 0. -1.
         11    1    3    3    0    0  0.86390801549E+00  0.40998949547E+00  0.18473324331E+01  0.20801600480E+01  0.51100000000E-03 0. -1.
        -11    1    3    3    0    0 -0.40639836615E+01  0.22077144640E+02  0.96470047294E+01  0.24433194207E+02  0.51100000000E-03 0.  1.
         12    1    3    3    0    0 -0.93709573853E+01  0.18500695374E+02 -0.47421836840E+01  0.21273901328E+02  0.00000000000E+00 0. -1.
</event>
<event>
 7    1  0.2653124E-010  0.4778727E+02  0.7816164E-02  0.1312668E+00
        -11   -1    0    0    0    0  0.00000000000E+00  0.00000000000E+00  0.45593999997E+02  0.45594000000E+02  0.51100000000E-03 0.  1.
         11   -1    0    0    0    0 -0.00000000000E+00 -0.00000000000E+00 -0.45593999997E+02  0.45594000000E+02  0.51100000000E-03 0. -1.
    9900012    2    1    2    0    0 -0.28549113035E+02  0.31812693259E+02  0.75182482590E+01  0.47787270002E+02  0.19999995246E+02 0.  0.
         12    1    1    2    0    0  0.28549113035E+02 -0.31812693259E+02 -0.75182482590E+01  0.43400729998E+02  0.00000000000E+00 0. -1.
         11    1    3    3    0    0 -0.97063461719E+01  0.80826885944E+01  0.85839377266E+01  0.15271771282E+02  0.51100000000E-03 0. -1.
        -11    1    3    3    0    0 -0.42781571019E+01  0.10047991982E+02  0.44382563032E+01  0.11788252217E+02  0.51100000000E-03 0.  1.
         12    1    3    3    0    0 -0.14564609761E+02  0.13682012683E+02 -0.55039457707E+01  0.20727246503E+02  0.00000000000E+00 0. -1.
</event>
<event>
 7    1  0.2653124E-010  0.4778725E+02  0.7816164E-02  0.1312668E+00
        -11   -1    0    0    0    0  0.00000000000E+00  0.00000000000E+00  0.45593999997E+02  0.45594000000E+02  0.51100000000E-03 0.  1.
         11   -1    0    0    0    0 -0.00000000000E+00 -0.00000000000E+00 -0.45593999997E+02  0.45594000000E+02  0.51100000000E-03 0. -1.
    9900012    2    1    2    0    0 -0.17964789662E+02 -0.33838881038E+02  0.20391692658E+02  0.47787254995E+02  0.19999926826E+02 0.  0.
         12    1    1    2    0    0  0.17964789662E+02  0.33838881038E+02 -0.20391692658E+02  0.43400745005E+02  0.00000000000E+00 0. -1.
         11    1    3    3    0    0 -0.15680406642E+01 -0.18705130222E+02  0.87594973836E+01  0.20713991475E+02  0.51100000000E-03 0. -1.
        -11    1    3    3    0    0 -0.56575162677E+01 -0.75987742329E+01  0.10128353307E+02  0.13868395767E+02  0.51100000000E-03 0.  1.
         12    1    3    3    0    0 -0.10739232730E+02 -0.75349765835E+01  0.15038419667E+01  0.13204867754E+02  0.00000000000E+00 0. -1.
</event>
<event>
 7    1  0.2653124E-010  0.4778727E+02  0.7816164E-02  0.1312668E+00
        -11   -1    0    0    0    0  0.00000000000E+00  0.00000000000E+00  0.45593999997E+02  0.45594000000E+02  0.51100000000E-03 0.  1.
         11   -1    0    0    0    0 -0.00000000000E+00 -0.00000000000E+00 -0.45593999997E+02  0.45594000000E+02  0.51100000000E-03 0. -1.
    9900012    2    1    2    0    0  0.44767200122E+01 -0.23071381234E+02  0.36486893201E+02  0.47787273859E+02  0.20000012833E+02 0.  0.
         12    1    1    2    0    0 -0.44767200122E+01  0.23071381234E+02 -0.36486893201E+02  0.43400726141E+02  0.00000000000E+00 0. -1.
         11    1    3    3    0    0  0.39424494647E+00 -0.18431078056E+02  0.14673816365E+02  0.23562278208E+02  0.51100000000E-03 0. -1.
        -11    1    3    3    0    0  0.29116489986E+01 -0.71459921568E+01  0.14908501811E+02  0.16787088202E+02  0.51100000000E-03 0.  1.
         12    1    3    3    0    0  0.11708260671E+01  0.25056889793E+01  0.69045750247E+01  0.74379074485E+01  0.00000000000E+00 0. -1.
</event>
<event>
 7    1  0.2653124E-010  0.4778730E+02  0.7816164E-02  0.1312668E+00
        -11   -1    0    0    0    0  0.00000000000E+00  0.00000000000E+00  0.45593999997E+02  0.45594000000E+02  0.51100000000E-03 0. -1.
         11   -1    0    0    0    0 -0.00000000000E+00 -0.00000000000E+00 -0.45593999997E+02  0.45594000000E+02  0.51100000000E-03 0.  1.
    9900012    2    1    2    0    0 -0.11654665178E+02 -0.17893398042E+02 -0.37783801190E+02  0.47787302468E+02  0.20000143272E+02 0.  0.
         12    1    1    2    0    0  0.11654665178E+02  0.17893398042E+02  0.37783801190E+02  0.43400697532E+02  0.00000000000E+00 0. -1.
         11    1    3    3    0    0  0.29228680177E+01 -0.51020046584E+01 -0.19544796289E+02  0.20410111984E+02  0.51100000000E-03 0. -1.
        -11    1    3    3    0    0 -0.56129563533E+01 -0.14215278047E+01 -0.37785902612E+01  0.69140266811E+01  0.51100000000E-03 0.  1.
        -12    1    3    3    0    0 -0.89645768427E+01 -0.11369865579E+02 -0.14460414640E+02  0.20463163803E+02  0.00000000000E+00 0.  1.
</event>
<event>
 7    1  0.2653124E-010  0.4778723E+02  0.7816164E-02  0.1312668E+00
        -11   -1    0    0    0    0  0.00000000000E+00  0.00000000000E+00  0.45593999997E+02  0.45594000000E+02  0.51100000000E-03 0. -1.
         11   -1    0    0    0    0 -0.00000000000E+00 -0.00000000000E+00 -0.45593999997E+02  0.45594000000E+02  0.51100000000E-03 0.  1.
    9900012    2    1    2    0    0 -0.25810204002E+02 -0.27227290519E+02 -0.21820511080E+02  0.47787231765E+02  0.19999820907E+02 0.  0.
         12    1    1    2    0    0  0.25810204002E+02  0.27227290519E+02  0.21820511080E+02  0.43400768235E+02  0.00000000000E+00 0. -1.
         11    1    3    3    0    0 -0.11206485252E+02 -0.14738491214E+02  0.35035459980E-01  0.18515119841E+02  0.51100000000E-03 0. -1.
        -11    1    3    3    0    0 -0.15457168049E+01 -0.27939176174E+00 -0.21962828629E+01  0.27001775632E+01  0.51100000000E-03 0.  1.
        -12    1    3    3    0    0 -0.13058001945E+02 -0.12209407543E+02 -0.19659263677E+02  0.26571934361E+02  0.00000000000E+00 0.  1.
</event>
<event>
 7    1  0.2653124E-010  0.4778726E+02  0.7816164E-02  0.1312668E+00
        -11   -1    0    0    0    0  0.00000000000E+00  0.00000000000E+00  0.45593999997E+02  0.45594000000E+02  0.51100000000E-03 0.  1.
         11   -1    0    0    0    0 -0.00000000000E+00 -0.00000000000E+00 -0.45593999997E+02  0.45594000000E+02  0.51100000000E-03 0. -1.
    9900012    2    1    2    0    0  0.14059398100E+02 -0.29972762817E+02  0.28064045253E+02  0.47787264733E+02  0.19999971223E+02 0.  0.
         12    1    1    2    0    0 -0.14059398100E+02  0.29972762817E+02 -0.28064045253E+02  0.43400735267E+02  0.00000000000E+00 0. -1.
         11    1    3    3    0    0  0.79504609787E+01 -0.71459098722E+01  0.16549249276E+01  0.10817237838E+02  0.51100000000E-03 0. -1.
        -11    1    3    3    0    0  0.31357343711E+00 -0.10046356821E+02  0.46418025817E+01  0.11071311808E+02  0.51100000000E-03 0.  1.
         12    1    3    3    0    0  0.57953636841E+01 -0.12780496123E+02  0.21767317743E+02  0.25898715086E+02  0.00000000000E+00 0. -1.
</event>
<event>
 7    1  0.2653124E-010  0.4778729E+02  0.7816164E-02  0.1312668E+00
        -11   -1    0    0    0    0  0.00000000000E+00  0.00000000000E+00  0.45593999997E+02  0.45594000000E+02  0.51100000000E-03 0.  1.
         11   -1    0    0    0    0 -0.00000000000E+00 -0.00000000000E+00 -0.45593999997E+02  0.45594000000E+02  0.51100000000E-03 0. -1.
    9900012    2    1    2    0    0 -0.36217849257E+01  0.75511053626E+01  0.42585035985E+02  0.47787287931E+02  0.20000076992E+02 0.  0.
         12    1    1    2    0    0  0.36217849257E+01 -0.75511053626E+01 -0.42585035985E+02  0.43400712069E+02  0.00000000000E+00 0. -1.
         11    1    3    3    0    0  0.58769633252E+01  0.39906387755E+01  0.86296661221E+01  0.11177434115E+02  0.51100000000E-03 0.  1.
        -11    1    3    3    0    0 -0.11333274568E+01  0.21824487343E+01  0.11283291380E+01  0.27056682182E+01  0.51100000000E-03 0. -1.
        -12    1    3    3    0    0 -0.83654207940E+01  0.13780178528E+01  0.32827040725E+02  0.33904185597E+02  0.00000000000E+00 0.  1.
</event>
<event>
 7    1  0.2653124E-010  0.4778727E+02  0.7816164E-02  0.1312668E+00
        -11   -1    0    0    0    0  0.00000000000E+00  0.00000000000E+00  0.45593999997E+02  0.45594000000E+02  0.51100000000E-03 0. -1.
         11   -1    0    0    0    0 -0.00000000000E+00 -0.00000000000E+00 -0.45593999997E+02  0.45594000000E+02  0.51100000000E-03 0.  1.
    9900012    2    1    2    0    0 -0.53540752202E+01  0.40611189177E+02  0.14341843528E+02  0.47787270932E+02  0.19999999487E+02 0.  0.
         12    1    1    2    0    0  0.53540752202E+01 -0.40611189177E+02 -0.14341843528E+02  0.43400729068E+02  0.00000000000E+00 0. -1.
         11    1    3    3    0    0 -0.37533549373E+01  0.24562913977E+01  0.25482219207E+01  0.51589219740E+01  0.51100000000E-03 0. -1.
        -11    1    3    3    0    0  0.22386346712E+01  0.28951761549E-01 -0.66433583578E+00  0.23353084934E+01  0.51100000000E-03 0.  1.
        -12    1    3    3    0    0 -0.38393549542E+01  0.38125946018E+02  0.12457957443E+02  0.40293040465E+02  0.00000000000E+00 0.  1.
</event>
<event>
 7    1  0.2883625E-010  0.4778728E+02  0.7816164E-02  0.1312668E+00
        -11   -1    0    0    0    0  0.00000000000E+00  0.00000000000E+00  0.45593999997E+02  0.45594000000E+02  0.51100000000E-03 0.  1.
         11   -1    0    0    0    0 -0.00000000000E+00 -0.00000000000E+00 -0.45593999997E+02  0.45594000000E+02  0.51100000000E-03 0. -1.
    9900012    2    1    2    0    0  0.25032890256E+02 -0.30246101453E+02  0.18497315335E+02  0.47787275095E+02  0.20000018467E+02 0.  0.
         12    1    1    2    0    0 -0.25032890256E+02  0.30246101453E+02 -0.18497315335E+02  0.43400724905E+02  0.00000000000E+00 0. -1.
         11    1    3    3    0    0  0.14540184096E+02 -0.77941205323E+01  0.12142408765E+02  0.20484222204E+02  0.51100000000E-03 0. -1.
        -11    1    3    3    0    0  0.10923461885E+02 -0.15589831156E+02  0.72492012834E+01  0.20369481450E+02  0.51100000000E-03 0.  1.
         12    1    3    3    0    0 -0.43075572511E+00 -0.68621497654E+01 -0.89429471310E+00  0.69335714413E+01  0.00000000000E+00 0. -1.
</event>
<event>
 7    1  0.2653124E-010  0.4778727E+02  0.7816164E-02  0.1312668E+00
        -11   -1    0    0    0    0  0.00000000000E+00  0.00000000000E+00  0.45593999997E+02  0.45594000000E+02  0.51100000000E-03 0.  1.
         11   -1    0    0    0    0 -0.00000000000E+00 -0.00000000000E+00 -0.45593999997E+02  0.45594000000E+02  0.51100000000E-03 0. -1.
    9900012    2    1    2    0    0 -0.13375745753E+01  0.13550691300E+02  0.41209376514E+02  0.47787273588E+02  0.20000011596E+02 0.  0.
         12    1    1    2    0    0  0.13375745753E+01 -0.13550691300E+02 -0.41209376514E+02  0.43400726412E+02  0.00000000000E+00 0. -1.
         11    1    3    3    0    0 -0.13117882191E+01  0.90109989452E+01  0.88354913986E+01  0.12687978517E+02  0.51100000000E-03 0. -1.
        -11    1    3    3    0    0  0.46347507143E+01  0.33061060172E+00  0.42976044860E+01  0.63292671087E+01  0.51100000000E-03 0.  1.
        -12    1    3    3    0    0 -0.46605370705E+01  0.42090817533E+01  0.28076280629E+02  0.28770027962E+02  0.00000000000E+00 0.  1.
</event>
<event>
 7    1  0.2653124E-010  0.4778727E+02  0.7816164E-02  0.1312668E+00
        -11   -1    0    0    0    0  0.00000000000E+00  0.00000000000E+00  0.45593999997E+02  0.45594000000E+02  0.51100000000E-03 0.  1.
         11   -1    0    0    0    0 -0.00000000000E+00 -0.00000000000E+00 -0.45593999997E+02  0.45594000000E+02  0.51100000000E-03 0. -1.
    9900012    2    1    2    0    0 -0.22086430569E+01 -0.42650285877E+02  0.77264598468E+01  0.47787272226E+02  0.20000005388E+02 0.  0.
         12    1    1    2    0    0  0.22086430569E+01  0.42650285877E+02 -0.77264598468E+01  0.43400727774E+02  0.00000000000E+00 0. -1.
         11    1    3    3    0    0 -0.41015893687E+00 -0.33380596676E+00 -0.11735960287E+00  0.54169208454E+00  0.51100000000E-03 0. -1.
        -11    1    3    3    0    0 -0.64500968784E+01 -0.50082423838E+01  0.49227300293E+01  0.95351724011E+01  0.51100000000E-03 0.  1.
        -12    1    3    3    0    0  0.46516127584E+01 -0.37308237526E+02  0.29210894203E+01  0.37710407741E+02  0.00000000000E+00 0.  1.
</event>
<event>
 7    1  0.2653124E-010  0.4778727E+02  0.7816164E-02  0.1312668E+00
        -11   -1    0    0    0    0  0.00000000000E+00  0.00000000000E+00  0.45593999997E+02  0.45594000000E+02  0.51100000000E-03 0.  1.
         11   -1    0    0    0    0 -0.00000000000E+00 -0.00000000000E+00 -0.45593999997E+02  0.45594000000E+02  0.51100000000E-03 0. -1.
    9900012    2    1    2    0    0  0.32773531799E+02 -0.18653141343E+02  0.21484400802E+02  0.47787267905E+02  0.19999985687E+02 0.  0.
         12    1    1    2    0    0 -0.32773531799E+02  0.18653141343E+02 -0.21484400802E+02  0.43400732095E+02  0.00000000000E+00 0. -1.
         11    1    3    3    0    0 -0.19338425778E+00 -0.32202785749E+01  0.61629278817E+01  0.69562397822E+01  0.51100000000E-03 0. -1.
        -11    1    3    3    0    0  0.16658868960E+02 -0.98551214090E+01  0.13283638235E+02  0.23475442020E+02  0.51100000000E-03 0.  1.
        -12    1    3    3    0    0  0.16308047097E+02 -0.55777413588E+01  0.20378346852E+01  0.17355586103E+02  0.00000000000E+00 0.  1.
</event>
<event>
 7    1  0.2653124E-010  0.4778727E+02  0.7816164E-02  0.1312668E+00
        -11   -1    0    0    0    0  0.00000000000E+00  0.00000000000E+00  0.45593999997E+02  0.45594000000E+02  0.51100000000E-03 0. -1.
         11   -1    0    0    0    0 -0.00000000000E+00 -0.00000000000E+00 -0.45593999997E+02  0.45594000000E+02  0.51100000000E-03 0.  1.
    9900012    2    1    2    0    0 -0.15152708220E+02 -0.34782939955E+02 -0.21075245967E+02  0.47787268775E+02  0.19999989653E+02 0.  0.
         12    1    1    2    0    0  0.15152708220E+02  0.34782939955E+02  0.21075245967E+02  0.43400731225E+02  0.00000000000E+00 0. -1.
         11    1    3    3    0    0 -0.42689797467E+01 -0.22738794097E+01  0.82797644728E+00  0.49071642428E+01  0.51100000000E-03 0. -1.
        -11    1    3    3    0    0 -0.81982486547E+00 -0.73633079267E+00 -0.57294634606E+01  0.58344706404E+01  0.51100000000E-03 0.  1.
         12    1    3    3    0    0 -0.10063903607E+02 -0.31772729752E+02 -0.16173758954E+02  0.37045633892E+02  0.00000000000E+00 0. -1.
</event>
<event>
 7    1  0.2653124E-010  0.4778727E+02  0.7816164E-02  0.1312668E+00
        -11   -1    0    0    0    0  0.00000000000E+00  0.00000000000E+00  0.45593999997E+02  0.45594000000E+02  0.51100000000E-03 0.  1.
         11   -1    0    0    0    0 -0.00000000000E+00 -0.00000000000E+00 -0.45593999997E+02  0.45594000000E+02  0.51100000000E-03 0. -1.
    9900012    2    1    2    0    0  0.15403732122E+02  0.22270923922E+02  0.33916874150E+02  0.47787269964E+02  0.19999995072E+02 0.  0.
         12    1    1    2    0    0 -0.15403732122E+02 -0.22270923922E+02 -0.33916874150E+02  0.43400730036E+02  0.00000000000E+00 0. -1.
         11    1    3    3    0    0 -0.14820516557E+01  0.10628824974E+00  0.43844527465E+01  0.46293844568E+01  0.51100000000E-03 0. -1.
        -11    1    3    3    0    0  0.65678693307E+01  0.12623261618E+02  0.24304378775E+02  0.28163566346E+02  0.51100000000E-03 0.  1.
        -12    1    3    3    0    0  0.10317914447E+02  0.95413740537E+01  0.52280426282E+01  0.14994319160E+02  0.00000000000E+00 0.  1.
</event>
<event>
 7    1  0.2653124E-010  0.4778727E+02  0.7816164E-02  0.1312668E+00
        -11   -1    0    0    0    0  0.00000000000E+00  0.00000000000E+00  0.45593999997E+02  0.45594000000E+02  0.51100000000E-03 0. -1.
         11   -1    0    0    0    0 -0.00000000000E+00 -0.00000000000E+00 -0.45593999997E+02  0.45594000000E+02  0.51100000000E-03 0.  1.
    9900012    2    1    2    0    0  0.31796466067E+02  0.22994190310E+02 -0.18543878138E+02  0.47787268914E+02  0.19999990288E+02 0.  0.
         12    1    1    2    0    0 -0.31796466067E+02 -0.22994190310E+02  0.18543878138E+02  0.43400731086E+02  0.00000000000E+00 0. -1.
         11    1    3    3    0    0  0.18784967067E+02  0.91086941913E+01 -0.73422818557E+00  0.20889767563E+02  0.51100000000E-03 0. -1.
        -11    1    3    3    0    0  0.10482384912E+01  0.43167696468E+01 -0.19626835877E+01  0.48564834237E+01  0.51100000000E-03 0.  1.
        -12    1    3    3    0    0  0.11963260510E+02  0.95687264720E+01 -0.15846966364E+02  0.22041017927E+02  0.00000000000E+00 0.  1.
</event>
<event>
 7    1  0.2653124E-010  0.4778727E+02  0.7816164E-02  0.1312668E+00
        -11   -1    0    0    0    0  0.00000000000E+00  0.00000000000E+00  0.45593999997E+02  0.45594000000E+02  0.51100000000E-03 0. -1.
         11   -1    0    0    0    0 -0.00000000000E+00 -0.00000000000E+00 -0.45593999997E+02  0.45594000000E+02  0.51100000000E-03 0.  1.
    9900012    2    1    2    0    0  0.10567820367E+02  0.31343529533E+02 -0.28098529115E+02  0.47787274092E+02  0.20000013896E+02 0.  0.
         12    1    1    2    0    0 -0.10567820367E+02 -0.31343529533E+02  0.28098529115E+02  0.43400725908E+02  0.00000000000E+00 0. -1.
         11    1    3    3    0    0 -0.17844541525E+01  0.23920376098E+01 -0.14583577167E+01  0.33215851698E+01  0.51100000000E-03 0. -1.
        -11    1    3    3    0    0  0.11033869322E+02  0.24598954025E+02 -0.12698719603E+02  0.29801212915E+02  0.51100000000E-03 0.  1.
         12    1    3    3    0    0  0.13184051967E+01  0.43525378978E+01 -0.13941451796E+02  0.14664476008E+02  0.00000000000E+00 0. -1.
</event>
<event>
 7    1  0.2653124E-010  0.4778728E+02  0.7816164E-02  0.1312668E+00
        -11   -1    0    0    0    0  0.00000000000E+00  0.00000000000E+00  0.45593999997E+02  0.45594000000E+02  0.51100000000E-03 0.  1.
         11   -1    0    0    0    0 -0.00000000000E+00 -0.00000000000E+00 -0.45593999997E+02  0.45594000000E+02  0.51100000000E-03 0. -1.
    9900012    2    1    2    0    0  0.93090542277E+01  0.39573142369E+01  0.42205498018E+02  0.47787275472E+02  0.20000020186E+02 0.  0.
         12    1    1    2    0    0 -0.93090542277E+01 -0.39573142369E+01 -0.42205498018E+02  0.43400724528E+02  0.00000000000E+00 0. -1.
         11    1    3    3    0    0 -0.53297986164E+01  0.42046674030E+01  0.11045552150E+02  0.12964960617E+02  0.51100000000E-03 0. -1.
        -11    1    3    3    0    0  0.29593544102E+01  0.20849570646E+01  0.79259677134E+01  0.87135405515E+01  0.51100000000E-03 0.  1.
         12    1    3    3    0    0  0.11679498434E+02 -0.23323102307E+01  0.23233978155E+02  0.26108774303E+02  0.00000000000E+00 0. -1.
</event>
<event>
 7    1  0.2653124E-010  0.4778727E+02  0.7816164E-02  0.1312668E+00
        -11   -1    0    0    0    0  0.00000000000E+00  0.00000000000E+00  0.45593999997E+02  0.45594000000E+02  0.51100000000E-03 0.  1.
         11   -1    0    0    0    0 -0.00000000000E+00 -0.00000000000E+00 -0.45593999997E+02  0.45594000000E+02  0.51100000000E-03 0. -1.
    9900012    2    1    2    0    0 -0.29624212331E+02 -0.19278953641E+02  0.25186325278E+02  0.47787274306E+02  0.20000014870E+02 0.  0.
         12    1    1    2    0    0  0.29624212331E+02  0.19278953641E+02 -0.25186325278E+02  0.43400725694E+02  0.00000000000E+00 0. -1.
         11    1    3    3    0    0 -0.17627262929E+02 -0.41669355256E+01  0.47239942146E+01  0.18718970902E+02  0.51100000000E-03 0. -1.
        -11    1    3    3    0    0  0.42124287221E+00 -0.81904348696E-01  0.25714817855E+01  0.26070429060E+01  0.51100000000E-03 0.  1.
         12    1    3    3    0    0 -0.12418192275E+02 -0.15030113767E+02  0.17890849278E+02  0.26461260498E+02  0.00000000000E+00 0. -1.
</event>
<event>
 7    1  0.2653124E-010  0.4778726E+02  0.7816164E-02  0.1312668E+00
        -11   -1    0    0    0    0  0.00000000000E+00  0.00000000000E+00  0.45593999997E+02  0.45594000000E+02  0.51100000000E-03 0.  1.
         11   -1    0    0    0    0 -0.00000000000E+00 -0.00000000000E+00 -0.45593999997E+02  0.45594000000E+02  0.51100000000E-03 0. -1.
    9900012    2    1    2    0    0  0.42537207205E+02  0.98093128319E+00  0.85585059270E+01  0.47787259837E+02  0.19999948903E+02 0.  0.
         12    1    1    2    0    0 -0.42537207205E+02 -0.98093128319E+00 -0.85585059270E+01  0.43400740163E+02  0.00000000000E+00 0. -1.
         11    1    3    3    0    0  0.13998563541E+01 -0.16688247731E+01  0.43565639144E+01  0.48707518246E+01  0.51100000000E-03 0.  1.
        -11    1    3    3    0    0  0.28953059402E+01  0.19656481465E+01 -0.22038406495E+01  0.41356357422E+01  0.51100000000E-03 0. -1.
        -12    1    3    3    0    0  0.38242044910E+02  0.68410790979E+00  0.64057826621E+01  0.38780872271E+02  0.00000000000E+00 0.  1.
</event>
<event>
 7    1  0.2653124E-010  0.4778727E+02  0.7816164E-02  0.1312668E+00
        -11   -1    0    0    0    0  0.00000000000E+00  0.00000000000E+00  0.45593999997E+02  0.45594000000E+02  0.51100000000E-03 0. -1.
         11   -1    0    0    0    0 -0.00000000000E+00 -0.00000000000E+00 -0.45593999997E+02  0.45594000000E+02  0.51100000000E-03 0.  1.
    9900012    2    1    2    0    0  0.20317567929E+02  0.29188945804E+02 -0.24876195944E+02  0.47787271339E+02  0.20000001342E+02 0.  0.
         12    1    1    2    0    0 -0.20317567929E+02 -0.29188945804E+02  0.24876195944E+02  0.43400728661E+02  0.00000000000E+00 0. -1.
         11    1    3    3    0    0  0.49904463592E+01  0.20792080556E+02 -0.12184107446E+02  0.24610315789E+02  0.51100000000E-03 0. -1.
        -11    1    3    3    0    0  0.86588143567E+01  0.92481631280E+01 -0.81588569471E+01  0.15068859753E+02  0.51100000000E-03 0.  1.
        -12    1    3    3    0    0  0.66683072127E+01 -0.85129787973E+00 -0.45332315507E+01  0.81080957971E+01  0.00000000000E+00 0.  1.
</event>
<event>
 7    1  0.2653124E-010  0.4778727E+02  0.7816164E-02  0.1312668E+00
        -11   -1    0    0    0    0  0.00000000000E+00  0.00000000000E+00  0.45593999997E+02  0.45594000000E+02  0.51100000000E-03 0. -1.
         11   -1    0    0    0    0 -0.00000000000E+00 -0.00000000000E+00 -0.45593999997E+02  0.45594000000E+02  0.51100000000E-03 0.  1.
    9900012    2    1    2    0    0  0.29907510241E+02 -0.26938530519E+02  0.16232056960E+02  0.47787271106E+02  0.20000000283E+02 0.  0.
         12    1    1    2    0    0 -0.29907510241E+02  0.26938530519E+02 -0.16232056960E+02  0.43400728894E+02  0.00000000000E+00 0. -1.
         11    1    3    3    0    0  0.33477798877E+01 -0.62197433283E+01  0.41535057669E+01  0.81941715666E+01  0.51100000000E-03 0. -1.
        -11    1    3    3    0    0  0.26753251105E+02 -0.20072180390E+02  0.66222430393E+01  0.34095204551E+02  0.51100000000E-03 0.  1.
         12    1    3    3    0    0 -0.19352075110E+00 -0.64660680083E+00  0.54563081537E+01  0.54978949884E+01  0.00000000000E+00 0. -1.
</event>
<event>
 7    1  0.2653124E-010  0.4778727E+02  0.7816164E-02  0.1312668E+00
        -11   -1    0    0    0    0  0.00000000000E+00  0.00000000000E+00  0.45593999997E+02  0.45594000000E+02  0.51100000000E-03 0.  1.
         11   -1    0    0    0    0 -0.00000000000E+00 -0.00000000000E+00 -0.45593999997E+02  0.45594000000E+02  0.51100000000E-03 0. -1.
    9900012    2    1    2    0    0  0.14606329083E+02 -0.25529471928E+02  0.31914335514E+02  0.47787267316E+02  0.19999983000E+02 0.  0.
         12    1    1    2    0    0 -0.14606329083E+02  0.25529471928E+02 -0.31914335514E+02  0.43400732684E+02  0.00000000000E+00 0. -1.
         11    1    3    3    0    0  0.93456729592E+00 -0.47609027256E+01  0.87470330587E+00  0.49299814328E+01  0.51100000000E-03 0. -1.
        -11    1    3    3    0    0  0.64874992529E+01 -0.19936922688E+02  0.16725986884E+02  0.26820275359E+02  0.51100000000E-03 0.  1.
        -12    1    3    3    0    0  0.71842625345E+01 -0.83164651432E+00  0.14313645324E+02  0.16037010524E+02  0.00000000000E+00 0.  1.
</event>
<event>
 7    1  0.2653124E-010  0.4778726E+02  0.7816164E-02  0.1312668E+00
        -11   -1    0    0    0    0  0.00000000000E+00  0.00000000000E+00  0.45593999997E+02  0.45594000000E+02  0.51100000000E-03 0. -1.
         11   -1    0    0    0    0 -0.00000000000E+00 -0.00000000000E+00 -0.45593999997E+02  0.45594000000E+02  0.51100000000E-03 0.  1.
    9900012    2    1    2    0    0  0.94222039522E+01  0.28343593872E+02 -0.31487884914E+02  0.47787261098E+02  0.19999954650E+02 0.  0.
         12    1    1    2    0    0 -0.94222039522E+01 -0.28343593872E+02  0.31487884914E+02  0.43400738902E+02  0.00000000000E+00 0. -1.
         11    1    3    3    0    0  0.34854573476E+01  0.24945669485E+02 -0.30464742514E+02  0.39528918220E+02  0.51100000000E-03 0.  1.
        -11    1    3    3    0    0  0.18944621837E+01  0.46263793479E+00 -0.23846706615E+01  0.30805316504E+01  0.51100000000E-03 0. -1.
        -12    1    3    3    0    0  0.40422844209E+01  0.29352864522E+01  0.13615282615E+01  0.51778112271E+01  0.00000000000E+00 0.  1.
</event>
<event>
 7    1  0.2653124E-010  0.4778727E+02  0.7816164E-02  0.1312668E+00
        -11   -1    0    0    0    0  0.00000000000E+00  0.00000000000E+00  0.45593999997E+02  0.45594000000E+02  0.51100000000E-03 0.  1.
         11   -1    0    0    0    0 -0.00000000000E+00 -0.00000000000E+00 -0.45593999997E+02  0.45594000000E+02  0.51100000000E-03 0. -1.
    9900012    2    1    2    0    0 -0.39960611905E+02  0.15875708644E+02  0.58936282230E+01  0.47787268642E+02  0.19999989045E+02 0.  0.
         12    1    1    2    0    0  0.39960611905E+02 -0.15875708644E+02 -0.58936282230E+01  0.43400731358E+02  0.00000000000E+00 0. -1.
         11    1    3    3    0    0 -0.25844702558E+02  0.13606981885E+02 -0.26040589597E+00  0.29209012613E+02  0.51100000000E-03 0. -1.
        -11    1    3    3    0    0 -0.15615707392E+02  0.28385549712E+01  0.59946760227E+01  0.16965961587E+02  0.51100000000E-03 0.  1.
        -12    1    3    3    0    0  0.14997980446E+01 -0.56982821224E+00  0.15935809620E+00  0.16122944424E+01  0.00000000000E+00 0.  1.
</event>
<event>
 7    1  0.2653124E-010  0.4778727E+02  0.7816164E-02  0.1312668E+00
        -11   -1    0    0    0    0  0.00000000000E+00  0.00000000000E+00  0.45593999997E+02  0.45594000000E+02  0.51100000000E-03 0.  1.
         11   -1    0    0    0    0 -0.00000000000E+00 -0.00000000000E+00 -0.45593999997E+02  0.45594000000E+02  0.51100000000E-03 0. -1.
    9900012    2    1    2    0    0 -0.79450705495E+01 -0.25583779607E+02  0.34146295152E+02  0.47787269618E+02  0.19999993498E+02 0.  0.
         12    1    1    2    0    0  0.79450705495E+01  0.25583779607E+02 -0.34146295152E+02  0.43400730382E+02  0.00000000000E+00 0. -1.
         11    1    3    3    0    0 -0.46096781399E+01 -0.24971306091E+01  0.59100850009E+01  0.79002467563E+01  0.51100000000E-03 0. -1.
        -11    1    3    3    0    0 -0.83213931911E+01 -0.58928854831E+01  0.11653969381E+02  0.15485047193E+02  0.51100000000E-03 0.  1.
         12    1    3    3    0    0  0.49860007814E+01 -0.17193763515E+02  0.16582240770E+02  0.24401975669E+02  0.00000000000E+00 0. -1.
</event>
<event>
 7    1  0.2653124E-010  0.4778728E+02  0.7816164E-02  0.1312668E+00
        -11   -1    0    0    0    0  0.00000000000E+00  0.00000000000E+00  0.45593999997E+02  0.45594000000E+02  0.51100000000E-03 0.  1.
         11   -1    0    0    0    0 -0.00000000000E+00 -0.00000000000E+00 -0.45593999997E+02  0.45594000000E+02  0.51100000000E-03 0. -1.
    9900012    2    1    2    0    0  0.13997352879E+02 -0.37566268570E+02  0.16627454076E+02  0.47787278221E+02  0.20000032722E+02 0.  0.
         12    1    1    2    0    0 -0.13997352879E+02  0.37566268570E+02 -0.16627454076E+02  0.43400721779E+02  0.00000000000E+00 0. -1.
         11    1    3    3    0    0  0.29214218586E+01 -0.61099321420E+01 -0.31176711461E+01  0.74555918673E+01  0.51100000000E-03 0. -1.
        -11    1    3    3    0    0 -0.22502044393E+00  0.22213089202E+00  0.25271034633E+01  0.25468075131E+01  0.51100000000E-03 0.  1.
        -12    1    3    3    0    0  0.11300951464E+02 -0.31678467320E+02  0.17218021759E+02  0.37784878841E+02  0.00000000000E+00 0.  1.
</event>
<event>
 7    1  0.2653124E-010  0.4778727E+02  0.7816164E-02  0.1312668E+00
        -11   -1    0    0    0    0  0.00000000000E+00  0.00000000000E+00  0.45593999997E+02  0.45594000000E+02  0.51100000000E-03 0.  1.
         11   -1    0    0    0    0 -0.00000000000E+00 -0.00000000000E+00 -0.45593999997E+02  0.45594000000E+02  0.51100000000E-03 0. -1.
    9900012    2    1    2    0    0 -0.42960841037E+02  0.61612451069E+01 -0.16833248208E+00  0.47787272590E+02  0.20000007047E+02 0.  0.
         12    1    1    2    0    0  0.42960841037E+02 -0.61612451069E+01  0.16833248208E+00  0.43400727410E+02  0.00000000000E+00 0. -1.
         11    1    3    3    0    0 -0.99265272120E+01  0.29737395643E+01 -0.60959740125E+01  0.12022477653E+02  0.51100000000E-03 0. -1.
        -11    1    3    3    0    0 -0.15043717393E+02  0.34237514890E+01 -0.29400775707E+01  0.15706035898E+02  0.51100000000E-03 0.  1.
        -12    1    3    3    0    0 -0.17990596432E+02 -0.23624594644E+00  0.88677191012E+01  0.20058759039E+02  0.00000000000E+00 0.  1.
</event>
<event>
 7    1  0.2653124E-010  0.4778727E+02  0.7816164E-02  0.1312668E+00
        -11   -1    0    0    0    0  0.00000000000E+00  0.00000000000E+00  0.45593999997E+02  0.45594000000E+02  0.51100000000E-03 0. -1.
         11   -1    0    0    0    0 -0.00000000000E+00 -0.00000000000E+00 -0.45593999997E+02  0.45594000000E+02  0.51100000000E-03 0.  1.
    9900012    2    1    2    0    0 -0.68638664906E+01  0.38568929363E+02 -0.18680154327E+02  0.47787272574E+02  0.20000006975E+02 0.  0.
         12    1    1    2    0    0  0.68638664906E+01 -0.38568929363E+02  0.18680154327E+02  0.43400727426E+02  0.00000000000E+00 0. -1.
         11    1    3    3    0    0 -0.41322717772E+01  0.26258708329E+00 -0.11189814078E+01  0.42891422999E+01  0.51100000000E-03 0. -1.
        -11    1    3    3    0    0 -0.29484643431E+01  0.91616237933E+01 -0.88597034949E+01  0.13081404313E+02  0.51100000000E-03 0.  1.
        -12    1    3    3    0    0  0.21686962969E+00  0.29144718486E+02 -0.87014694246E+01  0.30416725962E+02  0.00000000000E+00 0.  1.
</event>
<event>
 7    1  0.2653124E-010  0.4778728E+02  0.7816164E-02  0.1312668E+00
        -11   -1    0    0    0    0  0.00000000000E+00  0.00000000000E+00  0.45593999997E+02  0.45594000000E+02  0.51100000000E-03 0.  1.
         11   -1    0    0    0    0 -0.00000000000E+00 -0.00000000000E+00 -0.45593999997E+02  0.45594000000E+02  0.51100000000E-03 0. -1.
    9900012    2    1    2    0    0 -0.33372118531E+02 -0.66688270747E+01  0.26934200140E+02  0.47787277806E+02  0.20000030827E+02 0.  0.
         12    1    1    2    0    0  0.33372118531E+02  0.66688270747E+01 -0.26934200140E+02  0.43400722194E+02  0.00000000000E+00 0. -1.
         11    1    3    3    0    0 -0.20361816832E+01 -0.58811760640E+01  0.10420952084E+02  0.12137978017E+02  0.51100000000E-03 0. -1.
        -11    1    3    3    0    0 -0.68157592575E+01 -0.18108948713E+01  0.37532380061E+01  0.79887865338E+01  0.51100000000E-03 0.  1.
         12    1    3    3    0    0 -0.24520177590E+02  0.10232438606E+01  0.12760010050E+02  0.27660513255E+02  0.00000000000E+00 0. -1.
</event>
<event>
 7    1  0.2653124E-010  0.4778729E+02  0.7816164E-02  0.1312668E+00
        -11   -1    0    0    0    0  0.00000000000E+00  0.00000000000E+00  0.45593999997E+02  0.45594000000E+02  0.51100000000E-03 0.  1.
         11   -1    0    0    0    0 -0.00000000000E+00 -0.00000000000E+00 -0.45593999997E+02  0.45594000000E+02  0.51100000000E-03 0. -1.
    9900012    2    1    2    0    0  0.40304805075E+02 -0.72799902025E+01  0.14357782781E+02  0.47787291528E+02  0.20000093392E+02 0.  0.
         12    1    1    2    0    0 -0.40304805075E+02  0.72799902025E+01 -0.14357782781E+02  0.43400708472E+02  0.00000000000E+00 0. -1.
         11    1    3    3    0    0  0.17559938387E+02 -0.88151626200E+01  0.10159979858E+02  0.22119758569E+02  0.51100000000E-03 0. -1.
        -11    1    3    3    0    0  0.13319322636E+02 -0.38432594913E+01  0.51160555231E+01  0.14776637756E+02  0.51100000000E-03 0.  1.
         12    1    3    3    0    0  0.94255440521E+01  0.53784319088E+01 -0.91825260034E+00  0.10890895203E+02  0.00000000000E+00 0. -1.
</event>
<event>
 7    1  0.2653124E-010  0.4778727E+02  0.7816164E-02  0.1312668E+00
        -11   -1    0    0    0    0  0.00000000000E+00  0.00000000000E+00  0.45593999997E+02  0.45594000000E+02  0.51100000000E-03 0.  1.
         11   -1    0    0    0    0 -0.00000000000E+00 -0.00000000000E+00 -0.45593999997E+02  0.45594000000E+02  0.51100000000E-03 0. -1.
    9900012    2    1    2    0    0 -0.25919853920E+02  0.20706928325E+02  0.27982276132E+02  0.47787268607E+02  0.19999988888E+02 0.  0.
         12    1    1    2    0    0  0.25919853920E+02 -0.20706928325E+02 -0.27982276132E+02  0.43400731393E+02  0.00000000000E+00 0. -1.
         11    1    3    3    0    0 -0.45809778531E+01  0.36322851340E+01  0.11182432169E+02  0.12618464362E+02  0.51100000000E-03 0.  1.
        -11    1    3    3    0    0 -0.18201928794E+02  0.13460911590E+02  0.19318696853E+02  0.29761021505E+02  0.51100000000E-03 0. -1.
         12    1    3    3    0    0 -0.31369472732E+01  0.36137316012E+01 -0.25188528903E+01  0.54077827400E+01  0.00000000000E+00 0. -1.
</event>
<event>
 7    1  0.2653124E-010  0.4778727E+02  0.7816164E-02  0.1312668E+00
        -11   -1    0    0    0    0  0.00000000000E+00  0.00000000000E+00  0.45593999997E+02  0.45594000000E+02  0.51100000000E-03 0.  1.
         11   -1    0    0    0    0 -0.00000000000E+00 -0.00000000000E+00 -0.45593999997E+02  0.45594000000E+02  0.51100000000E-03 0. -1.
    9900012    2    1    2    0    0  0.35626548225E+02 -0.14755694680E+02  0.19915872960E+02  0.47787268904E+02  0.19999990242E+02 0.  0.
         12    1    1    2    0    0 -0.35626548225E+02  0.14755694680E+02 -0.19915872960E+02  0.43400731096E+02  0.00000000000E+00 0. -1.
         11    1    3    3    0    0  0.64583090388E+01 -0.17659075874E+01 -0.29539098893E+01  0.73180440791E+01  0.51100000000E-03 0. -1.
        -11    1    3    3    0    0  0.89635687111E+01  0.65937567004E+00  0.67352399244E+01  0.11231375580E+02  0.51100000000E-03 0.  1.
        -12    1    3    3    0    0  0.20204670475E+02 -0.13649162762E+02  0.16134542925E+02  0.29237849245E+02  0.00000000000E+00 0.  1.
</event>
<event>
 7    1  0.2653124E-010  0.4778727E+02  0.7816164E-02  0.1312668E+00
        -11   -1    0    0    0    0  0.00000000000E+00  0.00000000000E+00  0.45593999997E+02  0.45594000000E+02  0.51100000000E-03 0.  1.
         11   -1    0    0    0    0 -0.00000000000E+00 -0.00000000000E+00 -0.45593999997E+02  0.45594000000E+02  0.51100000000E-03 0. -1.
    9900012    2    1    2    0    0  0.19121217915E+02  0.37150376795E+02  0.11741045040E+02  0.47787267181E+02  0.19999982387E+02 0.  0.
         12    1    1    2    0    0 -0.19121217915E+02 -0.37150376795E+02 -0.11741045040E+02  0.43400732819E+02  0.00000000000E+00 0. -1.
         11    1    3    3    0    0  0.10319631194E+02  0.75689114161E+01  0.10028098757E+02  0.16258719905E+02  0.51100000000E-03 0. -1.
        -11    1    3    3    0    0  0.60273236730E+01  0.10019019404E+02  0.13189477027E+01  0.11766435475E+02  0.51100000000E-03 0.  1.
         12    1    3    3    0    0  0.27742630480E+01  0.19562445975E+02  0.39399857987E+00  0.19762111801E+02  0.00000000000E+00 0. -1.
</event>
<event>
 7    1  0.2653124E-010  0.4778727E+02  0.7816164E-02  0.1312668E+00
        -11   -1    0    0    0    0  0.00000000000E+00  0.00000000000E+00  0.45593999997E+02  0.45594000000E+02  0.51100000000E-03 0.  1.
         11   -1    0    0    0    0 -0.00000000000E+00 -0.00000000000E+00 -0.45593999997E+02  0.45594000000E+02  0.51100000000E-03 0. -1.
    9900012    2    1    2    0    0  0.10518011600E+02  0.42302723434E+01  0.41893906133E+02  0.47787272550E+02  0.20000006865E+02 0.  0.
         12    1    1    2    0    0 -0.10518011600E+02 -0.42302723434E+01 -0.41893906133E+02  0.43400727450E+02  0.00000000000E+00 0. -1.
         11    1    3    3    0    0  0.46870193716E+01 -0.78186151876E+01  0.15314440793E+02  0.17822205001E+02  0.51100000000E-03 0. -1.
        -11    1    3    3    0    0  0.84917623553E+00  0.17479195008E+01  0.72196338184E+01  0.74765925122E+01  0.51100000000E-03 0.  1.
         12    1    3    3    0    0  0.49818159933E+01  0.10300968030E+02  0.19359831521E+02  0.22488475037E+02  0.00000000000E+00 0. -1.
</event>
<event>
 7    1  0.2653124E-010  0.4778727E+02  0.7816164E-02  0.1312668E+00
        -11   -1    0    0    0    0  0.00000000000E+00  0.00000000000E+00  0.45593999997E+02  0.45594000000E+02  0.51100000000E-03 0.  1.
         11   -1    0    0    0    0 -0.00000000000E+00 -0.00000000000E+00 -0.45593999997E+02  0.45594000000E+02  0.51100000000E-03 0. -1.
    9900012    2    1    2    0    0  0.29714151952E+02  0.18945301493E+02  0.25333140642E+02  0.47787270863E+02  0.19999999172E+02 0.  0.
         12    1    1    2    0    0 -0.29714151952E+02 -0.18945301493E+02 -0.25333140642E+02  0.43400729137E+02  0.00000000000E+00 0. -1.
         11    1    3    3    0    0  0.93975237545E+00 -0.94871849666E+00 -0.84032574943E+00  0.15777670739E+01  0.51100000000E-03 0. -1.
        -11    1    3    3    0    0  0.29812882196E+02  0.16280705528E+02  0.25285446356E+02  0.42346465201E+02  0.51100000000E-03 0.  1.
        -12    1    3    3    0    0 -0.10384826194E+01  0.36133144620E+01  0.88802003511E+00  0.38630385883E+01  0.00000000000E+00 0.  1.
</event>
<event>
 7    1  0.2653124E-010  0.4778727E+02  0.7816164E-02  0.1312668E+00
        -11   -1    0    0    0    0  0.00000000000E+00  0.00000000000E+00  0.45593999997E+02  0.45594000000E+02  0.51100000000E-03 0.  1.
         11   -1    0    0    0    0 -0.00000000000E+00 -0.00000000000E+00 -0.45593999997E+02  0.45594000000E+02  0.51100000000E-03 0. -1.
    9900012    2    1    2    0    0 -0.34604128661E+02  0.25114185143E+02 -0.74468314902E+01  0.47787270571E+02  0.19999997841E+02 0.  0.
         12    1    1    2    0    0  0.34604128661E+02 -0.25114185143E+02  0.74468314902E+01  0.43400729429E+02  0.00000000000E+00 0. -1.
         11    1    3    3    0    0  0.32310010696E+00  0.74495551242E+00  0.15814513058E+00  0.82726207338E+00  0.51100000000E-03 0. -1.
        -11    1    3    3    0    0 -0.19594668152E+02  0.27097145063E+01 -0.25359941341E+01  0.19943039869E+02  0.51100000000E-03 0.  1.
        -12    1    3    3    0    0 -0.15332560615E+02  0.21659515124E+02 -0.50689824867E+01  0.27016968629E+02  0.00000000000E+00 0.  1.
</event>
<event>
 7    1  0.2653124E-010  0.4778727E+02  0.7816164E-02  0.1312668E+00
        -11   -1    0    0    0    0  0.00000000000E+00  0.00000000000E+00  0.45593999997E+02  0.45594000000E+02  0.51100000000E-03 0.  1.
         11   -1    0    0    0    0 -0.00000000000E+00 -0.00000000000E+00 -0.45593999997E+02  0.45594000000E+02  0.51100000000E-03 0. -1.
    9900012    2    1    2    0    0 -0.16411077982E+01 -0.28457712848E+02  0.32727490222E+02  0.47787271071E+02  0.20000000121E+02 0.  0.
         12    1    1    2    0    0  0.16411077982E+01  0.28457712848E+02 -0.32727490222E+02  0.43400728929E+02  0.00000000000E+00 0. -1.
         11    1    3    3    0    0  0.36626250495E-01 -0.64517048462E+01 -0.12813586408E+00  0.64530811219E+01  0.51100000000E-03 0. -1.
        -11    1    3    3    0    0 -0.38795854257E+00 -0.17622217975E+02  0.15781025095E+02  0.23658694628E+02  0.51100000000E-03 0.  1.
         12    1    3    3    0    0 -0.12897755061E+01 -0.43837900270E+01  0.17074600991E+02  0.17675495321E+02  0.00000000000E+00 0. -1.
</event>
<event>
 7    1  0.2653124E-010  0.4778728E+02  0.7816164E-02  0.1312668E+00
        -11   -1    0    0    0    0  0.00000000000E+00  0.00000000000E+00  0.45593999997E+02  0.45594000000E+02  0.51100000000E-03 0.  1.
         11   -1    0    0    0    0 -0.00000000000E+00 -0.00000000000E+00 -0.45593999997E+02  0.45594000000E+02  0.51100000000E-03 0. -1.
    9900012    2    1    2    0    0 -0.89169196526E+01  0.32818858146E+02  0.26963563089E+02  0.47787278341E+02  0.20000033267E+02 0.  0.
         12    1    1    2    0    0  0.89169196526E+01 -0.32818858146E+02 -0.26963563089E+02  0.43400721659E+02  0.00000000000E+00 0. -1.
         11    1    3    3    0    0 -0.78445581274E+01  0.10360061135E+02  0.15840703303E+02  0.20488919940E+02  0.51100000000E-03 0.  1.
        -11    1    3    3    0    0 -0.36746973015E+01  0.98272283265E+01  0.35582267503E+00  0.10497829627E+02  0.51100000000E-03 0. -1.
        -12    1    3    3    0    0  0.26023357763E+01  0.12631568684E+02  0.10767037111E+02  0.16800528773E+02  0.00000000000E+00 0.  1.
</event>
<event>
 7    1  0.2653124E-010  0.4778727E+02  0.7816164E-02  0.1312668E+00
        -11   -1    0    0    0    0  0.00000000000E+00  0.00000000000E+00  0.45593999997E+02  0.45594000000E+02  0.51100000000E-03 0.  1.
         11   -1    0    0    0    0 -0.00000000000E+00 -0.00000000000E+00 -0.45593999997E+02  0.45594000000E+02  0.51100000000E-03 0. -1.
    9900012    2    1    2    0    0 -0.23313080219E+02 -0.44896865487E+01  0.36331336674E+02  0.47787273979E+02  0.20000013380E+02 0.  0.
         12    1    1    2    0    0  0.23313080219E+02  0.44896865487E+01 -0.36331336674E+02  0.43400726021E+02  0.00000000000E+00 0. -1.
         11    1    3    3    0    0 -0.70515986882E+01  0.43098628393E+01  0.43132459171E+01  0.93222343006E+01  0.51100000000E-03 0. -1.
        -11    1    3    3    0    0 -0.83452509372E+01  0.60055827988E+00  0.17823739435E+02  0.19689834209E+02  0.51100000000E-03 0.  1.
        -12    1    3    3    0    0 -0.79162305934E+01 -0.94001076679E+01  0.14194351322E+02  0.18775205470E+02  0.00000000000E+00 0.  1.
</event>
<event>
 7    1  0.2653124E-010  0.4778727E+02  0.7816164E-02  0.1312668E+00
        -11   -1    0    0    0    0  0.00000000000E+00  0.00000000000E+00  0.45593999997E+02  0.45594000000E+02  0.51100000000E-03 0.  1.
         11   -1    0    0    0    0 -0.00000000000E+00 -0.00000000000E+00 -0.45593999997E+02  0.45594000000E+02  0.51100000000E-03 0. -1.
    9900012    2    1    2    0    0 -0.12747726927E+02  0.13317419528E+02  0.39290777010E+02  0.47787270020E+02  0.19999995331E+02 0.  0.
         12    1    1    2    0    0  0.12747726927E+02 -0.13317419528E+02 -0.39290777010E+02  0.43400729980E+02  0.00000000000E+00 0. -1.
         11    1    3    3    0    0 -0.31707367006E+01 -0.93131748377E+00  0.38818974719E+01  0.50980439116E+01  0.51100000000E-03 0. -1.
        -11    1    3    3    0    0 -0.13887379334E+02  0.10262532587E+02  0.30444397735E+02  0.35000574760E+02  0.51100000000E-03 0.  1.
         12    1    3    3    0    0  0.43103891077E+01  0.39862044251E+01  0.49644818036E+01  0.76886513484E+01  0.00000000000E+00 0. -1.
</event>
<event>
 7    1  0.2653124E-010  0.4778727E+02  0.7816164E-02  0.1312668E+00
        -11   -1    0    0    0    0  0.00000000000E+00  0.00000000000E+00  0.45593999997E+02  0.45594000000E+02  0.51100000000E-03 0. -1.
         11   -1    0    0    0    0 -0.00000000000E+00 -0.00000000000E+00 -0.45593999997E+02  0.45594000000E+02  0.51100000000E-03 0.  1.
    9900012    2    1    2    0    0  0.35579198607E+01 -0.28709051229E+02 -0.32353585942E+02  0.47787274897E+02  0.20000017564E+02 0.  0.
         12    1    1    2    0    0 -0.35579198607E+01  0.28709051229E+02  0.32353585942E+02  0.43400725103E+02  0.00000000000E+00 0. -1.
         11    1    3    3    0    0 -0.21032014646E+00 -0.14500711291E+02 -0.19929284799E+02  0.24647337694E+02  0.51100000000E-03 0.  1.
        -11    1    3    3    0    0  0.69405945345E+00 -0.32412288941E+01  0.26518897222E+01  0.42449738077E+01  0.51100000000E-03 0. -1.
         12    1    3    3    0    0  0.30741805537E+01 -0.10967111044E+02 -0.15076190865E+02  0.18894963395E+02  0.00000000000E+00 0. -1.
</event>
<event>
 7    1  0.2653124E-010  0.4778727E+02  0.7816164E-02  0.1312668E+00
        -11   -1    0    0    0    0  0.00000000000E+00  0.00000000000E+00  0.45593999997E+02  0.45594000000E+02  0.51100000000E-03 0. -1.
         11   -1    0    0    0    0 -0.00000000000E+00 -0.00000000000E+00 -0.45593999997E+02  0.45594000000E+02  0.51100000000E-03 0.  1.
    9900012    2    1    2    0    0 -0.21075107654E+02  0.32662797377E+01 -0.37799401511E+02  0.47787268433E+02  0.19999988096E+02 0.  0.
         12    1    1    2    0    0  0.21075107654E+02 -0.32662797377E+01  0.37799401511E+02  0.43400731567E+02  0.00000000000E+00 0. -1.
         11    1    3    3    0    0 -0.92153902105E+00 -0.41374550835E+01 -0.35415433676E+01  0.55236128052E+01  0.51100000000E-03 0. -1.
        -11    1    3    3    0    0 -0.35604598959E+00  0.47504910340E+01 -0.60730745578E+01  0.77185600118E+01  0.51100000000E-03 0.  1.
        -12    1    3    3    0    0 -0.19797522643E+02  0.26532437872E+01 -0.28184783585E+02  0.34545095616E+02  0.00000000000E+00 0.  1.
</event>
<event>
 7    1  0.2653124E-010  0.4778726E+02  0.7816164E-02  0.1312668E+00
        -11   -1    0    0    0    0  0.00000000000E+00  0.00000000000E+00  0.45593999997E+02  0.45594000000E+02  0.51100000000E-03 0. -1.
         11   -1    0    0    0    0 -0.00000000000E+00 -0.00000000000E+00 -0.45593999997E+02  0.45594000000E+02  0.51100000000E-03 0.  1.
    9900012    2    1    2    0    0  0.10645947640E+02 -0.40990912900E+02 -0.94885734052E+01  0.47787260758E+02  0.19999953098E+02 0.  0.
         12    1    1    2    0    0 -0.10645947640E+02  0.40990912900E+02  0.94885734052E+01  0.43400739242E+02  0.00000000000E+00 0. -1.
         11    1    3    3    0    0 -0.35630382838E+01 -0.27996374445E+01 -0.14096258658E+00  0.45335507435E+01  0.51100000000E-03 0.  1.
        -11    1    3    3    0    0 -0.17966477908E+01 -0.51346338647E+01 -0.20158606905E+01  0.58013880058E+01  0.51100000000E-03 0. -1.
        -12    1    3    3    0    0  0.16005633715E+02 -0.33056641591E+02 -0.73317501282E+01  0.37452322008E+02  0.00000000000E+00 0.  1.
</event>
<event>
 7    1  0.2653124E-010  0.4778728E+02  0.7816164E-02  0.1312668E+00
        -11   -1    0    0    0    0  0.00000000000E+00  0.00000000000E+00  0.45593999997E+02  0.45594000000E+02  0.51100000000E-03 0. -1.
         11   -1    0    0    0    0 -0.00000000000E+00 -0.00000000000E+00 -0.45593999997E+02  0.45594000000E+02  0.51100000000E-03 0.  1.
    9900012    2    1    2    0    0  0.29363941042E+02 -0.15570973864E+02 -0.27909251344E+02  0.47787279140E+02  0.20000036911E+02 0.  0.
         12    1    1    2    0    0 -0.29363941042E+02  0.15570973864E+02  0.27909251344E+02  0.43400720860E+02  0.00000000000E+00 0. -1.
         11    1    3    3    0    0  0.63947961385E+01 -0.68346573143E+01 -0.31866377982E+01  0.98873969767E+01  0.51100000000E-03 0. -1.
        -11    1    3    3    0    0  0.24985075573E+01 -0.36148410080E+01  0.11216784501E+01  0.45351712574E+01  0.51100000000E-03 0.  1.
        -12    1    3    3    0    0  0.20470637346E+02 -0.51214755418E+01 -0.25844291996E+02  0.33364710906E+02  0.00000000000E+00 0.  1.
</event>
