<event>
 7    1  0.1134395E-011  0.5930194E+02  0.7816164E-02  0.1266605E+00
        -11   -1    0    0    0    0  0.00000000000E+00  0.00000000000E+00  0.45593999997E+02  0.45594000000E+02  0.51100000000E-03 0. -1.
         11   -1    0    0    0    0 -0.00000000000E+00 -0.00000000000E+00 -0.45593999997E+02  0.45594000000E+02  0.51100000000E-03 0.  1.
    9900012    2    1    2    0    0  0.26834148005E+01  0.24023477958E+02 -0.20794054156E+02  0.59301938837E+02  0.49999990534E+02 0.  0.
         12    1    1    2    0    0 -0.26834148005E+01 -0.24023477958E+02  0.20794054156E+02  0.31886061163E+02  0.00000000000E+00 0. -1.
         11    1    3    3    0    0 -0.57649285049E+01  0.32252900298E+01 -0.59688062164E+01  0.89030076016E+01  0.51100000000E-03 0. -1.
        -11    1    3    3    0    0  0.32597522638E+01 -0.10322266488E+02 -0.15423751011E+02  0.18843228645E+02  0.51100000000E-03 0.  1.
         12    1    3    3    0    0  0.51885910416E+01  0.31120454416E+02  0.59850307071E+00  0.31555702591E+02  0.00000000000E+00 0. -1.
</event>
<event>
 7    1  0.1134395E-011  0.5930194E+02  0.7816164E-02  0.1266605E+00
        -11   -1    0    0    0    0  0.00000000000E+00  0.00000000000E+00  0.45593999997E+02  0.45594000000E+02  0.51100000000E-03 0. -1.
         11   -1    0    0    0    0 -0.00000000000E+00 -0.00000000000E+00 -0.45593999997E+02  0.45594000000E+02  0.51100000000E-03 0.  1.
    9900012    2    1    2    0    0 -0.27990476703E+02  0.11867546344E+02 -0.96132972029E+01  0.59301938384E+02  0.49999989706E+02 0.  0.
         12    1    1    2    0    0  0.27990476703E+02 -0.11867546344E+02  0.96132972029E+01  0.31886061616E+02  0.00000000000E+00 0. -1.
         11    1    3    3    0    0  0.20994668629E+01 -0.54214997734E+01  0.20531667607E+01  0.61657047375E+01  0.51100000000E-03 0. -1.
        -11    1    3    3    0    0 -0.10617354746E+02 -0.80037713946E+01 -0.16131763988E+02  0.20905080434E+02  0.51100000000E-03 0.  1.
        -12    1    3    3    0    0 -0.19472588820E+02  0.25292817513E+02  0.44653000241E+01  0.32231153212E+02  0.00000000000E+00 0.  1.
</event>
<event>
 7    1  0.1134395E-011  0.5930197E+02  0.7816164E-02  0.1266605E+00
        -11   -1    0    0    0    0  0.00000000000E+00  0.00000000000E+00  0.45593999997E+02  0.45594000000E+02  0.51100000000E-03 0. -1.
         11   -1    0    0    0    0 -0.00000000000E+00 -0.00000000000E+00 -0.45593999997E+02  0.45594000000E+02  0.51100000000E-03 0.  1.
    9900012    2    1    2    0    0  0.40933095173E+01 -0.14191861017E+02 -0.28258714352E+02  0.59301967968E+02  0.50000043662E+02 0.  0.
         12    1    1    2    0    0 -0.40933095173E+01  0.14191861017E+02  0.28258714352E+02  0.31886032032E+02  0.00000000000E+00 0. -1.
         11    1    3    3    0    0 -0.37351143196E+01 -0.40216510643E+01 -0.14447861009E+01  0.56755760414E+01  0.51100000000E-03 0. -1.
        -11    1    3    3    0    0 -0.14766358712E+02  0.49342789156E+01 -0.17516927779E+00  0.15569943564E+02  0.51100000000E-03 0.  1.
        -12    1    3    3    0    0  0.22594782549E+02 -0.15104488868E+02 -0.26638758973E+02  0.38056448363E+02  0.00000000000E+00 0.  1.
</event>
<event>
 7    1  0.1134395E-011  0.5930193E+02  0.7816164E-02  0.1266605E+00
        -11   -1    0    0    0    0  0.00000000000E+00  0.00000000000E+00  0.45593999997E+02  0.45594000000E+02  0.51100000000E-03 0. -1.
         11   -1    0    0    0    0 -0.00000000000E+00 -0.00000000000E+00 -0.45593999997E+02  0.45594000000E+02  0.51100000000E-03 0.  1.
    9900012    2    1    2    0    0 -0.13330902357E+02 -0.13803184638E+02 -0.25465287450E+02  0.59301925787E+02  0.49999966733E+02 0.  0.
         12    1    1    2    0    0  0.13330902357E+02  0.13803184638E+02  0.25465287450E+02  0.31886074213E+02  0.00000000000E+00 0. -1.
         11    1    3    3    0    0 -0.49184437107E+01 -0.57363376312E+01  0.80419453893E+01  0.11034923827E+02  0.51100000000E-03 0. -1.
        -11    1    3    3    0    0 -0.88466004243E+01 -0.29512218254E+01  0.41884805779E+01  0.10223278297E+02  0.51100000000E-03 0.  1.
        -12    1    3    3    0    0  0.43414177839E+00 -0.51156251815E+01 -0.37695713418E+02  0.38043723663E+02  0.00000000000E+00 0.  1.
</event>
<event>
 7    1  0.1134395E-011  0.5930197E+02  0.7816164E-02  0.1266605E+00
        -11   -1    0    0    0    0  0.00000000000E+00  0.00000000000E+00  0.45593999997E+02  0.45594000000E+02  0.51100000000E-03 0.  1.
         11   -1    0    0    0    0 -0.00000000000E+00 -0.00000000000E+00 -0.45593999997E+02  0.45594000000E+02  0.51100000000E-03 0. -1.
    9900012    2    1    2    0    0 -0.25958573032E+02  0.14554268215E+02  0.11447474983E+02  0.59301969821E+02  0.50000047040E+02 0.  0.
         12    1    1    2    0    0  0.25958573032E+02 -0.14554268215E+02 -0.11447474983E+02  0.31886030179E+02  0.00000000000E+00 0. -1.
         11    1    3    3    0    0 -0.38861785921E+01  0.91833534533E+01  0.46887647777E+01  0.11019114307E+02  0.51100000000E-03 0. -1.
        -11    1    3    3    0    0  0.23158698021E+01 -0.10246886611E+01  0.19755564500E+02  0.19917217897E+02  0.51100000000E-03 0.  1.
         12    1    3    3    0    0 -0.24388264242E+02  0.63956034224E+01 -0.12996854294E+02  0.28365637617E+02  0.00000000000E+00 0. -1.
</event>
<event>
 7    1  0.1134395E-011  0.5930192E+02  0.7816164E-02  0.1266605E+00
        -11   -1    0    0    0    0  0.00000000000E+00  0.00000000000E+00  0.45593999997E+02  0.45594000000E+02  0.51100000000E-03 0. -1.
         11   -1    0    0    0    0 -0.00000000000E+00 -0.00000000000E+00 -0.45593999997E+02  0.45594000000E+02  0.51100000000E-03 0.  1.
    9900012    2    1    2    0    0  0.22429909384E+02  0.88823820743E+01  0.20850048348E+02  0.59301920555E+02  0.49999957191E+02 0.  0.
         12    1    1    2    0    0 -0.22429909384E+02 -0.88823820743E+01 -0.20850048348E+02  0.31886079445E+02  0.00000000000E+00 0. -1.
         11    1    3    3    0    0 -0.46464005226E+01 -0.45756667205E+01 -0.47489564445E+01  0.80671154279E+01  0.51100000000E-03 0. -1.
        -11    1    3    3    0    0  0.18760680580E+02  0.42738212030E+01 -0.35463375618E+01  0.19565408093E+02  0.51100000000E-03 0.  1.
         12    1    3    3    0    0  0.83156293270E+01  0.91842275919E+01  0.29145342354E+02  0.31669397034E+02  0.00000000000E+00 0. -1.
</event>
<event>
 7    1  0.1134395E-011  0.5930196E+02  0.7816164E-02  0.1266605E+00
        -11   -1    0    0    0    0  0.00000000000E+00  0.00000000000E+00  0.45593999997E+02  0.45594000000E+02  0.51100000000E-03 0.  1.
         11   -1    0    0    0    0 -0.00000000000E+00 -0.00000000000E+00 -0.45593999997E+02  0.45594000000E+02  0.51100000000E-03 0. -1.
    9900012    2    1    2    0    0  0.21868124780E+02  0.98470497890E+01  0.21012864544E+02  0.59301956858E+02  0.50000023400E+02 0.  0.
         12    1    1    2    0    0 -0.21868124780E+02 -0.98470497890E+01 -0.21012864544E+02  0.31886043142E+02  0.00000000000E+00 0. -1.
         11    1    3    3    0    0  0.62205379614E+01  0.77213635391E+00  0.22452796944E+02  0.23311357274E+02  0.51100000000E-03 0. -1.
        -11    1    3    3    0    0  0.18938309639E+02  0.14488957659E+02  0.75326571455E+01  0.25006606927E+02  0.51100000000E-03 0.  1.
         12    1    3    3    0    0 -0.32907228213E+01 -0.54140442244E+01 -0.89725895457E+01  0.10983992658E+02  0.00000000000E+00 0. -1.
</event>
<event>
 7    1  0.1134395E-011  0.5930192E+02  0.7816164E-02  0.1266605E+00
        -11   -1    0    0    0    0  0.00000000000E+00  0.00000000000E+00  0.45593999997E+02  0.45594000000E+02  0.51100000000E-03 0. -1.
         11   -1    0    0    0    0 -0.00000000000E+00 -0.00000000000E+00 -0.45593999997E+02  0.45594000000E+02  0.51100000000E-03 0.  1.
    9900012    2    1    2    0    0 -0.25377492398E+02  0.31470402477E+01 -0.19047341847E+02  0.59301918175E+02  0.49999952850E+02 0.  0.
         12    1    1    2    0    0  0.25377492398E+02 -0.31470402477E+01  0.19047341847E+02  0.31886081825E+02  0.00000000000E+00 0. -1.
         11    1    3    3    0    0  0.20154866866E+01  0.81755183092E+00 -0.45136729420E+01  0.50103713703E+01  0.51100000000E-03 0. -1.
        -11    1    3    3    0    0 -0.32775045219E+02 -0.33882501246E+01 -0.24890631899E+02  0.41294398950E+02  0.51100000000E-03 0.  1.
         12    1    3    3    0    0  0.53820661346E+01  0.57177385415E+01  0.10356962994E+02  0.12997147855E+02  0.00000000000E+00 0. -1.
</event>
<event>
 7    1  0.1134395E-011  0.5930197E+02  0.7816164E-02  0.1266605E+00
        -11   -1    0    0    0    0  0.00000000000E+00  0.00000000000E+00  0.45593999997E+02  0.45594000000E+02  0.51100000000E-03 0. -1.
         11   -1    0    0    0    0 -0.00000000000E+00 -0.00000000000E+00 -0.45593999997E+02  0.45594000000E+02  0.51100000000E-03 0.  1.
    9900012    2    1    2    0    0 -0.18822509978E+02  0.14830327498E+02 -0.21035526317E+02  0.59301970724E+02  0.50000048688E+02 0.  0.
         12    1    1    2    0    0  0.18822509978E+02 -0.14830327498E+02  0.21035526317E+02  0.31886029276E+02  0.00000000000E+00 0. -1.
         11    1    3    3    0    0  0.47366387667E+00 -0.33405112305E+01 -0.21849628761E+02  0.22108587698E+02  0.51100000000E-03 0. -1.
        -11    1    3    3    0    0 -0.52345939851E+01 -0.26885358930E+01 -0.85255449367E+01  0.10359252684E+02  0.51100000000E-03 0.  1.
         12    1    3    3    0    0 -0.14061579870E+02  0.20859374621E+02  0.93396473811E+01  0.26834130342E+02  0.00000000000E+00 0. -1.
</event>
<event>
 7    1  0.1134395E-011  0.5930195E+02  0.7816164E-02  0.1266605E+00
        -11   -1    0    0    0    0  0.00000000000E+00  0.00000000000E+00  0.45593999997E+02  0.45594000000E+02  0.51100000000E-03 0.  1.
         11   -1    0    0    0    0 -0.00000000000E+00 -0.00000000000E+00 -0.45593999997E+02  0.45594000000E+02  0.51100000000E-03 0. -1.
    9900012    2    1    2    0    0 -0.24824726043E+02 -0.17427143582E+02  0.98360425185E+01  0.59301951500E+02  0.50000013628E+02 0.  0.
         12    1    1    2    0    0  0.24824726043E+02  0.17427143582E+02 -0.98360425185E+01  0.31886048500E+02  0.00000000000E+00 0. -1.
         11    1    3    3    0    0 -0.20174462436E+02 -0.13419649581E+02  0.10791886086E+02  0.26524719320E+02  0.51100000000E-03 0. -1.
        -11    1    3    3    0    0 -0.68473031119E+01 -0.16880096443E+02 -0.53725898951E+01  0.18991786074E+02  0.51100000000E-03 0.  1.
         12    1    3    3    0    0  0.21970395058E+01  0.12872602442E+02  0.44167463277E+01  0.13785446106E+02  0.00000000000E+00 0. -1.
</event>
<event>
 7    1  0.1134395E-011  0.5930184E+02  0.7816164E-02  0.1266605E+00
        -11   -1    0    0    0    0  0.00000000000E+00  0.00000000000E+00  0.45593999997E+02  0.45594000000E+02  0.51100000000E-03 0.  1.
         11   -1    0    0    0    0 -0.00000000000E+00 -0.00000000000E+00 -0.45593999997E+02  0.45594000000E+02  0.51100000000E-03 0. -1.
    9900012    2    1    2    0    0 -0.20116226982E+02 -0.75521130951E+00  0.24728412148E+02  0.59301838433E+02  0.49999807420E+02 0.  0.
         12    1    1    2    0    0  0.20116226982E+02  0.75521130951E+00 -0.24728412148E+02  0.31886161567E+02  0.00000000000E+00 0. -1.
         11    1    3    3    0    0  0.13278119168E+02 -0.54211648770E+01  0.11014172907E+02  0.18083403506E+02  0.51100000000E-03 0. -1.
        -11    1    3    3    0    0  0.16878098723E+01  0.13350302211E+01 -0.17120834430E+01  0.27499523330E+01  0.51100000000E-03 0.  1.
        -12    1    3    3    0    0 -0.35082156022E+02  0.33309233464E+01  0.15426322684E+02  0.38468482594E+02  0.00000000000E+00 0.  1.
</event>
<event>
 7    1  0.1134395E-011  0.5930195E+02  0.7816164E-02  0.1266605E+00
        -11   -1    0    0    0    0  0.00000000000E+00  0.00000000000E+00  0.45593999997E+02  0.45594000000E+02  0.51100000000E-03 0.  1.
         11   -1    0    0    0    0 -0.00000000000E+00 -0.00000000000E+00 -0.45593999997E+02  0.45594000000E+02  0.51100000000E-03 0. -1.
    9900012    2    1    2    0    0  0.19496784575E+02  0.12820029989E+02  0.21731135374E+02  0.59301952544E+02  0.50000015532E+02 0.  0.
         12    1    1    2    0    0 -0.19496784575E+02 -0.12820029989E+02 -0.21731135374E+02  0.31886047456E+02  0.00000000000E+00 0. -1.
         11    1    3    3    0    0  0.61989727115E+01 -0.81208538739E+00  0.27616195541E-01  0.62520003414E+01  0.51100000000E-03 0. -1.
        -11    1    3    3    0    0  0.14255275857E+02 -0.40537682492E+00  0.32384162351E+02  0.35385183221E+02  0.51100000000E-03 0.  1.
         12    1    3    3    0    0 -0.95746399400E+00  0.14037492202E+02 -0.10680643172E+02  0.17664768982E+02  0.00000000000E+00 0. -1.
</event>
<event>
 7    1  0.1134395E-011  0.5930194E+02  0.7816164E-02  0.1266605E+00
        -11   -1    0    0    0    0  0.00000000000E+00  0.00000000000E+00  0.45593999997E+02  0.45594000000E+02  0.51100000000E-03 0.  1.
         11   -1    0    0    0    0 -0.00000000000E+00 -0.00000000000E+00 -0.45593999997E+02  0.45594000000E+02  0.51100000000E-03 0. -1.
    9900012    2    1    2    0    0  0.19281997742E+02 -0.23654319758E+02  0.92411337109E+01  0.59301939842E+02  0.49999992366E+02 0.  0.
         12    1    1    2    0    0 -0.19281997742E+02  0.23654319758E+02 -0.92411337109E+01  0.31886060158E+02  0.00000000000E+00 0. -1.
         11    1    3    3    0    0  0.66948558552E+01  0.93022219401E+01 -0.71251282695E+01  0.13495179920E+02  0.51100000000E-03 0. -1.
        -11    1    3    3    0    0  0.18672679695E+02 -0.15416231699E+02  0.95321375108E+01  0.26022890166E+02  0.51100000000E-03 0.  1.
        -12    1    3    3    0    0 -0.60855378082E+01 -0.17540309999E+02  0.68341244696E+01  0.19783869757E+02  0.00000000000E+00 0.  1.
</event>
<event>
 7    1  0.1134395E-011  0.5930194E+02  0.7816164E-02  0.1266605E+00
        -11   -1    0    0    0    0  0.00000000000E+00  0.00000000000E+00  0.45593999997E+02  0.45594000000E+02  0.51100000000E-03 0.  1.
         11   -1    0    0    0    0 -0.00000000000E+00 -0.00000000000E+00 -0.45593999997E+02  0.45594000000E+02  0.51100000000E-03 0. -1.
    9900012    2    1    2    0    0  0.31505342033E+01 -0.31499049963E+02  0.38216131038E+01  0.59301941275E+02  0.49999994979E+02 0.  0.
         12    1    1    2    0    0 -0.31505342033E+01  0.31499049963E+02 -0.38216131038E+01  0.31886058725E+02  0.00000000000E+00 0. -1.
         11    1    3    3    0    0 -0.11745873783E+01 -0.47807708999E+01  0.14511615023E+02  0.15323915842E+02  0.51100000000E-03 0. -1.
        -11    1    3    3    0    0 -0.11251111746E+01 -0.13135780479E+02  0.11434021539E+02  0.17451402602E+02  0.51100000000E-03 0.  1.
         12    1    3    3    0    0  0.54502327562E+01 -0.13582498583E+02 -0.22124023458E+02  0.26526622831E+02  0.00000000000E+00 0. -1.
</event>
<event>
 7    1  0.1134395E-011  0.5930195E+02  0.7816164E-02  0.1266605E+00
        -11   -1    0    0    0    0  0.00000000000E+00  0.00000000000E+00  0.45593999997E+02  0.45594000000E+02  0.51100000000E-03 0. -1.
         11   -1    0    0    0    0 -0.00000000000E+00 -0.00000000000E+00 -0.45593999997E+02  0.45594000000E+02  0.51100000000E-03 0.  1.
    9900012    2    1    2    0    0 -0.31105173739E+02 -0.45336201339E+01  0.53511331315E+01  0.59301950219E+02  0.50000011291E+02 0.  0.
         12    1    1    2    0    0  0.31105173739E+02  0.45336201339E+01 -0.53511331315E+01  0.31886049781E+02  0.00000000000E+00 0. -1.
         11    1    3    3    0    0 -0.11592023756E+02 -0.11401053305E+02  0.17830334745E+02  0.24130475930E+02  0.51100000000E-03 0. -1.
        -11    1    3    3    0    0 -0.22527170176E+02  0.30023503343E+01 -0.10671463246E+01  0.22751402269E+02  0.51100000000E-03 0.  1.
         12    1    3    3    0    0  0.30140201926E+01  0.38650828365E+01 -0.11412055289E+02  0.12420072020E+02  0.00000000000E+00 0. -1.
</event>
<event>
 7    1  0.1134395E-011  0.5930195E+02  0.7816164E-02  0.1266605E+00
        -11   -1    0    0    0    0  0.00000000000E+00  0.00000000000E+00  0.45593999997E+02  0.45594000000E+02  0.51100000000E-03 0. -1.
         11   -1    0    0    0    0 -0.00000000000E+00 -0.00000000000E+00 -0.45593999997E+02  0.45594000000E+02  0.51100000000E-03 0.  1.
    9900012    2    1    2    0    0  0.21687246678E+02  0.55463996174E+01 -0.22707286292E+02  0.59301951829E+02  0.50000014229E+02 0.  0.
         12    1    1    2    0    0 -0.21687246678E+02 -0.55463996174E+01  0.22707286292E+02  0.31886048171E+02  0.00000000000E+00 0. -1.
         11    1    3    3    0    0  0.30569791918E+02 -0.75736799515E+01 -0.11924850752E+02  0.33676028146E+02  0.51100000000E-03 0. -1.
        -11    1    3    3    0    0  0.31032184182E+01 -0.20459062186E+01 -0.55977976763E+00  0.37588629205E+01  0.51100000000E-03 0.  1.
         12    1    3    3    0    0 -0.11985763659E+02  0.15165985788E+02 -0.10222655772E+02  0.21867060763E+02  0.00000000000E+00 0. -1.
</event>
<event>
 7    1  0.1134395E-011  0.5930199E+02  0.7816164E-02  0.1266605E+00
        -11   -1    0    0    0    0  0.00000000000E+00  0.00000000000E+00  0.45593999997E+02  0.45594000000E+02  0.51100000000E-03 0.  1.
         11   -1    0    0    0    0 -0.00000000000E+00 -0.00000000000E+00 -0.45593999997E+02  0.45594000000E+02  0.51100000000E-03 0. -1.
    9900012    2    1    2    0    0 -0.21474688943E+02  0.70880393773E+00  0.23559565926E+02  0.59301987160E+02  0.50000078663E+02 0.  0.
         12    1    1    2    0    0  0.21474688943E+02 -0.70880393773E+00 -0.23559565926E+02  0.31886012840E+02  0.00000000000E+00 0. -1.
         11    1    3    3    0    0  0.18753800093E+01  0.13183080805E+02  0.39607379038E+01  0.13892376136E+02  0.51100000000E-03 0. -1.
        -11    1    3    3    0    0 -0.16697845150E+01  0.38964399570E+01  0.17673366282E+02  0.18174660950E+02  0.51100000000E-03 0.  1.
        -12    1    3    3    0    0 -0.21680284437E+02 -0.16370716824E+02  0.19254617401E+01  0.27234950074E+02  0.00000000000E+00 0.  1.
</event>
<event>
 7    1  0.1134395E-011  0.5930195E+02  0.7816164E-02  0.1266605E+00
        -11   -1    0    0    0    0  0.00000000000E+00  0.00000000000E+00  0.45593999997E+02  0.45594000000E+02  0.51100000000E-03 0.  1.
         11   -1    0    0    0    0 -0.00000000000E+00 -0.00000000000E+00 -0.45593999997E+02  0.45594000000E+02  0.51100000000E-03 0. -1.
    9900012    2    1    2    0    0  0.51869718758E+00 -0.17399941863E+02  0.26715037001E+02  0.59301949358E+02  0.50000009721E+02 0.  0.
         12    1    1    2    0    0 -0.51869718758E+00  0.17399941863E+02 -0.26715037001E+02  0.31886050642E+02  0.00000000000E+00 0. -1.
         11    1    3    3    0    0  0.12887424671E+01 -0.31264335141E+02  0.13901689126E+02  0.34239983495E+02  0.51100000000E-03 0. -1.
        -11    1    3    3    0    0  0.47154201808E+01 -0.57927741159E+00  0.71948085412E+01  0.86218339120E+01  0.51100000000E-03 0.  1.
         12    1    3    3    0    0 -0.54854654602E+01  0.14443670690E+02  0.56185393340E+01  0.16440131951E+02  0.00000000000E+00 0. -1.
</event>
<event>
 7    1  0.1134395E-011  0.5930194E+02  0.7816164E-02  0.1266605E+00
        -11   -1    0    0    0    0  0.00000000000E+00  0.00000000000E+00  0.45593999997E+02  0.45594000000E+02  0.51100000000E-03 0.  1.
         11   -1    0    0    0    0 -0.00000000000E+00 -0.00000000000E+00 -0.45593999997E+02  0.45594000000E+02  0.51100000000E-03 0. -1.
    9900012    2    1    2    0    0  0.96402956099E+01  0.23479317477E+02  0.19300437399E+02  0.59301944546E+02  0.50000000945E+02 0.  0.
         12    1    1    2    0    0 -0.96402956099E+01 -0.23479317477E+02 -0.19300437399E+02  0.31886055454E+02  0.00000000000E+00 0. -1.
         11    1    3    3    0    0 -0.10325647672E+02  0.18111481111E+02  0.62798566820E+00  0.20857591283E+02  0.51100000000E-03 0. -1.
        -11    1    3    3    0    0 -0.84482111774E+00 -0.73195999874E+01 -0.57067155537E+00  0.73902593311E+01  0.51100000000E-03 0.  1.
        -12    1    3    3    0    0  0.20810764399E+02  0.12687436353E+02  0.19243123286E+02  0.31054093931E+02  0.00000000000E+00 0.  1.
</event>
<event>
 7    1  0.1134395E-011  0.5930195E+02  0.7816164E-02  0.1266605E+00
        -11   -1    0    0    0    0  0.00000000000E+00  0.00000000000E+00  0.45593999997E+02  0.45594000000E+02  0.51100000000E-03 0.  1.
         11   -1    0    0    0    0 -0.00000000000E+00 -0.00000000000E+00 -0.45593999997E+02  0.45594000000E+02  0.51100000000E-03 0. -1.
    9900012    2    1    2    0    0 -0.12462760707E+00 -0.25267951290E+02  0.19448273523E+02  0.59301949171E+02  0.50000009380E+02 0.  0.
         12    1    1    2    0    0  0.12462760707E+00  0.25267951290E+02 -0.19448273523E+02  0.31886050829E+02  0.00000000000E+00 0. -1.
         11    1    3    3    0    0  0.22946274375E+01 -0.24031307066E+02  0.30497275536E+01  0.24332485956E+02  0.51100000000E-03 0. -1.
        -11    1    3    3    0    0 -0.36838953573E+01 -0.13415345578E+02 -0.71093205948E+00  0.13930111509E+02  0.51100000000E-03 0.  1.
        -12    1    3    3    0    0  0.12646403128E+01  0.12178701355E+02  0.17109478029E+02  0.21039351706E+02  0.00000000000E+00 0.  1.
</event>
<event>
 7    1  0.1134395E-011  0.5930195E+02  0.7816164E-02  0.1266605E+00
        -11   -1    0    0    0    0  0.00000000000E+00  0.00000000000E+00  0.45593999997E+02  0.45594000000E+02  0.51100000000E-03 0.  1.
         11   -1    0    0    0    0 -0.00000000000E+00 -0.00000000000E+00 -0.45593999997E+02  0.45594000000E+02  0.51100000000E-03 0. -1.
    9900012    2    1    2    0    0 -0.88614981809E+01 -0.11662266304E+02  0.28322877444E+02  0.59301953019E+02  0.50000016398E+02 0.  0.
         12    1    1    2    0    0  0.88614981809E+01  0.11662266304E+02 -0.28322877444E+02  0.31886046981E+02  0.00000000000E+00 0. -1.
         11    1    3    3    0    0 -0.14054827587E+01  0.28722236025E+01  0.15150079356E+00  0.32012502181E+01  0.51100000000E-03 0. -1.
        -11    1    3    3    0    0 -0.87724775171E+01  0.11502814448E+02  0.26234062920E+02  0.29958256951E+02  0.51100000000E-03 0.  1.
        -12    1    3    3    0    0  0.13164620949E+01 -0.26037304355E+02  0.19373137304E+01  0.26142445850E+02  0.00000000000E+00 0.  1.
</event>
<event>
 7    1  0.1134395E-011  0.5930188E+02  0.7816164E-02  0.1266605E+00
        -11   -1    0    0    0    0  0.00000000000E+00  0.00000000000E+00  0.45593999997E+02  0.45594000000E+02  0.51100000000E-03 0.  1.
         11   -1    0    0    0    0 -0.00000000000E+00 -0.00000000000E+00 -0.45593999997E+02  0.45594000000E+02  0.51100000000E-03 0. -1.
    9900012    2    1    2    0    0  0.18390154213E+02  0.17024190983E+02  0.19715568126E+02  0.59301882690E+02  0.49999888134E+02 0.  0.
         12    1    1    2    0    0 -0.18390154213E+02 -0.17024190983E+02 -0.19715568126E+02  0.31886117310E+02  0.00000000000E+00 0. -1.
         11    1    3    3    0    0  0.20684437903E+02  0.40881545598E+01 -0.17761834062E+01  0.21159248730E+02  0.51100000000E-03 0. -1.
        -11    1    3    3    0    0  0.97821694634E+01  0.30987382540E+01  0.20020870094E+02  0.22497294454E+02  0.51100000000E-03 0.  1.
        -12    1    3    3    0    0 -0.12076453153E+02  0.98372981688E+01  0.14708814383E+01  0.15645339505E+02  0.00000000000E+00 0.  1.
</event>
<event>
 7    1  0.1134395E-011  0.5930198E+02  0.7816164E-02  0.1266605E+00
        -11   -1    0    0    0    0  0.00000000000E+00  0.00000000000E+00  0.45593999997E+02  0.45594000000E+02  0.51100000000E-03 0. -1.
         11   -1    0    0    0    0 -0.00000000000E+00 -0.00000000000E+00 -0.45593999997E+02  0.45594000000E+02  0.51100000000E-03 0.  1.
    9900012    2    1    2    0    0 -0.61852009875E+01 -0.17456886347E+02 -0.25956092206E+02  0.59301979321E+02  0.50000064366E+02 0.  0.
         12    1    1    2    0    0  0.61852009875E+01  0.17456886347E+02  0.25956092206E+02  0.31886020679E+02  0.00000000000E+00 0. -1.
         11    1    3    3    0    0 -0.10904519039E+02 -0.14076215256E+02 -0.75083871345E+01  0.19324188185E+02  0.51100000000E-03 0. -1.
        -11    1    3    3    0    0  0.50633179439E+01 -0.11673571993E+02 -0.25878412982E+02  0.28837505620E+02  0.51100000000E-03 0.  1.
         12    1    3    3    0    0 -0.34399989243E+00  0.82929009025E+01  0.74307079106E+01  0.11140285515E+02  0.00000000000E+00 0. -1.
</event>
<event>
 7    1  0.1134395E-011  0.5930200E+02  0.7816164E-02  0.1266605E+00
        -11   -1    0    0    0    0  0.00000000000E+00  0.00000000000E+00  0.45593999997E+02  0.45594000000E+02  0.51100000000E-03 0.  1.
         11   -1    0    0    0    0 -0.00000000000E+00 -0.00000000000E+00 -0.45593999997E+02  0.45594000000E+02  0.51100000000E-03 0. -1.
    9900012    2    1    2    0    0  0.31442287378E+02 -0.32729748994E+01 -0.41698327066E+01  0.59301995154E+02  0.50000093242E+02 0.  0.
         12    1    1    2    0    0 -0.31442287378E+02  0.32729748994E+01  0.41698327066E+01  0.31886004846E+02  0.00000000000E+00 0. -1.
         11    1    3    3    0    0  0.75613245255E+01 -0.87069083847E+01 -0.15652022005E+02  0.19441442213E+02  0.51100000000E-03 0. -1.
        -11    1    3    3    0    0  0.28003829923E+02 -0.34427982842E+01  0.68605144461E+01  0.29036769950E+02  0.51100000000E-03 0.  1.
         12    1    3    3    0    0 -0.41228670713E+01  0.88767317695E+01  0.46216748526E+01  0.10823782991E+02  0.00000000000E+00 0. -1.
</event>
<event>
 7    1  0.1134395E-011  0.5930194E+02  0.7816164E-02  0.1266605E+00
        -11   -1    0    0    0    0  0.00000000000E+00  0.00000000000E+00  0.45593999997E+02  0.45594000000E+02  0.51100000000E-03 0.  1.
         11   -1    0    0    0    0 -0.00000000000E+00 -0.00000000000E+00 -0.45593999997E+02  0.45594000000E+02  0.51100000000E-03 0. -1.
    9900012    2    1    2    0    0 -0.18586010646E+01  0.76905735579E+01  0.30888858251E+02  0.59301939039E+02  0.49999990902E+02 0.  0.
         12    1    1    2    0    0  0.18586010646E+01 -0.76905735579E+01 -0.30888858251E+02  0.31886060961E+02  0.00000000000E+00 0. -1.
         11    1    3    3    0    0 -0.41502685173E+01 -0.82455399517E+00 -0.25103736944E+01  0.49200197564E+01  0.51100000000E-03 0. -1.
        -11    1    3    3    0    0  0.17236682961E+02  0.49284599131E+01  0.34673969884E+00  0.17930788752E+02  0.51100000000E-03 0.  1.
         12    1    3    3    0    0 -0.14945015508E+02  0.35866676400E+01  0.33052492246E+02  0.36451130531E+02  0.00000000000E+00 0. -1.
</event>
<event>
 7    1  0.1134395E-011  0.5930195E+02  0.7816164E-02  0.1266605E+00
        -11   -1    0    0    0    0  0.00000000000E+00  0.00000000000E+00  0.45593999997E+02  0.45594000000E+02  0.51100000000E-03 0.  1.
         11   -1    0    0    0    0 -0.00000000000E+00 -0.00000000000E+00 -0.45593999997E+02  0.45594000000E+02  0.51100000000E-03 0. -1.
    9900012    2    1    2    0    0 -0.86987398704E+01 -0.57773976535E+01  0.30127629015E+02  0.59301946167E+02  0.50000003901E+02 0.  0.
         12    1    1    2    0    0  0.86987398704E+01  0.57773976535E+01 -0.30127629015E+02  0.31886053833E+02  0.00000000000E+00 0. -1.
         11    1    3    3    0    0 -0.10892260636E+02 -0.41531500061E+00 -0.10141108663E+02  0.14888113161E+02  0.51100000000E-03 0. -1.
        -11    1    3    3    0    0  0.83720467972E+00  0.52538098460E+01  0.26213215974E+02  0.26747637681E+02  0.51100000000E-03 0.  1.
        -12    1    3    3    0    0  0.13563160862E+01 -0.10615892499E+02  0.14055521705E+02  0.17666195325E+02  0.00000000000E+00 0.  1.
</event>
<event>
 7    1  0.1134395E-011  0.5930212E+02  0.7816164E-02  0.1266604E+00
        -11   -1    0    0    0    0  0.00000000000E+00  0.00000000000E+00  0.45593999997E+02  0.45594000000E+02  0.51100000000E-03 0.  1.
         11   -1    0    0    0    0 -0.00000000000E+00 -0.00000000000E+00 -0.45593999997E+02  0.45594000000E+02  0.51100000000E-03 0. -1.
    9900012    2    1    2    0    0  0.80462751292E+01  0.24590821488E+02  0.18634868770E+02  0.59302119441E+02  0.50000319911E+02 0.  0.
         12    1    1    2    0    0 -0.80462751292E+01 -0.24590821488E+02 -0.18634868770E+02  0.31885880559E+02  0.00000000000E+00 0. -1.
         11    1    3    3    0    0 -0.25797356615E+00 -0.40552257576E-01  0.65705354723E+01  0.65757228881E+01  0.51100000000E-03 0. -1.
        -11    1    3    3    0    0 -0.12024899366E+02  0.13346011941E+02  0.21161742765E+02  0.27758486929E+02  0.51100000000E-03 0.  1.
         12    1    3    3    0    0  0.20329148061E+02  0.11285361805E+02 -0.90974094672E+01  0.24967909624E+02  0.00000000000E+00 0. -1.
</event>
<event>
 7    1  0.1134395E-011  0.5930187E+02  0.7816164E-02  0.1266605E+00
        -11   -1    0    0    0    0  0.00000000000E+00  0.00000000000E+00  0.45593999997E+02  0.45594000000E+02  0.51100000000E-03 0.  1.
         11   -1    0    0    0    0 -0.00000000000E+00 -0.00000000000E+00 -0.45593999997E+02  0.45594000000E+02  0.51100000000E-03 0. -1.
    9900012    2    1    2    0    0  0.15572501320E+02 -0.15397991747E+02  0.23175936794E+02  0.59301874593E+02  0.49999873367E+02 0.  0.
         12    1    1    2    0    0 -0.15572501320E+02  0.15397991747E+02 -0.23175936794E+02  0.31886125407E+02  0.00000000000E+00 0. -1.
         11    1    3    3    0    0  0.20085136354E+01  0.33841528769E+01 -0.50486484052E+01  0.64012083780E+01  0.51100000000E-03 0. -1.
        -11    1    3    3    0    0 -0.88237813842E+01 -0.20183164137E+02  0.11016527353E+02  0.24628907967E+02  0.51100000000E-03 0.  1.
         12    1    3    3    0    0  0.22387769069E+02  0.14010195130E+01  0.17208057846E+02  0.28271758248E+02  0.00000000000E+00 0. -1.
</event>
<event>
 7    1  0.1134395E-011  0.5930196E+02  0.7816164E-02  0.1266605E+00
        -11   -1    0    0    0    0  0.00000000000E+00  0.00000000000E+00  0.45593999997E+02  0.45594000000E+02  0.51100000000E-03 0.  1.
         11   -1    0    0    0    0 -0.00000000000E+00 -0.00000000000E+00 -0.45593999997E+02  0.45594000000E+02  0.51100000000E-03 0. -1.
    9900012    2    1    2    0    0 -0.30034549707E+01 -0.23505050572E+02  0.21335686012E+02  0.59301958513E+02  0.50000026417E+02 0.  0.
         12    1    1    2    0    0  0.30034549707E+01  0.23505050572E+02 -0.21335686012E+02  0.31886041487E+02  0.00000000000E+00 0. -1.
         11    1    3    3    0    0 -0.59606930766E+01 -0.17009712535E+02 -0.18535910290E+01  0.18118939882E+02  0.51100000000E-03 0. -1.
        -11    1    3    3    0    0 -0.11457452785E+02  0.32685661186E+01  0.20294915517E+02  0.23533812800E+02  0.51100000000E-03 0.  1.
        -12    1    3    3    0    0  0.14414690891E+02 -0.97639041554E+01  0.28943615233E+01  0.17649205831E+02  0.00000000000E+00 0.  1.
</event>
<event>
 7    1  0.1134395E-011  0.5930193E+02  0.7816164E-02  0.1266605E+00
        -11   -1    0    0    0    0  0.00000000000E+00  0.00000000000E+00  0.45593999997E+02  0.45594000000E+02  0.51100000000E-03 0. -1.
         11   -1    0    0    0    0 -0.00000000000E+00 -0.00000000000E+00 -0.45593999997E+02  0.45594000000E+02  0.51100000000E-03 0.  1.
    9900012    2    1    2    0    0 -0.31059987667E+02  0.25071726191E+01  0.67611144527E+01  0.59301930674E+02  0.49999975646E+02 0.  0.
         12    1    1    2    0    0  0.31059987667E+02 -0.25071726191E+01 -0.67611144527E+01  0.31886069326E+02  0.00000000000E+00 0. -1.
         11    1    3    3    0    0 -0.25289034727E+02  0.65528300463E+00  0.10820146593E+02  0.27514364353E+02  0.51100000000E-03 0. -1.
        -11    1    3    3    0    0 -0.11423641228E+02  0.85133680545E+01 -0.13000069999E+02  0.19286752832E+02  0.51100000000E-03 0.  1.
         12    1    3    3    0    0  0.56526882878E+01 -0.66614784400E+01  0.89410378588E+01  0.12500813489E+02  0.00000000000E+00 0. -1.
</event>
<event>
 7    1  0.1134395E-011  0.5930195E+02  0.7816164E-02  0.1266605E+00
        -11   -1    0    0    0    0  0.00000000000E+00  0.00000000000E+00  0.45593999997E+02  0.45594000000E+02  0.51100000000E-03 0. -1.
         11   -1    0    0    0    0 -0.00000000000E+00 -0.00000000000E+00 -0.45593999997E+02  0.45594000000E+02  0.51100000000E-03 0.  1.
    9900012    2    1    2    0    0 -0.13615494152E+02  0.10764938539E+02 -0.26747982274E+02  0.59301950723E+02  0.50000012211E+02 0.  0.
         12    1    1    2    0    0  0.13615494152E+02 -0.10764938539E+02  0.26747982274E+02  0.31886049277E+02  0.00000000000E+00 0. -1.
         11    1    3    3    0    0 -0.55469338565E+01  0.19044022647E+02  0.51680340579E+01  0.20497605960E+02  0.51100000000E-03 0. -1.
        -11    1    3    3    0    0 -0.10149176585E+02 -0.35223792719E+01 -0.58624589489E+01  0.12238519774E+02  0.51100000000E-03 0.  1.
        -12    1    3    3    0    0  0.20806162890E+01 -0.47567048358E+01 -0.26053557383E+02  0.26565824989E+02  0.00000000000E+00 0.  1.
</event>
<event>
 7    1  0.1134395E-011  0.5930194E+02  0.7816164E-02  0.1266605E+00
        -11   -1    0    0    0    0  0.00000000000E+00  0.00000000000E+00  0.45593999997E+02  0.45594000000E+02  0.51100000000E-03 0. -1.
         11   -1    0    0    0    0 -0.00000000000E+00 -0.00000000000E+00 -0.45593999997E+02  0.45594000000E+02  0.51100000000E-03 0.  1.
    9900012    2    1    2    0    0  0.11955420102E+02 -0.19356653967E+02 -0.22340742938E+02  0.59301938505E+02  0.49999989928E+02 0.  0.
         12    1    1    2    0    0 -0.11955420102E+02  0.19356653967E+02  0.22340742938E+02  0.31886061495E+02  0.00000000000E+00 0. -1.
         11    1    3    3    0    0 -0.11553899745E+02 -0.14548502827E+01  0.29314623246E+01  0.12008441210E+02  0.51100000000E-03 0. -1.
        -11    1    3    3    0    0 -0.54053522221E+01 -0.58209310397E+01 -0.89280534043E+01  0.11950364374E+02  0.51100000000E-03 0.  1.
        -12    1    3    3    0    0  0.28914672069E+02 -0.12080872645E+02 -0.16344151859E+02  0.35343132922E+02  0.00000000000E+00 0.  1.
</event>
<event>
 7    1  0.1134395E-011  0.5930194E+02  0.7816164E-02  0.1266605E+00
        -11   -1    0    0    0    0  0.00000000000E+00  0.00000000000E+00  0.45593999997E+02  0.45594000000E+02  0.51100000000E-03 0. -1.
         11   -1    0    0    0    0 -0.00000000000E+00 -0.00000000000E+00 -0.45593999997E+02  0.45594000000E+02  0.51100000000E-03 0.  1.
    9900012    2    1    2    0    0 -0.15110032175E+02 -0.14354939003E+02 -0.24131791324E+02  0.59301941940E+02  0.49999996192E+02 0.  0.
         12    1    1    2    0    0  0.15110032175E+02  0.14354939003E+02  0.24131791324E+02  0.31886058060E+02  0.00000000000E+00 0. -1.
         11    1    3    3    0    0 -0.15684846494E+02 -0.20623351819E+02 -0.64956784109E+01  0.26711998953E+02  0.51100000000E-03 0. -1.
        -11    1    3    3    0    0  0.59210535259E+01 -0.14273481042E+01  0.51348125590E+01  0.79663352769E+01  0.51100000000E-03 0.  1.
        -12    1    3    3    0    0 -0.53462392070E+01  0.76957609197E+01 -0.22770925472E+02  0.24623607710E+02  0.00000000000E+00 0.  1.
</event>
<event>
 7    1  0.1134395E-011  0.5930203E+02  0.7816164E-02  0.1266604E+00
        -11   -1    0    0    0    0  0.00000000000E+00  0.00000000000E+00  0.45593999997E+02  0.45594000000E+02  0.51100000000E-03 0.  1.
         11   -1    0    0    0    0 -0.00000000000E+00 -0.00000000000E+00 -0.45593999997E+02  0.45594000000E+02  0.51100000000E-03 0. -1.
    9900012    2    1    2    0    0 -0.15874210868E+01  0.27309591281E+02  0.16382344864E+02  0.59302032790E+02  0.50000161881E+02 0.  0.
         12    1    1    2    0    0  0.15874210868E+01 -0.27309591281E+02 -0.16382344864E+02  0.31885967210E+02  0.00000000000E+00 0. -1.
         11    1    3    3    0    0 -0.72408077303E+01  0.27135408273E+02  0.16077348274E+02  0.32361100206E+02  0.51100000000E-03 0. -1.
        -11    1    3    3    0    0  0.91293455567E+01  0.11691019698E+02 -0.83741403813E+00  0.14856855468E+02  0.51100000000E-03 0.  1.
         12    1    3    3    0    0 -0.34759589132E+01 -0.11516836690E+02  0.11424106280E+01  0.12084077116E+02  0.00000000000E+00 0. -1.
</event>
<event>
 7    1  0.1134395E-011  0.5930195E+02  0.7816164E-02  0.1266605E+00
        -11   -1    0    0    0    0  0.00000000000E+00  0.00000000000E+00  0.45593999997E+02  0.45594000000E+02  0.51100000000E-03 0.  1.
         11   -1    0    0    0    0 -0.00000000000E+00 -0.00000000000E+00 -0.45593999997E+02  0.45594000000E+02  0.51100000000E-03 0. -1.
    9900012    2    1    2    0    0  0.48959540375E+01 -0.31303727928E+02 -0.35814188397E+01  0.59301948049E+02  0.50000007334E+02 0.  0.
         12    1    1    2    0    0 -0.48959540375E+01  0.31303727928E+02  0.35814188397E+01  0.31886051951E+02  0.00000000000E+00 0. -1.
         11    1    3    3    0    0  0.14598908843E+02 -0.13153169957E+02 -0.79129050509E+01  0.21183674986E+02  0.51100000000E-03 0. -1.
        -11    1    3    3    0    0  0.40831090853E+01  0.34570163642E+01  0.10474311147E+02  0.11761544805E+02  0.51100000000E-03 0.  1.
        -12    1    3    3    0    0 -0.13786063891E+02 -0.21607574335E+02 -0.61428249355E+01  0.26356728258E+02  0.00000000000E+00 0.  1.
</event>
<event>
 7    1  0.1134395E-011  0.5930202E+02  0.7816164E-02  0.1266604E+00
        -11   -1    0    0    0    0  0.00000000000E+00  0.00000000000E+00  0.45593999997E+02  0.45594000000E+02  0.51100000000E-03 0.  1.
         11   -1    0    0    0    0 -0.00000000000E+00 -0.00000000000E+00 -0.45593999997E+02  0.45594000000E+02  0.51100000000E-03 0. -1.
    9900012    2    1    2    0    0  0.13524077083E+02 -0.21562049936E+02  0.19206584225E+02  0.59302022895E+02  0.50000143834E+02 0.  0.
         12    1    1    2    0    0 -0.13524077083E+02  0.21562049936E+02 -0.19206584225E+02  0.31885977105E+02  0.00000000000E+00 0. -1.
         11    1    3    3    0    0  0.15304741291E+02 -0.15774217280E+02  0.12647255342E+02  0.25357722783E+02  0.51100000000E-03 0. -1.
        -11    1    3    3    0    0  0.13107030173E+02 -0.11901560421E+01 -0.54772247351E+01  0.14255199137E+02  0.51100000000E-03 0.  1.
         12    1    3    3    0    0 -0.14887694381E+02 -0.45976766130E+01  0.12036553618E+02  0.19689100975E+02  0.00000000000E+00 0. -1.
</event>
<event>
 7    1  0.1134395E-011  0.5930185E+02  0.7816164E-02  0.1266605E+00
        -11   -1    0    0    0    0  0.00000000000E+00  0.00000000000E+00  0.45593999997E+02  0.45594000000E+02  0.51100000000E-03 0.  1.
         11   -1    0    0    0    0 -0.00000000000E+00 -0.00000000000E+00 -0.45593999997E+02  0.45594000000E+02  0.51100000000E-03 0. -1.
    9900012    2    1    2    0    0  0.22298164212E+02 -0.21202101553E+02  0.83659502453E+01  0.59301853149E+02  0.49999834259E+02 0.  0.
         12    1    1    2    0    0 -0.22298164212E+02  0.21202101553E+02 -0.83659502453E+01  0.31886146851E+02  0.00000000000E+00 0. -1.
         11    1    3    3    0    0  0.14361970489E+02 -0.15981323147E+02 -0.10220781111E+02  0.23793554855E+02  0.51100000000E-03 0. -1.
        -11    1    3    3    0    0 -0.91028168164E+01 -0.78327331276E+01  0.12217351949E+02  0.17131160823E+02  0.51100000000E-03 0.  1.
         12    1    3    3    0    0  0.17039010539E+02  0.26119547210E+01  0.63693794074E+01  0.18377137472E+02  0.00000000000E+00 0. -1.
</event>
<event>
 7    1  0.1134395E-011  0.5930191E+02  0.7816164E-02  0.1266605E+00
        -11   -1    0    0    0    0  0.00000000000E+00  0.00000000000E+00  0.45593999997E+02  0.45594000000E+02  0.51100000000E-03 0. -1.
         11   -1    0    0    0    0 -0.00000000000E+00 -0.00000000000E+00 -0.45593999997E+02  0.45594000000E+02  0.51100000000E-03 0.  1.
    9900012    2    1    2    0    0  0.74321476450E+01  0.28923351629E+02  0.11177028443E+02  0.59301905023E+02  0.49999928864E+02 0.  0.
         12    1    1    2    0    0 -0.74321476450E+01 -0.28923351629E+02 -0.11177028443E+02  0.31886094977E+02  0.00000000000E+00 0. -1.
         11    1    3    3    0    0  0.38839357703E+01  0.57363266725E+01 -0.90990408587E+01  0.11436037144E+02  0.51100000000E-03 0. -1.
        -11    1    3    3    0    0  0.38006275636E+01  0.13506494576E+02 -0.92410627824E+01  0.16800815672E+02  0.51100000000E-03 0.  1.
         12    1    3    3    0    0 -0.25241568889E+00  0.96805303804E+01  0.29517132084E+02  0.31065052207E+02  0.00000000000E+00 0. -1.
</event>
<event>
 7    1  0.1134395E-011  0.5930192E+02  0.7816164E-02  0.1266605E+00
        -11   -1    0    0    0    0  0.00000000000E+00  0.00000000000E+00  0.45593999997E+02  0.45594000000E+02  0.51100000000E-03 0. -1.
         11   -1    0    0    0    0 -0.00000000000E+00 -0.00000000000E+00 -0.45593999997E+02  0.45594000000E+02  0.51100000000E-03 0.  1.
    9900012    2    1    2    0    0 -0.27761299137E+02  0.79927641223E+01 -0.13496217555E+02  0.59301923158E+02  0.49999961938E+02 0.  0.
         12    1    1    2    0    0  0.27761299137E+02 -0.79927641223E+01  0.13496217555E+02  0.31886076842E+02  0.00000000000E+00 0. -1.
         11    1    3    3    0    0 -0.79254174182E+01  0.14873103287E+02  0.74018947599E-01  0.16853098282E+02  0.51100000000E-03 0.  1.
        -11    1    3    3    0    0  0.68386924023E+01  0.69894764920E+01 -0.59007450054E+01  0.11421002026E+02  0.51100000000E-03 0. -1.
        -12    1    3    3    0    0 -0.26674574121E+02 -0.13869815657E+02 -0.76694914972E+01  0.31027822849E+02  0.00000000000E+00 0.  1.
</event>
<event>
 7    1  0.1134395E-011  0.5930186E+02  0.7816164E-02  0.1266605E+00
        -11   -1    0    0    0    0  0.00000000000E+00  0.00000000000E+00  0.45593999997E+02  0.45594000000E+02  0.51100000000E-03 0.  1.
         11   -1    0    0    0    0 -0.00000000000E+00 -0.00000000000E+00 -0.45593999997E+02  0.45594000000E+02  0.51100000000E-03 0. -1.
    9900012    2    1    2    0    0  0.31314556828E+02 -0.53735875840E+01  0.26923770040E+01  0.59301861840E+02  0.49999850109E+02 0.  0.
         12    1    1    2    0    0 -0.31314556828E+02  0.53735875840E+01 -0.26923770040E+01  0.31886138160E+02  0.00000000000E+00 0. -1.
         11    1    3    3    0    0 -0.29675252703E+01 -0.20557669411E+01 -0.97258701304E+01  0.10374243780E+02  0.51100000000E-03 0. -1.
        -11    1    3    3    0    0  0.24600790314E+02  0.24719112437E+01 -0.76715379358E+01  0.25887481991E+02  0.51100000000E-03 0.  1.
        -12    1    3    3    0    0  0.96812917841E+01 -0.57897318867E+01  0.20089785070E+02  0.23040136069E+02  0.00000000000E+00 0.  1.
</event>
<event>
 7    1  0.1134395E-011  0.5930193E+02  0.7816164E-02  0.1266605E+00
        -11   -1    0    0    0    0  0.00000000000E+00  0.00000000000E+00  0.45593999997E+02  0.45594000000E+02  0.51100000000E-03 0.  1.
         11   -1    0    0    0    0 -0.00000000000E+00 -0.00000000000E+00 -0.45593999997E+02  0.45594000000E+02  0.51100000000E-03 0. -1.
    9900012    2    1    2    0    0 -0.16331665720E+02  0.25255951442E+02  0.10589382102E+02  0.59301930914E+02  0.49999976084E+02 0.  0.
         12    1    1    2    0    0  0.16331665720E+02 -0.25255951442E+02 -0.10589382102E+02  0.31886069086E+02  0.00000000000E+00 0. -1.
         11    1    3    3    0    0 -0.50881735350E+01 -0.41952926463E+01  0.19049909767E+00  0.65974449962E+01  0.51100000000E-03 0. -1.
        -11    1    3    3    0    0 -0.12745156034E+02 -0.60707469537E+01  0.97282572485E+01  0.17144444006E+02  0.51100000000E-03 0.  1.
         12    1    3    3    0    0  0.15016638494E+01  0.35521991042E+02  0.67062575631E+00  0.35560041912E+02  0.00000000000E+00 0. -1.
</event>
<event>
 7    1  0.1134395E-011  0.5930191E+02  0.7816164E-02  0.1266605E+00
        -11   -1    0    0    0    0  0.00000000000E+00  0.00000000000E+00  0.45593999997E+02  0.45594000000E+02  0.51100000000E-03 0. -1.
         11   -1    0    0    0    0 -0.00000000000E+00 -0.00000000000E+00 -0.45593999997E+02  0.45594000000E+02  0.51100000000E-03 0.  1.
    9900012    2    1    2    0    0  0.23515450097E+02  0.19303511393E+01 -0.21448073581E+02  0.59301913550E+02  0.49999944416E+02 0.  0.
         12    1    1    2    0    0 -0.23515450097E+02 -0.19303511393E+01  0.21448073581E+02  0.31886086450E+02  0.00000000000E+00 0. -1.
         11    1    3    3    0    0 -0.75861172232E+01  0.60322363673E+01 -0.52257397372E+01  0.11011149176E+02  0.51100000000E-03 0.  1.
        -11    1    3    3    0    0 -0.46944152447E+01 -0.12311116392E+01 -0.10972850551E+02  0.11998192357E+02  0.51100000000E-03 0. -1.
        -12    1    3    3    0    0  0.35795982564E+02 -0.28707735888E+01 -0.52494832924E+01  0.36292572017E+02  0.00000000000E+00 0.  1.
</event>
<event>
 7    1  0.1134395E-011  0.5930197E+02  0.7816164E-02  0.1266605E+00
        -11   -1    0    0    0    0  0.00000000000E+00  0.00000000000E+00  0.45593999997E+02  0.45594000000E+02  0.51100000000E-03 0.  1.
         11   -1    0    0    0    0 -0.00000000000E+00 -0.00000000000E+00 -0.45593999997E+02  0.45594000000E+02  0.51100000000E-03 0. -1.
    9900012    2    1    2    0    0 -0.19248107778E+02 -0.73469810559E+01  0.24336210465E+02  0.59301969776E+02  0.50000046959E+02 0.  0.
         12    1    1    2    0    0  0.19248107778E+02  0.73469810559E+01 -0.24336210465E+02  0.31886030224E+02  0.00000000000E+00 0. -1.
         11    1    3    3    0    0  0.47486585109E+01 -0.12323772632E+02 -0.64492751713E+01  0.14697560343E+02  0.51100000000E-03 0. -1.
        -11    1    3    3    0    0 -0.45986966869E+00 -0.59456248542E+01  0.86000163836E+01  0.10465286287E+02  0.51100000000E-03 0.  1.
        -12    1    3    3    0    0 -0.23536896620E+02  0.10922416431E+02  0.22185469253E+02  0.34139123145E+02  0.00000000000E+00 0.  1.
</event>
<event>
 7    1  0.1134395E-011  0.5930195E+02  0.7816164E-02  0.1266605E+00
        -11   -1    0    0    0    0  0.00000000000E+00  0.00000000000E+00  0.45593999997E+02  0.45594000000E+02  0.51100000000E-03 0.  1.
         11   -1    0    0    0    0 -0.00000000000E+00 -0.00000000000E+00 -0.45593999997E+02  0.45594000000E+02  0.51100000000E-03 0. -1.
    9900012    2    1    2    0    0  0.26504224935E+02  0.11782045894E+02  0.13244987576E+02  0.59301949120E+02  0.50000009287E+02 0.  0.
         12    1    1    2    0    0 -0.26504224935E+02 -0.11782045894E+02 -0.13244987576E+02  0.31886050880E+02  0.00000000000E+00 0. -1.
         11    1    3    3    0    0 -0.76275784849E+01 -0.67879608606E+01  0.58260661994E-01  0.10210766903E+02  0.51100000000E-03 0. -1.
        -11    1    3    3    0    0  0.27567809641E+02  0.66863267583E+01  0.19188725698E+02  0.34247602662E+02  0.51100000000E-03 0.  1.
         12    1    3    3    0    0  0.65639937788E+01  0.11883679997E+02 -0.60019987844E+01  0.14843579555E+02  0.00000000000E+00 0. -1.
</event>
<event>
 7    1  0.1170849E-011  0.5930194E+02  0.7816164E-02  0.1266605E+00
        -11   -1    0    0    0    0  0.00000000000E+00  0.00000000000E+00  0.45593999997E+02  0.45594000000E+02  0.51100000000E-03 0. -1.
         11   -1    0    0    0    0 -0.00000000000E+00 -0.00000000000E+00 -0.45593999997E+02  0.45594000000E+02  0.51100000000E-03 0.  1.
    9900012    2    1    2    0    0  0.21658464202E+02 -0.19702365368E+02 -0.12627292936E+02  0.59301940357E+02  0.49999993305E+02 0.  0.
         12    1    1    2    0    0 -0.21658464202E+02  0.19702365368E+02  0.12627292936E+02  0.31886059643E+02  0.00000000000E+00 0. -1.
         11    1    3    3    0    0  0.22581095791E+02 -0.53354763131E+01 -0.47978095834E+01  0.23693715869E+02  0.51100000000E-03 0. -1.
        -11    1    3    3    0    0  0.17925291495E+01 -0.21330772209E+02 -0.14282673650E+02  0.25733436822E+02  0.51100000000E-03 0.  1.
         12    1    3    3    0    0 -0.27151607389E+01  0.69638831539E+01  0.64531902982E+01  0.98747876658E+01  0.00000000000E+00 0. -1.
</event>
<event>
 7    1  0.1134395E-011  0.5930195E+02  0.7816164E-02  0.1266605E+00
        -11   -1    0    0    0    0  0.00000000000E+00  0.00000000000E+00  0.45593999997E+02  0.45594000000E+02  0.51100000000E-03 0.  1.
         11   -1    0    0    0    0 -0.00000000000E+00 -0.00000000000E+00 -0.45593999997E+02  0.45594000000E+02  0.51100000000E-03 0. -1.
    9900012    2    1    2    0    0 -0.85283675956E+01  0.29793651632E+02  0.75050170294E+01  0.59301952706E+02  0.50000015828E+02 0.  0.
         12    1    1    2    0    0  0.85283675956E+01 -0.29793651632E+02 -0.75050170294E+01  0.31886047294E+02  0.00000000000E+00 0. -1.
         11    1    3    3    0    0  0.54178388619E+01  0.14357998296E+00 -0.24023774710E+01  0.59283227745E+01  0.51100000000E-03 0. -1.
        -11    1    3    3    0    0  0.11222599903E+02 -0.26056940250E+01  0.17141459880E+01  0.11647947745E+02  0.51100000000E-03 0.  1.
        -12    1    3    3    0    0 -0.25168806360E+02  0.32255765674E+02  0.81932485124E+01  0.41725682187E+02  0.00000000000E+00 0.  1.
</event>
<event>
 7    1  0.1134395E-011  0.5930198E+02  0.7816164E-02  0.1266605E+00
        -11   -1    0    0    0    0  0.00000000000E+00  0.00000000000E+00  0.45593999997E+02  0.45594000000E+02  0.51100000000E-03 0.  1.
         11   -1    0    0    0    0 -0.00000000000E+00 -0.00000000000E+00 -0.45593999997E+02  0.45594000000E+02  0.51100000000E-03 0. -1.
    9900012    2    1    2    0    0 -0.25612357706E+02 -0.10677115047E+02  0.15707474798E+02  0.59301977709E+02  0.50000061427E+02 0.  0.
         12    1    1    2    0    0  0.25612357706E+02  0.10677115047E+02 -0.15707474798E+02  0.31886022291E+02  0.00000000000E+00 0. -1.
         11    1    3    3    0    0  0.11536666880E+01  0.25005212594E+01 -0.89809517510E+01  0.93936706356E+01  0.51100000000E-03 0. -1.
        -11    1    3    3    0    0 -0.14493797707E+02 -0.34104365918E+01 -0.55125857052E+01  0.15877337659E+02  0.51100000000E-03 0.  1.
        -12    1    3    3    0    0 -0.12272226687E+02 -0.97671997144E+01  0.30201012254E+02  0.34030969415E+02  0.00000000000E+00 0.  1.
</event>
<event>
 7    1  0.1134395E-011  0.5930195E+02  0.7816164E-02  0.1266605E+00
        -11   -1    0    0    0    0  0.00000000000E+00  0.00000000000E+00  0.45593999997E+02  0.45594000000E+02  0.51100000000E-03 0. -1.
         11   -1    0    0    0    0 -0.00000000000E+00 -0.00000000000E+00 -0.45593999997E+02  0.45594000000E+02  0.51100000000E-03 0.  1.
    9900012    2    1    2    0    0 -0.74141350904E+01  0.52070974840E+01 -0.30571827475E+02  0.59301954487E+02  0.50000019075E+02 0.  0.
         12    1    1    2    0    0  0.74141350904E+01 -0.52070974840E+01  0.30571827475E+02  0.31886045513E+02  0.00000000000E+00 0. -1.
         11    1    3    3    0    0  0.80827606521E+01  0.44228638547E+01 -0.17095826021E+02  0.19420607921E+02  0.51100000000E-03 0. -1.
        -11    1    3    3    0    0  0.56537172090E+01  0.12164745787E+02 -0.34223745876E+01  0.13844067553E+02  0.51100000000E-03 0.  1.
        -12    1    3    3    0    0 -0.21150612952E+02 -0.11380512158E+02 -0.10053626866E+02  0.26037279012E+02  0.00000000000E+00 0.  1.
</event>
<event>
 7    1  0.1134395E-011  0.5930184E+02  0.7816164E-02  0.1266605E+00
        -11   -1    0    0    0    0  0.00000000000E+00  0.00000000000E+00  0.45593999997E+02  0.45594000000E+02  0.51100000000E-03 0.  1.
         11   -1    0    0    0    0 -0.00000000000E+00 -0.00000000000E+00 -0.45593999997E+02  0.45594000000E+02  0.51100000000E-03 0. -1.
    9900012    2    1    2    0    0  0.82740053030E+01  0.20820420960E+02 -0.22688727400E+02  0.59301836171E+02  0.49999803295E+02 0.  0.
         12    1    1    2    0    0 -0.82740053030E+01 -0.20820420960E+02  0.22688727400E+02  0.31886163829E+02  0.00000000000E+00 0. -1.
         11    1    3    3    0    0  0.14076876152E+01  0.19596554563E+02 -0.11852828766E+02  0.22945502505E+02  0.51100000000E-03 0. -1.
        -11    1    3    3    0    0 -0.18037538370E+01  0.25238812782E+01  0.11737356010E+02  0.12140388420E+02  0.51100000000E-03 0.  1.
        -12    1    3    3    0    0  0.86700715248E+01 -0.13000148815E+01 -0.22573254644E+02  0.24215945246E+02  0.00000000000E+00 0.  1.
</event>
<event>
 7    1  0.1134395E-011  0.5930191E+02  0.7816164E-02  0.1266605E+00
        -11   -1    0    0    0    0  0.00000000000E+00  0.00000000000E+00  0.45593999997E+02  0.45594000000E+02  0.51100000000E-03 0.  1.
         11   -1    0    0    0    0 -0.00000000000E+00 -0.00000000000E+00 -0.45593999997E+02  0.45594000000E+02  0.51100000000E-03 0. -1.
    9900012    2    1    2    0    0 -0.25993930326E+02  0.11969157219E+02  0.14063335191E+02  0.59301913143E+02  0.49999943674E+02 0.  0.
         12    1    1    2    0    0  0.25993930326E+02 -0.11969157219E+02 -0.14063335191E+02  0.31886086857E+02  0.00000000000E+00 0. -1.
         11    1    3    3    0    0  0.11187540536E+02  0.54288309398E+01  0.29583045459E+01  0.12782207738E+02  0.51100000000E-03 0. -1.
        -11    1    3    3    0    0 -0.14095427533E+02  0.10154312568E+02  0.14850154335E+02  0.22854282423E+02  0.51100000000E-03 0.  1.
        -12    1    3    3    0    0 -0.23086043329E+02 -0.36139862882E+01 -0.37451236897E+01  0.23665422982E+02  0.00000000000E+00 0.  1.
</event>
<event>
 7    1  0.1134395E-011  0.5930191E+02  0.7816164E-02  0.1266605E+00
        -11   -1    0    0    0    0  0.00000000000E+00  0.00000000000E+00  0.45593999997E+02  0.45594000000E+02  0.51100000000E-03 0.  1.
         11   -1    0    0    0    0 -0.00000000000E+00 -0.00000000000E+00 -0.45593999997E+02  0.45594000000E+02  0.51100000000E-03 0. -1.
    9900012    2    1    2    0    0 -0.39443850308E+01 -0.19625969028E+02  0.24819064130E+02  0.59301909335E+02  0.49999936729E+02 0.  0.
         12    1    1    2    0    0  0.39443850308E+01  0.19625969028E+02 -0.24819064130E+02  0.31886090665E+02  0.00000000000E+00 0. -1.
         11    1    3    3    0    0 -0.11022409941E+02 -0.36226018228E+01  0.27297101851E+01  0.11919231637E+02  0.51100000000E-03 0. -1.
        -11    1    3    3    0    0 -0.72650291891E+01  0.93075007718E+01  0.11331587844E+02  0.16365057380E+02  0.51100000000E-03 0.  1.
        -12    1    3    3    0    0  0.14343054099E+02 -0.25310867978E+02  0.10757766101E+02  0.31017620317E+02  0.00000000000E+00 0.  1.
</event>
<event>
 7    1  0.1134395E-011  0.5930195E+02  0.7816164E-02  0.1266605E+00
        -11   -1    0    0    0    0  0.00000000000E+00  0.00000000000E+00  0.45593999997E+02  0.45594000000E+02  0.51100000000E-03 0.  1.
         11   -1    0    0    0    0 -0.00000000000E+00 -0.00000000000E+00 -0.45593999997E+02  0.45594000000E+02  0.51100000000E-03 0. -1.
    9900012    2    1    2    0    0  0.73313483343E+01 -0.21106050139E+02  0.22748761022E+02  0.59301950560E+02  0.50000011913E+02 0.  0.
         12    1    1    2    0    0 -0.73313483343E+01  0.21106050139E+02 -0.22748761022E+02  0.31886049440E+02  0.00000000000E+00 0. -1.
         11    1    3    3    0    0  0.64778540595E+01 -0.19194600169E+00 -0.11662580487E+01  0.65848002688E+01  0.51100000000E-03 0. -1.
        -11    1    3    3    0    0 -0.11714835180E+02  0.14758413364E+01  0.24323168062E+02  0.27037602997E+02  0.51100000000E-03 0.  1.
         12    1    3    3    0    0  0.12568329455E+02 -0.22389945474E+02 -0.40814899201E+00  0.25679547294E+02  0.00000000000E+00 0. -1.
</event>
<event>
 7    1  0.1134395E-011  0.5930201E+02  0.7816164E-02  0.1266605E+00
        -11   -1    0    0    0    0  0.00000000000E+00  0.00000000000E+00  0.45593999997E+02  0.45594000000E+02  0.51100000000E-03 0.  1.
         11   -1    0    0    0    0 -0.00000000000E+00 -0.00000000000E+00 -0.45593999997E+02  0.45594000000E+02  0.51100000000E-03 0. -1.
    9900012    2    1    2    0    0  0.14193715018E+02 -0.18260907587E+02  0.21949810312E+02  0.59302008332E+02  0.50000117275E+02 0.  0.
         12    1    1    2    0    0 -0.14193715018E+02  0.18260907587E+02 -0.21949810312E+02  0.31885991668E+02  0.00000000000E+00 0. -1.
         11    1    3    3    0    0 -0.19895887822E+01  0.30219602348E+01  0.42688938502E+01  0.55959058380E+01  0.51100000000E-03 0. -1.
        -11    1    3    3    0    0 -0.45650288607E+00 -0.13009925163E+02  0.29111136486E+02  0.31889258621E+02  0.51100000000E-03 0.  1.
         12    1    3    3    0    0  0.16639806686E+02 -0.82729426593E+01 -0.11430220024E+02  0.21816843873E+02  0.00000000000E+00 0. -1.
</event>
<event>
 7    1  0.1134395E-011  0.5930196E+02  0.7816164E-02  0.1266605E+00
        -11   -1    0    0    0    0  0.00000000000E+00  0.00000000000E+00  0.45593999997E+02  0.45594000000E+02  0.51100000000E-03 0.  1.
         11   -1    0    0    0    0 -0.00000000000E+00 -0.00000000000E+00 -0.45593999997E+02  0.45594000000E+02  0.51100000000E-03 0. -1.
    9900012    2    1    2    0    0  0.30183435046E+02  0.58603035570E+01  0.84460957598E+01  0.59301961637E+02  0.50000032114E+02 0.  0.
         12    1    1    2    0    0 -0.30183435046E+02 -0.58603035570E+01 -0.84460957598E+01  0.31886038363E+02  0.00000000000E+00 0. -1.
         11    1    3    3    0    0  0.96985420462E+01  0.15559386996E+02  0.10225078296E+02  0.20993057613E+02  0.51100000000E-03 0. -1.
        -11    1    3    3    0    0  0.25683500193E+02 -0.31011647968E+01  0.63303673762E+01  0.26633305402E+02  0.51100000000E-03 0.  1.
        -12    1    3    3    0    0 -0.51986071935E+01 -0.65979186424E+01 -0.81093499126E+01  0.11675598621E+02  0.00000000000E+00 0.  1.
</event>
<event>
 7    1  0.1134395E-011  0.5930212E+02  0.7816164E-02  0.1266604E+00
        -11   -1    0    0    0    0  0.00000000000E+00  0.00000000000E+00  0.45593999997E+02  0.45594000000E+02  0.51100000000E-03 0. -1.
         11   -1    0    0    0    0 -0.00000000000E+00 -0.00000000000E+00 -0.45593999997E+02  0.45594000000E+02  0.51100000000E-03 0.  1.
    9900012    2    1    2    0    0  0.25121492597E+01 -0.14564163308E+02 -0.28253912233E+02  0.59302120629E+02  0.50000322077E+02 0.  0.
         12    1    1    2    0    0 -0.25121492597E+01  0.14564163308E+02  0.28253912233E+02  0.31885879371E+02  0.00000000000E+00 0. -1.
         11    1    3    3    0    0 -0.14041661465E+02  0.14338080577E+01 -0.48126032198E+01  0.14912585700E+02  0.51100000000E-03 0. -1.
        -11    1    3    3    0    0  0.28800561920E+01 -0.16381872826E+02 -0.25612160746E+02  0.30539208558E+02  0.51100000000E-03 0.  1.
        -12    1    3    3    0    0  0.13673754533E+02  0.38390146015E+00  0.21708517328E+01  0.13850326371E+02  0.00000000000E+00 0.  1.
</event>
<event>
 7    1  0.1134395E-011  0.5930199E+02  0.7816164E-02  0.1266605E+00
        -11   -1    0    0    0    0  0.00000000000E+00  0.00000000000E+00  0.45593999997E+02  0.45594000000E+02  0.51100000000E-03 0.  1.
         11   -1    0    0    0    0 -0.00000000000E+00 -0.00000000000E+00 -0.45593999997E+02  0.45594000000E+02  0.51100000000E-03 0. -1.
    9900012    2    1    2    0    0  0.21676702860E+02 -0.13604905445E+02 -0.19019595653E+02  0.59301985544E+02  0.50000075717E+02 0.  0.
         12    1    1    2    0    0 -0.21676702860E+02  0.13604905445E+02  0.19019595653E+02  0.31886014456E+02  0.00000000000E+00 0. -1.
         11    1    3    3    0    0  0.23590807811E+02 -0.15350607655E+02 -0.17382540057E+02  0.33080508878E+02  0.51100000000E-03 0. -1.
        -11    1    3    3    0    0 -0.99439594836E+01 -0.44360448725E+01 -0.86428854046E+01  0.13901808972E+02  0.51100000000E-03 0.  1.
         12    1    3    3    0    0  0.80298545319E+01  0.61817470820E+01  0.70058298080E+01  0.12319667694E+02  0.00000000000E+00 0. -1.
</event>
<event>
 7    1  0.1134395E-011  0.5930191E+02  0.7816164E-02  0.1266605E+00
        -11   -1    0    0    0    0  0.00000000000E+00  0.00000000000E+00  0.45593999997E+02  0.45594000000E+02  0.51100000000E-03 0. -1.
         11   -1    0    0    0    0 -0.00000000000E+00 -0.00000000000E+00 -0.45593999997E+02  0.45594000000E+02  0.51100000000E-03 0.  1.
    9900012    2    1    2    0    0 -0.41391528081E+01  0.23393635706E+02 -0.21268006632E+02  0.59301907678E+02  0.49999933706E+02 0.  0.
         12    1    1    2    0    0  0.41391528081E+01 -0.23393635706E+02  0.21268006632E+02  0.31886092322E+02  0.00000000000E+00 0. -1.
         11    1    3    3    0    0  0.42572986628E+00 -0.31285692643E+00 -0.68015878533E-01  0.53268357991E+00  0.51100000000E-03 0. -1.
        -11    1    3    3    0    0  0.84443181697E+01 -0.10602676879E+02 -0.17141031832E+02  0.21852648326E+02  0.51100000000E-03 0.  1.
         12    1    3    3    0    0 -0.13009200844E+02  0.34309169511E+02 -0.40589589215E+01  0.36916575771E+02  0.00000000000E+00 0. -1.
</event>
<event>
 7    1  0.1134395E-011  0.5930192E+02  0.7816164E-02  0.1266605E+00
        -11   -1    0    0    0    0  0.00000000000E+00  0.00000000000E+00  0.45593999997E+02  0.45594000000E+02  0.51100000000E-03 0. -1.
         11   -1    0    0    0    0 -0.00000000000E+00 -0.00000000000E+00 -0.45593999997E+02  0.45594000000E+02  0.51100000000E-03 0.  1.
    9900012    2    1    2    0    0  0.13807924071E+02  0.13448790201E+02 -0.25400658536E+02  0.59301918724E+02  0.49999953853E+02 0.  0.
         12    1    1    2    0    0 -0.13807924071E+02 -0.13448790201E+02  0.25400658536E+02  0.31886081276E+02  0.00000000000E+00 0. -1.
         11    1    3    3    0    0  0.12674076174E+01  0.16209913594E+02 -0.11882890769E+02  0.20138786311E+02  0.51100000000E-03 0. -1.
        -11    1    3    3    0    0 -0.25295572401E+01 -0.79344602520E+01 -0.20227412480E+02  0.21874700803E+02  0.51100000000E-03 0.  1.
        -12    1    3    3    0    0  0.15070073694E+02  0.51733368588E+01  0.67096447122E+01  0.17288431611E+02  0.00000000000E+00 0.  1.
</event>
<event>
 7    1  0.1134395E-011  0.5930202E+02  0.7816164E-02  0.1266604E+00
        -11   -1    0    0    0    0  0.00000000000E+00  0.00000000000E+00  0.45593999997E+02  0.45594000000E+02  0.51100000000E-03 0. -1.
         11   -1    0    0    0    0 -0.00000000000E+00 -0.00000000000E+00 -0.45593999997E+02  0.45594000000E+02  0.51100000000E-03 0.  1.
    9900012    2    1    2    0    0 -0.12329746917E+02  0.11611550903E+02  0.27016012525E+02  0.59302020226E+02  0.50000138966E+02 0.  0.
         12    1    1    2    0    0  0.12329746917E+02 -0.11611550903E+02 -0.27016012525E+02  0.31885979774E+02  0.00000000000E+00 0. -1.
         11    1    3    3    0    0  0.12462626315E+02  0.54043942842E+01  0.11147181760E+02  0.17572256363E+02  0.51100000000E-03 0. -1.
        -11    1    3    3    0    0  0.65573012063E+01  0.12249241311E+01  0.43381393362E+01  0.79572665783E+01  0.51100000000E-03 0.  1.
        -12    1    3    3    0    0 -0.31349674438E+02  0.49822324878E+01  0.11530691429E+02  0.33772497284E+02  0.00000000000E+00 0.  1.
</event>
<event>
 7    1  0.1134395E-011  0.5930195E+02  0.7816164E-02  0.1266605E+00
        -11   -1    0    0    0    0  0.00000000000E+00  0.00000000000E+00  0.45593999997E+02  0.45594000000E+02  0.51100000000E-03 0. -1.
         11   -1    0    0    0    0 -0.00000000000E+00 -0.00000000000E+00 -0.45593999997E+02  0.45594000000E+02  0.51100000000E-03 0.  1.
    9900012    2    1    2    0    0  0.15092155213E+02 -0.22868785771E+02 -0.16308454939E+02  0.59301949537E+02  0.50000010048E+02 0.  0.
         12    1    1    2    0    0 -0.15092155213E+02  0.22868785771E+02  0.16308454939E+02  0.31886050463E+02  0.00000000000E+00 0. -1.
         11    1    3    3    0    0  0.22136095024E+02 -0.74987750423E+01 -0.25827969439E+02  0.34832776743E+02  0.51100000000E-03 0.  1.
        -11    1    3    3    0    0 -0.78131305551E+01 -0.25304541055E+01 -0.40533257385E+00  0.82226821541E+01  0.51100000000E-03 0. -1.
        -12    1    3    3    0    0  0.76919074438E+00 -0.12839556623E+02  0.99248470738E+01  0.16246490640E+02  0.00000000000E+00 0.  1.
</event>
<event>
 7    1  0.1134395E-011  0.5930195E+02  0.7816164E-02  0.1266605E+00
        -11   -1    0    0    0    0  0.00000000000E+00  0.00000000000E+00  0.45593999997E+02  0.45594000000E+02  0.51100000000E-03 0.  1.
         11   -1    0    0    0    0 -0.00000000000E+00 -0.00000000000E+00 -0.45593999997E+02  0.45594000000E+02  0.51100000000E-03 0. -1.
    9900012    2    1    2    0    0  0.27653467071E+02 -0.76048720134E+01  0.13934553065E+02  0.59301951507E+02  0.50000013641E+02 0.  0.
         12    1    1    2    0    0 -0.27653467071E+02  0.76048720134E+01 -0.13934553065E+02  0.31886048493E+02  0.00000000000E+00 0. -1.
         11    1    3    3    0    0  0.13965767979E+02 -0.24674639079E+02  0.69964826442E+01  0.29203274792E+02  0.51100000000E-03 0. -1.
        -11    1    3    3    0    0  0.32379722500E+01 -0.38710216174E+01  0.41422840992E+01  0.65289961306E+01  0.51100000000E-03 0.  1.
         12    1    3    3    0    0  0.10449726842E+02  0.20940788683E+02  0.27957863213E+01  0.23569680585E+02  0.00000000000E+00 0. -1.
</event>
<event>
 7    1  0.1134395E-011  0.5930194E+02  0.7816164E-02  0.1266605E+00
        -11   -1    0    0    0    0  0.00000000000E+00  0.00000000000E+00  0.45593999997E+02  0.45594000000E+02  0.51100000000E-03 0. -1.
         11   -1    0    0    0    0 -0.00000000000E+00 -0.00000000000E+00 -0.45593999997E+02  0.45594000000E+02  0.51100000000E-03 0.  1.
    9900012    2    1    2    0    0  0.11186311616E+02 -0.17258948666E+02 -0.24366285307E+02  0.59301941349E+02  0.49999995115E+02 0.  0.
         12    1    1    2    0    0 -0.11186311616E+02  0.17258948666E+02  0.24366285307E+02  0.31886058651E+02  0.00000000000E+00 0. -1.
         11    1    3    3    0    0  0.17380687950E+02  0.13869217708E+01  0.35267486591E+01  0.17789036567E+02  0.51100000000E-03 0. -1.
        -11    1    3    3    0    0  0.10605347891E+01 -0.13750403564E+02 -0.16991254793E+01  0.13895515819E+02  0.51100000000E-03 0.  1.
        -12    1    3    3    0    0 -0.72549111230E+01 -0.48954668723E+01 -0.26193908487E+02  0.27617388963E+02  0.00000000000E+00 0.  1.
</event>
<event>
 7    1  0.1134395E-011  0.5930201E+02  0.7816164E-02  0.1266605E+00
        -11   -1    0    0    0    0  0.00000000000E+00  0.00000000000E+00  0.45593999997E+02  0.45594000000E+02  0.51100000000E-03 0. -1.
         11   -1    0    0    0    0 -0.00000000000E+00 -0.00000000000E+00 -0.45593999997E+02  0.45594000000E+02  0.51100000000E-03 0.  1.
    9900012    2    1    2    0    0 -0.78122148886E+01  0.30903322135E+02  0.81884269370E+00  0.59302007405E+02  0.50000115584E+02 0.  0.
         12    1    1    2    0    0  0.78122148886E+01 -0.30903322135E+02 -0.81884269370E+00  0.31885992595E+02  0.00000000000E+00 0. -1.
         11    1    3    3    0    0 -0.13411797270E+02 -0.21276916576E+01  0.10627111245E+02  0.17243516796E+02  0.51100000000E-03 0. -1.
        -11    1    3    3    0    0  0.12095169635E+02  0.74354539043E+01 -0.10482576000E+01  0.14236500536E+02  0.51100000000E-03 0.  1.
        -12    1    3    3    0    0 -0.64955872532E+01  0.25595559888E+02 -0.87600109513E+01  0.27821990073E+02  0.00000000000E+00 0.  1.
</event>
<event>
 7    1  0.1144847E-011  0.5930194E+02  0.7816164E-02  0.1266605E+00
        -11   -1    0    0    0    0  0.00000000000E+00  0.00000000000E+00  0.45593999997E+02  0.45594000000E+02  0.51100000000E-03 0. -1.
         11   -1    0    0    0    0 -0.00000000000E+00 -0.00000000000E+00 -0.45593999997E+02  0.45594000000E+02  0.51100000000E-03 0.  1.
    9900012    2    1    2    0    0 -0.20535926322E+02 -0.12301454305E+02 -0.21063491322E+02  0.59301941689E+02  0.49999995735E+02 0.  0.
         12    1    1    2    0    0  0.20535926322E+02  0.12301454305E+02  0.21063491322E+02  0.31886058311E+02  0.00000000000E+00 0. -1.
         11    1    3    3    0    0 -0.27427567645E+02 -0.10093026545E+00  0.20997975734E+01  0.27508013450E+02  0.51100000000E-03 0. -1.
        -11    1    3    3    0    0  0.48314614605E+00  0.59317394272E+00 -0.15581704931E+02  0.15600474812E+02  0.51100000000E-03 0.  1.
        -12    1    3    3    0    0  0.64084951773E+01 -0.12793697983E+02 -0.75815839647E+01  0.16193453428E+02  0.00000000000E+00 0.  1.
</event>
<event>
 7    1  0.1134395E-011  0.5930195E+02  0.7816164E-02  0.1266605E+00
        -11   -1    0    0    0    0  0.00000000000E+00  0.00000000000E+00  0.45593999997E+02  0.45594000000E+02  0.51100000000E-03 0. -1.
         11   -1    0    0    0    0 -0.00000000000E+00 -0.00000000000E+00 -0.45593999997E+02  0.45594000000E+02  0.51100000000E-03 0.  1.
    9900012    2    1    2    0    0  0.25690725754E+02  0.16220952919E+02  0.96740622033E+01  0.59301950027E+02  0.50000010942E+02 0.  0.
         12    1    1    2    0    0 -0.25690725754E+02 -0.16220952919E+02 -0.96740622033E+01  0.31886049973E+02  0.00000000000E+00 0. -1.
         11    1    3    3    0    0 -0.39658093148E+01  0.13851692988E+02  0.88213115799E+01  0.16894158174E+02  0.51100000000E-03 0. -1.
        -11    1    3    3    0    0 -0.34846911153E+01 -0.61397408464E+01  0.38840796258E+01  0.80576401403E+01  0.51100000000E-03 0.  1.
         12    1    3    3    0    0  0.33141226184E+02  0.85090007773E+01 -0.30313290024E+01  0.34350151713E+02  0.00000000000E+00 0. -1.
</event>
<event>
 7    1  0.1134395E-011  0.5930181E+02  0.7816164E-02  0.1266605E+00
        -11   -1    0    0    0    0  0.00000000000E+00  0.00000000000E+00  0.45593999997E+02  0.45594000000E+02  0.51100000000E-03 0.  1.
         11   -1    0    0    0    0 -0.00000000000E+00 -0.00000000000E+00 -0.45593999997E+02  0.45594000000E+02  0.51100000000E-03 0. -1.
    9900012    2    1    2    0    0 -0.57650187244E+01  0.33535549266E+01  0.31180882920E+02  0.59301808142E+02  0.49999752176E+02 0.  0.
         12    1    1    2    0    0  0.57650187244E+01 -0.33535549266E+01 -0.31180882920E+02  0.31886191858E+02  0.00000000000E+00 0. -1.
         11    1    3    3    0    0  0.69224751148E+00  0.10783439718E+02  0.43564815744E+01  0.11650781551E+02  0.51100000000E-03 0. -1.
        -11    1    3    3    0    0  0.52975868633E+01 -0.18249346510E+01  0.32833909785E+02  0.33308564141E+02  0.51100000000E-03 0.  1.
         12    1    3    3    0    0 -0.11754853099E+02 -0.56049501406E+01 -0.60095084397E+01  0.14342462451E+02  0.00000000000E+00 0. -1.
</event>
<event>
 7    1  0.1134395E-011  0.5930193E+02  0.7816164E-02  0.1266605E+00
        -11   -1    0    0    0    0  0.00000000000E+00  0.00000000000E+00  0.45593999997E+02  0.45594000000E+02  0.51100000000E-03 0. -1.
         11   -1    0    0    0    0 -0.00000000000E+00 -0.00000000000E+00 -0.45593999997E+02  0.45594000000E+02  0.51100000000E-03 0.  1.
    9900012    2    1    2    0    0  0.14131539447E+02 -0.28550163888E+02 -0.13817637783E+01  0.59301928804E+02  0.49999972236E+02 0.  0.
         12    1    1    2    0    0 -0.14131539447E+02  0.28550163888E+02  0.13817637783E+01  0.31886071196E+02  0.00000000000E+00 0. -1.
         11    1    3    3    0    0  0.17805148561E+02 -0.41149902904E+01  0.66891618819E+01  0.19460250443E+02  0.51100000000E-03 0. -1.
        -11    1    3    3    0    0  0.11698059796E+02 -0.13791027518E+02 -0.10619336441E+02  0.20971584340E+02  0.51100000000E-03 0.  1.
         12    1    3    3    0    0 -0.15371668911E+02 -0.10644146080E+02  0.25484107812E+01  0.18870094021E+02  0.00000000000E+00 0. -1.
</event>
<event>
 7    1  0.1134395E-011  0.5930196E+02  0.7816164E-02  0.1266605E+00
        -11   -1    0    0    0    0  0.00000000000E+00  0.00000000000E+00  0.45593999997E+02  0.45594000000E+02  0.51100000000E-03 0.  1.
         11   -1    0    0    0    0 -0.00000000000E+00 -0.00000000000E+00 -0.45593999997E+02  0.45594000000E+02  0.51100000000E-03 0. -1.
    9900012    2    1    2    0    0 -0.11433405515E+02 -0.52258752934E+01  0.29303361128E+02  0.59301960615E+02  0.50000030251E+02 0.  0.
         12    1    1    2    0    0  0.11433405515E+02  0.52258752934E+01 -0.29303361128E+02  0.31886039385E+02  0.00000000000E+00 0. -1.
         11    1    3    3    0    0 -0.10026334114E+02 -0.16960276830E+02  0.45707083453E+01  0.20225472577E+02  0.51100000000E-03 0. -1.
        -11    1    3    3    0    0 -0.59272088672E+01  0.97674452096E+01 -0.22522145237E+01  0.11645053087E+02  0.51100000000E-03 0.  1.
        -12    1    3    3    0    0  0.45201374658E+01  0.19669563273E+01  0.26984867307E+02  0.27431434951E+02  0.00000000000E+00 0.  1.
</event>
<event>
 7    1  0.1134395E-011  0.5930194E+02  0.7816164E-02  0.1266605E+00
        -11   -1    0    0    0    0  0.00000000000E+00  0.00000000000E+00  0.45593999997E+02  0.45594000000E+02  0.51100000000E-03 0.  1.
         11   -1    0    0    0    0 -0.00000000000E+00 -0.00000000000E+00 -0.45593999997E+02  0.45594000000E+02  0.51100000000E-03 0. -1.
    9900012    2    1    2    0    0 -0.21996853892E+02 -0.15607194242E+02 -0.17008080767E+02  0.59301938710E+02  0.49999990301E+02 0.  0.
         12    1    1    2    0    0  0.21996853892E+02  0.15607194242E+02  0.17008080767E+02  0.31886061290E+02  0.00000000000E+00 0. -1.
         11    1    3    3    0    0 -0.11934820659E+02  0.10104094170E+02  0.65314519213E+01  0.16946755667E+02  0.51100000000E-03 0. -1.
        -11    1    3    3    0    0 -0.48300615924E+00 -0.69063793025E+01  0.37371504621E+01  0.78675068388E+01  0.51100000000E-03 0.  1.
        -12    1    3    3    0    0 -0.95790270732E+01 -0.18804909109E+02 -0.27276683150E+02  0.34487676204E+02  0.00000000000E+00 0.  1.
</event>
<event>
 7    1  0.1134395E-011  0.5930192E+02  0.7816164E-02  0.1266605E+00
        -11   -1    0    0    0    0  0.00000000000E+00  0.00000000000E+00  0.45593999997E+02  0.45594000000E+02  0.51100000000E-03 0.  1.
         11   -1    0    0    0    0 -0.00000000000E+00 -0.00000000000E+00 -0.45593999997E+02  0.45594000000E+02  0.51100000000E-03 0. -1.
    9900012    2    1    2    0    0  0.30350589920E+02 -0.12155996134E+01  0.96997857384E+01  0.59301924132E+02  0.49999963715E+02 0.  0.
         12    1    1    2    0    0 -0.30350589920E+02  0.12155996134E+01 -0.96997857384E+01  0.31886075868E+02  0.00000000000E+00 0. -1.
         11    1    3    3    0    0  0.90156419740E+01  0.57146907278E+01  0.46192401396E+01  0.11630858526E+02  0.51100000000E-03 0. -1.
        -11    1    3    3    0    0  0.29230966569E+02  0.37710187595E+01  0.12977815793E+02  0.32203939077E+02  0.51100000000E-03 0.  1.
         12    1    3    3    0    0 -0.78960186229E+01 -0.10701309101E+02 -0.78972701940E+01  0.15467126529E+02  0.00000000000E+00 0. -1.
</event>
<event>
 7    1  0.1134395E-011  0.5930195E+02  0.7816164E-02  0.1266605E+00
        -11   -1    0    0    0    0  0.00000000000E+00  0.00000000000E+00  0.45593999997E+02  0.45594000000E+02  0.51100000000E-03 0.  1.
         11   -1    0    0    0    0 -0.00000000000E+00 -0.00000000000E+00 -0.45593999997E+02  0.45594000000E+02  0.51100000000E-03 0. -1.
    9900012    2    1    2    0    0  0.19676738352E+02  0.23773970195E+02  0.80214980375E+01  0.59301950986E+02  0.50000012690E+02 0.  0.
         12    1    1    2    0    0 -0.19676738352E+02 -0.23773970195E+02 -0.80214980375E+01  0.31886049014E+02  0.00000000000E+00 0. -1.
         11    1    3    3    0    0  0.18276291820E+01 -0.71670764569E+01 -0.95379012965E+01  0.12069746260E+02  0.51100000000E-03 0. -1.
        -11    1    3    3    0    0  0.94228746046E+01 -0.17965377092E+01  0.67938902402E+01  0.11754788744E+02  0.51100000000E-03 0.  1.
        -12    1    3    3    0    0  0.84262345650E+01  0.32737584361E+02  0.10765509094E+02  0.35477415982E+02  0.00000000000E+00 0.  1.
</event>
<event>
 7    1  0.1134395E-011  0.5930195E+02  0.7816164E-02  0.1266605E+00
        -11   -1    0    0    0    0  0.00000000000E+00  0.00000000000E+00  0.45593999997E+02  0.45594000000E+02  0.51100000000E-03 0.  1.
         11   -1    0    0    0    0 -0.00000000000E+00 -0.00000000000E+00 -0.45593999997E+02  0.45594000000E+02  0.51100000000E-03 0. -1.
    9900012    2    1    2    0    0  0.41436302835E+01  0.83722299017E+01  0.30486983307E+02  0.59301952007E+02  0.50000014552E+02 0.  0.
         12    1    1    2    0    0 -0.41436302835E+01 -0.83722299017E+01 -0.30486983307E+02  0.31886047993E+02  0.00000000000E+00 0. -1.
         11    1    3    3    0    0  0.35213577727E+01  0.69097634570E+01  0.47212732368E+01  0.90793839457E+01  0.51100000000E-03 0. -1.
        -11    1    3    3    0    0  0.14600028738E+02  0.13321149671E+02  0.25009982241E+02  0.31876528664E+02  0.51100000000E-03 0.  1.
        -12    1    3    3    0    0 -0.13977756227E+02 -0.11858683226E+02  0.75572782988E+00  0.18346039397E+02  0.00000000000E+00 0.  1.
</event>
<event>
 7    1  0.1134395E-011  0.5930195E+02  0.7816164E-02  0.1266605E+00
        -11   -1    0    0    0    0  0.00000000000E+00  0.00000000000E+00  0.45593999997E+02  0.45594000000E+02  0.51100000000E-03 0.  1.
         11   -1    0    0    0    0 -0.00000000000E+00 -0.00000000000E+00 -0.45593999997E+02  0.45594000000E+02  0.51100000000E-03 0. -1.
    9900012    2    1    2    0    0 -0.31857753556E+02 -0.22448318675E+00 -0.13240374344E+01  0.59301954000E+02  0.50000018188E+02 0.  0.
         12    1    1    2    0    0  0.31857753556E+02  0.22448318675E+00  0.13240374344E+01  0.31886046000E+02  0.00000000000E+00 0. -1.
         11    1    3    3    0    0 -0.85758361862E+01  0.10623586945E+02  0.10238986033E+02  0.17065825533E+02  0.51100000000E-03 0. -1.
        -11    1    3    3    0    0 -0.29512555700E+02 -0.90079016617E+01 -0.23273131465E+01  0.30944298717E+02  0.51100000000E-03 0.  1.
        -12    1    3    3    0    0  0.62306383302E+01 -0.18401684698E+01 -0.92357103208E+01  0.11291829751E+02  0.00000000000E+00 0.  1.
</event>
<event>
 7    1  0.1134395E-011  0.5930198E+02  0.7816164E-02  0.1266605E+00
        -11   -1    0    0    0    0  0.00000000000E+00  0.00000000000E+00  0.45593999997E+02  0.45594000000E+02  0.51100000000E-03 0. -1.
         11   -1    0    0    0    0 -0.00000000000E+00 -0.00000000000E+00 -0.45593999997E+02  0.45594000000E+02  0.51100000000E-03 0.  1.
    9900012    2    1    2    0    0 -0.24130101056E+02  0.16460201818E+02 -0.12787427843E+02  0.59301979055E+02  0.50000063881E+02 0.  0.
         12    1    1    2    0    0  0.24130101056E+02 -0.16460201818E+02  0.12787427843E+02  0.31886020945E+02  0.00000000000E+00 0. -1.
         11    1    3    3    0    0 -0.18898246660E+01  0.16410490504E+02 -0.57272891816E+01  0.17483634562E+02  0.51100000000E-03 0. -1.
        -11    1    3    3    0    0 -0.25719493691E+02  0.90871736049E+00  0.75140212977E+01  0.26810047357E+02  0.51100000000E-03 0.  1.
         12    1    3    3    0    0  0.34792173005E+01 -0.85900604686E+00 -0.14574159959E+02  0.15008297136E+02  0.00000000000E+00 0. -1.
</event>
<event>
 7    1  0.1134395E-011  0.5930195E+02  0.7816164E-02  0.1266605E+00
        -11   -1    0    0    0    0  0.00000000000E+00  0.00000000000E+00  0.45593999997E+02  0.45594000000E+02  0.51100000000E-03 0.  1.
         11   -1    0    0    0    0 -0.00000000000E+00 -0.00000000000E+00 -0.45593999997E+02  0.45594000000E+02  0.51100000000E-03 0. -1.
    9900012    2    1    2    0    0  0.27895148765E+01  0.10650253825E+02  0.29925088922E+02  0.59301949025E+02  0.50000009113E+02 0.  0.
         12    1    1    2    0    0 -0.27895148765E+01 -0.10650253825E+02 -0.29925088922E+02  0.31886050975E+02  0.00000000000E+00 0. -1.
         11    1    3    3    0    0 -0.17009268716E+01  0.15655743728E+02  0.70258923794E+01  0.17244089651E+02  0.51100000000E-03 0. -1.
        -11    1    3    3    0    0  0.13473352349E+02 -0.11054528887E+02  0.25531640788E+02  0.30912756494E+02  0.51100000000E-03 0.  1.
         12    1    3    3    0    0 -0.89829106012E+01  0.60490389841E+01 -0.26324442451E+01  0.11145102880E+02  0.00000000000E+00 0. -1.
</event>
<event>
 7    1  0.1134395E-011  0.5930184E+02  0.7816164E-02  0.1266605E+00
        -11   -1    0    0    0    0  0.00000000000E+00  0.00000000000E+00  0.45593999997E+02  0.45594000000E+02  0.51100000000E-03 0. -1.
         11   -1    0    0    0    0 -0.00000000000E+00 -0.00000000000E+00 -0.45593999997E+02  0.45594000000E+02  0.51100000000E-03 0.  1.
    9900012    2    1    2    0    0 -0.59095605076E+01 -0.76185072755E+01 -0.30393463300E+02  0.59301840465E+02  0.49999811127E+02 0.  0.
         12    1    1    2    0    0  0.59095605076E+01  0.76185072755E+01  0.30393463300E+02  0.31886159535E+02  0.00000000000E+00 0. -1.
         11    1    3    3    0    0 -0.12420779899E+02  0.15535207242E+02 -0.70949700227E+01  0.21117694884E+02  0.51100000000E-03 0. -1.
        -11    1    3    3    0    0 -0.20203908750E+00  0.28392763903E+01 -0.48051367213E+01  0.55849484675E+01  0.51100000000E-03 0.  1.
        -12    1    3    3    0    0  0.67132584789E+01 -0.25992990908E+02 -0.18493356556E+02  0.32599197113E+02  0.00000000000E+00 0.  1.
</event>
<event>
 7    1  0.1134395E-011  0.5930194E+02  0.7816164E-02  0.1266605E+00
        -11   -1    0    0    0    0  0.00000000000E+00  0.00000000000E+00  0.45593999997E+02  0.45594000000E+02  0.51100000000E-03 0.  1.
         11   -1    0    0    0    0 -0.00000000000E+00 -0.00000000000E+00 -0.45593999997E+02  0.45594000000E+02  0.51100000000E-03 0. -1.
    9900012    2    1    2    0    0  0.24575397719E+02  0.15381997621E+02  0.13272705707E+02  0.59301941281E+02  0.49999994991E+02 0.  0.
         12    1    1    2    0    0 -0.24575397719E+02 -0.15381997621E+02 -0.13272705707E+02  0.31886058719E+02  0.00000000000E+00 0. -1.
         11    1    3    3    0    0  0.69855113890E+01  0.55208922000E+01 -0.88630754460E+01  0.12563109753E+02  0.51100000000E-03 0. -1.
        -11    1    3    3    0    0  0.21124449145E+02 -0.39028995690E+01  0.24222342678E+02  0.32375868510E+02  0.51100000000E-03 0.  1.
         12    1    3    3    0    0 -0.35345628152E+01  0.13764004990E+02 -0.20865615252E+01  0.14362963018E+02  0.00000000000E+00 0. -1.
</event>
<event>
 7    1  0.1134395E-011  0.5930194E+02  0.7816164E-02  0.1266605E+00
        -11   -1    0    0    0    0  0.00000000000E+00  0.00000000000E+00  0.45593999997E+02  0.45594000000E+02  0.51100000000E-03 0.  1.
         11   -1    0    0    0    0 -0.00000000000E+00 -0.00000000000E+00 -0.45593999997E+02  0.45594000000E+02  0.51100000000E-03 0. -1.
    9900012    2    1    2    0    0 -0.26115100134E+02  0.12029980839E+02  0.13784107614E+02  0.59301944793E+02  0.50000001395E+02 0.  0.
         12    1    1    2    0    0  0.26115100134E+02 -0.12029980839E+02 -0.13784107614E+02  0.31886055207E+02  0.00000000000E+00 0. -1.
         11    1    3    3    0    0 -0.27126284723E+02  0.60768056225E+01  0.10411948522E+02  0.29684534050E+02  0.51100000000E-03 0. -1.
        -11    1    3    3    0    0 -0.28243022749E+01  0.17048163233E+02 -0.40561871909E+00  0.17285285064E+02  0.51100000000E-03 0.  1.
        -12    1    3    3    0    0  0.38354868645E+01 -0.11094988016E+02  0.37777778110E+01  0.12332125678E+02  0.00000000000E+00 0.  1.
</event>
<event>
 7    1  0.1134395E-011  0.5930193E+02  0.7816164E-02  0.1266605E+00
        -11   -1    0    0    0    0  0.00000000000E+00  0.00000000000E+00  0.45593999997E+02  0.45594000000E+02  0.51100000000E-03 0. -1.
         11   -1    0    0    0    0 -0.00000000000E+00 -0.00000000000E+00 -0.45593999997E+02  0.45594000000E+02  0.51100000000E-03 0.  1.
    9900012    2    1    2    0    0 -0.17543615180E+02  0.17011893566E+02 -0.20482635488E+02  0.59301932309E+02  0.49999978627E+02 0.  0.
         12    1    1    2    0    0  0.17543615180E+02 -0.17011893566E+02  0.20482635488E+02  0.31886067691E+02  0.00000000000E+00 0. -1.
         11    1    3    3    0    0  0.63807657894E+01  0.10469185854E+02 -0.28221605554E+01  0.12581041887E+02  0.51100000000E-03 0.  1.
        -11    1    3    3    0    0 -0.34478513448E+00 -0.93657126585E+01  0.47517814403E+01  0.10507848377E+02  0.51100000000E-03 0. -1.
        -12    1    3    3    0    0 -0.23579595835E+02  0.15908420371E+02 -0.22412256373E+02  0.36213042045E+02  0.00000000000E+00 0.  1.
</event>
<event>
 7    1  0.1134395E-011  0.5930194E+02  0.7816164E-02  0.1266605E+00
        -11   -1    0    0    0    0  0.00000000000E+00  0.00000000000E+00  0.45593999997E+02  0.45594000000E+02  0.51100000000E-03 0.  1.
         11   -1    0    0    0    0 -0.00000000000E+00 -0.00000000000E+00 -0.45593999997E+02  0.45594000000E+02  0.51100000000E-03 0. -1.
    9900012    2    1    2    0    0 -0.10148327426E+02 -0.16742413304E+02  0.25167909861E+02  0.59301942866E+02  0.49999997881E+02 0.  0.
         12    1    1    2    0    0  0.10148327426E+02  0.16742413304E+02 -0.25167909861E+02  0.31886057134E+02  0.00000000000E+00 0. -1.
         11    1    3    3    0    0  0.29587320386E+01 -0.60843600751E+01  0.24278384056E+02  0.25203441539E+02  0.51100000000E-03 0. -1.
        -11    1    3    3    0    0  0.39911653848E+01 -0.15441870423E+02  0.29656452056E+01  0.16222694444E+02  0.51100000000E-03 0.  1.
        -12    1    3    3    0    0 -0.17098224849E+02  0.47838171935E+01 -0.20761194009E+01  0.17875806883E+02  0.00000000000E+00 0.  1.
</event>
<event>
 7    1  0.1134395E-011  0.5930197E+02  0.7816164E-02  0.1266605E+00
        -11   -1    0    0    0    0  0.00000000000E+00  0.00000000000E+00  0.45593999997E+02  0.45594000000E+02  0.51100000000E-03 0.  1.
         11   -1    0    0    0    0 -0.00000000000E+00 -0.00000000000E+00 -0.45593999997E+02  0.45594000000E+02  0.51100000000E-03 0. -1.
    9900012    2    1    2    0    0  0.28322698883E+02  0.14601608289E+02  0.11561829278E+01  0.59301968645E+02  0.50000044896E+02 0.  0.
         12    1    1    2    0    0 -0.28322698883E+02 -0.14601608289E+02 -0.11561829278E+01  0.31886031355E+02  0.00000000000E+00 0. -1.
         11    1    3    3    0    0 -0.88003053099E+01  0.22975583661E+01 -0.49804302747E+01  0.10369611081E+02  0.51100000000E-03 0. -1.
        -11    1    3    3    0    0  0.52375883398E+01 -0.79107876108E+01  0.59110984899E+01  0.11178281525E+02  0.51100000000E-03 0.  1.
         12    1    3    3    0    0  0.31885415853E+02  0.20214837534E+02  0.22551471260E+00  0.37754076038E+02  0.00000000000E+00 0. -1.
</event>
<event>
 7    1  0.1134395E-011  0.5930193E+02  0.7816164E-02  0.1266605E+00
        -11   -1    0    0    0    0  0.00000000000E+00  0.00000000000E+00  0.45593999997E+02  0.45594000000E+02  0.51100000000E-03 0.  1.
         11   -1    0    0    0    0 -0.00000000000E+00 -0.00000000000E+00 -0.45593999997E+02  0.45594000000E+02  0.51100000000E-03 0. -1.
    9900012    2    1    2    0    0  0.24951808531E+01 -0.11709701875E+02  0.29552972241E+02  0.59301933862E+02  0.49999981461E+02 0.  0.
         12    1    1    2    0    0 -0.24951808531E+01  0.11709701875E+02 -0.29552972241E+02  0.31886066138E+02  0.00000000000E+00 0. -1.
         11    1    3    3    0    0 -0.10535703600E+01 -0.11441434884E+02  0.17086610000E+02  0.20590499855E+02  0.51100000000E-03 0. -1.
        -11    1    3    3    0    0  0.10958139729E+02  0.98390100350E+01  0.19425254638E+02  0.24376781223E+02  0.51100000000E-03 0.  1.
         12    1    3    3    0    0 -0.74093885160E+01 -0.10107277026E+02 -0.69588923973E+01  0.14334652784E+02  0.00000000000E+00 0. -1.
</event>
<event>
 7    1  0.1134395E-011  0.5930186E+02  0.7816164E-02  0.1266605E+00
        -11   -1    0    0    0    0  0.00000000000E+00  0.00000000000E+00  0.45593999997E+02  0.45594000000E+02  0.51100000000E-03 0.  1.
         11   -1    0    0    0    0 -0.00000000000E+00 -0.00000000000E+00 -0.45593999997E+02  0.45594000000E+02  0.51100000000E-03 0. -1.
    9900012    2    1    2    0    0  0.11284202531E+01 -0.20869867128E+01  0.31797752118E+02  0.59301860604E+02  0.49999847855E+02 0.  0.
         12    1    1    2    0    0 -0.11284202531E+01  0.20869867128E+01 -0.31797752118E+02  0.31886139396E+02  0.00000000000E+00 0. -1.
         11    1    3    3    0    0  0.10367690453E+02 -0.52455749810E+01  0.25357679297E+02  0.27892955415E+02  0.51100000000E-03 0. -1.
        -11    1    3    3    0    0  0.14715098397E+01  0.12331298508E+02  0.10998235373E+02  0.16588774689E+02  0.51100000000E-03 0.  1.
         12    1    3    3    0    0 -0.10710780039E+02 -0.91727102399E+01 -0.45581625513E+01  0.14820130500E+02  0.00000000000E+00 0. -1.
</event>
<event>
 7    1  0.1134395E-011  0.5930194E+02  0.7816164E-02  0.1266605E+00
        -11   -1    0    0    0    0  0.00000000000E+00  0.00000000000E+00  0.45593999997E+02  0.45594000000E+02  0.51100000000E-03 0.  1.
         11   -1    0    0    0    0 -0.00000000000E+00 -0.00000000000E+00 -0.45593999997E+02  0.45594000000E+02  0.51100000000E-03 0. -1.
    9900012    2    1    2    0    0 -0.67499368532E+01 -0.29736629510E+02  0.93215764814E+01  0.59301943953E+02  0.49999999863E+02 0.  0.
         12    1    1    2    0    0  0.67499368532E+01  0.29736629510E+02 -0.93215764814E+01  0.31886056047E+02  0.00000000000E+00 0. -1.
         11    1    3    3    0    0 -0.16330062895E+01 -0.54687004428E+00 -0.70333656014E+00  0.18602308902E+01  0.51100000000E-03 0. -1.
        -11    1    3    3    0    0  0.13239031826E+02  0.17778206161E+01 -0.95916808780E+01  0.16444845763E+02  0.51100000000E-03 0.  1.
         12    1    3    3    0    0 -0.18355962390E+02 -0.30967580082E+02  0.19616593920E+02  0.40996867300E+02  0.00000000000E+00 0. -1.
</event>
<event>
 7    1  0.1134395E-011  0.5930206E+02  0.7816164E-02  0.1266604E+00
        -11   -1    0    0    0    0  0.00000000000E+00  0.00000000000E+00  0.45593999997E+02  0.45594000000E+02  0.51100000000E-03 0. -1.
         11   -1    0    0    0    0 -0.00000000000E+00 -0.00000000000E+00 -0.45593999997E+02  0.45594000000E+02  0.51100000000E-03 0.  1.
    9900012    2    1    2    0    0 -0.16641575915E+02  0.26532311530E+02 -0.59839400514E+01  0.59302060424E+02  0.50000212279E+02 0.  0.
         12    1    1    2    0    0  0.16641575915E+02 -0.26532311530E+02  0.59839400514E+01  0.31885939576E+02  0.00000000000E+00 0. -1.
         11    1    3    3    0    0 -0.54379404487E+01  0.14419367643E+02 -0.59036520403E+01  0.16502801799E+02  0.51100000000E-03 0. -1.
        -11    1    3    3    0    0 -0.18572969318E+02  0.22095056325E+02 -0.52851197028E+01  0.29344150930E+02  0.51100000000E-03 0.  1.
         12    1    3    3    0    0  0.73693338516E+01 -0.99821124375E+01  0.52048316917E+01  0.13455107694E+02  0.00000000000E+00 0. -1.
</event>
<event>
 7    1  0.1134395E-011  0.5930195E+02  0.7816164E-02  0.1266605E+00
        -11   -1    0    0    0    0  0.00000000000E+00  0.00000000000E+00  0.45593999997E+02  0.45594000000E+02  0.51100000000E-03 0.  1.
         11   -1    0    0    0    0 -0.00000000000E+00 -0.00000000000E+00 -0.45593999997E+02  0.45594000000E+02  0.51100000000E-03 0. -1.
    9900012    2    1    2    0    0 -0.25286362766E+02 -0.19403055001E+02  0.91738400825E+00  0.59301948524E+02  0.50000008200E+02 0.  0.
         12    1    1    2    0    0  0.25286362766E+02  0.19403055001E+02 -0.91738400825E+00  0.31886051476E+02  0.00000000000E+00 0. -1.
         11    1    3    3    0    0  0.29360494635E+01 -0.14379008659E+02  0.70967377761E+01  0.16301532560E+02  0.51100000000E-03 0. -1.
        -11    1    3    3    0    0  0.65943230953E+00  0.70757710846E+01  0.60994564479E+01  0.93650817740E+01  0.51100000000E-03 0.  1.
         12    1    3    3    0    0 -0.28881844539E+02 -0.12099817427E+02 -0.12278810216E+02  0.33635334190E+02  0.00000000000E+00 0. -1.
</event>
<event>
 7    1  0.1134395E-011  0.5930193E+02  0.7816164E-02  0.1266605E+00
        -11   -1    0    0    0    0  0.00000000000E+00  0.00000000000E+00  0.45593999997E+02  0.45594000000E+02  0.51100000000E-03 0. -1.
         11   -1    0    0    0    0 -0.00000000000E+00 -0.00000000000E+00 -0.45593999997E+02  0.45594000000E+02  0.51100000000E-03 0.  1.
    9900012    2    1    2    0    0  0.40044923639E+01  0.15243173526E+02 -0.27718790102E+02  0.59301927445E+02  0.49999969758E+02 0.  0.
         12    1    1    2    0    0 -0.40044923639E+01 -0.15243173526E+02  0.27718790102E+02  0.31886072555E+02  0.00000000000E+00 0. -1.
         11    1    3    3    0    0  0.12048333454E+02  0.42645669359E+01 -0.35492934080E+01  0.13264477153E+02  0.51100000000E-03 0.  1.
        -11    1    3    3    0    0  0.21474203185E+01  0.70482504725E+01  0.86998411379E+01  0.11400722996E+02  0.51100000000E-03 0. -1.
        -12    1    3    3    0    0 -0.10191261409E+02  0.39303561180E+01 -0.32869337832E+02  0.34636727297E+02  0.00000000000E+00 0.  1.
</event>
<event>
 7    1  0.1134395E-011  0.5930195E+02  0.7816164E-02  0.1266605E+00
        -11   -1    0    0    0    0  0.00000000000E+00  0.00000000000E+00  0.45593999997E+02  0.45594000000E+02  0.51100000000E-03 0. -1.
         11   -1    0    0    0    0 -0.00000000000E+00 -0.00000000000E+00 -0.45593999997E+02  0.45594000000E+02  0.51100000000E-03 0.  1.
    9900012    2    1    2    0    0  0.24020077671E+02 -0.10262210202E+02 -0.18287778198E+02  0.59301954134E+02  0.50000018432E+02 0.  0.
         12    1    1    2    0    0 -0.24020077671E+02  0.10262210202E+02  0.18287778198E+02  0.31886045866E+02  0.00000000000E+00 0. -1.
         11    1    3    3    0    0  0.23660425561E+02 -0.12816047270E+02 -0.59718450191E+01  0.27563195361E+02  0.51100000000E-03 0. -1.
        -11    1    3    3    0    0  0.12368854966E+02  0.74604505509E+01 -0.11972487354E+02  0.18761325894E+02  0.51100000000E-03 0.  1.
         12    1    3    3    0    0 -0.12009202855E+02 -0.49066134828E+01 -0.34344582441E+00  0.12977432879E+02  0.00000000000E+00 0. -1.
</event>
<event>
 7    1  0.1134395E-011  0.5930192E+02  0.7816164E-02  0.1266605E+00
        -11   -1    0    0    0    0  0.00000000000E+00  0.00000000000E+00  0.45593999997E+02  0.45594000000E+02  0.51100000000E-03 0.  1.
         11   -1    0    0    0    0 -0.00000000000E+00 -0.00000000000E+00 -0.45593999997E+02  0.45594000000E+02  0.51100000000E-03 0. -1.
    9900012    2    1    2    0    0  0.15081737800E+02 -0.27179465403E+02  0.71091564693E+01  0.59301917451E+02  0.49999951530E+02 0.  0.
         12    1    1    2    0    0 -0.15081737800E+02  0.27179465403E+02 -0.71091564693E+01  0.31886082549E+02  0.00000000000E+00 0. -1.
         11    1    3    3    0    0 -0.41183351765E+01 -0.82616141107E+01  0.33950742381E+01  0.98357247666E+01  0.51100000000E-03 0. -1.
        -11    1    3    3    0    0 -0.90077359719E+01 -0.94063993943E+01  0.12881726518E+02  0.18318256884E+02  0.51100000000E-03 0.  1.
         12    1    3    3    0    0  0.28207808948E+02 -0.95114518976E+01 -0.91676442873E+01  0.31147935800E+02  0.00000000000E+00 0. -1.
</event>
<event>
 7    1  0.1134395E-011  0.5930195E+02  0.7816164E-02  0.1266605E+00
        -11   -1    0    0    0    0  0.00000000000E+00  0.00000000000E+00  0.45593999997E+02  0.45594000000E+02  0.51100000000E-03 0.  1.
         11   -1    0    0    0    0 -0.00000000000E+00 -0.00000000000E+00 -0.45593999997E+02  0.45594000000E+02  0.51100000000E-03 0. -1.
    9900012    2    1    2    0    0 -0.11077134297E+02  0.14864514312E+02  0.25943469770E+02  0.59301947976E+02  0.50000007202E+02 0.  0.
         12    1    1    2    0    0  0.11077134297E+02 -0.14864514312E+02 -0.25943469770E+02  0.31886052024E+02  0.00000000000E+00 0. -1.
         11    1    3    3    0    0 -0.53033462470E+01 -0.33994298037E+01 -0.72648242633E+01  0.96155746705E+01  0.51100000000E-03 0. -1.
        -11    1    3    3    0    0  0.54890516409E+01  0.10061873269E+02 -0.21682408661E+01  0.11665001085E+02  0.51100000000E-03 0.  1.
         12    1    3    3    0    0 -0.11262839691E+02  0.82020708458E+01  0.35376534899E+02  0.38021372221E+02  0.00000000000E+00 0. -1.
</event>
<event>
 7    1  0.1134395E-011  0.5930191E+02  0.7816164E-02  0.1266605E+00
        -11   -1    0    0    0    0  0.00000000000E+00  0.00000000000E+00  0.45593999997E+02  0.45594000000E+02  0.51100000000E-03 0. -1.
         11   -1    0    0    0    0 -0.00000000000E+00 -0.00000000000E+00 -0.45593999997E+02  0.45594000000E+02  0.51100000000E-03 0.  1.
    9900012    2    1    2    0    0  0.60226399833E+01 -0.31049749979E+02 -0.40452206319E+01  0.59301906227E+02  0.49999931060E+02 0.  0.
         12    1    1    2    0    0 -0.60226399833E+01  0.31049749979E+02  0.40452206319E+01  0.31886093773E+02  0.00000000000E+00 0. -1.
         11    1    3    3    0    0 -0.89716513101E+01 -0.13881722458E+02 -0.58942280661E+01  0.17548067426E+02  0.51100000000E-03 0. -1.
        -11    1    3    3    0    0 -0.23700565952E+01 -0.22455969020E+02 -0.34541510891E+01  0.22843355115E+02  0.51100000000E-03 0.  1.
         12    1    3    3    0    0  0.17364347889E+02  0.52879414992E+01  0.53031585233E+01  0.18910483685E+02  0.00000000000E+00 0. -1.
</event>
<event>
 7    1  0.1134395E-011  0.5930194E+02  0.7816164E-02  0.1266605E+00
        -11   -1    0    0    0    0  0.00000000000E+00  0.00000000000E+00  0.45593999997E+02  0.45594000000E+02  0.51100000000E-03 0. -1.
         11   -1    0    0    0    0 -0.00000000000E+00 -0.00000000000E+00 -0.45593999997E+02  0.45594000000E+02  0.51100000000E-03 0.  1.
    9900012    2    1    2    0    0 -0.11480954460E+02  0.10759916525E+02 -0.27733238626E+02  0.59301942802E+02  0.49999997764E+02 0.  0.
         12    1    1    2    0    0  0.11480954460E+02 -0.10759916525E+02  0.27733238626E+02  0.31886057198E+02  0.00000000000E+00 0. -1.
         11    1    3    3    0    0  0.94363074876E+00  0.75089836563E+01  0.41234668823E+00  0.75792680777E+01  0.51100000000E-03 0. -1.
        -11    1    3    3    0    0 -0.26493970044E+02  0.85111333301E+01 -0.14265757259E+02  0.31271099592E+02  0.51100000000E-03 0.  1.
        -12    1    3    3    0    0  0.14069384835E+02 -0.52602004617E+01 -0.13879828055E+02  0.20451575132E+02  0.00000000000E+00 0.  1.
</event>
<event>
 7    1  0.1134395E-011  0.5930196E+02  0.7816164E-02  0.1266605E+00
        -11   -1    0    0    0    0  0.00000000000E+00  0.00000000000E+00  0.45593999997E+02  0.45594000000E+02  0.51100000000E-03 0.  1.
         11   -1    0    0    0    0 -0.00000000000E+00 -0.00000000000E+00 -0.45593999997E+02  0.45594000000E+02  0.51100000000E-03 0. -1.
    9900012    2    1    2    0    0 -0.35329476392E+01 -0.26519439691E+02 -0.17348110914E+02  0.59301963043E+02  0.50000034679E+02 0.  0.
         12    1    1    2    0    0  0.35329476392E+01  0.26519439691E+02  0.17348110914E+02  0.31886036957E+02  0.00000000000E+00 0. -1.
         11    1    3    3    0    0 -0.98235699684E+01 -0.60591970808E+01  0.37877220877E+01  0.12147560869E+02  0.51100000000E-03 0. -1.
        -11    1    3    3    0    0  0.14114789827E+02 -0.13393093492E+02  0.40287168454E+01  0.19870400218E+02  0.51100000000E-03 0.  1.
         12    1    3    3    0    0 -0.78241674976E+01 -0.70671491183E+01 -0.25164549848E+02  0.27284001956E+02  0.00000000000E+00 0. -1.
</event>
<event>
 7    1  0.1134395E-011  0.5930196E+02  0.7816164E-02  0.1266605E+00
        -11   -1    0    0    0    0  0.00000000000E+00  0.00000000000E+00  0.45593999997E+02  0.45594000000E+02  0.51100000000E-03 0.  1.
         11   -1    0    0    0    0 -0.00000000000E+00 -0.00000000000E+00 -0.45593999997E+02  0.45594000000E+02  0.51100000000E-03 0. -1.
    9900012    2    1    2    0    0 -0.29775422576E+02 -0.56540153879E+01  0.99083628840E+01  0.59301963328E+02  0.50000035200E+02 0.  0.
         12    1    1    2    0    0  0.29775422576E+02  0.56540153879E+01 -0.99083628840E+01  0.31886036672E+02  0.00000000000E+00 0. -1.
         11    1    3    3    0    0 -0.35856823492E+01 -0.53070935016E+01  0.15146673399E+02  0.16445183935E+02  0.51100000000E-03 0. -1.
        -11    1    3    3    0    0 -0.32353103299E+02 -0.29808457357E+01  0.25397140240E+01  0.32589244882E+02  0.51100000000E-03 0.  1.
        -12    1    3    3    0    0  0.61633630727E+01  0.26339238494E+01 -0.77780245390E+01  0.10267534511E+02  0.00000000000E+00 0.  1.
</event>
<event>
 7    1  0.1134395E-011  0.5930195E+02  0.7816164E-02  0.1266605E+00
        -11   -1    0    0    0    0  0.00000000000E+00  0.00000000000E+00  0.45593999997E+02  0.45594000000E+02  0.51100000000E-03 0.  1.
         11   -1    0    0    0    0 -0.00000000000E+00 -0.00000000000E+00 -0.45593999997E+02  0.45594000000E+02  0.51100000000E-03 0. -1.
    9900012    2    1    2    0    0  0.66669898422E+01 -0.30975973350E+02  0.35722289901E+01  0.59301945078E+02  0.50000001915E+02 0.  0.
         12    1    1    2    0    0 -0.66669898422E+01  0.30975973350E+02 -0.35722289901E+01  0.31886054922E+02  0.00000000000E+00 0. -1.
         11    1    3    3    0    0  0.12919749121E+02 -0.28630445039E+01 -0.15538988298E+02  0.20410220449E+02  0.51100000000E-03 0. -1.
        -11    1    3    3    0    0 -0.10322909635E+00 -0.22920828729E+01 -0.33907965188E+01  0.40941179069E+01  0.51100000000E-03 0.  1.
        -12    1    3    3    0    0 -0.61495301823E+01 -0.25820845973E+02  0.22502013807E+02  0.34797606722E+02  0.00000000000E+00 0.  1.
</event>
<event>
 7    1  0.1134395E-011  0.5930194E+02  0.7816164E-02  0.1266605E+00
        -11   -1    0    0    0    0  0.00000000000E+00  0.00000000000E+00  0.45593999997E+02  0.45594000000E+02  0.51100000000E-03 0.  1.
         11   -1    0    0    0    0 -0.00000000000E+00 -0.00000000000E+00 -0.45593999997E+02  0.45594000000E+02  0.51100000000E-03 0. -1.
    9900012    2    1    2    0    0 -0.14885234677E+02 -0.15081786317E+02  0.23826247019E+02  0.59301944475E+02  0.50000000817E+02 0.  0.
         12    1    1    2    0    0  0.14885234677E+02  0.15081786317E+02 -0.23826247019E+02  0.31886055525E+02  0.00000000000E+00 0. -1.
         11    1    3    3    0    0 -0.53284140331E+00 -0.10638182788E+02 -0.36274293111E+01  0.11252248516E+02  0.51100000000E-03 0.  1.
        -11    1    3    3    0    0 -0.12081474581E+02 -0.15764515248E+02  0.18312628653E+01  0.19945813921E+02  0.51100000000E-03 0. -1.
        -12    1    3    3    0    0 -0.22709186927E+01  0.11320911719E+02  0.25622413465E+02  0.28103882038E+02  0.00000000000E+00 0.  1.
</event>
<event>
 7    1  0.1134395E-011  0.5930198E+02  0.7816164E-02  0.1266605E+00
        -11   -1    0    0    0    0  0.00000000000E+00  0.00000000000E+00  0.45593999997E+02  0.45594000000E+02  0.51100000000E-03 0. -1.
         11   -1    0    0    0    0 -0.00000000000E+00 -0.00000000000E+00 -0.45593999997E+02  0.45594000000E+02  0.51100000000E-03 0.  1.
    9900012    2    1    2    0    0  0.51641701719E+01  0.31436819562E+02 -0.13327649892E+01  0.59301975785E+02  0.50000057918E+02 0.  0.
         12    1    1    2    0    0 -0.51641701719E+01 -0.31436819562E+02  0.13327649892E+01  0.31886024215E+02  0.00000000000E+00 0. -1.
         11    1    3    3    0    0  0.50622986325E+01 -0.76837078265E+01 -0.10083014751E+01  0.92565061191E+01  0.51100000000E-03 0. -1.
        -11    1    3    3    0    0 -0.13496367212E+02  0.15549359337E+02 -0.74829966449E+01  0.21907298847E+02  0.51100000000E-03 0.  1.
         12    1    3    3    0    0  0.13598238752E+02  0.23571168052E+02  0.71585331307E+01  0.28138170819E+02  0.00000000000E+00 0. -1.
</event>
<event>
 7    1  0.1134395E-011  0.5930199E+02  0.7816164E-02  0.1266605E+00
        -11   -1    0    0    0    0  0.00000000000E+00  0.00000000000E+00  0.45593999997E+02  0.45594000000E+02  0.51100000000E-03 0. -1.
         11   -1    0    0    0    0 -0.00000000000E+00 -0.00000000000E+00 -0.45593999997E+02  0.45594000000E+02  0.51100000000E-03 0.  1.
    9900012    2    1    2    0    0 -0.30864639509E+01 -0.15173736050E+02 -0.27873803931E+02  0.59301992551E+02  0.50000088495E+02 0.  0.
         12    1    1    2    0    0  0.30864639509E+01  0.15173736050E+02  0.27873803931E+02  0.31886007449E+02  0.00000000000E+00 0. -1.
         11    1    3    3    0    0  0.16946598072E+00  0.90102186147E+01  0.46482300286E+01  0.10139960595E+02  0.51100000000E-03 0. -1.
        -11    1    3    3    0    0  0.11826741943E+02 -0.10856083378E+02 -0.98060773547E+01  0.18811845328E+02  0.51100000000E-03 0.  1.
         12    1    3    3    0    0 -0.15082671874E+02 -0.13327871287E+02 -0.22715956605E+02  0.30350186629E+02  0.00000000000E+00 0. -1.
</event>
<event>
 7    1  0.1134395E-011  0.5930195E+02  0.7816164E-02  0.1266605E+00
        -11   -1    0    0    0    0  0.00000000000E+00  0.00000000000E+00  0.45593999997E+02  0.45594000000E+02  0.51100000000E-03 0.  1.
         11   -1    0    0    0    0 -0.00000000000E+00 -0.00000000000E+00 -0.45593999997E+02  0.45594000000E+02  0.51100000000E-03 0. -1.
    9900012    2    1    2    0    0  0.12815999646E+02  0.15825560796E+02  0.24536132911E+02  0.59301952273E+02  0.50000015038E+02 0.  0.
         12    1    1    2    0    0 -0.12815999646E+02 -0.15825560796E+02 -0.24536132911E+02  0.31886047727E+02  0.00000000000E+00 0. -1.
         11    1    3    3    0    0 -0.67840321966E+01 -0.11094265651E+02  0.17000365381E+02  0.21403697030E+02  0.51100000000E-03 0. -1.
        -11    1    3    3    0    0  0.15080570002E+02  0.68861201499E+01  0.26622459751E+01  0.16790765206E+02  0.51100000000E-03 0.  1.
        -12    1    3    3    0    0  0.45194618402E+01  0.20033706298E+02  0.48735215546E+01  0.21107490038E+02  0.00000000000E+00 0.  1.
</event>
<event>
 7    1  0.1134395E-011  0.5930194E+02  0.7816164E-02  0.1266605E+00
        -11   -1    0    0    0    0  0.00000000000E+00  0.00000000000E+00  0.45593999997E+02  0.45594000000E+02  0.51100000000E-03 0.  1.
         11   -1    0    0    0    0 -0.00000000000E+00 -0.00000000000E+00 -0.45593999997E+02  0.45594000000E+02  0.51100000000E-03 0. -1.
    9900012    2    1    2    0    0 -0.54973977039E+01 -0.83320274966E+01  0.30283272878E+02  0.59301942233E+02  0.49999996728E+02 0.  0.
         12    1    1    2    0    0  0.54973977039E+01  0.83320274966E+01 -0.30283272878E+02  0.31886057767E+02  0.00000000000E+00 0. -1.
         11    1    3    3    0    0  0.34671801649E+01  0.15281895494E+02  0.15976761341E+02  0.22378886733E+02  0.51100000000E-03 0. -1.
        -11    1    3    3    0    0 -0.74490154519E+00  0.43669987709E+01 -0.21619821921E-01  0.44301268892E+01  0.51100000000E-03 0.  1.
        -12    1    3    3    0    0 -0.82196763236E+01 -0.27980921762E+02  0.14328131358E+02  0.32492928611E+02  0.00000000000E+00 0.  1.
</event>
<event>
 7    1  0.1134395E-011  0.5930196E+02  0.7816164E-02  0.1266605E+00
        -11   -1    0    0    0    0  0.00000000000E+00  0.00000000000E+00  0.45593999997E+02  0.45594000000E+02  0.51100000000E-03 0.  1.
         11   -1    0    0    0    0 -0.00000000000E+00 -0.00000000000E+00 -0.45593999997E+02  0.45594000000E+02  0.51100000000E-03 0. -1.
    9900012    2    1    2    0    0  0.30160082125E+02 -0.86003810565E-01  0.10348029586E+02  0.59301958120E+02  0.50000025701E+02 0.  0.
         12    1    1    2    0    0 -0.30160082125E+02  0.86003810565E-01 -0.10348029586E+02  0.31886041880E+02  0.00000000000E+00 0. -1.
         11    1    3    3    0    0  0.19206293583E+01  0.14690176283E+02 -0.23961410200E+01  0.15007717628E+02  0.51100000000E-03 0. -1.
        -11    1    3    3    0    0  0.10642600161E+02 -0.21129964263E+02  0.60088777249E+01  0.24409976234E+02  0.51100000000E-03 0.  1.
         12    1    3    3    0    0  0.17596852606E+02  0.63537841700E+01  0.67352928813E+01  0.19884264258E+02  0.00000000000E+00 0. -1.
</event>
<event>
 7    1  0.1134395E-011  0.5930207E+02  0.7816164E-02  0.1266604E+00
        -11   -1    0    0    0    0  0.00000000000E+00  0.00000000000E+00  0.45593999997E+02  0.45594000000E+02  0.51100000000E-03 0.  1.
         11   -1    0    0    0    0 -0.00000000000E+00 -0.00000000000E+00 -0.45593999997E+02  0.45594000000E+02  0.51100000000E-03 0. -1.
    9900012    2    1    2    0    0 -0.30177004530E+01  0.27570464148E+02  0.15731354048E+02  0.59302070352E+02  0.50000230384E+02 0.  0.
         12    1    1    2    0    0  0.30177004530E+01 -0.27570464148E+02 -0.15731354048E+02  0.31885929648E+02  0.00000000000E+00 0. -1.
         11    1    3    3    0    0  0.44794321745E+01  0.33699575222E+02  0.69133605302E+01  0.34691803597E+02  0.51100000000E-03 0. -1.
        -11    1    3    3    0    0 -0.70591026337E+01  0.64146659655E+01  0.72090520580E+01  0.11956140735E+02  0.51100000000E-03 0.  1.
         12    1    3    3    0    0 -0.43802999377E+00 -0.12543777039E+02  0.16089414601E+01  0.12654126019E+02  0.00000000000E+00 0. -1.
</event>
<event>
 7    1  0.1134395E-011  0.5930196E+02  0.7816164E-02  0.1266605E+00
        -11   -1    0    0    0    0  0.00000000000E+00  0.00000000000E+00  0.45593999997E+02  0.45594000000E+02  0.51100000000E-03 0.  1.
         11   -1    0    0    0    0 -0.00000000000E+00 -0.00000000000E+00 -0.45593999997E+02  0.45594000000E+02  0.51100000000E-03 0. -1.
    9900012    2    1    2    0    0  0.10830027659E+02  0.22550781726E+02  0.19770996214E+02  0.59301960000E+02  0.50000029130E+02 0.  0.
         12    1    1    2    0    0 -0.10830027659E+02 -0.22550781726E+02 -0.19770996214E+02  0.31886040000E+02  0.00000000000E+00 0. -1.
         11    1    3    3    0    0  0.20932018394E+02  0.60418232518E+00  0.15081669856E+02  0.25806417733E+02  0.51100000000E-03 0. -1.
        -11    1    3    3    0    0 -0.77515807968E+01  0.58643406403E+00  0.86658266739E+01  0.11641626259E+02  0.51100000000E-03 0.  1.
        -12    1    3    3    0    0 -0.23504099383E+01  0.21360165337E+02 -0.39765003155E+01  0.21853916008E+02  0.00000000000E+00 0.  1.
</event>
<event>
 7    1  0.1134395E-011  0.5930195E+02  0.7816164E-02  0.1266605E+00
        -11   -1    0    0    0    0  0.00000000000E+00  0.00000000000E+00  0.45593999997E+02  0.45594000000E+02  0.51100000000E-03 0.  1.
         11   -1    0    0    0    0 -0.00000000000E+00 -0.00000000000E+00 -0.45593999997E+02  0.45594000000E+02  0.51100000000E-03 0. -1.
    9900012    2    1    2    0    0 -0.29584555238E+02  0.40955954355E+00  0.11887244324E+02  0.59301949363E+02  0.50000009729E+02 0.  0.
         12    1    1    2    0    0  0.29584555238E+02 -0.40955954355E+00 -0.11887244324E+02  0.31886050637E+02  0.00000000000E+00 0. -1.
         11    1    3    3    0    0 -0.35749705892E+02  0.58171963009E+01  0.13121713751E+02  0.38523507320E+02  0.51100000000E-03 0. -1.
        -11    1    3    3    0    0 -0.54524713531E+01  0.30564920322E+01  0.63728435407E+00  0.62831297144E+01  0.51100000000E-03 0.  1.
        -12    1    3    3    0    0  0.11617622008E+02 -0.84641287896E+01 -0.18717537811E+01  0.14495312328E+02  0.00000000000E+00 0.  1.
</event>
<event>
 7    1  0.1134395E-011  0.5930194E+02  0.7816164E-02  0.1266605E+00
        -11   -1    0    0    0    0  0.00000000000E+00  0.00000000000E+00  0.45593999997E+02  0.45594000000E+02  0.51100000000E-03 0.  1.
         11   -1    0    0    0    0 -0.00000000000E+00 -0.00000000000E+00 -0.45593999997E+02  0.45594000000E+02  0.51100000000E-03 0. -1.
    9900012    2    1    2    0    0 -0.10239010756E+02  0.21214671746E+02  0.21490019391E+02  0.59301943925E+02  0.49999999814E+02 0.  0.
         12    1    1    2    0    0  0.10239010756E+02 -0.21214671746E+02 -0.21490019391E+02  0.31886056075E+02  0.00000000000E+00 0. -1.
         11    1    3    3    0    0 -0.20600247436E+02  0.13782472346E+01  0.95416558064E+01  0.22744514847E+02  0.51100000000E-03 0. -1.
        -11    1    3    3    0    0 -0.60196303032E+01  0.14950242899E+02  0.10849103826E+02  0.19428040710E+02  0.51100000000E-03 0.  1.
         12    1    3    3    0    0  0.16380866983E+02  0.48861816122E+01  0.10992597587E+01  0.17129388368E+02  0.00000000000E+00 0. -1.
</event>
<event>
 7    1  0.1134395E-011  0.5930195E+02  0.7816164E-02  0.1266605E+00
        -11   -1    0    0    0    0  0.00000000000E+00  0.00000000000E+00  0.45593999997E+02  0.45594000000E+02  0.51100000000E-03 0. -1.
         11   -1    0    0    0    0 -0.00000000000E+00 -0.00000000000E+00 -0.45593999997E+02  0.45594000000E+02  0.51100000000E-03 0.  1.
    9900012    2    1    2    0    0  0.19536009663E+01 -0.19663072357E+02 -0.25025331616E+02  0.59301949857E+02  0.50000010631E+02 0.  0.
         12    1    1    2    0    0 -0.19536009663E+01  0.19663072357E+02  0.25025331616E+02  0.31886050143E+02  0.00000000000E+00 0. -1.
         11    1    3    3    0    0 -0.12019031004E+02 -0.66809649100E+01 -0.94890630667E+01  0.16707325236E+02  0.51100000000E-03 0. -1.
        -11    1    3    3    0    0 -0.43553399270E+01  0.48213764820E+01  0.62505023441E+01  0.90157327420E+01  0.51100000000E-03 0.  1.
        -12    1    3    3    0    0  0.18327971897E+02 -0.17803483929E+02 -0.21786770893E+02  0.33578891879E+02  0.00000000000E+00 0.  1.
</event>
<event>
 7    1  0.1134395E-011  0.5930192E+02  0.7816164E-02  0.1266605E+00
        -11   -1    0    0    0    0  0.00000000000E+00  0.00000000000E+00  0.45593999997E+02  0.45594000000E+02  0.51100000000E-03 0. -1.
         11   -1    0    0    0    0 -0.00000000000E+00 -0.00000000000E+00 -0.45593999997E+02  0.45594000000E+02  0.51100000000E-03 0.  1.
    9900012    2    1    2    0    0 -0.31685182934E+02 -0.46608104196E+00 -0.35431247675E+01  0.59301924948E+02  0.49999965203E+02 0.  0.
         12    1    1    2    0    0  0.31685182934E+02  0.46608104196E+00  0.35431247675E+01  0.31886075052E+02  0.00000000000E+00 0. -1.
         11    1    3    3    0    0 -0.48531274136E+01  0.94587768566E+01 -0.33466516245E+01  0.11145464668E+02  0.51100000000E-03 0. -1.
        -11    1    3    3    0    0 -0.20495072176E+02  0.12903581013E+02 -0.25278228978E+01  0.24350364994E+02  0.51100000000E-03 0.  1.
        -12    1    3    3    0    0 -0.63369833443E+01 -0.22828438912E+02  0.23313497548E+01  0.23806095285E+02  0.00000000000E+00 0.  1.
</event>
<event>
 7    1  0.1134395E-011  0.5930194E+02  0.7816164E-02  0.1266605E+00
        -11   -1    0    0    0    0  0.00000000000E+00  0.00000000000E+00  0.45593999997E+02  0.45594000000E+02  0.51100000000E-03 0.  1.
         11   -1    0    0    0    0 -0.00000000000E+00 -0.00000000000E+00 -0.45593999997E+02  0.45594000000E+02  0.51100000000E-03 0. -1.
    9900012    2    1    2    0    0 -0.42884551290E+01  0.14997798091E+02  0.27809998333E+02  0.59301940315E+02  0.49999993229E+02 0.  0.
         12    1    1    2    0    0  0.42884551290E+01 -0.14997798091E+02 -0.27809998333E+02  0.31886059685E+02  0.00000000000E+00 0. -1.
         11    1    3    3    0    0 -0.46837163749E+01 -0.90392185913E+01  0.60850819579E+01  0.11860560464E+02  0.51100000000E-03 0. -1.
        -11    1    3    3    0    0  0.40940093788E+01 -0.82698465939E+01  0.77388415252E+01  0.12043294561E+02  0.51100000000E-03 0.  1.
        -12    1    3    3    0    0 -0.36987481329E+01  0.32306863276E+02  0.13986074850E+02  0.35398085290E+02  0.00000000000E+00 0.  1.
</event>
<event>
 7    1  0.1134395E-011  0.5930195E+02  0.7816164E-02  0.1266605E+00
        -11   -1    0    0    0    0  0.00000000000E+00  0.00000000000E+00  0.45593999997E+02  0.45594000000E+02  0.51100000000E-03 0. -1.
         11   -1    0    0    0    0 -0.00000000000E+00 -0.00000000000E+00 -0.45593999997E+02  0.45594000000E+02  0.51100000000E-03 0.  1.
    9900012    2    1    2    0    0  0.29367156563E+02 -0.46169589149E+01 -0.11531432776E+02  0.59301950761E+02  0.50000012280E+02 0.  0.
         12    1    1    2    0    0 -0.29367156563E+02  0.46169589149E+01  0.11531432776E+02  0.31886049239E+02  0.00000000000E+00 0. -1.
         11    1    3    3    0    0  0.26080393276E+01  0.86429298332E+01 -0.17044343643E+02  0.19287606272E+02  0.51100000000E-03 0. -1.
        -11    1    3    3    0    0  0.13087512337E+02 -0.11851804942E+02 -0.91758063109E+01  0.19898333630E+02  0.51100000000E-03 0.  1.
         12    1    3    3    0    0  0.13671604899E+02 -0.14080838064E+01  0.14688717178E+02  0.20116010858E+02  0.00000000000E+00 0. -1.
</event>
<event>
 7    1  0.1134395E-011  0.5930197E+02  0.7816164E-02  0.1266605E+00
        -11   -1    0    0    0    0  0.00000000000E+00  0.00000000000E+00  0.45593999997E+02  0.45594000000E+02  0.51100000000E-03 0. -1.
         11   -1    0    0    0    0 -0.00000000000E+00 -0.00000000000E+00 -0.45593999997E+02  0.45594000000E+02  0.51100000000E-03 0.  1.
    9900012    2    1    2    0    0  0.25818813414E+02 -0.94591362184E+01  0.16144115906E+02  0.59301970732E+02  0.50000048702E+02 0.  0.
         12    1    1    2    0    0 -0.25818813414E+02  0.94591362184E+01 -0.16144115906E+02  0.31886029268E+02  0.00000000000E+00 0. -1.
         11    1    3    3    0    0  0.21960497302E+02 -0.42575978694E+01 -0.64585992349E+01  0.23283128778E+02  0.51100000000E-03 0. -1.
        -11    1    3    3    0    0  0.44169551932E+01 -0.16812545194E+01 -0.57499645525E+01  0.74429968798E+01  0.51100000000E-03 0.  1.
         12    1    3    3    0    0 -0.55863908110E+00 -0.35202838297E+01  0.28352679694E+02  0.28575845074E+02  0.00000000000E+00 0. -1.
</event>
<event>
 7    1  0.1134395E-011  0.5930191E+02  0.7816164E-02  0.1266605E+00
        -11   -1    0    0    0    0  0.00000000000E+00  0.00000000000E+00  0.45593999997E+02  0.45594000000E+02  0.51100000000E-03 0.  1.
         11   -1    0    0    0    0 -0.00000000000E+00 -0.00000000000E+00 -0.45593999997E+02  0.45594000000E+02  0.51100000000E-03 0. -1.
    9900012    2    1    2    0    0 -0.29307592325E+01  0.40997823616E+01  0.31485316849E+02  0.59301909895E+02  0.49999937750E+02 0.  0.
         12    1    1    2    0    0  0.29307592325E+01 -0.40997823616E+01 -0.31485316849E+02  0.31886090105E+02  0.00000000000E+00 0. -1.
         11    1    3    3    0    0  0.11828182608E+01  0.11598154850E+02 -0.12939331992E+01  0.11729898480E+02  0.51100000000E-03 0. -1.
        -11    1    3    3    0    0  0.23006641379E+01  0.11982904933E+02  0.19932749444E+02  0.23370870048E+02  0.51100000000E-03 0.  1.
        -12    1    3    3    0    0 -0.64142416312E+01 -0.19481277422E+02  0.12846500604E+02  0.24201141367E+02  0.00000000000E+00 0.  1.
</event>
<event>
 7    1  0.1134395E-011  0.5930196E+02  0.7816164E-02  0.1266605E+00
        -11   -1    0    0    0    0  0.00000000000E+00  0.00000000000E+00  0.45593999997E+02  0.45594000000E+02  0.51100000000E-03 0. -1.
         11   -1    0    0    0    0 -0.00000000000E+00 -0.00000000000E+00 -0.45593999997E+02  0.45594000000E+02  0.51100000000E-03 0.  1.
    9900012    2    1    2    0    0  0.23055410340E+02 -0.21820902747E+02 -0.30026702151E+01  0.59301956484E+02  0.50000022718E+02 0.  0.
         12    1    1    2    0    0 -0.23055410340E+02  0.21820902747E+02  0.30026702151E+01  0.31886043516E+02  0.00000000000E+00 0. -1.
         11    1    3    3    0    0 -0.13860514892E+01 -0.14817095259E+02  0.13277905595E+02  0.19944177794E+02  0.51100000000E-03 0. -1.
        -11    1    3    3    0    0  0.10723877269E+02 -0.13919803635E+01 -0.21152555200E+02  0.23756467431E+02  0.51100000000E-03 0.  1.
         12    1    3    3    0    0  0.13717584560E+02 -0.56118271249E+01  0.48719793903E+01  0.15601311260E+02  0.00000000000E+00 0. -1.
</event>
<event>
 7    1  0.1134395E-011  0.5930196E+02  0.7816164E-02  0.1266605E+00
        -11   -1    0    0    0    0  0.00000000000E+00  0.00000000000E+00  0.45593999997E+02  0.45594000000E+02  0.51100000000E-03 0.  1.
         11   -1    0    0    0    0 -0.00000000000E+00 -0.00000000000E+00 -0.45593999997E+02  0.45594000000E+02  0.51100000000E-03 0. -1.
    9900012    2    1    2    0    0  0.28081928319E+02 -0.12222548106E+02  0.88732391910E+01  0.59301956751E+02  0.50000023204E+02 0.  0.
         12    1    1    2    0    0 -0.28081928319E+02  0.12222548106E+02 -0.88732391910E+01  0.31886043249E+02  0.00000000000E+00 0. -1.
         11    1    3    3    0    0  0.37139179453E+01 -0.10134643556E+02  0.73380587261E+01  0.13051869316E+02  0.51100000000E-03 0. -1.
        -11    1    3    3    0    0  0.57181922019E+01 -0.12790338018E+02  0.15279273818E+02  0.20730332302E+02  0.51100000000E-03 0.  1.
         12    1    3    3    0    0  0.18649818172E+02  0.10702433468E+02 -0.13744093353E+02  0.25519755133E+02  0.00000000000E+00 0. -1.
</event>
<event>
 7    1  0.1134395E-011  0.5930183E+02  0.7816164E-02  0.1266605E+00
        -11   -1    0    0    0    0  0.00000000000E+00  0.00000000000E+00  0.45593999997E+02  0.45594000000E+02  0.51100000000E-03 0.  1.
         11   -1    0    0    0    0 -0.00000000000E+00 -0.00000000000E+00 -0.45593999997E+02  0.45594000000E+02  0.51100000000E-03 0. -1.
    9900012    2    1    2    0    0  0.14259202938E+02 -0.13134292000E+02  0.25315867381E+02  0.59301833156E+02  0.49999797796E+02 0.  0.
         12    1    1    2    0    0 -0.14259202938E+02  0.13134292000E+02 -0.25315867381E+02  0.31886166844E+02  0.00000000000E+00 0. -1.
         11    1    3    3    0    0  0.25624197275E+01  0.34586350863E+01  0.50466728777E+01  0.66330278844E+01  0.51100000000E-03 0. -1.
        -11    1    3    3    0    0  0.19058210217E+02 -0.36776738860E+01  0.29395182446E+02  0.35225238299E+02  0.51100000000E-03 0.  1.
         12    1    3    3    0    0 -0.73614270065E+01 -0.12915253200E+02 -0.91259879429E+01  0.17443566973E+02  0.00000000000E+00 0. -1.
</event>
<event>
 7    1  0.1134395E-011  0.5930189E+02  0.7816164E-02  0.1266605E+00
        -11   -1    0    0    0    0  0.00000000000E+00  0.00000000000E+00  0.45593999997E+02  0.45594000000E+02  0.51100000000E-03 0. -1.
         11   -1    0    0    0    0 -0.00000000000E+00 -0.00000000000E+00 -0.45593999997E+02  0.45594000000E+02  0.51100000000E-03 0.  1.
    9900012    2    1    2    0    0  0.17330007480E+02  0.51134925681E+01 -0.26272557886E+02  0.59301886042E+02  0.49999894247E+02 0.  0.
         12    1    1    2    0    0 -0.17330007480E+02 -0.51134925681E+01  0.26272557886E+02  0.31886113958E+02  0.00000000000E+00 0. -1.
         11    1    3    3    0    0  0.19723983980E+02  0.37217435634E+01 -0.20435737858E+02  0.28644481166E+02  0.51100000000E-03 0. -1.
        -11    1    3    3    0    0 -0.54909838224E+00  0.14734855021E+02  0.22957112608E+01  0.14922726023E+02  0.51100000000E-03 0.  1.
         12    1    3    3    0    0 -0.18448781186E+01 -0.13343106016E+02 -0.81325312888E+01  0.15734678852E+02  0.00000000000E+00 0. -1.
</event>
<event>
 7    1  0.1134395E-011  0.5930188E+02  0.7816164E-02  0.1266605E+00
        -11   -1    0    0    0    0  0.00000000000E+00  0.00000000000E+00  0.45593999997E+02  0.45594000000E+02  0.51100000000E-03 0.  1.
         11   -1    0    0    0    0 -0.00000000000E+00 -0.00000000000E+00 -0.45593999997E+02  0.45594000000E+02  0.51100000000E-03 0. -1.
    9900012    2    1    2    0    0  0.98702995239E+01 -0.27496545778E+02  0.12776605871E+02  0.59301882331E+02  0.49999887479E+02 0.  0.
         12    1    1    2    0    0 -0.98702995239E+01  0.27496545778E+02 -0.12776605871E+02  0.31886117669E+02  0.00000000000E+00 0. -1.
         11    1    3    3    0    0 -0.14193925515E+02 -0.14346246101E+02  0.61955714368E+01  0.21110836184E+02  0.51100000000E-03 0. -1.
        -11    1    3    3    0    0  0.27044859750E+01 -0.12807908296E+02  0.10108869604E+02  0.16539226229E+02  0.51100000000E-03 0.  1.
         12    1    3    3    0    0  0.21359739064E+02 -0.34239138146E+00 -0.35278351698E+01  0.21651819918E+02  0.00000000000E+00 0. -1.
</event>
<event>
 7    1  0.1134395E-011  0.5930186E+02  0.7816164E-02  0.1266605E+00
        -11   -1    0    0    0    0  0.00000000000E+00  0.00000000000E+00  0.45593999997E+02  0.45594000000E+02  0.51100000000E-03 0.  1.
         11   -1    0    0    0    0 -0.00000000000E+00 -0.00000000000E+00 -0.45593999997E+02  0.45594000000E+02  0.51100000000E-03 0. -1.
    9900012    2    1    2    0    0  0.99074707059E+01  0.24949239031E+02  0.17207651713E+02  0.59301862236E+02  0.49999850832E+02 0.  0.
         12    1    1    2    0    0 -0.99074707059E+01 -0.24949239031E+02 -0.17207651713E+02  0.31886137764E+02  0.00000000000E+00 0. -1.
         11    1    3    3    0    0 -0.10117351873E+01 -0.28722822593E+01 -0.20299478053E+01  0.36598226487E+01  0.51100000000E-03 0. -1.
        -11    1    3    3    0    0 -0.29739744653E+01  0.56510178479E+01 -0.12784303917E+02  0.14290449739E+02  0.51100000000E-03 0.  1.
        -12    1    3    3    0    0  0.13893180358E+02  0.22170503443E+02  0.32021903435E+02  0.41351589848E+02  0.00000000000E+00 0.  1.
</event>
<event>
 7    1  0.1134395E-011  0.5930195E+02  0.7816164E-02  0.1266605E+00
        -11   -1    0    0    0    0  0.00000000000E+00  0.00000000000E+00  0.45593999997E+02  0.45594000000E+02  0.51100000000E-03 0.  1.
         11   -1    0    0    0    0 -0.00000000000E+00 -0.00000000000E+00 -0.45593999997E+02  0.45594000000E+02  0.51100000000E-03 0. -1.
    9900012    2    1    2    0    0  0.29110330930E+02 -0.11609874459E+02  0.58753589395E+01  0.59301946709E+02  0.50000004889E+02 0.  0.
         12    1    1    2    0    0 -0.29110330930E+02  0.11609874459E+02 -0.58753589395E+01  0.31886053291E+02  0.00000000000E+00 0. -1.
         11    1    3    3    0    0  0.14807586478E+01 -0.11516507397E+02  0.26020932347E+01  0.11899305789E+02  0.51100000000E-03 0. -1.
        -11    1    3    3    0    0  0.10457908119E+02 -0.17137598154E+02  0.98037873440E+01  0.22342322155E+02  0.51100000000E-03 0.  1.
         12    1    3    3    0    0  0.17171664164E+02  0.17044231093E+02 -0.65305216391E+01  0.25060318764E+02  0.00000000000E+00 0. -1.
</event>
<event>
 7    1  0.1134395E-011  0.5930194E+02  0.7816164E-02  0.1266605E+00
        -11   -1    0    0    0    0  0.00000000000E+00  0.00000000000E+00  0.45593999997E+02  0.45594000000E+02  0.51100000000E-03 0.  1.
         11   -1    0    0    0    0 -0.00000000000E+00 -0.00000000000E+00 -0.45593999997E+02  0.45594000000E+02  0.51100000000E-03 0. -1.
    9900012    2    1    2    0    0 -0.61832539295E+01  0.19023443638E+02  0.24831365130E+02  0.59301941429E+02  0.49999995260E+02 0.  0.
         12    1    1    2    0    0  0.61832539295E+01 -0.19023443638E+02 -0.24831365130E+02  0.31886058571E+02  0.00000000000E+00 0. -1.
         11    1    3    3    0    0  0.47339826709E+01  0.99166400188E+01  0.51704629303E+01  0.12144300242E+02  0.51100000000E-03 0.  1.
        -11    1    3    3    0    0  0.94046584044E+01  0.17793364526E+02  0.53381727410E+01  0.20821803700E+02  0.51100000000E-03 0. -1.
        -12    1    3    3    0    0 -0.20321895005E+02 -0.86865609068E+01  0.14322729458E+02  0.26335837486E+02  0.00000000000E+00 0.  1.
</event>
<event>
 7    1  0.1134395E-011  0.5930196E+02  0.7816164E-02  0.1266605E+00
        -11   -1    0    0    0    0  0.00000000000E+00  0.00000000000E+00  0.45593999997E+02  0.45594000000E+02  0.51100000000E-03 0.  1.
         11   -1    0    0    0    0 -0.00000000000E+00 -0.00000000000E+00 -0.45593999997E+02  0.45594000000E+02  0.51100000000E-03 0. -1.
    9900012    2    1    2    0    0 -0.93177933728E+01  0.36703725814E+01  0.30272541582E+02  0.59301957880E+02  0.50000025264E+02 0.  0.
         12    1    1    2    0    0  0.93177933728E+01 -0.36703725814E+01 -0.30272541582E+02  0.31886042120E+02  0.00000000000E+00 0. -1.
         11    1    3    3    0    0  0.25239138265E+01  0.44920704963E+00  0.88579727083E+01  0.92214754101E+01  0.51100000000E-03 0. -1.
        -11    1    3    3    0    0  0.89253371862E+01  0.15178548966E+02 -0.48879024491E+00  0.17615019409E+02  0.51100000000E-03 0.  1.
         12    1    3    3    0    0 -0.20767044385E+02 -0.11957383435E+02  0.21903359119E+02  0.32465463061E+02  0.00000000000E+00 0. -1.
</event>
<event>
 7    1  0.1134395E-011  0.5930193E+02  0.7816164E-02  0.1266605E+00
        -11   -1    0    0    0    0  0.00000000000E+00  0.00000000000E+00  0.45593999997E+02  0.45594000000E+02  0.51100000000E-03 0.  1.
         11   -1    0    0    0    0 -0.00000000000E+00 -0.00000000000E+00 -0.45593999997E+02  0.45594000000E+02  0.51100000000E-03 0. -1.
    9900012    2    1    2    0    0  0.37359476629E+01 -0.30687940836E+02  0.78111617733E+01  0.59301933044E+02  0.49999979968E+02 0.  0.
         12    1    1    2    0    0 -0.37359476629E+01  0.30687940836E+02 -0.78111617733E+01  0.31886066956E+02  0.00000000000E+00 0. -1.
         11    1    3    3    0    0  0.15882447935E+02 -0.22900004200E+02 -0.82219527526E+01  0.29056201612E+02  0.51100000000E-03 0. -1.
        -11    1    3    3    0    0 -0.29477115705E+01 -0.13669910740E+02  0.12536799478E+02  0.18781022458E+02  0.51100000000E-03 0.  1.
         12    1    3    3    0    0 -0.91987887019E+01  0.58819741043E+01  0.34963150482E+01  0.11464708974E+02  0.00000000000E+00 0. -1.
</event>
<event>
 7    1  0.1134395E-011  0.5930194E+02  0.7816164E-02  0.1266605E+00
        -11   -1    0    0    0    0  0.00000000000E+00  0.00000000000E+00  0.45593999997E+02  0.45594000000E+02  0.51100000000E-03 0.  1.
         11   -1    0    0    0    0 -0.00000000000E+00 -0.00000000000E+00 -0.45593999997E+02  0.45594000000E+02  0.51100000000E-03 0. -1.
    9900012    2    1    2    0    0  0.19107659197E+02  0.25042258937E+02 -0.49501036102E+01  0.59301938807E+02  0.49999990479E+02 0.  0.
         12    1    1    2    0    0 -0.19107659197E+02 -0.25042258937E+02  0.49501036102E+01  0.31886061193E+02  0.00000000000E+00 0. -1.
         11    1    3    3    0    0  0.37970740455E+01  0.27268295648E+01 -0.15766825736E+02  0.16445247485E+02  0.51100000000E-03 0. -1.
        -11    1    3    3    0    0  0.18419759862E+02  0.61049724301E+01 -0.49542538134E+01  0.20027552842E+02  0.51100000000E-03 0.  1.
        -12    1    3    3    0    0 -0.31091747108E+01  0.16210456942E+02  0.15770975940E+02  0.22829138480E+02  0.00000000000E+00 0.  1.
</event>
<event>
 7    1  0.1134395E-011  0.5930193E+02  0.7816164E-02  0.1266605E+00
        -11   -1    0    0    0    0  0.00000000000E+00  0.00000000000E+00  0.45593999997E+02  0.45594000000E+02  0.51100000000E-03 0.  1.
         11   -1    0    0    0    0 -0.00000000000E+00 -0.00000000000E+00 -0.45593999997E+02  0.45594000000E+02  0.51100000000E-03 0. -1.
    9900012    2    1    2    0    0  0.37780785236E+01  0.17448646999E+02  0.26419539206E+02  0.59301933901E+02  0.49999981531E+02 0.  0.
         12    1    1    2    0    0 -0.37780785236E+01 -0.17448646999E+02 -0.26419539206E+02  0.31886066099E+02  0.00000000000E+00 0. -1.
         11    1    3    3    0    0 -0.10418311118E+00  0.31722270462E+01  0.35318503762E+01  0.47484572120E+01  0.51100000000E-03 0. -1.
        -11    1    3    3    0    0  0.19532873092E+02  0.21246677663E+02  0.23782749114E+02  0.37397507919E+02  0.51100000000E-03 0.  1.
         12    1    3    3    0    0 -0.15650611457E+02 -0.69702577096E+01 -0.89506028442E+00  0.17155968770E+02  0.00000000000E+00 0. -1.
</event>
<event>
 7    1  0.1134395E-011  0.5930195E+02  0.7816164E-02  0.1266605E+00
        -11   -1    0    0    0    0  0.00000000000E+00  0.00000000000E+00  0.45593999997E+02  0.45594000000E+02  0.51100000000E-03 0. -1.
         11   -1    0    0    0    0 -0.00000000000E+00 -0.00000000000E+00 -0.45593999997E+02  0.45594000000E+02  0.51100000000E-03 0.  1.
    9900012    2    1    2    0    0  0.21808044984E+02  0.22659280176E+02  0.52617719308E+01  0.59301952142E+02  0.50000014798E+02 0.  0.
         12    1    1    2    0    0 -0.21808044984E+02 -0.22659280176E+02 -0.52617719308E+01  0.31886047858E+02  0.00000000000E+00 0. -1.
         11    1    3    3    0    0 -0.60095631377E+01  0.58959871592E+01  0.65203565718E+01  0.10648594451E+02  0.51100000000E-03 0. -1.
        -11    1    3    3    0    0 -0.71208209641E+01  0.47575364779E+01  0.66864849595E+01  0.10865050663E+02  0.51100000000E-03 0.  1.
         12    1    3    3    0    0  0.34938429086E+02  0.12005756539E+02 -0.79450696004E+01  0.37788307028E+02  0.00000000000E+00 0. -1.
</event>
<event>
 7    1  0.1134395E-011  0.5930196E+02  0.7816164E-02  0.1266605E+00
        -11   -1    0    0    0    0  0.00000000000E+00  0.00000000000E+00  0.45593999997E+02  0.45594000000E+02  0.51100000000E-03 0. -1.
         11   -1    0    0    0    0 -0.00000000000E+00 -0.00000000000E+00 -0.45593999997E+02  0.45594000000E+02  0.51100000000E-03 0.  1.
    9900012    2    1    2    0    0 -0.12748620930E+02 -0.14585609573E+02 -0.25326906125E+02  0.59301960482E+02  0.50000030009E+02 0.  0.
         12    1    1    2    0    0  0.12748620930E+02  0.14585609573E+02  0.25326906125E+02  0.31886039518E+02  0.00000000000E+00 0. -1.
         11    1    3    3    0    0 -0.15425075534E+02  0.19732613273E+01  0.82981624417E+01  0.17626293305E+02  0.51100000000E-03 0. -1.
        -11    1    3    3    0    0 -0.53026813932E+01 -0.10676027774E+02 -0.84287372648E+01  0.14599301734E+02  0.51100000000E-03 0.  1.
        -12    1    3    3    0    0  0.79791359969E+01 -0.58828431256E+01 -0.25196331302E+02  0.27076365443E+02  0.00000000000E+00 0.  1.
</event>
<event>
 7    1  0.1134395E-011  0.5930195E+02  0.7816164E-02  0.1266605E+00
        -11   -1    0    0    0    0  0.00000000000E+00  0.00000000000E+00  0.45593999997E+02  0.45594000000E+02  0.51100000000E-03 0. -1.
         11   -1    0    0    0    0 -0.00000000000E+00 -0.00000000000E+00 -0.45593999997E+02  0.45594000000E+02  0.51100000000E-03 0.  1.
    9900012    2    1    2    0    0  0.16036015013E+02 -0.15547480880E+02 -0.22756147143E+02  0.59301950198E+02  0.50000011253E+02 0.  0.
         12    1    1    2    0    0 -0.16036015013E+02  0.15547480880E+02  0.22756147143E+02  0.31886049802E+02  0.00000000000E+00 0. -1.
         11    1    3    3    0    0  0.35145010372E+01 -0.52938892738E+00 -0.81472674898E+00  0.36463337908E+01  0.51100000000E-03 0. -1.
        -11    1    3    3    0    0  0.27662189035E+02 -0.95833858155E+00 -0.21399618000E+02  0.34986551214E+02  0.51100000000E-03 0.  1.
         12    1    3    3    0    0 -0.15140675059E+02 -0.14059753371E+02 -0.54180239366E+00  0.20669065193E+02  0.00000000000E+00 0. -1.
</event>
<event>
 7    1  0.1134395E-011  0.5930191E+02  0.7816164E-02  0.1266605E+00
        -11   -1    0    0    0    0  0.00000000000E+00  0.00000000000E+00  0.45593999997E+02  0.45594000000E+02  0.51100000000E-03 0. -1.
         11   -1    0    0    0    0 -0.00000000000E+00 -0.00000000000E+00 -0.45593999997E+02  0.45594000000E+02  0.51100000000E-03 0.  1.
    9900012    2    1    2    0    0 -0.20627838785E+02  0.21618731408E+02  0.11128577317E+02  0.59301913477E+02  0.49999944283E+02 0.  0.
         12    1    1    2    0    0  0.20627838785E+02 -0.21618731408E+02 -0.11128577317E+02  0.31886086523E+02  0.00000000000E+00 0. -1.
         11    1    3    3    0    0 -0.20496948396E+01  0.12419164368E+02  0.10745500205E+02  0.16550005059E+02  0.51100000000E-03 0. -1.
        -11    1    3    3    0    0 -0.22641751486E+02  0.82990952709E+01  0.14429217889E+02  0.28102067928E+02  0.51100000000E-03 0.  1.
         12    1    3    3    0    0  0.40636075411E+01  0.90047176893E+00 -0.14046140777E+02  0.14649840490E+02  0.00000000000E+00 0. -1.
</event>
<event>
 7    1  0.1134395E-011  0.5930194E+02  0.7816164E-02  0.1266605E+00
        -11   -1    0    0    0    0  0.00000000000E+00  0.00000000000E+00  0.45593999997E+02  0.45594000000E+02  0.51100000000E-03 0.  1.
         11   -1    0    0    0    0 -0.00000000000E+00 -0.00000000000E+00 -0.45593999997E+02  0.45594000000E+02  0.51100000000E-03 0. -1.
    9900012    2    1    2    0    0 -0.23294844699E+02  0.21015431826E+02  0.56940869667E+01  0.59301940495E+02  0.49999993557E+02 0.  0.
         12    1    1    2    0    0  0.23294844699E+02 -0.21015431826E+02 -0.56940869667E+01  0.31886059505E+02  0.00000000000E+00 0. -1.
         11    1    3    3    0    0 -0.20004270402E+01  0.53946939561E+01  0.18162811469E+02  0.19052352924E+02  0.51100000000E-03 0. -1.
        -11    1    3    3    0    0 -0.62932367304E+01 -0.77918445648E+01 -0.60870076020E+01  0.11720466376E+02  0.51100000000E-03 0.  1.
        -12    1    3    3    0    0 -0.15001180928E+02  0.23412582435E+02 -0.63817169005E+01  0.28529121194E+02  0.00000000000E+00 0.  1.
</event>
<event>
 7    1  0.1134395E-011  0.5930189E+02  0.7816164E-02  0.1266605E+00
        -11   -1    0    0    0    0  0.00000000000E+00  0.00000000000E+00  0.45593999997E+02  0.45594000000E+02  0.51100000000E-03 0. -1.
         11   -1    0    0    0    0 -0.00000000000E+00 -0.00000000000E+00 -0.45593999997E+02  0.45594000000E+02  0.51100000000E-03 0.  1.
    9900012    2    1    2    0    0 -0.20503365817E+02  0.23181676261E+02 -0.76776146639E+01  0.59301891880E+02  0.49999904895E+02 0.  0.
         12    1    1    2    0    0  0.20503365817E+02 -0.23181676261E+02  0.76776146639E+01  0.31886108120E+02  0.00000000000E+00 0. -1.
         11    1    3    3    0    0 -0.72389855883E+01 -0.64067945925E+01  0.25999419887E+01  0.10010475908E+02  0.51100000000E-03 0. -1.
        -11    1    3    3    0    0 -0.71750907733E+01  0.53652156216E+01  0.12573251039E+02  0.15438721068E+02  0.51100000000E-03 0.  1.
        -12    1    3    3    0    0 -0.60892894554E+01  0.24223255232E+02 -0.22850807692E+02  0.33852694904E+02  0.00000000000E+00 0.  1.
</event>
<event>
 7    1  0.1134395E-011  0.5930189E+02  0.7816164E-02  0.1266605E+00
        -11   -1    0    0    0    0  0.00000000000E+00  0.00000000000E+00  0.45593999997E+02  0.45594000000E+02  0.51100000000E-03 0. -1.
         11   -1    0    0    0    0 -0.00000000000E+00 -0.00000000000E+00 -0.45593999997E+02  0.45594000000E+02  0.51100000000E-03 0.  1.
    9900012    2    1    2    0    0  0.12399038874E+02 -0.29139053184E+02 -0.37286870504E+01  0.59301894993E+02  0.49999910572E+02 0.  0.
         12    1    1    2    0    0 -0.12399038874E+02  0.29139053184E+02  0.37286870504E+01  0.31886105007E+02  0.00000000000E+00 0. -1.
         11    1    3    3    0    0  0.15786885423E+02 -0.13478807481E+02 -0.25312615183E+01  0.20911989088E+02  0.51100000000E-03 0.  1.
        -11    1    3    3    0    0  0.12912795319E+02 -0.14818173622E+02  0.60010221115E+01  0.20550689017E+02  0.51100000000E-03 0. -1.
         12    1    3    3    0    0 -0.16300641868E+02 -0.84207208036E+00 -0.71984476436E+01  0.17839216888E+02  0.00000000000E+00 0. -1.
</event>
<event>
 7    1  0.1218230E-011  0.5930193E+02  0.7816164E-02  0.1266605E+00
        -11   -1    0    0    0    0  0.00000000000E+00  0.00000000000E+00  0.45593999997E+02  0.45594000000E+02  0.51100000000E-03 0.  1.
         11   -1    0    0    0    0 -0.00000000000E+00 -0.00000000000E+00 -0.45593999997E+02  0.45594000000E+02  0.51100000000E-03 0. -1.
    9900012    2    1    2    0    0  0.12353571725E+01  0.27037765426E+02  0.16856881824E+02  0.59301932017E+02  0.49999978095E+02 0.  0.
         12    1    1    2    0    0 -0.12353571725E+01 -0.27037765426E+02 -0.16856881824E+02  0.31886067983E+02  0.00000000000E+00 0. -1.
         11    1    3    3    0    0 -0.57707220250E+01  0.24337973756E+02 -0.70254216437E+00  0.25022625062E+02  0.51100000000E-03 0. -1.
        -11    1    3    3    0    0  0.22463642122E+00 -0.58680060205E+01 -0.59468069836E+01  0.83575396942E+01  0.51100000000E-03 0.  1.
        -12    1    3    3    0    0  0.67814427763E+01  0.85677976912E+01  0.23506230972E+02  0.25921767261E+02  0.00000000000E+00 0.  1.
</event>
<event>
 7    1  0.1134395E-011  0.5930197E+02  0.7816164E-02  0.1266605E+00
        -11   -1    0    0    0    0  0.00000000000E+00  0.00000000000E+00  0.45593999997E+02  0.45594000000E+02  0.51100000000E-03 0. -1.
         11   -1    0    0    0    0 -0.00000000000E+00 -0.00000000000E+00 -0.45593999997E+02  0.45594000000E+02  0.51100000000E-03 0.  1.
    9900012    2    1    2    0    0  0.18549042650E+02  0.98326071979E+00 -0.25916894734E+02  0.59301965165E+02  0.50000038549E+02 0.  0.
         12    1    1    2    0    0 -0.18549042650E+02 -0.98326071979E+00  0.25916894734E+02  0.31886034835E+02  0.00000000000E+00 0. -1.
         11    1    3    3    0    0  0.14017608315E+02 -0.46877154420E+01 -0.17126258797E+02  0.22622483497E+02  0.51100000000E-03 0.  1.
        -11    1    3    3    0    0  0.14416362746E+02 -0.90885724318E+01 -0.81837431744E+01  0.18905219287E+02  0.51100000000E-03 0. -1.
         12    1    3    3    0    0 -0.98849284110E+01  0.14759548594E+02 -0.60689276234E+00  0.17774262381E+02  0.00000000000E+00 0. -1.
</event>
<event>
 7    1  0.1134395E-011  0.5930194E+02  0.7816164E-02  0.1266605E+00
        -11   -1    0    0    0    0  0.00000000000E+00  0.00000000000E+00  0.45593999997E+02  0.45594000000E+02  0.51100000000E-03 0. -1.
         11   -1    0    0    0    0 -0.00000000000E+00 -0.00000000000E+00 -0.45593999997E+02  0.45594000000E+02  0.51100000000E-03 0.  1.
    9900012    2    1    2    0    0  0.69196475225E+01  0.79325622578E+01 -0.30098400042E+02  0.59301941120E+02  0.49999994697E+02 0.  0.
         12    1    1    2    0    0 -0.69196475225E+01 -0.79325622578E+01  0.30098400042E+02  0.31886058880E+02  0.00000000000E+00 0. -1.
         11    1    3    3    0    0  0.22097737857E+02  0.89464776734E+01 -0.79071756324E+01  0.25117183519E+02  0.51100000000E-03 0. -1.
        -11    1    3    3    0    0  0.46647114019E+01  0.32739593626E+01 -0.50822165067E+01  0.76359195421E+01  0.51100000000E-03 0.  1.
        -12    1    3    3    0    0 -0.19842801737E+02 -0.42878747782E+01 -0.17109007903E+02  0.26548838059E+02  0.00000000000E+00 0.  1.
</event>
<event>
 7    1  0.1134395E-011  0.5930205E+02  0.7816164E-02  0.1266604E+00
        -11   -1    0    0    0    0  0.00000000000E+00  0.00000000000E+00  0.45593999997E+02  0.45594000000E+02  0.51100000000E-03 0.  1.
         11   -1    0    0    0    0 -0.00000000000E+00 -0.00000000000E+00 -0.45593999997E+02  0.45594000000E+02  0.51100000000E-03 0. -1.
    9900012    2    1    2    0    0 -0.14686289248E+01 -0.24548883064E+02  0.20295552350E+02  0.59302047360E+02  0.50000188452E+02 0.  0.
         12    1    1    2    0    0  0.14686289248E+01  0.24548883064E+02 -0.20295552350E+02  0.31885952640E+02  0.00000000000E+00 0. -1.
         11    1    3    3    0    0  0.38554081831E+01 -0.18082147986E+02  0.80086090412E+01  0.20148599631E+02  0.51100000000E-03 0. -1.
        -11    1    3    3    0    0 -0.17376816691E+01 -0.11427663333E+02  0.23606571323E+02  0.26284619775E+02  0.51100000000E-03 0.  1.
        -12    1    3    3    0    0 -0.35863554388E+01  0.49609282560E+01 -0.11319628015E+02  0.12868827953E+02  0.00000000000E+00 0.  1.
</event>
<event>
 7    1  0.1134395E-011  0.5930196E+02  0.7816164E-02  0.1266605E+00
        -11   -1    0    0    0    0  0.00000000000E+00  0.00000000000E+00  0.45593999997E+02  0.45594000000E+02  0.51100000000E-03 0. -1.
         11   -1    0    0    0    0 -0.00000000000E+00 -0.00000000000E+00 -0.45593999997E+02  0.45594000000E+02  0.51100000000E-03 0.  1.
    9900012    2    1    2    0    0 -0.81823791682E+01  0.17054436469E+02 -0.25669328521E+02  0.59301959812E+02  0.50000028787E+02 0.  0.
         12    1    1    2    0    0  0.81823791682E+01 -0.17054436469E+02  0.25669328521E+02  0.31886040188E+02  0.00000000000E+00 0. -1.
         11    1    3    3    0    0  0.88227164528E+01 -0.14557446099E+01  0.95763661288E-01  0.89425213959E+01  0.51100000000E-03 0. -1.
        -11    1    3    3    0    0  0.17187800944E+01  0.23754574215E+02 -0.14670811923E+02  0.27972606670E+02  0.51100000000E-03 0.  1.
        -12    1    3    3    0    0 -0.18723875715E+02 -0.52443931359E+01 -0.11094280260E+02  0.22386831747E+02  0.00000000000E+00 0.  1.
</event>
<event>
 7    1  0.1134395E-011  0.5930168E+02  0.7816164E-02  0.1266606E+00
        -11   -1    0    0    0    0  0.00000000000E+00  0.00000000000E+00  0.45593999997E+02  0.45594000000E+02  0.51100000000E-03 0.  1.
         11   -1    0    0    0    0 -0.00000000000E+00 -0.00000000000E+00 -0.45593999997E+02  0.45594000000E+02  0.51100000000E-03 0. -1.
    9900012    2    1    2    0    0 -0.57442156189E+01 -0.24036119807E+02  0.20149598642E+02  0.59301680145E+02  0.49999518739E+02 0.  0.
         12    1    1    2    0    0  0.57442156189E+01  0.24036119807E+02 -0.20149598642E+02  0.31886319855E+02  0.00000000000E+00 0. -1.
         11    1    3    3    0    0 -0.66067142823E+01 -0.91947344248E+01  0.22982914605E+02  0.25620425030E+02  0.51100000000E-03 0. -1.
        -11    1    3    3    0    0 -0.76496748112E+01 -0.40279335339E+01  0.11118604847E+02  0.14084216246E+02  0.51100000000E-03 0.  1.
         12    1    3    3    0    0  0.85121734746E+01 -0.10813451848E+02 -0.13951920809E+02  0.19597038868E+02  0.00000000000E+00 0. -1.
</event>
<event>
 7    1  0.1134395E-011  0.5930196E+02  0.7816164E-02  0.1266605E+00
        -11   -1    0    0    0    0  0.00000000000E+00  0.00000000000E+00  0.45593999997E+02  0.45594000000E+02  0.51100000000E-03 0. -1.
         11   -1    0    0    0    0 -0.00000000000E+00 -0.00000000000E+00 -0.45593999997E+02  0.45594000000E+02  0.51100000000E-03 0.  1.
    9900012    2    1    2    0    0  0.17689304315E+02  0.23294085912E+02 -0.12696210714E+02  0.59301957722E+02  0.50000024976E+02 0.  0.
         12    1    1    2    0    0 -0.17689304315E+02 -0.23294085912E+02  0.12696210714E+02  0.31886042278E+02  0.00000000000E+00 0. -1.
         11    1    3    3    0    0 -0.56878820351E+01 -0.51264191822E+01  0.10037357358E+02  0.12624607664E+02  0.51100000000E-03 0. -1.
        -11    1    3    3    0    0  0.57749111510E+01  0.16904650396E+02 -0.17487119008E+02  0.24998322649E+02  0.51100000000E-03 0.  1.
        -12    1    3    3    0    0  0.17602275199E+02  0.11515854699E+02 -0.52464490647E+01  0.21679027409E+02  0.00000000000E+00 0.  1.
</event>
<event>
 7    1  0.1134395E-011  0.5930192E+02  0.7816164E-02  0.1266605E+00
        -11   -1    0    0    0    0  0.00000000000E+00  0.00000000000E+00  0.45593999997E+02  0.45594000000E+02  0.51100000000E-03 0.  1.
         11   -1    0    0    0    0 -0.00000000000E+00 -0.00000000000E+00 -0.45593999997E+02  0.45594000000E+02  0.51100000000E-03 0. -1.
    9900012    2    1    2    0    0 -0.14563929034E+02  0.81420216304E+01  0.27172068014E+02  0.59301924273E+02  0.49999963971E+02 0.  0.
         12    1    1    2    0    0  0.14563929034E+02 -0.81420216304E+01 -0.27172068014E+02  0.31886075727E+02  0.00000000000E+00 0. -1.
         11    1    3    3    0    0 -0.13004702157E+02 -0.15338081429E+02  0.78215467197E+01  0.21576737786E+02  0.51100000000E-03 0.  1.
        -11    1    3    3    0    0  0.55444913042E+01 -0.20044019908E+01  0.28846993861E+01  0.65635738719E+01  0.51100000000E-03 0. -1.
        -12    1    3    3    0    0 -0.71037181811E+01  0.25484505050E+02  0.16465821908E+02  0.31161612615E+02  0.00000000000E+00 0.  1.
</event>
<event>
 7    1  0.1134395E-011  0.5930198E+02  0.7816164E-02  0.1266605E+00
        -11   -1    0    0    0    0  0.00000000000E+00  0.00000000000E+00  0.45593999997E+02  0.45594000000E+02  0.51100000000E-03 0. -1.
         11   -1    0    0    0    0 -0.00000000000E+00 -0.00000000000E+00 -0.45593999997E+02  0.45594000000E+02  0.51100000000E-03 0.  1.
    9900012    2    1    2    0    0  0.17759935696E+02 -0.26461514694E+02  0.10445672352E+01  0.59301981175E+02  0.50000067747E+02 0.  0.
         12    1    1    2    0    0 -0.17759935696E+02  0.26461514694E+02 -0.10445672352E+01  0.31886018825E+02  0.00000000000E+00 0. -1.
         11    1    3    3    0    0  0.53489593124E+01 -0.51627339593E+00 -0.46508340049E+01  0.71069093949E+01  0.51100000000E-03 0. -1.
        -11    1    3    3    0    0  0.91387220399E+01  0.69921345962E+01 -0.10290862513E+02  0.15437228969E+02  0.51100000000E-03 0.  1.
         12    1    3    3    0    0  0.32722543438E+01 -0.32937375894E+02  0.15986263753E+02  0.36757842810E+02  0.00000000000E+00 0. -1.
</event>
<event>
 7    1  0.1134395E-011  0.5930194E+02  0.7816164E-02  0.1266605E+00
        -11   -1    0    0    0    0  0.00000000000E+00  0.00000000000E+00  0.45593999997E+02  0.45594000000E+02  0.51100000000E-03 0.  1.
         11   -1    0    0    0    0 -0.00000000000E+00 -0.00000000000E+00 -0.45593999997E+02  0.45594000000E+02  0.51100000000E-03 0. -1.
    9900012    2    1    2    0    0  0.28105183645E+02  0.13107941245E+02  0.74163014513E+01  0.59301937235E+02  0.49999987612E+02 0.  0.
         12    1    1    2    0    0 -0.28105183645E+02 -0.13107941245E+02 -0.74163014513E+01  0.31886062765E+02  0.00000000000E+00 0. -1.
         11    1    3    3    0    0 -0.13079528843E+02  0.29811195289E+01 -0.78643174977E-01  0.13415190398E+02  0.51100000000E-03 0. -1.
        -11    1    3    3    0    0  0.26414631079E+01 -0.30977915812E+01 -0.11511292155E+01  0.42306901048E+01  0.51100000000E-03 0.  1.
        -12    1    3    3    0    0  0.38543249380E+02  0.13224613298E+02  0.86460738417E+01  0.41656056733E+02  0.00000000000E+00 0.  1.
</event>
<event>
 7    1  0.2362610E-011  0.5930193E+02  0.7816164E-02  0.1266605E+00
        -11   -1    0    0    0    0  0.00000000000E+00  0.00000000000E+00  0.45593999997E+02  0.45594000000E+02  0.51100000000E-03 0.  1.
         11   -1    0    0    0    0 -0.00000000000E+00 -0.00000000000E+00 -0.45593999997E+02  0.45594000000E+02  0.51100000000E-03 0. -1.
    9900012    2    1    2    0    0 -0.17256507889E+02  0.24309404206E+02  0.11313145858E+02  0.59301929898E+02  0.49999974231E+02 0.  0.
         12    1    1    2    0    0  0.17256507889E+02 -0.24309404206E+02 -0.11313145858E+02  0.31886070102E+02  0.00000000000E+00 0. -1.
         11    1    3    3    0    0  0.39347119256E+01 -0.97301367335E+01  0.64763184812E+01  0.12332891799E+02  0.51100000000E-03 0. -1.
        -11    1    3    3    0    0 -0.67445265420E+01  0.11234449534E+02 -0.97045821835E+01  0.16305839758E+02  0.51100000000E-03 0.  1.
        -12    1    3    3    0    0 -0.14446693272E+02  0.22805091405E+02  0.14541409560E+02  0.30663198341E+02  0.00000000000E+00 0.  1.
</event>
<event>
 7    1  0.1134395E-011  0.5930199E+02  0.7816164E-02  0.1266605E+00
        -11   -1    0    0    0    0  0.00000000000E+00  0.00000000000E+00  0.45593999997E+02  0.45594000000E+02  0.51100000000E-03 0.  1.
         11   -1    0    0    0    0 -0.00000000000E+00 -0.00000000000E+00 -0.45593999997E+02  0.45594000000E+02  0.51100000000E-03 0. -1.
    9900012    2    1    2    0    0  0.21166852038E+02  0.10451620589E+02  0.21434687229E+02  0.59301987162E+02  0.50000078666E+02 0.  0.
         12    1    1    2    0    0 -0.21166852038E+02 -0.10451620589E+02 -0.21434687229E+02  0.31886012838E+02  0.00000000000E+00 0. -1.
         11    1    3    3    0    0  0.11570560059E+02 -0.79149664563E+00  0.42439547297E+01  0.12349715747E+02  0.51100000000E-03 0. -1.
        -11    1    3    3    0    0  0.17586356262E+02 -0.62640636676E+01  0.20164535006E+02  0.27479572276E+02  0.51100000000E-03 0.  1.
         12    1    3    3    0    0 -0.79900642832E+01  0.17507180902E+02 -0.29738025071E+01  0.19472699139E+02  0.00000000000E+00 0. -1.
</event>
<event>
 7    1  0.1134395E-011  0.5930192E+02  0.7816164E-02  0.1266605E+00
        -11   -1    0    0    0    0  0.00000000000E+00  0.00000000000E+00  0.45593999997E+02  0.45594000000E+02  0.51100000000E-03 0. -1.
         11   -1    0    0    0    0 -0.00000000000E+00 -0.00000000000E+00 -0.45593999997E+02  0.45594000000E+02  0.51100000000E-03 0.  1.
    9900012    2    1    2    0    0 -0.11810283626E+02 -0.13251272414E+02 -0.26488541255E+02  0.59301924078E+02  0.49999963616E+02 0.  0.
         12    1    1    2    0    0  0.11810283626E+02  0.13251272414E+02  0.26488541255E+02  0.31886075922E+02  0.00000000000E+00 0. -1.
         11    1    3    3    0    0  0.89428534010E+01 -0.94854818581E+01  0.69442646795E+01  0.14770639974E+02  0.51100000000E-03 0. -1.
        -11    1    3    3    0    0 -0.94295693052E+01  0.81839554467E+01 -0.18408860214E+02  0.22243651649E+02  0.51100000000E-03 0.  1.
        -12    1    3    3    0    0 -0.11323567722E+02 -0.11949746002E+02 -0.15023945721E+02  0.22287632456E+02  0.00000000000E+00 0.  1.
</event>
<event>
 7    1  0.1134395E-011  0.5930191E+02  0.7816164E-02  0.1266605E+00
        -11   -1    0    0    0    0  0.00000000000E+00  0.00000000000E+00  0.45593999997E+02  0.45594000000E+02  0.51100000000E-03 0.  1.
         11   -1    0    0    0    0 -0.00000000000E+00 -0.00000000000E+00 -0.45593999997E+02  0.45594000000E+02  0.51100000000E-03 0. -1.
    9900012    2    1    2    0    0  0.29427529940E+02 -0.12007580994E+02  0.25615295857E+01  0.59301906582E+02  0.49999931707E+02 0.  0.
         12    1    1    2    0    0 -0.29427529940E+02  0.12007580994E+02 -0.25615295857E+01  0.31886093418E+02  0.00000000000E+00 0. -1.
         11    1    3    3    0    0  0.21897066618E+02  0.85514371039E+01  0.85556952991E+01  0.25016165280E+02  0.51100000000E-03 0. -1.
        -11    1    3    3    0    0 -0.84608059576E+01 -0.31080414273E+01  0.21276671553E+01  0.92613242439E+01  0.51100000000E-03 0.  1.
         12    1    3    3    0    0  0.15991269280E+02 -0.17450976670E+02 -0.81218328687E+01  0.25024417058E+02  0.00000000000E+00 0. -1.
</event>
<event>
 7    1  0.1134395E-011  0.5930181E+02  0.7816164E-02  0.1266605E+00
        -11   -1    0    0    0    0  0.00000000000E+00  0.00000000000E+00  0.45593999997E+02  0.45594000000E+02  0.51100000000E-03 0. -1.
         11   -1    0    0    0    0 -0.00000000000E+00 -0.00000000000E+00 -0.45593999997E+02  0.45594000000E+02  0.51100000000E-03 0.  1.
    9900012    2    1    2    0    0 -0.25249550536E+02  0.19361807511E+02 -0.20759526030E+01  0.59301812214E+02  0.49999759602E+02 0.  0.
         12    1    1    2    0    0  0.25249550536E+02 -0.19361807511E+02  0.20759526030E+01  0.31886187786E+02  0.00000000000E+00 0. -1.
         11    1    3    3    0    0 -0.78657088819E+01  0.21259723053E+02  0.11819317574E+02  0.25564457137E+02  0.51100000000E-03 0. -1.
        -11    1    3    3    0    0 -0.80794329101E+01  0.11728827659E+00  0.70541579058E+01  0.10726235906E+02  0.51100000000E-03 0.  1.
        -12    1    3    3    0    0 -0.93044087436E+01 -0.20152038192E+01 -0.20949428083E+02  0.23011119171E+02  0.00000000000E+00 0.  1.
</event>
<event>
 7    1  0.1134395E-011  0.5930189E+02  0.7816164E-02  0.1266605E+00
        -11   -1    0    0    0    0  0.00000000000E+00  0.00000000000E+00  0.45593999997E+02  0.45594000000E+02  0.51100000000E-03 0.  1.
         11   -1    0    0    0    0 -0.00000000000E+00 -0.00000000000E+00 -0.45593999997E+02  0.45594000000E+02  0.51100000000E-03 0. -1.
    9900012    2    1    2    0    0 -0.30757773944E+01 -0.19219615194E+02  0.25256091963E+02  0.59301887097E+02  0.49999896173E+02 0.  0.
         12    1    1    2    0    0  0.30757773944E+01  0.19219615194E+02 -0.25256091963E+02  0.31886112903E+02  0.00000000000E+00 0. -1.
         11    1    3    3    0    0  0.38830233973E+00 -0.10979169388E+02 -0.49937996395E+01  0.12067765919E+02  0.51100000000E-03 0. -1.
        -11    1    3    3    0    0  0.58865602326E+01 -0.20231719237E+02  0.17595128966E+02  0.27451095028E+02  0.51100000000E-03 0.  1.
         12    1    3    3    0    0 -0.93506399668E+01  0.11991273431E+02  0.12654762637E+02  0.19783026151E+02  0.00000000000E+00 0. -1.
</event>
<event>
 7    1  0.1134395E-011  0.5930192E+02  0.7816164E-02  0.1266605E+00
        -11   -1    0    0    0    0  0.00000000000E+00  0.00000000000E+00  0.45593999997E+02  0.45594000000E+02  0.51100000000E-03 0.  1.
         11   -1    0    0    0    0 -0.00000000000E+00 -0.00000000000E+00 -0.45593999997E+02  0.45594000000E+02  0.51100000000E-03 0. -1.
    9900012    2    1    2    0    0 -0.40435360753E+01 -0.59892852379E+01  0.31056406082E+02  0.59301920272E+02  0.49999956676E+02 0.  0.
         12    1    1    2    0    0  0.40435360753E+01  0.59892852379E+01 -0.31056406082E+02  0.31886079728E+02  0.00000000000E+00 0. -1.
         11    1    3    3    0    0  0.33915008211E+01  0.20270411188E+02  0.93733831096E+01  0.22588761780E+02  0.51100000000E-03 0. -1.
        -11    1    3    3    0    0 -0.15258919009E+01 -0.92069037753E+01  0.11932618126E+01  0.94084694417E+01  0.51100000000E-03 0.  1.
        -12    1    3    3    0    0 -0.59091449955E+01 -0.17052792651E+02  0.20489761160E+02  0.27304689051E+02  0.00000000000E+00 0.  1.
</event>
<event>
 7    1  0.1134395E-011  0.5930193E+02  0.7816164E-02  0.1266605E+00
        -11   -1    0    0    0    0  0.00000000000E+00  0.00000000000E+00  0.45593999997E+02  0.45594000000E+02  0.51100000000E-03 0.  1.
         11   -1    0    0    0    0 -0.00000000000E+00 -0.00000000000E+00 -0.45593999997E+02  0.45594000000E+02  0.51100000000E-03 0. -1.
    9900012    2    1    2    0    0 -0.28139300148E+02  0.14737738071E+02 -0.27749916050E+01  0.59301926007E+02  0.49999967134E+02 0.  0.
         12    1    1    2    0    0  0.28139300148E+02 -0.14737738071E+02  0.27749916050E+01  0.31886073993E+02  0.00000000000E+00 0. -1.
         11    1    3    3    0    0 -0.44260057860E+01  0.36076177305E+01 -0.10275305114E+02  0.11755268111E+02  0.51100000000E-03 0. -1.
        -11    1    3    3    0    0  0.13128281101E+01 -0.12297840950E+02  0.43951801800E+01  0.13125472134E+02  0.51100000000E-03 0.  1.
         12    1    3    3    0    0 -0.25026122472E+02  0.23427961291E+02  0.31051333292E+01  0.34421185762E+02  0.00000000000E+00 0. -1.
</event>
<event>
 7    1  0.1134395E-011  0.5930197E+02  0.7816164E-02  0.1266605E+00
        -11   -1    0    0    0    0  0.00000000000E+00  0.00000000000E+00  0.45593999997E+02  0.45594000000E+02  0.51100000000E-03 0. -1.
         11   -1    0    0    0    0 -0.00000000000E+00 -0.00000000000E+00 -0.45593999997E+02  0.45594000000E+02  0.51100000000E-03 0.  1.
    9900012    2    1    2    0    0  0.21327242577E+02  0.22184920032E+02  0.83484518029E+01  0.59301974843E+02  0.50000056200E+02 0.  0.
         12    1    1    2    0    0 -0.21327242577E+02 -0.22184920032E+02 -0.83484518029E+01  0.31886025157E+02  0.00000000000E+00 0. -1.
         11    1    3    3    0    0  0.95855611632E+00  0.11770520026E+02  0.17387782002E+02  0.21019013648E+02  0.51100000000E-03 0. -1.
        -11    1    3    3    0    0  0.12333110545E+02  0.73169401981E+01  0.99351211786E+01  0.17445625889E+02  0.51100000000E-03 0.  1.
        -12    1    3    3    0    0  0.80355759159E+01  0.30974598078E+01 -0.18974451378E+02  0.20837335306E+02  0.00000000000E+00 0.  1.
</event>
<event>
 7    1  0.1134395E-011  0.5930193E+02  0.7816164E-02  0.1266605E+00
        -11   -1    0    0    0    0  0.00000000000E+00  0.00000000000E+00  0.45593999997E+02  0.45594000000E+02  0.51100000000E-03 0.  1.
         11   -1    0    0    0    0 -0.00000000000E+00 -0.00000000000E+00 -0.45593999997E+02  0.45594000000E+02  0.51100000000E-03 0. -1.
    9900012    2    1    2    0    0  0.40901110051E+01  0.93879001753E+01  0.30197013684E+02  0.59301932303E+02  0.49999978617E+02 0.  0.
         12    1    1    2    0    0 -0.40901110051E+01 -0.93879001753E+01 -0.30197013684E+02  0.31886067697E+02  0.00000000000E+00 0. -1.
         11    1    3    3    0    0  0.31465081212E+01  0.75096981366E+00  0.82866725853E+01  0.88956962524E+01  0.51100000000E-03 0. -1.
        -11    1    3    3    0    0 -0.22114267282E+01  0.32853943856E+01  0.35365296512E+02  0.35586351627E+02  0.51100000000E-03 0.  1.
         12    1    3    3    0    0  0.31550296120E+01  0.53515359761E+01 -0.13454955413E+02  0.14819884424E+02  0.00000000000E+00 0. -1.
</event>
<event>
 7    1  0.1134395E-011  0.5930212E+02  0.7816164E-02  0.1266604E+00
        -11   -1    0    0    0    0  0.00000000000E+00  0.00000000000E+00  0.45593999997E+02  0.45594000000E+02  0.51100000000E-03 0. -1.
         11   -1    0    0    0    0 -0.00000000000E+00 -0.00000000000E+00 -0.45593999997E+02  0.45594000000E+02  0.51100000000E-03 0.  1.
    9900012    2    1    2    0    0  0.27877228328E+02  0.13613984363E+02 -0.73640478515E+01  0.59302115502E+02  0.50000312727E+02 0.  0.
         12    1    1    2    0    0 -0.27877228328E+02 -0.13613984363E+02  0.73640478515E+01  0.31885884498E+02  0.00000000000E+00 0. -1.
         11    1    3    3    0    0  0.60455376983E+01  0.10534476159E+02  0.29589150390E+01  0.12501155645E+02  0.51100000000E-03 0. -1.
        -11    1    3    3    0    0  0.56492647373E+01  0.98988802221E+01  0.13204163287E+02  0.17442819442E+02  0.51100000000E-03 0.  1.
        -12    1    3    3    0    0  0.16182425892E+02 -0.68193720177E+01 -0.23527126177E+02  0.29358140415E+02  0.00000000000E+00 0.  1.
</event>
<event>
 7    1  0.1134395E-011  0.5930196E+02  0.7816164E-02  0.1266605E+00
        -11   -1    0    0    0    0  0.00000000000E+00  0.00000000000E+00  0.45593999997E+02  0.45594000000E+02  0.51100000000E-03 0. -1.
         11   -1    0    0    0    0 -0.00000000000E+00 -0.00000000000E+00 -0.45593999997E+02  0.45594000000E+02  0.51100000000E-03 0.  1.
    9900012    2    1    2    0    0 -0.29132127267E+02 -0.12849455519E+02 -0.17117300927E+01  0.59301962834E+02  0.50000034299E+02 0.  0.
         12    1    1    2    0    0  0.29132127267E+02  0.12849455519E+02  0.17117300927E+01  0.31886037166E+02  0.00000000000E+00 0. -1.
         11    1    3    3    0    0 -0.12269636804E+02  0.94334544316E+01  0.81980079506E-01  0.15477104730E+02  0.51100000000E-03 0. -1.
        -11    1    3    3    0    0 -0.65938021376E+01 -0.12759444079E+02  0.15790266773E+02  0.21345120399E+02  0.51100000000E-03 0.  1.
        -12    1    3    3    0    0 -0.10268688325E+02 -0.95234658712E+01 -0.17583976945E+02  0.22479737706E+02  0.00000000000E+00 0.  1.
</event>
<event>
 7    1  0.1134395E-011  0.5930193E+02  0.7816164E-02  0.1266605E+00
        -11   -1    0    0    0    0  0.00000000000E+00  0.00000000000E+00  0.45593999997E+02  0.45594000000E+02  0.51100000000E-03 0. -1.
         11   -1    0    0    0    0 -0.00000000000E+00 -0.00000000000E+00 -0.45593999997E+02  0.45594000000E+02  0.51100000000E-03 0.  1.
    9900012    2    1    2    0    0  0.98471638328E+01 -0.14616157901E+02 -0.26572968330E+02  0.59301931675E+02  0.49999977472E+02 0.  0.
         12    1    1    2    0    0 -0.98471638328E+01  0.14616157901E+02  0.26572968330E+02  0.31886068325E+02  0.00000000000E+00 0. -1.
         11    1    3    3    0    0 -0.13550713689E+01 -0.10869406367E+02  0.50833890664E+01  0.12075639024E+02  0.51100000000E-03 0. -1.
        -11    1    3    3    0    0  0.17343139966E+02 -0.13967879283E+02 -0.25334213090E+02  0.33729934905E+02  0.51100000000E-03 0.  1.
        -12    1    3    3    0    0 -0.61409047644E+01  0.10221127749E+02 -0.63221443066E+01  0.13496357746E+02  0.00000000000E+00 0.  1.
</event>
<event>
 7    1  0.1134395E-011  0.5930199E+02  0.7816164E-02  0.1266605E+00
        -11   -1    0    0    0    0  0.00000000000E+00  0.00000000000E+00  0.45593999997E+02  0.45594000000E+02  0.51100000000E-03 0.  1.
         11   -1    0    0    0    0 -0.00000000000E+00 -0.00000000000E+00 -0.45593999997E+02  0.45594000000E+02  0.51100000000E-03 0. -1.
    9900012    2    1    2    0    0  0.25332125582E+02 -0.16254391247E+02  0.10525965516E+02  0.59301987841E+02  0.50000079906E+02 0.  0.
         12    1    1    2    0    0 -0.25332125582E+02  0.16254391247E+02 -0.10525965516E+02  0.31886012159E+02  0.00000000000E+00 0. -1.
         11    1    3    3    0    0  0.21431622121E+02 -0.10419354369E+02 -0.79801664726E+00  0.23843535875E+02  0.51100000000E-03 0. -1.
        -11    1    3    3    0    0  0.11414604320E+02 -0.12342298741E+02  0.17085262232E+02  0.23969391227E+02  0.51100000000E-03 0.  1.
        -12    1    3    3    0    0 -0.75141008580E+01  0.65072618635E+01 -0.57612800678E+01  0.11489060740E+02  0.00000000000E+00 0.  1.
</event>
<event>
 7    1  0.1134395E-011  0.5930195E+02  0.7816164E-02  0.1266605E+00
        -11   -1    0    0    0    0  0.00000000000E+00  0.00000000000E+00  0.45593999997E+02  0.45594000000E+02  0.51100000000E-03 0. -1.
         11   -1    0    0    0    0 -0.00000000000E+00 -0.00000000000E+00 -0.45593999997E+02  0.45594000000E+02  0.51100000000E-03 0.  1.
    9900012    2    1    2    0    0 -0.16383620747E+02 -0.18138330442E+02 -0.20476777877E+02  0.59301945176E+02  0.50000002094E+02 0.  0.
         12    1    1    2    0    0  0.16383620747E+02  0.18138330442E+02  0.20476777877E+02  0.31886054824E+02  0.00000000000E+00 0. -1.
         11    1    3    3    0    0 -0.19590098807E+02 -0.10829537603E+02  0.19938018625E+01  0.22472785811E+02  0.51100000000E-03 0. -1.
        -11    1    3    3    0    0 -0.32567698001E+01  0.95583902031E+01 -0.36354624929E+01  0.10732472250E+02  0.51100000000E-03 0.  1.
        -12    1    3    3    0    0  0.64632478596E+01 -0.16867183042E+02 -0.18835117247E+02  0.26096687115E+02  0.00000000000E+00 0.  1.
</event>
<event>
 7    1  0.1134395E-011  0.5930196E+02  0.7816164E-02  0.1266605E+00
        -11   -1    0    0    0    0  0.00000000000E+00  0.00000000000E+00  0.45593999997E+02  0.45594000000E+02  0.51100000000E-03 0.  1.
         11   -1    0    0    0    0 -0.00000000000E+00 -0.00000000000E+00 -0.45593999997E+02  0.45594000000E+02  0.51100000000E-03 0. -1.
    9900012    2    1    2    0    0  0.27818212007E+02  0.10831977451E+02  0.11204236450E+02  0.59301959650E+02  0.50000028491E+02 0.  0.
         12    1    1    2    0    0 -0.27818212007E+02 -0.10831977451E+02 -0.11204236450E+02  0.31886040350E+02  0.00000000000E+00 0. -1.
         11    1    3    3    0    0  0.35870799408E+02  0.99553501748E+01 -0.14597099260E+01  0.37255254671E+02  0.51100000000E-03 0. -1.
        -11    1    3    3    0    0  0.45600759001E+01  0.26079069002E+01  0.28825770052E+01  0.59920548284E+01  0.51100000000E-03 0.  1.
        -12    1    3    3    0    0 -0.12612663301E+02 -0.17312796236E+01  0.97813693704E+01  0.16054650150E+02  0.00000000000E+00 0.  1.
</event>
<event>
 7    1  0.1134395E-011  0.5930195E+02  0.7816164E-02  0.1266605E+00
        -11   -1    0    0    0    0  0.00000000000E+00  0.00000000000E+00  0.45593999997E+02  0.45594000000E+02  0.51100000000E-03 0.  1.
         11   -1    0    0    0    0 -0.00000000000E+00 -0.00000000000E+00 -0.45593999997E+02  0.45594000000E+02  0.51100000000E-03 0. -1.
    9900012    2    1    2    0    0 -0.96612782275E+01 -0.86341002807E+01  0.29134727094E+02  0.59301948073E+02  0.50000007377E+02 0.  0.
         12    1    1    2    0    0  0.96612782275E+01  0.86341002807E+01 -0.29134727094E+02  0.31886051927E+02  0.00000000000E+00 0. -1.
         11    1    3    3    0    0  0.27819239733E+01 -0.12909500409E+02  0.79778254153E+01  0.15428544987E+02  0.51100000000E-03 0. -1.
        -11    1    3    3    0    0  0.38772429264E+01  0.16812120341E+02  0.58245085224E+01  0.18210033027E+02  0.51100000000E-03 0.  1.
         12    1    3    3    0    0 -0.16320445127E+02 -0.12536720212E+02  0.15332393157E+02  0.25663370058E+02  0.00000000000E+00 0. -1.
</event>
<event>
 7    1  0.1134395E-011  0.5930195E+02  0.7816164E-02  0.1266605E+00
        -11   -1    0    0    0    0  0.00000000000E+00  0.00000000000E+00  0.45593999997E+02  0.45594000000E+02  0.51100000000E-03 0.  1.
         11   -1    0    0    0    0 -0.00000000000E+00 -0.00000000000E+00 -0.45593999997E+02  0.45594000000E+02  0.51100000000E-03 0. -1.
    9900012    2    1    2    0    0 -0.15837608284E+02  0.13992927489E+02  0.23876516644E+02  0.59301954417E+02  0.50000018948E+02 0.  0.
         12    1    1    2    0    0  0.15837608284E+02 -0.13992927489E+02 -0.23876516644E+02  0.31886045583E+02  0.00000000000E+00 0. -1.
         11    1    3    3    0    0 -0.84354692956E+01  0.29306134029E+01  0.10266335325E+02  0.13606736509E+02  0.51100000000E-03 0. -1.
        -11    1    3    3    0    0 -0.18874540080E+02  0.16418185265E+02  0.19512456278E+02  0.31726030652E+02  0.51100000000E-03 0.  1.
         12    1    3    3    0    0  0.11472401092E+02 -0.53558711785E+01 -0.59022749603E+01  0.13969187257E+02  0.00000000000E+00 0. -1.
</event>
<event>
 7    1  0.1134395E-011  0.5930194E+02  0.7816164E-02  0.1266605E+00
        -11   -1    0    0    0    0  0.00000000000E+00  0.00000000000E+00  0.45593999997E+02  0.45594000000E+02  0.51100000000E-03 0. -1.
         11   -1    0    0    0    0 -0.00000000000E+00 -0.00000000000E+00 -0.45593999997E+02  0.45594000000E+02  0.51100000000E-03 0.  1.
    9900012    2    1    2    0    0 -0.12737767488E+02 -0.24940093898E+02 -0.15246700981E+02  0.59301938861E+02  0.49999990576E+02 0.  0.
         12    1    1    2    0    0  0.12737767488E+02  0.24940093898E+02  0.15246700981E+02  0.31886061139E+02  0.00000000000E+00 0. -1.
         11    1    3    3    0    0  0.99333924099E+01  0.41013147675E+01 -0.35628353207E+01  0.11321963760E+02  0.51100000000E-03 0. -1.
        -11    1    3    3    0    0 -0.29679630252E+01 -0.21978727578E+02 -0.15019018280E+02  0.26785148512E+02  0.51100000000E-03 0.  1.
         12    1    3    3    0    0 -0.19703196872E+02 -0.70626810874E+01  0.33351526201E+01  0.21194826589E+02  0.00000000000E+00 0. -1.
</event>
<event>
 7    1  0.1134395E-011  0.5930195E+02  0.7816164E-02  0.1266605E+00
        -11   -1    0    0    0    0  0.00000000000E+00  0.00000000000E+00  0.45593999997E+02  0.45594000000E+02  0.51100000000E-03 0. -1.
         11   -1    0    0    0    0 -0.00000000000E+00 -0.00000000000E+00 -0.45593999997E+02  0.45594000000E+02  0.51100000000E-03 0.  1.
    9900012    2    1    2    0    0  0.27918414298E+02  0.16448760014E+00 -0.15403094401E+02  0.59301949285E+02  0.50000009588E+02 0.  0.
         12    1    1    2    0    0 -0.27918414298E+02 -0.16448760014E+00  0.15403094401E+02  0.31886050715E+02  0.00000000000E+00 0. -1.
         11    1    3    3    0    0  0.19783893688E+01  0.99948149495E+01  0.55626634778E+01  0.11608340777E+02  0.51100000000E-03 0. -1.
        -11    1    3    3    0    0  0.29969578197E+02 -0.31074230124E+01 -0.24747781873E+02  0.38990824600E+02  0.51100000000E-03 0.  1.
         12    1    3    3    0    0 -0.40295532680E+01 -0.67229043370E+01  0.37820239943E+01  0.87027839084E+01  0.00000000000E+00 0. -1.
</event>
<event>
 7    1  0.1134395E-011  0.5930192E+02  0.7816164E-02  0.1266605E+00
        -11   -1    0    0    0    0  0.00000000000E+00  0.00000000000E+00  0.45593999997E+02  0.45594000000E+02  0.51100000000E-03 0.  1.
         11   -1    0    0    0    0 -0.00000000000E+00 -0.00000000000E+00 -0.45593999997E+02  0.45594000000E+02  0.51100000000E-03 0. -1.
    9900012    2    1    2    0    0  0.15030352388E+02 -0.20122774627E+02  0.19643942584E+02  0.59301921034E+02  0.49999958064E+02 0.  0.
         12    1    1    2    0    0 -0.15030352388E+02  0.20122774627E+02 -0.19643942584E+02  0.31886078966E+02  0.00000000000E+00 0. -1.
         11    1    3    3    0    0  0.73249530778E+01  0.30634549915E+01  0.87615125838E+01  0.11823865573E+02  0.51100000000E-03 0. -1.
        -11    1    3    3    0    0  0.18759580351E+02 -0.65757132156E+01  0.17471828412E+02  0.26465574763E+02  0.51100000000E-03 0.  1.
         12    1    3    3    0    0 -0.11054181040E+02 -0.16610516403E+02 -0.65893984113E+01  0.21012480697E+02  0.00000000000E+00 0. -1.
</event>
<event>
 7    1  0.1134395E-011  0.5930193E+02  0.7816164E-02  0.1266605E+00
        -11   -1    0    0    0    0  0.00000000000E+00  0.00000000000E+00  0.45593999997E+02  0.45594000000E+02  0.51100000000E-03 0.  1.
         11   -1    0    0    0    0 -0.00000000000E+00 -0.00000000000E+00 -0.45593999997E+02  0.45594000000E+02  0.51100000000E-03 0. -1.
    9900012    2    1    2    0    0  0.20811802907E+02  0.98783758161E+01  0.22045583791E+02  0.59301933863E+02  0.49999981462E+02 0.  0.
         12    1    1    2    0    0 -0.20811802907E+02 -0.98783758161E+01 -0.22045583791E+02  0.31886066137E+02  0.00000000000E+00 0. -1.
         11    1    3    3    0    0 -0.68176553793E+01 -0.11615701991E+02  0.56539628436E+01  0.14607267154E+02  0.51100000000E-03 0. -1.
        -11    1    3    3    0    0  0.10179586028E+02  0.64862947595E+01 -0.51938925393E+01  0.13140491292E+02  0.51100000000E-03 0.  1.
        -12    1    3    3    0    0  0.17449872258E+02  0.15007783047E+02  0.21585513487E+02  0.31554175418E+02  0.00000000000E+00 0.  1.
</event>
<event>
 7    1  0.1134395E-011  0.5930194E+02  0.7816164E-02  0.1266605E+00
        -11   -1    0    0    0    0  0.00000000000E+00  0.00000000000E+00  0.45593999997E+02  0.45594000000E+02  0.51100000000E-03 0.  1.
         11   -1    0    0    0    0 -0.00000000000E+00 -0.00000000000E+00 -0.45593999997E+02  0.45594000000E+02  0.51100000000E-03 0. -1.
    9900012    2    1    2    0    0 -0.25021415518E+02 -0.18850631341E+02  0.59416732111E+01  0.59301936947E+02  0.49999987087E+02 0.  0.
         12    1    1    2    0    0  0.25021415518E+02  0.18850631341E+02 -0.59416732111E+01  0.31886063053E+02  0.00000000000E+00 0. -1.
         11    1    3    3    0    0 -0.95121341365E+01 -0.57006523685E+01  0.65496134538E+01  0.12879268998E+02  0.51100000000E-03 0. -1.
        -11    1    3    3    0    0 -0.16576634821E+02 -0.88623494536E+01  0.18760188084E+02  0.26556933502E+02  0.51100000000E-03 0.  1.
         12    1    3    3    0    0  0.10673534399E+01 -0.42876295186E+01 -0.19368128327E+02  0.19865734448E+02  0.00000000000E+00 0. -1.
</event>
<event>
 7    1  0.1134395E-011  0.5930184E+02  0.7816164E-02  0.1266605E+00
        -11   -1    0    0    0    0  0.00000000000E+00  0.00000000000E+00  0.45593999997E+02  0.45594000000E+02  0.51100000000E-03 0. -1.
         11   -1    0    0    0    0 -0.00000000000E+00 -0.00000000000E+00 -0.45593999997E+02  0.45594000000E+02  0.51100000000E-03 0.  1.
    9900012    2    1    2    0    0 -0.27724645798E+02 -0.15745406679E+02  0.39124751975E+00  0.59301844843E+02  0.49999819110E+02 0.  0.
         12    1    1    2    0    0  0.27724645798E+02  0.15745406679E+02 -0.39124751975E+00  0.31886155157E+02  0.00000000000E+00 0. -1.
         11    1    3    3    0    0 -0.10486239126E+02 -0.15158873430E+02  0.18091092440E+02  0.25827122965E+02  0.51100000000E-03 0. -1.
        -11    1    3    3    0    0  0.10921686093E+01  0.50982782688E+01  0.23508392235E+01  0.57194159573E+01  0.51100000000E-03 0.  1.
        -12    1    3    3    0    0 -0.18330575281E+02 -0.56848115171E+01 -0.20050684144E+02  0.27755305921E+02  0.00000000000E+00 0.  1.
</event>
<event>
 7    1  0.1134395E-011  0.5930192E+02  0.7816164E-02  0.1266605E+00
        -11   -1    0    0    0    0  0.00000000000E+00  0.00000000000E+00  0.45593999997E+02  0.45594000000E+02  0.51100000000E-03 0.  1.
         11   -1    0    0    0    0 -0.00000000000E+00 -0.00000000000E+00 -0.45593999997E+02  0.45594000000E+02  0.51100000000E-03 0. -1.
    9900012    2    1    2    0    0 -0.14960478658E+02 -0.15708802859E+02  0.23369626500E+02  0.59301923859E+02  0.49999963217E+02 0.  0.
         12    1    1    2    0    0  0.14960478658E+02  0.15708802859E+02 -0.23369626500E+02  0.31886076141E+02  0.00000000000E+00 0. -1.
         11    1    3    3    0    0 -0.94046313277E+01  0.52071125048E+01 -0.68543979505E+01  0.12749269884E+02  0.51100000000E-03 0. -1.
        -11    1    3    3    0    0 -0.14414950018E+02 -0.27961043221E+01  0.16858505404E+02  0.22356613968E+02  0.51100000000E-03 0.  1.
        -12    1    3    3    0    0  0.88591026886E+01 -0.18119811042E+02  0.13365519046E+02  0.24196040007E+02  0.00000000000E+00 0.  1.
</event>
<event>
 7    1  0.1134395E-011  0.5930194E+02  0.7816164E-02  0.1266605E+00
        -11   -1    0    0    0    0  0.00000000000E+00  0.00000000000E+00  0.45593999997E+02  0.45594000000E+02  0.51100000000E-03 0.  1.
         11   -1    0    0    0    0 -0.00000000000E+00 -0.00000000000E+00 -0.45593999997E+02  0.45594000000E+02  0.51100000000E-03 0. -1.
    9900012    2    1    2    0    0 -0.67854987450E+01 -0.13097461756E+02  0.28268965694E+02  0.59301938483E+02  0.49999989888E+02 0.  0.
         12    1    1    2    0    0  0.67854987450E+01  0.13097461756E+02 -0.28268965694E+02  0.31886061517E+02  0.00000000000E+00 0. -1.
         11    1    3    3    0    0 -0.15538986957E+02  0.14775609871E+01 -0.34504354634E+01  0.15985894009E+02  0.51100000000E-03 0. -1.
        -11    1    3    3    0    0 -0.47866665858E+01 -0.24302213875E+01  0.22095163490E+02  0.22737950719E+02  0.51100000000E-03 0.  1.
         12    1    3    3    0    0  0.13540154798E+02 -0.12144801355E+02  0.96242376672E+01  0.20578093755E+02  0.00000000000E+00 0. -1.
</event>
<event>
 7    1  0.1134395E-011  0.5930194E+02  0.7816164E-02  0.1266605E+00
        -11   -1    0    0    0    0  0.00000000000E+00  0.00000000000E+00  0.45593999997E+02  0.45594000000E+02  0.51100000000E-03 0. -1.
         11   -1    0    0    0    0 -0.00000000000E+00 -0.00000000000E+00 -0.45593999997E+02  0.45594000000E+02  0.51100000000E-03 0.  1.
    9900012    2    1    2    0    0  0.18717825857E+02 -0.25228526000E+02  0.54667536042E+01  0.59301938407E+02  0.49999989749E+02 0.  0.
         12    1    1    2    0    0 -0.18717825857E+02  0.25228526000E+02 -0.54667536042E+01  0.31886061593E+02  0.00000000000E+00 0. -1.
         11    1    3    3    0    0 -0.59966842848E+01  0.53464553524E+01 -0.38280333441E+01  0.88993621564E+01  0.51100000000E-03 0. -1.
        -11    1    3    3    0    0  0.25049902423E+01 -0.24634591076E+02  0.11509716199E+02  0.27305889856E+02  0.51100000000E-03 0.  1.
         12    1    3    3    0    0  0.22209519900E+02 -0.59403902758E+01 -0.22149292504E+01  0.23096686394E+02  0.00000000000E+00 0. -1.
</event>
<event>
 7    1  0.1134395E-011  0.5930195E+02  0.7816164E-02  0.1266605E+00
        -11   -1    0    0    0    0  0.00000000000E+00  0.00000000000E+00  0.45593999997E+02  0.45594000000E+02  0.51100000000E-03 0.  1.
         11   -1    0    0    0    0 -0.00000000000E+00 -0.00000000000E+00 -0.45593999997E+02  0.45594000000E+02  0.51100000000E-03 0. -1.
    9900012    2    1    2    0    0 -0.21698533352E+01 -0.30666014221E+02  0.84621171734E+01  0.59301951032E+02  0.50000012775E+02 0.  0.
         12    1    1    2    0    0  0.21698533352E+01  0.30666014221E+02 -0.84621171734E+01  0.31886048968E+02  0.00000000000E+00 0. -1.
         11    1    3    3    0    0  0.30018679625E+01 -0.59806943846E+01 -0.48351056403E+01  0.82557957460E+01  0.51100000000E-03 0. -1.
        -11    1    3    3    0    0  0.15509312121E+02 -0.13303685571E+02 -0.51669545692E+01  0.21076627625E+02  0.51100000000E-03 0.  1.
        -12    1    3    3    0    0 -0.20681033419E+02 -0.11381634266E+02  0.18464177383E+02  0.29969527662E+02  0.00000000000E+00 0.  1.
</event>
<event>
 7    1  0.1134395E-011  0.5930211E+02  0.7816164E-02  0.1266604E+00
        -11   -1    0    0    0    0  0.00000000000E+00  0.00000000000E+00  0.45593999997E+02  0.45594000000E+02  0.51100000000E-03 0.  1.
         11   -1    0    0    0    0 -0.00000000000E+00 -0.00000000000E+00 -0.45593999997E+02  0.45594000000E+02  0.51100000000E-03 0. -1.
    9900012    2    1    2    0    0  0.75997463070E+01  0.18573657797E+01  0.30911223154E+02  0.59302114902E+02  0.50000311633E+02 0.  0.
         12    1    1    2    0    0 -0.75997463070E+01 -0.18573657797E+01 -0.30911223154E+02  0.31885885098E+02  0.00000000000E+00 0. -1.
         11    1    3    3    0    0  0.49020247227E+00  0.17695351775E+02 -0.16325116709E+00  0.17702893100E+02  0.51100000000E-03 0. -1.
        -11    1    3    3    0    0 -0.23247934528E+01 -0.86073856916E+00  0.21171974931E+02  0.21316614606E+02  0.51100000000E-03 0.  1.
         12    1    3    3    0    0  0.94343372875E+01 -0.14977247426E+02  0.99024993901E+01  0.20282607197E+02  0.00000000000E+00 0. -1.
</event>
<event>
 7    1  0.1134395E-011  0.5930196E+02  0.7816164E-02  0.1266605E+00
        -11   -1    0    0    0    0  0.00000000000E+00  0.00000000000E+00  0.45593999997E+02  0.45594000000E+02  0.51100000000E-03 0.  1.
         11   -1    0    0    0    0 -0.00000000000E+00 -0.00000000000E+00 -0.45593999997E+02  0.45594000000E+02  0.51100000000E-03 0. -1.
    9900012    2    1    2    0    0  0.87416004995E+01 -0.19761346349E+02  0.23447673779E+02  0.59301956118E+02  0.50000022050E+02 0.  0.
         12    1    1    2    0    0 -0.87416004995E+01  0.19761346349E+02 -0.23447673779E+02  0.31886043882E+02  0.00000000000E+00 0. -1.
         11    1    3    3    0    0  0.14953514925E+02  0.10109546857E+02 -0.17259602386E+01  0.18132553192E+02  0.51100000000E-03 0. -1.
        -11    1    3    3    0    0 -0.36426719902E+01 -0.45176921678E+01  0.98541900946E+01  0.11436068574E+02  0.51100000000E-03 0.  1.
        -12    1    3    3    0    0 -0.25692424355E+01 -0.25353201038E+02  0.15319443923E+02  0.29733334351E+02  0.00000000000E+00 0.  1.
</event>
<event>
 7    1  0.1134395E-011  0.5930197E+02  0.7816164E-02  0.1266605E+00
        -11   -1    0    0    0    0  0.00000000000E+00  0.00000000000E+00  0.45593999997E+02  0.45594000000E+02  0.51100000000E-03 0. -1.
         11   -1    0    0    0    0 -0.00000000000E+00 -0.00000000000E+00 -0.45593999997E+02  0.45594000000E+02  0.51100000000E-03 0.  1.
    9900012    2    1    2    0    0 -0.98325579835E+01 -0.29274429731E+02 -0.79402434655E+01  0.59301970162E+02  0.50000047662E+02 0.  0.
         12    1    1    2    0    0  0.98325579835E+01  0.29274429731E+02  0.79402434655E+01  0.31886029838E+02  0.00000000000E+00 0. -1.
         11    1    3    3    0    0  0.82849196521E+01  0.83629368069E-02 -0.13486408704E+02  0.15827924171E+02  0.51100000000E-03 0. -1.
        -11    1    3    3    0    0  0.38606999940E+01  0.19927750393E+01 -0.15158506825E+01  0.46015171795E+01  0.51100000000E-03 0.  1.
         12    1    3    3    0    0 -0.21978177630E+02 -0.31275567707E+02  0.70620159208E+01  0.38872528811E+02  0.00000000000E+00 0. -1.
</event>
<event>
 7    1  0.1134395E-011  0.5930196E+02  0.7816164E-02  0.1266605E+00
        -11   -1    0    0    0    0  0.00000000000E+00  0.00000000000E+00  0.45593999997E+02  0.45594000000E+02  0.51100000000E-03 0.  1.
         11   -1    0    0    0    0 -0.00000000000E+00 -0.00000000000E+00 -0.45593999997E+02  0.45594000000E+02  0.51100000000E-03 0. -1.
    9900012    2    1    2    0    0  0.12436656157E+02 -0.85311124078E+01  0.28093931599E+02  0.59301964060E+02  0.50000036535E+02 0.  0.
         12    1    1    2    0    0 -0.12436656157E+02  0.85311124078E+01 -0.28093931599E+02  0.31886035940E+02  0.00000000000E+00 0. -1.
         11    1    3    3    0    0 -0.60133268220E+00  0.91018801966E+00  0.66205417621E+01  0.67098149535E+01  0.51100000000E-03 0. -1.
        -11    1    3    3    0    0 -0.10095751178E+02 -0.13125853037E+02  0.23862478173E+02  0.29045310717E+02  0.51100000000E-03 0.  1.
         12    1    3    3    0    0  0.23133740017E+02  0.36845526099E+01 -0.23890883366E+01  0.23546838390E+02  0.00000000000E+00 0. -1.
</event>
<event>
 7    1  0.1134395E-011  0.5930191E+02  0.7816164E-02  0.1266605E+00
        -11   -1    0    0    0    0  0.00000000000E+00  0.00000000000E+00  0.45593999997E+02  0.45594000000E+02  0.51100000000E-03 0.  1.
         11   -1    0    0    0    0 -0.00000000000E+00 -0.00000000000E+00 -0.45593999997E+02  0.45594000000E+02  0.51100000000E-03 0. -1.
    9900012    2    1    2    0    0 -0.33999399056E+01  0.74523004473E+00  0.31695548347E+02  0.59301909863E+02  0.49999937692E+02 0.  0.
         12    1    1    2    0    0  0.33999399056E+01 -0.74523004473E+00 -0.31695548347E+02  0.31886090137E+02  0.00000000000E+00 0. -1.
         11    1    3    3    0    0 -0.16900791516E+02  0.11457652133E+02  0.10498384033E+02  0.22959325204E+02  0.51100000000E-03 0. -1.
        -11    1    3    3    0    0  0.16951715815E+02  0.13138151582E+01  0.12586400502E+02  0.21154296424E+02  0.51100000000E-03 0.  1.
        -12    1    3    3    0    0 -0.34508642043E+01 -0.12026237246E+02  0.86107638132E+01  0.15188288235E+02  0.00000000000E+00 0.  1.
</event>
<event>
 7    1  0.1134395E-011  0.5930194E+02  0.7816164E-02  0.1266605E+00
        -11   -1    0    0    0    0  0.00000000000E+00  0.00000000000E+00  0.45593999997E+02  0.45594000000E+02  0.51100000000E-03 0. -1.
         11   -1    0    0    0    0 -0.00000000000E+00 -0.00000000000E+00 -0.45593999997E+02  0.45594000000E+02  0.51100000000E-03 0.  1.
    9900012    2    1    2    0    0  0.25764360289E+02 -0.70436726250E+01 -0.17415654156E+02  0.59301943567E+02  0.49999999160E+02 0.  0.
         12    1    1    2    0    0 -0.25764360289E+02  0.70436726250E+01  0.17415654156E+02  0.31886056433E+02  0.00000000000E+00 0. -1.
         11    1    3    3    0    0  0.83303023459E+00 -0.84834182723E+01 -0.35532425791E+01  0.92351425566E+01  0.51100000000E-03 0. -1.
        -11    1    3    3    0    0  0.14942072404E+02  0.16446459886E+02 -0.21098419048E+02  0.30641391239E+02  0.51100000000E-03 0.  1.
         12    1    3    3    0    0  0.99892576510E+01 -0.15006714239E+02  0.72360074710E+01  0.19425409771E+02  0.00000000000E+00 0. -1.
</event>
<event>
 7    1  0.1134395E-011  0.5930198E+02  0.7816164E-02  0.1266605E+00
        -11   -1    0    0    0    0  0.00000000000E+00  0.00000000000E+00  0.45593999997E+02  0.45594000000E+02  0.51100000000E-03 0.  1.
         11   -1    0    0    0    0 -0.00000000000E+00 -0.00000000000E+00 -0.45593999997E+02  0.45594000000E+02  0.51100000000E-03 0. -1.
    9900012    2    1    2    0    0 -0.12903563871E+02  0.49903871601E+00  0.29154200456E+02  0.59301977914E+02  0.50000061800E+02 0.  0.
         12    1    1    2    0    0  0.12903563871E+02 -0.49903871601E+00 -0.29154200456E+02  0.31886022086E+02  0.00000000000E+00 0. -1.
         11    1    3    3    0    0  0.46852301240E+01  0.38889987426E+01  0.98324419223E+01  0.11565146214E+02  0.51100000000E-03 0. -1.
        -11    1    3    3    0    0  0.65181428475E+01  0.60660807569E+01  0.19936277498E+02  0.21834346399E+02  0.51100000000E-03 0.  1.
         12    1    3    3    0    0 -0.24106936843E+02 -0.94560407835E+01 -0.61451896348E+00  0.25902485301E+02  0.00000000000E+00 0. -1.
</event>
<event>
 7    1  0.1134395E-011  0.5930191E+02  0.7816164E-02  0.1266605E+00
        -11   -1    0    0    0    0  0.00000000000E+00  0.00000000000E+00  0.45593999997E+02  0.45594000000E+02  0.51100000000E-03 0. -1.
         11   -1    0    0    0    0 -0.00000000000E+00 -0.00000000000E+00 -0.45593999997E+02  0.45594000000E+02  0.51100000000E-03 0.  1.
    9900012    2    1    2    0    0  0.66611024707E+01 -0.29854962770E+02 -0.90018711972E+01  0.59301909409E+02  0.49999936864E+02 0.  0.
         12    1    1    2    0    0 -0.66611024707E+01  0.29854962770E+02  0.90018711972E+01  0.31886090591E+02  0.00000000000E+00 0. -1.
         11    1    3    3    0    0  0.69637595544E+01 -0.21600118111E+02  0.13573057111E+02  0.26444033905E+02  0.51100000000E-03 0. -1.
        -11    1    3    3    0    0 -0.87872734336E+01 -0.11611280732E+02 -0.15846702673E+02  0.21521059465E+02  0.51100000000E-03 0.  1.
         12    1    3    3    0    0  0.84846163499E+01  0.33564360737E+01 -0.67282256350E+01  0.11336816040E+02  0.00000000000E+00 0. -1.
</event>
<event>
 7    1  0.1134395E-011  0.5930196E+02  0.7816164E-02  0.1266605E+00
        -11   -1    0    0    0    0  0.00000000000E+00  0.00000000000E+00  0.45593999997E+02  0.45594000000E+02  0.51100000000E-03 0.  1.
         11   -1    0    0    0    0 -0.00000000000E+00 -0.00000000000E+00 -0.45593999997E+02  0.45594000000E+02  0.51100000000E-03 0. -1.
    9900012    2    1    2    0    0 -0.25379494319E+02 -0.86880025919E+01  0.17237157129E+02  0.59301957492E+02  0.50000024556E+02 0.  0.
         12    1    1    2    0    0  0.25379494319E+02  0.86880025919E+01 -0.17237157129E+02  0.31886042508E+02  0.00000000000E+00 0. -1.
         11    1    3    3    0    0  0.15212683321E+01 -0.15512966719E+02  0.13681764136E+02  0.20740228155E+02  0.51100000000E-03 0.  1.
        -11    1    3    3    0    0  0.14199145787E+00  0.10724878965E+02  0.33556386532E+01  0.11238483057E+02  0.51100000000E-03 0. -1.
        -12    1    3    3    0    0 -0.27042754109E+02 -0.38999148376E+01  0.19975433989E+00  0.27323246281E+02  0.00000000000E+00 0.  1.
</event>
<event>
 7    1  0.1134395E-011  0.5930194E+02  0.7816164E-02  0.1266605E+00
        -11   -1    0    0    0    0  0.00000000000E+00  0.00000000000E+00  0.45593999997E+02  0.45594000000E+02  0.51100000000E-03 0.  1.
         11   -1    0    0    0    0 -0.00000000000E+00 -0.00000000000E+00 -0.45593999997E+02  0.45594000000E+02  0.51100000000E-03 0. -1.
    9900012    2    1    2    0    0 -0.20280888002E+02 -0.12288894211E+02 -0.21316415225E+02  0.59301938827E+02  0.49999990515E+02 0.  0.
         12    1    1    2    0    0  0.20280888002E+02  0.12288894211E+02  0.21316415225E+02  0.31886061173E+02  0.00000000000E+00 0. -1.
         11    1    3    3    0    0  0.30992091728E+01 -0.10192982587E+02  0.60721160783E+01  0.12262650017E+02  0.51100000000E-03 0. -1.
        -11    1    3    3    0    0 -0.50856246849E+01 -0.14788887572E+02 -0.82690027984E+01  0.17690426269E+02  0.51100000000E-03 0.  1.
        -12    1    3    3    0    0 -0.18294472490E+02  0.12692975949E+02 -0.19119528505E+02  0.29348862540E+02  0.00000000000E+00 0.  1.
</event>
<event>
 7    1  0.1134395E-011  0.5930195E+02  0.7816164E-02  0.1266605E+00
        -11   -1    0    0    0    0  0.00000000000E+00  0.00000000000E+00  0.45593999997E+02  0.45594000000E+02  0.51100000000E-03 0. -1.
         11   -1    0    0    0    0 -0.00000000000E+00 -0.00000000000E+00 -0.45593999997E+02  0.45594000000E+02  0.51100000000E-03 0.  1.
    9900012    2    1    2    0    0 -0.20089701270E+02  0.20073483644E+02 -0.14497557593E+02  0.59301952598E+02  0.50000015630E+02 0.  0.
         12    1    1    2    0    0  0.20089701270E+02 -0.20073483644E+02  0.14497557593E+02  0.31886047402E+02  0.00000000000E+00 0. -1.
         11    1    3    3    0    0 -0.69079530165E+01  0.10432723587E+02 -0.24941855931E+02  0.27904438964E+02  0.51100000000E-03 0.  1.
        -11    1    3    3    0    0  0.11870712563E+01  0.10166210140E+02 -0.40256866797E+01  0.10998505366E+02  0.51100000000E-03 0. -1.
         12    1    3    3    0    0 -0.14368819510E+02 -0.52545008369E+00  0.14469985018E+02  0.20399008268E+02  0.00000000000E+00 0. -1.
</event>
<event>
 7    1  0.1134395E-011  0.5930194E+02  0.7816164E-02  0.1266605E+00
        -11   -1    0    0    0    0  0.00000000000E+00  0.00000000000E+00  0.45593999997E+02  0.45594000000E+02  0.51100000000E-03 0.  1.
         11   -1    0    0    0    0 -0.00000000000E+00 -0.00000000000E+00 -0.45593999997E+02  0.45594000000E+02  0.51100000000E-03 0. -1.
    9900012    2    1    2    0    0 -0.77837730663E+01  0.14787498379E+02  0.27156275540E+02  0.59301944542E+02  0.50000000938E+02 0.  0.
         12    1    1    2    0    0  0.77837730663E+01 -0.14787498379E+02 -0.27156275540E+02  0.31886055458E+02  0.00000000000E+00 0. -1.
         11    1    3    3    0    0  0.11571980614E+02  0.17449350357E+02 -0.33526369892E+01  0.21204498067E+02  0.51100000000E-03 0. -1.
        -11    1    3    3    0    0  0.30828386919E+00 -0.27673922858E+01  0.64451162779E+01  0.70208990240E+01  0.51100000000E-03 0.  1.
        -12    1    3    3    0    0 -0.19664037549E+02  0.10554030714E+00  0.24063796251E+02  0.31076547452E+02  0.00000000000E+00 0.  1.
</event>
<event>
 7    1  0.1134395E-011  0.5930195E+02  0.7816164E-02  0.1266605E+00
        -11   -1    0    0    0    0  0.00000000000E+00  0.00000000000E+00  0.45593999997E+02  0.45594000000E+02  0.51100000000E-03 0.  1.
         11   -1    0    0    0    0 -0.00000000000E+00 -0.00000000000E+00 -0.45593999997E+02  0.45594000000E+02  0.51100000000E-03 0. -1.
    9900012    2    1    2    0    0 -0.21922526664E+02  0.14001171210E+02  0.18441540434E+02  0.59301946871E+02  0.50000005185E+02 0.  0.
         12    1    1    2    0    0  0.21922526664E+02 -0.14001171210E+02 -0.18441540434E+02  0.31886053129E+02  0.00000000000E+00 0. -1.
         11    1    3    3    0    0 -0.15036888503E+02 -0.13354621231E+02  0.29020470206E+01  0.20319345492E+02  0.51100000000E-03 0. -1.
        -11    1    3    3    0    0 -0.97000916012E+01  0.69167898959E+01 -0.17788382816E+01  0.12045664175E+02  0.51100000000E-03 0.  1.
        -12    1    3    3    0    0  0.28144534404E+01  0.20439002545E+02  0.17318331695E+02  0.26936937203E+02  0.00000000000E+00 0.  1.
</event>
<event>
 7    1  0.1134395E-011  0.5930192E+02  0.7816164E-02  0.1266605E+00
        -11   -1    0    0    0    0  0.00000000000E+00  0.00000000000E+00  0.45593999997E+02  0.45594000000E+02  0.51100000000E-03 0.  1.
         11   -1    0    0    0    0 -0.00000000000E+00 -0.00000000000E+00 -0.45593999997E+02  0.45594000000E+02  0.51100000000E-03 0. -1.
    9900012    2    1    2    0    0 -0.24976207848E+02  0.61106470863E+01  0.18856595956E+02  0.59301918752E+02  0.49999953903E+02 0.  0.
         12    1    1    2    0    0  0.24976207848E+02 -0.61106470863E+01 -0.18856595956E+02  0.31886081248E+02  0.00000000000E+00 0. -1.
         11    1    3    3    0    0 -0.10870559034E+02  0.16987788885E+02  0.42031959576E+01  0.20601477652E+02  0.51100000000E-03 0. -1.
        -11    1    3    3    0    0  0.37429524908E+01  0.40000792900E+01  0.14460943904E+02  0.15463803753E+02  0.51100000000E-03 0.  1.
        -12    1    3    3    0    0 -0.17848601305E+02 -0.14877221088E+02  0.19245609514E+00  0.23236637347E+02  0.00000000000E+00 0.  1.
</event>
<event>
 7    1  0.1134395E-011  0.5930192E+02  0.7816164E-02  0.1266605E+00
        -11   -1    0    0    0    0  0.00000000000E+00  0.00000000000E+00  0.45593999997E+02  0.45594000000E+02  0.51100000000E-03 0. -1.
         11   -1    0    0    0    0 -0.00000000000E+00 -0.00000000000E+00 -0.45593999997E+02  0.45594000000E+02  0.51100000000E-03 0.  1.
    9900012    2    1    2    0    0  0.30048454201E+01  0.41188742865E+00 -0.31741507495E+02  0.59301920823E+02  0.49999957679E+02 0.  0.
         12    1    1    2    0    0 -0.30048454201E+01 -0.41188742865E+00  0.31741507495E+02  0.31886079177E+02  0.00000000000E+00 0. -1.
         11    1    3    3    0    0 -0.19053296049E+02  0.12385452494E+00 -0.20096348739E+00  0.19054758378E+02  0.51100000000E-03 0. -1.
        -11    1    3    3    0    0 -0.12500951478E+01  0.60877463006E+00 -0.36028137617E+01  0.38618145595E+01  0.51100000000E-03 0.  1.
         12    1    3    3    0    0  0.23308236617E+02 -0.32074172634E+00 -0.27937730246E+02  0.36385347885E+02  0.00000000000E+00 0. -1.
</event>
<event>
 7    1  0.1134395E-011  0.5930194E+02  0.7816164E-02  0.1266605E+00
        -11   -1    0    0    0    0  0.00000000000E+00  0.00000000000E+00  0.45593999997E+02  0.45594000000E+02  0.51100000000E-03 0.  1.
         11   -1    0    0    0    0 -0.00000000000E+00 -0.00000000000E+00 -0.45593999997E+02  0.45594000000E+02  0.51100000000E-03 0. -1.
    9900012    2    1    2    0    0  0.98266621759E+01 -0.29995940219E+02 -0.45167261127E+01  0.59301944522E+02  0.50000000902E+02 0.  0.
         12    1    1    2    0    0 -0.98266621759E+01  0.29995940219E+02  0.45167261127E+01  0.31886055478E+02  0.00000000000E+00 0. -1.
         11    1    3    3    0    0  0.11504746943E+02 -0.17046535462E+02 -0.75694852505E+01  0.21914394372E+02  0.51100000000E-03 0. -1.
        -11    1    3    3    0    0 -0.36936711296E+01 -0.21346861004E+02  0.12154509790E+02  0.24840768701E+02  0.51100000000E-03 0.  1.
        -12    1    3    3    0    0  0.20155863624E+01  0.83974562468E+01 -0.91017506522E+01  0.12546781449E+02  0.00000000000E+00 0.  1.
</event>
<event>
 7    1  0.1134395E-011  0.5930196E+02  0.7816164E-02  0.1266605E+00
        -11   -1    0    0    0    0  0.00000000000E+00  0.00000000000E+00  0.45593999997E+02  0.45594000000E+02  0.51100000000E-03 0.  1.
         11   -1    0    0    0    0 -0.00000000000E+00 -0.00000000000E+00 -0.45593999997E+02  0.45594000000E+02  0.51100000000E-03 0. -1.
    9900012    2    1    2    0    0  0.20885269646E+02 -0.23555648424E+02 -0.50652508382E+01  0.59301955608E+02  0.50000021120E+02 0.  0.
         12    1    1    2    0    0 -0.20885269646E+02  0.23555648424E+02  0.50652508382E+01  0.31886044392E+02  0.00000000000E+00 0. -1.
         11    1    3    3    0    0  0.15556611048E+02 -0.86290109036E+01 -0.16986415223E+02  0.24596875388E+02  0.51100000000E-03 0. -1.
        -11    1    3    3    0    0  0.96463478295E+01 -0.14999559951E+02 -0.39424464141E+01  0.18264219369E+02  0.51100000000E-03 0.  1.
         12    1    3    3    0    0 -0.43176892305E+01  0.72922429991E-01  0.15863610799E+02  0.16440860852E+02  0.00000000000E+00 0. -1.
</event>
<event>
 7    1  0.1134395E-011  0.5930195E+02  0.7816164E-02  0.1266605E+00
        -11   -1    0    0    0    0  0.00000000000E+00  0.00000000000E+00  0.45593999997E+02  0.45594000000E+02  0.51100000000E-03 0.  1.
         11   -1    0    0    0    0 -0.00000000000E+00 -0.00000000000E+00 -0.45593999997E+02  0.45594000000E+02  0.51100000000E-03 0. -1.
    9900012    2    1    2    0    0 -0.31039639853E+02  0.72953886769E+01 -0.19619524644E+00  0.59301946140E+02  0.50000003853E+02 0.  0.
         12    1    1    2    0    0  0.31039639853E+02 -0.72953886769E+01  0.19619524644E+00  0.31886053860E+02  0.00000000000E+00 0. -1.
         11    1    3    3    0    0  0.28219252190E+01 -0.50355507653E+00  0.73705556166E+01  0.79083449605E+01  0.51100000000E-03 0. -1.
        -11    1    3    3    0    0 -0.59761403279E+01 -0.27687653708E+01  0.13405863919E+02  0.14936448794E+02  0.51100000000E-03 0.  1.
        -12    1    3    3    0    0 -0.27885424744E+02  0.10567709124E+02 -0.20972614782E+02  0.36457152386E+02  0.00000000000E+00 0.  1.
</event>
<event>
 7    1  0.1134395E-011  0.5930194E+02  0.7816164E-02  0.1266605E+00
        -11   -1    0    0    0    0  0.00000000000E+00  0.00000000000E+00  0.45593999997E+02  0.45594000000E+02  0.51100000000E-03 0.  1.
         11   -1    0    0    0    0 -0.00000000000E+00 -0.00000000000E+00 -0.45593999997E+02  0.45594000000E+02  0.51100000000E-03 0. -1.
    9900012    2    1    2    0    0  0.11908148454E+02 -0.21657706564E+02  0.20145984504E+02  0.59301938079E+02  0.49999989150E+02 0.  0.
         12    1    1    2    0    0 -0.11908148454E+02  0.21657706564E+02 -0.20145984504E+02  0.31886061921E+02  0.00000000000E+00 0. -1.
         11    1    3    3    0    0 -0.35031032783E+01 -0.42475174649E+01  0.32671961738E+01  0.64021643444E+01  0.51100000000E-03 0. -1.
        -11    1    3    3    0    0 -0.55452114582E+01 -0.99650906585E+01  0.26361763323E+02  0.28722725631E+02  0.51100000000E-03 0.  1.
         12    1    3    3    0    0  0.20956463191E+02 -0.74450984404E+01 -0.94829749927E+01  0.24177048103E+02  0.00000000000E+00 0. -1.
</event>
<event>
 7    1  0.1134395E-011  0.5930202E+02  0.7816164E-02  0.1266605E+00
        -11   -1    0    0    0    0  0.00000000000E+00  0.00000000000E+00  0.45593999997E+02  0.45594000000E+02  0.51100000000E-03 0. -1.
         11   -1    0    0    0    0 -0.00000000000E+00 -0.00000000000E+00 -0.45593999997E+02  0.45594000000E+02  0.51100000000E-03 0.  1.
    9900012    2    1    2    0    0  0.12260262784E+02 -0.81222454961E+01 -0.28291890247E+02  0.59302016101E+02  0.50000131444E+02 0.  0.
         12    1    1    2    0    0 -0.12260262784E+02  0.81222454961E+01  0.28291890247E+02  0.31885983899E+02  0.00000000000E+00 0. -1.
         11    1    3    3    0    0 -0.24263991314E+01 -0.11154475056E+02  0.29284969624E+01  0.11784982870E+02  0.51100000000E-03 0. -1.
        -11    1    3    3    0    0  0.55793411058E+01 -0.14395677957E+02 -0.91057851426E+01  0.17924282812E+02  0.51100000000E-03 0.  1.
         12    1    3    3    0    0  0.91073208099E+01  0.17427907517E+02 -0.22114602067E+02  0.29592750419E+02  0.00000000000E+00 0. -1.
</event>
<event>
 7    1  0.1134395E-011  0.5930194E+02  0.7816164E-02  0.1266605E+00
        -11   -1    0    0    0    0  0.00000000000E+00  0.00000000000E+00  0.45593999997E+02  0.45594000000E+02  0.51100000000E-03 0. -1.
         11   -1    0    0    0    0 -0.00000000000E+00 -0.00000000000E+00 -0.45593999997E+02  0.45594000000E+02  0.51100000000E-03 0.  1.
    9900012    2    1    2    0    0 -0.28980105657E+02 -0.26162927899E+01  0.13039523213E+02  0.59301942271E+02  0.49999996796E+02 0.  0.
         12    1    1    2    0    0  0.28980105657E+02  0.26162927899E+01 -0.13039523213E+02  0.31886057729E+02  0.00000000000E+00 0. -1.
         11    1    3    3    0    0  0.27431003165E+00 -0.15632144492E+01 -0.15392326475E+01  0.22109099511E+01  0.51100000000E-03 0. -1.
        -11    1    3    3    0    0 -0.28377851495E+01 -0.74305158725E+01 -0.14966244968E+02  0.16948571603E+02  0.51100000000E-03 0.  1.
         12    1    3    3    0    0 -0.26416630540E+02  0.63774375318E+01  0.29545000828E+02  0.40142460717E+02  0.00000000000E+00 0. -1.
</event>
<event>
 7    1  0.1134395E-011  0.5930193E+02  0.7816164E-02  0.1266605E+00
        -11   -1    0    0    0    0  0.00000000000E+00  0.00000000000E+00  0.45593999997E+02  0.45594000000E+02  0.51100000000E-03 0. -1.
         11   -1    0    0    0    0 -0.00000000000E+00 -0.00000000000E+00 -0.45593999997E+02  0.45594000000E+02  0.51100000000E-03 0.  1.
    9900012    2    1    2    0    0  0.20642974222E+02  0.18329618385E+02 -0.15956637720E+02  0.59301928084E+02  0.49999970923E+02 0.  0.
         12    1    1    2    0    0 -0.20642974222E+02 -0.18329618385E+02  0.15956637720E+02  0.31886071916E+02  0.00000000000E+00 0. -1.
         11    1    3    3    0    0  0.92836537599E+01 -0.67261568133E+01 -0.12183762598E+02  0.16729359937E+02  0.51100000000E-03 0. -1.
        -11    1    3    3    0    0 -0.77804411303E+00 -0.64829486389E+01 -0.57788885670E+01  0.87194913285E+01  0.51100000000E-03 0.  1.
         12    1    3    3    0    0  0.12137364575E+02  0.31538723838E+02  0.20060134444E+01  0.33853076819E+02  0.00000000000E+00 0. -1.
</event>
<event>
 7    1  0.1505327E-011  0.5930195E+02  0.7816164E-02  0.1266605E+00
        -11   -1    0    0    0    0  0.00000000000E+00  0.00000000000E+00  0.45593999997E+02  0.45594000000E+02  0.51100000000E-03 0.  1.
         11   -1    0    0    0    0 -0.00000000000E+00 -0.00000000000E+00 -0.45593999997E+02  0.45594000000E+02  0.51100000000E-03 0. -1.
    9900012    2    1    2    0    0 -0.24571091513E+02  0.18224999181E+02  0.89906149792E+01  0.59301948332E+02  0.50000007849E+02 0.  0.
         12    1    1    2    0    0  0.24571091513E+02 -0.18224999181E+02 -0.89906149792E+01  0.31886051668E+02  0.00000000000E+00 0. -1.
         11    1    3    3    0    0  0.11504178580E+02  0.79935614471E+00  0.52275560420E+01  0.12661454793E+02  0.51100000000E-03 0. -1.
        -11    1    3    3    0    0 -0.18606269248E+02  0.20497438842E+01  0.11673909514E+02  0.22060708713E+02  0.51100000000E-03 0.  1.
        -12    1    3    3    0    0 -0.17469000844E+02  0.15375899152E+02 -0.79108505766E+01  0.24579784826E+02  0.00000000000E+00 0.  1.
</event>
<event>
 7    1  0.1134395E-011  0.5930194E+02  0.7816164E-02  0.1266605E+00
        -11   -1    0    0    0    0  0.00000000000E+00  0.00000000000E+00  0.45593999997E+02  0.45594000000E+02  0.51100000000E-03 0. -1.
         11   -1    0    0    0    0 -0.00000000000E+00 -0.00000000000E+00 -0.45593999997E+02  0.45594000000E+02  0.51100000000E-03 0.  1.
    9900012    2    1    2    0    0 -0.21588356126E+02  0.13123078217E+02 -0.19453752669E+02  0.59301940428E+02  0.49999993434E+02 0.  0.
         12    1    1    2    0    0  0.21588356126E+02 -0.13123078217E+02  0.19453752669E+02  0.31886059572E+02  0.00000000000E+00 0. -1.
         11    1    3    3    0    0  0.14960452412E+01 -0.99096085492E+01 -0.63481042483E+01  0.11863259281E+02  0.51100000000E-03 0. -1.
        -11    1    3    3    0    0 -0.21288044482E+01  0.13208906807E+02 -0.19296412590E+02  0.23481025670E+02  0.51100000000E-03 0.  1.
        -12    1    3    3    0    0 -0.20955596919E+02  0.98237799592E+01  0.61907641690E+01  0.23957655476E+02  0.00000000000E+00 0.  1.
</event>
<event>
 7    1  0.1134395E-011  0.5930213E+02  0.7816164E-02  0.1266604E+00
        -11   -1    0    0    0    0  0.00000000000E+00  0.00000000000E+00  0.45593999997E+02  0.45594000000E+02  0.51100000000E-03 0.  1.
         11   -1    0    0    0    0 -0.00000000000E+00 -0.00000000000E+00 -0.45593999997E+02  0.45594000000E+02  0.51100000000E-03 0. -1.
    9900012    2    1    2    0    0  0.56050059345E+01  0.90007455621E+01  0.30071237932E+02  0.59302127534E+02  0.50000334670E+02 0.  0.
         12    1    1    2    0    0 -0.56050059345E+01 -0.90007455621E+01 -0.30071237932E+02  0.31885872466E+02  0.00000000000E+00 0. -1.
         11    1    3    3    0    0  0.81045814704E+01  0.11147770172E+01  0.12598159643E+02  0.15021337999E+02  0.51100000000E-03 0. -1.
        -11    1    3    3    0    0  0.10204174824E+02  0.14571376240E+02  0.22844073536E+02  0.28953443411E+02  0.51100000000E-03 0.  1.
         12    1    3    3    0    0 -0.12703750360E+02 -0.66854076947E+01 -0.53709952478E+01  0.15327346124E+02  0.00000000000E+00 0. -1.
</event>
<event>
 7    1  0.1134395E-011  0.5930201E+02  0.7816164E-02  0.1266605E+00
        -11   -1    0    0    0    0  0.00000000000E+00  0.00000000000E+00  0.45593999997E+02  0.45594000000E+02  0.51100000000E-03 0.  1.
         11   -1    0    0    0    0 -0.00000000000E+00 -0.00000000000E+00 -0.45593999997E+02  0.45594000000E+02  0.51100000000E-03 0. -1.
    9900012    2    1    2    0    0  0.14106953020E+02 -0.27165506572E+02  0.89300453186E+01  0.59302006520E+02  0.50000113970E+02 0.  0.
         12    1    1    2    0    0 -0.14106953020E+02  0.27165506572E+02 -0.89300453186E+01  0.31885993480E+02  0.00000000000E+00 0. -1.
         11    1    3    3    0    0 -0.70600151721E+01 -0.11351071460E+02  0.11771248086E+02  0.17811595080E+02  0.51100000000E-03 0. -1.
        -11    1    3    3    0    0  0.18948422147E+01 -0.54804081983E+01  0.13168318897E+02  0.14388534459E+02  0.51100000000E-03 0.  1.
         12    1    3    3    0    0  0.19272125977E+02 -0.10334026914E+02 -0.16009521665E+02  0.27101876981E+02  0.00000000000E+00 0. -1.
</event>
<event>
 7    1  0.1134395E-011  0.5930196E+02  0.7816164E-02  0.1266605E+00
        -11   -1    0    0    0    0  0.00000000000E+00  0.00000000000E+00  0.45593999997E+02  0.45594000000E+02  0.51100000000E-03 0. -1.
         11   -1    0    0    0    0 -0.00000000000E+00 -0.00000000000E+00 -0.45593999997E+02  0.45594000000E+02  0.51100000000E-03 0.  1.
    9900012    2    1    2    0    0 -0.90537187140E+00 -0.27566746796E+02  0.15999205727E+02  0.59301955858E+02  0.50000021575E+02 0.  0.
         12    1    1    2    0    0  0.90537187140E+00  0.27566746796E+02 -0.15999205727E+02  0.31886044142E+02  0.00000000000E+00 0. -1.
         11    1    3    3    0    0  0.35997100481E+01 -0.10415666808E+02  0.68512702317E+01  0.12976283425E+02  0.51100000000E-03 0. -1.
        -11    1    3    3    0    0  0.16431063966E+02 -0.18007465841E+02  0.63105656255E+01  0.25180784894E+02  0.51100000000E-03 0.  1.
        -12    1    3    3    0    0 -0.20936145886E+02  0.85638585287E+00  0.28373698697E+01  0.21144887539E+02  0.00000000000E+00 0.  1.
</event>
<event>
 7    1  0.1134395E-011  0.5930193E+02  0.7816164E-02  0.1266605E+00
        -11   -1    0    0    0    0  0.00000000000E+00  0.00000000000E+00  0.45593999997E+02  0.45594000000E+02  0.51100000000E-03 0. -1.
         11   -1    0    0    0    0 -0.00000000000E+00 -0.00000000000E+00 -0.45593999997E+02  0.45594000000E+02  0.51100000000E-03 0.  1.
    9900012    2    1    2    0    0  0.31075555494E+02  0.58775067328E+01  0.40603158784E+01  0.59301930946E+02  0.49999976143E+02 0.  0.
         12    1    1    2    0    0 -0.31075555494E+02 -0.58775067328E+01 -0.40603158784E+01  0.31886069054E+02  0.00000000000E+00 0. -1.
         11    1    3    3    0    0  0.25319839685E+01 -0.10029492083E+02 -0.88622749245E+01  0.13621364519E+02  0.51100000000E-03 0. -1.
        -11    1    3    3    0    0 -0.53292613193E+01  0.47330601308E+01  0.60655563575E+01  0.93591590754E+01  0.51100000000E-03 0.  1.
        -12    1    3    3    0    0  0.33872832845E+02  0.11173938685E+02  0.68570344454E+01  0.36321407352E+02  0.00000000000E+00 0.  1.
</event>
<event>
 7    1  0.1134395E-011  0.5930194E+02  0.7816164E-02  0.1266605E+00
        -11   -1    0    0    0    0  0.00000000000E+00  0.00000000000E+00  0.45593999997E+02  0.45594000000E+02  0.51100000000E-03 0.  1.
         11   -1    0    0    0    0 -0.00000000000E+00 -0.00000000000E+00 -0.45593999997E+02  0.45594000000E+02  0.51100000000E-03 0. -1.
    9900012    2    1    2    0    0 -0.12950117261E+01  0.21868410195E+02  0.23169295738E+02  0.59301942156E+02  0.49999996587E+02 0.  0.
         12    1    1    2    0    0  0.12950117261E+01 -0.21868410195E+02 -0.23169295738E+02  0.31886057844E+02  0.00000000000E+00 0. -1.
         11    1    3    3    0    0  0.12725930479E+01 -0.22360773538E+01  0.18694513961E+02  0.18870728324E+02  0.51100000000E-03 0. -1.
        -11    1    3    3    0    0  0.12340134144E+02  0.85227374297E+00 -0.43643335117E+00  0.12377227296E+02  0.51100000000E-03 0.  1.
         12    1    3    3    0    0 -0.14907738918E+02  0.23252213806E+02  0.49112151287E+01  0.28053986536E+02  0.00000000000E+00 0. -1.
</event>
<event>
 7    1  0.1134395E-011  0.5930190E+02  0.7816164E-02  0.1266605E+00
        -11   -1    0    0    0    0  0.00000000000E+00  0.00000000000E+00  0.45593999997E+02  0.45594000000E+02  0.51100000000E-03 0. -1.
         11   -1    0    0    0    0 -0.00000000000E+00 -0.00000000000E+00 -0.45593999997E+02  0.45594000000E+02  0.51100000000E-03 0.  1.
    9900012    2    1    2    0    0 -0.19608330525E+02  0.16029630568E+02 -0.19372348215E+02  0.59301897111E+02  0.49999914435E+02 0.  0.
         12    1    1    2    0    0  0.19608330525E+02 -0.16029630568E+02  0.19372348215E+02  0.31886102889E+02  0.00000000000E+00 0. -1.
         11    1    3    3    0    0 -0.38820016767E+01 -0.18380720905E+01 -0.17638305393E+02  0.18153739654E+02  0.51100000000E-03 0. -1.
        -11    1    3    3    0    0 -0.58531307274E+01  0.46844660687E+01 -0.17069727260E+02  0.18643469383E+02  0.51100000000E-03 0.  1.
         12    1    3    3    0    0 -0.98731981206E+01  0.13183236590E+02  0.15335684438E+02  0.22504688074E+02  0.00000000000E+00 0. -1.
</event>
<event>
 7    1  0.1134395E-011  0.5930185E+02  0.7816164E-02  0.1266605E+00
        -11   -1    0    0    0    0  0.00000000000E+00  0.00000000000E+00  0.45593999997E+02  0.45594000000E+02  0.51100000000E-03 0.  1.
         11   -1    0    0    0    0 -0.00000000000E+00 -0.00000000000E+00 -0.45593999997E+02  0.45594000000E+02  0.51100000000E-03 0. -1.
    9900012    2    1    2    0    0  0.21140584544E+02 -0.42199072060E+01  0.23494564765E+02  0.59301850888E+02  0.49999830135E+02 0.  0.
         12    1    1    2    0    0 -0.21140584544E+02  0.42199072060E+01 -0.23494564765E+02  0.31886149112E+02  0.00000000000E+00 0. -1.
         11    1    3    3    0    0  0.71226248255E+01 -0.13397280086E+02  0.96543254779E+01  0.17984017872E+02  0.51100000000E-03 0. -1.
        -11    1    3    3    0    0  0.24937302408E+02  0.53588424161E+00  0.99998099610E+01  0.26872893831E+02  0.51100000000E-03 0.  1.
         12    1    3    3    0    0 -0.10919342689E+02  0.86414886387E+01  0.38404293263E+01  0.14444939185E+02  0.00000000000E+00 0. -1.
</event>
<event>
 7    1  0.1134395E-011  0.5930193E+02  0.7816164E-02  0.1266605E+00
        -11   -1    0    0    0    0  0.00000000000E+00  0.00000000000E+00  0.45593999997E+02  0.45594000000E+02  0.51100000000E-03 0. -1.
         11   -1    0    0    0    0 -0.00000000000E+00 -0.00000000000E+00 -0.45593999997E+02  0.45594000000E+02  0.51100000000E-03 0.  1.
    9900012    2    1    2    0    0  0.24883410182E+02  0.19937659273E+02 -0.16513356593E+00  0.59301927356E+02  0.49999969595E+02 0.  0.
         12    1    1    2    0    0 -0.24883410182E+02 -0.19937659273E+02  0.16513356593E+00  0.31886072644E+02  0.00000000000E+00 0. -1.
         11    1    3    3    0    0 -0.10552507125E+02  0.13143996240E+02  0.59666004036E+01  0.17880726059E+02  0.51100000000E-03 0. -1.
        -11    1    3    3    0    0  0.62183632355E+01 -0.57388920281E+01  0.18078365609E+01  0.86528143589E+01  0.51100000000E-03 0.  1.
        -12    1    3    3    0    0  0.29217554071E+02  0.12532555062E+02 -0.79395705305E+01  0.32768386938E+02  0.00000000000E+00 0.  1.
</event>
<event>
 7    1  0.1134395E-011  0.5930194E+02  0.7816164E-02  0.1266605E+00
        -11   -1    0    0    0    0  0.00000000000E+00  0.00000000000E+00  0.45593999997E+02  0.45594000000E+02  0.51100000000E-03 0.  1.
         11   -1    0    0    0    0 -0.00000000000E+00 -0.00000000000E+00 -0.45593999997E+02  0.45594000000E+02  0.51100000000E-03 0. -1.
    9900012    2    1    2    0    0 -0.28528986741E+02 -0.83840243671E+01 -0.11511995572E+02  0.59301937353E+02  0.49999987827E+02 0.  0.
         12    1    1    2    0    0  0.28528986741E+02  0.83840243671E+01  0.11511995572E+02  0.31886062647E+02  0.00000000000E+00 0. -1.
         11    1    3    3    0    0 -0.19734995455E+01  0.21607470187E+01  0.27266377683E+00  0.29390260175E+01  0.51100000000E-03 0. -1.
        -11    1    3    3    0    0  0.71133660519E+00 -0.15961677815E+01  0.16191308119E+02  0.16285337277E+02  0.51100000000E-03 0.  1.
        -12    1    3    3    0    0 -0.27266823801E+02 -0.89486036044E+01 -0.27975967468E+02  0.40077574059E+02  0.00000000000E+00 0.  1.
</event>
<event>
 7    1  0.1134395E-011  0.5930195E+02  0.7816164E-02  0.1266605E+00
        -11   -1    0    0    0    0  0.00000000000E+00  0.00000000000E+00  0.45593999997E+02  0.45594000000E+02  0.51100000000E-03 0.  1.
         11   -1    0    0    0    0 -0.00000000000E+00 -0.00000000000E+00 -0.45593999997E+02  0.45594000000E+02  0.51100000000E-03 0. -1.
    9900012    2    1    2    0    0 -0.18223752422E+01 -0.31447622920E+02 -0.49443141554E+01  0.59301948484E+02  0.50000008126E+02 0.  0.
         12    1    1    2    0    0  0.18223752422E+01  0.31447622920E+02  0.49443141554E+01  0.31886051516E+02  0.00000000000E+00 0. -1.
         11    1    3    3    0    0 -0.51854957189E+01  0.14083744830E+00 -0.18712491587E+02  0.19418201324E+02  0.51100000000E-03 0. -1.
        -11    1    3    3    0    0  0.83445982871E+01 -0.15081325942E+02 -0.88112795797E+00  0.17258479061E+02  0.51100000000E-03 0.  1.
        -12    1    3    3    0    0 -0.49814778104E+01 -0.16507134426E+02  0.14649305389E+02  0.22625268098E+02  0.00000000000E+00 0.  1.
</event>
<event>
 7    1  0.1134395E-011  0.5930196E+02  0.7816164E-02  0.1266605E+00
        -11   -1    0    0    0    0  0.00000000000E+00  0.00000000000E+00  0.45593999997E+02  0.45594000000E+02  0.51100000000E-03 0.  1.
         11   -1    0    0    0    0 -0.00000000000E+00 -0.00000000000E+00 -0.45593999997E+02  0.45594000000E+02  0.51100000000E-03 0. -1.
    9900012    2    1    2    0    0  0.14522342029E+02 -0.28315321903E+02 -0.20158700865E+01  0.59301959094E+02  0.50000027477E+02 0.  0.
         12    1    1    2    0    0 -0.14522342029E+02  0.28315321903E+02  0.20158700865E+01  0.31886040906E+02  0.00000000000E+00 0. -1.
         11    1    3    3    0    0 -0.11460732927E+02 -0.71572912480E-01  0.33457609143E+01  0.11939331567E+02  0.51100000000E-03 0. -1.
        -11    1    3    3    0    0  0.38213035635E+01 -0.23417558608E+02  0.11809468892E+01  0.23756663232E+02  0.51100000000E-03 0.  1.
         12    1    3    3    0    0  0.22161771393E+02 -0.48261903824E+01 -0.65425778900E+01  0.23605964295E+02  0.00000000000E+00 0. -1.
</event>
<event>
 7    1  0.1134395E-011  0.5930203E+02  0.7816164E-02  0.1266604E+00
        -11   -1    0    0    0    0  0.00000000000E+00  0.00000000000E+00  0.45593999997E+02  0.45594000000E+02  0.51100000000E-03 0.  1.
         11   -1    0    0    0    0 -0.00000000000E+00 -0.00000000000E+00 -0.45593999997E+02  0.45594000000E+02  0.51100000000E-03 0. -1.
    9900012    2    1    2    0    0  0.27933240523E+02  0.81022313615E+01  0.13069151607E+02  0.59302034390E+02  0.50000164800E+02 0.  0.
         12    1    1    2    0    0 -0.27933240523E+02 -0.81022313615E+01 -0.13069151607E+02  0.31885965610E+02  0.00000000000E+00 0. -1.
         11    1    3    3    0    0 -0.84191232419E+01  0.70878824994E+00  0.87609625844E+01  0.12171215330E+02  0.51100000000E-03 0. -1.
        -11    1    3    3    0    0  0.14722571418E+02  0.12108922012E+02  0.13292443280E+02  0.23239387902E+02  0.51100000000E-03 0.  1.
         12    1    3    3    0    0  0.21629792347E+02 -0.47154789003E+01 -0.89842542576E+01  0.23891431158E+02  0.00000000000E+00 0. -1.
</event>
<event>
 7    1  0.1134395E-011  0.5930192E+02  0.7816164E-02  0.1266605E+00
        -11   -1    0    0    0    0  0.00000000000E+00  0.00000000000E+00  0.45593999997E+02  0.45594000000E+02  0.51100000000E-03 0.  1.
         11   -1    0    0    0    0 -0.00000000000E+00 -0.00000000000E+00 -0.45593999997E+02  0.45594000000E+02  0.51100000000E-03 0. -1.
    9900012    2    1    2    0    0 -0.24014968471E+02 -0.20356512179E+02 -0.50611844544E+01  0.59301923307E+02  0.49999962211E+02 0.  0.
         12    1    1    2    0    0  0.24014968471E+02  0.20356512179E+02  0.50611844544E+01  0.31886076693E+02  0.00000000000E+00 0. -1.
         11    1    3    3    0    0 -0.75375571035E+01  0.25869582078E+01 -0.35901456943E+01  0.87404957654E+01  0.51100000000E-03 0. -1.
        -11    1    3    3    0    0 -0.13256922839E+01 -0.18801671488E+02 -0.19179230017E+02  0.26890577812E+02  0.51100000000E-03 0.  1.
         12    1    3    3    0    0 -0.15151719084E+02 -0.41417988986E+01  0.17708191257E+02  0.23670849730E+02  0.00000000000E+00 0. -1.
</event>
<event>
 7    1  0.1134395E-011  0.5930194E+02  0.7816164E-02  0.1266605E+00
        -11   -1    0    0    0    0  0.00000000000E+00  0.00000000000E+00  0.45593999997E+02  0.45594000000E+02  0.51100000000E-03 0. -1.
         11   -1    0    0    0    0 -0.00000000000E+00 -0.00000000000E+00 -0.45593999997E+02  0.45594000000E+02  0.51100000000E-03 0.  1.
    9900012    2    1    2    0    0  0.22606171773E+02 -0.12637616564E+02 -0.18600334248E+02  0.59301940526E+02  0.49999993614E+02 0.  0.
         12    1    1    2    0    0 -0.22606171773E+02  0.12637616564E+02  0.18600334248E+02  0.31886059474E+02  0.00000000000E+00 0. -1.
         11    1    3    3    0    0  0.17954502961E+01 -0.36360925776E+01 -0.20429887317E+01  0.45407724252E+01  0.51100000000E-03 0. -1.
        -11    1    3    3    0    0 -0.69806752390E+01 -0.13669294797E+02 -0.21228522357E+02  0.26195984593E+02  0.51100000000E-03 0.  1.
         12    1    3    3    0    0  0.27791396716E+02  0.46677708102E+01  0.46711768415E+01  0.28565183508E+02  0.00000000000E+00 0. -1.
</event>
<event>
 7    1  0.1134395E-011  0.5930193E+02  0.7816164E-02  0.1266605E+00
        -11   -1    0    0    0    0  0.00000000000E+00  0.00000000000E+00  0.45593999997E+02  0.45594000000E+02  0.51100000000E-03 0.  1.
         11   -1    0    0    0    0 -0.00000000000E+00 -0.00000000000E+00 -0.45593999997E+02  0.45594000000E+02  0.51100000000E-03 0. -1.
    9900012    2    1    2    0    0 -0.18284937806E+02 -0.26044874027E+02  0.20117736693E+01  0.59301927069E+02  0.49999969072E+02 0.  0.
         12    1    1    2    0    0  0.18284937806E+02  0.26044874027E+02 -0.20117736693E+01  0.31886072931E+02  0.00000000000E+00 0. -1.
         11    1    3    3    0    0  0.70047601536E+00 -0.16582817004E+02 -0.71528377742E+01  0.18073283457E+02  0.51100000000E-03 0. -1.
        -11    1    3    3    0    0 -0.11187698245E+02 -0.12817935262E+02 -0.10372986029E+02  0.19926437108E+02  0.51100000000E-03 0.  1.
        -12    1    3    3    0    0 -0.77977155770E+01  0.33558782397E+01  0.19537597472E+02  0.21302206504E+02  0.00000000000E+00 0.  1.
</event>
<event>
 7    1  0.1134395E-011  0.5930196E+02  0.7816164E-02  0.1266605E+00
        -11   -1    0    0    0    0  0.00000000000E+00  0.00000000000E+00  0.45593999997E+02  0.45594000000E+02  0.51100000000E-03 0. -1.
         11   -1    0    0    0    0 -0.00000000000E+00 -0.00000000000E+00 -0.45593999997E+02  0.45594000000E+02  0.51100000000E-03 0.  1.
    9900012    2    1    2    0    0  0.28543961914E+02  0.62851505688E+01 -0.12745926175E+02  0.59301960524E+02  0.50000030086E+02 0.  0.
         12    1    1    2    0    0 -0.28543961914E+02 -0.62851505688E+01  0.12745926175E+02  0.31886039476E+02  0.00000000000E+00 0. -1.
         11    1    3    3    0    0  0.29011153778E+02  0.89422578338E+01 -0.76141559864E+01  0.31298344850E+02  0.51100000000E-03 0. -1.
        -11    1    3    3    0    0  0.80527878450E+01 -0.16109570996E+01 -0.13637469795E+02  0.15919270006E+02  0.51100000000E-03 0.  1.
         12    1    3    3    0    0 -0.85199797100E+01 -0.10461501654E+01  0.85056996067E+01  0.12084345668E+02  0.00000000000E+00 0. -1.
</event>
<event>
 7    1  0.1134395E-011  0.5930198E+02  0.7816164E-02  0.1266605E+00
        -11   -1    0    0    0    0  0.00000000000E+00  0.00000000000E+00  0.45593999997E+02  0.45594000000E+02  0.51100000000E-03 0.  1.
         11   -1    0    0    0    0 -0.00000000000E+00 -0.00000000000E+00 -0.45593999997E+02  0.45594000000E+02  0.51100000000E-03 0. -1.
    9900012    2    1    2    0    0 -0.18625322138E+02  0.10658029164E+02  0.23584365474E+02  0.59301976334E+02  0.50000058919E+02 0.  0.
         12    1    1    2    0    0  0.18625322138E+02 -0.10658029164E+02 -0.23584365474E+02  0.31886023666E+02  0.00000000000E+00 0. -1.
         11    1    3    3    0    0  0.89922283757E+01 -0.52897090695E+01 -0.17222753025E+01  0.10573903049E+02  0.51100000000E-03 0. -1.
        -11    1    3    3    0    0  0.15313604241E+01 -0.24108911679E+01 -0.29995030529E+01  0.41417966871E+01  0.51100000000E-03 0.  1.
        -12    1    3    3    0    0 -0.29148910938E+02  0.18358629402E+02  0.28306143829E+02  0.44586276598E+02  0.00000000000E+00 0.  1.
</event>
<event>
 7    1  0.1134395E-011  0.5930196E+02  0.7816164E-02  0.1266605E+00
        -11   -1    0    0    0    0  0.00000000000E+00  0.00000000000E+00  0.45593999997E+02  0.45594000000E+02  0.51100000000E-03 0.  1.
         11   -1    0    0    0    0 -0.00000000000E+00 -0.00000000000E+00 -0.45593999997E+02  0.45594000000E+02  0.51100000000E-03 0. -1.
    9900012    2    1    2    0    0 -0.13214643723E+02  0.21949038644E+02  0.18982417188E+02  0.59301964366E+02  0.50000037093E+02 0.  0.
         12    1    1    2    0    0  0.13214643723E+02 -0.21949038644E+02 -0.18982417188E+02  0.31886035634E+02  0.00000000000E+00 0. -1.
         11    1    3    3    0    0 -0.23936929301E+01  0.24779769317E+02 -0.19220527561E+01  0.24969201435E+02  0.51100000000E-03 0. -1.
        -11    1    3    3    0    0 -0.52818529139E+01  0.10999717977E+02  0.11117464910E+02  0.16507264826E+02  0.51100000000E-03 0.  1.
         12    1    3    3    0    0 -0.55390978789E+01 -0.13830448649E+02  0.97870050342E+01  0.17825498105E+02  0.00000000000E+00 0. -1.
</event>
<event>
 7    1  0.1134395E-011  0.5930193E+02  0.7816164E-02  0.1266605E+00
        -11   -1    0    0    0    0  0.00000000000E+00  0.00000000000E+00  0.45593999997E+02  0.45594000000E+02  0.51100000000E-03 0.  1.
         11   -1    0    0    0    0 -0.00000000000E+00 -0.00000000000E+00 -0.45593999997E+02  0.45594000000E+02  0.51100000000E-03 0. -1.
    9900012    2    1    2    0    0 -0.15205194127E+02  0.15133884076E+02  0.23590016782E+02  0.59301933020E+02  0.49999979925E+02 0.  0.
         12    1    1    2    0    0  0.15205194127E+02 -0.15133884076E+02 -0.23590016782E+02  0.31886066980E+02  0.00000000000E+00 0. -1.
         11    1    3    3    0    0 -0.25203689068E+01 -0.14848017527E+01  0.92365737134E+01  0.96887145636E+01  0.51100000000E-03 0. -1.
        -11    1    3    3    0    0  0.13572370324E+02 -0.14331048921E+01  0.11084531061E+02  0.17582089039E+02  0.51100000000E-03 0.  1.
         12    1    3    3    0    0 -0.26257195544E+02  0.18051790721E+02  0.32689120071E+01  0.32031129418E+02  0.00000000000E+00 0. -1.
</event>
<event>
 7    1  0.1134395E-011  0.5930200E+02  0.7816164E-02  0.1266605E+00
        -11   -1    0    0    0    0  0.00000000000E+00  0.00000000000E+00  0.45593999997E+02  0.45594000000E+02  0.51100000000E-03 0.  1.
         11   -1    0    0    0    0 -0.00000000000E+00 -0.00000000000E+00 -0.45593999997E+02  0.45594000000E+02  0.51100000000E-03 0. -1.
    9900012    2    1    2    0    0 -0.10857918992E+02 -0.14730726026E+02  0.26111836077E+02  0.59302004996E+02  0.50000111191E+02 0.  0.
         12    1    1    2    0    0  0.10857918992E+02  0.14730726026E+02 -0.26111836077E+02  0.31885995004E+02  0.00000000000E+00 0. -1.
         11    1    3    3    0    0 -0.16558340106E+02 -0.14074201576E+02  0.15732260141E+02  0.26828451064E+02  0.51100000000E-03 0. -1.
        -11    1    3    3    0    0 -0.60912466358E+01 -0.11721671115E+02 -0.89269069052E-01  0.13210178974E+02  0.51100000000E-03 0.  1.
         12    1    3    3    0    0  0.11791667749E+02  0.11065146665E+02  0.10468845005E+02  0.19263374958E+02  0.00000000000E+00 0. -1.
</event>
<event>
 7    1  0.1134395E-011  0.5930196E+02  0.7816164E-02  0.1266605E+00
        -11   -1    0    0    0    0  0.00000000000E+00  0.00000000000E+00  0.45593999997E+02  0.45594000000E+02  0.51100000000E-03 0. -1.
         11   -1    0    0    0    0 -0.00000000000E+00 -0.00000000000E+00 -0.45593999997E+02  0.45594000000E+02  0.51100000000E-03 0.  1.
    9900012    2    1    2    0    0  0.10857332848E+02  0.28598552362E+02 -0.89978048500E+01  0.59301962838E+02  0.50000034306E+02 0.  0.
         12    1    1    2    0    0 -0.10857332848E+02 -0.28598552362E+02  0.89978048500E+01  0.31886037162E+02  0.00000000000E+00 0. -1.
         11    1    3    3    0    0 -0.53915122694E+01  0.11156493915E+02  0.14851830392E+02  0.19341991296E+02  0.51100000000E-03 0. -1.
        -11    1    3    3    0    0 -0.15251545580E+01  0.26535668324E+01  0.31641121822E+01  0.44021721368E+01  0.51100000000E-03 0.  1.
        -12    1    3    3    0    0  0.17773999675E+02  0.14788491615E+02 -0.27013747424E+02  0.35557799406E+02  0.00000000000E+00 0.  1.
</event>
<event>
 7    1  0.1134395E-011  0.5930189E+02  0.7816164E-02  0.1266605E+00
        -11   -1    0    0    0    0  0.00000000000E+00  0.00000000000E+00  0.45593999997E+02  0.45594000000E+02  0.51100000000E-03 0.  1.
         11   -1    0    0    0    0 -0.00000000000E+00 -0.00000000000E+00 -0.45593999997E+02  0.45594000000E+02  0.51100000000E-03 0. -1.
    9900012    2    1    2    0    0 -0.21203248897E+02  0.23811446109E+02  0.40168835152E+00  0.59301888868E+02  0.49999899401E+02 0.  0.
         12    1    1    2    0    0  0.21203248897E+02 -0.23811446109E+02 -0.40168835152E+00  0.31886111132E+02  0.00000000000E+00 0. -1.
         11    1    3    3    0    0 -0.40839507591E+00  0.53881787176E+00 -0.25892927239E+01  0.26761069313E+01  0.51100000000E-03 0. -1.
        -11    1    3    3    0    0 -0.42551489417E+01  0.31465896222E+02 -0.10850030211E+02  0.33554911316E+02  0.51100000000E-03 0.  1.
         12    1    3    3    0    0 -0.16539704879E+02 -0.81932679845E+01  0.13841011286E+02  0.23070870620E+02  0.00000000000E+00 0. -1.
</event>
<event>
 7    1  0.1134395E-011  0.5930194E+02  0.7816164E-02  0.1266605E+00
        -11   -1    0    0    0    0  0.00000000000E+00  0.00000000000E+00  0.45593999997E+02  0.45594000000E+02  0.51100000000E-03 0.  1.
         11   -1    0    0    0    0 -0.00000000000E+00 -0.00000000000E+00 -0.45593999997E+02  0.45594000000E+02  0.51100000000E-03 0. -1.
    9900012    2    1    2    0    0 -0.13488595560E+02  0.27241572149E+02  0.96268049851E+01  0.59301939762E+02  0.49999992220E+02 0.  0.
         12    1    1    2    0    0  0.13488595560E+02 -0.27241572149E+02 -0.96268049851E+01  0.31886060238E+02  0.00000000000E+00 0. -1.
         11    1    3    3    0    0  0.50423377550E+01  0.14841920200E+01  0.58453664191E+01  0.78610625760E+01  0.51100000000E-03 0.  1.
        -11    1    3    3    0    0  0.11122374821E+02  0.11402004518E+02 -0.60830661966E+01  0.17050414168E+02  0.51100000000E-03 0. -1.
        -12    1    3    3    0    0 -0.29653308136E+02  0.14355375611E+02  0.98645047626E+01  0.34390463017E+02  0.00000000000E+00 0.  1.
</event>
<event>
 7    1  0.1134395E-011  0.5930193E+02  0.7816164E-02  0.1266605E+00
        -11   -1    0    0    0    0  0.00000000000E+00  0.00000000000E+00  0.45593999997E+02  0.45594000000E+02  0.51100000000E-03 0.  1.
         11   -1    0    0    0    0 -0.00000000000E+00 -0.00000000000E+00 -0.45593999997E+02  0.45594000000E+02  0.51100000000E-03 0. -1.
    9900012    2    1    2    0    0  0.10277200331E+02 -0.30149907717E+02  0.14435237074E+01  0.59301928704E+02  0.49999972053E+02 0.  0.
         12    1    1    2    0    0 -0.10277200331E+02  0.30149907717E+02 -0.14435237074E+01  0.31886071296E+02  0.00000000000E+00 0. -1.
         11    1    3    3    0    0 -0.10602408604E+01 -0.28949187285E+01  0.10521790192E+02  0.10964156795E+02  0.51100000000E-03 0. -1.
        -11    1    3    3    0    0  0.11667220024E+02 -0.23807685842E+02  0.10455095539E+02  0.28499806162E+02  0.51100000000E-03 0.  1.
         12    1    3    3    0    0 -0.32977883262E+00 -0.34473031464E+01 -0.19533362023E+02  0.19837965747E+02  0.00000000000E+00 0. -1.
</event>
<event>
 7    1  0.1134395E-011  0.5930202E+02  0.7816164E-02  0.1266605E+00
        -11   -1    0    0    0    0  0.00000000000E+00  0.00000000000E+00  0.45593999997E+02  0.45594000000E+02  0.51100000000E-03 0. -1.
         11   -1    0    0    0    0 -0.00000000000E+00 -0.00000000000E+00 -0.45593999997E+02  0.45594000000E+02  0.51100000000E-03 0.  1.
    9900012    2    1    2    0    0  0.16728294916E+02  0.16972486286E+02  0.21185246201E+02  0.59302018783E+02  0.50000136336E+02 0.  0.
         12    1    1    2    0    0 -0.16728294916E+02 -0.16972486286E+02 -0.21185246201E+02  0.31885981217E+02  0.00000000000E+00 0. -1.
         11    1    3    3    0    0  0.44700537823E+01  0.92735382139E+01 -0.71346029745E+01  0.12525272519E+02  0.51100000000E-03 0. -1.
        -11    1    3    3    0    0 -0.15180844815E+01  0.17855031370E+02  0.65376079401E+01  0.19074775059E+02  0.51100000000E-03 0.  1.
         12    1    3    3    0    0  0.13776325616E+02 -0.10156083297E+02  0.21782241235E+02  0.27701971205E+02  0.00000000000E+00 0. -1.
</event>
<event>
 7    1  0.1134395E-011  0.5930202E+02  0.7816164E-02  0.1266605E+00
        -11   -1    0    0    0    0  0.00000000000E+00  0.00000000000E+00  0.45593999997E+02  0.45594000000E+02  0.51100000000E-03 0. -1.
         11   -1    0    0    0    0 -0.00000000000E+00 -0.00000000000E+00 -0.45593999997E+02  0.45594000000E+02  0.51100000000E-03 0.  1.
    9900012    2    1    2    0    0  0.14807340424E+02  0.22009376855E+02  0.17693106836E+02  0.59302015155E+02  0.50000129720E+02 0.  0.
         12    1    1    2    0    0 -0.14807340424E+02 -0.22009376855E+02 -0.17693106836E+02  0.31885984845E+02  0.00000000000E+00 0. -1.
         11    1    3    3    0    0 -0.61886177129E+01  0.17923456265E+02  0.40697172783E+01  0.19393603911E+02  0.51100000000E-03 0. -1.
        -11    1    3    3    0    0  0.14571356000E+01 -0.66666603104E+01 -0.68246482795E+01  0.96510843044E+01  0.51100000000E-03 0.  1.
         12    1    3    3    0    0  0.19538822537E+02  0.10752580901E+02  0.20448037837E+02  0.30257326940E+02  0.00000000000E+00 0. -1.
</event>
<event>
 7    1  0.1134395E-011  0.5930194E+02  0.7816164E-02  0.1266605E+00
        -11   -1    0    0    0    0  0.00000000000E+00  0.00000000000E+00  0.45593999997E+02  0.45594000000E+02  0.51100000000E-03 0.  1.
         11   -1    0    0    0    0 -0.00000000000E+00 -0.00000000000E+00 -0.45593999997E+02  0.45594000000E+02  0.51100000000E-03 0. -1.
    9900012    2    1    2    0    0  0.30823020179E+02  0.24270674263E+01 -0.77956055049E+01  0.59301942006E+02  0.49999996312E+02 0.  0.
         12    1    1    2    0    0 -0.30823020179E+02 -0.24270674263E+01  0.77956055049E+01  0.31886057994E+02  0.00000000000E+00 0. -1.
         11    1    3    3    0    0  0.20013547390E+02 -0.94083897650E+01 -0.16475172671E+02  0.27577004767E+02  0.51100000000E-03 0. -1.
        -11    1    3    3    0    0  0.24326358920E+01 -0.42748799237E+00 -0.85957889156E+01  0.89436038993E+01  0.51100000000E-03 0.  1.
        -12    1    3    3    0    0  0.83768368971E+01  0.12262945184E+02  0.17275356082E+02  0.22781333340E+02  0.00000000000E+00 0.  1.
</event>
<event>
 7    1  0.1134395E-011  0.5930193E+02  0.7816164E-02  0.1266605E+00
        -11   -1    0    0    0    0  0.00000000000E+00  0.00000000000E+00  0.45593999997E+02  0.45594000000E+02  0.51100000000E-03 0.  1.
         11   -1    0    0    0    0 -0.00000000000E+00 -0.00000000000E+00 -0.45593999997E+02  0.45594000000E+02  0.51100000000E-03 0. -1.
    9900012    2    1    2    0    0 -0.18085291368E+02 -0.17870997034E+02  0.19242423687E+02  0.59301934577E+02  0.49999982763E+02 0.  0.
         12    1    1    2    0    0  0.18085291368E+02  0.17870997034E+02 -0.19242423687E+02  0.31886065423E+02  0.00000000000E+00 0. -1.
         11    1    3    3    0    0 -0.21732634450E+02  0.33530673989E+01 -0.70007432526E+01  0.23077280330E+02  0.51100000000E-03 0. -1.
        -11    1    3    3    0    0 -0.44223888924E+01 -0.94579914698E+01  0.13718293506E+02  0.17239567951E+02  0.51100000000E-03 0.  1.
        -12    1    3    3    0    0  0.80697319744E+01 -0.11766072963E+02  0.12524873433E+02  0.18985086295E+02  0.00000000000E+00 0.  1.
</event>
<event>
 7    1  0.1134395E-011  0.5930189E+02  0.7816164E-02  0.1266605E+00
        -11   -1    0    0    0    0  0.00000000000E+00  0.00000000000E+00  0.45593999997E+02  0.45594000000E+02  0.51100000000E-03 0. -1.
         11   -1    0    0    0    0 -0.00000000000E+00 -0.00000000000E+00 -0.45593999997E+02  0.45594000000E+02  0.51100000000E-03 0.  1.
    9900012    2    1    2    0    0  0.11540611818E+02 -0.11270159522E+02 -0.27504938913E+02  0.59301892031E+02  0.49999905171E+02 0.  0.
         12    1    1    2    0    0 -0.11540611818E+02  0.11270159522E+02  0.27504938913E+02  0.31886107969E+02  0.00000000000E+00 0. -1.
         11    1    3    3    0    0  0.14982471203E+02 -0.37028853792E+01 -0.57103283688E+01  0.16455809121E+02  0.51100000000E-03 0. -1.
        -11    1    3    3    0    0  0.85374273376E+00  0.11111317067E+02  0.29681476821E+01  0.11532568861E+02  0.51100000000E-03 0.  1.
        -12    1    3    3    0    0 -0.42956021180E+01 -0.18678591210E+02 -0.24762758226E+02  0.31313514049E+02  0.00000000000E+00 0.  1.
</event>
<event>
 7    1  0.1191982E-011  0.5930193E+02  0.7816164E-02  0.1266605E+00
        -11   -1    0    0    0    0  0.00000000000E+00  0.00000000000E+00  0.45593999997E+02  0.45594000000E+02  0.51100000000E-03 0. -1.
         11   -1    0    0    0    0 -0.00000000000E+00 -0.00000000000E+00 -0.45593999997E+02  0.45594000000E+02  0.51100000000E-03 0.  1.
    9900012    2    1    2    0    0  0.25795370491E+02 -0.18688722434E+02 -0.14324554439E+01  0.59301930729E+02  0.49999975746E+02 0.  0.
         12    1    1    2    0    0 -0.25795370491E+02  0.18688722434E+02  0.14324554439E+01  0.31886069271E+02  0.00000000000E+00 0. -1.
         11    1    3    3    0    0  0.14187436204E+02  0.11456084135E+02  0.10950368050E+02  0.21270537615E+02  0.51100000000E-03 0. -1.
        -11    1    3    3    0    0  0.11530166744E+02 -0.11621718690E+02 -0.10416814968E+02  0.19404100721E+02  0.51100000000E-03 0.  1.
        -12    1    3    3    0    0  0.77767543478E-01 -0.18523087879E+02 -0.19660085260E+01  0.18627292393E+02  0.00000000000E+00 0.  1.
</event>
<event>
 7    1  0.1134395E-011  0.5930196E+02  0.7816164E-02  0.1266605E+00
        -11   -1    0    0    0    0  0.00000000000E+00  0.00000000000E+00  0.45593999997E+02  0.45594000000E+02  0.51100000000E-03 0.  1.
         11   -1    0    0    0    0 -0.00000000000E+00 -0.00000000000E+00 -0.45593999997E+02  0.45594000000E+02  0.51100000000E-03 0. -1.
    9900012    2    1    2    0    0 -0.78062265625E+01  0.12708497745E+02  0.28182915870E+02  0.59301955482E+02  0.50000020890E+02 0.  0.
         12    1    1    2    0    0  0.78062265625E+01 -0.12708497745E+02 -0.28182915870E+02  0.31886044518E+02  0.00000000000E+00 0. -1.
         11    1    3    3    0    0  0.17016204303E+02  0.62517141565E+01  0.99196403354E+01  0.20664810752E+02  0.51100000000E-03 0. -1.
        -11    1    3    3    0    0 -0.14026156829E+02  0.13267788193E+02  0.17148824839E+02  0.25823428753E+02  0.51100000000E-03 0.  1.
        -12    1    3    3    0    0 -0.10796274036E+02 -0.68110046048E+01  0.11144506956E+01  0.12813715977E+02  0.00000000000E+00 0.  1.
</event>
<event>
 7    1  0.1134395E-011  0.5930193E+02  0.7816164E-02  0.1266605E+00
        -11   -1    0    0    0    0  0.00000000000E+00  0.00000000000E+00  0.45593999997E+02  0.45594000000E+02  0.51100000000E-03 0.  1.
         11   -1    0    0    0    0 -0.00000000000E+00 -0.00000000000E+00 -0.45593999997E+02  0.45594000000E+02  0.51100000000E-03 0. -1.
    9900012    2    1    2    0    0  0.20757496686E+02 -0.64798403853E+01  0.23320791036E+02  0.59301932594E+02  0.49999979147E+02 0.  0.
         12    1    1    2    0    0 -0.20757496686E+02  0.64798403853E+01 -0.23320791036E+02  0.31886067406E+02  0.00000000000E+00 0. -1.
         11    1    3    3    0    0  0.64585175118E+01 -0.68995901505E+01 -0.59516948876E+01  0.11168682330E+02  0.51100000000E-03 0. -1.
        -11    1    3    3    0    0  0.10733774725E+02 -0.14775476928E+00 -0.62540765315E+01  0.12423736348E+02  0.51100000000E-03 0.  1.
        -12    1    3    3    0    0  0.35652044488E+01  0.56750453446E+00  0.35526562455E+02  0.35709513915E+02  0.00000000000E+00 0.  1.
</event>
<event>
 7    1  0.1134395E-011  0.5930197E+02  0.7816164E-02  0.1266605E+00
        -11   -1    0    0    0    0  0.00000000000E+00  0.00000000000E+00  0.45593999997E+02  0.45594000000E+02  0.51100000000E-03 0. -1.
         11   -1    0    0    0    0 -0.00000000000E+00 -0.00000000000E+00 -0.45593999997E+02  0.45594000000E+02  0.51100000000E-03 0.  1.
    9900012    2    1    2    0    0 -0.82648137215E+01 -0.28527656650E+02 -0.11601063841E+02  0.59301968230E+02  0.50000044139E+02 0.  0.
         12    1    1    2    0    0  0.82648137215E+01  0.28527656650E+02  0.11601063841E+02  0.31886031770E+02  0.00000000000E+00 0. -1.
         11    1    3    3    0    0  0.12782659569E+02 -0.17924995231E+02 -0.10831484296E+02  0.24536154793E+02  0.51100000000E-03 0.  1.
        -11    1    3    3    0    0 -0.93831652749E+01 -0.18441599384E+02 -0.91011101512E+00  0.20711462545E+02  0.51100000000E-03 0. -1.
        -12    1    3    3    0    0 -0.11664308016E+02  0.78389379655E+01  0.14053147002E+00  0.14054350893E+02  0.00000000000E+00 0.  1.
</event>
<event>
 7    1  0.1134395E-011  0.5930197E+02  0.7816164E-02  0.1266605E+00
        -11   -1    0    0    0    0  0.00000000000E+00  0.00000000000E+00  0.45593999997E+02  0.45594000000E+02  0.51100000000E-03 0. -1.
         11   -1    0    0    0    0 -0.00000000000E+00 -0.00000000000E+00 -0.45593999997E+02  0.45594000000E+02  0.51100000000E-03 0.  1.
    9900012    2    1    2    0    0 -0.61947198462E+01  0.16384743482E+01 -0.31235552357E+02  0.59301970407E+02  0.50000048109E+02 0.  0.
         12    1    1    2    0    0  0.61947198462E+01 -0.16384743482E+01  0.31235552357E+02  0.31886029593E+02  0.00000000000E+00 0. -1.
         11    1    3    3    0    0  0.10657002457E+02 -0.11719397860E+02 -0.78468256690E+01  0.17677348809E+02  0.51100000000E-03 0. -1.
        -11    1    3    3    0    0  0.45642343128E+01  0.87006567161E+00 -0.14600689863E+02  0.15322186328E+02  0.51100000000E-03 0.  1.
        -12    1    3    3    0    0 -0.21415956616E+02  0.12487806537E+02 -0.87880368247E+01  0.26302435270E+02  0.00000000000E+00 0.  1.
</event>
<event>
 7    1  0.1134395E-011  0.5930194E+02  0.7816164E-02  0.1266605E+00
        -11   -1    0    0    0    0  0.00000000000E+00  0.00000000000E+00  0.45593999997E+02  0.45594000000E+02  0.51100000000E-03 0.  1.
         11   -1    0    0    0    0 -0.00000000000E+00 -0.00000000000E+00 -0.45593999997E+02  0.45594000000E+02  0.51100000000E-03 0. -1.
    9900012    2    1    2    0    0 -0.27812099183E+01  0.85723661764E+00  0.31752961423E+02  0.59301944390E+02  0.50000000661E+02 0.  0.
         12    1    1    2    0    0  0.27812099183E+01 -0.85723661764E+00 -0.31752961423E+02  0.31886055610E+02  0.00000000000E+00 0. -1.
         11    1    3    3    0    0  0.11623435914E+02 -0.10327285526E+00  0.68176461910E+01  0.13475727348E+02  0.51100000000E-03 0.  1.
        -11    1    3    3    0    0 -0.16693726205E+02 -0.14593131112E+02  0.10708354647E+02  0.24623339127E+02  0.51100000000E-03 0. -1.
         12    1    3    3    0    0  0.22890803729E+01  0.15553640585E+02  0.14226960585E+02  0.21202877915E+02  0.00000000000E+00 0. -1.
</event>
<event>
 7    1  0.1134395E-011  0.5930190E+02  0.7816164E-02  0.1266605E+00
        -11   -1    0    0    0    0  0.00000000000E+00  0.00000000000E+00  0.45593999997E+02  0.45594000000E+02  0.51100000000E-03 0.  1.
         11   -1    0    0    0    0 -0.00000000000E+00 -0.00000000000E+00 -0.45593999997E+02  0.45594000000E+02  0.51100000000E-03 0. -1.
    9900012    2    1    2    0    0 -0.12338501038E+01  0.29802465320E+02  0.11270045515E+02  0.59301901914E+02  0.49999923194E+02 0.  0.
         12    1    1    2    0    0  0.12338501038E+01 -0.29802465320E+02 -0.11270045515E+02  0.31886098086E+02  0.00000000000E+00 0. -1.
         11    1    3    3    0    0  0.24167555249E+01 -0.32639502116E+01 -0.95944676675E+01  0.10418631788E+02  0.51100000000E-03 0. -1.
        -11    1    3    3    0    0  0.19843318141E+01  0.38289776557E+01 -0.69226248218E+01  0.81560638375E+01  0.51100000000E-03 0.  1.
        -12    1    3    3    0    0 -0.56349374428E+01  0.29237437876E+02  0.27787138005E+02  0.40727206288E+02  0.00000000000E+00 0.  1.
</event>
<event>
 7    1  0.1134395E-011  0.5930185E+02  0.7816164E-02  0.1266605E+00
        -11   -1    0    0    0    0  0.00000000000E+00  0.00000000000E+00  0.45593999997E+02  0.45594000000E+02  0.51100000000E-03 0. -1.
         11   -1    0    0    0    0 -0.00000000000E+00 -0.00000000000E+00 -0.45593999997E+02  0.45594000000E+02  0.51100000000E-03 0.  1.
    9900012    2    1    2    0    0 -0.30277596996E+02 -0.95394675079E+01  0.29986795815E+01  0.59301852546E+02  0.49999833160E+02 0.  0.
         12    1    1    2    0    0  0.30277596996E+02  0.95394675079E+01 -0.29986795815E+01  0.31886147454E+02  0.00000000000E+00 0. -1.
         11    1    3    3    0    0  0.71538467791E+01 -0.59242112804E+01 -0.87102604677E+01  0.12733516431E+02  0.51100000000E-03 0. -1.
        -11    1    3    3    0    0 -0.32598018273E+00  0.14429431683E+01  0.88916538042E+01  0.90138701844E+01  0.51100000000E-03 0.  1.
        -12    1    3    3    0    0 -0.37105463593E+02 -0.50581993958E+01  0.28172862449E+01  0.37554465931E+02  0.00000000000E+00 0.  1.
</event>
<event>
 7    1  0.1134395E-011  0.5930200E+02  0.7816164E-02  0.1266605E+00
        -11   -1    0    0    0    0  0.00000000000E+00  0.00000000000E+00  0.45593999997E+02  0.45594000000E+02  0.51100000000E-03 0.  1.
         11   -1    0    0    0    0 -0.00000000000E+00 -0.00000000000E+00 -0.45593999997E+02  0.45594000000E+02  0.51100000000E-03 0. -1.
    9900012    2    1    2    0    0 -0.14153103410E+02  0.23572283982E+01  0.28475427004E+02  0.59302002996E+02  0.50000107545E+02 0.  0.
         12    1    1    2    0    0  0.14153103410E+02 -0.23572283982E+01 -0.28475427004E+02  0.31885997004E+02  0.00000000000E+00 0. -1.
         11    1    3    3    0    0  0.10242702404E+02  0.92501374242E+01  0.10304078475E+02  0.17223589300E+02  0.51100000000E-03 0. -1.
        -11    1    3    3    0    0  0.61916609178E+01 -0.10680785189E+01  0.56554766901E+00  0.63085102101E+01  0.51100000000E-03 0.  1.
         12    1    3    3    0    0 -0.30587466731E+02 -0.58248305071E+01  0.17605800860E+02  0.35769903486E+02  0.00000000000E+00 0. -1.
</event>
<event>
 7    1  0.1134395E-011  0.5930196E+02  0.7816164E-02  0.1266605E+00
        -11   -1    0    0    0    0  0.00000000000E+00  0.00000000000E+00  0.45593999997E+02  0.45594000000E+02  0.51100000000E-03 0.  1.
         11   -1    0    0    0    0 -0.00000000000E+00 -0.00000000000E+00 -0.45593999997E+02  0.45594000000E+02  0.51100000000E-03 0. -1.
    9900012    2    1    2    0    0 -0.18777608779E+02  0.22686604087E+02  0.12224515611E+02  0.59301962642E+02  0.50000033948E+02 0.  0.
         12    1    1    2    0    0  0.18777608779E+02 -0.22686604087E+02 -0.12224515611E+02  0.31886037358E+02  0.00000000000E+00 0. -1.
         11    1    3    3    0    0  0.61318152657E+01  0.13908519838E+02  0.28521631216E+01  0.15465475010E+02  0.51100000000E-03 0. -1.
        -11    1    3    3    0    0 -0.49957387734E+01  0.19062461015E+02  0.83451771491E+01  0.21400392701E+02  0.51100000000E-03 0.  1.
        -12    1    3    3    0    0 -0.19913685272E+02 -0.10284376767E+02  0.10271753405E+01  0.22436094931E+02  0.00000000000E+00 0.  1.
</event>
<event>
 7    1  0.1134395E-011  0.5930195E+02  0.7816164E-02  0.1266605E+00
        -11   -1    0    0    0    0  0.00000000000E+00  0.00000000000E+00  0.45593999997E+02  0.45594000000E+02  0.51100000000E-03 0.  1.
         11   -1    0    0    0    0 -0.00000000000E+00 -0.00000000000E+00 -0.45593999997E+02  0.45594000000E+02  0.51100000000E-03 0. -1.
    9900012    2    1    2    0    0  0.20024445287E+02  0.16774482721E+02  0.18285477880E+02  0.59301946922E+02  0.50000005278E+02 0.  0.
         12    1    1    2    0    0 -0.20024445287E+02 -0.16774482721E+02 -0.18285477880E+02  0.31886053078E+02  0.00000000000E+00 0. -1.
         11    1    3    3    0    0  0.86124007023E+01 -0.19606837602E+01  0.40771020049E+01  0.97283342708E+01  0.51100000000E-03 0. -1.
        -11    1    3    3    0    0  0.11112201105E+02 -0.11947855922E+02  0.83716205328E+01  0.18338928680E+02  0.51100000000E-03 0.  1.
         12    1    3    3    0    0  0.29984347967E+00  0.30683022402E+02  0.58367553428E+01  0.31234683971E+02  0.00000000000E+00 0. -1.
</event>
<event>
 7    1  0.1134395E-011  0.5930193E+02  0.7816164E-02  0.1266605E+00
        -11   -1    0    0    0    0  0.00000000000E+00  0.00000000000E+00  0.45593999997E+02  0.45594000000E+02  0.51100000000E-03 0.  1.
         11   -1    0    0    0    0 -0.00000000000E+00 -0.00000000000E+00 -0.45593999997E+02  0.45594000000E+02  0.51100000000E-03 0. -1.
    9900012    2    1    2    0    0  0.30392648806E+02  0.85793070138E+00 -0.96058388197E+01  0.59301932730E+02  0.49999979396E+02 0.  0.
         12    1    1    2    0    0 -0.30392648806E+02 -0.85793070138E+00  0.96058388197E+01  0.31886067270E+02  0.00000000000E+00 0. -1.
         11    1    3    3    0    0  0.87267143413E+01 -0.12958911657E+02  0.26303553965E+01  0.15843222661E+02  0.51100000000E-03 0.  1.
        -11    1    3    3    0    0  0.12223047345E+02 -0.82835337392E+01  0.29119473256E+01  0.15049892195E+02  0.51100000000E-03 0. -1.
         12    1    3    3    0    0  0.94428871197E+01  0.22100376097E+02 -0.15148141542E+02  0.28408817874E+02  0.00000000000E+00 0. -1.
</event>
<event>
 7    1  0.1134395E-011  0.5930196E+02  0.7816164E-02  0.1266605E+00
        -11   -1    0    0    0    0  0.00000000000E+00  0.00000000000E+00  0.45593999997E+02  0.45594000000E+02  0.51100000000E-03 0. -1.
         11   -1    0    0    0    0 -0.00000000000E+00 -0.00000000000E+00 -0.45593999997E+02  0.45594000000E+02  0.51100000000E-03 0.  1.
    9900012    2    1    2    0    0 -0.17151669444E+02 -0.15213604204E+02 -0.22160464711E+02  0.59301957383E+02  0.50000024357E+02 0.  0.
         12    1    1    2    0    0  0.17151669444E+02  0.15213604204E+02  0.22160464711E+02  0.31886042617E+02  0.00000000000E+00 0. -1.
         11    1    3    3    0    0 -0.85935441879E+01  0.16372363836E+01 -0.15851721384E+02  0.18105430560E+02  0.51100000000E-03 0. -1.
        -11    1    3    3    0    0 -0.22117359974E+02 -0.71093650203E+01 -0.76191962869E+01  0.24449393357E+02  0.51100000000E-03 0.  1.
         12    1    3    3    0    0  0.13559234718E+02 -0.97414755671E+01  0.13104529600E+01  0.16747133466E+02  0.00000000000E+00 0. -1.
</event>
<event>
 7    1  0.1134395E-011  0.5930194E+02  0.7816164E-02  0.1266605E+00
        -11   -1    0    0    0    0  0.00000000000E+00  0.00000000000E+00  0.45593999997E+02  0.45594000000E+02  0.51100000000E-03 0.  1.
         11   -1    0    0    0    0 -0.00000000000E+00 -0.00000000000E+00 -0.45593999997E+02  0.45594000000E+02  0.51100000000E-03 0. -1.
    9900012    2    1    2    0    0  0.23136727058E+02 -0.14356412081E+02  0.16592343945E+02  0.59301943731E+02  0.49999999459E+02 0.  0.
         12    1    1    2    0    0 -0.23136727058E+02  0.14356412081E+02 -0.16592343945E+02  0.31886056269E+02  0.00000000000E+00 0. -1.
         11    1    3    3    0    0 -0.59551062587E+00 -0.12541172184E+02 -0.90283744512E+01  0.15464384183E+02  0.51100000000E-03 0. -1.
        -11    1    3    3    0    0  0.11289425574E+02 -0.14001014421E+02  0.15152546224E+02  0.23517635765E+02  0.51100000000E-03 0.  1.
         12    1    3    3    0    0  0.12442812110E+02  0.12185774525E+02  0.10468172172E+02  0.20319923784E+02  0.00000000000E+00 0. -1.
</event>
<event>
 7    1  0.1134395E-011  0.5930195E+02  0.7816164E-02  0.1266605E+00
        -11   -1    0    0    0    0  0.00000000000E+00  0.00000000000E+00  0.45593999997E+02  0.45594000000E+02  0.51100000000E-03 0.  1.
         11   -1    0    0    0    0 -0.00000000000E+00 -0.00000000000E+00 -0.45593999997E+02  0.45594000000E+02  0.51100000000E-03 0. -1.
    9900012    2    1    2    0    0  0.68057407246E+01  0.22640243626E+02  0.21396758386E+02  0.59301952774E+02  0.50000015952E+02 0.  0.
         12    1    1    2    0    0 -0.68057407246E+01 -0.22640243626E+02 -0.21396758386E+02  0.31886047226E+02  0.00000000000E+00 0. -1.
         11    1    3    3    0    0  0.15118435938E+02  0.68280397203E+01 -0.17788532119E+01  0.16683930911E+02  0.51100000000E-03 0. -1.
        -11    1    3    3    0    0  0.14740542962E+01  0.76142441867E+01  0.27936122458E+02  0.28992697165E+02  0.51100000000E-03 0.  1.
         12    1    3    3    0    0 -0.97867495094E+01  0.81979597185E+01 -0.47605108601E+01  0.13625324699E+02  0.00000000000E+00 0. -1.
</event>
<event>
 7    1  0.1134395E-011  0.5930195E+02  0.7816164E-02  0.1266605E+00
        -11   -1    0    0    0    0  0.00000000000E+00  0.00000000000E+00  0.45593999997E+02  0.45594000000E+02  0.51100000000E-03 0. -1.
         11   -1    0    0    0    0 -0.00000000000E+00 -0.00000000000E+00 -0.45593999997E+02  0.45594000000E+02  0.51100000000E-03 0.  1.
    9900012    2    1    2    0    0 -0.12286613737E+02 -0.25328041146E+02  0.14974975566E+02  0.59301946017E+02  0.50000003628E+02 0.  0.
         12    1    1    2    0    0  0.12286613737E+02  0.25328041146E+02 -0.14974975566E+02  0.31886053983E+02  0.00000000000E+00 0. -1.
         11    1    3    3    0    0 -0.14441815368E+02 -0.17338251432E+02 -0.17644839281E+01  0.22633921393E+02  0.51100000000E-03 0. -1.
        -11    1    3    3    0    0  0.68915002900E+01  0.18515415959E+01 -0.73341116074E+01  0.10232799024E+02  0.51100000000E-03 0.  1.
         12    1    3    3    0    0 -0.47362986585E+01 -0.98413313102E+01  0.24073571101E+02  0.26435225600E+02  0.00000000000E+00 0. -1.
</event>
<event>
 7    1  0.1134395E-011  0.5930193E+02  0.7816164E-02  0.1266605E+00
        -11   -1    0    0    0    0  0.00000000000E+00  0.00000000000E+00  0.45593999997E+02  0.45594000000E+02  0.51100000000E-03 0. -1.
         11   -1    0    0    0    0 -0.00000000000E+00 -0.00000000000E+00 -0.45593999997E+02  0.45594000000E+02  0.51100000000E-03 0.  1.
    9900012    2    1    2    0    0  0.24141563756E+02 -0.13780710534E+02  0.15620443482E+02  0.59301931915E+02  0.49999977908E+02 0.  0.
         12    1    1    2    0    0 -0.24141563756E+02  0.13780710534E+02 -0.15620443482E+02  0.31886068085E+02  0.00000000000E+00 0. -1.
         11    1    3    3    0    0  0.55803216497E+01  0.53645616283E+01  0.13887729417E+02  0.15899293689E+02  0.51100000000E-03 0. -1.
        -11    1    3    3    0    0  0.37815941332E+00 -0.12959025823E+01  0.14735183956E+02  0.14796892056E+02  0.51100000000E-03 0.  1.
        -12    1    3    3    0    0  0.18183082693E+02 -0.17849369580E+02 -0.13002469892E+02  0.28605746169E+02  0.00000000000E+00 0.  1.
</event>
<event>
 7    1  0.1134395E-011  0.5930194E+02  0.7816164E-02  0.1266605E+00
        -11   -1    0    0    0    0  0.00000000000E+00  0.00000000000E+00  0.45593999997E+02  0.45594000000E+02  0.51100000000E-03 0. -1.
         11   -1    0    0    0    0 -0.00000000000E+00 -0.00000000000E+00 -0.45593999997E+02  0.45594000000E+02  0.51100000000E-03 0.  1.
    9900012    2    1    2    0    0  0.25952058175E+02 -0.16139527803E+02 -0.90954407350E+01  0.59301941551E+02  0.49999995483E+02 0.  0.
         12    1    1    2    0    0 -0.25952058175E+02  0.16139527803E+02  0.90954407350E+01  0.31886058449E+02  0.00000000000E+00 0. -1.
         11    1    3    3    0    0  0.13824560102E+01 -0.20173724610E+01  0.12994769106E+02  0.13222896833E+02  0.51100000000E-03 0. -1.
        -11    1    3    3    0    0  0.10233628882E+02 -0.11288180165E+02  0.43707764457E+01  0.15850989197E+02  0.51100000000E-03 0.  1.
        -12    1    3    3    0    0  0.14335973283E+02 -0.28339751768E+01 -0.26460986287E+02  0.30228055521E+02  0.00000000000E+00 0.  1.
</event>
<event>
 7    1  0.1134395E-011  0.5930199E+02  0.7816164E-02  0.1266605E+00
        -11   -1    0    0    0    0  0.00000000000E+00  0.00000000000E+00  0.45593999997E+02  0.45594000000E+02  0.51100000000E-03 0. -1.
         11   -1    0    0    0    0 -0.00000000000E+00 -0.00000000000E+00 -0.45593999997E+02  0.45594000000E+02  0.51100000000E-03 0.  1.
    9900012    2    1    2    0    0 -0.16264806081E+01  0.27220328841E+02 -0.16526514209E+02  0.59301993457E+02  0.50000090146E+02 0.  0.
         12    1    1    2    0    0  0.16264806081E+01 -0.27220328841E+02  0.16526514209E+02  0.31886006543E+02  0.00000000000E+00 0. -1.
         11    1    3    3    0    0 -0.63956318154E+00 -0.53234685033E+00 -0.63811574115E-01  0.83456959587E+00  0.51100000000E-03 0.  1.
        -11    1    3    3    0    0  0.23161085488E+02  0.15781169399E+02 -0.25673763799E+01  0.28143784577E+02  0.51100000000E-03 0. -1.
         12    1    3    3    0    0 -0.24148002915E+02  0.11971506293E+02 -0.13895326255E+02  0.30323639284E+02  0.00000000000E+00 0. -1.
</event>
<event>
 7    1  0.1134395E-011  0.5930192E+02  0.7816164E-02  0.1266605E+00
        -11   -1    0    0    0    0  0.00000000000E+00  0.00000000000E+00  0.45593999997E+02  0.45594000000E+02  0.51100000000E-03 0.  1.
         11   -1    0    0    0    0 -0.00000000000E+00 -0.00000000000E+00 -0.45593999997E+02  0.45594000000E+02  0.51100000000E-03 0. -1.
    9900012    2    1    2    0    0  0.23539421361E+01 -0.16702536201E+02  0.27059308618E+02  0.59301922442E+02  0.49999960633E+02 0.  0.
         12    1    1    2    0    0 -0.23539421361E+01  0.16702536201E+02 -0.27059308618E+02  0.31886077558E+02  0.00000000000E+00 0. -1.
         11    1    3    3    0    0 -0.13438918253E+02 -0.97516153950E+01  0.45321916190E+01  0.17211603288E+02  0.51100000000E-03 0. -1.
        -11    1    3    3    0    0 -0.40769971633E+01  0.69638757318E+01 -0.11995586733E+01  0.81582113450E+01  0.51100000000E-03 0.  1.
         12    1    3    3    0    0  0.19869857553E+02 -0.13914796538E+02  0.23726675673E+02  0.33932107809E+02  0.00000000000E+00 0. -1.
</event>
<event>
 7    1  0.1134395E-011  0.5930194E+02  0.7816164E-02  0.1266605E+00
        -11   -1    0    0    0    0  0.00000000000E+00  0.00000000000E+00  0.45593999997E+02  0.45594000000E+02  0.51100000000E-03 0.  1.
         11   -1    0    0    0    0 -0.00000000000E+00 -0.00000000000E+00 -0.45593999997E+02  0.45594000000E+02  0.51100000000E-03 0. -1.
    9900012    2    1    2    0    0  0.18947358372E+02 -0.16476269199E+02  0.19653266982E+02  0.59301941306E+02  0.49999995036E+02 0.  0.
         12    1    1    2    0    0 -0.18947358372E+02  0.16476269199E+02 -0.19653266982E+02  0.31886058694E+02  0.00000000000E+00 0. -1.
         11    1    3    3    0    0  0.39802228986E+01  0.13147602529E+02  0.40020989716E+01  0.14307984590E+02  0.51100000000E-03 0. -1.
        -11    1    3    3    0    0 -0.19206784936E+01  0.21646957057E+01 -0.32380803844E+01  0.43428191547E+01  0.51100000000E-03 0.  1.
        -12    1    3    3    0    0  0.16887813967E+02 -0.31788567434E+02  0.18889248394E+02  0.40651137561E+02  0.00000000000E+00 0.  1.
</event>
<event>
 7    1  0.1134395E-011  0.5930195E+02  0.7816164E-02  0.1266605E+00
        -11   -1    0    0    0    0  0.00000000000E+00  0.00000000000E+00  0.45593999997E+02  0.45594000000E+02  0.51100000000E-03 0.  1.
         11   -1    0    0    0    0 -0.00000000000E+00 -0.00000000000E+00 -0.45593999997E+02  0.45594000000E+02  0.51100000000E-03 0. -1.
    9900012    2    1    2    0    0 -0.14693693900E+02  0.27969839099E+02 -0.43016069565E+01  0.59301947218E+02  0.50000005818E+02 0.  0.
         12    1    1    2    0    0  0.14693693900E+02 -0.27969839099E+02  0.43016069565E+01  0.31886052782E+02  0.00000000000E+00 0. -1.
         11    1    3    3    0    0 -0.76589312176E+01 -0.45395982228E+01  0.31488511376E+01  0.94436456503E+01  0.51100000000E-03 0. -1.
        -11    1    3    3    0    0 -0.10940445294E+02 -0.29691583217E+01  0.45308576076E+01  0.12208108587E+02  0.51100000000E-03 0.  1.
        -12    1    3    3    0    0  0.39056826114E+01  0.35478595643E+02 -0.11981315702E+02  0.37650192980E+02  0.00000000000E+00 0.  1.
</event>
<event>
 7    1  0.1134395E-011  0.5930197E+02  0.7816164E-02  0.1266605E+00
        -11   -1    0    0    0    0  0.00000000000E+00  0.00000000000E+00  0.45593999997E+02  0.45594000000E+02  0.51100000000E-03 0.  1.
         11   -1    0    0    0    0 -0.00000000000E+00 -0.00000000000E+00 -0.45593999997E+02  0.45594000000E+02  0.51100000000E-03 0. -1.
    9900012    2    1    2    0    0 -0.12858379350E+01  0.79586896863E-01  0.31859993763E+02  0.59301969895E+02  0.50000047176E+02 0.  0.
         12    1    1    2    0    0  0.12858379350E+01 -0.79586896863E-01 -0.31859993763E+02  0.31886030105E+02  0.00000000000E+00 0. -1.
         11    1    3    3    0    0 -0.23978774603E+01  0.15731402403E+02  0.79095053298E+01  0.17770399902E+02  0.51100000000E-03 0. -1.
        -11    1    3    3    0    0 -0.34064510197E+01  0.80783288512E+01  0.22309385834E+01  0.90465680123E+01  0.51100000000E-03 0.  1.
        -12    1    3    3    0    0  0.45184905450E+01 -0.23730144357E+02  0.21719549850E+02  0.32485001981E+02  0.00000000000E+00 0.  1.
</event>
<event>
 7    1  0.1134395E-011  0.5930198E+02  0.7816164E-02  0.1266605E+00
        -11   -1    0    0    0    0  0.00000000000E+00  0.00000000000E+00  0.45593999997E+02  0.45594000000E+02  0.51100000000E-03 0. -1.
         11   -1    0    0    0    0 -0.00000000000E+00 -0.00000000000E+00 -0.45593999997E+02  0.45594000000E+02  0.51100000000E-03 0.  1.
    9900012    2    1    2    0    0 -0.29152704773E+02 -0.10503268217E+02 -0.75179587035E+01  0.59301975759E+02  0.50000057870E+02 0.  0.
         12    1    1    2    0    0  0.29152704773E+02  0.10503268217E+02  0.75179587035E+01  0.31886024241E+02  0.00000000000E+00 0. -1.
         11    1    3    3    0    0 -0.16084939109E+02 -0.19080853805E+02 -0.21335250144E+02  0.32832866872E+02  0.51100000000E-03 0. -1.
        -11    1    3    3    0    0  0.92101972997E-01  0.20606929209E+01 -0.33149957029E+01  0.39043738114E+01  0.51100000000E-03 0.  1.
         12    1    3    3    0    0 -0.13159867638E+02  0.65168926671E+01  0.17132287144E+02  0.22564735076E+02  0.00000000000E+00 0. -1.
</event>
<event>
 7    1  0.1134395E-011  0.5930195E+02  0.7816164E-02  0.1266605E+00
        -11   -1    0    0    0    0  0.00000000000E+00  0.00000000000E+00  0.45593999997E+02  0.45594000000E+02  0.51100000000E-03 0. -1.
         11   -1    0    0    0    0 -0.00000000000E+00 -0.00000000000E+00 -0.45593999997E+02  0.45594000000E+02  0.51100000000E-03 0.  1.
    9900012    2    1    2    0    0 -0.23733258323E+02  0.76846729317E+01 -0.19859473574E+02  0.59301946006E+02  0.50000003608E+02 0.  0.
         12    1    1    2    0    0  0.23733258323E+02 -0.76846729317E+01  0.19859473574E+02  0.31886053994E+02  0.00000000000E+00 0. -1.
         11    1    3    3    0    0 -0.49560627122E+00 -0.87426358609E+01 -0.61146147275E+01  0.10680253784E+02  0.51100000000E-03 0. -1.
        -11    1    3    3    0    0 -0.33090420612E+01 -0.45880032349E+01  0.97874846422E+01  0.11304618035E+02  0.51100000000E-03 0.  1.
        -12    1    3    3    0    0 -0.19928609990E+02  0.21015312028E+02 -0.23532343488E+02  0.37317074186E+02  0.00000000000E+00 0.  1.
</event>
<event>
 7    1  0.1134395E-011  0.5930192E+02  0.7816164E-02  0.1266605E+00
        -11   -1    0    0    0    0  0.00000000000E+00  0.00000000000E+00  0.45593999997E+02  0.45594000000E+02  0.51100000000E-03 0.  1.
         11   -1    0    0    0    0 -0.00000000000E+00 -0.00000000000E+00 -0.45593999997E+02  0.45594000000E+02  0.51100000000E-03 0. -1.
    9900012    2    1    2    0    0  0.21793683855E+01  0.61502008866E+01  0.31211337236E+02  0.59301918560E+02  0.49999953554E+02 0.  0.
         12    1    1    2    0    0 -0.21793683855E+01 -0.61502008866E+01 -0.31211337236E+02  0.31886081440E+02  0.00000000000E+00 0. -1.
         11    1    3    3    0    0 -0.40958246369E+01 -0.58791980199E+01  0.23144961791E+02  0.24228702099E+02  0.51100000000E-03 0. -1.
        -11    1    3    3    0    0 -0.93317372137E+01  0.39212763255E+01  0.13309148559E+02  0.16720979728E+02  0.51100000000E-03 0.  1.
         12    1    3    3    0    0  0.15606930236E+02  0.81081225810E+01 -0.52427731143E+01  0.18352236733E+02  0.00000000000E+00 0. -1.
</event>
<event>
 7    1  0.1134395E-011  0.5930199E+02  0.7816164E-02  0.1266605E+00
        -11   -1    0    0    0    0  0.00000000000E+00  0.00000000000E+00  0.45593999997E+02  0.45594000000E+02  0.51100000000E-03 0.  1.
         11   -1    0    0    0    0 -0.00000000000E+00 -0.00000000000E+00 -0.45593999997E+02  0.45594000000E+02  0.51100000000E-03 0. -1.
    9900012    2    1    2    0    0 -0.20691930328E+02  0.17524603686E+02  0.16776461164E+02  0.59301994226E+02  0.50000091549E+02 0.  0.
         12    1    1    2    0    0  0.20691930328E+02 -0.17524603686E+02 -0.16776461164E+02  0.31886005774E+02  0.00000000000E+00 0. -1.
         11    1    3    3    0    0  0.11454535821E+01 -0.10894288850E+02 -0.72538222158E+01  0.13138322970E+02  0.51100000000E-03 0. -1.
        -11    1    3    3    0    0 -0.25099843462E+01 -0.79582522606E+00 -0.12990120898E+01  0.29361185057E+01  0.51100000000E-03 0.  1.
        -12    1    3    3    0    0 -0.19327399564E+02  0.29214717762E+02  0.25329295470E+02  0.43227552750E+02  0.00000000000E+00 0.  1.
</event>
<event>
 7    1  0.1134395E-011  0.5930190E+02  0.7816164E-02  0.1266605E+00
        -11   -1    0    0    0    0  0.00000000000E+00  0.00000000000E+00  0.45593999997E+02  0.45594000000E+02  0.51100000000E-03 0.  1.
         11   -1    0    0    0    0 -0.00000000000E+00 -0.00000000000E+00 -0.45593999997E+02  0.45594000000E+02  0.51100000000E-03 0. -1.
    9900012    2    1    2    0    0 -0.23699408041E+02 -0.19199901819E+02  0.92965123327E+01  0.59301900946E+02  0.49999921429E+02 0.  0.
         12    1    1    2    0    0  0.23699408041E+02  0.19199901819E+02 -0.92965123327E+01  0.31886099054E+02  0.00000000000E+00 0. -1.
         11    1    3    3    0    0 -0.47185774176E+01 -0.86509239865E+01 -0.18227748471E+02  0.20720865649E+02  0.51100000000E-03 0. -1.
        -11    1    3    3    0    0 -0.85527652062E+01  0.10872462631E+01  0.23233015147E+01  0.89291448246E+01  0.51100000000E-03 0.  1.
        -12    1    3    3    0    0 -0.10428065417E+02 -0.11636224095E+02  0.25200959289E+02  0.29651890473E+02  0.00000000000E+00 0.  1.
</event>
<event>
 7    1  0.1134395E-011  0.5930195E+02  0.7816164E-02  0.1266605E+00
        -11   -1    0    0    0    0  0.00000000000E+00  0.00000000000E+00  0.45593999997E+02  0.45594000000E+02  0.51100000000E-03 0. -1.
         11   -1    0    0    0    0 -0.00000000000E+00 -0.00000000000E+00 -0.45593999997E+02  0.45594000000E+02  0.51100000000E-03 0.  1.
    9900012    2    1    2    0    0  0.11581133983E+02 -0.34629625589E+01 -0.29506026849E+02  0.59301946709E+02  0.50000004891E+02 0.  0.
         12    1    1    2    0    0 -0.11581133983E+02  0.34629625589E+01  0.29506026849E+02  0.31886053291E+02  0.00000000000E+00 0. -1.
         11    1    3    3    0    0  0.13716574633E+02  0.10456243317E+02 -0.12519554109E+02  0.21312359778E+02  0.51100000000E-03 0. -1.
        -11    1    3    3    0    0  0.39716330874E+01  0.92090376150E+01 -0.42899429543E+01  0.10907972038E+02  0.51100000000E-03 0.  1.
        -12    1    3    3    0    0 -0.61070737367E+01 -0.23128243491E+02 -0.12696529786E+02  0.27081614893E+02  0.00000000000E+00 0.  1.
</event>
<event>
 7    1  0.1134395E-011  0.5930170E+02  0.7816164E-02  0.1266606E+00
        -11   -1    0    0    0    0  0.00000000000E+00  0.00000000000E+00  0.45593999997E+02  0.45594000000E+02  0.51100000000E-03 0. -1.
         11   -1    0    0    0    0 -0.00000000000E+00 -0.00000000000E+00 -0.45593999997E+02  0.45594000000E+02  0.51100000000E-03 0.  1.
    9900012    2    1    2    0    0  0.58890262603E+01  0.10814351055E+02 -0.29412667536E+02  0.59301704658E+02  0.49999563445E+02 0.  0.
         12    1    1    2    0    0 -0.58890262603E+01 -0.10814351055E+02  0.29412667536E+02  0.31886295342E+02  0.00000000000E+00 0. -1.
         11    1    3    3    0    0 -0.10271980269E+02 -0.95265710796E+01 -0.11308158133E+02  0.18003987775E+02  0.51100000000E-03 0.  1.
        -11    1    3    3    0    0 -0.34825108780E+01 -0.29766506815E+01  0.17608287341E+01  0.49080392609E+01  0.51100000000E-03 0. -1.
        -12    1    3    3    0    0  0.19643517407E+02  0.23317572816E+02 -0.19865338137E+02  0.36389677622E+02  0.00000000000E+00 0.  1.
</event>
<event>
 7    1  0.1134395E-011  0.5930194E+02  0.7816164E-02  0.1266605E+00
        -11   -1    0    0    0    0  0.00000000000E+00  0.00000000000E+00  0.45593999997E+02  0.45594000000E+02  0.51100000000E-03 0. -1.
         11   -1    0    0    0    0 -0.00000000000E+00 -0.00000000000E+00 -0.45593999997E+02  0.45594000000E+02  0.51100000000E-03 0.  1.
    9900012    2    1    2    0    0 -0.27165023465E+02  0.14645193244E+02 -0.80187554590E+01  0.59301943108E+02  0.49999998323E+02 0.  0.
         12    1    1    2    0    0  0.27165023465E+02 -0.14645193244E+02  0.80187554590E+01  0.31886056892E+02  0.00000000000E+00 0. -1.
         11    1    3    3    0    0 -0.15029359470E+02 -0.91850999429E+01  0.10957697609E+02  0.20744127945E+02  0.51100000000E-03 0. -1.
        -11    1    3    3    0    0 -0.10679585639E+02  0.65968525343E+01  0.43387820668E+00  0.12560265258E+02  0.51100000000E-03 0.  1.
        -12    1    3    3    0    0 -0.14560783550E+01  0.17233440652E+02 -0.19410331275E+02  0.25997549905E+02  0.00000000000E+00 0.  1.
</event>
<event>
 7    1  0.1134395E-011  0.5930195E+02  0.7816164E-02  0.1266605E+00
        -11   -1    0    0    0    0  0.00000000000E+00  0.00000000000E+00  0.45593999997E+02  0.45594000000E+02  0.51100000000E-03 0.  1.
         11   -1    0    0    0    0 -0.00000000000E+00 -0.00000000000E+00 -0.45593999997E+02  0.45594000000E+02  0.51100000000E-03 0. -1.
    9900012    2    1    2    0    0 -0.45689142709E+01 -0.31525446266E+02 -0.14111097115E+01  0.59301953358E+02  0.50000017016E+02 0.  0.
         12    1    1    2    0    0  0.45689142709E+01  0.31525446266E+02  0.14111097115E+01  0.31886046642E+02  0.00000000000E+00 0. -1.
         11    1    3    3    0    0 -0.15979058681E+01 -0.17410275290E+02 -0.22360493255E+02  0.28384197147E+02  0.51100000000E-03 0. -1.
        -11    1    3    3    0    0  0.16575661591E+01 -0.85480628688E+01 -0.47820248104E-01  0.87074216286E+01  0.51100000000E-03 0.  1.
        -12    1    3    3    0    0 -0.46285745619E+01 -0.55671081070E+01  0.20997203792E+02  0.22210334582E+02  0.00000000000E+00 0.  1.
</event>
<event>
 7    1  0.1134395E-011  0.5930196E+02  0.7816164E-02  0.1266605E+00
        -11   -1    0    0    0    0  0.00000000000E+00  0.00000000000E+00  0.45593999997E+02  0.45594000000E+02  0.51100000000E-03 0. -1.
         11   -1    0    0    0    0 -0.00000000000E+00 -0.00000000000E+00 -0.45593999997E+02  0.45594000000E+02  0.51100000000E-03 0.  1.
    9900012    2    1    2    0    0  0.84938024523E+01  0.15276744631E+02 -0.26668256445E+02  0.59301960603E+02  0.50000030229E+02 0.  0.
         12    1    1    2    0    0 -0.84938024523E+01 -0.15276744631E+02  0.26668256445E+02  0.31886039397E+02  0.00000000000E+00 0. -1.
         11    1    3    3    0    0  0.99737679242E+01 -0.84009738314E+01 -0.27609494877E+01  0.13329487997E+02  0.51100000000E-03 0. -1.
        -11    1    3    3    0    0 -0.10147768694E+02  0.26761294112E+01  0.28457612468E+01  0.10873694654E+02  0.51100000000E-03 0.  1.
        -12    1    3    3    0    0  0.86678032225E+01  0.21001589051E+02 -0.26753068204E+02  0.35098777952E+02  0.00000000000E+00 0.  1.
</event>
<event>
 7    1  0.1134395E-011  0.5930189E+02  0.7816164E-02  0.1266605E+00
        -11   -1    0    0    0    0  0.00000000000E+00  0.00000000000E+00  0.45593999997E+02  0.45594000000E+02  0.51100000000E-03 0.  1.
         11   -1    0    0    0    0 -0.00000000000E+00 -0.00000000000E+00 -0.45593999997E+02  0.45594000000E+02  0.51100000000E-03 0. -1.
    9900012    2    1    2    0    0 -0.90491917475E+01 -0.20559535469E+02  0.22630544965E+02  0.59301891185E+02  0.49999903627E+02 0.  0.
         12    1    1    2    0    0  0.90491917475E+01  0.20559535469E+02 -0.22630544965E+02  0.31886108815E+02  0.00000000000E+00 0. -1.
         11    1    3    3    0    0 -0.72968760964E+01  0.10861822619E+02  0.15904730308E+02  0.20595728630E+02  0.51100000000E-03 0. -1.
        -11    1    3    3    0    0 -0.29846997718E+01  0.26587243596E+01  0.34526322419E+00  0.40120387465E+01  0.51100000000E-03 0.  1.
        -12    1    3    3    0    0  0.12323841207E+01 -0.34080082447E+02  0.63805514323E+01  0.34694123808E+02  0.00000000000E+00 0.  1.
</event>
<event>
 7    1  0.1134395E-011  0.5930195E+02  0.7816164E-02  0.1266605E+00
        -11   -1    0    0    0    0  0.00000000000E+00  0.00000000000E+00  0.45593999997E+02  0.45594000000E+02  0.51100000000E-03 0.  1.
         11   -1    0    0    0    0 -0.00000000000E+00 -0.00000000000E+00 -0.45593999997E+02  0.45594000000E+02  0.51100000000E-03 0. -1.
    9900012    2    1    2    0    0 -0.19233531603E+02  0.64012405905E+01  0.24613326835E+02  0.59301945416E+02  0.50000002533E+02 0.  0.
         12    1    1    2    0    0  0.19233531603E+02 -0.64012405905E+01 -0.24613326835E+02  0.31886054584E+02  0.00000000000E+00 0. -1.
         11    1    3    3    0    0  0.28745100064E+01  0.71624682051E+01 -0.20315165797E+01  0.79806527578E+01  0.51100000000E-03 0. -1.
        -11    1    3    3    0    0  0.10117715881E+02  0.11181463683E+01  0.12384999713E+02  0.16031426765E+02  0.51100000000E-03 0.  1.
         12    1    3    3    0    0 -0.32225757491E+02 -0.18793739828E+01  0.14259843701E+02  0.35289865894E+02  0.00000000000E+00 0. -1.
</event>
<event>
 7    1  0.1134395E-011  0.5930194E+02  0.7816164E-02  0.1266605E+00
        -11   -1    0    0    0    0  0.00000000000E+00  0.00000000000E+00  0.45593999997E+02  0.45594000000E+02  0.51100000000E-03 0. -1.
         11   -1    0    0    0    0 -0.00000000000E+00 -0.00000000000E+00 -0.45593999997E+02  0.45594000000E+02  0.51100000000E-03 0.  1.
    9900012    2    1    2    0    0  0.36282146060E+01 -0.28996572724E+02 -0.12757581036E+02  0.59301936511E+02  0.49999986291E+02 0.  0.
         12    1    1    2    0    0 -0.36282146060E+01  0.28996572724E+02  0.12757581036E+02  0.31886063489E+02  0.00000000000E+00 0. -1.
         11    1    3    3    0    0  0.19011996292E+02 -0.49338039291E+01  0.46942791828E+01  0.20194917220E+02  0.51100000000E-03 0. -1.
        -11    1    3    3    0    0  0.72973247199E+00  0.75653542184E+00  0.29716062650E+01  0.31520309929E+01  0.51100000000E-03 0.  1.
        -12    1    3    3    0    0 -0.16113514158E+02 -0.24819304216E+02 -0.20423466484E+02  0.35954988298E+02  0.00000000000E+00 0.  1.
</event>
<event>
 7    1  0.1134395E-011  0.5930193E+02  0.7816164E-02  0.1266605E+00
        -11   -1    0    0    0    0  0.00000000000E+00  0.00000000000E+00  0.45593999997E+02  0.45594000000E+02  0.51100000000E-03 0. -1.
         11   -1    0    0    0    0 -0.00000000000E+00 -0.00000000000E+00 -0.45593999997E+02  0.45594000000E+02  0.51100000000E-03 0.  1.
    9900012    2    1    2    0    0  0.19696319343E+02 -0.12979683399E+02 -0.21454698495E+02  0.59301933069E+02  0.49999980014E+02 0.  0.
         12    1    1    2    0    0 -0.19696319343E+02  0.12979683399E+02  0.21454698495E+02  0.31886066931E+02  0.00000000000E+00 0. -1.
         11    1    3    3    0    0  0.17384108536E+01  0.81990176553E+01 -0.52524865974E+01  0.98911363617E+01  0.51100000000E-03 0. -1.
        -11    1    3    3    0    0  0.89354134460E+00 -0.16238128960E+02 -0.24814003829E+02  0.29668333869E+02  0.51100000000E-03 0.  1.
         12    1    3    3    0    0  0.17064367145E+02 -0.49405720943E+01  0.86117919308E+01  0.19742462838E+02  0.00000000000E+00 0. -1.
</event>
<event>
 7    1  0.1134395E-011  0.5930197E+02  0.7816164E-02  0.1266605E+00
        -11   -1    0    0    0    0  0.00000000000E+00  0.00000000000E+00  0.45593999997E+02  0.45594000000E+02  0.51100000000E-03 0.  1.
         11   -1    0    0    0    0 -0.00000000000E+00 -0.00000000000E+00 -0.45593999997E+02  0.45594000000E+02  0.51100000000E-03 0. -1.
    9900012    2    1    2    0    0  0.43733900477E+01  0.22731509489E+02  0.21928761498E+02  0.59301974142E+02  0.50000054922E+02 0.  0.
         12    1    1    2    0    0 -0.43733900477E+01 -0.22731509489E+02 -0.21928761498E+02  0.31886025858E+02  0.00000000000E+00 0. -1.
         11    1    3    3    0    0 -0.53365203791E+01 -0.55848140468E+01 -0.64988641555E+01  0.10094742853E+02  0.51100000000E-03 0. -1.
        -11    1    3    3    0    0 -0.84323273876E+01  0.79563904964E+01  0.14564822102E+02  0.18615647666E+02  0.51100000000E-03 0.  1.
         12    1    3    3    0    0  0.18142237814E+02  0.20359933040E+02  0.13862803551E+02  0.30591583624E+02  0.00000000000E+00 0. -1.
</event>
<event>
 7    1  0.1134395E-011  0.5930192E+02  0.7816164E-02  0.1266605E+00
        -11   -1    0    0    0    0  0.00000000000E+00  0.00000000000E+00  0.45593999997E+02  0.45594000000E+02  0.51100000000E-03 0.  1.
         11   -1    0    0    0    0 -0.00000000000E+00 -0.00000000000E+00 -0.45593999997E+02  0.45594000000E+02  0.51100000000E-03 0. -1.
    9900012    2    1    2    0    0 -0.28318918366E+02  0.82100287400E+00  0.14631716421E+02  0.59301916695E+02  0.49999950151E+02 0.  0.
         12    1    1    2    0    0  0.28318918366E+02 -0.82100287400E+00 -0.14631716421E+02  0.31886083305E+02  0.00000000000E+00 0. -1.
         11    1    3    3    0    0 -0.11094739038E+02 -0.19450652083E+01 -0.51193196303E+01  0.12372709756E+02  0.51100000000E-03 0. -1.
        -11    1    3    3    0    0 -0.28012606078E+02  0.72811973073E+01  0.73060151591E+01  0.29851294634E+02  0.51100000000E-03 0.  1.
        -12    1    3    3    0    0  0.10788426750E+02 -0.45151292251E+01  0.12445020893E+02  0.17077912305E+02  0.00000000000E+00 0.  1.
</event>
<event>
 7    1  0.1134395E-011  0.5930200E+02  0.7816164E-02  0.1266605E+00
        -11   -1    0    0    0    0  0.00000000000E+00  0.00000000000E+00  0.45593999997E+02  0.45594000000E+02  0.51100000000E-03 0.  1.
         11   -1    0    0    0    0 -0.00000000000E+00 -0.00000000000E+00 -0.45593999997E+02  0.45594000000E+02  0.51100000000E-03 0. -1.
    9900012    2    1    2    0    0 -0.22450428904E+02  0.93534243362E+01  0.20620585639E+02  0.59302002182E+02  0.50000106059E+02 0.  0.
         12    1    1    2    0    0  0.22450428904E+02 -0.93534243362E+01 -0.20620585639E+02  0.31885997818E+02  0.00000000000E+00 0. -1.
         11    1    3    3    0    0 -0.17394794977E+02 -0.91239625011E+00 -0.30959140837E+00  0.17421458214E+02  0.51100000000E-03 0. -1.
        -11    1    3    3    0    0 -0.13723883104E+02 -0.14606967616E+01 -0.27478568099E+01  0.14072289074E+02  0.51100000000E-03 0.  1.
        -12    1    3    3    0    0  0.86682491765E+01  0.11726517348E+02  0.23678033857E+02  0.27808254894E+02  0.00000000000E+00 0.  1.
</event>
<event>
 7    1  0.1134395E-011  0.5930207E+02  0.7816164E-02  0.1266604E+00
        -11   -1    0    0    0    0  0.00000000000E+00  0.00000000000E+00  0.45593999997E+02  0.45594000000E+02  0.51100000000E-03 0.  1.
         11   -1    0    0    0    0 -0.00000000000E+00 -0.00000000000E+00 -0.45593999997E+02  0.45594000000E+02  0.51100000000E-03 0. -1.
    9900012    2    1    2    0    0  0.23384554278E+02 -0.19766139244E+02 -0.88980244160E+01  0.59302070848E+02  0.50000231289E+02 0.  0.
         12    1    1    2    0    0 -0.23384554278E+02  0.19766139244E+02  0.88980244160E+01  0.31885929152E+02  0.00000000000E+00 0. -1.
         11    1    3    3    0    0  0.44119863918E+00 -0.17948810954E+02 -0.11865315265E+02  0.21520691845E+02  0.51100000000E-03 0. -1.
        -11    1    3    3    0    0 -0.18737622657E+01 -0.14810625816E+01  0.11339218716E+02  0.11588028855E+02  0.51100000000E-03 0.  1.
         12    1    3    3    0    0  0.24817117905E+02 -0.33626570879E+00 -0.83719278671E+01  0.26193350147E+02  0.00000000000E+00 0. -1.
</event>
<event>
 7    1  0.1134395E-011  0.5930189E+02  0.7816164E-02  0.1266605E+00
        -11   -1    0    0    0    0  0.00000000000E+00  0.00000000000E+00  0.45593999997E+02  0.45594000000E+02  0.51100000000E-03 0. -1.
         11   -1    0    0    0    0 -0.00000000000E+00 -0.00000000000E+00 -0.45593999997E+02  0.45594000000E+02  0.51100000000E-03 0.  1.
    9900012    2    1    2    0    0 -0.10911059673E+02  0.18391733071E+02 -0.23651991652E+02  0.59301893658E+02  0.49999908138E+02 0.  0.
         12    1    1    2    0    0  0.10911059673E+02 -0.18391733071E+02  0.23651991652E+02  0.31886106342E+02  0.00000000000E+00 0. -1.
         11    1    3    3    0    0 -0.49147632602E+01 -0.51081682075E+01 -0.66164486490E+01  0.96966836251E+01  0.51100000000E-03 0. -1.
        -11    1    3    3    0    0 -0.93195458143E+01 -0.94235928582E+01 -0.72031588691E+01  0.15084546214E+02  0.51100000000E-03 0.  1.
        -12    1    3    3    0    0  0.33232494014E+01  0.32923494136E+02 -0.98323841339E+01  0.34520663819E+02  0.00000000000E+00 0.  1.
</event>
<event>
 7    1  0.1909292E-011  0.5930193E+02  0.7816164E-02  0.1266605E+00
        -11   -1    0    0    0    0  0.00000000000E+00  0.00000000000E+00  0.45593999997E+02  0.45594000000E+02  0.51100000000E-03 0.  1.
         11   -1    0    0    0    0 -0.00000000000E+00 -0.00000000000E+00 -0.45593999997E+02  0.45594000000E+02  0.51100000000E-03 0. -1.
    9900012    2    1    2    0    0  0.11837134163E+02 -0.29461836191E+02  0.29332153492E+01  0.59301932679E+02  0.49999979302E+02 0.  0.
         12    1    1    2    0    0 -0.11837134163E+02  0.29461836191E+02 -0.29332153492E+01  0.31886067321E+02  0.00000000000E+00 0. -1.
         11    1    3    3    0    0  0.63049173225E+00 -0.19421950107E+01 -0.98873834833E+01  0.10096038515E+02  0.51100000000E-03 0. -1.
        -11    1    3    3    0    0  0.79113684319E+01 -0.13248030649E+02 -0.12564024049E+02  0.19898612190E+02  0.51100000000E-03 0.  1.
        -12    1    3    3    0    0  0.32952739984E+01 -0.14271610531E+02  0.25384622881E+02  0.29307281974E+02  0.00000000000E+00 0.  1.
</event>
<event>
 7    1  0.1134395E-011  0.5930176E+02  0.7816164E-02  0.1266605E+00
        -11   -1    0    0    0    0  0.00000000000E+00  0.00000000000E+00  0.45593999997E+02  0.45594000000E+02  0.51100000000E-03 0. -1.
         11   -1    0    0    0    0 -0.00000000000E+00 -0.00000000000E+00 -0.45593999997E+02  0.45594000000E+02  0.51100000000E-03 0.  1.
    9900012    2    1    2    0    0 -0.50665953176E+01  0.14527330650E+00 -0.31480798622E+02  0.59301761991E+02  0.49999668008E+02 0.  0.
         12    1    1    2    0    0  0.50665953176E+01 -0.14527330650E+00  0.31480798622E+02  0.31886238009E+02  0.00000000000E+00 0. -1.
         11    1    3    3    0    0  0.36043520408E+01 -0.12542096398E+02 -0.99865360437E+01  0.16432481191E+02  0.51100000000E-03 0.  1.
        -11    1    3    3    0    0 -0.98727894198E+01  0.18013203157E+02 -0.27776047091E+02  0.34546436157E+02  0.51100000000E-03 0. -1.
         12    1    3    3    0    0  0.12018420614E+01 -0.53258334524E+01  0.62817845121E+01  0.83228446435E+01  0.00000000000E+00 0. -1.
</event>
<event>
 7    1  0.1134395E-011  0.5930194E+02  0.7816164E-02  0.1266605E+00
        -11   -1    0    0    0    0  0.00000000000E+00  0.00000000000E+00  0.45593999997E+02  0.45594000000E+02  0.51100000000E-03 0.  1.
         11   -1    0    0    0    0 -0.00000000000E+00 -0.00000000000E+00 -0.45593999997E+02  0.45594000000E+02  0.51100000000E-03 0. -1.
    9900012    2    1    2    0    0  0.24477787886E+02 -0.20317669503E+02  0.21796285126E+01  0.59301943890E+02  0.49999999748E+02 0.  0.
         12    1    1    2    0    0 -0.24477787886E+02  0.20317669503E+02 -0.21796285126E+01  0.31886056110E+02  0.00000000000E+00 0. -1.
         11    1    3    3    0    0  0.37033637680E+01 -0.20048114988E+01 -0.47351040462E+01  0.63368275133E+01  0.51100000000E-03 0. -1.
        -11    1    3    3    0    0  0.22004030195E+02 -0.22897603539E+02 -0.11632573246E+02  0.33820028877E+02  0.51100000000E-03 0.  1.
         12    1    3    3    0    0 -0.12296060775E+01  0.45847455348E+01  0.18547305805E+02  0.19145087499E+02  0.00000000000E+00 0. -1.
</event>
<event>
 7    1  0.1134395E-011  0.5930196E+02  0.7816164E-02  0.1266605E+00
        -11   -1    0    0    0    0  0.00000000000E+00  0.00000000000E+00  0.45593999997E+02  0.45594000000E+02  0.51100000000E-03 0. -1.
         11   -1    0    0    0    0 -0.00000000000E+00 -0.00000000000E+00 -0.45593999997E+02  0.45594000000E+02  0.51100000000E-03 0.  1.
    9900012    2    1    2    0    0  0.54221004585E+01  0.31397278737E+02  0.12375308794E+01  0.59301956531E+02  0.50000022802E+02 0.  0.
         12    1    1    2    0    0 -0.54221004585E+01 -0.31397278737E+02 -0.12375308794E+01  0.31886043469E+02  0.00000000000E+00 0. -1.
         11    1    3    3    0    0  0.13992464899E+02  0.32052708029E+02 -0.53143756385E+01  0.35375242114E+02  0.51100000000E-03 0. -1.
        -11    1    3    3    0    0  0.33118218306E+01  0.65809437975E+01  0.67804414273E+01  0.10012560677E+02  0.51100000000E-03 0.  1.
        -12    1    3    3    0    0 -0.11882186272E+02 -0.72363730894E+01 -0.22853490940E+00  0.13914153739E+02  0.00000000000E+00 0.  1.
</event>
<event>
 7    1  0.1134395E-011  0.5930194E+02  0.7816164E-02  0.1266605E+00
        -11   -1    0    0    0    0  0.00000000000E+00  0.00000000000E+00  0.45593999997E+02  0.45594000000E+02  0.51100000000E-03 0. -1.
         11   -1    0    0    0    0 -0.00000000000E+00 -0.00000000000E+00 -0.45593999997E+02  0.45594000000E+02  0.51100000000E-03 0.  1.
    9900012    2    1    2    0    0  0.23027995137E+02  0.38555044472E+01 -0.21715604168E+02  0.59301938171E+02  0.49999989319E+02 0.  0.
         12    1    1    2    0    0 -0.23027995137E+02 -0.38555044472E+01  0.21715604168E+02  0.31886061829E+02  0.00000000000E+00 0. -1.
         11    1    3    3    0    0  0.86139383877E+00  0.27494247117E+01  0.74724728083E+01  0.80086943831E+01  0.51100000000E-03 0. -1.
        -11    1    3    3    0    0  0.93187567486E+01  0.18387692775E+02 -0.15249336104E+02  0.25641542949E+02  0.51100000000E-03 0.  1.
        -12    1    3    3    0    0  0.12847844549E+02 -0.17281613040E+02 -0.13938740873E+02  0.25651700839E+02  0.00000000000E+00 0.  1.
</event>
<event>
 7    1  0.1134395E-011  0.5930195E+02  0.7816164E-02  0.1266605E+00
        -11   -1    0    0    0    0  0.00000000000E+00  0.00000000000E+00  0.45593999997E+02  0.45594000000E+02  0.51100000000E-03 0.  1.
         11   -1    0    0    0    0 -0.00000000000E+00 -0.00000000000E+00 -0.45593999997E+02  0.45594000000E+02  0.51100000000E-03 0. -1.
    9900012    2    1    2    0    0  0.10578443922E+02 -0.29281185006E+02 -0.68868863514E+01  0.59301945450E+02  0.50000002594E+02 0.  0.
         12    1    1    2    0    0 -0.10578443922E+02  0.29281185006E+02  0.68868863514E+01  0.31886054550E+02  0.00000000000E+00 0. -1.
         11    1    3    3    0    0  0.55932236859E+01 -0.18169088831E+02  0.76776197415E+01  0.20502336094E+02  0.51100000000E-03 0. -1.
        -11    1    3    3    0    0  0.14946379738E+02 -0.14923211296E+02 -0.17835239815E+02  0.27644027966E+02  0.51100000000E-03 0.  1.
         12    1    3    3    0    0 -0.99611595011E+01  0.38111151220E+01  0.32707337217E+01  0.11155581390E+02  0.00000000000E+00 0. -1.
</event>
<event>
 7    1  0.1134395E-011  0.5930193E+02  0.7816164E-02  0.1266605E+00
        -11   -1    0    0    0    0  0.00000000000E+00  0.00000000000E+00  0.45593999997E+02  0.45594000000E+02  0.51100000000E-03 0.  1.
         11   -1    0    0    0    0 -0.00000000000E+00 -0.00000000000E+00 -0.45593999997E+02  0.45594000000E+02  0.51100000000E-03 0. -1.
    9900012    2    1    2    0    0  0.13649212736E+02  0.48991129358E+01  0.28397515994E+02  0.59301933600E+02  0.49999980982E+02 0.  0.
         12    1    1    2    0    0 -0.13649212736E+02 -0.48991129358E+01 -0.28397515994E+02  0.31886066400E+02  0.00000000000E+00 0. -1.
         11    1    3    3    0    0  0.61200378606E+01 -0.37781030210E+01 -0.86176598604E+01  0.11224659798E+02  0.51100000000E-03 0. -1.
        -11    1    3    3    0    0  0.76348944855E+01 -0.96736423431E+01  0.14411111809E+02  0.18961833082E+02  0.51100000000E-03 0.  1.
        -12    1    3    3    0    0 -0.10571961053E+00  0.18350858300E+02  0.22604064045E+02  0.29115440720E+02  0.00000000000E+00 0.  1.
</event>
<event>
 7    1  0.1134395E-011  0.5930194E+02  0.7816164E-02  0.1266605E+00
        -11   -1    0    0    0    0  0.00000000000E+00  0.00000000000E+00  0.45593999997E+02  0.45594000000E+02  0.51100000000E-03 0. -1.
         11   -1    0    0    0    0 -0.00000000000E+00 -0.00000000000E+00 -0.45593999997E+02  0.45594000000E+02  0.51100000000E-03 0.  1.
    9900012    2    1    2    0    0  0.20617035744E+02 -0.10287485054E+02 -0.22041470897E+02  0.59301937984E+02  0.49999988978E+02 0.  0.
         12    1    1    2    0    0 -0.20617035744E+02  0.10287485054E+02  0.22041470897E+02  0.31886062016E+02  0.00000000000E+00 0. -1.
         11    1    3    3    0    0 -0.74491223034E+01 -0.84417105879E+01  0.88558454054E+01  0.14324032213E+02  0.51100000000E-03 0. -1.
        -11    1    3    3    0    0  0.34268148653E+01  0.66378085046E+00 -0.15335810560E+02  0.15728024382E+02  0.51100000000E-03 0.  1.
        -12    1    3    3    0    0  0.24639343182E+02 -0.25095553163E+01 -0.15561505741E+02  0.29249881389E+02  0.00000000000E+00 0.  1.
</event>
<event>
 7    1  0.1134395E-011  0.5930193E+02  0.7816164E-02  0.1266605E+00
        -11   -1    0    0    0    0  0.00000000000E+00  0.00000000000E+00  0.45593999997E+02  0.45594000000E+02  0.51100000000E-03 0. -1.
         11   -1    0    0    0    0 -0.00000000000E+00 -0.00000000000E+00 -0.45593999997E+02  0.45594000000E+02  0.51100000000E-03 0.  1.
    9900012    2    1    2    0    0  0.25024697029E+02  0.19384559902E+02 -0.38373048525E+01  0.59301928864E+02  0.49999972344E+02 0.  0.
         12    1    1    2    0    0 -0.25024697029E+02 -0.19384559902E+02  0.38373048525E+01  0.31886071136E+02  0.00000000000E+00 0. -1.
         11    1    3    3    0    0 -0.26299990801E+01 -0.12455481723E+02 -0.57653858009E+01  0.13974819992E+02  0.51100000000E-03 0. -1.
        -11    1    3    3    0    0  0.95033908895E+01  0.78715421610E+01  0.79295031831E+01  0.14668082198E+02  0.51100000000E-03 0.  1.
        -12    1    3    3    0    0  0.18151305219E+02  0.23968499464E+02 -0.60014222346E+01  0.30659026673E+02  0.00000000000E+00 0.  1.
</event>
<event>
 7    1  0.1134395E-011  0.5930179E+02  0.7816164E-02  0.1266605E+00
        -11   -1    0    0    0    0  0.00000000000E+00  0.00000000000E+00  0.45593999997E+02  0.45594000000E+02  0.51100000000E-03 0.  1.
         11   -1    0    0    0    0 -0.00000000000E+00 -0.00000000000E+00 -0.45593999997E+02  0.45594000000E+02  0.51100000000E-03 0. -1.
    9900012    2    1    2    0    0  0.16616102516E+02  0.27198978138E+02 -0.92238537077E+00  0.59301794999E+02  0.49999728208E+02 0.  0.
         12    1    1    2    0    0 -0.16616102516E+02 -0.27198978138E+02  0.92238537077E+00  0.31886205001E+02  0.00000000000E+00 0. -1.
         11    1    3    3    0    0 -0.29187052473E+01  0.11609190842E+02 -0.13162078403E+02  0.17791359152E+02  0.51100000000E-03 0. -1.
        -11    1    3    3    0    0  0.18547924190E+01 -0.39940801401E+01 -0.74055383192E+01  0.86159694255E+01  0.51100000000E-03 0.  1.
        -12    1    3    3    0    0  0.17680015345E+02  0.19583867436E+02  0.19645231352E+02  0.32894466422E+02  0.00000000000E+00 0.  1.
</event>
<event>
 7    1  0.1134395E-011  0.5930195E+02  0.7816164E-02  0.1266605E+00
        -11   -1    0    0    0    0  0.00000000000E+00  0.00000000000E+00  0.45593999997E+02  0.45594000000E+02  0.51100000000E-03 0.  1.
         11   -1    0    0    0    0 -0.00000000000E+00 -0.00000000000E+00 -0.45593999997E+02  0.45594000000E+02  0.51100000000E-03 0. -1.
    9900012    2    1    2    0    0  0.77345882741E+01  0.18086705740E+02  0.25095161739E+02  0.59301954102E+02  0.50000018373E+02 0.  0.
         12    1    1    2    0    0 -0.77345882741E+01 -0.18086705740E+02 -0.25095161739E+02  0.31886045898E+02  0.00000000000E+00 0. -1.
         11    1    3    3    0    0  0.15303703233E+02  0.10828012921E+02 -0.32699983198E+01  0.19030031154E+02  0.51100000000E-03 0. -1.
        -11    1    3    3    0    0  0.21980927829E+01 -0.91812954687E+01  0.10163011937E+02  0.13871359352E+02  0.51100000000E-03 0.  1.
        -12    1    3    3    0    0 -0.97672077415E+01  0.16439988288E+02  0.18202148122E+02  0.26400563597E+02  0.00000000000E+00 0.  1.
</event>
<event>
 7    1  0.1134395E-011  0.5930195E+02  0.7816164E-02  0.1266605E+00
        -11   -1    0    0    0    0  0.00000000000E+00  0.00000000000E+00  0.45593999997E+02  0.45594000000E+02  0.51100000000E-03 0.  1.
         11   -1    0    0    0    0 -0.00000000000E+00 -0.00000000000E+00 -0.45593999997E+02  0.45594000000E+02  0.51100000000E-03 0. -1.
    9900012    2    1    2    0    0 -0.11335921775E+02  0.28014453956E+02  0.10168933519E+02  0.59301953493E+02  0.50000017262E+02 0.  0.
         12    1    1    2    0    0  0.11335921775E+02 -0.28014453956E+02 -0.10168933519E+02  0.31886046507E+02  0.00000000000E+00 0. -1.
         11    1    3    3    0    0 -0.42543913252E+00  0.21297930985E+02  0.19206476035E+02  0.28682252085E+02  0.51100000000E-03 0. -1.
        -11    1    3    3    0    0 -0.25599532944E+01  0.97728279281E+01  0.69938963177E+01  0.12287233722E+02  0.51100000000E-03 0.  1.
         12    1    3    3    0    0 -0.83505293481E+01 -0.30563049573E+01 -0.16031438833E+02  0.18332467686E+02  0.00000000000E+00 0. -1.
</event>
<event>
 7    1  0.1134395E-011  0.5930211E+02  0.7816164E-02  0.1266604E+00
        -11   -1    0    0    0    0  0.00000000000E+00  0.00000000000E+00  0.45593999997E+02  0.45594000000E+02  0.51100000000E-03 0.  1.
         11   -1    0    0    0    0 -0.00000000000E+00 -0.00000000000E+00 -0.45593999997E+02  0.45594000000E+02  0.51100000000E-03 0. -1.
    9900012    2    1    2    0    0  0.72695413935E+01 -0.12917032456E+02  0.28231432125E+02  0.59302114104E+02  0.50000310178E+02 0.  0.
         12    1    1    2    0    0 -0.72695413935E+01  0.12917032456E+02 -0.28231432125E+02  0.31885885896E+02  0.00000000000E+00 0. -1.
         11    1    3    3    0    0  0.92219959981E+01 -0.80800403418E+01  0.20875445585E+02  0.24209842848E+02  0.51100000000E-03 0. -1.
        -11    1    3    3    0    0 -0.40390589068E+01 -0.16399430040E+01  0.20730324352E+02  0.21183714450E+02  0.51100000000E-03 0.  1.
        -12    1    3    3    0    0  0.20866043022E+01 -0.31970491098E+01 -0.13374337811E+02  0.13908556806E+02  0.00000000000E+00 0.  1.
</event>
<event>
 7    1  0.1134395E-011  0.5930193E+02  0.7816164E-02  0.1266605E+00
        -11   -1    0    0    0    0  0.00000000000E+00  0.00000000000E+00  0.45593999997E+02  0.45594000000E+02  0.51100000000E-03 0.  1.
         11   -1    0    0    0    0 -0.00000000000E+00 -0.00000000000E+00 -0.45593999997E+02  0.45594000000E+02  0.51100000000E-03 0. -1.
    9900012    2    1    2    0    0  0.17989830302E+01 -0.10743390407E+02  0.29967726739E+02  0.59301930577E+02  0.49999975468E+02 0.  0.
         12    1    1    2    0    0 -0.17989830302E+01  0.10743390407E+02 -0.29967726739E+02  0.31886069423E+02  0.00000000000E+00 0. -1.
         11    1    3    3    0    0  0.22550987011E+01 -0.29821914803E+00 -0.64288374407E+00  0.23638326044E+01  0.51100000000E-03 0. -1.
        -11    1    3    3    0    0  0.18533600370E+02  0.91228026662E+01  0.11523571845E+02  0.23654018252E+02  0.51100000000E-03 0.  1.
        -12    1    3    3    0    0 -0.18989716041E+02 -0.19567973926E+02  0.19087038638E+02  0.33284079720E+02  0.00000000000E+00 0.  1.
</event>
<event>
 7    1  0.1134395E-011  0.5930234E+02  0.7816164E-02  0.1266603E+00
        -11   -1    0    0    0    0  0.00000000000E+00  0.00000000000E+00  0.45593999997E+02  0.45594000000E+02  0.51100000000E-03 0.  1.
         11   -1    0    0    0    0 -0.00000000000E+00 -0.00000000000E+00 -0.45593999997E+02  0.45594000000E+02  0.51100000000E-03 0. -1.
    9900012    2    1    2    0    0 -0.24592446138E+02 -0.50120310512E+01 -0.19666890615E+02  0.59302337881E+02  0.50000718288E+02 0.  0.
         12    1    1    2    0    0  0.24592446138E+02  0.50120310512E+01  0.19666890615E+02  0.31885662119E+02  0.00000000000E+00 0. -1.
         11    1    3    3    0    0  0.17680972095E+01 -0.58299925881E+01  0.13475857731E+01  0.62394686469E+01  0.51100000000E-03 0. -1.
        -11    1    3    3    0    0  0.82593387295E+01 -0.92714116118E+01 -0.30994392646E+01  0.12797744861E+02  0.51100000000E-03 0.  1.
        -12    1    3    3    0    0 -0.34619882077E+02  0.10089373149E+02 -0.17915037123E+02  0.40265124372E+02  0.00000000000E+00 0.  1.
</event>
<event>
 7    1  0.1134395E-011  0.5930193E+02  0.7816164E-02  0.1266605E+00
        -11   -1    0    0    0    0  0.00000000000E+00  0.00000000000E+00  0.45593999997E+02  0.45594000000E+02  0.51100000000E-03 0.  1.
         11   -1    0    0    0    0 -0.00000000000E+00 -0.00000000000E+00 -0.45593999997E+02  0.45594000000E+02  0.51100000000E-03 0. -1.
    9900012    2    1    2    0    0 -0.69568591601E+01  0.29713443710E+02  0.92431025978E+01  0.59301928242E+02  0.49999971211E+02 0.  0.
         12    1    1    2    0    0  0.69568591601E+01 -0.29713443710E+02 -0.92431025978E+01  0.31886071758E+02  0.00000000000E+00 0. -1.
         11    1    3    3    0    0  0.15109078130E+02  0.79513561915E+01  0.20780854991E+01  0.17199614729E+02  0.51100000000E-03 0. -1.
        -11    1    3    3    0    0  0.13105311763E+01  0.17512028856E+02  0.11809949938E+01  0.17600664648E+02  0.51100000000E-03 0.  1.
        -12    1    3    3    0    0 -0.23376468466E+02  0.42500586631E+01  0.59840221050E+01  0.24501648866E+02  0.00000000000E+00 0.  1.
</event>
<event>
 7    1  0.1134395E-011  0.5930195E+02  0.7816164E-02  0.1266605E+00
        -11   -1    0    0    0    0  0.00000000000E+00  0.00000000000E+00  0.45593999997E+02  0.45594000000E+02  0.51100000000E-03 0.  1.
         11   -1    0    0    0    0 -0.00000000000E+00 -0.00000000000E+00 -0.45593999997E+02  0.45594000000E+02  0.51100000000E-03 0. -1.
    9900012    2    1    2    0    0  0.17530961376E+02 -0.26623940289E+02  0.74264286513E+00  0.59301947851E+02  0.50000006972E+02 0.  0.
         12    1    1    2    0    0 -0.17530961376E+02  0.26623940289E+02 -0.74264286513E+00  0.31886052149E+02  0.00000000000E+00 0. -1.
         11    1    3    3    0    0  0.10613987841E+02 -0.23781353100E+02 -0.16988458308E+02  0.31093684392E+02  0.51100000000E-03 0. -1.
        -11    1    3    3    0    0  0.90086096387E+01  0.56417841492E+00 -0.97592729014E+00  0.90788644247E+01  0.51100000000E-03 0.  1.
        -12    1    3    3    0    0 -0.20916361037E+01 -0.34067656041E+01  0.18707028463E+02  0.19129399034E+02  0.00000000000E+00 0.  1.
</event>
<event>
 7    1  0.1134395E-011  0.5930195E+02  0.7816164E-02  0.1266605E+00
        -11   -1    0    0    0    0  0.00000000000E+00  0.00000000000E+00  0.45593999997E+02  0.45594000000E+02  0.51100000000E-03 0.  1.
         11   -1    0    0    0    0 -0.00000000000E+00 -0.00000000000E+00 -0.45593999997E+02  0.45594000000E+02  0.51100000000E-03 0. -1.
    9900012    2    1    2    0    0 -0.47560495886E+01 -0.21499905155E+02  0.23061970583E+02  0.59301946364E+02  0.50000004260E+02 0.  0.
         12    1    1    2    0    0  0.47560495886E+01  0.21499905155E+02 -0.23061970583E+02  0.31886053636E+02  0.00000000000E+00 0. -1.
         11    1    3    3    0    0 -0.13993802732E+02 -0.19881012181E+02  0.95051004598E+01  0.26104177736E+02  0.51100000000E-03 0. -1.
        -11    1    3    3    0    0 -0.30310268252E+01 -0.13119695646E+02  0.66556157853E+01  0.15020344843E+02  0.51100000000E-03 0.  1.
         12    1    3    3    0    0  0.12268779969E+02  0.11500802672E+02  0.69012543376E+01  0.18177423785E+02  0.00000000000E+00 0. -1.
</event>
<event>
 7    1  0.1134395E-011  0.5930195E+02  0.7816164E-02  0.1266605E+00
        -11   -1    0    0    0    0  0.00000000000E+00  0.00000000000E+00  0.45593999997E+02  0.45594000000E+02  0.51100000000E-03 0.  1.
         11   -1    0    0    0    0 -0.00000000000E+00 -0.00000000000E+00 -0.45593999997E+02  0.45594000000E+02  0.51100000000E-03 0. -1.
    9900012    2    1    2    0    0 -0.30900935120E+02 -0.12631694311E+01 -0.77625070845E+01  0.59301954392E+02  0.50000018901E+02 0.  0.
         12    1    1    2    0    0  0.30900935120E+02  0.12631694311E+01  0.77625070845E+01  0.31886045608E+02  0.00000000000E+00 0. -1.
         11    1    3    3    0    0  0.18310575763E+01  0.85417867185E+01 -0.92915572843E+01  0.12753349725E+02  0.51100000000E-03 0. -1.
        -11    1    3    3    0    0 -0.11245582833E+01 -0.61209386642E+01  0.11606417202E+02  0.13169640921E+02  0.51100000000E-03 0.  1.
        -12    1    3    3    0    0 -0.31607434413E+02 -0.36840174854E+01 -0.10077367002E+02  0.33378963745E+02  0.00000000000E+00 0.  1.
</event>
<event>
 7    1  0.1134395E-011  0.5930186E+02  0.7816164E-02  0.1266605E+00
        -11   -1    0    0    0    0  0.00000000000E+00  0.00000000000E+00  0.45593999997E+02  0.45594000000E+02  0.51100000000E-03 0. -1.
         11   -1    0    0    0    0 -0.00000000000E+00 -0.00000000000E+00 -0.45593999997E+02  0.45594000000E+02  0.51100000000E-03 0.  1.
    9900012    2    1    2    0    0 -0.24949460890E+01  0.30791132329E+02  0.78998450854E+01  0.59301856638E+02  0.49999840622E+02 0.  0.
         12    1    1    2    0    0  0.24949460890E+01 -0.30791132329E+02 -0.78998450854E+01  0.31886143362E+02  0.00000000000E+00 0. -1.
         11    1    3    3    0    0  0.48253617986E+01 -0.54809028512E+01 -0.10288713056E+01  0.73744822853E+01  0.51100000000E-03 0. -1.
        -11    1    3    3    0    0  0.94485355658E+01  0.29345556748E+02 -0.17431798592E+01  0.30878393765E+02  0.51100000000E-03 0.  1.
         12    1    3    3    0    0 -0.16768843453E+02  0.69264784324E+01  0.10671896250E+02  0.21048980588E+02  0.00000000000E+00 0. -1.
</event>
<event>
 7    1  0.1134395E-011  0.5930189E+02  0.7816164E-02  0.1266605E+00
        -11   -1    0    0    0    0  0.00000000000E+00  0.00000000000E+00  0.45593999997E+02  0.45594000000E+02  0.51100000000E-03 0.  1.
         11   -1    0    0    0    0 -0.00000000000E+00 -0.00000000000E+00 -0.45593999997E+02  0.45594000000E+02  0.51100000000E-03 0. -1.
    9900012    2    1    2    0    0  0.28662915720E+02 -0.35481206726E+00 -0.13965513967E+02  0.59301886885E+02  0.49999895786E+02 0.  0.
         12    1    1    2    0    0 -0.28662915720E+02  0.35481206726E+00  0.13965513967E+02  0.31886113115E+02  0.00000000000E+00 0. -1.
         11    1    3    3    0    0 -0.30223017178E+01 -0.15539263846E+02  0.24239744475E-01  0.15830464819E+02  0.51100000000E-03 0. -1.
        -11    1    3    3    0    0 -0.27795452336E+01 -0.11075517246E+01 -0.15623121070E+01  0.33754054437E+01  0.51100000000E-03 0.  1.
        -12    1    3    3    0    0  0.34464762672E+02  0.16292003503E+02 -0.12427441605E+02  0.40096016623E+02  0.00000000000E+00 0.  1.
</event>
<event>
 7    1  0.1134395E-011  0.5930197E+02  0.7816164E-02  0.1266605E+00
        -11   -1    0    0    0    0  0.00000000000E+00  0.00000000000E+00  0.45593999997E+02  0.45594000000E+02  0.51100000000E-03 0.  1.
         11   -1    0    0    0    0 -0.00000000000E+00 -0.00000000000E+00 -0.45593999997E+02  0.45594000000E+02  0.51100000000E-03 0. -1.
    9900012    2    1    2    0    0  0.29778419793E+02 -0.64595787513E+01 -0.93935350850E+01  0.59301969447E+02  0.50000046359E+02 0.  0.
         12    1    1    2    0    0 -0.29778419793E+02  0.64595787513E+01  0.93935350850E+01  0.31886030553E+02  0.00000000000E+00 0. -1.
         11    1    3    3    0    0  0.55208792559E+01 -0.89944891143E+01 -0.57984155307E+00  0.10569633800E+02  0.51100000000E-03 0. -1.
        -11    1    3    3    0    0  0.29818273060E+02  0.13194948816E+02  0.18524111213E+01  0.32659876144E+02  0.51100000000E-03 0.  1.
         12    1    3    3    0    0 -0.55607325221E+01 -0.10660038453E+02 -0.10666104653E+02  0.16072459503E+02  0.00000000000E+00 0. -1.
</event>
<event>
 7    1  0.1134395E-011  0.5930202E+02  0.7816164E-02  0.1266604E+00
        -11   -1    0    0    0    0  0.00000000000E+00  0.00000000000E+00  0.45593999997E+02  0.45594000000E+02  0.51100000000E-03 0. -1.
         11   -1    0    0    0    0 -0.00000000000E+00 -0.00000000000E+00 -0.45593999997E+02  0.45594000000E+02  0.51100000000E-03 0.  1.
    9900012    2    1    2    0    0  0.26072838311E+02 -0.18333430002E+02  0.89886754981E+00  0.59302023206E+02  0.50000144401E+02 0.  0.
         12    1    1    2    0    0 -0.26072838311E+02  0.18333430002E+02 -0.89886754981E+00  0.31885976794E+02  0.00000000000E+00 0. -1.
         11    1    3    3    0    0  0.55552214497E+01  0.22159499949E+01 -0.86463628620E+00  0.60430551796E+01  0.51100000000E-03 0. -1.
        -11    1    3    3    0    0  0.21690505658E+02 -0.15107467316E+01 -0.16155244154E+02  0.27087862694E+02  0.51100000000E-03 0.  1.
        -12    1    3    3    0    0 -0.11728887966E+01 -0.19038633265E+02  0.17918747990E+02  0.26171105332E+02  0.00000000000E+00 0.  1.
</event>
<event>
 7    1  0.1134395E-011  0.5930189E+02  0.7816164E-02  0.1266605E+00
        -11   -1    0    0    0    0  0.00000000000E+00  0.00000000000E+00  0.45593999997E+02  0.45594000000E+02  0.51100000000E-03 0. -1.
         11   -1    0    0    0    0 -0.00000000000E+00 -0.00000000000E+00 -0.45593999997E+02  0.45594000000E+02  0.51100000000E-03 0.  1.
    9900012    2    1    2    0    0  0.39718293253E+01  0.21016528196E+02 -0.23648554954E+02  0.59301889591E+02  0.49999900720E+02 0.  0.
         12    1    1    2    0    0 -0.39718293253E+01 -0.21016528196E+02  0.23648554954E+02  0.31886110409E+02  0.00000000000E+00 0. -1.
         11    1    3    3    0    0 -0.71754883026E+01  0.72963957476E+01  0.72727943288E+01  0.12554623089E+02  0.51100000000E-03 0. -1.
        -11    1    3    3    0    0 -0.67930516481E+01  0.86333488747E+01 -0.41539331844E+00  0.10993307753E+02  0.51100000000E-03 0.  1.
        -12    1    3    3    0    0  0.17940369276E+02  0.50867835738E+01 -0.30505955965E+02  0.35753958749E+02  0.00000000000E+00 0.  1.
</event>
<event>
 7    1  0.1134395E-011  0.5930222E+02  0.7816164E-02  0.1266604E+00
        -11   -1    0    0    0    0  0.00000000000E+00  0.00000000000E+00  0.45593999997E+02  0.45594000000E+02  0.51100000000E-03 0.  1.
         11   -1    0    0    0    0 -0.00000000000E+00 -0.00000000000E+00 -0.45593999997E+02  0.45594000000E+02  0.51100000000E-03 0. -1.
    9900012    2    1    2    0    0 -0.12761648451E+02 -0.93569445685E+01  0.27681955402E+02  0.59302223582E+02  0.50000509838E+02 0.  0.
         12    1    1    2    0    0  0.12761648451E+02  0.93569445685E+01 -0.27681955402E+02  0.31885776418E+02  0.00000000000E+00 0. -1.
         11    1    3    3    0    0  0.30116256718E+01 -0.13752890988E+01  0.22719695637E+02  0.22959657649E+02  0.51100000000E-03 0. -1.
        -11    1    3    3    0    0  0.36038700729E+00 -0.86370893459E+01  0.15012352286E+02  0.17323392063E+02  0.51100000000E-03 0.  1.
         12    1    3    3    0    0 -0.16133661130E+02  0.65543387619E+00 -0.10050092520E+02  0.19019173870E+02  0.00000000000E+00 0. -1.
</event>
<event>
 7    1  0.1134395E-011  0.5930199E+02  0.7816164E-02  0.1266605E+00
        -11   -1    0    0    0    0  0.00000000000E+00  0.00000000000E+00  0.45593999997E+02  0.45594000000E+02  0.51100000000E-03 0. -1.
         11   -1    0    0    0    0 -0.00000000000E+00 -0.00000000000E+00 -0.45593999997E+02  0.45594000000E+02  0.51100000000E-03 0.  1.
    9900012    2    1    2    0    0 -0.14359397510E+02 -0.22828943133E+02 -0.17010729265E+02  0.59301986584E+02  0.50000077613E+02 0.  0.
         12    1    1    2    0    0  0.14359397510E+02  0.22828943133E+02  0.17010729265E+02  0.31886013416E+02  0.00000000000E+00 0. -1.
         11    1    3    3    0    0  0.13064671322E+02  0.13546279853E+01 -0.19046270618E+01  0.13272085677E+02  0.51100000000E-03 0. -1.
        -11    1    3    3    0    0  0.31032016716E+01  0.12315862838E+01  0.45301493197E+00  0.33692563243E+01  0.51100000000E-03 0.  1.
        -12    1    3    3    0    0 -0.30527270503E+02 -0.25415157402E+02 -0.15559117135E+02  0.42660644583E+02  0.00000000000E+00 0.  1.
</event>
<event>
 7    1  0.1134395E-011  0.5930193E+02  0.7816164E-02  0.1266605E+00
        -11   -1    0    0    0    0  0.00000000000E+00  0.00000000000E+00  0.45593999997E+02  0.45594000000E+02  0.51100000000E-03 0. -1.
         11   -1    0    0    0    0 -0.00000000000E+00 -0.00000000000E+00 -0.45593999997E+02  0.45594000000E+02  0.51100000000E-03 0.  1.
    9900012    2    1    2    0    0  0.27819392847E+02  0.23386639115E+01  0.15405624577E+02  0.59301933515E+02  0.49999980827E+02 0.  0.
         12    1    1    2    0    0 -0.27819392847E+02 -0.23386639115E+01 -0.15405624577E+02  0.31886066485E+02  0.00000000000E+00 0. -1.
         11    1    3    3    0    0  0.69478394028E+01  0.12474918082E+02  0.23052032038E+02  0.27116272511E+02  0.51100000000E-03 0. -1.
        -11    1    3    3    0    0 -0.21554599516E+01  0.13171338250E+01  0.33664404099E+01  0.42087730291E+01  0.51100000000E-03 0.  1.
        -12    1    3    3    0    0  0.23027013396E+02 -0.11453387996E+02 -0.11012847871E+02  0.27976887975E+02  0.00000000000E+00 0.  1.
</event>
<event>
 7    1  0.1134395E-011  0.5930194E+02  0.7816164E-02  0.1266605E+00
        -11   -1    0    0    0    0  0.00000000000E+00  0.00000000000E+00  0.45593999997E+02  0.45594000000E+02  0.51100000000E-03 0.  1.
         11   -1    0    0    0    0 -0.00000000000E+00 -0.00000000000E+00 -0.45593999997E+02  0.45594000000E+02  0.51100000000E-03 0. -1.
    9900012    2    1    2    0    0  0.31055126369E+02  0.68200580007E+01 -0.24055289886E+01  0.59301942943E+02  0.49999998023E+02 0.  0.
         12    1    1    2    0    0 -0.31055126369E+02 -0.68200580007E+01  0.24055289886E+01  0.31886057057E+02  0.00000000000E+00 0. -1.
         11    1    3    3    0    0 -0.11776363416E+00 -0.30843255707E+01  0.12958879211E+01  0.33475749827E+01  0.51100000000E-03 0. -1.
        -11    1    3    3    0    0  0.33128177263E+02 -0.33952708459E+01  0.11896764344E+02  0.35362932500E+02  0.51100000000E-03 0.  1.
         12    1    3    3    0    0 -0.19552872606E+01  0.13299654417E+02 -0.15598181254E+02  0.20591435460E+02  0.00000000000E+00 0. -1.
</event>
<event>
 7    1  0.1134395E-011  0.5930200E+02  0.7816164E-02  0.1266605E+00
        -11   -1    0    0    0    0  0.00000000000E+00  0.00000000000E+00  0.45593999997E+02  0.45594000000E+02  0.51100000000E-03 0.  1.
         11   -1    0    0    0    0 -0.00000000000E+00 -0.00000000000E+00 -0.45593999997E+02  0.45594000000E+02  0.51100000000E-03 0. -1.
    9900012    2    1    2    0    0  0.15027722197E+02  0.26399452050E+02 -0.96929590599E+01  0.59302000591E+02  0.50000103158E+02 0.  0.
         12    1    1    2    0    0 -0.15027722197E+02 -0.26399452050E+02  0.96929590599E+01  0.31885999409E+02  0.00000000000E+00 0. -1.
         11    1    3    3    0    0  0.77888957901E+01  0.90680345157E+01 -0.12752834048E+02  0.17479442901E+02  0.51100000000E-03 0. -1.
        -11    1    3    3    0    0 -0.10587123112E+02  0.17671751960E+02 -0.64877403382E+01  0.21597888047E+02  0.51100000000E-03 0.  1.
         12    1    3    3    0    0  0.17825949519E+02 -0.34033442612E+00  0.95476153258E+01  0.20224669643E+02  0.00000000000E+00 0. -1.
</event>
<event>
 7    1  0.1134395E-011  0.5930196E+02  0.7816164E-02  0.1266605E+00
        -11   -1    0    0    0    0  0.00000000000E+00  0.00000000000E+00  0.45593999997E+02  0.45594000000E+02  0.51100000000E-03 0. -1.
         11   -1    0    0    0    0 -0.00000000000E+00 -0.00000000000E+00 -0.45593999997E+02  0.45594000000E+02  0.51100000000E-03 0.  1.
    9900012    2    1    2    0    0  0.18716900973E+02 -0.13221029138E+02 -0.22172084094E+02  0.59301963768E+02  0.50000036002E+02 0.  0.
         12    1    1    2    0    0 -0.18716900973E+02  0.13221029138E+02  0.22172084094E+02  0.31886036232E+02  0.00000000000E+00 0. -1.
         11    1    3    3    0    0 -0.45136641207E+01  0.86803820628E+01 -0.14905231866E+01  0.98966588393E+01  0.51100000000E-03 0. -1.
        -11    1    3    3    0    0 -0.38450618488E+00 -0.88982306089E+00  0.71947510970E+01  0.72597571375E+01  0.51100000000E-03 0.  1.
        -12    1    3    3    0    0  0.23615071279E+02 -0.21011588140E+02 -0.27876312004E+02  0.42145547791E+02  0.00000000000E+00 0.  1.
</event>
<event>
 7    1  0.1134395E-011  0.5930196E+02  0.7816164E-02  0.1266605E+00
        -11   -1    0    0    0    0  0.00000000000E+00  0.00000000000E+00  0.45593999997E+02  0.45594000000E+02  0.51100000000E-03 0.  1.
         11   -1    0    0    0    0 -0.00000000000E+00 -0.00000000000E+00 -0.45593999997E+02  0.45594000000E+02  0.51100000000E-03 0. -1.
    9900012    2    1    2    0    0  0.95542754536E+01 -0.23988871153E+02  0.18707469458E+02  0.59301960231E+02  0.50000029551E+02 0.  0.
         12    1    1    2    0    0 -0.95542754536E+01  0.23988871153E+02 -0.18707469458E+02  0.31886039769E+02  0.00000000000E+00 0. -1.
         11    1    3    3    0    0 -0.98927813926E+01 -0.16884982411E+02  0.13380555743E+02  0.23706729571E+02  0.51100000000E-03 0. -1.
        -11    1    3    3    0    0  0.24291001099E+01  0.92733099046E+01  0.70720714492E+01  0.11912556349E+02  0.51100000000E-03 0.  1.
        -12    1    3    3    0    0  0.17017956736E+02 -0.16377198647E+02 -0.17451577349E+01  0.23682674311E+02  0.00000000000E+00 0.  1.
</event>
<event>
 7    1  0.1134395E-011  0.5930193E+02  0.7816164E-02  0.1266605E+00
        -11   -1    0    0    0    0  0.00000000000E+00  0.00000000000E+00  0.45593999997E+02  0.45594000000E+02  0.51100000000E-03 0.  1.
         11   -1    0    0    0    0 -0.00000000000E+00 -0.00000000000E+00 -0.45593999997E+02  0.45594000000E+02  0.51100000000E-03 0. -1.
    9900012    2    1    2    0    0  0.19799032603E+02 -0.10191687194E+02  0.22822124935E+02  0.59301928332E+02  0.49999971374E+02 0.  0.
         12    1    1    2    0    0 -0.19799032603E+02  0.10191687194E+02 -0.22822124935E+02  0.31886071668E+02  0.00000000000E+00 0. -1.
         11    1    3    3    0    0 -0.10211029025E+02  0.22164162133E+01  0.54466520506E+01  0.11783192836E+02  0.51100000000E-03 0. -1.
        -11    1    3    3    0    0  0.23013688346E+02  0.49813538895E+01  0.16503579649E+02  0.28754336705E+02  0.51100000000E-03 0.  1.
        -12    1    3    3    0    0  0.69963732818E+01 -0.17389457297E+02  0.87189323555E+00  0.18764398791E+02  0.00000000000E+00 0.  1.
</event>
<event>
 7    1  0.1134395E-011  0.5930190E+02  0.7816164E-02  0.1266605E+00
        -11   -1    0    0    0    0  0.00000000000E+00  0.00000000000E+00  0.45593999997E+02  0.45594000000E+02  0.51100000000E-03 0.  1.
         11   -1    0    0    0    0 -0.00000000000E+00 -0.00000000000E+00 -0.45593999997E+02  0.45594000000E+02  0.51100000000E-03 0. -1.
    9900012    2    1    2    0    0 -0.19469541552E+02 -0.27214084784E+01  0.25104861000E+02  0.59301903372E+02  0.49999925854E+02 0.  0.
         12    1    1    2    0    0  0.19469541552E+02  0.27214084784E+01 -0.25104861000E+02  0.31886096628E+02  0.00000000000E+00 0. -1.
         11    1    3    3    0    0 -0.10735169274E+02 -0.14113339423E+02 -0.44289301764E+00  0.17737710210E+02  0.51100000000E-03 0. -1.
        -11    1    3    3    0    0 -0.16700521932E+02  0.72013673769E+01  0.45929963623E+01  0.18758004711E+02  0.51100000000E-03 0.  1.
        -12    1    3    3    0    0  0.79661496540E+01  0.41905635674E+01  0.20954757655E+02  0.22806188452E+02  0.00000000000E+00 0.  1.
</event>
<event>
 7    1  0.1134395E-011  0.5930194E+02  0.7816164E-02  0.1266605E+00
        -11   -1    0    0    0    0  0.00000000000E+00  0.00000000000E+00  0.45593999997E+02  0.45594000000E+02  0.51100000000E-03 0.  1.
         11   -1    0    0    0    0 -0.00000000000E+00 -0.00000000000E+00 -0.45593999997E+02  0.45594000000E+02  0.51100000000E-03 0. -1.
    9900012    2    1    2    0    0  0.30676260375E+02 -0.57626243043E+01  0.65176785420E+01  0.59301938420E+02  0.49999989773E+02 0.  0.
         12    1    1    2    0    0 -0.30676260375E+02  0.57626243043E+01 -0.65176785420E+01  0.31886061580E+02  0.00000000000E+00 0. -1.
         11    1    3    3    0    0  0.98951154198E+01  0.82123582105E+01 -0.20251206881E+01  0.13017574682E+02  0.51100000000E-03 0. -1.
        -11    1    3    3    0    0  0.25089995303E+02 -0.56153371050E+01 -0.82800692634E+01  0.27011098134E+02  0.51100000000E-03 0.  1.
        -12    1    3    3    0    0 -0.43088503479E+01 -0.83596454098E+01  0.16822868493E+02  0.19273265604E+02  0.00000000000E+00 0.  1.
</event>
<event>
 7    1  0.1134395E-011  0.5930191E+02  0.7816164E-02  0.1266605E+00
        -11   -1    0    0    0    0  0.00000000000E+00  0.00000000000E+00  0.45593999997E+02  0.45594000000E+02  0.51100000000E-03 0. -1.
         11   -1    0    0    0    0 -0.00000000000E+00 -0.00000000000E+00 -0.45593999997E+02  0.45594000000E+02  0.51100000000E-03 0.  1.
    9900012    2    1    2    0    0  0.12823197994E+02 -0.67750640872E+01 -0.28396950977E+02  0.59301910165E+02  0.49999938243E+02 0.  0.
         12    1    1    2    0    0 -0.12823197994E+02  0.67750640872E+01  0.28396950977E+02  0.31886089835E+02  0.00000000000E+00 0. -1.
         11    1    3    3    0    0  0.71599291938E+01 -0.14383035712E+02  0.15456627502E+01  0.16140798492E+02  0.51100000000E-03 0. -1.
        -11    1    3    3    0    0  0.10015720274E+01 -0.69075285330E+01 -0.26669895725E+02  0.27568105397E+02  0.51100000000E-03 0.  1.
         12    1    3    3    0    0  0.46616967725E+01  0.14515500158E+02 -0.32727180019E+01  0.15593006277E+02  0.00000000000E+00 0. -1.
</event>
<event>
 7    1  0.1134395E-011  0.5930195E+02  0.7816164E-02  0.1266605E+00
        -11   -1    0    0    0    0  0.00000000000E+00  0.00000000000E+00  0.45593999997E+02  0.45594000000E+02  0.51100000000E-03 0.  1.
         11   -1    0    0    0    0 -0.00000000000E+00 -0.00000000000E+00 -0.45593999997E+02  0.45594000000E+02  0.51100000000E-03 0. -1.
    9900012    2    1    2    0    0  0.17521710049E+02  0.24926714270E+02  0.94004734074E+01  0.59301948071E+02  0.50000007374E+02 0.  0.
         12    1    1    2    0    0 -0.17521710049E+02 -0.24926714270E+02 -0.94004734074E+01  0.31886051929E+02  0.00000000000E+00 0. -1.
         11    1    3    3    0    0  0.13898766976E+02 -0.39912969954E+01  0.42612993397E+01  0.15075305883E+02  0.51100000000E-03 0. -1.
        -11    1    3    3    0    0 -0.47311446009E+01  0.55958516167E+01  0.15677158957E+02  0.17305218802E+02  0.51100000000E-03 0.  1.
         12    1    3    3    0    0  0.83540876739E+01  0.23322159649E+02 -0.10537984890E+02  0.26921423385E+02  0.00000000000E+00 0. -1.
</event>
<event>
 7    1  0.1134395E-011  0.5930198E+02  0.7816164E-02  0.1266605E+00
        -11   -1    0    0    0    0  0.00000000000E+00  0.00000000000E+00  0.45593999997E+02  0.45594000000E+02  0.51100000000E-03 0.  1.
         11   -1    0    0    0    0 -0.00000000000E+00 -0.00000000000E+00 -0.45593999997E+02  0.45594000000E+02  0.51100000000E-03 0. -1.
    9900012    2    1    2    0    0 -0.11339524327E+02  0.14214934302E+02  0.26192923339E+02  0.59301977949E+02  0.50000061865E+02 0.  0.
         12    1    1    2    0    0  0.11339524327E+02 -0.14214934302E+02 -0.26192923339E+02  0.31886022051E+02  0.00000000000E+00 0. -1.
         11    1    3    3    0    0 -0.21280577279E+02 -0.72781967363E+01  0.76476698300E+01  0.23755461922E+02  0.51100000000E-03 0. -1.
        -11    1    3    3    0    0 -0.53326683448E+01  0.32498153845E+01  0.19664764053E+01  0.65471888183E+01  0.51100000000E-03 0.  1.
        -12    1    3    3    0    0  0.15273721297E+02  0.18243315654E+02  0.16578777104E+02  0.28999327209E+02  0.00000000000E+00 0.  1.
</event>
<event>
 7    1  0.1134395E-011  0.5930195E+02  0.7816164E-02  0.1266605E+00
        -11   -1    0    0    0    0  0.00000000000E+00  0.00000000000E+00  0.45593999997E+02  0.45594000000E+02  0.51100000000E-03 0.  1.
         11   -1    0    0    0    0 -0.00000000000E+00 -0.00000000000E+00 -0.45593999997E+02  0.45594000000E+02  0.51100000000E-03 0. -1.
    9900012    2    1    2    0    0 -0.74699244718E+01  0.20349112994E+02  0.23384476632E+02  0.59301954171E+02  0.50000018499E+02 0.  0.
         12    1    1    2    0    0  0.74699244718E+01 -0.20349112994E+02 -0.23384476632E+02  0.31886045829E+02  0.00000000000E+00 0. -1.
         11    1    3    3    0    0  0.70751185171E+01  0.88525680038E+01  0.93864090725E+01  0.14714956263E+02  0.51100000000E-03 0. -1.
        -11    1    3    3    0    0 -0.12910805124E+02  0.23594440333E+02  0.17251534080E+02  0.31953120849E+02  0.51100000000E-03 0.  1.
         12    1    3    3    0    0 -0.16342378645E+01 -0.12097895343E+02 -0.32534665212E+01  0.12633877059E+02  0.00000000000E+00 0. -1.
</event>
<event>
 7    1  0.1134395E-011  0.5930191E+02  0.7816164E-02  0.1266605E+00
        -11   -1    0    0    0    0  0.00000000000E+00  0.00000000000E+00  0.45593999997E+02  0.45594000000E+02  0.51100000000E-03 0. -1.
         11   -1    0    0    0    0 -0.00000000000E+00 -0.00000000000E+00 -0.45593999997E+02  0.45594000000E+02  0.51100000000E-03 0.  1.
    9900012    2    1    2    0    0 -0.30546031166E+02 -0.72416277014E+01  0.55876110861E+01  0.59301912291E+02  0.49999942120E+02 0.  0.
         12    1    1    2    0    0  0.30546031166E+02  0.72416277014E+01 -0.55876110861E+01  0.31886087709E+02  0.00000000000E+00 0. -1.
         11    1    3    3    0    0 -0.13288796609E+02 -0.47320930976E+01 -0.85394785903E+01  0.16489618409E+02  0.51100000000E-03 0. -1.
        -11    1    3    3    0    0 -0.10388589496E+02  0.16729612215E+02  0.43627730370E+01  0.20170188532E+02  0.51100000000E-03 0.  1.
         12    1    3    3    0    0 -0.68686450610E+01 -0.19239146819E+02  0.97643166394E+01  0.22642105351E+02  0.00000000000E+00 0. -1.
</event>
<event>
 7    1  0.1134395E-011  0.5930196E+02  0.7816164E-02  0.1266605E+00
        -11   -1    0    0    0    0  0.00000000000E+00  0.00000000000E+00  0.45593999997E+02  0.45594000000E+02  0.51100000000E-03 0.  1.
         11   -1    0    0    0    0 -0.00000000000E+00 -0.00000000000E+00 -0.45593999997E+02  0.45594000000E+02  0.51100000000E-03 0. -1.
    9900012    2    1    2    0    0 -0.22020164799E+02 -0.22777822046E+02  0.36059666637E+01  0.59301955552E+02  0.50000021017E+02 0.  0.
         12    1    1    2    0    0  0.22020164799E+02  0.22777822046E+02 -0.36059666637E+01  0.31886044448E+02  0.00000000000E+00 0. -1.
         11    1    3    3    0    0 -0.16729362373E+02 -0.11563291903E+02 -0.94985462728E+01  0.22445571202E+02  0.51100000000E-03 0. -1.
        -11    1    3    3    0    0 -0.96554012703E+01  0.86643535022E+01  0.63643277218E+00  0.12988565827E+02  0.51100000000E-03 0.  1.
        -12    1    3    3    0    0  0.43645988440E+01 -0.19878883645E+02  0.12468080164E+02  0.23867818523E+02  0.00000000000E+00 0.  1.
</event>
<event>
 7    1  0.1134395E-011  0.5930195E+02  0.7816164E-02  0.1266605E+00
        -11   -1    0    0    0    0  0.00000000000E+00  0.00000000000E+00  0.45593999997E+02  0.45594000000E+02  0.51100000000E-03 0.  1.
         11   -1    0    0    0    0 -0.00000000000E+00 -0.00000000000E+00 -0.45593999997E+02  0.45594000000E+02  0.51100000000E-03 0. -1.
    9900012    2    1    2    0    0 -0.88563493242E+01 -0.23606228706E+02  0.19520021727E+02  0.59301949675E+02  0.50000010300E+02 0.  0.
         12    1    1    2    0    0  0.88563493242E+01  0.23606228706E+02 -0.19520021727E+02  0.31886050325E+02  0.00000000000E+00 0. -1.
         11    1    3    3    0    0 -0.73061434078E+01 -0.58173067108E+01 -0.25063660850E+01  0.96696773512E+01  0.51100000000E-03 0. -1.
        -11    1    3    3    0    0 -0.53261340754E+01 -0.18169735169E+02 -0.71282765773E+01  0.20231641246E+02  0.51100000000E-03 0.  1.
        -12    1    3    3    0    0  0.37759281590E+01  0.38081317305E+00  0.29154664389E+02  0.29400631078E+02  0.00000000000E+00 0.  1.
</event>
<event>
 7    1  0.1134395E-011  0.5930195E+02  0.7816164E-02  0.1266605E+00
        -11   -1    0    0    0    0  0.00000000000E+00  0.00000000000E+00  0.45593999997E+02  0.45594000000E+02  0.51100000000E-03 0. -1.
         11   -1    0    0    0    0 -0.00000000000E+00 -0.00000000000E+00 -0.45593999997E+02  0.45594000000E+02  0.51100000000E-03 0.  1.
    9900012    2    1    2    0    0 -0.36602849155E+01  0.76205333567E+01 -0.30744918714E+02  0.59301949115E+02  0.50000009279E+02 0.  0.
         12    1    1    2    0    0  0.36602849155E+01 -0.76205333567E+01  0.30744918714E+02  0.31886050885E+02  0.00000000000E+00 0. -1.
         11    1    3    3    0    0  0.78835397148E+01 -0.11505843725E+02 -0.31731437887E+01  0.14303967283E+02  0.51100000000E-03 0. -1.
        -11    1    3    3    0    0  0.35097297814E+01 -0.54351361565E+01 -0.29874574723E+01  0.71262760674E+01  0.51100000000E-03 0.  1.
        -12    1    3    3    0    0 -0.15053554412E+02  0.24561513238E+02 -0.24584317453E+02  0.37871705765E+02  0.00000000000E+00 0.  1.
</event>
<event>
 7    1  0.1134395E-011  0.5930193E+02  0.7816164E-02  0.1266605E+00
        -11   -1    0    0    0    0  0.00000000000E+00  0.00000000000E+00  0.45593999997E+02  0.45594000000E+02  0.51100000000E-03 0. -1.
         11   -1    0    0    0    0 -0.00000000000E+00 -0.00000000000E+00 -0.45593999997E+02  0.45594000000E+02  0.51100000000E-03 0.  1.
    9900012    2    1    2    0    0  0.33693446468E+01  0.30940883571E+02 -0.69304119506E+01  0.59301931423E+02  0.49999977012E+02 0.  0.
         12    1    1    2    0    0 -0.33693446468E+01 -0.30940883571E+02  0.69304119506E+01  0.31886068577E+02  0.00000000000E+00 0. -1.
         11    1    3    3    0    0  0.12943833362E+02  0.91456717124E+01 -0.23267536858E+02  0.28152520400E+02  0.51100000000E-03 0.  1.
        -11    1    3    3    0    0 -0.33257169049E+01  0.16513492882E+02  0.58149054018E+01  0.17820464786E+02  0.51100000000E-03 0. -1.
        -12    1    3    3    0    0 -0.62487718102E+01  0.52817189769E+01  0.10522219505E+02  0.13328946238E+02  0.00000000000E+00 0.  1.
</event>
<event>
 7    1  0.1134395E-011  0.5930198E+02  0.7816164E-02  0.1266605E+00
        -11   -1    0    0    0    0  0.00000000000E+00  0.00000000000E+00  0.45593999997E+02  0.45594000000E+02  0.51100000000E-03 0. -1.
         11   -1    0    0    0    0 -0.00000000000E+00 -0.00000000000E+00 -0.45593999997E+02  0.45594000000E+02  0.51100000000E-03 0.  1.
    9900012    2    1    2    0    0  0.26324839014E+02 -0.17333574492E+02 -0.48237542882E+01  0.59301975487E+02  0.50000057375E+02 0.  0.
         12    1    1    2    0    0 -0.26324839014E+02  0.17333574492E+02  0.48237542882E+01  0.31886024513E+02  0.00000000000E+00 0. -1.
         11    1    3    3    0    0  0.10468462776E+02  0.32224474903E+01 -0.12722199752E+02  0.16787711205E+02  0.51100000000E-03 0. -1.
        -11    1    3    3    0    0  0.16586936246E+02  0.40340334607E+01  0.17732654737E+01  0.17162294447E+02  0.51100000000E-03 0.  1.
         12    1    3    3    0    0 -0.73056000747E+00 -0.24590055443E+02  0.61251799900E+01  0.25351969835E+02  0.00000000000E+00 0. -1.
</event>
<event>
 7    1  0.1134395E-011  0.5930196E+02  0.7816164E-02  0.1266605E+00
        -11   -1    0    0    0    0  0.00000000000E+00  0.00000000000E+00  0.45593999997E+02  0.45594000000E+02  0.51100000000E-03 0. -1.
         11   -1    0    0    0    0 -0.00000000000E+00 -0.00000000000E+00 -0.45593999997E+02  0.45594000000E+02  0.51100000000E-03 0.  1.
    9900012    2    1    2    0    0  0.97890145350E+01 -0.36016759484E+01 -0.30131756968E+02  0.59301958333E+02  0.50000026090E+02 0.  0.
         12    1    1    2    0    0 -0.97890145350E+01  0.36016759484E+01  0.30131756968E+02  0.31886041667E+02  0.00000000000E+00 0. -1.
         11    1    3    3    0    0 -0.46646301516E+01  0.81937520476E+00 -0.20066516627E+02  0.20617837907E+02  0.51100000000E-03 0. -1.
        -11    1    3    3    0    0 -0.48563743418E+01  0.36034997460E+01 -0.15869382415E+02  0.16982546353E+02  0.51100000000E-03 0.  1.
         12    1    3    3    0    0  0.19310019028E+02 -0.80245508992E+01  0.58041420734E+01  0.21701574072E+02  0.00000000000E+00 0. -1.
</event>
<event>
 7    1  0.1134395E-011  0.5930194E+02  0.7816164E-02  0.1266605E+00
        -11   -1    0    0    0    0  0.00000000000E+00  0.00000000000E+00  0.45593999997E+02  0.45594000000E+02  0.51100000000E-03 0. -1.
         11   -1    0    0    0    0 -0.00000000000E+00 -0.00000000000E+00 -0.45593999997E+02  0.45594000000E+02  0.51100000000E-03 0.  1.
    9900012    2    1    2    0    0 -0.30173457490E+02  0.81140059766E+01 -0.63597109357E+01  0.59301944222E+02  0.50000000355E+02 0.  0.
         12    1    1    2    0    0  0.30173457490E+02 -0.81140059766E+01  0.63597109357E+01  0.31886055778E+02  0.00000000000E+00 0. -1.
         11    1    3    3    0    0 -0.26376835952E+02  0.22100769139E+01 -0.15712375039E+02  0.30781498411E+02  0.51100000000E-03 0. -1.
        -11    1    3    3    0    0 -0.25700222150E+01 -0.77471540003E+01 -0.42565272651E+01  0.92055110618E+01  0.51100000000E-03 0.  1.
         12    1    3    3    0    0 -0.12265993229E+01  0.13651083063E+02  0.13609191368E+02  0.19314934750E+02  0.00000000000E+00 0. -1.
</event>
<event>
 7    1  0.1134395E-011  0.5930192E+02  0.7816164E-02  0.1266605E+00
        -11   -1    0    0    0    0  0.00000000000E+00  0.00000000000E+00  0.45593999997E+02  0.45594000000E+02  0.51100000000E-03 0.  1.
         11   -1    0    0    0    0 -0.00000000000E+00 -0.00000000000E+00 -0.45593999997E+02  0.45594000000E+02  0.51100000000E-03 0. -1.
    9900012    2    1    2    0    0 -0.22489053268E+02  0.51244044923E+01  0.22016015132E+02  0.59301922151E+02  0.49999960103E+02 0.  0.
         12    1    1    2    0    0  0.22489053268E+02 -0.51244044923E+01 -0.22016015132E+02  0.31886077849E+02  0.00000000000E+00 0. -1.
         11    1    3    3    0    0 -0.14133360287E+02  0.16361378896E+02  0.60383896360E+00  0.21628943898E+02  0.51100000000E-03 0. -1.
        -11    1    3    3    0    0 -0.16234700913E+02  0.11539964543E+01  0.12171977239E+02  0.20323736165E+02  0.51100000000E-03 0.  1.
         12    1    3    3    0    0  0.78790079317E+01 -0.12390970858E+02  0.92401989295E+01  0.17349242089E+02  0.00000000000E+00 0. -1.
</event>
<event>
 7    1  0.1134395E-011  0.5930194E+02  0.7816164E-02  0.1266605E+00
        -11   -1    0    0    0    0  0.00000000000E+00  0.00000000000E+00  0.45593999997E+02  0.45594000000E+02  0.51100000000E-03 0. -1.
         11   -1    0    0    0    0 -0.00000000000E+00 -0.00000000000E+00 -0.45593999997E+02  0.45594000000E+02  0.51100000000E-03 0.  1.
    9900012    2    1    2    0    0  0.42897959243E+01 -0.20107260089E+01 -0.31532134575E+02  0.59301939111E+02  0.49999991033E+02 0.  0.
         12    1    1    2    0    0 -0.42897959243E+01  0.20107260089E+01  0.31532134575E+02  0.31886060889E+02  0.00000000000E+00 0. -1.
         11    1    3    3    0    0  0.82856951905E+01 -0.31571798258E+01 -0.99794162815E+01  0.13349504816E+02  0.51100000000E-03 0. -1.
        -11    1    3    3    0    0  0.17237441811E+02 -0.58621619901E+01 -0.10344082580E+02  0.20940257593E+02  0.51100000000E-03 0.  1.
        -12    1    3    3    0    0 -0.21233341077E+02  0.70086158070E+01 -0.11208635713E+02  0.25012176702E+02  0.00000000000E+00 0.  1.
</event>
<event>
 7    1  0.1134395E-011  0.5930196E+02  0.7816164E-02  0.1266605E+00
        -11   -1    0    0    0    0  0.00000000000E+00  0.00000000000E+00  0.45593999997E+02  0.45594000000E+02  0.51100000000E-03 0.  1.
         11   -1    0    0    0    0 -0.00000000000E+00 -0.00000000000E+00 -0.45593999997E+02  0.45594000000E+02  0.51100000000E-03 0. -1.
    9900012    2    1    2    0    0  0.27326792058E+02 -0.49816669155E+01  0.15657240632E+02  0.59301956758E+02  0.50000023217E+02 0.  0.
         12    1    1    2    0    0 -0.27326792058E+02  0.49816669155E+01 -0.15657240632E+02  0.31886043242E+02  0.00000000000E+00 0. -1.
         11    1    3    3    0    0  0.19831395307E+01  0.12620133539E+02 -0.16521091048E+01  0.12881384929E+02  0.51100000000E-03 0.  1.
        -11    1    3    3    0    0  0.24640677228E+02 -0.11035586388E+01  0.35365228831E+01  0.24917620478E+02  0.51100000000E-03 0. -1.
        -12    1    3    3    0    0  0.70297529892E+00 -0.16498241815E+02  0.13772826854E+02  0.21502951351E+02  0.00000000000E+00 0.  1.
</event>
<event>
 7    1  0.1134395E-011  0.5930199E+02  0.7816164E-02  0.1266605E+00
        -11   -1    0    0    0    0  0.00000000000E+00  0.00000000000E+00  0.45593999997E+02  0.45594000000E+02  0.51100000000E-03 0.  1.
         11   -1    0    0    0    0 -0.00000000000E+00 -0.00000000000E+00 -0.45593999997E+02  0.45594000000E+02  0.51100000000E-03 0. -1.
    9900012    2    1    2    0    0  0.38485917798E+01 -0.24281879571E+02  0.20305077781E+02  0.59301991817E+02  0.50000087155E+02 0.  0.
         12    1    1    2    0    0 -0.38485917798E+01  0.24281879571E+02 -0.20305077781E+02  0.31886008183E+02  0.00000000000E+00 0. -1.
         11    1    3    3    0    0  0.30158715010E+01 -0.26915319713E+02 -0.45313130589E+01  0.27460202375E+02  0.51100000000E-03 0. -1.
        -11    1    3    3    0    0 -0.23762331898E+01 -0.40434932631E+01 -0.11426196410E+01  0.48272043510E+01  0.51100000000E-03 0.  1.
        -12    1    3    3    0    0  0.32089534686E+01  0.66769334054E+01  0.25979010481E+02  0.27014585091E+02  0.00000000000E+00 0.  1.
</event>
<event>
 7    1  0.1134395E-011  0.5930187E+02  0.7816164E-02  0.1266605E+00
        -11   -1    0    0    0    0  0.00000000000E+00  0.00000000000E+00  0.45593999997E+02  0.45594000000E+02  0.51100000000E-03 0.  1.
         11   -1    0    0    0    0 -0.00000000000E+00 -0.00000000000E+00 -0.45593999997E+02  0.45594000000E+02  0.51100000000E-03 0. -1.
    9900012    2    1    2    0    0 -0.25071864000E+02  0.19699364162E+02  0.24950873391E+00  0.59301865593E+02  0.49999856954E+02 0.  0.
         12    1    1    2    0    0  0.25071864000E+02 -0.19699364162E+02 -0.24950873391E+00  0.31886134407E+02  0.00000000000E+00 0. -1.
         11    1    3    3    0    0 -0.10442551434E+02 -0.82529876677E+01  0.61412943986E+01  0.14658587348E+02  0.51100000000E-03 0. -1.
        -11    1    3    3    0    0 -0.43001563600E+01  0.17917285066E+01 -0.14499622301E+02  0.15229598908E+02  0.51100000000E-03 0.  1.
        -12    1    3    3    0    0 -0.10329156205E+02  0.26160623323E+02  0.86078366361E+01  0.29413679337E+02  0.00000000000E+00 0.  1.
</event>
<event>
 7    1  0.1134395E-011  0.5930196E+02  0.7816164E-02  0.1266605E+00
        -11   -1    0    0    0    0  0.00000000000E+00  0.00000000000E+00  0.45593999997E+02  0.45594000000E+02  0.51100000000E-03 0.  1.
         11   -1    0    0    0    0 -0.00000000000E+00 -0.00000000000E+00 -0.45593999997E+02  0.45594000000E+02  0.51100000000E-03 0. -1.
    9900012    2    1    2    0    0 -0.27161715373E+02  0.77934589105E+00  0.16683927838E+02  0.59301959008E+02  0.50000027321E+02 0.  0.
         12    1    1    2    0    0  0.27161715373E+02 -0.77934589105E+00 -0.16683927838E+02  0.31886040992E+02  0.00000000000E+00 0. -1.
         11    1    3    3    0    0 -0.24034462645E+01  0.82005910442E+00  0.19943606605E+01  0.32290130979E+01  0.51100000000E-03 0. -1.
        -11    1    3    3    0    0 -0.12960954384E+02 -0.15869912686E+02  0.26168849353E+02  0.33236262484E+02  0.51100000000E-03 0.  1.
         12    1    3    3    0    0 -0.11797314725E+02  0.15829199473E+02 -0.11479282175E+02  0.22836683427E+02  0.00000000000E+00 0. -1.
</event>
<event>
 7    1  0.1134395E-011  0.5930196E+02  0.7816164E-02  0.1266605E+00
        -11   -1    0    0    0    0  0.00000000000E+00  0.00000000000E+00  0.45593999997E+02  0.45594000000E+02  0.51100000000E-03 0.  1.
         11   -1    0    0    0    0 -0.00000000000E+00 -0.00000000000E+00 -0.45593999997E+02  0.45594000000E+02  0.51100000000E-03 0. -1.
    9900012    2    1    2    0    0 -0.24013817724E+02 -0.18799081667E+02 -0.93086314061E+01  0.59301960235E+02  0.50000029559E+02 0.  0.
         12    1    1    2    0    0  0.24013817724E+02  0.18799081667E+02  0.93086314061E+01  0.31886039765E+02  0.00000000000E+00 0. -1.
         11    1    3    3    0    0 -0.21790650246E+01 -0.11107166941E+01 -0.12369964766E+02  0.12609442673E+02  0.51100000000E-03 0. -1.
        -11    1    3    3    0    0  0.24563463608E+01 -0.85820722810E+01 -0.13303013464E+02  0.16020479692E+02  0.51100000000E-03 0.  1.
        -12    1    3    3    0    0 -0.24291099061E+02 -0.91062926921E+01  0.16364346823E+02  0.30672037870E+02  0.00000000000E+00 0.  1.
</event>
<event>
 7    1  0.1134395E-011  0.5930194E+02  0.7816164E-02  0.1266605E+00
        -11   -1    0    0    0    0  0.00000000000E+00  0.00000000000E+00  0.45593999997E+02  0.45594000000E+02  0.51100000000E-03 0.  1.
         11   -1    0    0    0    0 -0.00000000000E+00 -0.00000000000E+00 -0.45593999997E+02  0.45594000000E+02  0.51100000000E-03 0. -1.
    9900012    2    1    2    0    0  0.19853217656E+02 -0.81182710515E+01  0.23593731956E+02  0.59301940918E+02  0.49999994329E+02 0.  0.
         12    1    1    2    0    0 -0.19853217656E+02  0.81182710515E+01 -0.23593731956E+02  0.31886059082E+02  0.00000000000E+00 0. -1.
         11    1    3    3    0    0  0.28250993864E+02 -0.42018138221E+01  0.19682458243E+02  0.34686785041E+02  0.51100000000E-03 0. -1.
        -11    1    3    3    0    0 -0.71869731539E+01  0.17455042338E+01  0.12341615254E+02  0.14388010129E+02  0.51100000000E-03 0.  1.
        -12    1    3    3    0    0 -0.12108030549E+01 -0.56619614631E+01 -0.84303415414E+01  0.10227145748E+02  0.00000000000E+00 0.  1.
</event>
<event>
 7    1  0.1134395E-011  0.5930194E+02  0.7816164E-02  0.1266605E+00
        -11   -1    0    0    0    0  0.00000000000E+00  0.00000000000E+00  0.45593999997E+02  0.45594000000E+02  0.51100000000E-03 0. -1.
         11   -1    0    0    0    0 -0.00000000000E+00 -0.00000000000E+00 -0.45593999997E+02  0.45594000000E+02  0.51100000000E-03 0.  1.
    9900012    2    1    2    0    0 -0.94876318981E+01  0.12685931963E+02 -0.27672596009E+02  0.59301943507E+02  0.49999999050E+02 0.  0.
         12    1    1    2    0    0  0.94876318981E+01 -0.12685931963E+02  0.27672596009E+02  0.31886056493E+02  0.00000000000E+00 0. -1.
         11    1    3    3    0    0 -0.48598438248E+00 -0.28146233963E+01 -0.55386630132E+01  0.62317793540E+01  0.51100000000E-03 0.  1.
        -11    1    3    3    0    0 -0.54998131498E+00  0.29117284974E+02 -0.48925415335E+01  0.29530589676E+02  0.51100000000E-03 0. -1.
         12    1    3    3    0    0 -0.84516662007E+01 -0.13616729615E+02 -0.17241391463E+02  0.23539574477E+02  0.00000000000E+00 0. -1.
</event>
<event>
 7    1  0.1134395E-011  0.5930198E+02  0.7816164E-02  0.1266605E+00
        -11   -1    0    0    0    0  0.00000000000E+00  0.00000000000E+00  0.45593999997E+02  0.45594000000E+02  0.51100000000E-03 0. -1.
         11   -1    0    0    0    0 -0.00000000000E+00 -0.00000000000E+00 -0.45593999997E+02  0.45594000000E+02  0.51100000000E-03 0.  1.
    9900012    2    1    2    0    0 -0.30121927375E+02 -0.70235969705E+01 -0.77496416064E+01  0.59301978482E+02  0.50000062837E+02 0.  0.
         12    1    1    2    0    0  0.30121927375E+02  0.70235969705E+01  0.77496416064E+01  0.31886021518E+02  0.00000000000E+00 0. -1.
         11    1    3    3    0    0 -0.79449470692E+01  0.11729573763E+02  0.34106844048E+01  0.14571817078E+02  0.51100000000E-03 0. -1.
        -11    1    3    3    0    0 -0.12876804115E+02 -0.54011631834E+01 -0.21364847339E+02  0.25523349115E+02  0.51100000000E-03 0.  1.
         12    1    3    3    0    0 -0.93001761908E+01 -0.13352007550E+02  0.10204521328E+02  0.19206812289E+02  0.00000000000E+00 0. -1.
</event>
<event>
 7    1  0.1134395E-011  0.5930194E+02  0.7816164E-02  0.1266605E+00
        -11   -1    0    0    0    0  0.00000000000E+00  0.00000000000E+00  0.45593999997E+02  0.45594000000E+02  0.51100000000E-03 0. -1.
         11   -1    0    0    0    0 -0.00000000000E+00 -0.00000000000E+00 -0.45593999997E+02  0.45594000000E+02  0.51100000000E-03 0.  1.
    9900012    2    1    2    0    0 -0.10261436377E+02  0.55685422429E+01 -0.29671785604E+02  0.59301943484E+02  0.49999999008E+02 0.  0.
         12    1    1    2    0    0  0.10261436377E+02 -0.55685422429E+01  0.29671785604E+02  0.31886056516E+02  0.00000000000E+00 0. -1.
         11    1    3    3    0    0  0.10072922861E+02 -0.11898317746E+02 -0.21575149510E+02  0.26618054339E+02  0.51100000000E-03 0. -1.
        -11    1    3    3    0    0  0.17748976531E+01  0.31129344959E+01  0.23977627752E+01  0.43115994065E+01  0.51100000000E-03 0.  1.
        -12    1    3    3    0    0 -0.22109256891E+02  0.14353925493E+02 -0.10494398869E+02  0.28372289738E+02  0.00000000000E+00 0.  1.
</event>
<event>
 7    1  0.1134395E-011  0.5930194E+02  0.7816164E-02  0.1266605E+00
        -11   -1    0    0    0    0  0.00000000000E+00  0.00000000000E+00  0.45593999997E+02  0.45594000000E+02  0.51100000000E-03 0.  1.
         11   -1    0    0    0    0 -0.00000000000E+00 -0.00000000000E+00 -0.45593999997E+02  0.45594000000E+02  0.51100000000E-03 0. -1.
    9900012    2    1    2    0    0 -0.22169544303E+02  0.68642866335E+01  0.21865814907E+02  0.59301937416E+02  0.49999987941E+02 0.  0.
         12    1    1    2    0    0  0.22169544303E+02 -0.68642866335E+01 -0.21865814907E+02  0.31886062584E+02  0.00000000000E+00 0. -1.
         11    1    3    3    0    0 -0.35188180256E+01  0.28317534920E+01  0.16269830527E+02  0.16885150096E+02  0.51100000000E-03 0.  1.
        -11    1    3    3    0    0  0.87416826911E+01  0.16628656986E+01 -0.77992615323E+01  0.11832608306E+02  0.51100000000E-03 0. -1.
        -12    1    3    3    0    0 -0.27392408969E+02  0.23696674429E+01  0.13395245912E+02  0.30584179014E+02  0.00000000000E+00 0.  1.
</event>
<event>
 7    1  0.1134395E-011  0.5930194E+02  0.7816164E-02  0.1266605E+00
        -11   -1    0    0    0    0  0.00000000000E+00  0.00000000000E+00  0.45593999997E+02  0.45594000000E+02  0.51100000000E-03 0. -1.
         11   -1    0    0    0    0 -0.00000000000E+00 -0.00000000000E+00 -0.45593999997E+02  0.45594000000E+02  0.51100000000E-03 0.  1.
    9900012    2    1    2    0    0  0.24457766532E+02  0.19488012766E+02  0.62254360575E+01  0.59301936596E+02  0.49999986446E+02 0.  0.
         12    1    1    2    0    0 -0.24457766532E+02 -0.19488012766E+02 -0.62254360575E+01  0.31886063404E+02  0.00000000000E+00 0. -1.
         11    1    3    3    0    0  0.36530285678E+01  0.12847314370E+02  0.82399458725E+01  0.15693782606E+02  0.51100000000E-03 0. -1.
        -11    1    3    3    0    0 -0.66299147291E+01 -0.75226994816E+00  0.10596215478E+02  0.12522039055E+02  0.51100000000E-03 0.  1.
        -12    1    3    3    0    0  0.27434652693E+02  0.73929683448E+01 -0.12610725293E+02  0.31086114935E+02  0.00000000000E+00 0.  1.
</event>
<event>
 7    1  0.1134395E-011  0.5930196E+02  0.7816164E-02  0.1266605E+00
        -11   -1    0    0    0    0  0.00000000000E+00  0.00000000000E+00  0.45593999997E+02  0.45594000000E+02  0.51100000000E-03 0.  1.
         11   -1    0    0    0    0 -0.00000000000E+00 -0.00000000000E+00 -0.45593999997E+02  0.45594000000E+02  0.51100000000E-03 0. -1.
    9900012    2    1    2    0    0  0.12593743824E+01 -0.16248172451E+02  0.27406762954E+02  0.59301956228E+02  0.50000022250E+02 0.  0.
         12    1    1    2    0    0 -0.12593743824E+01  0.16248172451E+02 -0.27406762954E+02  0.31886043772E+02  0.00000000000E+00 0. -1.
         11    1    3    3    0    0  0.81859949755E+01 -0.10156927776E+02  0.28756030217E+02  0.31576620618E+02  0.51100000000E-03 0.  1.
        -11    1    3    3    0    0 -0.76787750960E+01  0.89336034059E+01  0.28231898254E+01  0.12113763158E+02  0.51100000000E-03 0. -1.
         12    1    3    3    0    0  0.75215450291E+00 -0.15024848081E+02 -0.41724570885E+01  0.15611572452E+02  0.00000000000E+00 0. -1.
</event>
<event>
 7    1  0.1134395E-011  0.5930191E+02  0.7816164E-02  0.1266605E+00
        -11   -1    0    0    0    0  0.00000000000E+00  0.00000000000E+00  0.45593999997E+02  0.45594000000E+02  0.51100000000E-03 0.  1.
         11   -1    0    0    0    0 -0.00000000000E+00 -0.00000000000E+00 -0.45593999997E+02  0.45594000000E+02  0.51100000000E-03 0. -1.
    9900012    2    1    2    0    0  0.26752706167E+02  0.11309992065E+02  0.13156718873E+02  0.59301914331E+02  0.49999945840E+02 0.  0.
         12    1    1    2    0    0 -0.26752706167E+02 -0.11309992065E+02 -0.13156718873E+02  0.31886085669E+02  0.00000000000E+00 0. -1.
         11    1    3    3    0    0  0.13963150524E+02  0.95249895841E+01 -0.31326350162E+00  0.16905417280E+02  0.51100000000E-03 0. -1.
        -11    1    3    3    0    0  0.33365991121E+01  0.18380947074E+02  0.13911469165E+02  0.23292081993E+02  0.51100000000E-03 0.  1.
         12    1    3    3    0    0  0.94529565314E+01 -0.16595944593E+02 -0.44148678981E+00  0.19104415058E+02  0.00000000000E+00 0. -1.
</event>
<event>
 7    1  0.1134395E-011  0.5930197E+02  0.7816164E-02  0.1266605E+00
        -11   -1    0    0    0    0  0.00000000000E+00  0.00000000000E+00  0.45593999997E+02  0.45594000000E+02  0.51100000000E-03 0.  1.
         11   -1    0    0    0    0 -0.00000000000E+00 -0.00000000000E+00 -0.45593999997E+02  0.45594000000E+02  0.51100000000E-03 0. -1.
    9900012    2    1    2    0    0 -0.46665725271E+01  0.29679250707E+02  0.10681016761E+02  0.59301969505E+02  0.50000046464E+02 0.  0.
         12    1    1    2    0    0  0.46665725271E+01 -0.29679250707E+02 -0.10681016761E+02  0.31886030495E+02  0.00000000000E+00 0. -1.
         11    1    3    3    0    0  0.78488996283E+00  0.41197499847E+01  0.82753153254E+01  0.92773507095E+01  0.51100000000E-03 0. -1.
        -11    1    3    3    0    0  0.44863853450E+00  0.22749288985E+02  0.20599211802E+02  0.30692978887E+02  0.51100000000E-03 0.  1.
         12    1    3    3    0    0 -0.59001010245E+01  0.28102117378E+01 -0.18193510366E+02  0.19331639908E+02  0.00000000000E+00 0. -1.
</event>
<event>
 7    1  0.1134395E-011  0.5930230E+02  0.7816164E-02  0.1266604E+00
        -11   -1    0    0    0    0  0.00000000000E+00  0.00000000000E+00  0.45593999997E+02  0.45594000000E+02  0.51100000000E-03 0.  1.
         11   -1    0    0    0    0 -0.00000000000E+00 -0.00000000000E+00 -0.45593999997E+02  0.45594000000E+02  0.51100000000E-03 0. -1.
    9900012    2    1    2    0    0 -0.21839247915E+01 -0.48648114870E+01  0.31436637092E+02  0.59302296778E+02  0.50000643327E+02 0.  0.
         12    1    1    2    0    0  0.21839247915E+01  0.48648114870E+01 -0.31436637092E+02  0.31885703222E+02  0.00000000000E+00 0. -1.
         11    1    3    3    0    0  0.17368952949E+02 -0.22018723999E+01  0.23021782506E+02  0.28922849767E+02  0.51100000000E-03 0. -1.
        -11    1    3    3    0    0  0.40307277072E+01 -0.40110748038E+00  0.50124598338E+01  0.64445641363E+01  0.51100000000E-03 0.  1.
         12    1    3    3    0    0 -0.23583605448E+02 -0.22618316067E+01  0.34023947520E+01  0.23934882874E+02  0.00000000000E+00 0. -1.
</event>
<event>
 7    1  0.1134395E-011  0.5930189E+02  0.7816164E-02  0.1266605E+00
        -11   -1    0    0    0    0  0.00000000000E+00  0.00000000000E+00  0.45593999997E+02  0.45594000000E+02  0.51100000000E-03 0. -1.
         11   -1    0    0    0    0 -0.00000000000E+00 -0.00000000000E+00 -0.45593999997E+02  0.45594000000E+02  0.51100000000E-03 0.  1.
    9900012    2    1    2    0    0 -0.31719483471E+02  0.30026648236E+01 -0.12578755853E+01  0.59301892074E+02  0.49999905249E+02 0.  0.
         12    1    1    2    0    0  0.31719483471E+02 -0.30026648236E+01  0.12578755853E+01  0.31886107926E+02  0.00000000000E+00 0. -1.
         11    1    3    3    0    0 -0.13953127220E+02 -0.12827648973E+02  0.27640955163E+01  0.19154074284E+02  0.51100000000E-03 0. -1.
        -11    1    3    3    0    0 -0.16722775265E+02  0.16337314722E+02  0.10465352127E+02  0.25614110570E+02  0.51100000000E-03 0.  1.
        -12    1    3    3    0    0 -0.10435809861E+01 -0.50700092556E+00 -0.14487323229E+02  0.14533707220E+02  0.00000000000E+00 0.  1.
</event>
<event>
 7    1  0.1134395E-011  0.5930198E+02  0.7816164E-02  0.1266605E+00
        -11   -1    0    0    0    0  0.00000000000E+00  0.00000000000E+00  0.45593999997E+02  0.45594000000E+02  0.51100000000E-03 0.  1.
         11   -1    0    0    0    0 -0.00000000000E+00 -0.00000000000E+00 -0.45593999997E+02  0.45594000000E+02  0.51100000000E-03 0. -1.
    9900012    2    1    2    0    0 -0.25712524945E+02 -0.18831226969E+02 -0.98443483875E+00  0.59301981745E+02  0.50000068787E+02 0.  0.
         12    1    1    2    0    0  0.25712524945E+02  0.18831226969E+02  0.98443483875E+00  0.31886018255E+02  0.00000000000E+00 0. -1.
         11    1    3    3    0    0 -0.10614240974E+02  0.12461111400E+01 -0.17474850327E+02  0.20483781356E+02  0.51100000000E-03 0. -1.
        -11    1    3    3    0    0 -0.19866868993E+02 -0.77556248919E+01  0.13597379353E+02  0.25292902691E+02  0.51100000000E-03 0.  1.
        -12    1    3    3    0    0  0.47685850216E+01 -0.12321713217E+02  0.28930361358E+01  0.13525297697E+02  0.00000000000E+00 0.  1.
</event>
<event>
 7    1  0.1134395E-011  0.5930212E+02  0.7816164E-02  0.1266604E+00
        -11   -1    0    0    0    0  0.00000000000E+00  0.00000000000E+00  0.45593999997E+02  0.45594000000E+02  0.51100000000E-03 0. -1.
         11   -1    0    0    0    0 -0.00000000000E+00 -0.00000000000E+00 -0.45593999997E+02  0.45594000000E+02  0.51100000000E-03 0.  1.
    9900012    2    1    2    0    0 -0.17657552096E+02 -0.26092676893E+02  0.49083794062E+01  0.59302123473E+02  0.50000327265E+02 0.  0.
         12    1    1    2    0    0  0.17657552096E+02  0.26092676893E+02 -0.49083794062E+01  0.31885876527E+02  0.00000000000E+00 0. -1.
         11    1    3    3    0    0 -0.17284062483E+01  0.59916370863E+01 -0.40784396064E+01  0.74512262761E+01  0.51100000000E-03 0. -1.
        -11    1    3    3    0    0  0.50707166040E+01 -0.15972800569E+02 -0.97810416961E+01  0.19403899140E+02  0.51100000000E-03 0.  1.
         12    1    3    3    0    0 -0.20999862452E+02 -0.16111513410E+02  0.18767860709E+02  0.32446998058E+02  0.00000000000E+00 0. -1.
</event>
<event>
 7    1  0.1134395E-011  0.5930195E+02  0.7816164E-02  0.1266605E+00
        -11   -1    0    0    0    0  0.00000000000E+00  0.00000000000E+00  0.45593999997E+02  0.45594000000E+02  0.51100000000E-03 0.  1.
         11   -1    0    0    0    0 -0.00000000000E+00 -0.00000000000E+00 -0.45593999997E+02  0.45594000000E+02  0.51100000000E-03 0. -1.
    9900012    2    1    2    0    0  0.68564112679E+01 -0.29150612978E+02  0.10952245505E+02  0.59301948284E+02  0.50000007762E+02 0.  0.
         12    1    1    2    0    0 -0.68564112679E+01  0.29150612978E+02 -0.10952245505E+02  0.31886051716E+02  0.00000000000E+00 0. -1.
         11    1    3    3    0    0  0.59347141398E+01 -0.13003568507E+01 -0.78733301671E+00  0.61263083012E+01  0.51100000000E-03 0. -1.
        -11    1    3    3    0    0  0.18073681422E+02 -0.22920364148E+02 -0.38970406808E+01  0.29448055609E+02  0.51100000000E-03 0.  1.
        -12    1    3    3    0    0 -0.17151984294E+02 -0.49298919788E+01  0.15636619202E+02  0.23727584374E+02  0.00000000000E+00 0.  1.
</event>
<event>
 7    1  0.1134395E-011  0.5930197E+02  0.7816164E-02  0.1266605E+00
        -11   -1    0    0    0    0  0.00000000000E+00  0.00000000000E+00  0.45593999997E+02  0.45594000000E+02  0.51100000000E-03 0. -1.
         11   -1    0    0    0    0 -0.00000000000E+00 -0.00000000000E+00 -0.45593999997E+02  0.45594000000E+02  0.51100000000E-03 0.  1.
    9900012    2    1    2    0    0  0.30052660960E+02 -0.26112262461E+01  0.10331417475E+02  0.59301966689E+02  0.50000041328E+02 0.  0.
         12    1    1    2    0    0 -0.30052660960E+02  0.26112262461E+01 -0.10331417475E+02  0.31886033311E+02  0.00000000000E+00 0. -1.
         11    1    3    3    0    0  0.23157145624E+02 -0.12022548449E+02  0.19053742853E+02  0.32308515621E+02  0.51100000000E-03 0. -1.
        -11    1    3    3    0    0  0.36147975239E+01  0.57054741009E+01  0.74646042956E+01  0.10066752873E+02  0.51100000000E-03 0.  1.
        -12    1    3    3    0    0  0.32807178126E+01  0.37058481016E+01 -0.16186929674E+02  0.16926698195E+02  0.00000000000E+00 0.  1.
</event>
<event>
 7    1  0.1134395E-011  0.5930177E+02  0.7816164E-02  0.1266605E+00
        -11   -1    0    0    0    0  0.00000000000E+00  0.00000000000E+00  0.45593999997E+02  0.45594000000E+02  0.51100000000E-03 0. -1.
         11   -1    0    0    0    0 -0.00000000000E+00 -0.00000000000E+00 -0.45593999997E+02  0.45594000000E+02  0.51100000000E-03 0.  1.
    9900012    2    1    2    0    0 -0.29434423034E+02  0.12223341784E+02  0.96765722126E+00  0.59301769363E+02  0.49999681453E+02 0.  0.
         12    1    1    2    0    0  0.29434423034E+02 -0.12223341784E+02 -0.96765722126E+00  0.31886230637E+02  0.00000000000E+00 0. -1.
         11    1    3    3    0    0 -0.22609290113E+02  0.24241614867E+02  0.98875135169E+01  0.34591889433E+02  0.51100000000E-03 0. -1.
        -11    1    3    3    0    0 -0.71073039971E+01  0.31021708139E+01 -0.44460876697E+01  0.89389557384E+01  0.51100000000E-03 0.  1.
         12    1    3    3    0    0  0.28217107571E+00 -0.15120443896E+02 -0.44737686260E+01  0.15770924192E+02  0.00000000000E+00 0. -1.
</event>
<event>
 7    1  0.1134395E-011  0.5930194E+02  0.7816164E-02  0.1266605E+00
        -11   -1    0    0    0    0  0.00000000000E+00  0.00000000000E+00  0.45593999997E+02  0.45594000000E+02  0.51100000000E-03 0.  1.
         11   -1    0    0    0    0 -0.00000000000E+00 -0.00000000000E+00 -0.45593999997E+02  0.45594000000E+02  0.51100000000E-03 0. -1.
    9900012    2    1    2    0    0 -0.12793773904E+02  0.20947748670E+02  0.20352689572E+02  0.59301940384E+02  0.49999993354E+02 0.  0.
         12    1    1    2    0    0  0.12793773904E+02 -0.20947748670E+02 -0.20352689572E+02  0.31886059616E+02  0.00000000000E+00 0. -1.
         11    1    3    3    0    0  0.63640773994E+01  0.12583282463E+01 -0.15470736504E+01  0.66692059693E+01  0.51100000000E-03 0. -1.
        -11    1    3    3    0    0 -0.11508316657E+01 -0.23608438674E-01  0.25646006692E+02  0.25671825615E+02  0.51100000000E-03 0.  1.
         12    1    3    3    0    0 -0.18007019638E+02  0.19713028862E+02 -0.37462434699E+01  0.26960908800E+02  0.00000000000E+00 0. -1.
</event>
<event>
 7    1  0.1134395E-011  0.5930188E+02  0.7816164E-02  0.1266605E+00
        -11   -1    0    0    0    0  0.00000000000E+00  0.00000000000E+00  0.45593999997E+02  0.45594000000E+02  0.51100000000E-03 0. -1.
         11   -1    0    0    0    0 -0.00000000000E+00 -0.00000000000E+00 -0.45593999997E+02  0.45594000000E+02  0.51100000000E-03 0.  1.
    9900012    2    1    2    0    0  0.18519449413E+02  0.25771147625E+02  0.30988390528E+01  0.59301876687E+02  0.49999877187E+02 0.  0.
         12    1    1    2    0    0 -0.18519449413E+02 -0.25771147625E+02 -0.30988390528E+01  0.31886123313E+02  0.00000000000E+00 0. -1.
         11    1    3    3    0    0 -0.96548108078E+01  0.21649223280E+01 -0.74755117412E+01  0.12401029654E+02  0.51100000000E-03 0. -1.
        -11    1    3    3    0    0  0.31427526419E+01  0.11650759122E+02 -0.71074179961E+01  0.14004730383E+02  0.51100000000E-03 0.  1.
         12    1    3    3    0    0  0.25031507578E+02  0.11955466175E+02  0.17681768790E+02  0.32896116650E+02  0.00000000000E+00 0. -1.
</event>
<event>
 7    1  0.1134395E-011  0.5930195E+02  0.7816164E-02  0.1266605E+00
        -11   -1    0    0    0    0  0.00000000000E+00  0.00000000000E+00  0.45593999997E+02  0.45594000000E+02  0.51100000000E-03 0.  1.
         11   -1    0    0    0    0 -0.00000000000E+00 -0.00000000000E+00 -0.45593999997E+02  0.45594000000E+02  0.51100000000E-03 0. -1.
    9900012    2    1    2    0    0 -0.48775786670E+01 -0.14691281519E+01  0.31476512765E+02  0.59301953412E+02  0.50000017115E+02 0.  0.
         12    1    1    2    0    0  0.48775786670E+01  0.14691281519E+01 -0.31476512765E+02  0.31886046588E+02  0.00000000000E+00 0. -1.
         11    1    3    3    0    0 -0.21384497266E+02  0.64042506447E+01  0.13908513493E+02  0.26301290795E+02  0.51100000000E-03 0. -1.
        -11    1    3    3    0    0 -0.48826990629E+01 -0.29579040876E+01  0.56250503164E+01  0.80144331087E+01  0.51100000000E-03 0.  1.
         12    1    3    3    0    0  0.21389617661E+02 -0.49154747090E+01  0.11942948955E+02  0.24986229509E+02  0.00000000000E+00 0. -1.
</event>
<event>
 7    1  0.1134395E-011  0.5930193E+02  0.7816164E-02  0.1266605E+00
        -11   -1    0    0    0    0  0.00000000000E+00  0.00000000000E+00  0.45593999997E+02  0.45594000000E+02  0.51100000000E-03 0. -1.
         11   -1    0    0    0    0 -0.00000000000E+00 -0.00000000000E+00 -0.45593999997E+02  0.45594000000E+02  0.51100000000E-03 0.  1.
    9900012    2    1    2    0    0 -0.14932552802E+02 -0.23065349404E+02  0.16178079562E+02  0.59301925694E+02  0.49999966564E+02 0.  0.
         12    1    1    2    0    0  0.14932552802E+02  0.23065349404E+02 -0.16178079562E+02  0.31886074306E+02  0.00000000000E+00 0. -1.
         11    1    3    3    0    0 -0.15946235332E+02 -0.80640647962E+01  0.14676937849E+02  0.23124101435E+02  0.51100000000E-03 0. -1.
        -11    1    3    3    0    0 -0.89099739938E+01  0.29005380125E+01  0.10276983252E+02  0.13907449168E+02  0.51100000000E-03 0.  1.
        -12    1    3    3    0    0  0.99236565237E+01 -0.17901822621E+02 -0.87758415395E+01  0.22270375090E+02  0.00000000000E+00 0.  1.
</event>
<event>
 7    1  0.1134395E-011  0.5930196E+02  0.7816164E-02  0.1266605E+00
        -11   -1    0    0    0    0  0.00000000000E+00  0.00000000000E+00  0.45593999997E+02  0.45594000000E+02  0.51100000000E-03 0.  1.
         11   -1    0    0    0    0 -0.00000000000E+00 -0.00000000000E+00 -0.45593999997E+02  0.45594000000E+02  0.51100000000E-03 0. -1.
    9900012    2    1    2    0    0 -0.13059709050E+02  0.27040491351E+02  0.10722671515E+02  0.59301955131E+02  0.50000020249E+02 0.  0.
         12    1    1    2    0    0  0.13059709050E+02 -0.27040491351E+02 -0.10722671515E+02  0.31886044869E+02  0.00000000000E+00 0. -1.
         11    1    3    3    0    0  0.14785492037E+02  0.10618554186E+02 -0.11067074324E+01  0.18237030169E+02  0.51100000000E-03 0. -1.
        -11    1    3    3    0    0 -0.11991872912E+02 -0.29997594768E+01 -0.18598724915E+01  0.12500507942E+02  0.51100000000E-03 0.  1.
        -12    1    3    3    0    0 -0.15853328176E+02  0.19421696642E+02  0.13689251439E+02  0.28564417020E+02  0.00000000000E+00 0.  1.
</event>
<event>
 7    1  0.1134395E-011  0.5930191E+02  0.7816164E-02  0.1266605E+00
        -11   -1    0    0    0    0  0.00000000000E+00  0.00000000000E+00  0.45593999997E+02  0.45594000000E+02  0.51100000000E-03 0.  1.
         11   -1    0    0    0    0 -0.00000000000E+00 -0.00000000000E+00 -0.45593999997E+02  0.45594000000E+02  0.51100000000E-03 0. -1.
    9900012    2    1    2    0    0 -0.69090000279E+01  0.23972248196E+02  0.19857494359E+02  0.59301905112E+02  0.49999929028E+02 0.  0.
         12    1    1    2    0    0  0.69090000279E+01 -0.23972248196E+02 -0.19857494359E+02  0.31886094888E+02  0.00000000000E+00 0. -1.
         11    1    3    3    0    0 -0.90714942340E+01  0.93912711938E+01  0.13914692338E+02  0.19081578692E+02  0.51100000000E-03 0. -1.
        -11    1    3    3    0    0  0.57400904491E+01  0.15906763532E+02  0.19689040893E+02  0.25954423437E+02  0.51100000000E-03 0.  1.
         12    1    3    3    0    0 -0.35775962430E+01 -0.13257865295E+01 -0.13746238872E+02  0.14265902983E+02  0.00000000000E+00 0. -1.
</event>
<event>
 7    1  0.1134395E-011  0.5930183E+02  0.7816164E-02  0.1266605E+00
        -11   -1    0    0    0    0  0.00000000000E+00  0.00000000000E+00  0.45593999997E+02  0.45594000000E+02  0.51100000000E-03 0.  1.
         11   -1    0    0    0    0 -0.00000000000E+00 -0.00000000000E+00 -0.45593999997E+02  0.45594000000E+02  0.51100000000E-03 0. -1.
    9900012    2    1    2    0    0 -0.21311606481E+01  0.24748522773E+02  0.19992415757E+02  0.59301828813E+02  0.49999789876E+02 0.  0.
         12    1    1    2    0    0  0.21311606481E+01 -0.24748522773E+02 -0.19992415757E+02  0.31886171187E+02  0.00000000000E+00 0. -1.
         11    1    3    3    0    0 -0.18058626121E+02  0.40947374562E+01  0.85244582495E+01  0.20384975862E+02  0.51100000000E-03 0. -1.
        -11    1    3    3    0    0 -0.70655928401E+01  0.50274923437E+01  0.61017606411E+01  0.10603290274E+02  0.51100000000E-03 0.  1.
        -12    1    3    3    0    0  0.22993058313E+02  0.15626292973E+02  0.53661968665E+01  0.28313562677E+02  0.00000000000E+00 0.  1.
</event>
<event>
 7    1  0.1134395E-011  0.5930195E+02  0.7816164E-02  0.1266605E+00
        -11   -1    0    0    0    0  0.00000000000E+00  0.00000000000E+00  0.45593999997E+02  0.45594000000E+02  0.51100000000E-03 0.  1.
         11   -1    0    0    0    0 -0.00000000000E+00 -0.00000000000E+00 -0.45593999997E+02  0.45594000000E+02  0.51100000000E-03 0. -1.
    9900012    2    1    2    0    0  0.28325939351E+02 -0.89039364689E+01  0.11622450455E+02  0.59301948515E+02  0.50000008184E+02 0.  0.
         12    1    1    2    0    0 -0.28325939351E+02  0.89039364689E+01 -0.11622450455E+02  0.31886051485E+02  0.00000000000E+00 0. -1.
         11    1    3    3    0    0  0.18534472088E+01 -0.89623004127E+01 -0.34362875463E+01  0.97757949859E+01  0.51100000000E-03 0. -1.
        -11    1    3    3    0    0 -0.56841135400E+01 -0.16344885803E+01  0.16260366234E+02  0.17302607029E+02  0.51100000000E-03 0.  1.
         12    1    3    3    0    0  0.32156605682E+02  0.16928525241E+01 -0.12016282336E+01  0.32223546500E+02  0.00000000000E+00 0. -1.
</event>
<event>
 7    1  0.1134395E-011  0.5930194E+02  0.7816164E-02  0.1266605E+00
        -11   -1    0    0    0    0  0.00000000000E+00  0.00000000000E+00  0.45593999997E+02  0.45594000000E+02  0.51100000000E-03 0.  1.
         11   -1    0    0    0    0 -0.00000000000E+00 -0.00000000000E+00 -0.45593999997E+02  0.45594000000E+02  0.51100000000E-03 0. -1.
    9900012    2    1    2    0    0  0.19193763492E+02  0.25166317318E+01  0.25337465082E+02  0.59301935191E+02  0.49999983883E+02 0.  0.
         12    1    1    2    0    0 -0.19193763492E+02 -0.25166317318E+01 -0.25337465082E+02  0.31886064809E+02  0.00000000000E+00 0. -1.
         11    1    3    3    0    0  0.34272891628E+02  0.84822414942E+00  0.12379816040E+02  0.36450108782E+02  0.51100000000E-03 0. -1.
        -11    1    3    3    0    0 -0.78912997143E+01  0.64475388819E+01  0.68969851688E+01  0.12304949146E+02  0.51100000000E-03 0.  1.
        -12    1    3    3    0    0 -0.71878284221E+01 -0.47791312994E+01  0.60606638734E+01  0.10546877262E+02  0.00000000000E+00 0.  1.
</event>
<event>
 7    1  0.1134395E-011  0.5930191E+02  0.7816164E-02  0.1266605E+00
        -11   -1    0    0    0    0  0.00000000000E+00  0.00000000000E+00  0.45593999997E+02  0.45594000000E+02  0.51100000000E-03 0. -1.
         11   -1    0    0    0    0 -0.00000000000E+00 -0.00000000000E+00 -0.45593999997E+02  0.45594000000E+02  0.51100000000E-03 0.  1.
    9900012    2    1    2    0    0  0.10156779787E+02 -0.14395502087E+02 -0.26576908671E+02  0.59301910078E+02  0.49999938084E+02 0.  0.
         12    1    1    2    0    0 -0.10156779787E+02  0.14395502087E+02  0.26576908671E+02  0.31886089922E+02  0.00000000000E+00 0. -1.
         11    1    3    3    0    0  0.22373775625E+02  0.19502169218E+01 -0.91491344513E+01  0.24250687479E+02  0.51100000000E-03 0. -1.
        -11    1    3    3    0    0 -0.28986437914E+01 -0.34345039448E+01 -0.18552308661E+02  0.19088900180E+02  0.51100000000E-03 0.  1.
         12    1    3    3    0    0 -0.93183520467E+01 -0.12911215064E+02  0.11245344408E+01  0.15962322419E+02  0.00000000000E+00 0. -1.
</event>
<event>
 7    1  0.1134395E-011  0.5930194E+02  0.7816164E-02  0.1266605E+00
        -11   -1    0    0    0    0  0.00000000000E+00  0.00000000000E+00  0.45593999997E+02  0.45594000000E+02  0.51100000000E-03 0.  1.
         11   -1    0    0    0    0 -0.00000000000E+00 -0.00000000000E+00 -0.45593999997E+02  0.45594000000E+02  0.51100000000E-03 0. -1.
    9900012    2    1    2    0    0  0.40145855959E+01  0.68826557868E+01  0.30874469486E+02  0.59301941695E+02  0.49999995745E+02 0.  0.
         12    1    1    2    0    0 -0.40145855959E+01 -0.68826557868E+01 -0.30874469486E+02  0.31886058305E+02  0.00000000000E+00 0. -1.
         11    1    3    3    0    0 -0.82245008311E+01 -0.15678521368E+02  0.60832287370E+01  0.18720686908E+02  0.51100000000E-03 0. -1.
        -11    1    3    3    0    0 -0.78944681159E+00  0.80570096675E+01 -0.11003404684E+01  0.81700294037E+01  0.51100000000E-03 0.  1.
        -12    1    3    3    0    0  0.13028533239E+02  0.14504167487E+02  0.25891581218E+02  0.32411225383E+02  0.00000000000E+00 0.  1.
</event>
<event>
 7    1  0.1134395E-011  0.5930196E+02  0.7816164E-02  0.1266605E+00
        -11   -1    0    0    0    0  0.00000000000E+00  0.00000000000E+00  0.45593999997E+02  0.45594000000E+02  0.51100000000E-03 0.  1.
         11   -1    0    0    0    0 -0.00000000000E+00 -0.00000000000E+00 -0.45593999997E+02  0.45594000000E+02  0.51100000000E-03 0. -1.
    9900012    2    1    2    0    0 -0.29605661859E+02 -0.42022378689E+01  0.11070942241E+02  0.59301956356E+02  0.50000022483E+02 0.  0.
         12    1    1    2    0    0  0.29605661859E+02  0.42022378689E+01 -0.11070942241E+02  0.31886043644E+02  0.00000000000E+00 0. -1.
         11    1    3    3    0    0 -0.68069033757E+01 -0.12648176816E+02 -0.79961300527E+01  0.16439233754E+02  0.51100000000E-03 0. -1.
        -11    1    3    3    0    0 -0.84374687141E+01 -0.48197945321E+01  0.21076991728E+02  0.23209068878E+02  0.51100000000E-03 0.  1.
        -12    1    3    3    0    0 -0.14361289769E+02  0.13265733479E+02 -0.20099194343E+01  0.19653653724E+02  0.00000000000E+00 0.  1.
</event>
<event>
 7    1  0.1134395E-011  0.5930193E+02  0.7816164E-02  0.1266605E+00
        -11   -1    0    0    0    0  0.00000000000E+00  0.00000000000E+00  0.45593999997E+02  0.45594000000E+02  0.51100000000E-03 0.  1.
         11   -1    0    0    0    0 -0.00000000000E+00 -0.00000000000E+00 -0.45593999997E+02  0.45594000000E+02  0.51100000000E-03 0. -1.
    9900012    2    1    2    0    0 -0.14620698607E+02 -0.11282762959E+02  0.25993382934E+02  0.59301928996E+02  0.49999972586E+02 0.  0.
         12    1    1    2    0    0  0.14620698607E+02  0.11282762959E+02 -0.25993382934E+02  0.31886071004E+02  0.00000000000E+00 0. -1.
         11    1    3    3    0    0  0.51893934821E+01 -0.50800013619E+01  0.19146111428E+02  0.20477055492E+02  0.51100000000E-03 0. -1.
        -11    1    3    3    0    0  0.43013493756E+01  0.37283332048E+01  0.11032626720E+02  0.12414544999E+02  0.51100000000E-03 0.  1.
        -12    1    3    3    0    0 -0.24111441464E+02 -0.99310948018E+01 -0.41853552142E+01  0.26410328505E+02  0.00000000000E+00 0.  1.
</event>
<event>
 7    1  0.1134395E-011  0.5930196E+02  0.7816164E-02  0.1266605E+00
        -11   -1    0    0    0    0  0.00000000000E+00  0.00000000000E+00  0.45593999997E+02  0.45594000000E+02  0.51100000000E-03 0. -1.
         11   -1    0    0    0    0 -0.00000000000E+00 -0.00000000000E+00 -0.45593999997E+02  0.45594000000E+02  0.51100000000E-03 0.  1.
    9900012    2    1    2    0    0 -0.30580067160E+02  0.90106439688E+01  0.62257216652E+00  0.59301955900E+02  0.50000021653E+02 0.  0.
         12    1    1    2    0    0  0.30580067160E+02 -0.90106439688E+01 -0.62257216652E+00  0.31886044100E+02  0.00000000000E+00 0. -1.
         11    1    3    3    0    0 -0.81543622577E+01  0.18176735751E+02  0.14328825574E-01  0.19922036843E+02  0.51100000000E-03 0. -1.
        -11    1    3    3    0    0  0.67021089541E+01  0.35592072308E+01  0.42248153276E-01  0.75886761502E+01  0.51100000000E-03 0.  1.
        -12    1    3    3    0    0 -0.29127813856E+02 -0.12725299013E+02  0.56599518767E+00  0.31791242907E+02  0.00000000000E+00 0.  1.
</event>
<event>
 7    1  0.1134395E-011  0.5930195E+02  0.7816164E-02  0.1266605E+00
        -11   -1    0    0    0    0  0.00000000000E+00  0.00000000000E+00  0.45593999997E+02  0.45594000000E+02  0.51100000000E-03 0. -1.
         11   -1    0    0    0    0 -0.00000000000E+00 -0.00000000000E+00 -0.45593999997E+02  0.45594000000E+02  0.51100000000E-03 0.  1.
    9900012    2    1    2    0    0  0.63385428242E+01 -0.29256456994E+02 -0.10981926312E+02  0.59301951225E+02  0.50000013125E+02 0.  0.
         12    1    1    2    0    0 -0.63385428242E+01  0.29256456994E+02  0.10981926312E+02  0.31886048775E+02  0.00000000000E+00 0. -1.
         11    1    3    3    0    0 -0.92792967043E+01 -0.15703800284E+02  0.82498156394E+01  0.20019344371E+02  0.51100000000E-03 0. -1.
        -11    1    3    3    0    0 -0.20399132025E+01 -0.13744629954E+02 -0.16238268203E+02  0.21371884637E+02  0.51100000000E-03 0.  1.
         12    1    3    3    0    0  0.17657752731E+02  0.19197324393E+00 -0.29934737478E+01  0.17910722216E+02  0.00000000000E+00 0. -1.
</event>
<event>
 7    1  0.1134395E-011  0.5930178E+02  0.7816164E-02  0.1266605E+00
        -11   -1    0    0    0    0  0.00000000000E+00  0.00000000000E+00  0.45593999997E+02  0.45594000000E+02  0.51100000000E-03 0.  1.
         11   -1    0    0    0    0 -0.00000000000E+00 -0.00000000000E+00 -0.45593999997E+02  0.45594000000E+02  0.51100000000E-03 0. -1.
    9900012    2    1    2    0    0 -0.18521717892E+02  0.79268305639E+00  0.25943176413E+02  0.59301783816E+02  0.49999707812E+02 0.  0.
         12    1    1    2    0    0  0.18521717892E+02 -0.79268305639E+00 -0.25943176413E+02  0.31886216184E+02  0.00000000000E+00 0. -1.
         11    1    3    3    0    0  0.30842678329E+01 -0.96798580675E+01  0.20191530029E+02  0.22603323770E+02  0.51100000000E-03 0.  1.
        -11    1    3    3    0    0  0.14507969656E+01  0.12967724630E+02  0.17812957801E+01  0.13169651052E+02  0.51100000000E-03 0. -1.
        -12    1    3    3    0    0 -0.23056782691E+02 -0.24951835065E+01  0.39703506045E+01  0.23528808994E+02  0.00000000000E+00 0.  1.
</event>
<event>
 7    1  0.1134395E-011  0.5930193E+02  0.7816164E-02  0.1266605E+00
        -11   -1    0    0    0    0  0.00000000000E+00  0.00000000000E+00  0.45593999997E+02  0.45594000000E+02  0.51100000000E-03 0. -1.
         11   -1    0    0    0    0 -0.00000000000E+00 -0.00000000000E+00 -0.45593999997E+02  0.45594000000E+02  0.51100000000E-03 0.  1.
    9900012    2    1    2    0    0 -0.58204399427E+01  0.15932389374E+02 -0.27000053624E+02  0.59301930189E+02  0.49999974761E+02 0.  0.
         12    1    1    2    0    0  0.58204399427E+01 -0.15932389374E+02  0.27000053624E+02  0.31886069811E+02  0.00000000000E+00 0. -1.
         11    1    3    3    0    0 -0.77407539416E+00  0.96235887298E+01 -0.10338580486E+02  0.14145631816E+02  0.51100000000E-03 0.  1.
        -11    1    3    3    0    0 -0.20257672094E+02  0.12642048598E+02 -0.15847776679E+02  0.28659146836E+02  0.51100000000E-03 0. -1.
        -12    1    3    3    0    0  0.15211307546E+02 -0.63332479543E+01 -0.81369645966E+00  0.16497151537E+02  0.00000000000E+00 0.  1.
</event>
<event>
 7    1  0.1134395E-011  0.5930169E+02  0.7816164E-02  0.1266606E+00
        -11   -1    0    0    0    0  0.00000000000E+00  0.00000000000E+00  0.45593999997E+02  0.45594000000E+02  0.51100000000E-03 0. -1.
         11   -1    0    0    0    0 -0.00000000000E+00 -0.00000000000E+00 -0.45593999997E+02  0.45594000000E+02  0.51100000000E-03 0.  1.
    9900012    2    1    2    0    0  0.50296702486E+01  0.26717573817E+02 -0.16661648922E+02  0.59301688230E+02  0.49999533484E+02 0.  0.
         12    1    1    2    0    0 -0.50296702486E+01 -0.26717573817E+02  0.16661648922E+02  0.31886311770E+02  0.00000000000E+00 0. -1.
         11    1    3    3    0    0 -0.36670524960E+01  0.16194663260E+02  0.44462299661E+01  0.17189629236E+02  0.51100000000E-03 0. -1.
        -11    1    3    3    0    0 -0.93862728013E+01  0.32682571016E+01  0.36666582744E+01  0.10593771979E+02  0.51100000000E-03 0.  1.
        -12    1    3    3    0    0  0.18082995546E+02  0.72546534556E+01 -0.24774537163E+02  0.31518287014E+02  0.00000000000E+00 0.  1.
</event>
<event>
 7    1  0.1134395E-011  0.5930194E+02  0.7816164E-02  0.1266605E+00
        -11   -1    0    0    0    0  0.00000000000E+00  0.00000000000E+00  0.45593999997E+02  0.45594000000E+02  0.51100000000E-03 0.  1.
         11   -1    0    0    0    0 -0.00000000000E+00 -0.00000000000E+00 -0.45593999997E+02  0.45594000000E+02  0.51100000000E-03 0. -1.
    9900012    2    1    2    0    0  0.23924754289E+02 -0.14848586627E+02  0.14961505308E+02  0.59301936685E+02  0.49999986609E+02 0.  0.
         12    1    1    2    0    0 -0.23924754289E+02  0.14848586627E+02 -0.14961505308E+02  0.31886063315E+02  0.00000000000E+00 0. -1.
         11    1    3    3    0    0 -0.30468004655E+01 -0.21981770655E+01 -0.85524689787E+00  0.38531056313E+01  0.51100000000E-03 0. -1.
        -11    1    3    3    0    0 -0.85309894308E+01 -0.17034183520E+01 -0.75842713059E+01  0.11541255835E+02  0.51100000000E-03 0.  1.
        -12    1    3    3    0    0  0.35502544186E+02 -0.10946991210E+02  0.23401023512E+02  0.43907575219E+02  0.00000000000E+00 0.  1.
</event>
<event>
 7    1  0.1134395E-011  0.5930208E+02  0.7816164E-02  0.1266604E+00
        -11   -1    0    0    0    0  0.00000000000E+00  0.00000000000E+00  0.45593999997E+02  0.45594000000E+02  0.51100000000E-03 0.  1.
         11   -1    0    0    0    0 -0.00000000000E+00 -0.00000000000E+00 -0.45593999997E+02  0.45594000000E+02  0.51100000000E-03 0. -1.
    9900012    2    1    2    0    0 -0.13267281064E+02 -0.13869122835E+02  0.25462497803E+02  0.59302076626E+02  0.50000241827E+02 0.  0.
         12    1    1    2    0    0  0.13267281064E+02  0.13869122835E+02 -0.25462497803E+02  0.31885923374E+02  0.00000000000E+00 0. -1.
         11    1    3    3    0    0 -0.10702281495E+01 -0.10694558182E+02  0.28780008465E+02  0.30721455866E+02  0.51100000000E-03 0. -1.
        -11    1    3    3    0    0 -0.12790100835E+02 -0.11264722227E+02  0.41647065895E+01  0.17544954473E+02  0.51100000000E-03 0.  1.
         12    1    3    3    0    0  0.59304792065E+00  0.80901575741E+01 -0.74822172511E+01  0.11035666287E+02  0.00000000000E+00 0. -1.
</event>
<event>
 7    1  0.1134395E-011  0.5930193E+02  0.7816164E-02  0.1266605E+00
        -11   -1    0    0    0    0  0.00000000000E+00  0.00000000000E+00  0.45593999997E+02  0.45594000000E+02  0.51100000000E-03 0.  1.
         11   -1    0    0    0    0 -0.00000000000E+00 -0.00000000000E+00 -0.45593999997E+02  0.45594000000E+02  0.51100000000E-03 0. -1.
    9900012    2    1    2    0    0  0.28230214348E+02  0.10100799893E+01 -0.14790409184E+02  0.59301929882E+02  0.49999974202E+02 0.  0.
         12    1    1    2    0    0 -0.28230214348E+02 -0.10100799893E+01  0.14790409184E+02  0.31886070118E+02  0.00000000000E+00 0. -1.
         11    1    3    3    0    0  0.84836535206E+01 -0.59430578784E+01 -0.18438692013E+02  0.21148940338E+02  0.51100000000E-03 0. -1.
        -11    1    3    3    0    0 -0.54763540287E+01  0.66574319518E+01  0.88967993519E+01  0.12388094793E+02  0.51100000000E-03 0.  1.
        -12    1    3    3    0    0  0.25222914856E+02  0.29570591585E+00 -0.52485165224E+01  0.25764894751E+02  0.00000000000E+00 0.  1.
</event>
<event>
 7    1  0.1134395E-011  0.5930196E+02  0.7816164E-02  0.1266605E+00
        -11   -1    0    0    0    0  0.00000000000E+00  0.00000000000E+00  0.45593999997E+02  0.45594000000E+02  0.51100000000E-03 0.  1.
         11   -1    0    0    0    0 -0.00000000000E+00 -0.00000000000E+00 -0.45593999997E+02  0.45594000000E+02  0.51100000000E-03 0. -1.
    9900012    2    1    2    0    0 -0.19353103902E+02  0.59442677433E+01  0.24634181308E+02  0.59301955429E+02  0.50000020794E+02 0.  0.
         12    1    1    2    0    0  0.19353103902E+02 -0.59442677433E+01 -0.24634181308E+02  0.31886044571E+02  0.00000000000E+00 0. -1.
         11    1    3    3    0    0 -0.14547617864E+02  0.22883564985E+01  0.26032912407E+02  0.29909568530E+02  0.51100000000E-03 0.  1.
        -11    1    3    3    0    0 -0.87675601470E+01 -0.45456397365E+01 -0.11917736389E+02  0.15477900130E+02  0.51100000000E-03 0. -1.
         12    1    3    3    0    0  0.39620741091E+01  0.82015509813E+01  0.10519005290E+02  0.13914486769E+02  0.00000000000E+00 0. -1.
</event>
<event>
 7    1  0.1134395E-011  0.5930194E+02  0.7816164E-02  0.1266605E+00
        -11   -1    0    0    0    0  0.00000000000E+00  0.00000000000E+00  0.45593999997E+02  0.45594000000E+02  0.51100000000E-03 0. -1.
         11   -1    0    0    0    0 -0.00000000000E+00 -0.00000000000E+00 -0.45593999997E+02  0.45594000000E+02  0.51100000000E-03 0.  1.
    9900012    2    1    2    0    0 -0.28747959613E+02 -0.13792182976E+02  0.22642140361E+00  0.59301940980E+02  0.49999994442E+02 0.  0.
         12    1    1    2    0    0  0.28747959613E+02  0.13792182976E+02 -0.22642140361E+00  0.31886059020E+02  0.00000000000E+00 0. -1.
         11    1    3    3    0    0 -0.12579922266E+02 -0.76100374556E+01 -0.66899378767E+01  0.16153092068E+02  0.51100000000E-03 0. -1.
        -11    1    3    3    0    0 -0.14245566645E+02  0.12630152354E+02 -0.63273161212E+01  0.20062199458E+02  0.51100000000E-03 0.  1.
         12    1    3    3    0    0 -0.19224707017E+01 -0.18812297874E+02  0.13243675402E+02  0.23086649455E+02  0.00000000000E+00 0. -1.
</event>
<event>
 7    1  0.1134395E-011  0.5930195E+02  0.7816164E-02  0.1266605E+00
        -11   -1    0    0    0    0  0.00000000000E+00  0.00000000000E+00  0.45593999997E+02  0.45594000000E+02  0.51100000000E-03 0.  1.
         11   -1    0    0    0    0 -0.00000000000E+00 -0.00000000000E+00 -0.45593999997E+02  0.45594000000E+02  0.51100000000E-03 0. -1.
    9900012    2    1    2    0    0 -0.69172745121E+01 -0.36304822951E+01  0.30914256902E+02  0.59301947122E+02  0.50000005643E+02 0.  0.
         12    1    1    2    0    0  0.69172745121E+01  0.36304822951E+01 -0.30914256902E+02  0.31886052878E+02  0.00000000000E+00 0. -1.
         11    1    3    3    0    0 -0.15321442671E+01  0.15892628889E+02  0.21346669059E+02  0.26657145369E+02  0.51100000000E-03 0. -1.
        -11    1    3    3    0    0  0.29304882695E+01  0.46180454073E+01  0.31725921652E+01  0.63229301901E+01  0.51100000000E-03 0.  1.
        -12    1    3    3    0    0 -0.83156185144E+01 -0.24141156591E+02  0.63949956772E+01  0.26321871563E+02  0.00000000000E+00 0.  1.
</event>
<event>
 7    1  0.1134395E-011  0.5930196E+02  0.7816164E-02  0.1266605E+00
        -11   -1    0    0    0    0  0.00000000000E+00  0.00000000000E+00  0.45593999997E+02  0.45594000000E+02  0.51100000000E-03 0.  1.
         11   -1    0    0    0    0 -0.00000000000E+00 -0.00000000000E+00 -0.45593999997E+02  0.45594000000E+02  0.51100000000E-03 0. -1.
    9900012    2    1    2    0    0 -0.67246419562E+01  0.30815153158E+02  0.46824378684E+01  0.59301957631E+02  0.50000024809E+02 0.  0.
         12    1    1    2    0    0  0.67246419562E+01 -0.30815153158E+02 -0.46824378684E+01  0.31886042369E+02  0.00000000000E+00 0. -1.
         11    1    3    3    0    0  0.89670286827E+01  0.77532212424E+01 -0.41907403005E+01  0.12573080273E+02  0.51100000000E-03 0. -1.
        -11    1    3    3    0    0 -0.11392936540E+02  0.15128567938E+02 -0.13064721665E+02  0.23007814397E+02  0.51100000000E-03 0.  1.
         12    1    3    3    0    0 -0.42987340989E+01  0.79333639771E+01  0.21937899834E+02  0.23721062961E+02  0.00000000000E+00 0. -1.
</event>
<event>
 7    1  0.1134395E-011  0.5930194E+02  0.7816164E-02  0.1266605E+00
        -11   -1    0    0    0    0  0.00000000000E+00  0.00000000000E+00  0.45593999997E+02  0.45594000000E+02  0.51100000000E-03 0.  1.
         11   -1    0    0    0    0 -0.00000000000E+00 -0.00000000000E+00 -0.45593999997E+02  0.45594000000E+02  0.51100000000E-03 0. -1.
    9900012    2    1    2    0    0 -0.23138526283E+02 -0.14622283316E+02  0.16355977255E+02  0.59301944115E+02  0.50000000160E+02 0.  0.
         12    1    1    2    0    0  0.23138526283E+02  0.14622283316E+02 -0.16355977255E+02  0.31886055885E+02  0.00000000000E+00 0. -1.
         11    1    3    3    0    0  0.89279786300E+00  0.15859970076E+01  0.15039603054E+01  0.23610106720E+01  0.51100000000E-03 0. -1.
        -11    1    3    3    0    0 -0.43623307381E+01 -0.29801285433E+02  0.13465149893E+02  0.32991768743E+02  0.51100000000E-03 0.  1.
         12    1    3    3    0    0 -0.19668993408E+02  0.13593005109E+02  0.13868670563E+01  0.23949164700E+02  0.00000000000E+00 0. -1.
</event>
<event>
 7    1  0.1134395E-011  0.5930195E+02  0.7816164E-02  0.1266605E+00
        -11   -1    0    0    0    0  0.00000000000E+00  0.00000000000E+00  0.45593999997E+02  0.45594000000E+02  0.51100000000E-03 0. -1.
         11   -1    0    0    0    0 -0.00000000000E+00 -0.00000000000E+00 -0.45593999997E+02  0.45594000000E+02  0.51100000000E-03 0.  1.
    9900012    2    1    2    0    0  0.18040024994E+02  0.37598614435E+01 -0.26021929728E+02  0.59301954673E+02  0.50000019414E+02 0.  0.
         12    1    1    2    0    0 -0.18040024994E+02 -0.37598614435E+01  0.26021929728E+02  0.31886045327E+02  0.00000000000E+00 0. -1.
         11    1    3    3    0    0  0.82094092836E+01 -0.29539495466E+01 -0.77688058298E+00  0.87592101477E+01  0.51100000000E-03 0. -1.
        -11    1    3    3    0    0 -0.73074001305E+01  0.17412484280E+02 -0.23667759308E+02  0.30277971140E+02  0.51100000000E-03 0.  1.
         12    1    3    3    0    0  0.17138015841E+02 -0.10698673289E+02 -0.15772898375E+01  0.20264773385E+02  0.00000000000E+00 0. -1.
</event>
<event>
 7    1  0.1134395E-011  0.5930204E+02  0.7816164E-02  0.1266604E+00
        -11   -1    0    0    0    0  0.00000000000E+00  0.00000000000E+00  0.45593999997E+02  0.45594000000E+02  0.51100000000E-03 0.  1.
         11   -1    0    0    0    0 -0.00000000000E+00 -0.00000000000E+00 -0.45593999997E+02  0.45594000000E+02  0.51100000000E-03 0. -1.
    9900012    2    1    2    0    0 -0.66873473365E+01 -0.44361248216E+01  0.30859599375E+02  0.59302036138E+02  0.50000167986E+02 0.  0.
         12    1    1    2    0    0  0.66873473365E+01  0.44361248216E+01 -0.30859599375E+02  0.31885963862E+02  0.00000000000E+00 0. -1.
         11    1    3    3    0    0  0.95794751135E+01 -0.82321680782E+01  0.58767152476E+00  0.12644377913E+02  0.51100000000E-03 0. -1.
        -11    1    3    3    0    0 -0.12352052642E+02  0.15930636822E+02  0.95003019078E+01  0.22284840826E+02  0.51100000000E-03 0.  1.
         12    1    3    3    0    0 -0.39147698076E+01 -0.12134593565E+02  0.20771625943E+02  0.24372817399E+02  0.00000000000E+00 0. -1.
</event>
<event>
 7    1  0.1134395E-011  0.5930193E+02  0.7816164E-02  0.1266605E+00
        -11   -1    0    0    0    0  0.00000000000E+00  0.00000000000E+00  0.45593999997E+02  0.45594000000E+02  0.51100000000E-03 0.  1.
         11   -1    0    0    0    0 -0.00000000000E+00 -0.00000000000E+00 -0.45593999997E+02  0.45594000000E+02  0.51100000000E-03 0. -1.
    9900012    2    1    2    0    0  0.30322314049E+02 -0.84881438588E+01 -0.50229506760E+01  0.59301931742E+02  0.49999977593E+02 0.  0.
         12    1    1    2    0    0 -0.30322314049E+02  0.84881438588E+01  0.50229506760E+01  0.31886068258E+02  0.00000000000E+00 0. -1.
         11    1    3    3    0    0  0.51113592999E+01 -0.29028951327E+01 -0.19554158694E+02  0.20418567936E+02  0.51100000000E-03 0. -1.
        -11    1    3    3    0    0  0.20977810011E+02 -0.29029740271E+01 -0.23184560276E+01  0.21304248629E+02  0.51100000000E-03 0.  1.
        -12    1    3    3    0    0  0.42331447389E+01 -0.26822746990E+01  0.16849664046E+02  0.17579115177E+02  0.00000000000E+00 0.  1.
</event>
<event>
 7    1  0.1134395E-011  0.5930201E+02  0.7816164E-02  0.1266605E+00
        -11   -1    0    0    0    0  0.00000000000E+00  0.00000000000E+00  0.45593999997E+02  0.45594000000E+02  0.51100000000E-03 0.  1.
         11   -1    0    0    0    0 -0.00000000000E+00 -0.00000000000E+00 -0.45593999997E+02  0.45594000000E+02  0.51100000000E-03 0. -1.
    9900012    2    1    2    0    0 -0.15346856243E+02  0.26241633694E+02 -0.96211784307E+01  0.59302009191E+02  0.50000118842E+02 0.  0.
         12    1    1    2    0    0  0.15346856243E+02 -0.26241633694E+02  0.96211784307E+01  0.31885990809E+02  0.00000000000E+00 0. -1.
         11    1    3    3    0    0 -0.31477418952E+01  0.78551404401E+01 -0.58479771611E+01  0.10286415678E+02  0.51100000000E-03 0. -1.
        -11    1    3    3    0    0 -0.15840944613E+02  0.31236919610E+02 -0.58164943036E+01  0.35503693881E+02  0.51100000000E-03 0.  1.
         12    1    3    3    0    0  0.36418302657E+01 -0.12850426356E+02  0.20432930340E+01  0.13511899631E+02  0.00000000000E+00 0. -1.
</event>
<event>
 7    1  0.1134395E-011  0.5930192E+02  0.7816164E-02  0.1266605E+00
        -11   -1    0    0    0    0  0.00000000000E+00  0.00000000000E+00  0.45593999997E+02  0.45594000000E+02  0.51100000000E-03 0. -1.
         11   -1    0    0    0    0 -0.00000000000E+00 -0.00000000000E+00 -0.45593999997E+02  0.45594000000E+02  0.51100000000E-03 0.  1.
    9900012    2    1    2    0    0 -0.25890509912E+02  0.60746566330E+01 -0.17592668882E+02  0.59301922237E+02  0.49999960258E+02 0.  0.
         12    1    1    2    0    0  0.25890509912E+02 -0.60746566330E+01  0.17592668882E+02  0.31886077763E+02  0.00000000000E+00 0. -1.
         11    1    3    3    0    0  0.48213933406E+01 -0.14835375588E+01 -0.63295470890E+01  0.80938176435E+01  0.51100000000E-03 0. -1.
        -11    1    3    3    0    0 -0.22466977262E+02  0.15265326980E+02 -0.22508042781E+02  0.35276157177E+02  0.51100000000E-03 0.  1.
        -12    1    3    3    0    0 -0.82449259915E+01 -0.77071327886E+01  0.11244920988E+02  0.15931947416E+02  0.00000000000E+00 0.  1.
</event>
<event>
 7    1  0.1134395E-011  0.5930188E+02  0.7816164E-02  0.1266605E+00
        -11   -1    0    0    0    0  0.00000000000E+00  0.00000000000E+00  0.45593999997E+02  0.45594000000E+02  0.51100000000E-03 0. -1.
         11   -1    0    0    0    0 -0.00000000000E+00 -0.00000000000E+00 -0.45593999997E+02  0.45594000000E+02  0.51100000000E-03 0.  1.
    9900012    2    1    2    0    0  0.15402883395E+02 -0.66506661161E+01 -0.27115393154E+02  0.59301878841E+02  0.49999881116E+02 0.  0.
         12    1    1    2    0    0 -0.15402883395E+02  0.66506661161E+01  0.27115393154E+02  0.31886121159E+02  0.00000000000E+00 0. -1.
         11    1    3    3    0    0  0.43623232383E+00  0.10939774603E+02 -0.17491006957E+02  0.20635025845E+02  0.51100000000E-03 0. -1.
        -11    1    3    3    0    0  0.52987343316E+01  0.58148433680E+01 -0.10746863963E+02  0.13318561266E+02  0.51100000000E-03 0.  1.
        -12    1    3    3    0    0  0.96679167395E+01 -0.23405284087E+02  0.11224777661E+01  0.25348291730E+02  0.00000000000E+00 0.  1.
</event>
<event>
 7    1  0.1134395E-011  0.5930196E+02  0.7816164E-02  0.1266605E+00
        -11   -1    0    0    0    0  0.00000000000E+00  0.00000000000E+00  0.45593999997E+02  0.45594000000E+02  0.51100000000E-03 0.  1.
         11   -1    0    0    0    0 -0.00000000000E+00 -0.00000000000E+00 -0.45593999997E+02  0.45594000000E+02  0.51100000000E-03 0. -1.
    9900012    2    1    2    0    0 -0.21734510550E+02 -0.72707239371E+01  0.22169052452E+02  0.59301964467E+02  0.50000037276E+02 0.  0.
         12    1    1    2    0    0  0.21734510550E+02  0.72707239371E+01 -0.22169052452E+02  0.31886035533E+02  0.00000000000E+00 0. -1.
         11    1    3    3    0    0 -0.33865073432E+02 -0.12822546417E+02  0.58819558445E+01  0.36685941449E+02  0.51100000000E-03 0. -1.
        -11    1    3    3    0    0  0.40655323869E+01 -0.10017976287E+01  0.13111076072E+01  0.43876138728E+01  0.51100000000E-03 0.  1.
        -12    1    3    3    0    0  0.80650304957E+01  0.65536201089E+01  0.14975989000E+02  0.18228409145E+02  0.00000000000E+00 0.  1.
</event>
<event>
 7    1  0.1134395E-011  0.5930193E+02  0.7816164E-02  0.1266605E+00
        -11   -1    0    0    0    0  0.00000000000E+00  0.00000000000E+00  0.45593999997E+02  0.45594000000E+02  0.51100000000E-03 0. -1.
         11   -1    0    0    0    0 -0.00000000000E+00 -0.00000000000E+00 -0.45593999997E+02  0.45594000000E+02  0.51100000000E-03 0.  1.
    9900012    2    1    2    0    0 -0.29549129414E+02  0.52551109195E+00  0.11970551099E+02  0.59301932437E+02  0.49999978861E+02 0.  0.
         12    1    1    2    0    0  0.29549129414E+02 -0.52551109195E+00 -0.11970551099E+02  0.31886067563E+02  0.00000000000E+00 0. -1.
         11    1    3    3    0    0 -0.19832751540E+02 -0.11163194800E+02  0.17462294507E+02  0.28686001490E+02  0.51100000000E-03 0. -1.
        -11    1    3    3    0    0 -0.45513852198E+01  0.52019554258E+01  0.10518267667E+02  0.12586079717E+02  0.51100000000E-03 0.  1.
         12    1    3    3    0    0 -0.51649926548E+01  0.64867504657E+01 -0.16010011075E+02  0.18029851230E+02  0.00000000000E+00 0. -1.
</event>
<event>
 7    1  0.1134395E-011  0.5930195E+02  0.7816164E-02  0.1266605E+00
        -11   -1    0    0    0    0  0.00000000000E+00  0.00000000000E+00  0.45593999997E+02  0.45594000000E+02  0.51100000000E-03 0.  1.
         11   -1    0    0    0    0 -0.00000000000E+00 -0.00000000000E+00 -0.45593999997E+02  0.45594000000E+02  0.51100000000E-03 0. -1.
    9900012    2    1    2    0    0  0.66015937599E+01  0.30175981649E+02  0.79087982376E+01  0.59301952923E+02  0.50000016223E+02 0.  0.
         12    1    1    2    0    0 -0.66015937599E+01 -0.30175981649E+02 -0.79087982376E+01  0.31886047077E+02  0.00000000000E+00 0. -1.
         11    1    3    3    0    0  0.11243686870E+01  0.20312364582E+02 -0.24613980650E+01  0.20491823749E+02  0.51100000000E-03 0. -1.
        -11    1    3    3    0    0 -0.30633235501E+01  0.22181458312E+02  0.56207198123E+01  0.23086652756E+02  0.51100000000E-03 0.  1.
        -12    1    3    3    0    0  0.85405486230E+01 -0.12317841245E+02  0.47494764903E+01  0.15723476418E+02  0.00000000000E+00 0.  1.
</event>
<event>
 7    1  0.1134395E-011  0.5930196E+02  0.7816164E-02  0.1266605E+00
        -11   -1    0    0    0    0  0.00000000000E+00  0.00000000000E+00  0.45593999997E+02  0.45594000000E+02  0.51100000000E-03 0.  1.
         11   -1    0    0    0    0 -0.00000000000E+00 -0.00000000000E+00 -0.45593999997E+02  0.45594000000E+02  0.51100000000E-03 0. -1.
    9900012    2    1    2    0    0 -0.19987033557E+01 -0.39943943584E+01  0.31571652937E+02  0.59301964333E+02  0.50000037032E+02 0.  0.
         12    1    1    2    0    0  0.19987033557E+01  0.39943943584E+01 -0.31571652937E+02  0.31886035667E+02  0.00000000000E+00 0. -1.
         11    1    3    3    0    0 -0.29355367985E+00  0.33202809468E+01  0.16284873337E+02  0.16622500990E+02  0.51100000000E-03 0. -1.
        -11    1    3    3    0    0  0.17133813973E+01 -0.66149173314E+01  0.28348116488E+02  0.29160049997E+02  0.51100000000E-03 0.  1.
         12    1    3    3    0    0 -0.34185310732E+01 -0.69975797383E+00 -0.13061336888E+02  0.13519413346E+02  0.00000000000E+00 0. -1.
</event>
<event>
 7    1  0.1134395E-011  0.5930168E+02  0.7816164E-02  0.1266606E+00
        -11   -1    0    0    0    0  0.00000000000E+00  0.00000000000E+00  0.45593999997E+02  0.45594000000E+02  0.51100000000E-03 0.  1.
         11   -1    0    0    0    0 -0.00000000000E+00 -0.00000000000E+00 -0.45593999997E+02  0.45594000000E+02  0.51100000000E-03 0. -1.
    9900012    2    1    2    0    0 -0.25325555548E+02 -0.96957184135E+01  0.16773391895E+02  0.59301680127E+02  0.49999518707E+02 0.  0.
         12    1    1    2    0    0  0.25325555548E+02  0.96957184135E+01 -0.16773391895E+02  0.31886319873E+02  0.00000000000E+00 0. -1.
         11    1    3    3    0    0 -0.23447417991E+02  0.78404507137E+01 -0.38276692345E+01  0.25018096048E+02  0.51100000000E-03 0. -1.
        -11    1    3    3    0    0 -0.10445677823E+02 -0.12769265399E+02  0.80490977867E+01  0.18356314975E+02  0.51100000000E-03 0.  1.
        -12    1    3    3    0    0  0.85675402667E+01 -0.47669037287E+01  0.12551963343E+02  0.15927269105E+02  0.00000000000E+00 0.  1.
</event>
<event>
 7    1  0.1134395E-011  0.5930193E+02  0.7816164E-02  0.1266605E+00
        -11   -1    0    0    0    0  0.00000000000E+00  0.00000000000E+00  0.45593999997E+02  0.45594000000E+02  0.51100000000E-03 0.  1.
         11   -1    0    0    0    0 -0.00000000000E+00 -0.00000000000E+00 -0.45593999997E+02  0.45594000000E+02  0.51100000000E-03 0. -1.
    9900012    2    1    2    0    0  0.11243825877E+02 -0.25730348874E+02  0.15107846697E+02  0.59301929290E+02  0.49999973122E+02 0.  0.
         12    1    1    2    0    0 -0.11243825877E+02  0.25730348874E+02 -0.15107846697E+02  0.31886070710E+02  0.00000000000E+00 0. -1.
         11    1    3    3    0    0  0.14982813856E+02 -0.51274275919E+01 -0.88852293865E+01  0.18158263305E+02  0.51100000000E-03 0. -1.
        -11    1    3    3    0    0  0.73523541291E+01  0.20548149554E+01  0.89843738614E+01  0.11789756133E+02  0.51100000000E-03 0.  1.
         12    1    3    3    0    0 -0.11091342108E+02 -0.22657736237E+02  0.15008702222E+02  0.29353909851E+02  0.00000000000E+00 0. -1.
</event>
<event>
 7    1  0.1134395E-011  0.5930195E+02  0.7816164E-02  0.1266605E+00
        -11   -1    0    0    0    0  0.00000000000E+00  0.00000000000E+00  0.45593999997E+02  0.45594000000E+02  0.51100000000E-03 0.  1.
         11   -1    0    0    0    0 -0.00000000000E+00 -0.00000000000E+00 -0.45593999997E+02  0.45594000000E+02  0.51100000000E-03 0. -1.
    9900012    2    1    2    0    0  0.18321998364E+02 -0.24547267241E+02  0.88575667181E+01  0.59301945976E+02  0.50000003553E+02 0.  0.
         12    1    1    2    0    0 -0.18321998364E+02  0.24547267241E+02 -0.88575667181E+01  0.31886054024E+02  0.00000000000E+00 0. -1.
         11    1    3    3    0    0 -0.43339873442E+01 -0.12568632221E+02  0.14798757756E+02  0.19893647066E+02  0.51100000000E-03 0. -1.
        -11    1    3    3    0    0  0.76390418734E+01 -0.18951119819E+02  0.29021298739E+01  0.20637884126E+02  0.51100000000E-03 0.  1.
         12    1    3    3    0    0  0.15016943835E+02  0.69724847987E+01 -0.88433209121E+01  0.18770414784E+02  0.00000000000E+00 0. -1.
</event>
<event>
 7    1  0.1134395E-011  0.5930197E+02  0.7816164E-02  0.1266605E+00
        -11   -1    0    0    0    0  0.00000000000E+00  0.00000000000E+00  0.45593999997E+02  0.45594000000E+02  0.51100000000E-03 0.  1.
         11   -1    0    0    0    0 -0.00000000000E+00 -0.00000000000E+00 -0.45593999997E+02  0.45594000000E+02  0.51100000000E-03 0. -1.
    9900012    2    1    2    0    0 -0.36495733741E+00 -0.31691667491E+02 -0.34962516244E+01  0.59301972376E+02  0.50000051701E+02 0.  0.
         12    1    1    2    0    0  0.36495733741E+00  0.31691667491E+02  0.34962516244E+01  0.31886027624E+02  0.00000000000E+00 0. -1.
         11    1    3    3    0    0 -0.19105998664E+01  0.35808969474E+01  0.55070307066E+01  0.68410965687E+01  0.51100000000E-03 0. -1.
        -11    1    3    3    0    0  0.17834369903E+02 -0.27645226172E+02 -0.10176232781E+02  0.34436593818E+02  0.51100000000E-03 0.  1.
         12    1    3    3    0    0 -0.16288727374E+02 -0.76273382663E+01  0.11729504502E+01  0.18024281990E+02  0.00000000000E+00 0. -1.
</event>
<event>
 7    1  0.1134395E-011  0.5930195E+02  0.7816164E-02  0.1266605E+00
        -11   -1    0    0    0    0  0.00000000000E+00  0.00000000000E+00  0.45593999997E+02  0.45594000000E+02  0.51100000000E-03 0.  1.
         11   -1    0    0    0    0 -0.00000000000E+00 -0.00000000000E+00 -0.45593999997E+02  0.45594000000E+02  0.51100000000E-03 0. -1.
    9900012    2    1    2    0    0 -0.16880863041E+02  0.12814972640E+02  0.23822953174E+02  0.59301950406E+02  0.50000011633E+02 0.  0.
         12    1    1    2    0    0  0.16880863041E+02 -0.12814972640E+02 -0.23822953174E+02  0.31886049594E+02  0.00000000000E+00 0. -1.
         11    1    3    3    0    0  0.65340045259E+01 -0.99732236349E+01  0.11753727154E+02  0.16742416405E+02  0.51100000000E-03 0. -1.
        -11    1    3    3    0    0  0.13942809789E+01  0.13852274600E+02  0.74445476934E+01  0.15787679426E+02  0.51100000000E-03 0.  1.
         12    1    3    3    0    0 -0.24809148546E+02  0.89359216742E+01  0.46246783264E+01  0.26771854575E+02  0.00000000000E+00 0. -1.
</event>
<event>
 7    1  0.1134395E-011  0.5930195E+02  0.7816164E-02  0.1266605E+00
        -11   -1    0    0    0    0  0.00000000000E+00  0.00000000000E+00  0.45593999997E+02  0.45594000000E+02  0.51100000000E-03 0.  1.
         11   -1    0    0    0    0 -0.00000000000E+00 -0.00000000000E+00 -0.45593999997E+02  0.45594000000E+02  0.51100000000E-03 0. -1.
    9900012    2    1    2    0    0 -0.15404290517E+02 -0.24261609089E+02  0.13813110718E+02  0.59301954939E+02  0.50000019900E+02 0.  0.
         12    1    1    2    0    0  0.15404290517E+02  0.24261609089E+02 -0.13813110718E+02  0.31886045061E+02  0.00000000000E+00 0. -1.
         11    1    3    3    0    0 -0.20090769499E+02  0.18996610840E+00  0.19644201496E+01  0.20187472674E+02  0.51100000000E-03 0. -1.
        -11    1    3    3    0    0  0.57759645382E+00  0.26938723962E+01  0.11324498989E+02  0.11654820623E+02  0.51100000000E-03 0.  1.
        -12    1    3    3    0    0  0.41088825280E+01 -0.27145447593E+02  0.52419157999E+00  0.27459661642E+02  0.00000000000E+00 0.  1.
</event>
<event>
 7    1  0.1134395E-011  0.5930196E+02  0.7816164E-02  0.1266605E+00
        -11   -1    0    0    0    0  0.00000000000E+00  0.00000000000E+00  0.45593999997E+02  0.45594000000E+02  0.51100000000E-03 0. -1.
         11   -1    0    0    0    0 -0.00000000000E+00 -0.00000000000E+00 -0.45593999997E+02  0.45594000000E+02  0.51100000000E-03 0.  1.
    9900012    2    1    2    0    0 -0.24585944672E+02  0.20038173918E+02  0.32745131030E+01  0.59301960336E+02  0.50000029743E+02 0.  0.
         12    1    1    2    0    0  0.24585944672E+02 -0.20038173918E+02 -0.32745131030E+01  0.31886039664E+02  0.00000000000E+00 0. -1.
         11    1    3    3    0    0 -0.21061468183E+02  0.18764859683E+02  0.15790922930E+02  0.32327366861E+02  0.51100000000E-03 0. -1.
        -11    1    3    3    0    0  0.52561496937E+01  0.83308210224E+00  0.50465309414E+01  0.73340718701E+01  0.51100000000E-03 0.  1.
        -12    1    3    3    0    0 -0.87806261822E+01  0.44023213307E+00 -0.17562940768E+02  0.19640521605E+02  0.00000000000E+00 0.  1.
</event>
<event>
 7    1  0.1134395E-011  0.5930197E+02  0.7816164E-02  0.1266605E+00
        -11   -1    0    0    0    0  0.00000000000E+00  0.00000000000E+00  0.45593999997E+02  0.45594000000E+02  0.51100000000E-03 0. -1.
         11   -1    0    0    0    0 -0.00000000000E+00 -0.00000000000E+00 -0.45593999997E+02  0.45594000000E+02  0.51100000000E-03 0.  1.
    9900012    2    1    2    0    0 -0.83723038537E+01 -0.27663704532E+02 -0.13466362534E+02  0.59301969514E+02  0.50000046481E+02 0.  0.
         12    1    1    2    0    0  0.83723038537E+01  0.27663704532E+02  0.13466362534E+02  0.31886030486E+02  0.00000000000E+00 0. -1.
         11    1    3    3    0    0  0.12853866089E+01  0.78776969599E+01  0.52051054648E+01  0.95290844936E+01  0.51100000000E-03 0. -1.
        -11    1    3    3    0    0 -0.17435499366E+01 -0.76076655326E+01 -0.19209652734E+02  0.20734688319E+02  0.51100000000E-03 0.  1.
         12    1    3    3    0    0 -0.79141405259E+01 -0.27933735959E+02  0.53818473562E+00  0.29038196702E+02  0.00000000000E+00 0. -1.
</event>
<event>
 7    1  0.1134395E-011  0.5930190E+02  0.7816164E-02  0.1266605E+00
        -11   -1    0    0    0    0  0.00000000000E+00  0.00000000000E+00  0.45593999997E+02  0.45594000000E+02  0.51100000000E-03 0.  1.
         11   -1    0    0    0    0 -0.00000000000E+00 -0.00000000000E+00 -0.45593999997E+02  0.45594000000E+02  0.51100000000E-03 0. -1.
    9900012    2    1    2    0    0  0.38287577974E+01  0.31643968360E+02  0.85028331381E+00  0.59301904260E+02  0.49999927472E+02 0.  0.
         12    1    1    2    0    0 -0.38287577974E+01 -0.31643968360E+02 -0.85028331381E+00  0.31886095740E+02  0.00000000000E+00 0. -1.
         11    1    3    3    0    0 -0.35858134116E+01 -0.45738031061E+01 -0.85802770900E+01  0.10363343470E+02  0.51100000000E-03 0. -1.
        -11    1    3    3    0    0  0.17378041564E+01 -0.26073853238E+01 -0.60052735151E+01  0.67736055218E+01  0.51100000000E-03 0.  1.
        -12    1    3    3    0    0  0.56767670526E+01  0.38825156790E+02  0.15435833919E+02  0.42164955268E+02  0.00000000000E+00 0.  1.
</event>
<event>
 7    1  0.1134395E-011  0.5930201E+02  0.7816164E-02  0.1266605E+00
        -11   -1    0    0    0    0  0.00000000000E+00  0.00000000000E+00  0.45593999997E+02  0.45594000000E+02  0.51100000000E-03 0. -1.
         11   -1    0    0    0    0 -0.00000000000E+00 -0.00000000000E+00 -0.45593999997E+02  0.45594000000E+02  0.51100000000E-03 0.  1.
    9900012    2    1    2    0    0 -0.19328209037E+02 -0.18566047610E+02 -0.17275367606E+02  0.59302013825E+02  0.50000127294E+02 0.  0.
         12    1    1    2    0    0  0.19328209037E+02  0.18566047610E+02  0.17275367606E+02  0.31885986175E+02  0.00000000000E+00 0. -1.
         11    1    3    3    0    0  0.20363613455E+01 -0.75239643227E+01  0.90774360919E+01  0.11964808938E+02  0.51100000000E-03 0. -1.
        -11    1    3    3    0    0  0.28747003202E+01 -0.66523005879E+01  0.39751432703E+01  0.82655168817E+01  0.51100000000E-03 0.  1.
        -12    1    3    3    0    0 -0.24239270702E+02 -0.43897826991E+01 -0.30327946968E+02  0.39071688006E+02  0.00000000000E+00 0.  1.
</event>
<event>
 7    1  0.1134395E-011  0.5930193E+02  0.7816164E-02  0.1266605E+00
        -11   -1    0    0    0    0  0.00000000000E+00  0.00000000000E+00  0.45593999997E+02  0.45594000000E+02  0.51100000000E-03 0.  1.
         11   -1    0    0    0    0 -0.00000000000E+00 -0.00000000000E+00 -0.45593999997E+02  0.45594000000E+02  0.51100000000E-03 0. -1.
    9900012    2    1    2    0    0 -0.29995781751E+01 -0.30543431109E+02  0.86500241639E+01  0.59301928257E+02  0.49999971239E+02 0.  0.
         12    1    1    2    0    0  0.29995781751E+01  0.30543431109E+02 -0.86500241639E+01  0.31886071743E+02  0.00000000000E+00 0. -1.
         11    1    3    3    0    0 -0.80277758066E+01 -0.48514363604E+01  0.16508200722E+02  0.18986898391E+02  0.51100000000E-03 0. -1.
        -11    1    3    3    0    0 -0.65126213621E+01 -0.16987115629E+02 -0.15556759811E+02  0.23937190948E+02  0.51100000000E-03 0.  1.
         12    1    3    3    0    0  0.11540818994E+02 -0.87048791195E+01  0.76985832527E+01  0.16377838918E+02  0.00000000000E+00 0. -1.
</event>
<event>
 7    1  0.1134395E-011  0.5930195E+02  0.7816164E-02  0.1266605E+00
        -11   -1    0    0    0    0  0.00000000000E+00  0.00000000000E+00  0.45593999997E+02  0.45594000000E+02  0.51100000000E-03 0.  1.
         11   -1    0    0    0    0 -0.00000000000E+00 -0.00000000000E+00 -0.45593999997E+02  0.45594000000E+02  0.51100000000E-03 0. -1.
    9900012    2    1    2    0    0  0.71453750198E+01 -0.18322558266E+02  0.25098756275E+02  0.59301951450E+02  0.50000013536E+02 0.  0.
         12    1    1    2    0    0 -0.71453750198E+01  0.18322558266E+02 -0.25098756275E+02  0.31886048550E+02  0.00000000000E+00 0. -1.
         11    1    3    3    0    0 -0.85537033807E+00 -0.16274241364E+02  0.15823217136E+02  0.22714682282E+02  0.51100000000E-03 0. -1.
        -11    1    3    3    0    0  0.17167084204E+02 -0.31099541937E+01  0.17144192381E+02  0.24460251999E+02  0.51100000000E-03 0.  1.
         12    1    3    3    0    0 -0.91663388463E+01  0.10616372914E+01 -0.78686532423E+01  0.12127017170E+02  0.00000000000E+00 0. -1.
</event>
<event>
 7    1  0.1134395E-011  0.5930194E+02  0.7816164E-02  0.1266605E+00
        -11   -1    0    0    0    0  0.00000000000E+00  0.00000000000E+00  0.45593999997E+02  0.45594000000E+02  0.51100000000E-03 0.  1.
         11   -1    0    0    0    0 -0.00000000000E+00 -0.00000000000E+00 -0.45593999997E+02  0.45594000000E+02  0.51100000000E-03 0. -1.
    9900012    2    1    2    0    0  0.11024303453E+02 -0.19474940312E+02  0.22713700621E+02  0.59301940935E+02  0.49999994360E+02 0.  0.
         12    1    1    2    0    0 -0.11024303453E+02  0.19474940312E+02 -0.22713700621E+02  0.31886059065E+02  0.00000000000E+00 0. -1.
         11    1    3    3    0    0  0.27429756177E+01  0.78428377690E+01  0.24936319878E+02  0.26284102968E+02  0.51100000000E-03 0. -1.
        -11    1    3    3    0    0  0.31397353690E+01 -0.17100672383E+02  0.65746701855E+01  0.18588093566E+02  0.51100000000E-03 0.  1.
        -12    1    3    3    0    0  0.51415924667E+01 -0.10217105698E+02 -0.87972894428E+01  0.14429744401E+02  0.00000000000E+00 0.  1.
</event>
<event>
 7    1  0.1134395E-011  0.5930194E+02  0.7816164E-02  0.1266605E+00
        -11   -1    0    0    0    0  0.00000000000E+00  0.00000000000E+00  0.45593999997E+02  0.45594000000E+02  0.51100000000E-03 0.  1.
         11   -1    0    0    0    0 -0.00000000000E+00 -0.00000000000E+00 -0.45593999997E+02  0.45594000000E+02  0.51100000000E-03 0. -1.
    9900012    2    1    2    0    0  0.18731426065E+02  0.24395250878E+02  0.84098935274E+01  0.59301938830E+02  0.49999990520E+02 0.  0.
         12    1    1    2    0    0 -0.18731426065E+02 -0.24395250878E+02 -0.84098935274E+01  0.31886061170E+02  0.00000000000E+00 0. -1.
         11    1    3    3    0    0 -0.36282460261E+01  0.43470942976E+01  0.76283616934E+01  0.95001737060E+01  0.51100000000E-03 0. -1.
        -11    1    3    3    0    0  0.15152543117E+02  0.30578732658E+02  0.81221957093E+01  0.35080315239E+02  0.51100000000E-03 0.  1.
         12    1    3    3    0    0  0.72071289743E+01 -0.10530576078E+02 -0.73406638753E+01  0.14721449885E+02  0.00000000000E+00 0. -1.
</event>
<event>
 7    1  0.1134395E-011  0.5930192E+02  0.7816164E-02  0.1266605E+00
        -11   -1    0    0    0    0  0.00000000000E+00  0.00000000000E+00  0.45593999997E+02  0.45594000000E+02  0.51100000000E-03 0. -1.
         11   -1    0    0    0    0 -0.00000000000E+00 -0.00000000000E+00 -0.45593999997E+02  0.45594000000E+02  0.51100000000E-03 0.  1.
    9900012    2    1    2    0    0 -0.50434774723E+00  0.16551800853E+01 -0.31839095509E+02  0.59301921681E+02  0.49999959245E+02 0.  0.
         12    1    1    2    0    0  0.50434774723E+00 -0.16551800853E+01  0.31839095509E+02  0.31886078319E+02  0.00000000000E+00 0. -1.
         11    1    3    3    0    0 -0.48474491880E+01 -0.66690942307E+01 -0.14469819415E+01  0.83706832748E+01  0.51100000000E-03 0. -1.
        -11    1    3    3    0    0  0.11796083816E+01  0.11322089001E+02  0.69489099369E+01  0.13336735915E+02  0.51100000000E-03 0.  1.
        -12    1    3    3    0    0  0.31634930592E+01 -0.29978146853E+01 -0.37341023504E+02  0.37594502491E+02  0.00000000000E+00 0.  1.
</event>
<event>
 7    1  0.1134395E-011  0.5930188E+02  0.7816164E-02  0.1266605E+00
        -11   -1    0    0    0    0  0.00000000000E+00  0.00000000000E+00  0.45593999997E+02  0.45594000000E+02  0.51100000000E-03 0. -1.
         11   -1    0    0    0    0 -0.00000000000E+00 -0.00000000000E+00 -0.45593999997E+02  0.45594000000E+02  0.51100000000E-03 0.  1.
    9900012    2    1    2    0    0  0.15076566873E+02 -0.22238216264E+02 -0.17172175019E+02  0.59301878785E+02  0.49999881013E+02 0.  0.
         12    1    1    2    0    0 -0.15076566873E+02  0.22238216264E+02  0.17172175019E+02  0.31886121215E+02  0.00000000000E+00 0. -1.
         11    1    3    3    0    0  0.82626377498E+00  0.30227939187E+01  0.27288163411E+01  0.41552898558E+01  0.51100000000E-03 0. -1.
        -11    1    3    3    0    0  0.21586724635E+02 -0.19583037541E+02  0.40834384117E+01  0.29430537021E+02  0.51100000000E-03 0.  1.
        -12    1    3    3    0    0 -0.73364215371E+01 -0.56779726417E+01 -0.23984429772E+02  0.25716051909E+02  0.00000000000E+00 0.  1.
</event>
<event>
 7    1  0.1134395E-011  0.5930193E+02  0.7816164E-02  0.1266605E+00
        -11   -1    0    0    0    0  0.00000000000E+00  0.00000000000E+00  0.45593999997E+02  0.45594000000E+02  0.51100000000E-03 0. -1.
         11   -1    0    0    0    0 -0.00000000000E+00 -0.00000000000E+00 -0.45593999997E+02  0.45594000000E+02  0.51100000000E-03 0.  1.
    9900012    2    1    2    0    0 -0.14803067852E+02  0.17696397583E+02 -0.22009735251E+02  0.59301925436E+02  0.49999966094E+02 0.  0.
         12    1    1    2    0    0  0.14803067852E+02 -0.17696397583E+02  0.22009735251E+02  0.31886074564E+02  0.00000000000E+00 0. -1.
         11    1    3    3    0    0 -0.69172338174E+01  0.18340601570E+02 -0.39262198559E-01  0.19601717563E+02  0.51100000000E-03 0. -1.
        -11    1    3    3    0    0  0.55578071998E+01  0.20314902793E+01 -0.24975848429E+02  0.25667278364E+02  0.51100000000E-03 0.  1.
         12    1    3    3    0    0 -0.13443641235E+02 -0.26756942670E+01  0.30053753756E+01  0.14032929509E+02  0.00000000000E+00 0. -1.
</event>
<event>
 7    1  0.1134395E-011  0.5930196E+02  0.7816164E-02  0.1266605E+00
        -11   -1    0    0    0    0  0.00000000000E+00  0.00000000000E+00  0.45593999997E+02  0.45594000000E+02  0.51100000000E-03 0.  1.
         11   -1    0    0    0    0 -0.00000000000E+00 -0.00000000000E+00 -0.45593999997E+02  0.45594000000E+02  0.51100000000E-03 0. -1.
    9900012    2    1    2    0    0  0.17644413871E+02 -0.86455545814E+01  0.25112717268E+02  0.59301960367E+02  0.50000029799E+02 0.  0.
         12    1    1    2    0    0 -0.17644413871E+02  0.86455545814E+01 -0.25112717268E+02  0.31886039633E+02  0.00000000000E+00 0. -1.
         11    1    3    3    0    0  0.63789374687E+01  0.41292199194E+01 -0.36626156802E+00  0.76075914828E+01  0.51100000000E-03 0. -1.
        -11    1    3    3    0    0 -0.94388941262E+01  0.96387702378E+01  0.12978795942E+02  0.18720249955E+02  0.51100000000E-03 0.  1.
         12    1    3    3    0    0  0.20704370529E+02 -0.22413544739E+02  0.12500182894E+02  0.32974118929E+02  0.00000000000E+00 0. -1.
</event>
<event>
 7    1  0.1134395E-011  0.5930192E+02  0.7816164E-02  0.1266605E+00
        -11   -1    0    0    0    0  0.00000000000E+00  0.00000000000E+00  0.45593999997E+02  0.45594000000E+02  0.51100000000E-03 0.  1.
         11   -1    0    0    0    0 -0.00000000000E+00 -0.00000000000E+00 -0.45593999997E+02  0.45594000000E+02  0.51100000000E-03 0. -1.
    9900012    2    1    2    0    0 -0.18726695537E+02 -0.56851012573E+01  0.25173647607E+02  0.59301920970E+02  0.49999957948E+02 0.  0.
         12    1    1    2    0    0  0.18726695537E+02  0.56851012573E+01 -0.25173647607E+02  0.31886079030E+02  0.00000000000E+00 0. -1.
         11    1    3    3    0    0 -0.31678082785E+01  0.14219354910E+02 -0.32164980578E+01  0.14918811057E+02  0.51100000000E-03 0. -1.
        -11    1    3    3    0    0  0.36617241651E+01 -0.70067269892E+01  0.20112944081E+00  0.79084069367E+01  0.51100000000E-03 0.  1.
         12    1    3    3    0    0 -0.19220611424E+02 -0.12897729178E+02  0.28189016224E+02  0.36474702976E+02  0.00000000000E+00 0. -1.
</event>
<event>
 7    1  0.1134395E-011  0.5930192E+02  0.7816164E-02  0.1266605E+00
        -11   -1    0    0    0    0  0.00000000000E+00  0.00000000000E+00  0.45593999997E+02  0.45594000000E+02  0.51100000000E-03 0.  1.
         11   -1    0    0    0    0 -0.00000000000E+00 -0.00000000000E+00 -0.45593999997E+02  0.45594000000E+02  0.51100000000E-03 0. -1.
    9900012    2    1    2    0    0  0.23418122846E+02  0.29907958649E+00  0.21638492829E+02  0.59301916858E+02  0.49999950449E+02 0.  0.
         12    1    1    2    0    0 -0.23418122846E+02 -0.29907958649E+00 -0.21638492829E+02  0.31886083142E+02  0.00000000000E+00 0. -1.
         11    1    3    3    0    0 -0.66947861178E+00  0.56801313870E+01 -0.51806566401E+01  0.77169487279E+01  0.51100000000E-03 0. -1.
        -11    1    3    3    0    0  0.40984764080E+00 -0.27899866559E+00  0.27353375274E+02  0.27357868237E+02  0.51100000000E-03 0.  1.
        -12    1    3    3    0    0  0.23677753817E+02 -0.51020531349E+01 -0.53422580491E+00  0.24227099893E+02  0.00000000000E+00 0.  1.
</event>
<event>
 7    1  0.1134395E-011  0.5930198E+02  0.7816164E-02  0.1266605E+00
        -11   -1    0    0    0    0  0.00000000000E+00  0.00000000000E+00  0.45593999997E+02  0.45594000000E+02  0.51100000000E-03 0. -1.
         11   -1    0    0    0    0 -0.00000000000E+00 -0.00000000000E+00 -0.45593999997E+02  0.45594000000E+02  0.51100000000E-03 0.  1.
    9900012    2    1    2    0    0  0.12908689990E+02 -0.28999819957E+02  0.30157303567E+01  0.59301976975E+02  0.50000060087E+02 0.  0.
         12    1    1    2    0    0 -0.12908689990E+02  0.28999819957E+02 -0.30157303567E+01  0.31886023025E+02  0.00000000000E+00 0. -1.
         11    1    3    3    0    0  0.81760075343E+01  0.83738568380E+01  0.33332605122E+01  0.12168779867E+02  0.51100000000E-03 0. -1.
        -11    1    3    3    0    0 -0.11241613504E+02 -0.13785387836E+02 -0.44772919696E+01  0.18342762485E+02  0.51100000000E-03 0.  1.
         12    1    3    3    0    0  0.15974295959E+02 -0.23588288959E+02  0.41597618141E+01  0.28790434623E+02  0.00000000000E+00 0. -1.
</event>
<event>
 7    1  0.1134395E-011  0.5930221E+02  0.7816164E-02  0.1266604E+00
        -11   -1    0    0    0    0  0.00000000000E+00  0.00000000000E+00  0.45593999997E+02  0.45594000000E+02  0.51100000000E-03 0.  1.
         11   -1    0    0    0    0 -0.00000000000E+00 -0.00000000000E+00 -0.45593999997E+02  0.45594000000E+02  0.51100000000E-03 0. -1.
    9900012    2    1    2    0    0  0.20176200271E+02  0.23930713615E+02 -0.60782701481E+01  0.59302211951E+02  0.50000488625E+02 0.  0.
         12    1    1    2    0    0 -0.20176200271E+02 -0.23930713615E+02  0.60782701481E+01  0.31885788049E+02  0.00000000000E+00 0. -1.
         11    1    3    3    0    0  0.47287661042E+01 -0.43840929380E+01  0.14283959145E+02  0.15672044821E+02  0.51100000000E-03 0. -1.
        -11    1    3    3    0    0  0.16857286989E+02  0.91719871851E+01 -0.12406897577E+02  0.22852233617E+02  0.51100000000E-03 0.  1.
        -12    1    3    3    0    0 -0.14098528217E+01  0.19142819368E+02 -0.79553317156E+01  0.20777933512E+02  0.00000000000E+00 0.  1.
</event>
<event>
 7    1  0.1134395E-011  0.5930199E+02  0.7816164E-02  0.1266605E+00
        -11   -1    0    0    0    0  0.00000000000E+00  0.00000000000E+00  0.45593999997E+02  0.45594000000E+02  0.51100000000E-03 0.  1.
         11   -1    0    0    0    0 -0.00000000000E+00 -0.00000000000E+00 -0.45593999997E+02  0.45594000000E+02  0.51100000000E-03 0. -1.
    9900012    2    1    2    0    0 -0.29284456620E+02 -0.97693966502E+00  0.12577111449E+02  0.59301991422E+02  0.50000086435E+02 0.  0.
         12    1    1    2    0    0  0.29284456620E+02  0.97693966502E+00 -0.12577111449E+02  0.31886008578E+02  0.00000000000E+00 0. -1.
         11    1    3    3    0    0 -0.19974568403E+00  0.52085438946E+01 -0.87669369042E+01  0.10199412276E+02  0.51100000000E-03 0. -1.
        -11    1    3    3    0    0 -0.17823870393E+01  0.10167597854E+02 -0.76577170728E+00  0.10351007500E+02  0.51100000000E-03 0.  1.
        -12    1    3    3    0    0 -0.27302323897E+02 -0.16353081414E+02  0.22109820061E+02  0.38751571646E+02  0.00000000000E+00 0.  1.
</event>
<event>
 7    1  0.1134395E-011  0.5930195E+02  0.7816164E-02  0.1266605E+00
        -11   -1    0    0    0    0  0.00000000000E+00  0.00000000000E+00  0.45593999997E+02  0.45594000000E+02  0.51100000000E-03 0. -1.
         11   -1    0    0    0    0 -0.00000000000E+00 -0.00000000000E+00 -0.45593999997E+02  0.45594000000E+02  0.51100000000E-03 0.  1.
    9900012    2    1    2    0    0  0.10672914238E+02  0.34819522649E+01 -0.29844343698E+02  0.59301953825E+02  0.50000017869E+02 0.  0.
         12    1    1    2    0    0 -0.10672914238E+02 -0.34819522649E+01  0.29844343698E+02  0.31886046175E+02  0.00000000000E+00 0. -1.
         11    1    3    3    0    0  0.89745643086E+01 -0.31050792611E+01  0.40103002195E+01  0.10308580400E+02  0.51100000000E-03 0. -1.
        -11    1    3    3    0    0  0.14606666181E+02  0.12420676695E+02 -0.27361543868E+02  0.33410806479E+02  0.51100000000E-03 0.  1.
         12    1    3    3    0    0 -0.12908316252E+02 -0.58336451685E+01 -0.64931000495E+01  0.15582566947E+02  0.00000000000E+00 0. -1.
</event>
<event>
 7    1  0.1134395E-011  0.5930197E+02  0.7816164E-02  0.1266605E+00
        -11   -1    0    0    0    0  0.00000000000E+00  0.00000000000E+00  0.45593999997E+02  0.45594000000E+02  0.51100000000E-03 0. -1.
         11   -1    0    0    0    0 -0.00000000000E+00 -0.00000000000E+00 -0.45593999997E+02  0.45594000000E+02  0.51100000000E-03 0.  1.
    9900012    2    1    2    0    0 -0.18537372876E+02  0.25075107052E+02  0.66576188145E+01  0.59301967398E+02  0.50000042621E+02 0.  0.
         12    1    1    2    0    0  0.18537372876E+02 -0.25075107052E+02 -0.66576188145E+01  0.31886032602E+02  0.00000000000E+00 0. -1.
         11    1    3    3    0    0 -0.12111970584E+01  0.13650205958E+02  0.64391249938E+01  0.15141250013E+02  0.51100000000E-03 0. -1.
        -11    1    3    3    0    0  0.58941622763E+01  0.25986720170E+01 -0.14090475587E+02  0.15493087095E+02  0.51100000000E-03 0.  1.
        -12    1    3    3    0    0 -0.23220338094E+02  0.88262290772E+01  0.14308969408E+02  0.28667630290E+02  0.00000000000E+00 0.  1.
</event>
<event>
 7    1  0.1134395E-011  0.5930194E+02  0.7816164E-02  0.1266605E+00
        -11   -1    0    0    0    0  0.00000000000E+00  0.00000000000E+00  0.45593999997E+02  0.45594000000E+02  0.51100000000E-03 0.  1.
         11   -1    0    0    0    0 -0.00000000000E+00 -0.00000000000E+00 -0.45593999997E+02  0.45594000000E+02  0.51100000000E-03 0. -1.
    9900012    2    1    2    0    0  0.20330864382E+01 -0.31802187308E+02 -0.10991998209E+01  0.59301940377E+02  0.49999993341E+02 0.  0.
         12    1    1    2    0    0 -0.20330864382E+01  0.31802187308E+02  0.10991998209E+01  0.31886059623E+02  0.00000000000E+00 0. -1.
         11    1    3    3    0    0 -0.49968851417E+01 -0.40068296888E+02 -0.11768629672E+02  0.42058743695E+02  0.51100000000E-03 0. -1.
        -11    1    3    3    0    0  0.26964306217E+01 -0.12993317888E+01  0.17643032956E+01  0.34744449305E+01  0.51100000000E-03 0.  1.
        -12    1    3    3    0    0  0.43335409582E+01  0.95654413683E+01  0.89051265554E+01  0.13768751751E+02  0.00000000000E+00 0.  1.
</event>
<event>
 7    1  0.1134395E-011  0.5930196E+02  0.7816164E-02  0.1266605E+00
        -11   -1    0    0    0    0  0.00000000000E+00  0.00000000000E+00  0.45593999997E+02  0.45594000000E+02  0.51100000000E-03 0. -1.
         11   -1    0    0    0    0 -0.00000000000E+00 -0.00000000000E+00 -0.45593999997E+02  0.45594000000E+02  0.51100000000E-03 0.  1.
    9900012    2    1    2    0    0  0.25627614437E+02  0.16862027649E+01 -0.18897136491E+02  0.59301958084E+02  0.50000025636E+02 0.  0.
         12    1    1    2    0    0 -0.25627614437E+02 -0.16862027649E+01  0.18897136491E+02  0.31886041916E+02  0.00000000000E+00 0. -1.
         11    1    3    3    0    0  0.16741374901E+02  0.35634626924E+01 -0.20685135211E+02  0.26848588769E+02  0.51100000000E-03 0. -1.
        -11    1    3    3    0    0 -0.18314194624E+01  0.13519935517E+02  0.84620653139E+00  0.13669631282E+02  0.51100000000E-03 0.  1.
         12    1    3    3    0    0  0.10717658999E+02 -0.15397195444E+02  0.94179218939E+00  0.18783738033E+02  0.00000000000E+00 0. -1.
</event>
<event>
 7    1  0.1134395E-011  0.5930189E+02  0.7816164E-02  0.1266605E+00
        -11   -1    0    0    0    0  0.00000000000E+00  0.00000000000E+00  0.45593999997E+02  0.45594000000E+02  0.51100000000E-03 0.  1.
         11   -1    0    0    0    0 -0.00000000000E+00 -0.00000000000E+00 -0.45593999997E+02  0.45594000000E+02  0.51100000000E-03 0. -1.
    9900012    2    1    2    0    0  0.25284980178E+02 -0.18892562333E+02  0.45237846327E+01  0.59301893911E+02  0.49999908600E+02 0.  0.
         12    1    1    2    0    0 -0.25284980178E+02  0.18892562333E+02 -0.45237846327E+01  0.31886106089E+02  0.00000000000E+00 0. -1.
         11    1    3    3    0    0  0.96545461792E+01 -0.17448104574E+02  0.21429929865E+02  0.29272658052E+02  0.51100000000E-03 0. -1.
        -11    1    3    3    0    0  0.10871987557E+02  0.12232996287E+01  0.13053880702E+01  0.11018194666E+02  0.51100000000E-03 0.  1.
         12    1    3    3    0    0  0.47584464423E+01 -0.26677573870E+01 -0.18211533303E+02  0.19011041193E+02  0.00000000000E+00 0. -1.
</event>
<event>
 7    1  0.1134395E-011  0.5930196E+02  0.7816164E-02  0.1266605E+00
        -11   -1    0    0    0    0  0.00000000000E+00  0.00000000000E+00  0.45593999997E+02  0.45594000000E+02  0.51100000000E-03 0. -1.
         11   -1    0    0    0    0 -0.00000000000E+00 -0.00000000000E+00 -0.45593999997E+02  0.45594000000E+02  0.51100000000E-03 0.  1.
    9900012    2    1    2    0    0  0.88474581628E+01 -0.27865489649E+02 -0.12726217909E+02  0.59301958358E+02  0.50000026135E+02 0.  0.
         12    1    1    2    0    0 -0.88474581628E+01  0.27865489649E+02  0.12726217909E+02  0.31886041642E+02  0.00000000000E+00 0. -1.
         11    1    3    3    0    0 -0.18601987741E+01 -0.20314830296E+02 -0.10406392818E+02  0.22900779052E+02  0.51100000000E-03 0. -1.
        -11    1    3    3    0    0  0.14050558485E+02  0.53749975661E+01 -0.12542250551E+02  0.19586139020E+02  0.51100000000E-03 0.  1.
         12    1    3    3    0    0 -0.33429015482E+01 -0.12925656919E+02  0.10222425460E+02  0.16815040286E+02  0.00000000000E+00 0. -1.
</event>
<event>
 7    1  0.1134395E-011  0.5930196E+02  0.7816164E-02  0.1266605E+00
        -11   -1    0    0    0    0  0.00000000000E+00  0.00000000000E+00  0.45593999997E+02  0.45594000000E+02  0.51100000000E-03 0. -1.
         11   -1    0    0    0    0 -0.00000000000E+00 -0.00000000000E+00 -0.45593999997E+02  0.45594000000E+02  0.51100000000E-03 0.  1.
    9900012    2    1    2    0    0 -0.88634128774E+01  0.29377214976E+02 -0.86682444777E+01  0.59301963716E+02  0.50000035907E+02 0.  0.
         12    1    1    2    0    0  0.88634128774E+01 -0.29377214976E+02  0.86682444777E+01  0.31886036284E+02  0.00000000000E+00 0. -1.
         11    1    3    3    0    0 -0.13852514897E+02 -0.27884503909E+01 -0.18641047053E+01  0.14252807133E+02  0.51100000000E-03 0. -1.
        -11    1    3    3    0    0  0.12561698274E+02  0.13066933152E+01 -0.34866013495E+01  0.13101912081E+02  0.51100000000E-03 0.  1.
         12    1    3    3    0    0 -0.75725962541E+01  0.30858972051E+02 -0.33175384228E+01  0.31947244502E+02  0.00000000000E+00 0. -1.
</event>
<event>
 7    1  0.1134395E-011  0.5930195E+02  0.7816164E-02  0.1266605E+00
        -11   -1    0    0    0    0  0.00000000000E+00  0.00000000000E+00  0.45593999997E+02  0.45594000000E+02  0.51100000000E-03 0. -1.
         11   -1    0    0    0    0 -0.00000000000E+00 -0.00000000000E+00 -0.45593999997E+02  0.45594000000E+02  0.51100000000E-03 0.  1.
    9900012    2    1    2    0    0 -0.71253846387E+01 -0.29406456364E+02 -0.10060281260E+02  0.59301952249E+02  0.50000014994E+02 0.  0.
         12    1    1    2    0    0  0.71253846387E+01  0.29406456364E+02  0.10060281260E+02  0.31886047751E+02  0.00000000000E+00 0. -1.
         11    1    3    3    0    0  0.13761326795E+02 -0.59109209849E+01 -0.87629973921E+01  0.17352326230E+02  0.51100000000E-03 0. -1.
        -11    1    3    3    0    0  0.18692905185E+01 -0.22291156750E+01 -0.93391943708E+01  0.97818073735E+01  0.51100000000E-03 0.  1.
        -12    1    3    3    0    0 -0.22756001952E+02 -0.21266419704E+02  0.80419105029E+01  0.32167818646E+02  0.00000000000E+00 0.  1.
</event>
<event>
 7    1  0.1134395E-011  0.5930194E+02  0.7816164E-02  0.1266605E+00
        -11   -1    0    0    0    0  0.00000000000E+00  0.00000000000E+00  0.45593999997E+02  0.45594000000E+02  0.51100000000E-03 0.  1.
         11   -1    0    0    0    0 -0.00000000000E+00 -0.00000000000E+00 -0.45593999997E+02  0.45594000000E+02  0.51100000000E-03 0. -1.
    9900012    2    1    2    0    0 -0.22460640639E+02  0.19973985607E+02 -0.10643319309E+02  0.59301941529E+02  0.49999995442E+02 0.  0.
         12    1    1    2    0    0  0.22460640639E+02 -0.19973985607E+02  0.10643319309E+02  0.31886058471E+02  0.00000000000E+00 0. -1.
         11    1    3    3    0    0 -0.16555319630E+02  0.25772150139E+01 -0.11171862669E+02  0.20137804275E+02  0.51100000000E-03 0. -1.
        -11    1    3    3    0    0 -0.19530594619E+02  0.65181496363E+01  0.49513270175E+01  0.21176544580E+02  0.51100000000E-03 0.  1.
        -12    1    3    3    0    0  0.13625273611E+02  0.10878620957E+02 -0.44227836578E+01  0.17987592673E+02  0.00000000000E+00 0.  1.
</event>
<event>
 7    1  0.1134395E-011  0.5930195E+02  0.7816164E-02  0.1266605E+00
        -11   -1    0    0    0    0  0.00000000000E+00  0.00000000000E+00  0.45593999997E+02  0.45594000000E+02  0.51100000000E-03 0. -1.
         11   -1    0    0    0    0 -0.00000000000E+00 -0.00000000000E+00 -0.45593999997E+02  0.45594000000E+02  0.51100000000E-03 0.  1.
    9900012    2    1    2    0    0 -0.45360461683E+01  0.31558959444E+02 -0.42016557013E+00  0.59301950148E+02  0.50000011162E+02 0.  0.
         12    1    1    2    0    0  0.45360461683E+01 -0.31558959444E+02  0.42016557013E+00  0.31886049852E+02  0.00000000000E+00 0. -1.
         11    1    3    3    0    0 -0.10614190993E+02  0.20713884424E+01 -0.15307279875E+02  0.18742052128E+02  0.51100000000E-03 0. -1.
        -11    1    3    3    0    0  0.34937271668E+01 -0.32328204282E+01  0.31231438824E+01  0.56930910241E+01  0.51100000000E-03 0.  1.
         12    1    3    3    0    0  0.25844176584E+01  0.32720391430E+02  0.11763970423E+02  0.34866806996E+02  0.00000000000E+00 0. -1.
</event>
<event>
 7    1  0.1134395E-011  0.5930196E+02  0.7816164E-02  0.1266605E+00
        -11   -1    0    0    0    0  0.00000000000E+00  0.00000000000E+00  0.45593999997E+02  0.45594000000E+02  0.51100000000E-03 0.  1.
         11   -1    0    0    0    0 -0.00000000000E+00 -0.00000000000E+00 -0.45593999997E+02  0.45594000000E+02  0.51100000000E-03 0. -1.
    9900012    2    1    2    0    0  0.15847370747E+01 -0.13607030336E+02  0.28793353166E+02  0.59301955205E+02  0.50000020384E+02 0.  0.
         12    1    1    2    0    0 -0.15847370747E+01  0.13607030336E+02 -0.28793353166E+02  0.31886044795E+02  0.00000000000E+00 0. -1.
         11    1    3    3    0    0  0.70505036083E+01 -0.52152474706E+01  0.15379879732E+02  0.17704494010E+02  0.51100000000E-03 0. -1.
        -11    1    3    3    0    0  0.10016305821E+02 -0.58796407784E+01  0.21134385442E+02  0.24115530395E+02  0.51100000000E-03 0.  1.
         12    1    3    3    0    0 -0.15482072354E+02 -0.25121420867E+01 -0.77209120079E+01  0.17481930800E+02  0.00000000000E+00 0. -1.
</event>
<event>
 7    1  0.1134395E-011  0.5930194E+02  0.7816164E-02  0.1266605E+00
        -11   -1    0    0    0    0  0.00000000000E+00  0.00000000000E+00  0.45593999997E+02  0.45594000000E+02  0.51100000000E-03 0.  1.
         11   -1    0    0    0    0 -0.00000000000E+00 -0.00000000000E+00 -0.45593999997E+02  0.45594000000E+02  0.51100000000E-03 0. -1.
    9900012    2    1    2    0    0  0.29312206570E+02  0.12451009203E+02 -0.15772326647E+01  0.59301941180E+02  0.49999994806E+02 0.  0.
         12    1    1    2    0    0 -0.29312206570E+02 -0.12451009203E+02  0.15772326647E+01  0.31886058820E+02  0.00000000000E+00 0. -1.
         11    1    3    3    0    0  0.25031252287E+01 -0.72162438210E+01  0.30232220949E+01  0.82146018097E+01  0.51100000000E-03 0. -1.
        -11    1    3    3    0    0  0.15654510072E+02 -0.82424921973E+01  0.67830354799E+01  0.18947610240E+02  0.51100000000E-03 0.  1.
         12    1    3    3    0    0  0.11154571269E+02  0.27909745222E+02 -0.11383490239E+02  0.32139729130E+02  0.00000000000E+00 0. -1.
</event>
<event>
 7    1  0.1134395E-011  0.5930190E+02  0.7816164E-02  0.1266605E+00
        -11   -1    0    0    0    0  0.00000000000E+00  0.00000000000E+00  0.45593999997E+02  0.45594000000E+02  0.51100000000E-03 0. -1.
         11   -1    0    0    0    0 -0.00000000000E+00 -0.00000000000E+00 -0.45593999997E+02  0.45594000000E+02  0.51100000000E-03 0.  1.
    9900012    2    1    2    0    0 -0.99725116917E+01  0.95482444935E+01 -0.28742015102E+02  0.59301899667E+02  0.49999919096E+02 0.  0.
         12    1    1    2    0    0  0.99725116917E+01 -0.95482444935E+01  0.28742015102E+02  0.31886100333E+02  0.00000000000E+00 0. -1.
         11    1    3    3    0    0 -0.77267096378E+01 -0.69353550261E+01  0.26057690824E+01  0.10704729045E+02  0.51100000000E-03 0. -1.
        -11    1    3    3    0    0 -0.13008036065E+01 -0.74018417182E+01  0.18014073806E+01  0.77281575848E+01  0.51100000000E-03 0.  1.
         12    1    3    3    0    0 -0.94499844748E+00  0.23885441238E+02 -0.33149191565E+02  0.40869013037E+02  0.00000000000E+00 0. -1.
</event>
<event>
 7    1  0.1134395E-011  0.5930197E+02  0.7816164E-02  0.1266605E+00
        -11   -1    0    0    0    0  0.00000000000E+00  0.00000000000E+00  0.45593999997E+02  0.45594000000E+02  0.51100000000E-03 0. -1.
         11   -1    0    0    0    0 -0.00000000000E+00 -0.00000000000E+00 -0.45593999997E+02  0.45594000000E+02  0.51100000000E-03 0.  1.
    9900012    2    1    2    0    0  0.78310124894E+01  0.30246699373E+02 -0.63664325941E+01  0.59301967893E+02  0.50000043524E+02 0.  0.
         12    1    1    2    0    0 -0.78310124894E+01 -0.30246699373E+02  0.63664325941E+01  0.31886032107E+02  0.00000000000E+00 0. -1.
         11    1    3    3    0    0 -0.61318324567E+01  0.14006206901E+02  0.45456683584E+01  0.15951059592E+02  0.51100000000E-03 0. -1.
        -11    1    3    3    0    0  0.82585743107E+01  0.27579269293E+02 -0.10523095566E+02  0.30652172597E+02  0.51100000000E-03 0.  1.
         12    1    3    3    0    0  0.57042706354E+01 -0.11338776821E+02 -0.38900538671E+00  0.12698735703E+02  0.00000000000E+00 0. -1.
</event>
<event>
 7    1  0.1134395E-011  0.5930193E+02  0.7816164E-02  0.1266605E+00
        -11   -1    0    0    0    0  0.00000000000E+00  0.00000000000E+00  0.45593999997E+02  0.45594000000E+02  0.51100000000E-03 0. -1.
         11   -1    0    0    0    0 -0.00000000000E+00 -0.00000000000E+00 -0.45593999997E+02  0.45594000000E+02  0.51100000000E-03 0.  1.
    9900012    2    1    2    0    0  0.18381453227E+02  0.16654820412E+02 -0.20036489503E+02  0.59301925025E+02  0.49999965344E+02 0.  0.
         12    1    1    2    0    0 -0.18381453227E+02 -0.16654820412E+02  0.20036489503E+02  0.31886074975E+02  0.00000000000E+00 0. -1.
         11    1    3    3    0    0 -0.33157981108E+01  0.41753415780E+00 -0.91382891231E+00  0.34646695984E+01  0.51100000000E-03 0. -1.
        -11    1    3    3    0    0  0.88514488205E+01  0.95301880144E+01 -0.33185950721E+02  0.35643792662E+02  0.51100000000E-03 0.  1.
         12    1    3    3    0    0  0.12845802518E+02  0.67070982398E+01  0.14063290131E+02  0.20193462765E+02  0.00000000000E+00 0. -1.
</event>
<event>
 7    1  0.1134395E-011  0.5930195E+02  0.7816164E-02  0.1266605E+00
        -11   -1    0    0    0    0  0.00000000000E+00  0.00000000000E+00  0.45593999997E+02  0.45594000000E+02  0.51100000000E-03 0.  1.
         11   -1    0    0    0    0 -0.00000000000E+00 -0.00000000000E+00 -0.45593999997E+02  0.45594000000E+02  0.51100000000E-03 0. -1.
    9900012    2    1    2    0    0 -0.64607727102E+01  0.18740714945E+02  0.24975273287E+02  0.59301948874E+02  0.50000008839E+02 0.  0.
         12    1    1    2    0    0  0.64607727102E+01 -0.18740714945E+02 -0.24975273287E+02  0.31886051126E+02  0.00000000000E+00 0. -1.
         11    1    3    3    0    0 -0.13181411113E+02  0.14243170361E+02  0.14006898809E+01  0.19457117805E+02  0.51100000000E-03 0. -1.
        -11    1    3    3    0    0 -0.77707784675E+01  0.11418573376E+02  0.18329224833E+02  0.22950583852E+02  0.51100000000E-03 0.  1.
         12    1    3    3    0    0  0.14491416870E+02 -0.69210287923E+01  0.52453585728E+01  0.16894247217E+02  0.00000000000E+00 0. -1.
</event>
<event>
 7    1  0.1134395E-011  0.5930186E+02  0.7816164E-02  0.1266605E+00
        -11   -1    0    0    0    0  0.00000000000E+00  0.00000000000E+00  0.45593999997E+02  0.45594000000E+02  0.51100000000E-03 0.  1.
         11   -1    0    0    0    0 -0.00000000000E+00 -0.00000000000E+00 -0.45593999997E+02  0.45594000000E+02  0.51100000000E-03 0. -1.
    9900012    2    1    2    0    0 -0.53475685517E+00 -0.21152401523E+02  0.23854049757E+02  0.59301862810E+02  0.49999851878E+02 0.  0.
         12    1    1    2    0    0  0.53475685517E+00  0.21152401523E+02 -0.23854049757E+02  0.31886137190E+02  0.00000000000E+00 0. -1.
         11    1    3    3    0    0 -0.34186460927E+01 -0.19312523200E+01  0.96210170127E+01  0.10391383221E+02  0.51100000000E-03 0. -1.
        -11    1    3    3    0    0 -0.22241311584E+01  0.95858900186E+00  0.25245075049E+02  0.25360983159E+02  0.51100000000E-03 0.  1.
         12    1    3    3    0    0  0.51080203959E+01 -0.20179738205E+02 -0.11012042305E+02  0.23549496430E+02  0.00000000000E+00 0. -1.
</event>
<event>
 7    1  0.1134395E-011  0.5930191E+02  0.7816164E-02  0.1266605E+00
        -11   -1    0    0    0    0  0.00000000000E+00  0.00000000000E+00  0.45593999997E+02  0.45594000000E+02  0.51100000000E-03 0. -1.
         11   -1    0    0    0    0 -0.00000000000E+00 -0.00000000000E+00 -0.45593999997E+02  0.45594000000E+02  0.51100000000E-03 0.  1.
    9900012    2    1    2    0    0  0.11348264189E+02  0.26274268469E+02 -0.14057116182E+02  0.59301909003E+02  0.49999936124E+02 0.  0.
         12    1    1    2    0    0 -0.11348264189E+02 -0.26274268469E+02  0.14057116182E+02  0.31886090997E+02  0.00000000000E+00 0. -1.
         11    1    3    3    0    0 -0.32038300556E+01  0.46064581284E+00  0.20687259391E+00  0.32433806624E+01  0.51100000000E-03 0. -1.
        -11    1    3    3    0    0 -0.43994308973E+01 -0.11448110916E+02 -0.15395196553E+01  0.12360596943E+02  0.51100000000E-03 0.  1.
        -12    1    3    3    0    0  0.18951525142E+02  0.37261733572E+02 -0.12724469120E+02  0.43697931398E+02  0.00000000000E+00 0.  1.
</event>
<event>
 7    1  0.1134395E-011  0.5930194E+02  0.7816164E-02  0.1266605E+00
        -11   -1    0    0    0    0  0.00000000000E+00  0.00000000000E+00  0.45593999997E+02  0.45594000000E+02  0.51100000000E-03 0. -1.
         11   -1    0    0    0    0 -0.00000000000E+00 -0.00000000000E+00 -0.45593999997E+02  0.45594000000E+02  0.51100000000E-03 0.  1.
    9900012    2    1    2    0    0 -0.92983352155E+01  0.25438288531E+02 -0.16827220672E+02  0.59301938520E+02  0.49999989955E+02 0.  0.
         12    1    1    2    0    0  0.92983352155E+01 -0.25438288531E+02  0.16827220672E+02  0.31886061480E+02  0.00000000000E+00 0. -1.
         11    1    3    3    0    0  0.42712966248E+01 -0.58499272899E+01 -0.38030928661E+00  0.72532930155E+01  0.51100000000E-03 0. -1.
        -11    1    3    3    0    0  0.10473392075E+02  0.15991002696E+02 -0.13495346832E+02  0.23399326810E+02  0.51100000000E-03 0.  1.
         12    1    3    3    0    0 -0.24043023915E+02  0.15297213124E+02 -0.29515645539E+01  0.28649318695E+02  0.00000000000E+00 0. -1.
</event>
<event>
 7    1  0.1134395E-011  0.5930192E+02  0.7816164E-02  0.1266605E+00
        -11   -1    0    0    0    0  0.00000000000E+00  0.00000000000E+00  0.45593999997E+02  0.45594000000E+02  0.51100000000E-03 0. -1.
         11   -1    0    0    0    0 -0.00000000000E+00 -0.00000000000E+00 -0.45593999997E+02  0.45594000000E+02  0.51100000000E-03 0.  1.
    9900012    2    1    2    0    0  0.39032866987E+01  0.21734151963E+02 -0.23002462104E+02  0.59301917277E+02  0.49999951213E+02 0.  0.
         12    1    1    2    0    0 -0.39032866987E+01 -0.21734151963E+02  0.23002462104E+02  0.31886082723E+02  0.00000000000E+00 0. -1.
         11    1    3    3    0    0 -0.44874636571E+01  0.14105557425E+02  0.13016575902E+02  0.19711299521E+02  0.51100000000E-03 0. -1.
        -11    1    3    3    0    0 -0.16928069592E+01 -0.14346214998E+01 -0.20707103613E+01  0.30350578100E+01  0.51100000000E-03 0.  1.
        -12    1    3    3    0    0  0.10083557315E+02  0.90632160381E+01 -0.33948327645E+02  0.36555559946E+02  0.00000000000E+00 0.  1.
</event>
<event>
 7    1  0.1134395E-011  0.5930196E+02  0.7816164E-02  0.1266605E+00
        -11   -1    0    0    0    0  0.00000000000E+00  0.00000000000E+00  0.45593999997E+02  0.45594000000E+02  0.51100000000E-03 0.  1.
         11   -1    0    0    0    0 -0.00000000000E+00 -0.00000000000E+00 -0.45593999997E+02  0.45594000000E+02  0.51100000000E-03 0. -1.
    9900012    2    1    2    0    0 -0.14114093477E+01 -0.22245195487E+02  0.22800855196E+02  0.59301956089E+02  0.50000021997E+02 0.  0.
         12    1    1    2    0    0  0.14114093477E+01  0.22245195487E+02 -0.22800855196E+02  0.31886043911E+02  0.00000000000E+00 0. -1.
         11    1    3    3    0    0 -0.84641554505E+01 -0.14486742820E+02  0.15921643756E+02  0.23130205040E+02  0.51100000000E-03 0. -1.
        -11    1    3    3    0    0 -0.14890950149E+01 -0.16400195586E+02  0.14405126819E+02  0.21879019588E+02  0.51100000000E-03 0.  1.
         12    1    3    3    0    0  0.85418411177E+01  0.86417429187E+01 -0.75259153784E+01  0.14292731462E+02  0.00000000000E+00 0. -1.
</event>
<event>
 7    1  0.1134395E-011  0.5930191E+02  0.7816164E-02  0.1266605E+00
        -11   -1    0    0    0    0  0.00000000000E+00  0.00000000000E+00  0.45593999997E+02  0.45594000000E+02  0.51100000000E-03 0. -1.
         11   -1    0    0    0    0 -0.00000000000E+00 -0.00000000000E+00 -0.45593999997E+02  0.45594000000E+02  0.51100000000E-03 0.  1.
    9900012    2    1    2    0    0  0.24726714898E+02 -0.82423830373E+00 -0.20115497233E+02  0.59301905423E+02  0.49999929595E+02 0.  0.
         12    1    1    2    0    0 -0.24726714898E+02  0.82423830373E+00  0.20115497233E+02  0.31886094577E+02  0.00000000000E+00 0. -1.
         11    1    3    3    0    0 -0.10040148716E+01  0.15139954759E+00  0.35582309017E+01  0.37002668953E+01  0.51100000000E-03 0. -1.
        -11    1    3    3    0    0  0.82638752441E+01 -0.29922578630E+01  0.12558486726E+02  0.15328432088E+02  0.51100000000E-03 0.  1.
        -12    1    3    3    0    0  0.17466854526E+02  0.20166200117E+01 -0.36232214860E+02  0.40273206440E+02  0.00000000000E+00 0.  1.
</event>
<event>
 7    1  0.1134395E-011  0.5930193E+02  0.7816164E-02  0.1266605E+00
        -11   -1    0    0    0    0  0.00000000000E+00  0.00000000000E+00  0.45593999997E+02  0.45594000000E+02  0.51100000000E-03 0.  1.
         11   -1    0    0    0    0 -0.00000000000E+00 -0.00000000000E+00 -0.45593999997E+02  0.45594000000E+02  0.51100000000E-03 0. -1.
    9900012    2    1    2    0    0  0.88687108381E+00  0.13218990567E+02  0.29003329540E+02  0.59301931312E+02  0.49999976810E+02 0.  0.
         12    1    1    2    0    0 -0.88687108381E+00 -0.13218990567E+02 -0.29003329540E+02  0.31886068688E+02  0.00000000000E+00 0. -1.
         11    1    3    3    0    0  0.45453249716E+01  0.36955677395E+01 -0.37646474128E+01  0.69634596587E+01  0.51100000000E-03 0. -1.
        -11    1    3    3    0    0  0.13882926979E+02 -0.29876808722E+01  0.26221501643E+02  0.29819943782E+02  0.51100000000E-03 0.  1.
        -12    1    3    3    0    0 -0.17541380867E+02  0.12511103700E+02  0.65464753103E+01  0.22518527871E+02  0.00000000000E+00 0.  1.
</event>
<event>
 7    1  0.1134395E-011  0.5930195E+02  0.7816164E-02  0.1266605E+00
        -11   -1    0    0    0    0  0.00000000000E+00  0.00000000000E+00  0.45593999997E+02  0.45594000000E+02  0.51100000000E-03 0.  1.
         11   -1    0    0    0    0 -0.00000000000E+00 -0.00000000000E+00 -0.45593999997E+02  0.45594000000E+02  0.51100000000E-03 0. -1.
    9900012    2    1    2    0    0 -0.34418299010E+00 -0.13135502067E+02  0.29052710767E+02  0.59301954786E+02  0.50000019620E+02 0.  0.
         12    1    1    2    0    0  0.34418299010E+00  0.13135502067E+02 -0.29052710767E+02  0.31886045214E+02  0.00000000000E+00 0. -1.
         11    1    3    3    0    0 -0.48435543034E+01  0.92717402930E+00 -0.31676241743E+01  0.58611870079E+01  0.51100000000E-03 0. -1.
        -11    1    3    3    0    0  0.35758517773E+01  0.79216721217E+00 -0.89458915988E+01  0.96666034151E+01  0.51100000000E-03 0.  1.
        -12    1    3    3    0    0  0.92351953604E+00 -0.14854843309E+02  0.41166226541E+02  0.43774164363E+02  0.00000000000E+00 0.  1.
</event>
<event>
 7    1  0.1134395E-011  0.5930200E+02  0.7816164E-02  0.1266605E+00
        -11   -1    0    0    0    0  0.00000000000E+00  0.00000000000E+00  0.45593999997E+02  0.45594000000E+02  0.51100000000E-03 0. -1.
         11   -1    0    0    0    0 -0.00000000000E+00 -0.00000000000E+00 -0.45593999997E+02  0.45594000000E+02  0.51100000000E-03 0.  1.
    9900012    2    1    2    0    0  0.16371903124E+02  0.21154409925E+02 -0.17354219599E+02  0.59301996659E+02  0.50000095987E+02 0.  0.
         12    1    1    2    0    0 -0.16371903124E+02 -0.21154409925E+02  0.17354219599E+02  0.31886003341E+02  0.00000000000E+00 0. -1.
         11    1    3    3    0    0  0.17039996021E+02  0.19311287757E+02  0.80739867494E+01  0.26990304954E+02  0.51100000000E-03 0. -1.
        -11    1    3    3    0    0  0.65833742452E+01 -0.28153332498E+01 -0.21297366317E+01  0.74701202227E+01  0.51100000000E-03 0.  1.
        -12    1    3    3    0    0 -0.72514671425E+01  0.46584554179E+01 -0.23298469716E+02  0.24841571483E+02  0.00000000000E+00 0.  1.
</event>
<event>
 7    1  0.1134395E-011  0.5930189E+02  0.7816164E-02  0.1266605E+00
        -11   -1    0    0    0    0  0.00000000000E+00  0.00000000000E+00  0.45593999997E+02  0.45594000000E+02  0.51100000000E-03 0. -1.
         11   -1    0    0    0    0 -0.00000000000E+00 -0.00000000000E+00 -0.45593999997E+02  0.45594000000E+02  0.51100000000E-03 0.  1.
    9900012    2    1    2    0    0 -0.52595432638E+00  0.22545990071E+02 -0.22541649788E+02  0.59301885916E+02  0.49999894018E+02 0.  0.
         12    1    1    2    0    0  0.52595432638E+00 -0.22545990071E+02  0.22541649788E+02  0.31886114084E+02  0.00000000000E+00 0. -1.
         11    1    3    3    0    0  0.85754100032E+00 -0.47614635883E+01  0.72639343229E+01  0.87276373766E+01  0.51100000000E-03 0. -1.
        -11    1    3    3    0    0 -0.59776837655E+01  0.67019584957E+01  0.46898734805E+01  0.10131330831E+02  0.51100000000E-03 0.  1.
        -12    1    3    3    0    0  0.45941884388E+01  0.20605495164E+02 -0.34495457591E+02  0.40442917708E+02  0.00000000000E+00 0.  1.
</event>
<event>
 7    1  0.1134395E-011  0.5930193E+02  0.7816164E-02  0.1266605E+00
        -11   -1    0    0    0    0  0.00000000000E+00  0.00000000000E+00  0.45593999997E+02  0.45594000000E+02  0.51100000000E-03 0. -1.
         11   -1    0    0    0    0 -0.00000000000E+00 -0.00000000000E+00 -0.45593999997E+02  0.45594000000E+02  0.51100000000E-03 0.  1.
    9900012    2    1    2    0    0  0.26786285332E+02  0.14303374349E+01  0.17238632246E+02  0.59301931118E+02  0.49999976456E+02 0.  0.
         12    1    1    2    0    0 -0.26786285332E+02 -0.14303374349E+01 -0.17238632246E+02  0.31886068882E+02  0.00000000000E+00 0. -1.
         11    1    3    3    0    0  0.89530931181E+01 -0.71493508684E+01  0.59474712050E+01  0.12909047533E+02  0.51100000000E-03 0. -1.
        -11    1    3    3    0    0  0.23255979061E+02 -0.98811506093E+01  0.97730927523E+01  0.27092269038E+02  0.51100000000E-03 0.  1.
         12    1    3    3    0    0 -0.54227868471E+01  0.18460838913E+02  0.15180682887E+01  0.19300614547E+02  0.00000000000E+00 0. -1.
</event>
<event>
 7    1  0.1134395E-011  0.5930194E+02  0.7816164E-02  0.1266605E+00
        -11   -1    0    0    0    0  0.00000000000E+00  0.00000000000E+00  0.45593999997E+02  0.45594000000E+02  0.51100000000E-03 0.  1.
         11   -1    0    0    0    0 -0.00000000000E+00 -0.00000000000E+00 -0.45593999997E+02  0.45594000000E+02  0.51100000000E-03 0. -1.
    9900012    2    1    2    0    0 -0.13875994742E+02  0.18107551181E+02  0.22277658811E+02  0.59301941574E+02  0.49999995525E+02 0.  0.
         12    1    1    2    0    0  0.13875994742E+02 -0.18107551181E+02 -0.22277658811E+02  0.31886058426E+02  0.00000000000E+00 0. -1.
         11    1    3    3    0    0  0.16972471071E+02  0.77787367305E+01  0.17096012668E+01  0.18748233414E+02  0.51100000000E-03 0. -1.
        -11    1    3    3    0    0 -0.10367378906E+01  0.19008610473E+01 -0.13971773251E+01  0.25768591180E+01  0.51100000000E-03 0.  1.
        -12    1    3    3    0    0 -0.29811727922E+02  0.84279534035E+01  0.21965234869E+02  0.37976849042E+02  0.00000000000E+00 0.  1.
</event>
<event>
 7    1  0.1134395E-011  0.5930195E+02  0.7816164E-02  0.1266605E+00
        -11   -1    0    0    0    0  0.00000000000E+00  0.00000000000E+00  0.45593999997E+02  0.45594000000E+02  0.51100000000E-03 0.  1.
         11   -1    0    0    0    0 -0.00000000000E+00 -0.00000000000E+00 -0.45593999997E+02  0.45594000000E+02  0.51100000000E-03 0. -1.
    9900012    2    1    2    0    0  0.67470981721E+01  0.11648085779E+01  0.31142255154E+02  0.59301950248E+02  0.50000011343E+02 0.  0.
         12    1    1    2    0    0 -0.67470981721E+01 -0.11648085779E+01 -0.31142255154E+02  0.31886049752E+02  0.00000000000E+00 0. -1.
         11    1    3    3    0    0 -0.87536047482E+01  0.75180263376E+01 -0.23998596305E+01  0.11785823798E+02  0.51100000000E-03 0. -1.
        -11    1    3    3    0    0  0.14671671915E+02  0.96913628372E+01  0.17070604457E+02  0.24506856330E+02  0.51100000000E-03 0.  1.
         12    1    3    3    0    0  0.82903100582E+00 -0.16044580597E+02  0.16471510327E+02  0.23009270119E+02  0.00000000000E+00 0. -1.
</event>
<event>
 7    1  0.1134395E-011  0.5930196E+02  0.7816164E-02  0.1266605E+00
        -11   -1    0    0    0    0  0.00000000000E+00  0.00000000000E+00  0.45593999997E+02  0.45594000000E+02  0.51100000000E-03 0.  1.
         11   -1    0    0    0    0 -0.00000000000E+00 -0.00000000000E+00 -0.45593999997E+02  0.45594000000E+02  0.51100000000E-03 0. -1.
    9900012    2    1    2    0    0  0.11897372869E+02 -0.26678199892E+02 -0.12784600811E+02  0.59301955270E+02  0.50000020503E+02 0.  0.
         12    1    1    2    0    0 -0.11897372869E+02  0.26678199892E+02  0.12784600811E+02  0.31886044730E+02  0.00000000000E+00 0. -1.
         11    1    3    3    0    0  0.18239068224E+01  0.31853738827E+01 -0.14646952416E+01  0.39520343219E+01  0.51100000000E-03 0. -1.
        -11    1    3    3    0    0  0.57427603208E+00  0.60448777370E+01  0.10603390836E+02  0.12218929466E+02  0.51100000000E-03 0.  1.
         12    1    3    3    0    0  0.94991900143E+01 -0.35908451512E+02 -0.21923296405E+02  0.43130991481E+02  0.00000000000E+00 0. -1.
</event>
<event>
 7    1  0.1134395E-011  0.5930198E+02  0.7816164E-02  0.1266605E+00
        -11   -1    0    0    0    0  0.00000000000E+00  0.00000000000E+00  0.45593999997E+02  0.45594000000E+02  0.51100000000E-03 0.  1.
         11   -1    0    0    0    0 -0.00000000000E+00 -0.00000000000E+00 -0.45593999997E+02  0.45594000000E+02  0.51100000000E-03 0. -1.
    9900012    2    1    2    0    0 -0.13202209153E+02  0.23023227493E+02  0.17673448807E+02  0.59301982321E+02  0.50000069837E+02 0.  0.
         12    1    1    2    0    0  0.13202209153E+02 -0.23023227493E+02 -0.17673448807E+02  0.31886017679E+02  0.00000000000E+00 0. -1.
         11    1    3    3    0    0 -0.17353817509E+02  0.23397475809E+02  0.11871241529E+02  0.31456688193E+02  0.51100000000E-03 0. -1.
        -11    1    3    3    0    0 -0.90446514512E+01  0.10601901971E+01  0.10375937055E+02  0.13805426222E+02  0.51100000000E-03 0.  1.
         12    1    3    3    0    0  0.13196259807E+02 -0.14344385129E+01 -0.45737297778E+01  0.14039867906E+02  0.00000000000E+00 0. -1.
</event>
<event>
 7    1  0.1134395E-011  0.5930195E+02  0.7816164E-02  0.1266605E+00
        -11   -1    0    0    0    0  0.00000000000E+00  0.00000000000E+00  0.45593999997E+02  0.45594000000E+02  0.51100000000E-03 0.  1.
         11   -1    0    0    0    0 -0.00000000000E+00 -0.00000000000E+00 -0.45593999997E+02  0.45594000000E+02  0.51100000000E-03 0. -1.
    9900012    2    1    2    0    0 -0.10520864044E+02 -0.34413786644E+01  0.29902981468E+02  0.59301953396E+02  0.50000017086E+02 0.  0.
         12    1    1    2    0    0  0.10520864044E+02  0.34413786644E+01 -0.29902981468E+02  0.31886046604E+02  0.00000000000E+00 0. -1.
         11    1    3    3    0    0 -0.37639407690E+01 -0.18242867117E+02  0.24210078768E+01  0.18783789025E+02  0.51100000000E-03 0. -1.
        -11    1    3    3    0    0  0.19270674518E+01 -0.64929983976E+01  0.59941813400E+01  0.90444915476E+01  0.51100000000E-03 0.  1.
        -12    1    3    3    0    0 -0.86839907264E+01  0.21294486850E+02  0.21487792251E+02  0.31473672823E+02  0.00000000000E+00 0.  1.
</event>
<event>
 7    1  0.1134395E-011  0.5930194E+02  0.7816164E-02  0.1266605E+00
        -11   -1    0    0    0    0  0.00000000000E+00  0.00000000000E+00  0.45593999997E+02  0.45594000000E+02  0.51100000000E-03 0.  1.
         11   -1    0    0    0    0 -0.00000000000E+00 -0.00000000000E+00 -0.45593999997E+02  0.45594000000E+02  0.51100000000E-03 0. -1.
    9900012    2    1    2    0    0 -0.60808042101E+01  0.20543848415E+02  0.23615559363E+02  0.59301944559E+02  0.50000000969E+02 0.  0.
         12    1    1    2    0    0  0.60808042101E+01 -0.20543848415E+02 -0.23615559363E+02  0.31886055441E+02  0.00000000000E+00 0. -1.
         11    1    3    3    0    0  0.71545351497E+01 -0.92536029450E+01 -0.49505883477E+01  0.12701372600E+02  0.51100000000E-03 0. -1.
        -11    1    3    3    0    0  0.68717266149E+00  0.12343820962E+02  0.18158554962E+02  0.21967595244E+02  0.51100000000E-03 0.  1.
        -12    1    3    3    0    0 -0.13922512021E+02  0.17453630398E+02  0.10407592748E+02  0.24632976716E+02  0.00000000000E+00 0.  1.
</event>
<event>
 7    1  0.1134395E-011  0.5930195E+02  0.7816164E-02  0.1266605E+00
        -11   -1    0    0    0    0  0.00000000000E+00  0.00000000000E+00  0.45593999997E+02  0.45594000000E+02  0.51100000000E-03 0. -1.
         11   -1    0    0    0    0 -0.00000000000E+00 -0.00000000000E+00 -0.45593999997E+02  0.45594000000E+02  0.51100000000E-03 0.  1.
    9900012    2    1    2    0    0  0.32217303950E+01 -0.29995239289E+02 -0.10326000093E+02  0.59301949686E+02  0.50000010319E+02 0.  0.
         12    1    1    2    0    0 -0.32217303950E+01  0.29995239289E+02  0.10326000093E+02  0.31886050314E+02  0.00000000000E+00 0. -1.
         11    1    3    3    0    0  0.84440370692E+00  0.66072730047E+01 -0.10750573872E+02  0.12646893414E+02  0.51100000000E-03 0. -1.
        -11    1    3    3    0    0  0.41112531148E+01  0.33894393366E+01 -0.35897989547E+01  0.64247457526E+01  0.51100000000E-03 0.  1.
         12    1    3    3    0    0 -0.17339264266E+01 -0.39991951630E+02  0.40143727341E+01  0.40230310519E+02  0.00000000000E+00 0. -1.
</event>
<event>
 7    1  0.1134395E-011  0.5930193E+02  0.7816164E-02  0.1266605E+00
        -11   -1    0    0    0    0  0.00000000000E+00  0.00000000000E+00  0.45593999997E+02  0.45594000000E+02  0.51100000000E-03 0.  1.
         11   -1    0    0    0    0 -0.00000000000E+00 -0.00000000000E+00 -0.45593999997E+02  0.45594000000E+02  0.51100000000E-03 0. -1.
    9900012    2    1    2    0    0 -0.99141436953E+01  0.28950942560E+01  0.30167028845E+02  0.59301930231E+02  0.49999974838E+02 0.  0.
         12    1    1    2    0    0  0.99141436953E+01 -0.28950942560E+01 -0.30167028845E+02  0.31886069769E+02  0.00000000000E+00 0. -1.
         11    1    3    3    0    0  0.69026369763E+00  0.45561417219E+01 -0.74802665127E+01  0.87857429239E+01  0.51100000000E-03 0. -1.
        -11    1    3    3    0    0 -0.38375121530E+01  0.12434540958E+02  0.30820338965E+02  0.33455008631E+02  0.51100000000E-03 0.  1.
         12    1    3    3    0    0 -0.67668952399E+01 -0.14095588424E+02  0.68269563936E+01  0.17061178676E+02  0.00000000000E+00 0. -1.
</event>
<event>
 7    1  0.1134395E-011  0.5930201E+02  0.7816164E-02  0.1266605E+00
        -11   -1    0    0    0    0  0.00000000000E+00  0.00000000000E+00  0.45593999997E+02  0.45594000000E+02  0.51100000000E-03 0.  1.
         11   -1    0    0    0    0 -0.00000000000E+00 -0.00000000000E+00 -0.45593999997E+02  0.45594000000E+02  0.51100000000E-03 0. -1.
    9900012    2    1    2    0    0  0.25106389774E+02  0.82448431878E+01  0.17843997784E+02  0.59302007721E+02  0.50000116162E+02 0.  0.
         12    1    1    2    0    0 -0.25106389774E+02 -0.82448431878E+01 -0.17843997784E+02  0.31885992279E+02  0.00000000000E+00 0. -1.
         11    1    3    3    0    0  0.32936984269E+01  0.86729464332E+01  0.23809206277E+01  0.95779555468E+01  0.51100000000E-03 0. -1.
        -11    1    3    3    0    0  0.18644438101E+02  0.30977431355E+01  0.29429131608E+02  0.34975489591E+02  0.51100000000E-03 0.  1.
         12    1    3    3    0    0  0.31682532463E+01 -0.35258463809E+01 -0.13966054452E+02  0.14748562584E+02  0.00000000000E+00 0. -1.
</event>
<event>
 7    1  0.1134395E-011  0.5930191E+02  0.7816164E-02  0.1266605E+00
        -11   -1    0    0    0    0  0.00000000000E+00  0.00000000000E+00  0.45593999997E+02  0.45594000000E+02  0.51100000000E-03 0. -1.
         11   -1    0    0    0    0 -0.00000000000E+00 -0.00000000000E+00 -0.45593999997E+02  0.45594000000E+02  0.51100000000E-03 0.  1.
    9900012    2    1    2    0    0  0.10618077514E+02  0.20807057173E+01 -0.29994168229E+02  0.59301905317E+02  0.49999929401E+02 0.  0.
         12    1    1    2    0    0 -0.10618077514E+02 -0.20807057173E+01  0.29994168229E+02  0.31886094683E+02  0.00000000000E+00 0. -1.
         11    1    3    3    0    0 -0.59667688789E+01  0.13219865174E+02 -0.95150405868E+01  0.17346560572E+02  0.51100000000E-03 0. -1.
        -11    1    3    3    0    0  0.81165132054E+01 -0.31178681237E+01 -0.27156918989E+02  0.28514858188E+02  0.51100000000E-03 0.  1.
         12    1    3    3    0    0  0.84683331877E+01 -0.80212913327E+01  0.66777913467E+01  0.13440486557E+02  0.00000000000E+00 0. -1.
</event>
<event>
 7    1  0.1134395E-011  0.5930189E+02  0.7816164E-02  0.1266605E+00
        -11   -1    0    0    0    0  0.00000000000E+00  0.00000000000E+00  0.45593999997E+02  0.45594000000E+02  0.51100000000E-03 0.  1.
         11   -1    0    0    0    0 -0.00000000000E+00 -0.00000000000E+00 -0.45593999997E+02  0.45594000000E+02  0.51100000000E-03 0. -1.
    9900012    2    1    2    0    0 -0.25710085620E+02  0.13129806579E+02  0.13539709307E+02  0.59301889363E+02  0.49999900305E+02 0.  0.
         12    1    1    2    0    0  0.25710085620E+02 -0.13129806579E+02 -0.13539709307E+02  0.31886110637E+02  0.00000000000E+00 0. -1.
         11    1    3    3    0    0 -0.16392943768E+02 -0.97517359467E+01  0.64501031781E+01  0.20135262368E+02  0.51100000000E-03 0. -1.
        -11    1    3    3    0    0 -0.46644002753E+01  0.13904900309E+02 -0.11074631223E+02  0.18377985187E+02  0.51100000000E-03 0.  1.
        -12    1    3    3    0    0 -0.46527415773E+01  0.89766422168E+01  0.18164237352E+02  0.20788641809E+02  0.00000000000E+00 0.  1.
</event>
<event>
 7    1  0.1134395E-011  0.5930195E+02  0.7816164E-02  0.1266605E+00
        -11   -1    0    0    0    0  0.00000000000E+00  0.00000000000E+00  0.45593999997E+02  0.45594000000E+02  0.51100000000E-03 0. -1.
         11   -1    0    0    0    0 -0.00000000000E+00 -0.00000000000E+00 -0.45593999997E+02  0.45594000000E+02  0.51100000000E-03 0.  1.
    9900012    2    1    2    0    0 -0.29007668893E+02 -0.11469701852E+02 -0.66122145222E+01  0.59301948252E+02  0.50000007704E+02 0.  0.
         12    1    1    2    0    0  0.29007668893E+02  0.11469701852E+02  0.66122145222E+01  0.31886051748E+02  0.00000000000E+00 0. -1.
         11    1    3    3    0    0  0.32582669197E+01 -0.14714381622E+02  0.57643539972E+01  0.16135585118E+02  0.51100000000E-03 0. -1.
        -11    1    3    3    0    0 -0.63341079429E+01  0.11722565144E+02 -0.79817948117E+01  0.15532176462E+02  0.51100000000E-03 0.  1.
        -12    1    3    3    0    0 -0.25931827870E+02 -0.84778853737E+01 -0.43947737077E+01  0.27634186672E+02  0.00000000000E+00 0.  1.
</event>
<event>
 7    1  0.1134395E-011  0.5930195E+02  0.7816164E-02  0.1266605E+00
        -11   -1    0    0    0    0  0.00000000000E+00  0.00000000000E+00  0.45593999997E+02  0.45594000000E+02  0.51100000000E-03 0.  1.
         11   -1    0    0    0    0 -0.00000000000E+00 -0.00000000000E+00 -0.45593999997E+02  0.45594000000E+02  0.51100000000E-03 0. -1.
    9900012    2    1    2    0    0  0.13808484843E+02 -0.10152206207E+02  0.26888257472E+02  0.59301953923E+02  0.50000018047E+02 0.  0.
         12    1    1    2    0    0 -0.13808484843E+02  0.10152206207E+02 -0.26888257472E+02  0.31886046077E+02  0.00000000000E+00 0. -1.
         11    1    3    3    0    0 -0.29513997187E+01  0.54084353394E+01 -0.32487643961E+01  0.69653717405E+01  0.51100000000E-03 0. -1.
        -11    1    3    3    0    0  0.41481741163E+01  0.62813257514E+01  0.25633784746E+02  0.26716162194E+02  0.51100000000E-03 0.  1.
         12    1    3    3    0    0  0.12611710446E+02 -0.21841967298E+02  0.45032371217E+01  0.25620419989E+02  0.00000000000E+00 0. -1.
</event>
<event>
 7    1  0.1134395E-011  0.5930198E+02  0.7816164E-02  0.1266605E+00
        -11   -1    0    0    0    0  0.00000000000E+00  0.00000000000E+00  0.45593999997E+02  0.45594000000E+02  0.51100000000E-03 0.  1.
         11   -1    0    0    0    0 -0.00000000000E+00 -0.00000000000E+00 -0.45593999997E+02  0.45594000000E+02  0.51100000000E-03 0. -1.
    9900012    2    1    2    0    0  0.24635178810E+01 -0.27603015985E+02  0.15770946304E+02  0.59301981761E+02  0.50000068817E+02 0.  0.
         12    1    1    2    0    0 -0.24635178810E+01  0.27603015985E+02 -0.15770946304E+02  0.31886018239E+02  0.00000000000E+00 0. -1.
         11    1    3    3    0    0  0.11136582568E+01 -0.13023942952E+02  0.17041325958E+02  0.21477199897E+02  0.51100000000E-03 0. -1.
        -11    1    3    3    0    0  0.44378613531E+01 -0.21644568433E+02 -0.11584003828E+02  0.24947366614E+02  0.51100000000E-03 0.  1.
         12    1    3    3    0    0 -0.30880017288E+01  0.70654954002E+01  0.10313624174E+02  0.12877415250E+02  0.00000000000E+00 0. -1.
</event>
<event>
 7    1  0.1134395E-011  0.5930193E+02  0.7816164E-02  0.1266605E+00
        -11   -1    0    0    0    0  0.00000000000E+00  0.00000000000E+00  0.45593999997E+02  0.45594000000E+02  0.51100000000E-03 0.  1.
         11   -1    0    0    0    0 -0.00000000000E+00 -0.00000000000E+00 -0.45593999997E+02  0.45594000000E+02  0.51100000000E-03 0. -1.
    9900012    2    1    2    0    0  0.13589376886E+02  0.20945104605E+02  0.19833131259E+02  0.59301926761E+02  0.49999968510E+02 0.  0.
         12    1    1    2    0    0 -0.13589376886E+02 -0.20945104605E+02 -0.19833131259E+02  0.31886073239E+02  0.00000000000E+00 0. -1.
         11    1    3    3    0    0  0.15606909251E+02  0.16929669937E+02 -0.99449005523E+00  0.23047306812E+02  0.51100000000E-03 0. -1.
        -11    1    3    3    0    0  0.65881698552E+01  0.10978189457E+02  0.15439136608E+00  0.12804236125E+02  0.51100000000E-03 0.  1.
         12    1    3    3    0    0 -0.86057022205E+01 -0.69627547896E+01  0.20673229949E+02  0.23450383824E+02  0.00000000000E+00 0. -1.
</event>
<event>
 7    1  0.1134395E-011  0.5930195E+02  0.7816164E-02  0.1266605E+00
        -11   -1    0    0    0    0  0.00000000000E+00  0.00000000000E+00  0.45593999997E+02  0.45594000000E+02  0.51100000000E-03 0. -1.
         11   -1    0    0    0    0 -0.00000000000E+00 -0.00000000000E+00 -0.45593999997E+02  0.45594000000E+02  0.51100000000E-03 0.  1.
    9900012    2    1    2    0    0  0.30337717605E+02  0.97767324402E+01 -0.87106114255E+00  0.59301947340E+02  0.50000006042E+02 0.  0.
         12    1    1    2    0    0 -0.30337717605E+02 -0.97767324402E+01  0.87106114255E+00  0.31886052660E+02  0.00000000000E+00 0. -1.
         11    1    3    3    0    0  0.46296355261E+00  0.65764099772E+01  0.95310121800E+01  0.11588947186E+02  0.51100000000E-03 0. -1.
        -11    1    3    3    0    0  0.80181244287E+00  0.14939235678E+02 -0.56958546756E+01  0.16008323666E+02  0.51100000000E-03 0.  1.
         12    1    3    3    0    0  0.29072941610E+02 -0.11738913215E+02 -0.47062186469E+01  0.31704676489E+02  0.00000000000E+00 0. -1.
</event>
<event>
 7    1  0.1134395E-011  0.5930196E+02  0.7816164E-02  0.1266605E+00
        -11   -1    0    0    0    0  0.00000000000E+00  0.00000000000E+00  0.45593999997E+02  0.45594000000E+02  0.51100000000E-03 0.  1.
         11   -1    0    0    0    0 -0.00000000000E+00 -0.00000000000E+00 -0.45593999997E+02  0.45594000000E+02  0.51100000000E-03 0. -1.
    9900012    2    1    2    0    0  0.23752126675E+02  0.21171459801E+02 -0.20797129894E+01  0.59301961710E+02  0.50000032249E+02 0.  0.
         12    1    1    2    0    0 -0.23752126675E+02 -0.21171459801E+02  0.20797129894E+01  0.31886038290E+02  0.00000000000E+00 0. -1.
         11    1    3    3    0    0  0.47626729686E+01  0.11392169894E+02 -0.73491331385E-01  0.12347873904E+02  0.51100000000E-03 0. -1.
        -11    1    3    3    0    0  0.10276837030E+02  0.86326759274E+01  0.19528151112E+02  0.23695678068E+02  0.51100000000E-03 0.  1.
         12    1    3    3    0    0  0.87126166773E+01  0.11466139790E+01 -0.21534372770E+02  0.23258409739E+02  0.00000000000E+00 0. -1.
</event>
<event>
 7    1  0.1134395E-011  0.5930196E+02  0.7816164E-02  0.1266605E+00
        -11   -1    0    0    0    0  0.00000000000E+00  0.00000000000E+00  0.45593999997E+02  0.45594000000E+02  0.51100000000E-03 0.  1.
         11   -1    0    0    0    0 -0.00000000000E+00 -0.00000000000E+00 -0.45593999997E+02  0.45594000000E+02  0.51100000000E-03 0. -1.
    9900012    2    1    2    0    0  0.15777795500E+02  0.15849240558E+02  0.22728452531E+02  0.59301955850E+02  0.50000021561E+02 0.  0.
         12    1    1    2    0    0 -0.15777795500E+02 -0.15849240558E+02 -0.22728452531E+02  0.31886044150E+02  0.00000000000E+00 0. -1.
         11    1    3    3    0    0 -0.10690797576E+02  0.93197503378E+01  0.38468461616E+01  0.14695207546E+02  0.51100000000E-03 0. -1.
        -11    1    3    3    0    0  0.30515142901E+01 -0.75335829219E+01  0.14940690787E+02  0.17008552335E+02  0.51100000000E-03 0.  1.
         12    1    3    3    0    0  0.23417078786E+02  0.14063073142E+02  0.39409155823E+01  0.27598195968E+02  0.00000000000E+00 0. -1.
</event>
<event>
 7    1  0.1134395E-011  0.5930194E+02  0.7816164E-02  0.1266605E+00
        -11   -1    0    0    0    0  0.00000000000E+00  0.00000000000E+00  0.45593999997E+02  0.45594000000E+02  0.51100000000E-03 0.  1.
         11   -1    0    0    0    0 -0.00000000000E+00 -0.00000000000E+00 -0.45593999997E+02  0.45594000000E+02  0.51100000000E-03 0. -1.
    9900012    2    1    2    0    0  0.17289156982E+02 -0.81060560595E+01 -0.25536198652E+02  0.59301944496E+02  0.50000000854E+02 0.  0.
         12    1    1    2    0    0 -0.17289156982E+02  0.81060560595E+01  0.25536198652E+02  0.31886055504E+02  0.00000000000E+00 0. -1.
         11    1    3    3    0    0 -0.71936030584E+00 -0.13992707596E+02 -0.13201514954E+02  0.19250801086E+02  0.51100000000E-03 0. -1.
        -11    1    3    3    0    0 -0.92436653771E+01  0.88449616824E+00  0.92969331781E+00  0.93323101643E+01  0.51100000000E-03 0.  1.
        -12    1    3    3    0    0  0.27252182665E+02  0.50021553681E+01 -0.13264377016E+02  0.30718833246E+02  0.00000000000E+00 0.  1.
</event>
<event>
 7    1  0.1134395E-011  0.5930194E+02  0.7816164E-02  0.1266605E+00
        -11   -1    0    0    0    0  0.00000000000E+00  0.00000000000E+00  0.45593999997E+02  0.45594000000E+02  0.51100000000E-03 0.  1.
         11   -1    0    0    0    0 -0.00000000000E+00 -0.00000000000E+00 -0.45593999997E+02  0.45594000000E+02  0.51100000000E-03 0. -1.
    9900012    2    1    2    0    0  0.99837581224E+00  0.19850352679E+02  0.24933664527E+02  0.59301939056E+02  0.49999990933E+02 0.  0.
         12    1    1    2    0    0 -0.99837581224E+00 -0.19850352679E+02 -0.24933664527E+02  0.31886060944E+02  0.00000000000E+00 0. -1.
         11    1    3    3    0    0 -0.89294197683E+01  0.21244514504E+02  0.48381962757E+00  0.23049902724E+02  0.51100000000E-03 0. -1.
        -11    1    3    3    0    0  0.45620887774E+01  0.11258107691E+02  0.16110027222E+02  0.20176486814E+02  0.51100000000E-03 0.  1.
         12    1    3    3    0    0  0.53657068031E+01 -0.12652269516E+02  0.83398176781E+01  0.16075549518E+02  0.00000000000E+00 0. -1.
</event>
<event>
 7    1  0.1134395E-011  0.5930197E+02  0.7816164E-02  0.1266605E+00
        -11   -1    0    0    0    0  0.00000000000E+00  0.00000000000E+00  0.45593999997E+02  0.45594000000E+02  0.51100000000E-03 0.  1.
         11   -1    0    0    0    0 -0.00000000000E+00 -0.00000000000E+00 -0.45593999997E+02  0.45594000000E+02  0.51100000000E-03 0. -1.
    9900012    2    1    2    0    0  0.16597435712E+02  0.27202960280E+02  0.11149573490E+01  0.59301967790E+02  0.50000043337E+02 0.  0.
         12    1    1    2    0    0 -0.16597435712E+02 -0.27202960280E+02 -0.11149573490E+01  0.31886032210E+02  0.00000000000E+00 0. -1.
         11    1    3    3    0    0 -0.65567827304E+01  0.12290876477E+02  0.65222862851E+01  0.15381718467E+02  0.51100000000E-03 0. -1.
        -11    1    3    3    0    0  0.24856788228E+02  0.22777239161E+02  0.85204761479E+00  0.33725191330E+02  0.51100000000E-03 0.  1.
         12    1    3    3    0    0 -0.17025697858E+01 -0.78651553582E+01 -0.62593765509E+01  0.10195057993E+02  0.00000000000E+00 0. -1.
</event>
<event>
 7    1  0.1134395E-011  0.5930192E+02  0.7816164E-02  0.1266605E+00
        -11   -1    0    0    0    0  0.00000000000E+00  0.00000000000E+00  0.45593999997E+02  0.45594000000E+02  0.51100000000E-03 0.  1.
         11   -1    0    0    0    0 -0.00000000000E+00 -0.00000000000E+00 -0.45593999997E+02  0.45594000000E+02  0.51100000000E-03 0. -1.
    9900012    2    1    2    0    0  0.81117265236E+01  0.30521774634E+02 -0.43980890738E+01  0.59301921196E+02  0.49999958360E+02 0.  0.
         12    1    1    2    0    0 -0.81117265236E+01 -0.30521774634E+02  0.43980890738E+01  0.31886078804E+02  0.00000000000E+00 0. -1.
         11    1    3    3    0    0 -0.46996123302E+01 -0.16800236114E+01 -0.16682759231E+02  0.17413307877E+02  0.51100000000E-03 0. -1.
        -11    1    3    3    0    0  0.93729111021E+01  0.21274913186E+01  0.13587268180E+01  0.97068955215E+01  0.51100000000E-03 0.  1.
        -12    1    3    3    0    0  0.34384277517E+01  0.30074306927E+02  0.10925943339E+02  0.32181717797E+02  0.00000000000E+00 0.  1.
</event>
<event>
 7    1  0.1134395E-011  0.5930194E+02  0.7816164E-02  0.1266605E+00
        -11   -1    0    0    0    0  0.00000000000E+00  0.00000000000E+00  0.45593999997E+02  0.45594000000E+02  0.51100000000E-03 0.  1.
         11   -1    0    0    0    0 -0.00000000000E+00 -0.00000000000E+00 -0.45593999997E+02  0.45594000000E+02  0.51100000000E-03 0. -1.
    9900012    2    1    2    0    0  0.26024894465E+01 -0.13719222543E+02  0.28665846985E+02  0.59301940320E+02  0.49999993239E+02 0.  0.
         12    1    1    2    0    0 -0.26024894465E+01  0.13719222543E+02 -0.28665846985E+02  0.31886059680E+02  0.00000000000E+00 0. -1.
         11    1    3    3    0    0 -0.48491864214E+01 -0.35368834966E+00 -0.89509149494E+01  0.10186195712E+02  0.51100000000E-03 0. -1.
        -11    1    3    3    0    0 -0.27957525439E+01  0.44866334433E+01 -0.97681842410E+00  0.53758986631E+01  0.51100000000E-03 0.  1.
        -12    1    3    3    0    0  0.10247428412E+02 -0.17852167637E+02  0.38593580359E+02  0.43739845945E+02  0.00000000000E+00 0.  1.
</event>
<event>
 7    1  0.1134395E-011  0.5930193E+02  0.7816164E-02  0.1266605E+00
        -11   -1    0    0    0    0  0.00000000000E+00  0.00000000000E+00  0.45593999997E+02  0.45594000000E+02  0.51100000000E-03 0. -1.
         11   -1    0    0    0    0 -0.00000000000E+00 -0.00000000000E+00 -0.45593999997E+02  0.45594000000E+02  0.51100000000E-03 0.  1.
    9900012    2    1    2    0    0  0.94656444195E+01  0.29259755466E+02 -0.84255347160E+01  0.59301931734E+02  0.49999977579E+02 0.  0.
         12    1    1    2    0    0 -0.94656444195E+01 -0.29259755466E+02  0.84255347160E+01  0.31886068266E+02  0.00000000000E+00 0. -1.
         11    1    3    3    0    0  0.48854022630E+00 -0.80990058533E+01  0.64109140586E-01  0.81139803801E+01  0.51100000000E-03 0. -1.
        -11    1    3    3    0    0  0.18944399746E+02  0.14871256325E+02 -0.10971860359E+02  0.26465567563E+02  0.51100000000E-03 0.  1.
        -12    1    3    3    0    0 -0.99672955528E+01  0.22487504995E+02  0.24822165025E+01  0.24722383791E+02  0.00000000000E+00 0.  1.
</event>
<event>
 7    1  0.1134395E-011  0.5930196E+02  0.7816164E-02  0.1266605E+00
        -11   -1    0    0    0    0  0.00000000000E+00  0.00000000000E+00  0.45593999997E+02  0.45594000000E+02  0.51100000000E-03 0. -1.
         11   -1    0    0    0    0 -0.00000000000E+00 -0.00000000000E+00 -0.45593999997E+02  0.45594000000E+02  0.51100000000E-03 0.  1.
    9900012    2    1    2    0    0  0.51674330690E+01  0.28863756938E+02 -0.12525989252E+02  0.59301964878E+02  0.50000038025E+02 0.  0.
         12    1    1    2    0    0 -0.51674330690E+01 -0.28863756938E+02  0.12525989252E+02  0.31886035122E+02  0.00000000000E+00 0. -1.
         11    1    3    3    0    0 -0.40037813614E+01 -0.47777369702E+01  0.58957694061E+01  0.85800427095E+01  0.51100000000E-03 0. -1.
        -11    1    3    3    0    0  0.10647237593E+02  0.51936064100E-02  0.26898720221E+01  0.10981762476E+02  0.51100000000E-03 0.  1.
        -12    1    3    3    0    0 -0.14760231625E+01  0.33636300302E+02 -0.21111630680E+02  0.39740159692E+02  0.00000000000E+00 0.  1.
</event>
<event>
 7    1  0.1134395E-011  0.5930195E+02  0.7816164E-02  0.1266605E+00
        -11   -1    0    0    0    0  0.00000000000E+00  0.00000000000E+00  0.45593999997E+02  0.45594000000E+02  0.51100000000E-03 0.  1.
         11   -1    0    0    0    0 -0.00000000000E+00 -0.00000000000E+00 -0.45593999997E+02  0.45594000000E+02  0.51100000000E-03 0. -1.
    9900012    2    1    2    0    0 -0.27650471797E+02  0.10040141332E+02  0.12303129113E+02  0.59301952667E+02  0.50000015755E+02 0.  0.
         12    1    1    2    0    0  0.27650471797E+02 -0.10040141332E+02 -0.12303129113E+02  0.31886047333E+02  0.00000000000E+00 0. -1.
         11    1    3    3    0    0  0.83043976996E+01  0.13016582154E+02  0.56418699538E+00  0.15450331367E+02  0.51100000000E-03 0. -1.
        -11    1    3    3    0    0 -0.32659499538E+01 -0.65434719659E+01 -0.28872266623E+01  0.78625398269E+01  0.51100000000E-03 0.  1.
        -12    1    3    3    0    0 -0.32688919543E+02  0.35670311443E+01  0.14626168779E+02  0.35989081473E+02  0.00000000000E+00 0.  1.
</event>
<event>
 7    1  0.1134395E-011  0.5930195E+02  0.7816164E-02  0.1266605E+00
        -11   -1    0    0    0    0  0.00000000000E+00  0.00000000000E+00  0.45593999997E+02  0.45594000000E+02  0.51100000000E-03 0. -1.
         11   -1    0    0    0    0 -0.00000000000E+00 -0.00000000000E+00 -0.45593999997E+02  0.45594000000E+02  0.51100000000E-03 0.  1.
    9900012    2    1    2    0    0 -0.28428168137E+01  0.47287358014E+01 -0.31405056847E+02  0.59301950617E+02  0.50000012017E+02 0.  0.
         12    1    1    2    0    0  0.28428168137E+01 -0.47287358014E+01  0.31405056847E+02  0.31886049383E+02  0.00000000000E+00 0. -1.
         11    1    3    3    0    0  0.27123050985E+01  0.13632778329E+01 -0.32970732303E+01  0.44817203778E+01  0.51100000000E-03 0. -1.
        -11    1    3    3    0    0  0.17229224750E+02  0.11734325356E+02 -0.52904312419E+01  0.21506492974E+02  0.51100000000E-03 0.  1.
         12    1    3    3    0    0 -0.22784346663E+02 -0.83688673878E+01 -0.22817552374E+02  0.33313737265E+02  0.00000000000E+00 0. -1.
</event>
<event>
 7    1  0.1134395E-011  0.5930194E+02  0.7816164E-02  0.1266605E+00
        -11   -1    0    0    0    0  0.00000000000E+00  0.00000000000E+00  0.45593999997E+02  0.45594000000E+02  0.51100000000E-03 0. -1.
         11   -1    0    0    0    0 -0.00000000000E+00 -0.00000000000E+00 -0.45593999997E+02  0.45594000000E+02  0.51100000000E-03 0.  1.
    9900012    2    1    2    0    0 -0.25241439867E+02  0.18205032895E+02 -0.69402519209E+01  0.59301943392E+02  0.49999998841E+02 0.  0.
         12    1    1    2    0    0  0.25241439867E+02 -0.18205032895E+02  0.69402519209E+01  0.31886056608E+02  0.00000000000E+00 0. -1.
         11    1    3    3    0    0 -0.19049030820E+02 -0.40374170578E+01 -0.80557776101E+01  0.21072775443E+02  0.51100000000E-03 0. -1.
        -11    1    3    3    0    0 -0.18113426533E+02  0.17386300067E+02  0.27334201002E+01  0.25255716907E+02  0.51100000000E-03 0.  1.
         12    1    3    3    0    0  0.11921017486E+02  0.48561498858E+01 -0.16178944110E+01  0.12973451042E+02  0.00000000000E+00 0. -1.
</event>
<event>
 7    1  0.1134395E-011  0.5930194E+02  0.7816164E-02  0.1266605E+00
        -11   -1    0    0    0    0  0.00000000000E+00  0.00000000000E+00  0.45593999997E+02  0.45594000000E+02  0.51100000000E-03 0. -1.
         11   -1    0    0    0    0 -0.00000000000E+00 -0.00000000000E+00 -0.45593999997E+02  0.45594000000E+02  0.51100000000E-03 0.  1.
    9900012    2    1    2    0    0  0.14081351671E+02  0.15061038611E+02 -0.24322852909E+02  0.59301944701E+02  0.50000001227E+02 0.  0.
         12    1    1    2    0    0 -0.14081351671E+02 -0.15061038611E+02  0.24322852909E+02  0.31886055299E+02  0.00000000000E+00 0. -1.
         11    1    3    3    0    0  0.30236979192E+01 -0.59393883135E+01 -0.11961767722E+02  0.13693172384E+02  0.51100000000E-03 0. -1.
        -11    1    3    3    0    0  0.73814194873E+01  0.20630641763E+02 -0.24530075306E+02  0.32891234820E+02  0.51100000000E-03 0.  1.
         12    1    3    3    0    0  0.36762342650E+01  0.36978516103E+00  0.12168990119E+02  0.12717537496E+02  0.00000000000E+00 0. -1.
</event>
<event>
 7    1  0.1134395E-011  0.5930195E+02  0.7816164E-02  0.1266605E+00
        -11   -1    0    0    0    0  0.00000000000E+00  0.00000000000E+00  0.45593999997E+02  0.45594000000E+02  0.51100000000E-03 0. -1.
         11   -1    0    0    0    0 -0.00000000000E+00 -0.00000000000E+00 -0.45593999997E+02  0.45594000000E+02  0.51100000000E-03 0.  1.
    9900012    2    1    2    0    0 -0.31148336418E+02 -0.47329341315E+00  0.68027420929E+01  0.59301950257E+02  0.50000011360E+02 0.  0.
         12    1    1    2    0    0  0.31148336418E+02  0.47329341315E+00 -0.68027420929E+01  0.31886049743E+02  0.00000000000E+00 0. -1.
         11    1    3    3    0    0 -0.74514415166E+01  0.23986170771E+01  0.16828824261E+02  0.18560352120E+02  0.51100000000E-03 0. -1.
        -11    1    3    3    0    0 -0.17654075718E+02  0.10043640908E+02  0.40434253791E+01  0.20709669268E+02  0.51100000000E-03 0.  1.
        -12    1    3    3    0    0 -0.60428191832E+01 -0.12915551398E+02 -0.14069507547E+02  0.20031928869E+02  0.00000000000E+00 0.  1.
</event>
<event>
 7    1  0.1134395E-011  0.5930188E+02  0.7816164E-02  0.1266605E+00
        -11   -1    0    0    0    0  0.00000000000E+00  0.00000000000E+00  0.45593999997E+02  0.45594000000E+02  0.51100000000E-03 0. -1.
         11   -1    0    0    0    0 -0.00000000000E+00 -0.00000000000E+00 -0.45593999997E+02  0.45594000000E+02  0.51100000000E-03 0.  1.
    9900012    2    1    2    0    0  0.40806320415E+01 -0.31450043905E+02  0.33118090258E+01  0.59301876082E+02  0.49999876084E+02 0.  0.
         12    1    1    2    0    0 -0.40806320415E+01  0.31450043905E+02 -0.33118090258E+01  0.31886123918E+02  0.00000000000E+00 0. -1.
         11    1    3    3    0    0  0.97893087366E+01  0.41611070386E+01 -0.13203863711E+01  0.10718619209E+02  0.51100000000E-03 0. -1.
        -11    1    3    3    0    0 -0.12901808983E+02 -0.59934888858E+01 -0.71312495906E+01  0.15913305911E+02  0.51100000000E-03 0.  1.
         12    1    3    3    0    0  0.71931322874E+01 -0.29617662058E+02  0.11763444988E+02  0.32669950962E+02  0.00000000000E+00 0. -1.
</event>
<event>
 7    1  0.1134395E-011  0.5930193E+02  0.7816164E-02  0.1266605E+00
        -11   -1    0    0    0    0  0.00000000000E+00  0.00000000000E+00  0.45593999997E+02  0.45594000000E+02  0.51100000000E-03 0.  1.
         11   -1    0    0    0    0 -0.00000000000E+00 -0.00000000000E+00 -0.45593999997E+02  0.45594000000E+02  0.51100000000E-03 0. -1.
    9900012    2    1    2    0    0 -0.22361442211E+02  0.78085856951E+01  0.21347442047E+02  0.59301931094E+02  0.49999976412E+02 0.  0.
         12    1    1    2    0    0  0.22361442211E+02 -0.78085856951E+01 -0.21347442047E+02  0.31886068906E+02  0.00000000000E+00 0. -1.
         11    1    3    3    0    0 -0.26958004064E+02  0.10003201329E+00  0.20284448503E+02  0.33737261905E+02  0.51100000000E-03 0. -1.
        -11    1    3    3    0    0 -0.96855344538E+01  0.34240494360E+01  0.25354889934E+01  0.10581228515E+02  0.51100000000E-03 0.  1.
         12    1    3    3    0    0  0.14282096307E+02  0.42845042459E+01 -0.14724954492E+01  0.14983440673E+02  0.00000000000E+00 0. -1.
</event>
<event>
 7    1  0.1134395E-011  0.5930195E+02  0.7816164E-02  0.1266605E+00
        -11   -1    0    0    0    0  0.00000000000E+00  0.00000000000E+00  0.45593999997E+02  0.45594000000E+02  0.51100000000E-03 0.  1.
         11   -1    0    0    0    0 -0.00000000000E+00 -0.00000000000E+00 -0.45593999997E+02  0.45594000000E+02  0.51100000000E-03 0. -1.
    9900012    2    1    2    0    0  0.11215854754E+02 -0.28507694875E+02  0.88451322595E+01  0.59301946158E+02  0.50000003885E+02 0.  0.
         12    1    1    2    0    0 -0.11215854754E+02  0.28507694875E+02 -0.88451322595E+01  0.31886053842E+02  0.00000000000E+00 0. -1.
         11    1    3    3    0    0 -0.23967875580E+01  0.24568878156E+01  0.55180854428E+01  0.64984733247E+01  0.51100000000E-03 0. -1.
        -11    1    3    3    0    0  0.23405976990E+02 -0.40302984894E+01 -0.12381554195E+01  0.23782684749E+02  0.51100000000E-03 0.  1.
        -12    1    3    3    0    0 -0.97933346780E+01 -0.26934284201E+02  0.45652022362E+01  0.29020788084E+02  0.00000000000E+00 0.  1.
</event>
<event>
 7    1  0.1134395E-011  0.5930192E+02  0.7816164E-02  0.1266605E+00
        -11   -1    0    0    0    0  0.00000000000E+00  0.00000000000E+00  0.45593999997E+02  0.45594000000E+02  0.51100000000E-03 0. -1.
         11   -1    0    0    0    0 -0.00000000000E+00 -0.00000000000E+00 -0.45593999997E+02  0.45594000000E+02  0.51100000000E-03 0.  1.
    9900012    2    1    2    0    0 -0.13976009313E+02  0.26562189614E+02 -0.10763050797E+02  0.59301921284E+02  0.49999958521E+02 0.  0.
         12    1    1    2    0    0  0.13976009313E+02 -0.26562189614E+02  0.10763050797E+02  0.31886078716E+02  0.00000000000E+00 0. -1.
         11    1    3    3    0    0  0.16269438956E+02  0.75117745104E+01  0.14463618998E+01  0.17978135700E+02  0.51100000000E-03 0. -1.
        -11    1    3    3    0    0 -0.16308210804E+02  0.57532507189E+01 -0.13614923837E+02  0.22009629366E+02  0.51100000000E-03 0.  1.
        -12    1    3    3    0    0 -0.13937237466E+02  0.13297164385E+02  0.14055111403E+01  0.19314156218E+02  0.00000000000E+00 0.  1.
</event>
<event>
 7    1  0.1134395E-011  0.5930194E+02  0.7816164E-02  0.1266605E+00
        -11   -1    0    0    0    0  0.00000000000E+00  0.00000000000E+00  0.45593999997E+02  0.45594000000E+02  0.51100000000E-03 0.  1.
         11   -1    0    0    0    0 -0.00000000000E+00 -0.00000000000E+00 -0.45593999997E+02  0.45594000000E+02  0.51100000000E-03 0. -1.
    9900012    2    1    2    0    0  0.60204366111E+01  0.14938831109E+02  0.27519196984E+02  0.59301944513E+02  0.50000000885E+02 0.  0.
         12    1    1    2    0    0 -0.60204366111E+01 -0.14938831109E+02 -0.27519196984E+02  0.31886055487E+02  0.00000000000E+00 0. -1.
         11    1    3    3    0    0  0.15027943136E+02 -0.24372141437E+01  0.21381330493E+01  0.15373701599E+02  0.51100000000E-03 0. -1.
        -11    1    3    3    0    0  0.11102007229E+02  0.52325705713E+01  0.72621744319E+01  0.14260909404E+02  0.51100000000E-03 0.  1.
        -12    1    3    3    0    0 -0.20109513753E+02  0.12143474681E+02  0.18118889503E+02  0.29667333509E+02  0.00000000000E+00 0.  1.
</event>
<event>
 7    1  0.1134395E-011  0.5930197E+02  0.7816164E-02  0.1266605E+00
        -11   -1    0    0    0    0  0.00000000000E+00  0.00000000000E+00  0.45593999997E+02  0.45594000000E+02  0.51100000000E-03 0. -1.
         11   -1    0    0    0    0 -0.00000000000E+00 -0.00000000000E+00 -0.45593999997E+02  0.45594000000E+02  0.51100000000E-03 0.  1.
    9900012    2    1    2    0    0 -0.24527517560E+00 -0.27938241376E+02 -0.15365984078E+02  0.59301969237E+02  0.50000045976E+02 0.  0.
         12    1    1    2    0    0  0.24527517560E+00  0.27938241376E+02  0.15365984078E+02  0.31886030763E+02  0.00000000000E+00 0. -1.
         11    1    3    3    0    0  0.14300731513E+02 -0.14154715159E+01 -0.11420556937E+02  0.18356023600E+02  0.51100000000E-03 0. -1.
        -11    1    3    3    0    0  0.53969187886E+01 -0.13286567320E+01 -0.66892706720E+01  0.86970341788E+01  0.51100000000E-03 0.  1.
        -12    1    3    3    0    0 -0.19942925477E+02 -0.25194113128E+02  0.27438435309E+01  0.32248911458E+02  0.00000000000E+00 0.  1.
</event>
<event>
 7    1  0.1134395E-011  0.5930195E+02  0.7816164E-02  0.1266605E+00
        -11   -1    0    0    0    0  0.00000000000E+00  0.00000000000E+00  0.45593999997E+02  0.45594000000E+02  0.51100000000E-03 0.  1.
         11   -1    0    0    0    0 -0.00000000000E+00 -0.00000000000E+00 -0.45593999997E+02  0.45594000000E+02  0.51100000000E-03 0. -1.
    9900012    2    1    2    0    0  0.10951336029E+02  0.19598341155E+02  0.22642738218E+02  0.59301947706E+02  0.50000006709E+02 0.  0.
         12    1    1    2    0    0 -0.10951336029E+02 -0.19598341155E+02 -0.22642738218E+02  0.31886052294E+02  0.00000000000E+00 0. -1.
         11    1    3    3    0    0  0.16866577096E+02  0.16429176840E+02  0.52683723525E+01  0.24127888886E+02  0.51100000000E-03 0. -1.
        -11    1    3    3    0    0  0.93104953130E+01 -0.44593685526E+01 -0.69190663697E+00  0.10346498244E+02  0.51100000000E-03 0.  1.
         12    1    3    3    0    0 -0.15225736380E+02  0.76285328678E+01  0.18066272503E+02  0.24827560577E+02  0.00000000000E+00 0. -1.
</event>
<event>
 7    1  0.1134395E-011  0.5930195E+02  0.7816164E-02  0.1266605E+00
        -11   -1    0    0    0    0  0.00000000000E+00  0.00000000000E+00  0.45593999997E+02  0.45594000000E+02  0.51100000000E-03 0. -1.
         11   -1    0    0    0    0 -0.00000000000E+00 -0.00000000000E+00 -0.45593999997E+02  0.45594000000E+02  0.51100000000E-03 0.  1.
    9900012    2    1    2    0    0 -0.67428841446E+01 -0.22343633080E+02 -0.21725923024E+02  0.59301950432E+02  0.50000011680E+02 0.  0.
         12    1    1    2    0    0  0.67428841446E+01  0.22343633080E+02  0.21725923024E+02  0.31886049568E+02  0.00000000000E+00 0. -1.
         11    1    3    3    0    0  0.41607629248E+01 -0.14905178830E+01  0.13324565047E+01  0.46161707371E+01  0.51100000000E-03 0. -1.
        -11    1    3    3    0    0 -0.11752528583E+02  0.11712881226E+02 -0.44938148211E+01  0.17190342831E+02  0.51100000000E-03 0.  1.
        -12    1    3    3    0    0  0.84888151408E+00 -0.32565996423E+02 -0.18564564708E+02  0.37495436864E+02  0.00000000000E+00 0.  1.
</event>
<event>
 7    1  0.1134395E-011  0.5930194E+02  0.7816164E-02  0.1266605E+00
        -11   -1    0    0    0    0  0.00000000000E+00  0.00000000000E+00  0.45593999997E+02  0.45594000000E+02  0.51100000000E-03 0.  1.
         11   -1    0    0    0    0 -0.00000000000E+00 -0.00000000000E+00 -0.45593999997E+02  0.45594000000E+02  0.51100000000E-03 0. -1.
    9900012    2    1    2    0    0 -0.23434368230E+02 -0.18055883319E+02  0.11896907127E+02  0.59301938218E+02  0.49999989405E+02 0.  0.
         12    1    1    2    0    0  0.23434368230E+02  0.18055883319E+02 -0.11896907127E+02  0.31886061782E+02  0.00000000000E+00 0. -1.
         11    1    3    3    0    0 -0.12354622026E+02 -0.25382365474E+01 -0.15893176825E+02  0.20289711680E+02  0.51100000000E-03 0. -1.
        -11    1    3    3    0    0  0.41848428148E+01 -0.10317186937E+02  0.95769140438E+01  0.14685861859E+02  0.51100000000E-03 0.  1.
        -12    1    3    3    0    0 -0.15264589019E+02 -0.52004598353E+01  0.18213169909E+02  0.24326364680E+02  0.00000000000E+00 0.  1.
</event>
<event>
 7    1  0.1134395E-011  0.5930193E+02  0.7816164E-02  0.1266605E+00
        -11   -1    0    0    0    0  0.00000000000E+00  0.00000000000E+00  0.45593999997E+02  0.45594000000E+02  0.51100000000E-03 0.  1.
         11   -1    0    0    0    0 -0.00000000000E+00 -0.00000000000E+00 -0.45593999997E+02  0.45594000000E+02  0.51100000000E-03 0. -1.
    9900012    2    1    2    0    0  0.25061742921E+02  0.19700978179E+02  0.70859851613E+00  0.59301927628E+02  0.49999970090E+02 0.  0.
         12    1    1    2    0    0 -0.25061742921E+02 -0.19700978179E+02 -0.70859851613E+00  0.31886072372E+02  0.00000000000E+00 0. -1.
         11    1    3    3    0    0  0.39578260353E+01 -0.78389206099E+01  0.18966874262E+01  0.89839015304E+01  0.51100000000E-03 0. -1.
        -11    1    3    3    0    0  0.12057981311E+02 -0.54905436280E+01  0.71717757958E+01  0.15065701144E+02  0.51100000000E-03 0.  1.
         12    1    3    3    0    0  0.90459355749E+01  0.33030442417E+02 -0.83598647059E+01  0.35252324953E+02  0.00000000000E+00 0. -1.
</event>
<event>
 7    1  0.1134395E-011  0.5930195E+02  0.7816164E-02  0.1266605E+00
        -11   -1    0    0    0    0  0.00000000000E+00  0.00000000000E+00  0.45593999997E+02  0.45594000000E+02  0.51100000000E-03 0. -1.
         11   -1    0    0    0    0 -0.00000000000E+00 -0.00000000000E+00 -0.45593999997E+02  0.45594000000E+02  0.51100000000E-03 0.  1.
    9900012    2    1    2    0    0  0.22420475166E+02  0.10705822770E+02 -0.19985686393E+02  0.59301952762E+02  0.50000015930E+02 0.  0.
         12    1    1    2    0    0 -0.22420475166E+02 -0.10705822770E+02  0.19985686393E+02  0.31886047238E+02  0.00000000000E+00 0. -1.
         11    1    3    3    0    0 -0.72365452161E+01  0.94623599707E+01 -0.18629014465E+02  0.22112078670E+02  0.51100000000E-03 0. -1.
        -11    1    3    3    0    0  0.12934012407E+02  0.11403283820E+02 -0.31942266951E+01  0.17536437588E+02  0.51100000000E-03 0.  1.
         12    1    3    3    0    0  0.16723007975E+02 -0.10159821022E+02  0.18375547675E+01  0.19653436505E+02  0.00000000000E+00 0. -1.
</event>
<event>
 7    1  0.1134395E-011  0.5930188E+02  0.7816164E-02  0.1266605E+00
        -11   -1    0    0    0    0  0.00000000000E+00  0.00000000000E+00  0.45593999997E+02  0.45594000000E+02  0.51100000000E-03 0. -1.
         11   -1    0    0    0    0 -0.00000000000E+00 -0.00000000000E+00 -0.45593999997E+02  0.45594000000E+02  0.51100000000E-03 0.  1.
    9900012    2    1    2    0    0 -0.31583278508E+02  0.43243494507E+01  0.72184556793E+00  0.59301881696E+02  0.49999886321E+02 0.  0.
         12    1    1    2    0    0  0.31583278508E+02 -0.43243494507E+01 -0.72184556793E+00  0.31886118304E+02  0.00000000000E+00 0. -1.
         11    1    3    3    0    0 -0.53251907514E+01  0.13889264216E+02  0.30293231054E+01  0.15180451764E+02  0.51100000000E-03 0. -1.
        -11    1    3    3    0    0 -0.27388347603E+02 -0.86394286634E+01 -0.14271012608E+02  0.32069036674E+02  0.51100000000E-03 0.  1.
         12    1    3    3    0    0  0.11302598466E+01 -0.92548610223E+00  0.11963535071E+02  0.12052393258E+02  0.00000000000E+00 0. -1.
</event>
<event>
 7    1  0.1134395E-011  0.5930195E+02  0.7816164E-02  0.1266605E+00
        -11   -1    0    0    0    0  0.00000000000E+00  0.00000000000E+00  0.45593999997E+02  0.45594000000E+02  0.51100000000E-03 0. -1.
         11   -1    0    0    0    0 -0.00000000000E+00 -0.00000000000E+00 -0.45593999997E+02  0.45594000000E+02  0.51100000000E-03 0.  1.
    9900012    2    1    2    0    0  0.16051655775E+02 -0.12596497064E+02 -0.24502914402E+02  0.59301949671E+02  0.50000010291E+02 0.  0.
         12    1    1    2    0    0 -0.16051655775E+02  0.12596497064E+02  0.24502914402E+02  0.31886050329E+02  0.00000000000E+00 0. -1.
         11    1    3    3    0    0 -0.22329328521E+01  0.10220977795E+02 -0.17981144578E+02  0.20803267455E+02  0.51100000000E-03 0. -1.
        -11    1    3    3    0    0 -0.20201023200E+01 -0.10063236877E+02 -0.99279338246E+01  0.14279825633E+02  0.51100000000E-03 0.  1.
         12    1    3    3    0    0  0.20304690947E+02 -0.12754237983E+02  0.34061640001E+01  0.24218856583E+02  0.00000000000E+00 0. -1.
</event>
<event>
 7    1  0.1134395E-011  0.5930195E+02  0.7816164E-02  0.1266605E+00
        -11   -1    0    0    0    0  0.00000000000E+00  0.00000000000E+00  0.45593999997E+02  0.45594000000E+02  0.51100000000E-03 0. -1.
         11   -1    0    0    0    0 -0.00000000000E+00 -0.00000000000E+00 -0.45593999997E+02  0.45594000000E+02  0.51100000000E-03 0.  1.
    9900012    2    1    2    0    0 -0.31710441289E+01 -0.24240475600E+02 -0.20471054659E+02  0.59301948865E+02  0.50000008821E+02 0.  0.
         12    1    1    2    0    0  0.31710441289E+01  0.24240475600E+02  0.20471054659E+02  0.31886051135E+02  0.00000000000E+00 0. -1.
         11    1    3    3    0    0  0.17610091215E+02 -0.56640141239E+01 -0.91633701256E+01  0.20643733212E+02  0.51100000000E-03 0. -1.
        -11    1    3    3    0    0 -0.31083292463E+01  0.47206132383E+01 -0.71626522748E+01  0.91241157335E+01  0.51100000000E-03 0.  1.
         12    1    3    3    0    0 -0.17672806098E+02 -0.23297074714E+02 -0.41450322583E+01  0.29534099919E+02  0.00000000000E+00 0. -1.
</event>
<event>
 7    1  0.1134395E-011  0.5930194E+02  0.7816164E-02  0.1266605E+00
        -11   -1    0    0    0    0  0.00000000000E+00  0.00000000000E+00  0.45593999997E+02  0.45594000000E+02  0.51100000000E-03 0.  1.
         11   -1    0    0    0    0 -0.00000000000E+00 -0.00000000000E+00 -0.45593999997E+02  0.45594000000E+02  0.51100000000E-03 0. -1.
    9900012    2    1    2    0    0 -0.48381749125E+01 -0.27570232381E+02  0.15270720280E+02  0.59301944304E+02  0.50000000503E+02 0.  0.
         12    1    1    2    0    0  0.48381749125E+01  0.27570232381E+02 -0.15270720280E+02  0.31886055696E+02  0.00000000000E+00 0. -1.
         11    1    3    3    0    0  0.58622204021E+01 -0.29485435097E+02  0.11229883402E+01  0.30083510666E+02  0.51100000000E-03 0. -1.
        -11    1    3    3    0    0  0.42749402356E+01 -0.68575948879E+01  0.31593287680E+01  0.86765822873E+01  0.51100000000E-03 0.  1.
         12    1    3    3    0    0 -0.14975335550E+02  0.87727976041E+01  0.10988403171E+02  0.20541851350E+02  0.00000000000E+00 0. -1.
</event>
<event>
 7    1  0.1134395E-011  0.5930192E+02  0.7816164E-02  0.1266605E+00
        -11   -1    0    0    0    0  0.00000000000E+00  0.00000000000E+00  0.45593999997E+02  0.45594000000E+02  0.51100000000E-03 0. -1.
         11   -1    0    0    0    0 -0.00000000000E+00 -0.00000000000E+00 -0.45593999997E+02  0.45594000000E+02  0.51100000000E-03 0.  1.
    9900012    2    1    2    0    0  0.23897943082E+02  0.21108008895E+02 -0.24944902063E+00  0.59301922350E+02  0.49999960465E+02 0.  0.
         12    1    1    2    0    0 -0.23897943082E+02 -0.21108008895E+02  0.24944902063E+00  0.31886077650E+02  0.00000000000E+00 0. -1.
         11    1    3    3    0    0 -0.11892460500E+01  0.21499185119E+01 -0.18976714240E+01  0.31044504940E+01  0.51100000000E-03 0. -1.
        -11    1    3    3    0    0 -0.11238080022E+02  0.13263667190E+02 -0.64587026387E+01  0.18545461707E+02  0.51100000000E-03 0.  1.
        -12    1    3    3    0    0  0.36325269154E+02  0.56944231933E+01  0.81069250421E+01  0.37652010149E+02  0.00000000000E+00 0.  1.
</event>
<event>
 7    1  0.1134395E-011  0.5930194E+02  0.7816164E-02  0.1266605E+00
        -11   -1    0    0    0    0  0.00000000000E+00  0.00000000000E+00  0.45593999997E+02  0.45594000000E+02  0.51100000000E-03 0.  1.
         11   -1    0    0    0    0 -0.00000000000E+00 -0.00000000000E+00 -0.45593999997E+02  0.45594000000E+02  0.51100000000E-03 0. -1.
    9900012    2    1    2    0    0  0.57944367788E+01 -0.15721702778E+02  0.27128834205E+02  0.59301935942E+02  0.49999985253E+02 0.  0.
         12    1    1    2    0    0 -0.57944367788E+01  0.15721702778E+02 -0.27128834205E+02  0.31886064058E+02  0.00000000000E+00 0. -1.
         11    1    3    3    0    0 -0.10490182872E+02  0.39721569322E+01  0.81058762993E+01  0.13839335180E+02  0.51100000000E-03 0. -1.
        -11    1    3    3    0    0 -0.94304825412E+01 -0.17477921104E+01  0.70207268262E+01  0.11886100439E+02  0.51100000000E-03 0.  1.
        -12    1    3    3    0    0  0.25715102192E+02 -0.17946067600E+02  0.12002231079E+02  0.33576500323E+02  0.00000000000E+00 0.  1.
</event>
<event>
 7    1  0.1134395E-011  0.5930196E+02  0.7816164E-02  0.1266605E+00
        -11   -1    0    0    0    0  0.00000000000E+00  0.00000000000E+00  0.45593999997E+02  0.45594000000E+02  0.51100000000E-03 0.  1.
         11   -1    0    0    0    0 -0.00000000000E+00 -0.00000000000E+00 -0.45593999997E+02  0.45594000000E+02  0.51100000000E-03 0. -1.
    9900012    2    1    2    0    0  0.31050627238E+02 -0.67028436215E+01  0.27659083567E+01  0.59301955819E+02  0.50000021504E+02 0.  0.
         12    1    1    2    0    0 -0.31050627238E+02  0.67028436215E+01 -0.27659083567E+01  0.31886044181E+02  0.00000000000E+00 0. -1.
         11    1    3    3    0    0  0.11052513591E+02  0.10637024871E+02  0.75683455544E+01  0.17105093086E+02  0.51100000000E-03 0. -1.
        -11    1    3    3    0    0  0.23102248234E+02 -0.13145990839E+02 -0.15159539353E+02  0.30599715395E+02  0.51100000000E-03 0.  1.
         12    1    3    3    0    0 -0.31041345866E+01 -0.41938776536E+01  0.10357102155E+02  0.11597147337E+02  0.00000000000E+00 0. -1.
</event>
<event>
 7    1  0.1134395E-011  0.5930194E+02  0.7816164E-02  0.1266605E+00
        -11   -1    0    0    0    0  0.00000000000E+00  0.00000000000E+00  0.45593999997E+02  0.45594000000E+02  0.51100000000E-03 0. -1.
         11   -1    0    0    0    0 -0.00000000000E+00 -0.00000000000E+00 -0.45593999997E+02  0.45594000000E+02  0.51100000000E-03 0.  1.
    9900012    2    1    2    0    0 -0.27669750699E+02  0.36648990461E+01 -0.15416681657E+02  0.59301942513E+02  0.49999997237E+02 0.  0.
         12    1    1    2    0    0  0.27669750699E+02 -0.36648990461E+01  0.15416681657E+02  0.31886057487E+02  0.00000000000E+00 0. -1.
         11    1    3    3    0    0 -0.10145413931E+02 -0.57807842458E+01  0.21928513885E+01  0.11880887501E+02  0.51100000000E-03 0. -1.
        -11    1    3    3    0    0 -0.13731251588E+02 -0.14340363609E+02 -0.64574629882E+01  0.20878029771E+02  0.51100000000E-03 0.  1.
        -12    1    3    3    0    0 -0.37930851797E+01  0.23786046901E+02 -0.11152070058E+02  0.26543025241E+02  0.00000000000E+00 0.  1.
</event>
<event>
 7    1  0.1134395E-011  0.5930197E+02  0.7816164E-02  0.1266605E+00
        -11   -1    0    0    0    0  0.00000000000E+00  0.00000000000E+00  0.45593999997E+02  0.45594000000E+02  0.51100000000E-03 0.  1.
         11   -1    0    0    0    0 -0.00000000000E+00 -0.00000000000E+00 -0.45593999997E+02  0.45594000000E+02  0.51100000000E-03 0. -1.
    9900012    2    1    2    0    0  0.91116733328E+01 -0.21676146488E+02  0.21536969243E+02  0.59301969177E+02  0.50000045866E+02 0.  0.
         12    1    1    2    0    0 -0.91116733328E+01  0.21676146488E+02 -0.21536969243E+02  0.31886030823E+02  0.00000000000E+00 0. -1.
         11    1    3    3    0    0  0.25035863958E+01  0.38484901724E+01  0.21800782326E+02  0.22278979594E+02  0.51100000000E-03 0. -1.
        -11    1    3    3    0    0 -0.22088747106E+01  0.19212532549E+01  0.67475440153E+01  0.73552492858E+01  0.51100000000E-03 0.  1.
        -12    1    3    3    0    0  0.88169616476E+01 -0.27445889916E+02 -0.70113570990E+01  0.29667740297E+02  0.00000000000E+00 0.  1.
</event>
<event>
 7    1  0.1134395E-011  0.5930195E+02  0.7816164E-02  0.1266605E+00
        -11   -1    0    0    0    0  0.00000000000E+00  0.00000000000E+00  0.45593999997E+02  0.45594000000E+02  0.51100000000E-03 0. -1.
         11   -1    0    0    0    0 -0.00000000000E+00 -0.00000000000E+00 -0.45593999997E+02  0.45594000000E+02  0.51100000000E-03 0.  1.
    9900012    2    1    2    0    0 -0.35949159795E+01 -0.13384379001E+02 -0.28716812317E+02  0.59301947692E+02  0.50000006683E+02 0.  0.
         12    1    1    2    0    0  0.35949159795E+01  0.13384379001E+02  0.28716812317E+02  0.31886052308E+02  0.00000000000E+00 0. -1.
         11    1    3    3    0    0  0.74936389222E+01  0.28194610264E+01 -0.25853577428E+02  0.27064948751E+02  0.51100000000E-03 0. -1.
        -11    1    3    3    0    0  0.51608086187E+01  0.20689625240E+01 -0.52767597598E+01  0.76654253207E+01  0.51100000000E-03 0.  1.
         12    1    3    3    0    0 -0.16249363520E+02 -0.18272802551E+02  0.24135248714E+01  0.24571573621E+02  0.00000000000E+00 0. -1.
</event>
<event>
 7    1  0.1134395E-011  0.5930193E+02  0.7816164E-02  0.1266605E+00
        -11   -1    0    0    0    0  0.00000000000E+00  0.00000000000E+00  0.45593999997E+02  0.45594000000E+02  0.51100000000E-03 0.  1.
         11   -1    0    0    0    0 -0.00000000000E+00 -0.00000000000E+00 -0.45593999997E+02  0.45594000000E+02  0.51100000000E-03 0. -1.
    9900012    2    1    2    0    0  0.17574704893E+02  0.16204618944E+02  0.21101225454E+02  0.59301927134E+02  0.49999969189E+02 0.  0.
         12    1    1    2    0    0 -0.17574704893E+02 -0.16204618944E+02 -0.21101225454E+02  0.31886072866E+02  0.00000000000E+00 0. -1.
         11    1    3    3    0    0  0.16792157798E+02 -0.68509390746E+01  0.56383174441E+01  0.18992170849E+02  0.51100000000E-03 0. -1.
        -11    1    3    3    0    0 -0.91523497682E+01  0.41859367509E+01  0.16086612249E+02  0.18975422701E+02  0.51100000000E-03 0.  1.
        -12    1    3    3    0    0  0.99348968629E+01  0.18869621267E+02 -0.62370423922E+00  0.21334333583E+02  0.00000000000E+00 0.  1.
</event>
<event>
 7    1  0.1134395E-011  0.5930196E+02  0.7816164E-02  0.1266605E+00
        -11   -1    0    0    0    0  0.00000000000E+00  0.00000000000E+00  0.45593999997E+02  0.45594000000E+02  0.51100000000E-03 0.  1.
         11   -1    0    0    0    0 -0.00000000000E+00 -0.00000000000E+00 -0.45593999997E+02  0.45594000000E+02  0.51100000000E-03 0. -1.
    9900012    2    1    2    0    0 -0.26019404007E+02  0.10700805375E+02  0.15006771711E+02  0.59301955753E+02  0.50000021383E+02 0.  0.
         12    1    1    2    0    0  0.26019404007E+02 -0.10700805375E+02 -0.15006771711E+02  0.31886044247E+02  0.00000000000E+00 0. -1.
         11    1    3    3    0    0 -0.18290612420E+02 -0.80766900354E+01 -0.51445639188E+01  0.20645725049E+02  0.51100000000E-03 0. -1.
        -11    1    3    3    0    0 -0.15944007850E+02  0.57656459810E+01  0.14345492499E+02  0.22209169620E+02  0.51100000000E-03 0.  1.
         12    1    3    3    0    0  0.82152162632E+01  0.13011849430E+02  0.58058431312E+01  0.16447061084E+02  0.00000000000E+00 0. -1.
</event>
<event>
 7    1  0.1134395E-011  0.5930191E+02  0.7816164E-02  0.1266605E+00
        -11   -1    0    0    0    0  0.00000000000E+00  0.00000000000E+00  0.45593999997E+02  0.45594000000E+02  0.51100000000E-03 0.  1.
         11   -1    0    0    0    0 -0.00000000000E+00 -0.00000000000E+00 -0.45593999997E+02  0.45594000000E+02  0.51100000000E-03 0. -1.
    9900012    2    1    2    0    0 -0.24243866486E+02 -0.72539946781E+01  0.19399411593E+02  0.59301911009E+02  0.49999939782E+02 0.  0.
         12    1    1    2    0    0  0.24243866486E+02  0.72539946781E+01 -0.19399411593E+02  0.31886088991E+02  0.00000000000E+00 0. -1.
         11    1    3    3    0    0  0.36667778402E+01 -0.36569990123E+01  0.95626810672E+01  0.10874914756E+02  0.51100000000E-03 0. -1.
        -11    1    3    3    0    0 -0.51878182166E+01 -0.16933533889E+02  0.12888034031E+02  0.21903411818E+02  0.51100000000E-03 0.  1.
         12    1    3    3    0    0 -0.22722826110E+02  0.13336538223E+02 -0.30513035057E+01  0.26523584435E+02  0.00000000000E+00 0. -1.
</event>
<event>
 7    1  0.1134395E-011  0.5930195E+02  0.7816164E-02  0.1266605E+00
        -11   -1    0    0    0    0  0.00000000000E+00  0.00000000000E+00  0.45593999997E+02  0.45594000000E+02  0.51100000000E-03 0.  1.
         11   -1    0    0    0    0 -0.00000000000E+00 -0.00000000000E+00 -0.45593999997E+02  0.45594000000E+02  0.51100000000E-03 0. -1.
    9900012    2    1    2    0    0 -0.21318016481E+02  0.19030236538E+01  0.23635589967E+02  0.59301946014E+02  0.50000003623E+02 0.  0.
         12    1    1    2    0    0  0.21318016481E+02 -0.19030236538E+01 -0.23635589967E+02  0.31886053986E+02  0.00000000000E+00 0. -1.
         11    1    3    3    0    0 -0.11320139586E+00  0.63492003994E+01  0.13958948987E+02  0.15335495341E+02  0.51100000000E-03 0. -1.
        -11    1    3    3    0    0  0.54152198867E+01 -0.95156714173E+01  0.12621418743E+02  0.16708465528E+02  0.51100000000E-03 0.  1.
         12    1    3    3    0    0 -0.26620034972E+02  0.50694946717E+01 -0.29447777635E+01  0.27257985146E+02  0.00000000000E+00 0. -1.
</event>
<event>
 7    1  0.1134395E-011  0.5930191E+02  0.7816164E-02  0.1266605E+00
        -11   -1    0    0    0    0  0.00000000000E+00  0.00000000000E+00  0.45593999997E+02  0.45594000000E+02  0.51100000000E-03 0. -1.
         11   -1    0    0    0    0 -0.00000000000E+00 -0.00000000000E+00 -0.45593999997E+02  0.45594000000E+02  0.51100000000E-03 0.  1.
    9900012    2    1    2    0    0 -0.22847684135E+02 -0.94621948268E+01 -0.20128906400E+02  0.59301910962E+02  0.49999939696E+02 0.  0.
         12    1    1    2    0    0  0.22847684135E+02  0.94621948268E+01  0.20128906400E+02  0.31886089038E+02  0.00000000000E+00 0. -1.
         11    1    3    3    0    0 -0.23786524106E+02 -0.73502348576E+01 -0.20223994562E+02  0.32075452262E+02  0.51100000000E-03 0. -1.
        -11    1    3    3    0    0 -0.12638895865E+01 -0.78554876295E+01 -0.11568266409E+02  0.14040330863E+02  0.51100000000E-03 0.  1.
        -12    1    3    3    0    0  0.22027295580E+01  0.57435276602E+01  0.11663354571E+02  0.13186127837E+02  0.00000000000E+00 0.  1.
</event>
<event>
 7    1  0.1134395E-011  0.5930195E+02  0.7816164E-02  0.1266605E+00
        -11   -1    0    0    0    0  0.00000000000E+00  0.00000000000E+00  0.45593999997E+02  0.45594000000E+02  0.51100000000E-03 0.  1.
         11   -1    0    0    0    0 -0.00000000000E+00 -0.00000000000E+00 -0.45593999997E+02  0.45594000000E+02  0.51100000000E-03 0. -1.
    9900012    2    1    2    0    0 -0.20499313577E+02  0.25203015855E+01  0.24292925110E+02  0.59301953089E+02  0.50000016526E+02 0.  0.
         12    1    1    2    0    0  0.20499313577E+02 -0.25203015855E+01 -0.24292925110E+02  0.31886046911E+02  0.00000000000E+00 0. -1.
         11    1    3    3    0    0  0.11632834464E+02 -0.64017497726E+01 -0.33271830221E+01  0.13688512883E+02  0.51100000000E-03 0. -1.
        -11    1    3    3    0    0 -0.68713592565E+01 -0.32968149376E+01  0.96302142263E+01  0.12281107160E+02  0.51100000000E-03 0.  1.
        -12    1    3    3    0    0 -0.25260788785E+02  0.12218866296E+02  0.17989893906E+02  0.33332333046E+02  0.00000000000E+00 0.  1.
</event>
<event>
 7    1  0.1134395E-011  0.5930195E+02  0.7816164E-02  0.1266605E+00
        -11   -1    0    0    0    0  0.00000000000E+00  0.00000000000E+00  0.45593999997E+02  0.45594000000E+02  0.51100000000E-03 0. -1.
         11   -1    0    0    0    0 -0.00000000000E+00 -0.00000000000E+00 -0.45593999997E+02  0.45594000000E+02  0.51100000000E-03 0.  1.
    9900012    2    1    2    0    0 -0.11192940031E+02  0.32157721037E+01 -0.29683282402E+02  0.59301947392E+02  0.50000006135E+02 0.  0.
         12    1    1    2    0    0  0.11192940031E+02 -0.32157721037E+01  0.29683282402E+02  0.31886052608E+02  0.00000000000E+00 0. -1.
         11    1    3    3    0    0 -0.26605654716E+01 -0.57175149677E+01  0.24289027958E+01  0.67578217709E+01  0.51100000000E-03 0. -1.
        -11    1    3    3    0    0 -0.21243350136E+02  0.10291162541E+02 -0.31995200252E+02  0.39760291634E+02  0.51100000000E-03 0.  1.
         12    1    3    3    0    0  0.12710975577E+02 -0.13578754695E+01 -0.11698494654E+00  0.12783833986E+02  0.00000000000E+00 0. -1.
</event>
<event>
 7    1  0.1134395E-011  0.5930194E+02  0.7816164E-02  0.1266605E+00
        -11   -1    0    0    0    0  0.00000000000E+00  0.00000000000E+00  0.45593999997E+02  0.45594000000E+02  0.51100000000E-03 0.  1.
         11   -1    0    0    0    0 -0.00000000000E+00 -0.00000000000E+00 -0.45593999997E+02  0.45594000000E+02  0.51100000000E-03 0. -1.
    9900012    2    1    2    0    0 -0.67823375932E+01  0.16520586832E+02  0.26415728393E+02  0.59301943502E+02  0.49999999041E+02 0.  0.
         12    1    1    2    0    0  0.67823375932E+01 -0.16520586832E+02 -0.26415728393E+02  0.31886056498E+02  0.00000000000E+00 0. -1.
         11    1    3    3    0    0 -0.48257381336E+01  0.57913191465E+01  0.14604852354E+02  0.16435596689E+02  0.51100000000E-03 0. -1.
        -11    1    3    3    0    0 -0.15872741879E+02  0.90404652184E+01  0.19630407305E+02  0.26814675783E+02  0.51100000000E-03 0.  1.
         12    1    3    3    0    0  0.13916142419E+02  0.16888024668E+01 -0.78195312666E+01  0.16051671029E+02  0.00000000000E+00 0. -1.
</event>
<event>
 7    1  0.1134395E-011  0.5930194E+02  0.7816164E-02  0.1266605E+00
        -11   -1    0    0    0    0  0.00000000000E+00  0.00000000000E+00  0.45593999997E+02  0.45594000000E+02  0.51100000000E-03 0.  1.
         11   -1    0    0    0    0 -0.00000000000E+00 -0.00000000000E+00 -0.45593999997E+02  0.45594000000E+02  0.51100000000E-03 0. -1.
    9900012    2    1    2    0    0  0.22230222575E+02 -0.18213353541E+02  0.13813456349E+02  0.59301943185E+02  0.49999998462E+02 0.  0.
         12    1    1    2    0    0 -0.22230222575E+02  0.18213353541E+02 -0.13813456349E+02  0.31886056815E+02  0.00000000000E+00 0. -1.
         11    1    3    3    0    0  0.11036841148E+02 -0.20759411790E+02  0.48164164461E+01  0.23999227238E+02  0.51100000000E-03 0. -1.
        -11    1    3    3    0    0 -0.66246091286E+00 -0.25631637052E+00  0.19320995295E+02  0.19334047998E+02  0.51100000000E-03 0.  1.
         12    1    3    3    0    0  0.11855842340E+02  0.28023746189E+01 -0.10323955393E+02  0.15968667948E+02  0.00000000000E+00 0. -1.
</event>
<event>
 7    1  0.1134395E-011  0.5930196E+02  0.7816164E-02  0.1266605E+00
        -11   -1    0    0    0    0  0.00000000000E+00  0.00000000000E+00  0.45593999997E+02  0.45594000000E+02  0.51100000000E-03 0. -1.
         11   -1    0    0    0    0 -0.00000000000E+00 -0.00000000000E+00 -0.45593999997E+02  0.45594000000E+02  0.51100000000E-03 0.  1.
    9900012    2    1    2    0    0 -0.20177560899E+02  0.23963102978E+02 -0.59460180468E+01  0.59301962323E+02  0.50000033365E+02 0.  0.
         12    1    1    2    0    0  0.20177560899E+02 -0.23963102978E+02  0.59460180468E+01  0.31886037677E+02  0.00000000000E+00 0. -1.
         11    1    3    3    0    0 -0.45981447829E+01  0.32416766841E+01  0.19132871630E+01  0.59423960823E+01  0.51100000000E-03 0. -1.
        -11    1    3    3    0    0 -0.27930420606E+02  0.10312073570E+02  0.78887923002E+01  0.30800654226E+02  0.51100000000E-03 0.  1.
         12    1    3    3    0    0  0.12351004491E+02  0.10409352724E+02 -0.15748097510E+02  0.22558912014E+02  0.00000000000E+00 0. -1.
</event>
<event>
 7    1  0.1134395E-011  0.5930202E+02  0.7816164E-02  0.1266604E+00
        -11   -1    0    0    0    0  0.00000000000E+00  0.00000000000E+00  0.45593999997E+02  0.45594000000E+02  0.51100000000E-03 0.  1.
         11   -1    0    0    0    0 -0.00000000000E+00 -0.00000000000E+00 -0.45593999997E+02  0.45594000000E+02  0.51100000000E-03 0. -1.
    9900012    2    1    2    0    0 -0.26522454464E+02 -0.13480892878E+01  0.17648159551E+02  0.59302023913E+02  0.50000145690E+02 0.  0.
         12    1    1    2    0    0  0.26522454464E+02  0.13480892878E+01 -0.17648159551E+02  0.31885976087E+02  0.00000000000E+00 0. -1.
         11    1    3    3    0    0 -0.63577967152E+01  0.18358784774E+02  0.16687541065E+01  0.19500033282E+02  0.51100000000E-03 0. -1.
        -11    1    3    3    0    0 -0.64889327881E+01  0.76606279859E+00 -0.43697848093E+01  0.78605419966E+01  0.51100000000E-03 0.  1.
        -12    1    3    3    0    0 -0.13675724961E+02 -0.20472936860E+02  0.20349190254E+02  0.31941448634E+02  0.00000000000E+00 0.  1.
</event>
<event>
 7    1  0.1134395E-011  0.5930191E+02  0.7816164E-02  0.1266605E+00
        -11   -1    0    0    0    0  0.00000000000E+00  0.00000000000E+00  0.45593999997E+02  0.45594000000E+02  0.51100000000E-03 0.  1.
         11   -1    0    0    0    0 -0.00000000000E+00 -0.00000000000E+00 -0.45593999997E+02  0.45594000000E+02  0.51100000000E-03 0. -1.
    9900012    2    1    2    0    0  0.24386881958E+02 -0.36262179492E+01  0.20220122076E+02  0.59301908910E+02  0.49999935953E+02 0.  0.
         12    1    1    2    0    0 -0.24386881958E+02  0.36262179492E+01 -0.20220122076E+02  0.31886091090E+02  0.00000000000E+00 0. -1.
         11    1    3    3    0    0  0.18993017770E+02  0.12679216338E+02  0.18453159344E+02  0.29360114798E+02  0.51100000000E-03 0.  1.
        -11    1    3    3    0    0  0.71009624081E+01  0.15045050282E+01 -0.69414374935E+01  0.10043443495E+02  0.51100000000E-03 0. -1.
         12    1    3    3    0    0 -0.17070982205E+01 -0.17809939315E+02  0.87084002261E+01  0.19898350616E+02  0.00000000000E+00 0. -1.
</event>
<event>
 7    1  0.1134395E-011  0.5930190E+02  0.7816164E-02  0.1266605E+00
        -11   -1    0    0    0    0  0.00000000000E+00  0.00000000000E+00  0.45593999997E+02  0.45594000000E+02  0.51100000000E-03 0. -1.
         11   -1    0    0    0    0 -0.00000000000E+00 -0.00000000000E+00 -0.45593999997E+02  0.45594000000E+02  0.51100000000E-03 0.  1.
    9900012    2    1    2    0    0 -0.24268968998E+02  0.15926618591E+02 -0.13194061441E+02  0.59301901253E+02  0.49999921990E+02 0.  0.
         12    1    1    2    0    0  0.24268968998E+02 -0.15926618591E+02  0.13194061441E+02  0.31886098747E+02  0.00000000000E+00 0. -1.
         11    1    3    3    0    0 -0.57492813586E+00 -0.48657881984E+01  0.14185130680E+01  0.51008447083E+01  0.51100000000E-03 0. -1.
        -11    1    3    3    0    0  0.13969058524E+01 -0.10216375874E+02  0.27889483600E+01  0.10681943417E+02  0.51100000000E-03 0.  1.
         12    1    3    3    0    0 -0.25090946714E+02  0.31008782663E+02 -0.17401522869E+02  0.43519113128E+02  0.00000000000E+00 0. -1.
</event>
<event>
 7    1  0.1134395E-011  0.5930195E+02  0.7816164E-02  0.1266605E+00
        -11   -1    0    0    0    0  0.00000000000E+00  0.00000000000E+00  0.45593999997E+02  0.45594000000E+02  0.51100000000E-03 0. -1.
         11   -1    0    0    0    0 -0.00000000000E+00 -0.00000000000E+00 -0.45593999997E+02  0.45594000000E+02  0.51100000000E-03 0.  1.
    9900012    2    1    2    0    0 -0.30579816276E+02 -0.46126671619E+01 -0.77664705599E+01  0.59301954043E+02  0.50000018266E+02 0.  0.
         12    1    1    2    0    0  0.30579816276E+02  0.46126671619E+01  0.77664705599E+01  0.31886045957E+02  0.00000000000E+00 0. -1.
         11    1    3    3    0    0  0.13299682565E+01  0.44291730463E+01 -0.64485095881E+01  0.79353428159E+01  0.51100000000E-03 0. -1.
        -11    1    3    3    0    0  0.34854981068E+01 -0.14160488914E+02  0.42094093533E+01  0.15178513455E+02  0.51100000000E-03 0.  1.
         12    1    3    3    0    0 -0.35395282639E+02  0.51186487057E+01 -0.55273703251E+01  0.36188097772E+02  0.00000000000E+00 0. -1.
</event>
<event>
 7    1  0.1134395E-011  0.5930195E+02  0.7816164E-02  0.1266605E+00
        -11   -1    0    0    0    0  0.00000000000E+00  0.00000000000E+00  0.45593999997E+02  0.45594000000E+02  0.51100000000E-03 0.  1.
         11   -1    0    0    0    0 -0.00000000000E+00 -0.00000000000E+00 -0.45593999997E+02  0.45594000000E+02  0.51100000000E-03 0. -1.
    9900012    2    1    2    0    0  0.11275953163E+01  0.27444546816E+02  0.16194003590E+02  0.59301947039E+02  0.50000005492E+02 0.  0.
         12    1    1    2    0    0 -0.11275953163E+01 -0.27444546816E+02 -0.16194003590E+02  0.31886052961E+02  0.00000000000E+00 0. -1.
         11    1    3    3    0    0 -0.56681548947E+01 -0.34456144028E+01  0.13965817176E+02  0.15461057149E+02  0.51100000000E-03 0. -1.
        -11    1    3    3    0    0  0.76268592460E+01 -0.38988835652E+01 -0.19709652134E+01  0.87894811648E+01  0.51100000000E-03 0.  1.
        -12    1    3    3    0    0 -0.83110903504E+00  0.34789044784E+02  0.41991516278E+01  0.35051408725E+02  0.00000000000E+00 0.  1.
</event>
<event>
 7    1  0.1134395E-011  0.5930182E+02  0.7816164E-02  0.1266605E+00
        -11   -1    0    0    0    0  0.00000000000E+00  0.00000000000E+00  0.45593999997E+02  0.45594000000E+02  0.51100000000E-03 0. -1.
         11   -1    0    0    0    0 -0.00000000000E+00 -0.00000000000E+00 -0.45593999997E+02  0.45594000000E+02  0.51100000000E-03 0.  1.
    9900012    2    1    2    0    0 -0.13962596301E+02 -0.22820485499E+02 -0.17349353047E+02  0.59301816393E+02  0.49999767224E+02 0.  0.
         12    1    1    2    0    0  0.13962596301E+02  0.22820485499E+02  0.17349353047E+02  0.31886183607E+02  0.00000000000E+00 0. -1.
         11    1    3    3    0    0 -0.96228738805E+01  0.24276325869E+01 -0.14618927510E+02  0.17669356058E+02  0.51100000000E-03 0.  1.
        -11    1    3    3    0    0 -0.18334585651E+01  0.79520507684E+01  0.53428077891E+00  0.81781500319E+01  0.51100000000E-03 0. -1.
        -12    1    3    3    0    0 -0.25062638554E+01 -0.33200168855E+02 -0.32647063156E+01  0.33454310302E+02  0.00000000000E+00 0.  1.
</event>
<event>
 7    1  0.1134395E-011  0.5930196E+02  0.7816164E-02  0.1266605E+00
        -11   -1    0    0    0    0  0.00000000000E+00  0.00000000000E+00  0.45593999997E+02  0.45594000000E+02  0.51100000000E-03 0. -1.
         11   -1    0    0    0    0 -0.00000000000E+00 -0.00000000000E+00 -0.45593999997E+02  0.45594000000E+02  0.51100000000E-03 0.  1.
    9900012    2    1    2    0    0  0.27159826115E+02  0.41533701037E+01 -0.16180628827E+02  0.59301962507E+02  0.50000033701E+02 0.  0.
         12    1    1    2    0    0 -0.27159826115E+02 -0.41533701037E+01  0.16180628827E+02  0.31886037493E+02  0.00000000000E+00 0. -1.
         11    1    3    3    0    0  0.20920413466E+01 -0.13419940340E+01 -0.26092252949E+01  0.36035596129E+01  0.51100000000E-03 0. -1.
        -11    1    3    3    0    0  0.63069057929E+01 -0.10415316509E+02 -0.25575907964E+02  0.28326364876E+02  0.51100000000E-03 0.  1.
         12    1    3    3    0    0  0.18760878975E+02  0.15910680647E+02  0.12004504432E+02  0.27372038017E+02  0.00000000000E+00 0. -1.
</event>
<event>
 7    1  0.1134395E-011  0.5930193E+02  0.7816164E-02  0.1266605E+00
        -11   -1    0    0    0    0  0.00000000000E+00  0.00000000000E+00  0.45593999997E+02  0.45594000000E+02  0.51100000000E-03 0.  1.
         11   -1    0    0    0    0 -0.00000000000E+00 -0.00000000000E+00 -0.45593999997E+02  0.45594000000E+02  0.51100000000E-03 0. -1.
    9900012    2    1    2    0    0  0.12921549800E+02 -0.21053339319E+02 -0.20162148211E+02  0.59301925199E+02  0.49999965660E+02 0.  0.
         12    1    1    2    0    0 -0.12921549800E+02  0.21053339319E+02  0.20162148211E+02  0.31886074801E+02  0.00000000000E+00 0. -1.
         11    1    3    3    0    0 -0.14710472487E+01 -0.22217918415E+02 -0.17159574899E+02  0.28111401418E+02  0.51100000000E-03 0. -1.
        -11    1    3    3    0    0  0.20777972333E+02 -0.14629670440E+00 -0.87064201779E+01  0.22528810212E+02  0.51100000000E-03 0.  1.
        -12    1    3    3    0    0 -0.63853752840E+01  0.13108758000E+01  0.57038468654E+01  0.86617135686E+01  0.00000000000E+00 0.  1.
</event>
<event>
 7    1  0.1134395E-011  0.5930195E+02  0.7816164E-02  0.1266605E+00
        -11   -1    0    0    0    0  0.00000000000E+00  0.00000000000E+00  0.45593999997E+02  0.45594000000E+02  0.51100000000E-03 0. -1.
         11   -1    0    0    0    0 -0.00000000000E+00 -0.00000000000E+00 -0.45593999997E+02  0.45594000000E+02  0.51100000000E-03 0.  1.
    9900012    2    1    2    0    0 -0.69674657900E+01 -0.23243798438E+02 -0.20685755936E+02  0.59301949069E+02  0.50000009194E+02 0.  0.
         12    1    1    2    0    0  0.69674657900E+01  0.23243798438E+02  0.20685755936E+02  0.31886050931E+02  0.00000000000E+00 0. -1.
         11    1    3    3    0    0 -0.49599271518E+01  0.45594086553E+01 -0.22057185384E+02  0.23063141849E+02  0.51100000000E-03 0. -1.
        -11    1    3    3    0    0 -0.58209503775E+01 -0.21210739565E+02 -0.86646973051E+01  0.23640133584E+02  0.51100000000E-03 0.  1.
        -12    1    3    3    0    0  0.38134117393E+01 -0.65924675276E+01  0.10036126753E+02  0.12598673637E+02  0.00000000000E+00 0.  1.
</event>
<event>
 7    1  0.1134395E-011  0.5930197E+02  0.7816164E-02  0.1266605E+00
        -11   -1    0    0    0    0  0.00000000000E+00  0.00000000000E+00  0.45593999997E+02  0.45594000000E+02  0.51100000000E-03 0. -1.
         11   -1    0    0    0    0 -0.00000000000E+00 -0.00000000000E+00 -0.45593999997E+02  0.45594000000E+02  0.51100000000E-03 0.  1.
    9900012    2    1    2    0    0  0.30611098913E+02  0.84563777069E+01  0.28581509861E+01  0.59301972846E+02  0.50000052558E+02 0.  0.
         12    1    1    2    0    0 -0.30611098913E+02 -0.84563777069E+01 -0.28581509861E+01  0.31886027154E+02  0.00000000000E+00 0. -1.
         11    1    3    3    0    0  0.28779991121E+02 -0.31756240533E+01  0.12913586378E+02  0.31703835579E+02  0.51100000000E-03 0. -1.
        -11    1    3    3    0    0  0.10099238232E+02 -0.12977624417E+01 -0.55828687130E+01  0.11612373726E+02  0.51100000000E-03 0.  1.
        -12    1    3    3    0    0 -0.82681304402E+01  0.12929764202E+02 -0.44725666788E+01  0.15985763541E+02  0.00000000000E+00 0.  1.
</event>
<event>
 7    1  0.1134395E-011  0.5930195E+02  0.7816164E-02  0.1266605E+00
        -11   -1    0    0    0    0  0.00000000000E+00  0.00000000000E+00  0.45593999997E+02  0.45594000000E+02  0.51100000000E-03 0.  1.
         11   -1    0    0    0    0 -0.00000000000E+00 -0.00000000000E+00 -0.45593999997E+02  0.45594000000E+02  0.51100000000E-03 0. -1.
    9900012    2    1    2    0    0 -0.27499031837E+02 -0.18114812957E+01  0.16038769430E+02  0.59301947543E+02  0.50000006412E+02 0.  0.
         12    1    1    2    0    0  0.27499031837E+02  0.18114812957E+01 -0.16038769430E+02  0.31886052457E+02  0.00000000000E+00 0. -1.
         11    1    3    3    0    0  0.18434248898E+01 -0.14577907075E+02 -0.26005362240E+01  0.14922344954E+02  0.51100000000E-03 0. -1.
        -11    1    3    3    0    0 -0.10194350486E+02 -0.17652229602E+01 -0.42520461738E+01  0.11185736044E+02  0.51100000000E-03 0.  1.
        -12    1    3    3    0    0 -0.19148106240E+02  0.14531648740E+02  0.22891351828E+02  0.33193866545E+02  0.00000000000E+00 0.  1.
</event>
<event>
 7    1  0.1134395E-011  0.5930190E+02  0.7816164E-02  0.1266605E+00
        -11   -1    0    0    0    0  0.00000000000E+00  0.00000000000E+00  0.45593999997E+02  0.45594000000E+02  0.51100000000E-03 0.  1.
         11   -1    0    0    0    0 -0.00000000000E+00 -0.00000000000E+00 -0.45593999997E+02  0.45594000000E+02  0.51100000000E-03 0. -1.
    9900012    2    1    2    0    0 -0.15937386123E+00 -0.29645965492E+02  0.11739439661E+02  0.59301904072E+02  0.49999927131E+02 0.  0.
         12    1    1    2    0    0  0.15937386123E+00  0.29645965492E+02 -0.11739439661E+02  0.31886095928E+02  0.00000000000E+00 0. -1.
         11    1    3    3    0    0  0.26577720662E+01 -0.14550262475E+02  0.12769281884E+02  0.19540431176E+02  0.51100000000E-03 0. -1.
        -11    1    3    3    0    0  0.41422763725E+01 -0.93176540293E+01  0.16866382011E+02  0.19709184979E+02  0.51100000000E-03 0.  1.
         12    1    3    3    0    0 -0.69594222999E+01 -0.57780489878E+01 -0.17896224234E+02  0.20052287917E+02  0.00000000000E+00 0. -1.
</event>
<event>
 7    1  0.1134395E-011  0.5930196E+02  0.7816164E-02  0.1266605E+00
        -11   -1    0    0    0    0  0.00000000000E+00  0.00000000000E+00  0.45593999997E+02  0.45594000000E+02  0.51100000000E-03 0. -1.
         11   -1    0    0    0    0 -0.00000000000E+00 -0.00000000000E+00 -0.45593999997E+02  0.45594000000E+02  0.51100000000E-03 0.  1.
    9900012    2    1    2    0    0  0.25698838488E+02 -0.17816518189E+02 -0.62338417716E+01  0.59301962253E+02  0.50000033238E+02 0.  0.
         12    1    1    2    0    0 -0.25698838488E+02  0.17816518189E+02  0.62338417716E+01  0.31886037747E+02  0.00000000000E+00 0. -1.
         11    1    3    3    0    0 -0.24190810320E+01 -0.17966179475E+02  0.74097039237E+01  0.19584158661E+02  0.51100000000E-03 0. -1.
        -11    1    3    3    0    0  0.14273726832E+01 -0.82622401022E+00 -0.12893852158E+02  0.12998902362E+02  0.51100000000E-03 0.  1.
         12    1    3    3    0    0  0.26690546836E+02  0.97588529606E+00 -0.74969353763E+00  0.26718901230E+02  0.00000000000E+00 0. -1.
</event>
<event>
 7    1  0.1134395E-011  0.5930192E+02  0.7816164E-02  0.1266605E+00
        -11   -1    0    0    0    0  0.00000000000E+00  0.00000000000E+00  0.45593999997E+02  0.45594000000E+02  0.51100000000E-03 0.  1.
         11   -1    0    0    0    0 -0.00000000000E+00 -0.00000000000E+00 -0.45593999997E+02  0.45594000000E+02  0.51100000000E-03 0. -1.
    9900012    2    1    2    0    0 -0.16802462227E+02  0.27018117467E+02 -0.21025861843E+01  0.59301917189E+02  0.49999951053E+02 0.  0.
         12    1    1    2    0    0  0.16802462227E+02 -0.27018117467E+02  0.21025861843E+01  0.31886082811E+02  0.00000000000E+00 0. -1.
         11    1    3    3    0    0 -0.45230300850E+01 -0.35096385463E+01  0.75278619930E+01  0.94574875269E+01  0.51100000000E-03 0. -1.
        -11    1    3    3    0    0  0.22171985110E+01  0.13603359351E+01  0.10990592194E+02  0.11294228621E+02  0.51100000000E-03 0.  1.
        -12    1    3    3    0    0 -0.14496630654E+02  0.29167420078E+02 -0.20621040372E+02  0.38550201041E+02  0.00000000000E+00 0.  1.
</event>
<event>
 7    1  0.1134395E-011  0.5930210E+02  0.7816164E-02  0.1266604E+00
        -11   -1    0    0    0    0  0.00000000000E+00  0.00000000000E+00  0.45593999997E+02  0.45594000000E+02  0.51100000000E-03 0.  1.
         11   -1    0    0    0    0 -0.00000000000E+00 -0.00000000000E+00 -0.45593999997E+02  0.45594000000E+02  0.51100000000E-03 0. -1.
    9900012    2    1    2    0    0  0.14987531700E+02  0.87651549608E+01  0.26744282701E+02  0.59302098646E+02  0.50000281986E+02 0.  0.
         12    1    1    2    0    0 -0.14987531700E+02 -0.87651549608E+01 -0.26744282701E+02  0.31885901354E+02  0.00000000000E+00 0. -1.
         11    1    3    3    0    0 -0.24764089353E+01 -0.86293031499E+01 -0.41302681037E+01  0.98821348370E+01  0.51100000000E-03 0. -1.
        -11    1    3    3    0    0  0.42139347774E+01 -0.45140218042E+01 -0.30746122137E+01  0.68983244113E+01  0.51100000000E-03 0.  1.
        -12    1    3    3    0    0  0.13250005858E+02  0.21908479915E+02  0.33949163019E+02  0.42521639398E+02  0.00000000000E+00 0.  1.
</event>
<event>
 7    1  0.1134395E-011  0.5930172E+02  0.7816164E-02  0.1266606E+00
        -11   -1    0    0    0    0  0.00000000000E+00  0.00000000000E+00  0.45593999997E+02  0.45594000000E+02  0.51100000000E-03 0. -1.
         11   -1    0    0    0    0 -0.00000000000E+00 -0.00000000000E+00 -0.45593999997E+02  0.45594000000E+02  0.51100000000E-03 0.  1.
    9900012    2    1    2    0    0  0.16244389766E+01 -0.14665306687E+02 -0.28267023576E+02  0.59301723264E+02  0.49999597379E+02 0.  0.
         12    1    1    2    0    0 -0.16244389766E+01  0.14665306687E+02  0.28267023576E+02  0.31886276736E+02  0.00000000000E+00 0. -1.
         11    1    3    3    0    0 -0.11980103103E+02  0.68182828412E+01 -0.49249102910E+01  0.14637847960E+02  0.51100000000E-03 0. -1.
        -11    1    3    3    0    0 -0.47043245819E+01 -0.17942577368E+02 -0.68633527233E+01  0.19778077845E+02  0.51100000000E-03 0.  1.
         12    1    3    3    0    0  0.18308866661E+02 -0.35410121601E+01 -0.16478760562E+02  0.24885797459E+02  0.00000000000E+00 0. -1.
</event>
<event>
 7    1  0.1134395E-011  0.5930196E+02  0.7816164E-02  0.1266605E+00
        -11   -1    0    0    0    0  0.00000000000E+00  0.00000000000E+00  0.45593999997E+02  0.45594000000E+02  0.51100000000E-03 0. -1.
         11   -1    0    0    0    0 -0.00000000000E+00 -0.00000000000E+00 -0.45593999997E+02  0.45594000000E+02  0.51100000000E-03 0.  1.
    9900012    2    1    2    0    0  0.80903106806E+01  0.11715632237E+02 -0.28530864635E+02  0.59301962265E+02  0.50000033260E+02 0.  0.
         12    1    1    2    0    0 -0.80903106806E+01 -0.11715632237E+02  0.28530864635E+02  0.31886037735E+02  0.00000000000E+00 0. -1.
         11    1    3    3    0    0  0.87144371087E+01 -0.40357745954E+00 -0.10639604389E+02  0.13758832461E+02  0.51100000000E-03 0. -1.
        -11    1    3    3    0    0  0.17568457359E+02 -0.34602959731E+01 -0.68939443169E+01  0.19187256466E+02  0.51100000000E-03 0.  1.
         12    1    3    3    0    0 -0.18192583787E+02  0.15579505669E+02 -0.10997315930E+02  0.26355873338E+02  0.00000000000E+00 0. -1.
</event>
<event>
 7    1  0.1134395E-011  0.5930182E+02  0.7816164E-02  0.1266605E+00
        -11   -1    0    0    0    0  0.00000000000E+00  0.00000000000E+00  0.45593999997E+02  0.45594000000E+02  0.51100000000E-03 0. -1.
         11   -1    0    0    0    0 -0.00000000000E+00 -0.00000000000E+00 -0.45593999997E+02  0.45594000000E+02  0.51100000000E-03 0.  1.
    9900012    2    1    2    0    0 -0.27013675326E+02 -0.16370832395E+02 -0.43572443477E+01  0.59301821392E+02  0.49999776341E+02 0.  0.
         12    1    1    2    0    0  0.27013675326E+02  0.16370832395E+02  0.43572443477E+01  0.31886178608E+02  0.00000000000E+00 0. -1.
         11    1    3    3    0    0 -0.16348432674E+02 -0.26275990112E+02 -0.14953909687E+01  0.30982819460E+02  0.51100000000E-03 0. -1.
        -11    1    3    3    0    0 -0.11034430925E+01  0.22976512187E+01 -0.12499454858E+02  0.12756690785E+02  0.51100000000E-03 0.  1.
        -12    1    3    3    0    0 -0.95617995600E+01  0.76075064984E+01  0.96376014790E+01  0.15562311146E+02  0.00000000000E+00 0.  1.
</event>
<event>
 7    1  0.1134395E-011  0.5930194E+02  0.7816164E-02  0.1266605E+00
        -11   -1    0    0    0    0  0.00000000000E+00  0.00000000000E+00  0.45593999997E+02  0.45594000000E+02  0.51100000000E-03 0.  1.
         11   -1    0    0    0    0 -0.00000000000E+00 -0.00000000000E+00 -0.45593999997E+02  0.45594000000E+02  0.51100000000E-03 0. -1.
    9900012    2    1    2    0    0  0.22804392647E+01  0.24000236215E+02  0.20868856298E+02  0.59301938707E+02  0.49999990296E+02 0.  0.
         12    1    1    2    0    0 -0.22804392647E+01 -0.24000236215E+02 -0.20868856298E+02  0.31886061293E+02  0.00000000000E+00 0. -1.
         11    1    3    3    0    0  0.77971845856E+01  0.14176259572E+02 -0.63910398112E+00  0.16191691606E+02  0.51100000000E-03 0. -1.
        -11    1    3    3    0    0  0.10116457771E+02 -0.83105120757E+01  0.10379922129E+02  0.16707785983E+02  0.51100000000E-03 0.  1.
        -12    1    3    3    0    0 -0.15633203092E+02  0.18134488719E+02  0.11128038150E+02  0.26402461118E+02  0.00000000000E+00 0.  1.
</event>
<event>
 7    1  0.1134395E-011  0.5930192E+02  0.7816164E-02  0.1266605E+00
        -11   -1    0    0    0    0  0.00000000000E+00  0.00000000000E+00  0.45593999997E+02  0.45594000000E+02  0.51100000000E-03 0. -1.
         11   -1    0    0    0    0 -0.00000000000E+00 -0.00000000000E+00 -0.45593999997E+02  0.45594000000E+02  0.51100000000E-03 0.  1.
    9900012    2    1    2    0    0 -0.11538995506E+02  0.14982502166E+02 -0.25672908389E+02  0.59301921320E+02  0.49999958586E+02 0.  0.
         12    1    1    2    0    0  0.11538995506E+02 -0.14982502166E+02  0.25672908389E+02  0.31886078680E+02  0.00000000000E+00 0. -1.
         11    1    3    3    0    0  0.26997553388E+01 -0.36428051776E+01 -0.21257659092E+02  0.21735840880E+02  0.51100000000E-03 0.  1.
        -11    1    3    3    0    0  0.34682740621E+01  0.18873408656E+02 -0.50607894537E+01  0.19845555407E+02  0.51100000000E-03 0. -1.
        -12    1    3    3    0    0 -0.17707024907E+02 -0.24810131248E+00  0.64554015640E+00  0.17720525032E+02  0.00000000000E+00 0.  1.
</event>
<event>
 7    1  0.1134395E-011  0.5930197E+02  0.7816164E-02  0.1266605E+00
        -11   -1    0    0    0    0  0.00000000000E+00  0.00000000000E+00  0.45593999997E+02  0.45594000000E+02  0.51100000000E-03 0.  1.
         11   -1    0    0    0    0 -0.00000000000E+00 -0.00000000000E+00 -0.45593999997E+02  0.45594000000E+02  0.51100000000E-03 0. -1.
    9900012    2    1    2    0    0  0.14884641034E+02  0.12618571772E+02  0.25217815794E+02  0.59301966604E+02  0.50000041175E+02 0.  0.
         12    1    1    2    0    0 -0.14884641034E+02 -0.12618571772E+02 -0.25217815794E+02  0.31886033396E+02  0.00000000000E+00 0. -1.
         11    1    3    3    0    0 -0.30455944887E+01  0.34893955383E+01 -0.90739754469E+01  0.10187666940E+02  0.51100000000E-03 0. -1.
        -11    1    3    3    0    0  0.10261243220E+01  0.14455444822E+02  0.59044204148E+01  0.15648482253E+02  0.51100000000E-03 0.  1.
        -12    1    3    3    0    0  0.16904111201E+02 -0.53262685886E+01  0.28387370826E+02  0.33465817411E+02  0.00000000000E+00 0.  1.
</event>
<event>
 7    1  0.1134395E-011  0.5930201E+02  0.7816164E-02  0.1266605E+00
        -11   -1    0    0    0    0  0.00000000000E+00  0.00000000000E+00  0.45593999997E+02  0.45594000000E+02  0.51100000000E-03 0. -1.
         11   -1    0    0    0    0 -0.00000000000E+00 -0.00000000000E+00 -0.45593999997E+02  0.45594000000E+02  0.51100000000E-03 0.  1.
    9900012    2    1    2    0    0 -0.25198010550E+02  0.19448922965E+02  0.18750283215E+01  0.59302014499E+02  0.50000128522E+02 0.  0.
         12    1    1    2    0    0  0.25198010550E+02 -0.19448922965E+02 -0.18750283215E+01  0.31885985501E+02  0.00000000000E+00 0. -1.
         11    1    3    3    0    0  0.84133387745E+01  0.77315827090E+01  0.18558421568E+01  0.11576087029E+02  0.51100000000E-03 0. -1.
        -11    1    3    3    0    0  0.48299812049E+01  0.26143377620E+01 -0.55767608504E+01  0.78271158301E+01  0.51100000000E-03 0.  1.
         12    1    3    3    0    0 -0.38441330530E+02  0.91030024942E+01  0.55959470150E+01  0.39898811640E+02  0.00000000000E+00 0. -1.
</event>
<event>
 7    1  0.1134395E-011  0.5930194E+02  0.7816164E-02  0.1266605E+00
        -11   -1    0    0    0    0  0.00000000000E+00  0.00000000000E+00  0.45593999997E+02  0.45594000000E+02  0.51100000000E-03 0. -1.
         11   -1    0    0    0    0 -0.00000000000E+00 -0.00000000000E+00 -0.45593999997E+02  0.45594000000E+02  0.51100000000E-03 0.  1.
    9900012    2    1    2    0    0 -0.25061836482E+02  0.18704977499E+02 -0.62248853279E+01  0.59301936768E+02  0.49999986760E+02 0.  0.
         12    1    1    2    0    0  0.25061836482E+02 -0.18704977499E+02  0.62248853279E+01  0.31886063232E+02  0.00000000000E+00 0. -1.
         11    1    3    3    0    0 -0.13596218816E+02 -0.47392231642E+01 -0.39317768918E+01  0.14925691679E+02  0.51100000000E-03 0. -1.
        -11    1    3    3    0    0 -0.14018190784E+02 -0.56237768823E+01  0.28258505131E-01  0.15104215904E+02  0.51100000000E-03 0.  1.
         12    1    3    3    0    0  0.25525731184E+01  0.29067977546E+02 -0.23213669412E+01  0.29272029185E+02  0.00000000000E+00 0. -1.
</event>
<event>
 7    1  0.1134395E-011  0.5930199E+02  0.7816164E-02  0.1266605E+00
        -11   -1    0    0    0    0  0.00000000000E+00  0.00000000000E+00  0.45593999997E+02  0.45594000000E+02  0.51100000000E-03 0. -1.
         11   -1    0    0    0    0 -0.00000000000E+00 -0.00000000000E+00 -0.45593999997E+02  0.45594000000E+02  0.51100000000E-03 0.  1.
    9900012    2    1    2    0    0  0.27528480939E+02 -0.37573227126E+01 -0.15645545647E+02  0.59301986838E+02  0.50000078076E+02 0.  0.
         12    1    1    2    0    0 -0.27528480939E+02  0.37573227126E+01  0.15645545647E+02  0.31886013162E+02  0.00000000000E+00 0. -1.
         11    1    3    3    0    0  0.19714410719E+02 -0.16188543353E+02  0.63814097829E+01  0.26295423879E+02  0.51100000000E-03 0. -1.
        -11    1    3    3    0    0 -0.47991933993E+01 -0.60967961891E+00 -0.51450772158E+00  0.48650472740E+01  0.51100000000E-03 0.  1.
        -12    1    3    3    0    0  0.12613263619E+02  0.13040900259E+02 -0.21512447708E+02  0.28141515685E+02  0.00000000000E+00 0.  1.
</event>
<event>
 7    1  0.1134395E-011  0.5930201E+02  0.7816164E-02  0.1266605E+00
        -11   -1    0    0    0    0  0.00000000000E+00  0.00000000000E+00  0.45593999997E+02  0.45594000000E+02  0.51100000000E-03 0.  1.
         11   -1    0    0    0    0 -0.00000000000E+00 -0.00000000000E+00 -0.45593999997E+02  0.45594000000E+02  0.51100000000E-03 0. -1.
    9900012    2    1    2    0    0 -0.13585902332E+02 -0.50572677675E+01  0.28400063411E+02  0.59302010895E+02  0.50000121950E+02 0.  0.
         12    1    1    2    0    0  0.13585902332E+02  0.50572677675E+01 -0.28400063411E+02  0.31885989105E+02  0.00000000000E+00 0. -1.
         11    1    3    3    0    0  0.17504129274E+01  0.54417259725E+01  0.84588683613E+01  0.10209249786E+02  0.51100000000E-03 0. -1.
        -11    1    3    3    0    0  0.12409203066E+02 -0.46842171645E+01  0.15497018133E+02  0.20398229885E+02  0.51100000000E-03 0.  1.
         12    1    3    3    0    0 -0.27745518325E+02 -0.58147765754E+01  0.44441769168E+01  0.28694531225E+02  0.00000000000E+00 0. -1.
</event>
<event>
 7    1  0.1311058E-011  0.5930198E+02  0.7816164E-02  0.1266605E+00
        -11   -1    0    0    0    0  0.00000000000E+00  0.00000000000E+00  0.45593999997E+02  0.45594000000E+02  0.51100000000E-03 0.  1.
         11   -1    0    0    0    0 -0.00000000000E+00 -0.00000000000E+00 -0.45593999997E+02  0.45594000000E+02  0.51100000000E-03 0. -1.
    9900012    2    1    2    0    0  0.31234414026E+02 -0.28207488041E+00  0.64070098075E+01  0.59301984877E+02  0.50000074499E+02 0.  0.
         12    1    1    2    0    0 -0.31234414026E+02  0.28207488041E+00 -0.64070098075E+01  0.31886015123E+02  0.00000000000E+00 0. -1.
         11    1    3    3    0    0  0.27524216357E+01 -0.13698407054E+02 -0.31793468713E+01  0.14329355445E+02  0.51100000000E-03 0. -1.
        -11    1    3    3    0    0  0.31048433314E+02  0.92863975874E+00  0.83443819453E+01  0.32163586451E+02  0.51100000000E-03 0.  1.
        -12    1    3    3    0    0 -0.25664409238E+01  0.12487692415E+02  0.12419747335E+01  0.12809042981E+02  0.00000000000E+00 0.  1.
</event>
<event>
 7    1  0.1414485E-011  0.5930190E+02  0.7816164E-02  0.1266605E+00
        -11   -1    0    0    0    0  0.00000000000E+00  0.00000000000E+00  0.45593999997E+02  0.45594000000E+02  0.51100000000E-03 0.  1.
         11   -1    0    0    0    0 -0.00000000000E+00 -0.00000000000E+00 -0.45593999997E+02  0.45594000000E+02  0.51100000000E-03 0. -1.
    9900012    2    1    2    0    0  0.27027951284E+02  0.93394748269E+01  0.14106290919E+02  0.59301899829E+02  0.49999919392E+02 0.  0.
         12    1    1    2    0    0 -0.27027951284E+02 -0.93394748269E+01 -0.14106290919E+02  0.31886100171E+02  0.00000000000E+00 0. -1.
         11    1    3    3    0    0 -0.22028465530E+01  0.90040077014E+01 -0.87438073829E+01  0.12742796217E+02  0.51100000000E-03 0. -1.
        -11    1    3    3    0    0  0.11248478180E+02 -0.13257624835E+02  0.59173309291E+01  0.18365938125E+02  0.51100000000E-03 0.  1.
        -12    1    3    3    0    0  0.17982319657E+02  0.13593091960E+02  0.16932767372E+02  0.28193165487E+02  0.00000000000E+00 0.  1.
</event>
<event>
 7    1  0.1134395E-011  0.5930195E+02  0.7816164E-02  0.1266605E+00
        -11   -1    0    0    0    0  0.00000000000E+00  0.00000000000E+00  0.45593999997E+02  0.45594000000E+02  0.51100000000E-03 0.  1.
         11   -1    0    0    0    0 -0.00000000000E+00 -0.00000000000E+00 -0.45593999997E+02  0.45594000000E+02  0.51100000000E-03 0. -1.
    9900012    2    1    2    0    0  0.55874740076E+01  0.84240502857E+01  0.30241291815E+02  0.59301949451E+02  0.50000009890E+02 0.  0.
         12    1    1    2    0    0 -0.55874740076E+01 -0.84240502857E+01 -0.30241291815E+02  0.31886050549E+02  0.00000000000E+00 0. -1.
         11    1    3    3    0    0  0.59472705229E+01 -0.61075831587E+01 -0.68835905128E+01  0.10957025934E+02  0.51100000000E-03 0. -1.
        -11    1    3    3    0    0  0.66975487254E+01  0.15145881334E+01 -0.14567437557E+01  0.70194899226E+01  0.51100000000E-03 0.  1.
        -12    1    3    3    0    0 -0.70573452408E+01  0.13017045311E+02  0.38581626083E+02  0.41325433594E+02  0.00000000000E+00 0.  1.
</event>
<event>
 7    1  0.1134395E-011  0.5930195E+02  0.7816164E-02  0.1266605E+00
        -11   -1    0    0    0    0  0.00000000000E+00  0.00000000000E+00  0.45593999997E+02  0.45594000000E+02  0.51100000000E-03 0. -1.
         11   -1    0    0    0    0 -0.00000000000E+00 -0.00000000000E+00 -0.45593999997E+02  0.45594000000E+02  0.51100000000E-03 0.  1.
    9900012    2    1    2    0    0  0.10021842984E+02 -0.28937941068E+02 -0.88813641998E+01  0.59301946621E+02  0.50000004729E+02 0.  0.
         12    1    1    2    0    0 -0.10021842984E+02  0.28937941068E+02  0.88813641998E+01  0.31886053379E+02  0.00000000000E+00 0. -1.
         11    1    3    3    0    0  0.15554621783E+02 -0.18536792591E+02 -0.14626519857E+02  0.28275325316E+02  0.51100000000E-03 0. -1.
        -11    1    3    3    0    0  0.51362619183E+01 -0.22253848098E+01 -0.92981439004E+01  0.10853064282E+02  0.51100000000E-03 0.  1.
         12    1    3    3    0    0 -0.10669040717E+02 -0.81757636675E+01  0.15043299558E+02  0.20173557023E+02  0.00000000000E+00 0. -1.
</event>
<event>
 7    1  0.1134395E-011  0.5930193E+02  0.7816164E-02  0.1266605E+00
        -11   -1    0    0    0    0  0.00000000000E+00  0.00000000000E+00  0.45593999997E+02  0.45594000000E+02  0.51100000000E-03 0. -1.
         11   -1    0    0    0    0 -0.00000000000E+00 -0.00000000000E+00 -0.45593999997E+02  0.45594000000E+02  0.51100000000E-03 0.  1.
    9900012    2    1    2    0    0 -0.15147195033E+02  0.27951308150E+02  0.24512505176E+01  0.59301925080E+02  0.49999965445E+02 0.  0.
         12    1    1    2    0    0  0.15147195033E+02 -0.27951308150E+02 -0.24512505176E+01  0.31886074920E+02  0.00000000000E+00 0. -1.
         11    1    3    3    0    0 -0.59036313225E+01  0.31273552586E+02 -0.11808352911E+01  0.31847799397E+02  0.51100000000E-03 0. -1.
        -11    1    3    3    0    0 -0.15636780339E+02  0.51264195589E+01  0.74350896578E+00  0.16472458308E+02  0.51100000000E-03 0.  1.
        -12    1    3    3    0    0  0.63932166293E+01 -0.84486639949E+01  0.28885768429E+01  0.10981667375E+02  0.00000000000E+00 0.  1.
</event>
<event>
 7    1  0.1134395E-011  0.5930195E+02  0.7816164E-02  0.1266605E+00
        -11   -1    0    0    0    0  0.00000000000E+00  0.00000000000E+00  0.45593999997E+02  0.45594000000E+02  0.51100000000E-03 0.  1.
         11   -1    0    0    0    0 -0.00000000000E+00 -0.00000000000E+00 -0.45593999997E+02  0.45594000000E+02  0.51100000000E-03 0. -1.
    9900012    2    1    2    0    0 -0.22043655694E+02  0.23038439461E+02  0.16673302476E+00  0.59301948989E+02  0.50000009048E+02 0.  0.
         12    1    1    2    0    0  0.22043655694E+02 -0.23038439461E+02 -0.16673302476E+00  0.31886051011E+02  0.00000000000E+00 0. -1.
         11    1    3    3    0    0  0.29990526492E+01  0.36266227438E+01 -0.15483821084E+02  0.16183183400E+02  0.51100000000E-03 0. -1.
        -11    1    3    3    0    0 -0.24409882120E+01  0.17261603157E+02  0.58334215005E+01  0.18383421163E+02  0.51100000000E-03 0.  1.
         12    1    3    3    0    0 -0.22601720131E+02  0.21502135604E+01  0.98171326083E+01  0.24735344426E+02  0.00000000000E+00 0. -1.
</event>
<event>
 7    1  0.1134395E-011  0.5930193E+02  0.7816164E-02  0.1266605E+00
        -11   -1    0    0    0    0  0.00000000000E+00  0.00000000000E+00  0.45593999997E+02  0.45594000000E+02  0.51100000000E-03 0.  1.
         11   -1    0    0    0    0 -0.00000000000E+00 -0.00000000000E+00 -0.45593999997E+02  0.45594000000E+02  0.51100000000E-03 0. -1.
    9900012    2    1    2    0    0  0.65584307933E+01 -0.17784461822E+02  0.25640228533E+02  0.59301930691E+02  0.49999975677E+02 0.  0.
         12    1    1    2    0    0 -0.65584307933E+01  0.17784461822E+02 -0.25640228533E+02  0.31886069309E+02  0.00000000000E+00 0. -1.
         11    1    3    3    0    0  0.13656148405E+01  0.96350688144E+00 -0.16356190321E+01  0.23384822605E+01  0.51100000000E-03 0. -1.
        -11    1    3    3    0    0 -0.14456281272E+02  0.10883558950E+01 -0.39990821389E+01  0.15038658350E+02  0.51100000000E-03 0.  1.
        -12    1    3    3    0    0  0.19649097225E+02 -0.19836324598E+02  0.31274929704E+02  0.41924790080E+02  0.00000000000E+00 0.  1.
</event>
<event>
 7    1  0.1183136E-011  0.5930195E+02  0.7816164E-02  0.1266605E+00
        -11   -1    0    0    0    0  0.00000000000E+00  0.00000000000E+00  0.45593999997E+02  0.45594000000E+02  0.51100000000E-03 0.  1.
         11   -1    0    0    0    0 -0.00000000000E+00 -0.00000000000E+00 -0.45593999997E+02  0.45594000000E+02  0.51100000000E-03 0. -1.
    9900012    2    1    2    0    0  0.90642087999E+01 -0.15199725949E+02  0.26524119780E+02  0.59301945365E+02  0.50000002439E+02 0.  0.
         12    1    1    2    0    0 -0.90642087999E+01  0.15199725949E+02 -0.26524119780E+02  0.31886054635E+02  0.00000000000E+00 0. -1.
         11    1    3    3    0    0 -0.10774669645E+02 -0.39116494212E+01 -0.40376305280E+01  0.12153064128E+02  0.51100000000E-03 0. -1.
        -11    1    3    3    0    0 -0.20591547496E+01  0.30663968893E+01 -0.28746571266E+01  0.46804446394E+01  0.51100000000E-03 0.  1.
        -12    1    3    3    0    0  0.21898033195E+02 -0.14354473417E+02  0.33436407435E+02  0.42468436597E+02  0.00000000000E+00 0.  1.
</event>
<event>
 7    1  0.1134395E-011  0.5930193E+02  0.7816164E-02  0.1266605E+00
        -11   -1    0    0    0    0  0.00000000000E+00  0.00000000000E+00  0.45593999997E+02  0.45594000000E+02  0.51100000000E-03 0. -1.
         11   -1    0    0    0    0 -0.00000000000E+00 -0.00000000000E+00 -0.45593999997E+02  0.45594000000E+02  0.51100000000E-03 0.  1.
    9900012    2    1    2    0    0 -0.19305455822E+02  0.24587830853E+02  0.62816731138E+01  0.59301929881E+02  0.49999974199E+02 0.  0.
         12    1    1    2    0    0  0.19305455822E+02 -0.24587830853E+02 -0.62816731138E+01  0.31886070119E+02  0.00000000000E+00 0. -1.
         11    1    3    3    0    0 -0.64741255663E+01 -0.13914337719E+01  0.11628661911E+02  0.13381934385E+02  0.51100000000E-03 0. -1.
        -11    1    3    3    0    0  0.85232389189E+01  0.30901991316E+01 -0.10846785739E+02  0.14136749749E+02  0.51100000000E-03 0.  1.
        -12    1    3    3    0    0 -0.21354569175E+02  0.22889065493E+02  0.54997969421E+01  0.31783245747E+02  0.00000000000E+00 0.  1.
</event>
<event>
 7    1  0.1134395E-011  0.5930194E+02  0.7816164E-02  0.1266605E+00
        -11   -1    0    0    0    0  0.00000000000E+00  0.00000000000E+00  0.45593999997E+02  0.45594000000E+02  0.51100000000E-03 0.  1.
         11   -1    0    0    0    0 -0.00000000000E+00 -0.00000000000E+00 -0.45593999997E+02  0.45594000000E+02  0.51100000000E-03 0. -1.
    9900012    2    1    2    0    0  0.23427962681E+02  0.40791219696E+01  0.21241747740E+02  0.59301944765E+02  0.50000001344E+02 0.  0.
         12    1    1    2    0    0 -0.23427962681E+02 -0.40791219696E+01 -0.21241747740E+02  0.31886055235E+02  0.00000000000E+00 0. -1.
         11    1    3    3    0    0  0.59163712278E+00 -0.22588926132E+01  0.13125253797E+02  0.13331350938E+02  0.51100000000E-03 0. -1.
        -11    1    3    3    0    0  0.17059125715E+02 -0.13157734765E+02  0.12860929083E+02  0.25090700497E+02  0.51100000000E-03 0.  1.
         12    1    3    3    0    0  0.57771998434E+01  0.19495749348E+02 -0.47444351396E+01  0.20879893330E+02  0.00000000000E+00 0. -1.
</event>
<event>
 7    1  0.1134395E-011  0.5930193E+02  0.7816164E-02  0.1266605E+00
        -11   -1    0    0    0    0  0.00000000000E+00  0.00000000000E+00  0.45593999997E+02  0.45594000000E+02  0.51100000000E-03 0. -1.
         11   -1    0    0    0    0 -0.00000000000E+00 -0.00000000000E+00 -0.45593999997E+02  0.45594000000E+02  0.51100000000E-03 0.  1.
    9900012    2    1    2    0    0 -0.30429158973E+02  0.52716766414E+01 -0.79370668018E+01  0.59301932199E+02  0.49999978427E+02 0.  0.
         12    1    1    2    0    0  0.30429158973E+02 -0.52716766414E+01  0.79370668018E+01  0.31886067801E+02  0.00000000000E+00 0. -1.
         11    1    3    3    0    0  0.69582870245E+01 -0.48224039577E+01 -0.45995433805E+01  0.96347878968E+01  0.51100000000E-03 0.  1.
        -11    1    3    3    0    0 -0.29180775310E+02  0.20961063090E+02 -0.20130296379E+01  0.35985220607E+02  0.51100000000E-03 0. -1.
         12    1    3    3    0    0 -0.82066706876E+01 -0.10866982491E+02 -0.13244937834E+01  0.13681923695E+02  0.00000000000E+00 0. -1.
</event>
<event>
 7    1  0.1134395E-011  0.5930190E+02  0.7816164E-02  0.1266605E+00
        -11   -1    0    0    0    0  0.00000000000E+00  0.00000000000E+00  0.45593999997E+02  0.45594000000E+02  0.51100000000E-03 0.  1.
         11   -1    0    0    0    0 -0.00000000000E+00 -0.00000000000E+00 -0.45593999997E+02  0.45594000000E+02  0.51100000000E-03 0. -1.
    9900012    2    1    2    0    0  0.40062079735E+01 -0.21432974774E+02  0.23265876624E+02  0.59301903891E+02  0.49999926800E+02 0.  0.
         12    1    1    2    0    0 -0.40062079735E+01  0.21432974774E+02 -0.23265876624E+02  0.31886096109E+02  0.00000000000E+00 0. -1.
         11    1    3    3    0    0 -0.15451157014E+02 -0.88497523693E+01  0.15428327361E+02  0.23560340734E+02  0.51100000000E-03 0. -1.
        -11    1    3    3    0    0 -0.56335101876E+01 -0.44364597345E+00  0.53092899129E+01  0.77538260507E+01  0.51100000000E-03 0.  1.
        -12    1    3    3    0    0  0.25090875175E+02 -0.12139576431E+02  0.25282593508E+01  0.27987737106E+02  0.00000000000E+00 0.  1.
</event>
<event>
 7    1  0.1134395E-011  0.5930195E+02  0.7816164E-02  0.1266605E+00
        -11   -1    0    0    0    0  0.00000000000E+00  0.00000000000E+00  0.45593999997E+02  0.45594000000E+02  0.51100000000E-03 0.  1.
         11   -1    0    0    0    0 -0.00000000000E+00 -0.00000000000E+00 -0.45593999997E+02  0.45594000000E+02  0.51100000000E-03 0. -1.
    9900012    2    1    2    0    0 -0.11501222987E+02  0.38817516527E+01  0.29485145702E+02  0.59301953786E+02  0.50000017797E+02 0.  0.
         12    1    1    2    0    0  0.11501222987E+02 -0.38817516527E+01 -0.29485145702E+02  0.31886046214E+02  0.00000000000E+00 0. -1.
         11    1    3    3    0    0 -0.80039122630E+01 -0.86004682226E+01 -0.29641356036E+01  0.12116796825E+02  0.51100000000E-03 0. -1.
        -11    1    3    3    0    0 -0.15545279169E+02 -0.43433508618E-01  0.21893731208E+02  0.26851313885E+02  0.51100000000E-03 0.  1.
         12    1    3    3    0    0  0.12047968445E+02  0.12525653384E+02  0.10555550098E+02  0.20333843076E+02  0.00000000000E+00 0. -1.
</event>
<event>
 7    1  0.1134395E-011  0.5930194E+02  0.7816164E-02  0.1266605E+00
        -11   -1    0    0    0    0  0.00000000000E+00  0.00000000000E+00  0.45593999997E+02  0.45594000000E+02  0.51100000000E-03 0.  1.
         11   -1    0    0    0    0 -0.00000000000E+00 -0.00000000000E+00 -0.45593999997E+02  0.45594000000E+02  0.51100000000E-03 0. -1.
    9900012    2    1    2    0    0 -0.10177547960E+02  0.16253400673E+02  0.25474792354E+02  0.59301944091E+02  0.50000000116E+02 0.  0.
         12    1    1    2    0    0  0.10177547960E+02 -0.16253400673E+02 -0.25474792354E+02  0.31886055909E+02  0.00000000000E+00 0. -1.
         11    1    3    3    0    0 -0.70813483278E+01  0.14297726735E+02  0.12502823594E+02  0.20270448491E+02  0.51100000000E-03 0. -1.
        -11    1    3    3    0    0 -0.17660631549E+02 -0.22296439186E+01  0.15578623406E+02  0.23655078233E+02  0.51100000000E-03 0.  1.
         12    1    3    3    0    0  0.14564431917E+02  0.41853178565E+01 -0.26066546458E+01  0.15376417368E+02  0.00000000000E+00 0. -1.
</event>
<event>
 7    1  0.1134395E-011  0.5930230E+02  0.7816164E-02  0.1266604E+00
        -11   -1    0    0    0    0  0.00000000000E+00  0.00000000000E+00  0.45593999997E+02  0.45594000000E+02  0.51100000000E-03 0.  1.
         11   -1    0    0    0    0 -0.00000000000E+00 -0.00000000000E+00 -0.45593999997E+02  0.45594000000E+02  0.51100000000E-03 0. -1.
    9900012    2    1    2    0    0 -0.12274725108E+02 -0.16206780980E+02  0.24563580296E+02  0.59302296257E+02  0.50000642378E+02 0.  0.
         12    1    1    2    0    0  0.12274725108E+02  0.16206780980E+02 -0.24563580296E+02  0.31885703743E+02  0.00000000000E+00 0. -1.
         11    1    3    3    0    0 -0.12148228811E+02 -0.11540927225E+02  0.11528899792E+02  0.20339321403E+02  0.51100000000E-03 0. -1.
        -11    1    3    3    0    0 -0.15645587762E+02 -0.21910683542E+01  0.16528288090E+02  0.22864153263E+02  0.51100000000E-03 0.  1.
         12    1    3    3    0    0  0.15519091465E+02 -0.24747854010E+01 -0.34936075862E+01  0.16098821592E+02  0.00000000000E+00 0. -1.
</event>
<event>
 7    1  0.1134395E-011  0.5930193E+02  0.7816164E-02  0.1266605E+00
        -11   -1    0    0    0    0  0.00000000000E+00  0.00000000000E+00  0.45593999997E+02  0.45594000000E+02  0.51100000000E-03 0.  1.
         11   -1    0    0    0    0 -0.00000000000E+00 -0.00000000000E+00 -0.45593999997E+02  0.45594000000E+02  0.51100000000E-03 0. -1.
    9900012    2    1    2    0    0 -0.19605006973E+02  0.13400087312E+02  0.21279170418E+02  0.59301925735E+02  0.49999966638E+02 0.  0.
         12    1    1    2    0    0  0.19605006973E+02 -0.13400087312E+02 -0.21279170418E+02  0.31886074265E+02  0.00000000000E+00 0. -1.
         11    1    3    3    0    0 -0.22305611202E+01 -0.82766288771E+01 -0.41869029513E+01  0.95398189220E+01  0.51100000000E-03 0. -1.
        -11    1    3    3    0    0 -0.22842549290E+02  0.26559331940E+02  0.18352954635E+02  0.39547580397E+02  0.51100000000E-03 0.  1.
         12    1    3    3    0    0  0.54681034368E+01 -0.48826157509E+01  0.71131187344E+01  0.10214526416E+02  0.00000000000E+00 0. -1.
</event>
<event>
 7    1  0.1134395E-011  0.5930195E+02  0.7816164E-02  0.1266605E+00
        -11   -1    0    0    0    0  0.00000000000E+00  0.00000000000E+00  0.45593999997E+02  0.45594000000E+02  0.51100000000E-03 0.  1.
         11   -1    0    0    0    0 -0.00000000000E+00 -0.00000000000E+00 -0.45593999997E+02  0.45594000000E+02  0.51100000000E-03 0. -1.
    9900012    2    1    2    0    0  0.13638859327E+02  0.28549194412E+02  0.39554208582E+01  0.59301947572E+02  0.50000006463E+02 0.  0.
         12    1    1    2    0    0 -0.13638859327E+02 -0.28549194412E+02 -0.39554208582E+01  0.31886052428E+02  0.00000000000E+00 0. -1.
         11    1    3    3    0    0 -0.35197292931E+01 -0.76898082295E+01  0.63723652658E+01  0.10589083258E+02  0.51100000000E-03 0. -1.
        -11    1    3    3    0    0 -0.12760154503E+00  0.14929581698E+02  0.10632119108E+02  0.18328956566E+02  0.51100000000E-03 0.  1.
         12    1    3    3    0    0  0.17286190165E+02  0.21309420943E+02 -0.13049063515E+02  0.30383907747E+02  0.00000000000E+00 0. -1.
</event>
<event>
 7    1  0.1134395E-011  0.5930196E+02  0.7816164E-02  0.1266605E+00
        -11   -1    0    0    0    0  0.00000000000E+00  0.00000000000E+00  0.45593999997E+02  0.45594000000E+02  0.51100000000E-03 0.  1.
         11   -1    0    0    0    0 -0.00000000000E+00 -0.00000000000E+00 -0.45593999997E+02  0.45594000000E+02  0.51100000000E-03 0. -1.
    9900012    2    1    2    0    0  0.22204194341E+02  0.84633857183E+01  0.21261802940E+02  0.59301962171E+02  0.50000033089E+02 0.  0.
         12    1    1    2    0    0 -0.22204194341E+02 -0.84633857183E+01 -0.21261802940E+02  0.31886037829E+02  0.00000000000E+00 0. -1.
         11    1    3    3    0    0  0.22180454011E+02  0.20796652194E+02  0.15506304880E+02  0.34130906432E+02  0.51100000000E-03 0. -1.
        -11    1    3    3    0    0 -0.39500903326E+01  0.34270435228E+01 -0.36639249900E+01  0.63853102929E+01  0.51100000000E-03 0.  1.
         12    1    3    3    0    0  0.39738306634E+01 -0.15760309998E+02  0.94194230505E+01  0.18785745446E+02  0.00000000000E+00 0. -1.
</event>
<event>
 7    1  0.1134395E-011  0.5930193E+02  0.7816164E-02  0.1266605E+00
        -11   -1    0    0    0    0  0.00000000000E+00  0.00000000000E+00  0.45593999997E+02  0.45594000000E+02  0.51100000000E-03 0. -1.
         11   -1    0    0    0    0 -0.00000000000E+00 -0.00000000000E+00 -0.45593999997E+02  0.45594000000E+02  0.51100000000E-03 0.  1.
    9900012    2    1    2    0    0  0.19620694333E+02 -0.24990317044E+02 -0.26895973551E+01  0.59301928966E+02  0.49999972530E+02 0.  0.
         12    1    1    2    0    0 -0.19620694333E+02  0.24990317044E+02  0.26895973551E+01  0.31886071034E+02  0.00000000000E+00 0. -1.
         11    1    3    3    0    0 -0.19391579280E+01 -0.50371715881E+01 -0.33130623397E+01  0.63332308821E+01  0.51100000000E-03 0. -1.
        -11    1    3    3    0    0  0.13521799921E+02 -0.22417033575E+02 -0.18515007384E+02  0.32065058336E+02  0.51100000000E-03 0.  1.
         12    1    3    3    0    0  0.80380523399E+01  0.24638881187E+01  0.19138472369E+02  0.20903639748E+02  0.00000000000E+00 0. -1.
</event>
<event>
 7    1  0.1134395E-011  0.5930187E+02  0.7816164E-02  0.1266605E+00
        -11   -1    0    0    0    0  0.00000000000E+00  0.00000000000E+00  0.45593999997E+02  0.45594000000E+02  0.51100000000E-03 0.  1.
         11   -1    0    0    0    0 -0.00000000000E+00 -0.00000000000E+00 -0.45593999997E+02  0.45594000000E+02  0.51100000000E-03 0. -1.
    9900012    2    1    2    0    0  0.28477570888E+01 -0.20178048157E+02  0.24524719462E+02  0.59301871158E+02  0.49999867102E+02 0.  0.
         12    1    1    2    0    0 -0.28477570888E+01  0.20178048157E+02 -0.24524719462E+02  0.31886128842E+02  0.00000000000E+00 0. -1.
         11    1    3    3    0    0  0.10516551391E+02  0.10977862699E+02  0.32907768881E+01  0.15554437803E+02  0.51100000000E-03 0. -1.
        -11    1    3    3    0    0  0.46270923240E+01 -0.57519182801E+00  0.23951028484E+00  0.46688536549E+01  0.51100000000E-03 0.  1.
        -12    1    3    3    0    0 -0.12295886626E+02 -0.30580719028E+02  0.20994432289E+02  0.39078579699E+02  0.00000000000E+00 0.  1.
</event>
<event>
 7    1  0.1134395E-011  0.5930194E+02  0.7816164E-02  0.1266605E+00
        -11   -1    0    0    0    0  0.00000000000E+00  0.00000000000E+00  0.45593999997E+02  0.45594000000E+02  0.51100000000E-03 0. -1.
         11   -1    0    0    0    0 -0.00000000000E+00 -0.00000000000E+00 -0.45593999997E+02  0.45594000000E+02  0.51100000000E-03 0.  1.
    9900012    2    1    2    0    0  0.12296912801E+02  0.12430546598E+02 -0.26664365674E+02  0.59301937999E+02  0.49999989005E+02 0.  0.
         12    1    1    2    0    0 -0.12296912801E+02 -0.12430546598E+02  0.26664365674E+02  0.31886062001E+02  0.00000000000E+00 0. -1.
         11    1    3    3    0    0  0.48267750940E+01 -0.26713425804E+01  0.34554078026E+01  0.65095063049E+01  0.51100000000E-03 0.  1.
        -11    1    3    3    0    0  0.36580259083E+01  0.13859676945E+02 -0.39806497251E+02  0.42308734585E+02  0.51100000000E-03 0. -1.
         12    1    3    3    0    0  0.38121117982E+01  0.12422122328E+01  0.96867237739E+01  0.10483697109E+02  0.00000000000E+00 0. -1.
</event>
<event>
 7    1  0.1134395E-011  0.5930187E+02  0.7816164E-02  0.1266605E+00
        -11   -1    0    0    0    0  0.00000000000E+00  0.00000000000E+00  0.45593999997E+02  0.45594000000E+02  0.51100000000E-03 0. -1.
         11   -1    0    0    0    0 -0.00000000000E+00 -0.00000000000E+00 -0.45593999997E+02  0.45594000000E+02  0.51100000000E-03 0.  1.
    9900012    2    1    2    0    0  0.16932240270E+02  0.26945923790E+02 -0.19854101926E+01  0.59301867856E+02  0.49999861081E+02 0.  0.
         12    1    1    2    0    0 -0.16932240270E+02 -0.26945923790E+02  0.19854101926E+01  0.31886132144E+02  0.00000000000E+00 0. -1.
         11    1    3    3    0    0 -0.49915244802E+00  0.17140231800E+02 -0.96737351427E+01  0.19688012880E+02  0.51100000000E-03 0. -1.
        -11    1    3    3    0    0 -0.37887922361E+00 -0.37422379195E+00 -0.11507065021E+02  0.11519380998E+02  0.51100000000E-03 0.  1.
         12    1    3    3    0    0  0.17810271941E+02  0.10179915783E+02  0.19195389971E+02  0.28094473978E+02  0.00000000000E+00 0. -1.
</event>
<event>
 7    1  0.1134395E-011  0.5930186E+02  0.7816164E-02  0.1266605E+00
        -11   -1    0    0    0    0  0.00000000000E+00  0.00000000000E+00  0.45593999997E+02  0.45594000000E+02  0.51100000000E-03 0.  1.
         11   -1    0    0    0    0 -0.00000000000E+00 -0.00000000000E+00 -0.45593999997E+02  0.45594000000E+02  0.51100000000E-03 0. -1.
    9900012    2    1    2    0    0 -0.12056534655E+02 -0.29076437306E+02 -0.50918211074E+01  0.59301860747E+02  0.49999848115E+02 0.  0.
         12    1    1    2    0    0  0.12056534655E+02  0.29076437306E+02  0.50918211074E+01  0.31886139253E+02  0.00000000000E+00 0. -1.
         11    1    3    3    0    0 -0.95222899966E+01  0.26230280385E+01  0.40911408611E+01  0.10690730409E+02  0.51100000000E-03 0. -1.
        -11    1    3    3    0    0 -0.18963070175E+02 -0.19889343304E+02 -0.60176395146E+01  0.28131761287E+02  0.51100000000E-03 0.  1.
        -12    1    3    3    0    0  0.16428825517E+02 -0.11810122041E+02 -0.31653224539E+01  0.20479369050E+02  0.00000000000E+00 0.  1.
</event>
<event>
 7    1  0.1134395E-011  0.5930189E+02  0.7816164E-02  0.1266605E+00
        -11   -1    0    0    0    0  0.00000000000E+00  0.00000000000E+00  0.45593999997E+02  0.45594000000E+02  0.51100000000E-03 0.  1.
         11   -1    0    0    0    0 -0.00000000000E+00 -0.00000000000E+00 -0.45593999997E+02  0.45594000000E+02  0.51100000000E-03 0. -1.
    9900012    2    1    2    0    0  0.79594791348E+01 -0.24641897119E+01  0.30778211597E+02  0.59301892553E+02  0.49999906122E+02 0.  0.
         12    1    1    2    0    0 -0.79594791348E+01  0.24641897119E+01 -0.30778211597E+02  0.31886107447E+02  0.00000000000E+00 0. -1.
         11    1    3    3    0    0  0.10627194459E+02 -0.12551984862E+02 -0.23512300044E+01  0.16613785506E+02  0.51100000000E-03 0. -1.
        -11    1    3    3    0    0  0.48962715487E+01 -0.41473510048E+01  0.67667499296E+00  0.64522774849E+01  0.51100000000E-03 0.  1.
        -12    1    3    3    0    0 -0.75639868732E+01  0.14235146155E+02  0.32452766608E+02  0.36235829562E+02  0.00000000000E+00 0.  1.
</event>
<event>
 7    1  0.1134395E-011  0.5930193E+02  0.7816164E-02  0.1266605E+00
        -11   -1    0    0    0    0  0.00000000000E+00  0.00000000000E+00  0.45593999997E+02  0.45594000000E+02  0.51100000000E-03 0. -1.
         11   -1    0    0    0    0 -0.00000000000E+00 -0.00000000000E+00 -0.45593999997E+02  0.45594000000E+02  0.51100000000E-03 0.  1.
    9900012    2    1    2    0    0 -0.49952039130E+01  0.29029246747E+02 -0.12209508011E+02  0.59301932279E+02  0.49999978574E+02 0.  0.
         12    1    1    2    0    0  0.49952039130E+01 -0.29029246747E+02  0.12209508011E+02  0.31886067721E+02  0.00000000000E+00 0. -1.
         11    1    3    3    0    0  0.10927381365E+02  0.16023039274E+02 -0.36543726391E+00  0.19397912148E+02  0.51100000000E-03 0. -1.
        -11    1    3    3    0    0  0.66558661776E+01  0.13182800874E+02 -0.85439637426E+00  0.14792457094E+02  0.51100000000E-03 0.  1.
        -12    1    3    3    0    0 -0.22578451455E+02 -0.17659340069E+00 -0.10989674373E+02  0.25111563037E+02  0.00000000000E+00 0.  1.
</event>
<event>
 7    1  0.1134395E-011  0.5930196E+02  0.7816164E-02  0.1266605E+00
        -11   -1    0    0    0    0  0.00000000000E+00  0.00000000000E+00  0.45593999997E+02  0.45594000000E+02  0.51100000000E-03 0. -1.
         11   -1    0    0    0    0 -0.00000000000E+00 -0.00000000000E+00 -0.45593999997E+02  0.45594000000E+02  0.51100000000E-03 0.  1.
    9900012    2    1    2    0    0  0.92822870827E+01  0.27040760965E+02 -0.14119356082E+02  0.59301955667E+02  0.50000021226E+02 0.  0.
         12    1    1    2    0    0 -0.92822870827E+01 -0.27040760965E+02  0.14119356082E+02  0.31886044333E+02  0.00000000000E+00 0. -1.
         11    1    3    3    0    0 -0.79525128602E+01  0.39917605773E+01  0.71186458878E+01  0.11395250451E+02  0.51100000000E-03 0. -1.
        -11    1    3    3    0    0 -0.86599417450E+01  0.10500901589E+02 -0.10511683607E+02  0.17197645703E+02  0.51100000000E-03 0.  1.
        -12    1    3    3    0    0  0.25894741688E+02  0.12548098799E+02 -0.10726318363E+02  0.30709059513E+02  0.00000000000E+00 0.  1.
</event>
<event>
 7    1  0.1134395E-011  0.5930192E+02  0.7816164E-02  0.1266605E+00
        -11   -1    0    0    0    0  0.00000000000E+00  0.00000000000E+00  0.45593999997E+02  0.45594000000E+02  0.51100000000E-03 0. -1.
         11   -1    0    0    0    0 -0.00000000000E+00 -0.00000000000E+00 -0.45593999997E+02  0.45594000000E+02  0.51100000000E-03 0.  1.
    9900012    2    1    2    0    0 -0.20264104115E+02 -0.23413361497E+02 -0.76093728206E+01  0.59301922052E+02  0.49999959921E+02 0.  0.
         12    1    1    2    0    0  0.20264104115E+02  0.23413361497E+02  0.76093728206E+01  0.31886077948E+02  0.00000000000E+00 0. -1.
         11    1    3    3    0    0 -0.50350928622E+01 -0.14960741125E+02 -0.16410875984E+02  0.22770436666E+02  0.51100000000E-03 0. -1.
        -11    1    3    3    0    0 -0.92485024521E+01  0.10592731025E+02 -0.13674640306E+01  0.14128365309E+02  0.51100000000E-03 0.  1.
         12    1    3    3    0    0 -0.59805088008E+01 -0.19045351397E+02  0.10168967194E+02  0.22403120077E+02  0.00000000000E+00 0. -1.
</event>
<event>
 7    1  0.1134395E-011  0.5930189E+02  0.7816164E-02  0.1266605E+00
        -11   -1    0    0    0    0  0.00000000000E+00  0.00000000000E+00  0.45593999997E+02  0.45594000000E+02  0.51100000000E-03 0. -1.
         11   -1    0    0    0    0 -0.00000000000E+00 -0.00000000000E+00 -0.45593999997E+02  0.45594000000E+02  0.51100000000E-03 0.  1.
    9900012    2    1    2    0    0  0.13742141608E+01  0.14457530582E+02 -0.28386888362E+02  0.59301888823E+02  0.49999899320E+02 0.  0.
         12    1    1    2    0    0 -0.13742141608E+01 -0.14457530582E+02  0.28386888362E+02  0.31886111177E+02  0.00000000000E+00 0. -1.
         11    1    3    3    0    0  0.59193687416E+01  0.12717778866E+02 -0.11215999334E+02  0.17960497401E+02  0.51100000000E-03 0. -1.
        -11    1    3    3    0    0 -0.29395477576E+01  0.16286037433E+02 -0.20486602680E+02  0.26335847165E+02  0.51100000000E-03 0.  1.
        -12    1    3    3    0    0 -0.16056068231E+01 -0.14546285717E+02  0.33157136513E+01  0.15005544257E+02  0.00000000000E+00 0.  1.
</event>
<event>
 7    1  0.1134395E-011  0.5930189E+02  0.7816164E-02  0.1266605E+00
        -11   -1    0    0    0    0  0.00000000000E+00  0.00000000000E+00  0.45593999997E+02  0.45594000000E+02  0.51100000000E-03 0.  1.
         11   -1    0    0    0    0 -0.00000000000E+00 -0.00000000000E+00 -0.45593999997E+02  0.45594000000E+02  0.51100000000E-03 0. -1.
    9900012    2    1    2    0    0 -0.31351183332E+01 -0.14022105798E+01  0.31700614199E+02  0.59301888570E+02  0.49999898859E+02 0.  0.
         12    1    1    2    0    0  0.31351183332E+01  0.14022105798E+01 -0.31700614199E+02  0.31886111430E+02  0.00000000000E+00 0. -1.
         11    1    3    3    0    0  0.34341649844E+01 -0.17631981510E+02  0.66207437541E+01  0.19144568662E+02  0.51100000000E-03 0. -1.
        -11    1    3    3    0    0  0.77443711471E+01  0.15136588467E+02  0.13938396337E+02  0.21985688245E+02  0.51100000000E-03 0.  1.
         12    1    3    3    0    0 -0.14313654465E+02  0.10931824634E+01  0.11141474108E+02  0.18171631664E+02  0.00000000000E+00 0. -1.
</event>
<event>
 7    1  0.1134395E-011  0.5930191E+02  0.7816164E-02  0.1266605E+00
        -11   -1    0    0    0    0  0.00000000000E+00  0.00000000000E+00  0.45593999997E+02  0.45594000000E+02  0.51100000000E-03 0. -1.
         11   -1    0    0    0    0 -0.00000000000E+00 -0.00000000000E+00 -0.45593999997E+02  0.45594000000E+02  0.51100000000E-03 0.  1.
    9900012    2    1    2    0    0 -0.25740251319E+02  0.11009473327E+02 -0.15262817556E+02  0.59301911487E+02  0.49999940653E+02 0.  0.
         12    1    1    2    0    0  0.25740251319E+02 -0.11009473327E+02  0.15262817556E+02  0.31886088513E+02  0.00000000000E+00 0. -1.
         11    1    3    3    0    0 -0.45244190191E+01  0.13162620164E+02 -0.13438470033E+02  0.19347284413E+02  0.51100000000E-03 0. -1.
        -11    1    3    3    0    0 -0.20249380796E+02  0.57248070921E+01 -0.14104529994E+02  0.25332757558E+02  0.51100000000E-03 0.  1.
        -12    1    3    3    0    0 -0.96645150436E+00 -0.78779539295E+01  0.12280182471E+02  0.14621869516E+02  0.00000000000E+00 0.  1.
</event>
<event>
 7    1  0.1134395E-011  0.5930195E+02  0.7816164E-02  0.1266605E+00
        -11   -1    0    0    0    0  0.00000000000E+00  0.00000000000E+00  0.45593999997E+02  0.45594000000E+02  0.51100000000E-03 0.  1.
         11   -1    0    0    0    0 -0.00000000000E+00 -0.00000000000E+00 -0.45593999997E+02  0.45594000000E+02  0.51100000000E-03 0. -1.
    9900012    2    1    2    0    0 -0.87690369684E+01  0.17425562578E+02  0.25222494944E+02  0.59301945184E+02  0.50000002109E+02 0.  0.
         12    1    1    2    0    0  0.87690369684E+01 -0.17425562578E+02 -0.25222494944E+02  0.31886054816E+02  0.00000000000E+00 0. -1.
         11    1    3    3    0    0 -0.42963927014E+01  0.20695778159E+02 -0.95416705956E+00  0.21158559944E+02  0.51100000000E-03 0. -1.
        -11    1    3    3    0    0  0.11000250523E+02  0.17583287492E+01  0.13597399666E+02  0.17578012103E+02  0.51100000000E-03 0.  1.
         12    1    3    3    0    0 -0.15472894790E+02 -0.50285443307E+01  0.12579262338E+02  0.20565373137E+02  0.00000000000E+00 0. -1.
</event>
<event>
 7    1  0.1134395E-011  0.5930194E+02  0.7816164E-02  0.1266605E+00
        -11   -1    0    0    0    0  0.00000000000E+00  0.00000000000E+00  0.45593999997E+02  0.45594000000E+02  0.51100000000E-03 0. -1.
         11   -1    0    0    0    0 -0.00000000000E+00 -0.00000000000E+00 -0.45593999997E+02  0.45594000000E+02  0.51100000000E-03 0.  1.
    9900012    2    1    2    0    0  0.22631252551E+02  0.21418864273E+02  0.67660377971E+01  0.59301943388E+02  0.49999998833E+02 0.  0.
         12    1    1    2    0    0 -0.22631252551E+02 -0.21418864273E+02 -0.67660377971E+01  0.31886056612E+02  0.00000000000E+00 0. -1.
         11    1    3    3    0    0 -0.12931766957E+02  0.95155338280E+01  0.56573669327E+01  0.17022978046E+02  0.51100000000E-03 0. -1.
        -11    1    3    3    0    0  0.48080031553E+01  0.74648535895E+00  0.75042095125E+01  0.89435616731E+01  0.51100000000E-03 0.  1.
        -12    1    3    3    0    0  0.30755016354E+02  0.11156845086E+02 -0.63955386481E+01  0.33335403669E+02  0.00000000000E+00 0.  1.
</event>
<event>
 7    1  0.1134395E-011  0.5930196E+02  0.7816164E-02  0.1266605E+00
        -11   -1    0    0    0    0  0.00000000000E+00  0.00000000000E+00  0.45593999997E+02  0.45594000000E+02  0.51100000000E-03 0.  1.
         11   -1    0    0    0    0 -0.00000000000E+00 -0.00000000000E+00 -0.45593999997E+02  0.45594000000E+02  0.51100000000E-03 0. -1.
    9900012    2    1    2    0    0  0.24383940984E+02 -0.11494882616E+02  0.17029698548E+02  0.59301960157E+02  0.50000029416E+02 0.  0.
         12    1    1    2    0    0 -0.24383940984E+02  0.11494882616E+02 -0.17029698548E+02  0.31886039843E+02  0.00000000000E+00 0. -1.
         11    1    3    3    0    0  0.97192655311E+01 -0.37468548908E+01 -0.24860302111E-01  0.10416509124E+02  0.51100000000E-03 0. -1.
        -11    1    3    3    0    0  0.28329140904E+02 -0.73153766461E+01  0.32192529808E+01  0.29434988531E+02  0.51100000000E-03 0.  1.
        -12    1    3    3    0    0 -0.13664465451E+02 -0.43265107864E+00  0.13835305869E+02  0.19450462502E+02  0.00000000000E+00 0.  1.
</event>
<event>
 7    1  0.1134395E-011  0.5930193E+02  0.7816164E-02  0.1266605E+00
        -11   -1    0    0    0    0  0.00000000000E+00  0.00000000000E+00  0.45593999997E+02  0.45594000000E+02  0.51100000000E-03 0. -1.
         11   -1    0    0    0    0 -0.00000000000E+00 -0.00000000000E+00 -0.45593999997E+02  0.45594000000E+02  0.51100000000E-03 0.  1.
    9900012    2    1    2    0    0  0.70552711236E+01 -0.21396264081E+02 -0.22564224927E+02  0.59301933861E+02  0.49999981459E+02 0.  0.
         12    1    1    2    0    0 -0.70552711236E+01  0.21396264081E+02  0.22564224927E+02  0.31886066139E+02  0.00000000000E+00 0. -1.
         11    1    3    3    0    0  0.50212704483E-01 -0.27760368565E+02 -0.56123479843E+01  0.28322059147E+02  0.51100000000E-03 0. -1.
        -11    1    3    3    0    0  0.90237035719E+01 -0.76097624890E+01 -0.80891006786E+01  0.14309761051E+02  0.51100000000E-03 0.  1.
         12    1    3    3    0    0 -0.20186451528E+01  0.13973866973E+02 -0.88627762640E+01  0.16670113663E+02  0.00000000000E+00 0. -1.
</event>
<event>
 7    1  0.1134395E-011  0.5930192E+02  0.7816164E-02  0.1266605E+00
        -11   -1    0    0    0    0  0.00000000000E+00  0.00000000000E+00  0.45593999997E+02  0.45594000000E+02  0.51100000000E-03 0.  1.
         11   -1    0    0    0    0 -0.00000000000E+00 -0.00000000000E+00 -0.45593999997E+02  0.45594000000E+02  0.51100000000E-03 0. -1.
    9900012    2    1    2    0    0 -0.10034018785E+02 -0.24898010792E+02 -0.17208409601E+02  0.59301924115E+02  0.49999963683E+02 0.  0.
         12    1    1    2    0    0  0.10034018785E+02  0.24898010792E+02  0.17208409601E+02  0.31886075885E+02  0.00000000000E+00 0. -1.
         11    1    3    3    0    0 -0.96175199516E+01  0.11720116951E+02 -0.65483177405E+01  0.16514790246E+02  0.51100000000E-03 0. -1.
        -11    1    3    3    0    0  0.85010742927E+00  0.14072615374E+01  0.20917426481E+01  0.26605366457E+01  0.51100000000E-03 0.  1.
        -12    1    3    3    0    0 -0.12666062631E+01 -0.38025389280E+02 -0.12751834509E+02  0.40126597223E+02  0.00000000000E+00 0.  1.
</event>
<event>
 7    1  0.1134395E-011  0.5930192E+02  0.7816164E-02  0.1266605E+00
        -11   -1    0    0    0    0  0.00000000000E+00  0.00000000000E+00  0.45593999997E+02  0.45594000000E+02  0.51100000000E-03 0.  1.
         11   -1    0    0    0    0 -0.00000000000E+00 -0.00000000000E+00 -0.45593999997E+02  0.45594000000E+02  0.51100000000E-03 0. -1.
    9900012    2    1    2    0    0  0.30540162418E+02  0.93918673774E+00  0.91180448073E+01  0.59301916306E+02  0.49999949443E+02 0.  0.
         12    1    1    2    0    0 -0.30540162418E+02 -0.93918673774E+00 -0.91180448073E+01  0.31886083694E+02  0.00000000000E+00 0. -1.
         11    1    3    3    0    0  0.10752924566E+02 -0.64041053656E+00  0.80915862895E+01  0.13472538043E+02  0.51100000000E-03 0. -1.
        -11    1    3    3    0    0 -0.61330619103E+01  0.17339905400E+01  0.15060283014E+02  0.16353387915E+02  0.51100000000E-03 0.  1.
         12    1    3    3    0    0  0.25920299761E+02 -0.15439326572E+00 -0.14033824496E+02  0.29475990348E+02  0.00000000000E+00 0. -1.
</event>
<event>
 7    1  0.1134395E-011  0.5930193E+02  0.7816164E-02  0.1266605E+00
        -11   -1    0    0    0    0  0.00000000000E+00  0.00000000000E+00  0.45593999997E+02  0.45594000000E+02  0.51100000000E-03 0. -1.
         11   -1    0    0    0    0 -0.00000000000E+00 -0.00000000000E+00 -0.45593999997E+02  0.45594000000E+02  0.51100000000E-03 0.  1.
    9900012    2    1    2    0    0  0.25019063639E+01  0.30581745336E+01 -0.31640311155E+02  0.59301933186E+02  0.49999980227E+02 0.  0.
         12    1    1    2    0    0 -0.25019063639E+01 -0.30581745336E+01  0.31640311155E+02  0.31886066814E+02  0.00000000000E+00 0. -1.
         11    1    3    3    0    0  0.77060993349E+01  0.19157816602E+02  0.86753330865E+00  0.20667813581E+02  0.51100000000E-03 0. -1.
        -11    1    3    3    0    0 -0.15453309149E+01  0.16871650371E+01 -0.16187854319E+01  0.28026844336E+01  0.51100000000E-03 0.  1.
         12    1    3    3    0    0 -0.36588620560E+01 -0.17786807106E+02 -0.30889059031E+02  0.35831435171E+02  0.00000000000E+00 0. -1.
</event>
<event>
 7    1  0.1134395E-011  0.5930196E+02  0.7816164E-02  0.1266605E+00
        -11   -1    0    0    0    0  0.00000000000E+00  0.00000000000E+00  0.45593999997E+02  0.45594000000E+02  0.51100000000E-03 0. -1.
         11   -1    0    0    0    0 -0.00000000000E+00 -0.00000000000E+00 -0.45593999997E+02  0.45594000000E+02  0.51100000000E-03 0.  1.
    9900012    2    1    2    0    0 -0.21277456816E+02 -0.11994209070E+01 -0.23718155534E+02  0.59301957897E+02  0.50000025294E+02 0.  0.
         12    1    1    2    0    0  0.21277456816E+02  0.11994209070E+01  0.23718155534E+02  0.31886042103E+02  0.00000000000E+00 0. -1.
         11    1    3    3    0    0 -0.10599101482E+02  0.67722773797E+01  0.91765972100E+01  0.15569670188E+02  0.51100000000E-03 0. -1.
        -11    1    3    3    0    0 -0.14512470825E+02  0.48599138529E+01 -0.15539356043E+02  0.21810597392E+02  0.51100000000E-03 0.  1.
         12    1    3    3    0    0  0.38341154913E+01 -0.12831612140E+02 -0.17355396702E+02  0.21921690317E+02  0.00000000000E+00 0. -1.
</event>
<event>
 7    1  0.1134395E-011  0.5930195E+02  0.7816164E-02  0.1266605E+00
        -11   -1    0    0    0    0  0.00000000000E+00  0.00000000000E+00  0.45593999997E+02  0.45594000000E+02  0.51100000000E-03 0.  1.
         11   -1    0    0    0    0 -0.00000000000E+00 -0.00000000000E+00 -0.45593999997E+02  0.45594000000E+02  0.51100000000E-03 0. -1.
    9900012    2    1    2    0    0  0.14011087768E+02 -0.23676484320E+02  0.16119356648E+02  0.59301950560E+02  0.50000011913E+02 0.  0.
         12    1    1    2    0    0 -0.14011087768E+02  0.23676484320E+02 -0.16119356648E+02  0.31886049440E+02  0.00000000000E+00 0. -1.
         11    1    3    3    0    0  0.16109851996E+00  0.84019829610E+01  0.62982291154E+01  0.10501759884E+02  0.51100000000E-03 0. -1.
        -11    1    3    3    0    0  0.35590893683E+01 -0.27874643543E+02  0.19382794130E+02  0.34137304791E+02  0.51100000000E-03 0.  1.
        -12    1    3    3    0    0  0.10290899880E+02 -0.42038237372E+01 -0.95616665983E+01  0.14662885885E+02  0.00000000000E+00 0.  1.
</event>
<event>
 7    1  0.1134395E-011  0.5930191E+02  0.7816164E-02  0.1266605E+00
        -11   -1    0    0    0    0  0.00000000000E+00  0.00000000000E+00  0.45593999997E+02  0.45594000000E+02  0.51100000000E-03 0. -1.
         11   -1    0    0    0    0 -0.00000000000E+00 -0.00000000000E+00 -0.45593999997E+02  0.45594000000E+02  0.51100000000E-03 0.  1.
    9900012    2    1    2    0    0  0.17898346062E+02 -0.22133487904E+02 -0.14369431503E+02  0.59301911493E+02  0.49999940665E+02 0.  0.
         12    1    1    2    0    0 -0.17898346062E+02  0.22133487904E+02  0.14369431503E+02  0.31886088507E+02  0.00000000000E+00 0. -1.
         11    1    3    3    0    0  0.13667830128E+02  0.31936026152E+01  0.35034501717E+01  0.14466611264E+02  0.51100000000E-03 0. -1.
        -11    1    3    3    0    0  0.56533432617E-01 -0.38405952955E+01 -0.22194645966E+02  0.22524557223E+02  0.51100000000E-03 0.  1.
        -12    1    3    3    0    0  0.41739825015E+01 -0.21486495223E+02  0.43217642921E+01  0.22310743007E+02  0.00000000000E+00 0.  1.
</event>
<event>
 7    1  0.1134395E-011  0.5930193E+02  0.7816164E-02  0.1266605E+00
        -11   -1    0    0    0    0  0.00000000000E+00  0.00000000000E+00  0.45593999997E+02  0.45594000000E+02  0.51100000000E-03 0. -1.
         11   -1    0    0    0    0 -0.00000000000E+00 -0.00000000000E+00 -0.45593999997E+02  0.45594000000E+02  0.51100000000E-03 0.  1.
    9900012    2    1    2    0    0 -0.18021037792E+02 -0.73879343992E+01 -0.25246424607E+02  0.59301931988E+02  0.49999978043E+02 0.  0.
         12    1    1    2    0    0  0.18021037792E+02  0.73879343992E+01  0.25246424607E+02  0.31886068012E+02  0.00000000000E+00 0. -1.
         11    1    3    3    0    0 -0.12154011967E+02 -0.21140583831E+02 -0.76744239822E+01  0.25564449444E+02  0.51100000000E-03 0. -1.
        -11    1    3    3    0    0 -0.89313719613E+01 -0.37588483403E+01 -0.15655822300E+01  0.98157727121E+01  0.51100000000E-03 0.  1.
        -12    1    3    3    0    0  0.30643461363E+01  0.17511497773E+02 -0.16006418395E+02  0.23921709833E+02  0.00000000000E+00 0.  1.
</event>
<event>
 7    1  0.1134395E-011  0.5930198E+02  0.7816164E-02  0.1266605E+00
        -11   -1    0    0    0    0  0.00000000000E+00  0.00000000000E+00  0.45593999997E+02  0.45594000000E+02  0.51100000000E-03 0. -1.
         11   -1    0    0    0    0 -0.00000000000E+00 -0.00000000000E+00 -0.45593999997E+02  0.45594000000E+02  0.51100000000E-03 0.  1.
    9900012    2    1    2    0    0 -0.55810843765E+01  0.22390173195E+02 -0.22005682679E+02  0.59301977534E+02  0.50000061108E+02 0.  0.
         12    1    1    2    0    0  0.55810843765E+01 -0.22390173195E+02  0.22005682679E+02  0.31886022466E+02  0.00000000000E+00 0. -1.
         11    1    3    3    0    0  0.81151919194E+01  0.13561315120E+02 -0.31876378081E+01  0.16122240624E+02  0.51100000000E-03 0. -1.
        -11    1    3    3    0    0 -0.93212037585E+01  0.15955717934E+02  0.39744937449E+01  0.18901491346E+02  0.51100000000E-03 0.  1.
         12    1    3    3    0    0 -0.43750725373E+01 -0.71268598593E+01 -0.22792538616E+02  0.24278245565E+02  0.00000000000E+00 0. -1.
</event>
<event>
 7    1  0.1134395E-011  0.5930200E+02  0.7816164E-02  0.1266605E+00
        -11   -1    0    0    0    0  0.00000000000E+00  0.00000000000E+00  0.45593999997E+02  0.45594000000E+02  0.51100000000E-03 0. -1.
         11   -1    0    0    0    0 -0.00000000000E+00 -0.00000000000E+00 -0.45593999997E+02  0.45594000000E+02  0.51100000000E-03 0.  1.
    9900012    2    1    2    0    0  0.30177973993E+02  0.48137941734E+01  0.91013423850E+01  0.59301997399E+02  0.50000097336E+02 0.  0.
         12    1    1    2    0    0 -0.30177973993E+02 -0.48137941734E+01 -0.91013423850E+01  0.31886002601E+02  0.00000000000E+00 0. -1.
         11    1    3    3    0    0  0.18913431110E+02  0.11487577416E+01 -0.92392991432E+00  0.18970797754E+02  0.51100000000E-03 0. -1.
        -11    1    3    3    0    0  0.45806748739E+01 -0.87430689507E+01 -0.11152098401E+02  0.14892720906E+02  0.51100000000E-03 0.  1.
        -12    1    3    3    0    0  0.66838680095E+01  0.12408105382E+02  0.21177370700E+02  0.25438478738E+02  0.00000000000E+00 0.  1.
</event>
<event>
 7    1  0.1134395E-011  0.5930194E+02  0.7816164E-02  0.1266605E+00
        -11   -1    0    0    0    0  0.00000000000E+00  0.00000000000E+00  0.45593999997E+02  0.45594000000E+02  0.51100000000E-03 0. -1.
         11   -1    0    0    0    0 -0.00000000000E+00 -0.00000000000E+00 -0.45593999997E+02  0.45594000000E+02  0.51100000000E-03 0.  1.
    9900012    2    1    2    0    0  0.62885505100E+01  0.13812213232E+02 -0.28042784382E+02  0.59301939444E+02  0.49999991640E+02 0.  0.
         12    1    1    2    0    0 -0.62885505100E+01 -0.13812213232E+02  0.28042784382E+02  0.31886060556E+02  0.00000000000E+00 0. -1.
         11    1    3    3    0    0 -0.38980506109E+01  0.12389165213E+02  0.65233327767E+01  0.14534100729E+02  0.51100000000E-03 0. -1.
        -11    1    3    3    0    0  0.10594178911E+02  0.13049592539E+02 -0.19949076549E+02  0.26086282749E+02  0.51100000000E-03 0.  1.
         12    1    3    3    0    0 -0.40757779019E+00 -0.11626544520E+02 -0.14617040609E+02  0.18681555966E+02  0.00000000000E+00 0. -1.
</event>
<event>
 7    1  0.1134395E-011  0.5930194E+02  0.7816164E-02  0.1266605E+00
        -11   -1    0    0    0    0  0.00000000000E+00  0.00000000000E+00  0.45593999997E+02  0.45594000000E+02  0.51100000000E-03 0. -1.
         11   -1    0    0    0    0 -0.00000000000E+00 -0.00000000000E+00 -0.45593999997E+02  0.45594000000E+02  0.51100000000E-03 0.  1.
    9900012    2    1    2    0    0 -0.18549166279E+02 -0.25826006213E+02  0.23804273437E+01  0.59301943472E+02  0.49999998986E+02 0.  0.
         12    1    1    2    0    0  0.18549166279E+02  0.25826006213E+02 -0.23804273437E+01  0.31886056528E+02  0.00000000000E+00 0. -1.
         11    1    3    3    0    0  0.11967594237E+02 -0.18747309005E+02  0.47085432912E+01  0.22734451543E+02  0.51100000000E-03 0. -1.
        -11    1    3    3    0    0  0.15232419284E+01 -0.29502840385E+01 -0.26701956033E+01  0.42607964867E+01  0.51100000000E-03 0.  1.
         12    1    3    3    0    0 -0.32040002444E+02 -0.41284131696E+01  0.34207965587E+00  0.32306695443E+02  0.00000000000E+00 0. -1.
</event>
<event>
 7    1  0.1134395E-011  0.5930194E+02  0.7816164E-02  0.1266605E+00
        -11   -1    0    0    0    0  0.00000000000E+00  0.00000000000E+00  0.45593999997E+02  0.45594000000E+02  0.51100000000E-03 0. -1.
         11   -1    0    0    0    0 -0.00000000000E+00 -0.00000000000E+00 -0.45593999997E+02  0.45594000000E+02  0.51100000000E-03 0.  1.
    9900012    2    1    2    0    0  0.20853402715E+02  0.13447514495E+02  0.20025500604E+02  0.59301941521E+02  0.49999995428E+02 0.  0.
         12    1    1    2    0    0 -0.20853402715E+02 -0.13447514495E+02 -0.20025500604E+02  0.31886058479E+02  0.00000000000E+00 0. -1.
         11    1    3    3    0    0 -0.58760231230E+01  0.25818069539E+01  0.86940797162E+01  0.10806497918E+02  0.51100000000E-03 0. -1.
        -11    1    3    3    0    0  0.21511245972E+02  0.91252819160E+01 -0.10763131680E+02  0.25726435376E+02  0.51100000000E-03 0.  1.
         12    1    3    3    0    0  0.52181798658E+01  0.17404256256E+01  0.22094552567E+02  0.22769008227E+02  0.00000000000E+00 0. -1.
</event>
<event>
 7    1  0.1134395E-011  0.5930196E+02  0.7816164E-02  0.1266605E+00
        -11   -1    0    0    0    0  0.00000000000E+00  0.00000000000E+00  0.45593999997E+02  0.45594000000E+02  0.51100000000E-03 0. -1.
         11   -1    0    0    0    0 -0.00000000000E+00 -0.00000000000E+00 -0.45593999997E+02  0.45594000000E+02  0.51100000000E-03 0.  1.
    9900012    2    1    2    0    0 -0.11937153802E+02  0.29437252314E+02  0.27699045787E+01  0.59301955466E+02  0.50000020860E+02 0.  0.
         12    1    1    2    0    0  0.11937153802E+02 -0.29437252314E+02 -0.27699045787E+01  0.31886044534E+02  0.00000000000E+00 0. -1.
         11    1    3    3    0    0  0.69777412238E+01  0.80398043697E+01  0.15538372987E+02  0.18835295650E+02  0.51100000000E-03 0. -1.
        -11    1    3    3    0    0  0.41471958303E+01 -0.17285888454E+01  0.16220852428E+01  0.47768623015E+01  0.51100000000E-03 0.  1.
        -12    1    3    3    0    0 -0.23062090856E+02  0.23126036789E+02 -0.14390553651E+02  0.35689797514E+02  0.00000000000E+00 0.  1.
</event>
<event>
 7    1  0.1134395E-011  0.5930193E+02  0.7816164E-02  0.1266605E+00
        -11   -1    0    0    0    0  0.00000000000E+00  0.00000000000E+00  0.45593999997E+02  0.45594000000E+02  0.51100000000E-03 0.  1.
         11   -1    0    0    0    0 -0.00000000000E+00 -0.00000000000E+00 -0.45593999997E+02  0.45594000000E+02  0.51100000000E-03 0. -1.
    9900012    2    1    2    0    0  0.59903917219E+01  0.27274232646E+02  0.15393270216E+02  0.59301932081E+02  0.49999978212E+02 0.  0.
         12    1    1    2    0    0 -0.59903917219E+01 -0.27274232646E+02 -0.15393270216E+02  0.31886067919E+02  0.00000000000E+00 0. -1.
         11    1    3    3    0    0 -0.11870230090E+02 -0.72914895026E-01 -0.74720605207E+01  0.14026381132E+02  0.51100000000E-03 0. -1.
        -11    1    3    3    0    0 -0.10059905954E+01  0.13632796287E+02  0.16921737808E+01  0.13774200668E+02  0.51100000000E-03 0.  1.
         12    1    3    3    0    0  0.18866612407E+02  0.13714351253E+02  0.21173156956E+02  0.31501350281E+02  0.00000000000E+00 0. -1.
</event>
<event>
 7    1  0.1134395E-011  0.5930193E+02  0.7816164E-02  0.1266605E+00
        -11   -1    0    0    0    0  0.00000000000E+00  0.00000000000E+00  0.45593999997E+02  0.45594000000E+02  0.51100000000E-03 0. -1.
         11   -1    0    0    0    0 -0.00000000000E+00 -0.00000000000E+00 -0.45593999997E+02  0.45594000000E+02  0.51100000000E-03 0.  1.
    9900012    2    1    2    0    0  0.13205270798E+01  0.31781228158E+02 -0.22206366966E+01  0.59301929650E+02  0.49999973778E+02 0.  0.
         12    1    1    2    0    0 -0.13205270798E+01 -0.31781228158E+02  0.22206366966E+01  0.31886070350E+02  0.00000000000E+00 0. -1.
         11    1    3    3    0    0 -0.83499124434E+01  0.11336974391E+02 -0.81576793144E+01  0.16272546150E+02  0.51100000000E-03 0. -1.
        -11    1    3    3    0    0 -0.93849472263E+01  0.12877363482E+02  0.13791167657E+02  0.21073680986E+02  0.51100000000E-03 0.  1.
        -12    1    3    3    0    0  0.19055386750E+02  0.75668902854E+01 -0.78541250387E+01  0.21955702514E+02  0.00000000000E+00 0.  1.
</event>
<event>
 7    1  0.1182922E-011  0.5930196E+02  0.7816164E-02  0.1266605E+00
        -11   -1    0    0    0    0  0.00000000000E+00  0.00000000000E+00  0.45593999997E+02  0.45594000000E+02  0.51100000000E-03 0.  1.
         11   -1    0    0    0    0 -0.00000000000E+00 -0.00000000000E+00 -0.45593999997E+02  0.45594000000E+02  0.51100000000E-03 0. -1.
    9900012    2    1    2    0    0 -0.32266305169E+01 -0.13147353781E+02  0.28869629748E+02  0.59301959516E+02  0.50000028248E+02 0.  0.
         12    1    1    2    0    0  0.32266305169E+01  0.13147353781E+02 -0.28869629748E+02  0.31886040484E+02  0.00000000000E+00 0. -1.
         11    1    3    3    0    0  0.13009684218E+02  0.16227647980E+01  0.25436235276E+01  0.13354971731E+02  0.51100000000E-03 0. -1.
        -11    1    3    3    0    0 -0.83136310888E+01 -0.17642226071E+02  0.13068397072E+01  0.19546673193E+02  0.51100000000E-03 0.  1.
        -12    1    3    3    0    0 -0.79226836456E+01  0.28721074914E+01  0.25019166513E+02  0.26400314593E+02  0.00000000000E+00 0.  1.
</event>
<event>
 7    1  0.1134395E-011  0.5930194E+02  0.7816164E-02  0.1266605E+00
        -11   -1    0    0    0    0  0.00000000000E+00  0.00000000000E+00  0.45593999997E+02  0.45594000000E+02  0.51100000000E-03 0. -1.
         11   -1    0    0    0    0 -0.00000000000E+00 -0.00000000000E+00 -0.45593999997E+02  0.45594000000E+02  0.51100000000E-03 0.  1.
    9900012    2    1    2    0    0  0.16468309814E+02 -0.20376595214E+02 -0.18174434841E+02  0.59301938116E+02  0.49999989219E+02 0.  0.
         12    1    1    2    0    0 -0.16468309814E+02  0.20376595214E+02  0.18174434841E+02  0.31886061884E+02  0.00000000000E+00 0. -1.
         11    1    3    3    0    0  0.19902286050E+02 -0.75425740278E+01 -0.17084733570E+02  0.27292481279E+02  0.51100000000E-03 0. -1.
        -11    1    3    3    0    0  0.92117970773E+01  0.29845736245E+01  0.49512875610E+01  0.10875667055E+02  0.51100000000E-03 0.  1.
        -12    1    3    3    0    0 -0.12645773313E+02 -0.15818594811E+02 -0.60409888325E+01  0.21133789782E+02  0.00000000000E+00 0.  1.
</event>
<event>
 7    1  0.1134395E-011  0.5930196E+02  0.7816164E-02  0.1266605E+00
        -11   -1    0    0    0    0  0.00000000000E+00  0.00000000000E+00  0.45593999997E+02  0.45594000000E+02  0.51100000000E-03 0.  1.
         11   -1    0    0    0    0 -0.00000000000E+00 -0.00000000000E+00 -0.45593999997E+02  0.45594000000E+02  0.51100000000E-03 0. -1.
    9900012    2    1    2    0    0 -0.16255186601E+02 -0.58042167777E+01  0.26810437334E+02  0.59301959577E+02  0.50000028358E+02 0.  0.
         12    1    1    2    0    0  0.16255186601E+02  0.58042167777E+01 -0.26810437334E+02  0.31886040423E+02  0.00000000000E+00 0. -1.
         11    1    3    3    0    0 -0.92698058733E+01  0.79686561501E+01  0.12209765924E+02  0.17277359924E+02  0.51100000000E-03 0. -1.
        -11    1    3    3    0    0 -0.20315777289E+02 -0.58271027810E+00  0.48798079816E+01  0.20901743572E+02  0.51100000000E-03 0.  1.
         12    1    3    3    0    0  0.13330396562E+02 -0.13190162650E+02  0.97208634279E+01  0.21122856081E+02  0.00000000000E+00 0. -1.
</event>
<event>
 7    1  0.1134395E-011  0.5930189E+02  0.7816164E-02  0.1266605E+00
        -11   -1    0    0    0    0  0.00000000000E+00  0.00000000000E+00  0.45593999997E+02  0.45594000000E+02  0.51100000000E-03 0. -1.
         11   -1    0    0    0    0 -0.00000000000E+00 -0.00000000000E+00 -0.45593999997E+02  0.45594000000E+02  0.51100000000E-03 0.  1.
    9900012    2    1    2    0    0 -0.14520544739E+02  0.27054244395E+02 -0.85991757486E+01  0.59301887304E+02  0.49999896550E+02 0.  0.
         12    1    1    2    0    0  0.14520544739E+02 -0.27054244395E+02  0.85991757486E+01  0.31886112696E+02  0.00000000000E+00 0. -1.
         11    1    3    3    0    0 -0.25801175169E+01  0.22985565146E+02  0.94133503491E+01  0.24972071931E+02  0.51100000000E-03 0. -1.
        -11    1    3    3    0    0 -0.16300098220E+02  0.15942777451E+01 -0.79477280916E+00  0.16397151814E+02  0.51100000000E-03 0.  1.
        -12    1    3    3    0    0  0.43596709984E+01  0.24744015034E+01 -0.17217753289E+02  0.17932663559E+02  0.00000000000E+00 0.  1.
</event>
<event>
 7    1  0.1134395E-011  0.5930196E+02  0.7816164E-02  0.1266605E+00
        -11   -1    0    0    0    0  0.00000000000E+00  0.00000000000E+00  0.45593999997E+02  0.45594000000E+02  0.51100000000E-03 0. -1.
         11   -1    0    0    0    0 -0.00000000000E+00 -0.00000000000E+00 -0.45593999997E+02  0.45594000000E+02  0.51100000000E-03 0.  1.
    9900012    2    1    2    0    0  0.31482400346E+02 -0.25323636625E+01 -0.43778371195E+01  0.59301955167E+02  0.50000020315E+02 0.  0.
         12    1    1    2    0    0 -0.31482400346E+02  0.25323636625E+01  0.43778371195E+01  0.31886044833E+02  0.00000000000E+00 0. -1.
         11    1    3    3    0    0  0.87006803562E+01  0.12448054372E+02 -0.81950871131E+01  0.17257327411E+02  0.51100000000E-03 0. -1.
        -11    1    3    3    0    0  0.76649843788E+01 -0.21103867216E+01 -0.13521687075E+02  0.15685717684E+02  0.51100000000E-03 0.  1.
        -12    1    3    3    0    0  0.15116735611E+02 -0.12870031313E+02  0.17338937068E+02  0.26358910072E+02  0.00000000000E+00 0.  1.
</event>
<event>
 7    1  0.1134395E-011  0.5930191E+02  0.7816164E-02  0.1266605E+00
        -11   -1    0    0    0    0  0.00000000000E+00  0.00000000000E+00  0.45593999997E+02  0.45594000000E+02  0.51100000000E-03 0. -1.
         11   -1    0    0    0    0 -0.00000000000E+00 -0.00000000000E+00 -0.45593999997E+02  0.45594000000E+02  0.51100000000E-03 0.  1.
    9900012    2    1    2    0    0 -0.10730154824E+02 -0.26367399394E+02 -0.14364774396E+02  0.59301910294E+02  0.49999938477E+02 0.  0.
         12    1    1    2    0    0  0.10730154824E+02  0.26367399394E+02  0.14364774396E+02  0.31886089706E+02  0.00000000000E+00 0. -1.
         11    1    3    3    0    0 -0.11449188306E+02 -0.10442470277E+02  0.73838635780E+01  0.17165387847E+02  0.51100000000E-03 0. -1.
        -11    1    3    3    0    0 -0.11579322932E+02 -0.11396943591E+02  0.56712506817E+00  0.16257080730E+02  0.51100000000E-03 0.  1.
         12    1    3    3    0    0  0.12298356414E+02 -0.45279855260E+01 -0.22315763042E+02  0.25879441716E+02  0.00000000000E+00 0. -1.
</event>
<event>
 7    1  0.1134395E-011  0.5930191E+02  0.7816164E-02  0.1266605E+00
        -11   -1    0    0    0    0  0.00000000000E+00  0.00000000000E+00  0.45593999997E+02  0.45594000000E+02  0.51100000000E-03 0.  1.
         11   -1    0    0    0    0 -0.00000000000E+00 -0.00000000000E+00 -0.45593999997E+02  0.45594000000E+02  0.51100000000E-03 0. -1.
    9900012    2    1    2    0    0 -0.26409567879E+01 -0.29748146404E+02  0.11171208963E+02  0.59301909351E+02  0.49999936757E+02 0.  0.
         12    1    1    2    0    0  0.26409567879E+01  0.29748146404E+02 -0.11171208963E+02  0.31886090649E+02  0.00000000000E+00 0. -1.
         11    1    3    3    0    0  0.17849764997E+01  0.27702243856E+01  0.28825222705E+01  0.43782666835E+01  0.51100000000E-03 0. -1.
        -11    1    3    3    0    0  0.12324610875E+02 -0.22298789775E+02 -0.10685606061E+02  0.27628142098E+02  0.51100000000E-03 0.  1.
         12    1    3    3    0    0 -0.16750544162E+02 -0.10219581015E+02  0.18974292753E+02  0.27295500569E+02  0.00000000000E+00 0. -1.
</event>
<event>
 7    1  0.1134395E-011  0.5930198E+02  0.7816164E-02  0.1266605E+00
        -11   -1    0    0    0    0  0.00000000000E+00  0.00000000000E+00  0.45593999997E+02  0.45594000000E+02  0.51100000000E-03 0. -1.
         11   -1    0    0    0    0 -0.00000000000E+00 -0.00000000000E+00 -0.45593999997E+02  0.45594000000E+02  0.51100000000E-03 0.  1.
    9900012    2    1    2    0    0  0.10145512773E+02  0.28674464498E+02 -0.95687870387E+01  0.59301983801E+02  0.50000072537E+02 0.  0.
         12    1    1    2    0    0 -0.10145512773E+02 -0.28674464498E+02  0.95687870387E+01  0.31886016199E+02  0.00000000000E+00 0. -1.
         11    1    3    3    0    0  0.33327301371E+01 -0.35969119091E+01 -0.18953770495E+02  0.19577800737E+02  0.51100000000E-03 0.  1.
        -11    1    3    3    0    0 -0.52343765778E+01  0.13373754824E+01  0.13329219387E+01  0.55645262597E+01  0.51100000000E-03 0. -1.
        -12    1    3    3    0    0  0.12047159213E+02  0.30934000925E+02  0.80520615176E+01  0.34159656804E+02  0.00000000000E+00 0.  1.
</event>
<event>
 7    1  0.1134395E-011  0.5930194E+02  0.7816164E-02  0.1266605E+00
        -11   -1    0    0    0    0  0.00000000000E+00  0.00000000000E+00  0.45593999997E+02  0.45594000000E+02  0.51100000000E-03 0. -1.
         11   -1    0    0    0    0 -0.00000000000E+00 -0.00000000000E+00 -0.45593999997E+02  0.45594000000E+02  0.51100000000E-03 0.  1.
    9900012    2    1    2    0    0  0.16732972460E+02 -0.11173155424E+02 -0.24736396284E+02  0.59301936107E+02  0.49999985554E+02 0.  0.
         12    1    1    2    0    0 -0.16732972460E+02  0.11173155424E+02  0.24736396284E+02  0.31886063893E+02  0.00000000000E+00 0. -1.
         11    1    3    3    0    0  0.84042833957E+01 -0.45600588850E+00  0.12483256808E+01  0.85087154161E+01  0.51100000000E-03 0. -1.
        -11    1    3    3    0    0  0.38556319494E+01  0.15357014264E+02 -0.16018314445E+02  0.22523103311E+02  0.51100000000E-03 0.  1.
         12    1    3    3    0    0  0.44730571152E+01 -0.26074163800E+02 -0.99664075202E+01  0.28270117380E+02  0.00000000000E+00 0. -1.
</event>
<event>
 7    1  0.1134395E-011  0.5930191E+02  0.7816164E-02  0.1266605E+00
        -11   -1    0    0    0    0  0.00000000000E+00  0.00000000000E+00  0.45593999997E+02  0.45594000000E+02  0.51100000000E-03 0. -1.
         11   -1    0    0    0    0 -0.00000000000E+00 -0.00000000000E+00 -0.45593999997E+02  0.45594000000E+02  0.51100000000E-03 0.  1.
    9900012    2    1    2    0    0 -0.17842743626E+02  0.18113971533E+02 -0.19241701082E+02  0.59301913295E+02  0.49999943952E+02 0.  0.
         12    1    1    2    0    0  0.17842743626E+02 -0.18113971533E+02  0.19241701082E+02  0.31886086705E+02  0.00000000000E+00 0. -1.
         11    1    3    3    0    0 -0.10009644077E+01  0.10445751408E+02 -0.51245468512E+01  0.11678040628E+02  0.51100000000E-03 0. -1.
        -11    1    3    3    0    0 -0.15322544980E+02  0.82927075784E+01 -0.28361304970E+02  0.33285327150E+02  0.51100000000E-03 0.  1.
        -12    1    3    3    0    0 -0.15192342387E+01 -0.62448745372E+00  0.14244150739E+02  0.14338545517E+02  0.00000000000E+00 0.  1.
</event>
<event>
 7    1  0.1134395E-011  0.5930198E+02  0.7816164E-02  0.1266605E+00
        -11   -1    0    0    0    0  0.00000000000E+00  0.00000000000E+00  0.45593999997E+02  0.45594000000E+02  0.51100000000E-03 0.  1.
         11   -1    0    0    0    0 -0.00000000000E+00 -0.00000000000E+00 -0.45593999997E+02  0.45594000000E+02  0.51100000000E-03 0. -1.
    9900012    2    1    2    0    0 -0.28264996921E+02  0.83690976822E+01  0.12155912440E+02  0.59301983407E+02  0.50000071818E+02 0.  0.
         12    1    1    2    0    0  0.28264996921E+02 -0.83690976822E+01 -0.12155912440E+02  0.31886016593E+02  0.00000000000E+00 0. -1.
         11    1    3    3    0    0 -0.14414605417E+02 -0.85246185417E+01  0.12035095880E+02  0.20622645410E+02  0.51100000000E-03 0. -1.
        -11    1    3    3    0    0 -0.23450229801E+02  0.16497789362E+02 -0.23210005962E+01  0.28765906480E+02  0.51100000000E-03 0.  1.
        -12    1    3    3    0    0  0.95998382974E+01  0.39592686168E+00  0.24418171564E+01  0.99134315170E+01  0.00000000000E+00 0.  1.
</event>
<event>
 7    1  0.1134395E-011  0.5930189E+02  0.7816164E-02  0.1266605E+00
        -11   -1    0    0    0    0  0.00000000000E+00  0.00000000000E+00  0.45593999997E+02  0.45594000000E+02  0.51100000000E-03 0.  1.
         11   -1    0    0    0    0 -0.00000000000E+00 -0.00000000000E+00 -0.45593999997E+02  0.45594000000E+02  0.51100000000E-03 0. -1.
    9900012    2    1    2    0    0 -0.94605755854E+01  0.14234853692E+02  0.26918222837E+02  0.59301885926E+02  0.49999894036E+02 0.  0.
         12    1    1    2    0    0  0.94605755854E+01 -0.14234853692E+02 -0.26918222837E+02  0.31886114074E+02  0.00000000000E+00 0. -1.
         11    1    3    3    0    0 -0.13597244452E+01 -0.60058968661E+01  0.76406536417E+00  0.62051143321E+01  0.51100000000E-03 0.  1.
        -11    1    3    3    0    0 -0.81586425974E+01 -0.78931659894E+01 -0.38296579304E+01  0.11980475721E+02  0.51100000000E-03 0. -1.
         12    1    3    3    0    0  0.57791457238E-01  0.28133916548E+02  0.29983815403E+02  0.41116295873E+02  0.00000000000E+00 0. -1.
</event>
<event>
 7    1  0.1134395E-011  0.5930195E+02  0.7816164E-02  0.1266605E+00
        -11   -1    0    0    0    0  0.00000000000E+00  0.00000000000E+00  0.45593999997E+02  0.45594000000E+02  0.51100000000E-03 0.  1.
         11   -1    0    0    0    0 -0.00000000000E+00 -0.00000000000E+00 -0.45593999997E+02  0.45594000000E+02  0.51100000000E-03 0. -1.
    9900012    2    1    2    0    0 -0.27489243726E+02 -0.11079003301E+02  0.11760836805E+02  0.59301951058E+02  0.50000012822E+02 0.  0.
         12    1    1    2    0    0  0.27489243726E+02  0.11079003301E+02 -0.11760836805E+02  0.31886048942E+02  0.00000000000E+00 0. -1.
         11    1    3    3    0    0 -0.19122158789E+02  0.94496675216E+01 -0.44823761110E+01  0.21795524056E+02  0.51100000000E-03 0. -1.
        -11    1    3    3    0    0 -0.14786462431E+02 -0.10860615583E+02  0.18078517213E+02  0.25757042279E+02  0.51100000000E-03 0.  1.
        -12    1    3    3    0    0  0.64193774938E+01 -0.96680552393E+01 -0.18353042975E+01  0.11749384724E+02  0.00000000000E+00 0.  1.
</event>
<event>
 7    1  0.1134395E-011  0.5930195E+02  0.7816164E-02  0.1266605E+00
        -11   -1    0    0    0    0  0.00000000000E+00  0.00000000000E+00  0.45593999997E+02  0.45594000000E+02  0.51100000000E-03 0. -1.
         11   -1    0    0    0    0 -0.00000000000E+00 -0.00000000000E+00 -0.45593999997E+02  0.45594000000E+02  0.51100000000E-03 0.  1.
    9900012    2    1    2    0    0 -0.24694099734E+02  0.16176155004E+02  0.12052115031E+02  0.59301952438E+02  0.50000015339E+02 0.  0.
         12    1    1    2    0    0  0.24694099734E+02 -0.16176155004E+02 -0.12052115031E+02  0.31886047562E+02  0.00000000000E+00 0. -1.
         11    1    3    3    0    0 -0.29937662475E+01 -0.46676979758E+01  0.16460302465E+02  0.17369271667E+02  0.51100000000E-03 0. -1.
        -11    1    3    3    0    0 -0.85130491923E+00 -0.63943415721E+01  0.25428327921E+01  0.69338534074E+01  0.51100000000E-03 0.  1.
         12    1    3    3    0    0 -0.20849028567E+02  0.27238194552E+02 -0.69510202260E+01  0.34998827364E+02  0.00000000000E+00 0. -1.
</event>
<event>
 7    1  0.1134395E-011  0.5930196E+02  0.7816164E-02  0.1266605E+00
        -11   -1    0    0    0    0  0.00000000000E+00  0.00000000000E+00  0.45593999997E+02  0.45594000000E+02  0.51100000000E-03 0.  1.
         11   -1    0    0    0    0 -0.00000000000E+00 -0.00000000000E+00 -0.45593999997E+02  0.45594000000E+02  0.51100000000E-03 0. -1.
    9900012    2    1    2    0    0  0.25698076216E+02  0.49360365941E+01  0.18219884058E+02  0.59301956759E+02  0.50000023220E+02 0.  0.
         12    1    1    2    0    0 -0.25698076216E+02 -0.49360365941E+01 -0.18219884058E+02  0.31886043241E+02  0.00000000000E+00 0. -1.
         11    1    3    3    0    0  0.14034657323E+02 -0.57491204036E+01  0.84275140822E+01  0.17350705618E+02  0.51100000000E-03 0. -1.
        -11    1    3    3    0    0  0.17820342211E+02  0.19975862635E+02  0.13787325413E+02  0.30111294008E+02  0.51100000000E-03 0.  1.
         12    1    3    3    0    0 -0.61569233180E+01 -0.92907056368E+01 -0.39949554374E+01  0.11839957133E+02  0.00000000000E+00 0. -1.
</event>
<event>
 7    1  0.1134395E-011  0.5930196E+02  0.7816164E-02  0.1266605E+00
        -11   -1    0    0    0    0  0.00000000000E+00  0.00000000000E+00  0.45593999997E+02  0.45594000000E+02  0.51100000000E-03 0.  1.
         11   -1    0    0    0    0 -0.00000000000E+00 -0.00000000000E+00 -0.45593999997E+02  0.45594000000E+02  0.51100000000E-03 0. -1.
    9900012    2    1    2    0    0  0.98872253485E+01 -0.74493363194E+01  0.29384857990E+02  0.59301957352E+02  0.50000024300E+02 0.  0.
         12    1    1    2    0    0 -0.98872253485E+01  0.74493363194E+01 -0.29384857990E+02  0.31886042648E+02  0.00000000000E+00 0. -1.
         11    1    3    3    0    0  0.12438080196E+02  0.14219614897E+02  0.13732568229E+02  0.23355657071E+02  0.51100000000E-03 0. -1.
        -11    1    3    3    0    0 -0.68680065861E+01 -0.81998283188E-01  0.11718680371E+02  0.13583214203E+02  0.51100000000E-03 0.  1.
         12    1    3    3    0    0  0.43171517386E+01 -0.21586952934E+02  0.39336093899E+01  0.22363086078E+02  0.00000000000E+00 0. -1.
</event>
<event>
 7    1  0.1134395E-011  0.5930193E+02  0.7816164E-02  0.1266605E+00
        -11   -1    0    0    0    0  0.00000000000E+00  0.00000000000E+00  0.45593999997E+02  0.45594000000E+02  0.51100000000E-03 0. -1.
         11   -1    0    0    0    0 -0.00000000000E+00 -0.00000000000E+00 -0.45593999997E+02  0.45594000000E+02  0.51100000000E-03 0.  1.
    9900012    2    1    2    0    0 -0.14167683938E+02 -0.15420974786E+02 -0.24045617044E+02  0.59301930462E+02  0.49999975260E+02 0.  0.
         12    1    1    2    0    0  0.14167683938E+02  0.15420974786E+02  0.24045617044E+02  0.31886069538E+02  0.00000000000E+00 0. -1.
         11    1    3    3    0    0 -0.79432960608E+01 -0.12179190109E+02 -0.57508939900E+01  0.15636540729E+02  0.51100000000E-03 0. -1.
        -11    1    3    3    0    0 -0.18904152802E+02 -0.11800233452E+02 -0.38293941491E+01  0.22611429909E+02  0.51100000000E-03 0.  1.
        -12    1    3    3    0    0  0.12679764925E+02  0.85584487748E+01 -0.14465328905E+02  0.21053959825E+02  0.00000000000E+00 0.  1.
</event>
<event>
 7    1  0.1134395E-011  0.5930190E+02  0.7816164E-02  0.1266605E+00
        -11   -1    0    0    0    0  0.00000000000E+00  0.00000000000E+00  0.45593999997E+02  0.45594000000E+02  0.51100000000E-03 0. -1.
         11   -1    0    0    0    0 -0.00000000000E+00 -0.00000000000E+00 -0.45593999997E+02  0.45594000000E+02  0.51100000000E-03 0.  1.
    9900012    2    1    2    0    0  0.17147894733E+02  0.23634235556E+02 -0.12810007864E+02  0.59301895102E+02  0.49999910772E+02 0.  0.
         12    1    1    2    0    0 -0.17147894733E+02 -0.23634235556E+02  0.12810007864E+02  0.31886104898E+02  0.00000000000E+00 0. -1.
         11    1    3    3    0    0 -0.23441799390E+01  0.66274201152E+00 -0.72847349473E+00  0.25426522479E+01  0.51100000000E-03 0. -1.
        -11    1    3    3    0    0 -0.10428595705E+01  0.93639473889E+01 -0.26562472109E+02  0.28183966924E+02  0.51100000000E-03 0.  1.
         12    1    3    3    0    0  0.20534934242E+02  0.13607546155E+02  0.14480937739E+02  0.28575275931E+02  0.00000000000E+00 0. -1.
</event>
<event>
 7    1  0.1134395E-011  0.5930196E+02  0.7816164E-02  0.1266605E+00
        -11   -1    0    0    0    0  0.00000000000E+00  0.00000000000E+00  0.45593999997E+02  0.45594000000E+02  0.51100000000E-03 0.  1.
         11   -1    0    0    0    0 -0.00000000000E+00 -0.00000000000E+00 -0.45593999997E+02  0.45594000000E+02  0.51100000000E-03 0. -1.
    9900012    2    1    2    0    0  0.17697897337E+02  0.43967710072E+01  0.26156694110E+02  0.59301955839E+02  0.50000021542E+02 0.  0.
         12    1    1    2    0    0 -0.17697897337E+02 -0.43967710072E+01 -0.26156694110E+02  0.31886044161E+02  0.00000000000E+00 0. -1.
         11    1    3    3    0    0  0.18687239943E+02  0.20960730940E+01 -0.25688388977E+01  0.18979077761E+02  0.51100000000E-03 0. -1.
        -11    1    3    3    0    0  0.96487816596E+01  0.10467182009E+02  0.10474195651E+02  0.17673982616E+02  0.51100000000E-03 0.  1.
         12    1    3    3    0    0 -0.10638124266E+02 -0.81664840956E+01  0.18251337357E+02  0.22648895463E+02  0.00000000000E+00 0. -1.
</event>
<event>
 7    1  0.1134395E-011  0.5930201E+02  0.7816164E-02  0.1266605E+00
        -11   -1    0    0    0    0  0.00000000000E+00  0.00000000000E+00  0.45593999997E+02  0.45594000000E+02  0.51100000000E-03 0. -1.
         11   -1    0    0    0    0 -0.00000000000E+00 -0.00000000000E+00 -0.45593999997E+02  0.45594000000E+02  0.51100000000E-03 0.  1.
    9900012    2    1    2    0    0 -0.29409780137E+00 -0.23958510776E+02 -0.21038531935E+02  0.59302006867E+02  0.50000114604E+02 0.  0.
         12    1    1    2    0    0  0.29409780137E+00  0.23958510776E+02  0.21038531935E+02  0.31885993133E+02  0.00000000000E+00 0. -1.
         11    1    3    3    0    0  0.15086768288E+02 -0.67403240127E+01 -0.53268854810E+01  0.17361401279E+02  0.51100000000E-03 0. -1.
        -11    1    3    3    0    0  0.79754334843E+01 -0.12712766773E+01  0.23168352726E+01  0.84018694107E+01  0.51100000000E-03 0.  1.
        -12    1    3    3    0    0 -0.23356299573E+02 -0.15946910086E+02 -0.18028481726E+02  0.33538736178E+02  0.00000000000E+00 0.  1.
</event>
<event>
 7    1  0.1134395E-011  0.5930196E+02  0.7816164E-02  0.1266605E+00
        -11   -1    0    0    0    0  0.00000000000E+00  0.00000000000E+00  0.45593999997E+02  0.45594000000E+02  0.51100000000E-03 0. -1.
         11   -1    0    0    0    0 -0.00000000000E+00 -0.00000000000E+00 -0.45593999997E+02  0.45594000000E+02  0.51100000000E-03 0.  1.
    9900012    2    1    2    0    0  0.26527374105E+02 -0.16707283865E+02 -0.58210571331E+01  0.59301958898E+02  0.50000027119E+02 0.  0.
         12    1    1    2    0    0 -0.26527374105E+02  0.16707283865E+02  0.58210571331E+01  0.31886041102E+02  0.00000000000E+00 0. -1.
         11    1    3    3    0    0 -0.31342730752E+01 -0.88392076929E+01  0.91630738772E+01  0.13111719319E+02  0.51100000000E-03 0. -1.
        -11    1    3    3    0    0  0.27398731752E+02  0.21553810541E+01  0.63887734907E+00  0.27490804529E+02  0.51100000000E-03 0.  1.
         12    1    3    3    0    0  0.22629154276E+01 -0.10023457226E+02 -0.15623008359E+02  0.18699435050E+02  0.00000000000E+00 0. -1.
</event>
<event>
 7    1  0.1134395E-011  0.5930196E+02  0.7816164E-02  0.1266605E+00
        -11   -1    0    0    0    0  0.00000000000E+00  0.00000000000E+00  0.45593999997E+02  0.45594000000E+02  0.51100000000E-03 0.  1.
         11   -1    0    0    0    0 -0.00000000000E+00 -0.00000000000E+00 -0.45593999997E+02  0.45594000000E+02  0.51100000000E-03 0. -1.
    9900012    2    1    2    0    0  0.75233970604E+01  0.16690241476E+02  0.26106585093E+02  0.59301961534E+02  0.50000031927E+02 0.  0.
         12    1    1    2    0    0 -0.75233970604E+01 -0.16690241476E+02 -0.26106585093E+02  0.31886038466E+02  0.00000000000E+00 0. -1.
         11    1    3    3    0    0 -0.71282813829E+01  0.20112103882E+02  0.29789026740E+01  0.21544906113E+02  0.51100000000E-03 0. -1.
        -11    1    3    3    0    0  0.83198362790E+00  0.43254329494E+01  0.21367131191E+02  0.21816412688E+02  0.51100000000E-03 0.  1.
         12    1    3    3    0    0  0.13819694815E+02 -0.77472953550E+01  0.17605512277E+01  0.15940642733E+02  0.00000000000E+00 0. -1.
</event>
<event>
 7    1  0.1134395E-011  0.5930192E+02  0.7816164E-02  0.1266605E+00
        -11   -1    0    0    0    0  0.00000000000E+00  0.00000000000E+00  0.45593999997E+02  0.45594000000E+02  0.51100000000E-03 0.  1.
         11   -1    0    0    0    0 -0.00000000000E+00 -0.00000000000E+00 -0.45593999997E+02  0.45594000000E+02  0.51100000000E-03 0. -1.
    9900012    2    1    2    0    0  0.25806531294E+01 -0.25710792537E+02  0.18682005712E+02  0.59301922147E+02  0.49999960094E+02 0.  0.
         12    1    1    2    0    0 -0.25806531294E+01  0.25710792537E+02 -0.18682005712E+02  0.31886077853E+02  0.00000000000E+00 0. -1.
         11    1    3    3    0    0  0.78139378122E-01  0.88399098915E+00 -0.19068528325E+01  0.21032436419E+01  0.51100000000E-03 0. -1.
        -11    1    3    3    0    0  0.17564030563E+02  0.49967553594E+01  0.87787988592E+01  0.20261540993E+02  0.51100000000E-03 0.  1.
        -12    1    3    3    0    0 -0.15061516811E+02 -0.31591538885E+02  0.11810059685E+02  0.36937137512E+02  0.00000000000E+00 0.  1.
</event>
<event>
 7    1  0.1134395E-011  0.5930195E+02  0.7816164E-02  0.1266605E+00
        -11   -1    0    0    0    0  0.00000000000E+00  0.00000000000E+00  0.45593999997E+02  0.45594000000E+02  0.51100000000E-03 0. -1.
         11   -1    0    0    0    0 -0.00000000000E+00 -0.00000000000E+00 -0.45593999997E+02  0.45594000000E+02  0.51100000000E-03 0.  1.
    9900012    2    1    2    0    0 -0.24120697626E+01  0.10266689286E+02 -0.30091482472E+02  0.59301948084E+02  0.50000007398E+02 0.  0.
         12    1    1    2    0    0  0.24120697626E+01 -0.10266689286E+02  0.30091482472E+02  0.31886051916E+02  0.00000000000E+00 0. -1.
         11    1    3    3    0    0  0.48050401667E+00  0.11854302041E+02  0.28589020033E+01  0.12203633963E+02  0.51100000000E-03 0. -1.
        -11    1    3    3    0    0  0.11493906338E+02 -0.24684749355E+01 -0.70373824763E+00  0.11777032699E+02  0.51100000000E-03 0.  1.
        -12    1    3    3    0    0 -0.14386480117E+02  0.88086218099E+00 -0.32246646228E+02  0.35321281422E+02  0.00000000000E+00 0.  1.
</event>
<event>
 7    1  0.1411364E-011  0.5930193E+02  0.7816164E-02  0.1266605E+00
        -11   -1    0    0    0    0  0.00000000000E+00  0.00000000000E+00  0.45593999997E+02  0.45594000000E+02  0.51100000000E-03 0. -1.
         11   -1    0    0    0    0 -0.00000000000E+00 -0.00000000000E+00 -0.45593999997E+02  0.45594000000E+02  0.51100000000E-03 0.  1.
    9900012    2    1    2    0    0 -0.86604561592E+01 -0.29257970711E+02 -0.92568329784E+01  0.59301932387E+02  0.49999978770E+02 0.  0.
         12    1    1    2    0    0  0.86604561592E+01  0.29257970711E+02  0.92568329784E+01  0.31886067613E+02  0.00000000000E+00 0. -1.
         11    1    3    3    0    0  0.10843818807E+02 -0.48044362985E+01  0.64984997176E+01  0.13524108596E+02  0.51100000000E-03 0. -1.
        -11    1    3    3    0    0 -0.79440260105E+01  0.53383243139E+01 -0.89528879951E+01  0.13105703318E+02  0.51100000000E-03 0.  1.
        -12    1    3    3    0    0 -0.11560248956E+02 -0.29791858727E+02 -0.68024447009E+01  0.32672120473E+02  0.00000000000E+00 0.  1.
</event>
<event>
 7    1  0.1134395E-011  0.5930194E+02  0.7816164E-02  0.1266605E+00
        -11   -1    0    0    0    0  0.00000000000E+00  0.00000000000E+00  0.45593999997E+02  0.45594000000E+02  0.51100000000E-03 0.  1.
         11   -1    0    0    0    0 -0.00000000000E+00 -0.00000000000E+00 -0.45593999997E+02  0.45594000000E+02  0.51100000000E-03 0. -1.
    9900012    2    1    2    0    0 -0.83555603106E+01  0.16478620776E+02  0.25987699489E+02  0.59301939479E+02  0.49999991705E+02 0.  0.
         12    1    1    2    0    0  0.83555603106E+01 -0.16478620776E+02 -0.25987699489E+02  0.31886060521E+02  0.00000000000E+00 0. -1.
         11    1    3    3    0    0 -0.30790991866E+01  0.92944377532E+01  0.34032364187E+01  0.10365782331E+02  0.51100000000E-03 0. -1.
        -11    1    3    3    0    0 -0.51286747787E+01  0.24096931646E+02  0.62372460604E+01  0.25413946140E+02  0.51100000000E-03 0.  1.
         12    1    3    3    0    0 -0.14778634526E+00 -0.16912748623E+02  0.16347217010E+02  0.23522211009E+02  0.00000000000E+00 0. -1.
</event>
<event>
 7    1  0.1134395E-011  0.5930195E+02  0.7816164E-02  0.1266605E+00
        -11   -1    0    0    0    0  0.00000000000E+00  0.00000000000E+00  0.45593999997E+02  0.45594000000E+02  0.51100000000E-03 0.  1.
         11   -1    0    0    0    0 -0.00000000000E+00 -0.00000000000E+00 -0.45593999997E+02  0.45594000000E+02  0.51100000000E-03 0. -1.
    9900012    2    1    2    0    0  0.48563242730E+01 -0.14638544300E+02  0.27907875181E+02  0.59301947222E+02  0.50000005825E+02 0.  0.
         12    1    1    2    0    0 -0.48563242730E+01  0.14638544300E+02 -0.27907875181E+02  0.31886052778E+02  0.00000000000E+00 0. -1.
         11    1    3    3    0    0  0.21477998562E+01 -0.98339989519E+01 -0.63587638688E+01  0.11906068109E+02  0.51100000000E-03 0. -1.
        -11    1    3    3    0    0  0.18366352169E+01  0.46033456543E+01 -0.49811886322E+01  0.70268243598E+01  0.51100000000E-03 0.  1.
        -12    1    3    3    0    0  0.87188919986E+00 -0.94078910025E+01  0.39247827682E+02  0.40369054753E+02  0.00000000000E+00 0.  1.
</event>
<event>
 7    1  0.1134395E-011  0.5930194E+02  0.7816164E-02  0.1266605E+00
        -11   -1    0    0    0    0  0.00000000000E+00  0.00000000000E+00  0.45593999997E+02  0.45594000000E+02  0.51100000000E-03 0.  1.
         11   -1    0    0    0    0 -0.00000000000E+00 -0.00000000000E+00 -0.45593999997E+02  0.45594000000E+02  0.51100000000E-03 0. -1.
    9900012    2    1    2    0    0 -0.79254286385E+01  0.28593782273E+02  0.11674922861E+02  0.59301943054E+02  0.49999998224E+02 0.  0.
         12    1    1    2    0    0  0.79254286385E+01 -0.28593782273E+02 -0.11674922861E+02  0.31886056946E+02  0.00000000000E+00 0. -1.
         11    1    3    3    0    0 -0.19699596438E+02  0.96591391866E+01  0.11556649915E+02  0.24797766576E+02  0.51100000000E-03 0. -1.
        -11    1    3    3    0    0 -0.80505783445E+00 -0.60859807281E+01  0.19453346396E+01  0.64398452358E+01  0.51100000000E-03 0.  1.
        -12    1    3    3    0    0  0.12579225634E+02  0.25020623814E+02 -0.18270616940E+01  0.28064331242E+02  0.00000000000E+00 0.  1.
</event>
<event>
 7    1  0.1134395E-011  0.5930198E+02  0.7816164E-02  0.1266605E+00
        -11   -1    0    0    0    0  0.00000000000E+00  0.00000000000E+00  0.45593999997E+02  0.45594000000E+02  0.51100000000E-03 0.  1.
         11   -1    0    0    0    0 -0.00000000000E+00 -0.00000000000E+00 -0.45593999997E+02  0.45594000000E+02  0.51100000000E-03 0. -1.
    9900012    2    1    2    0    0  0.21635351357E+02 -0.21636794291E+02 -0.89709925998E+01  0.59301984197E+02  0.50000073260E+02 0.  0.
         12    1    1    2    0    0 -0.21635351357E+02  0.21636794291E+02  0.89709925998E+01  0.31886015803E+02  0.00000000000E+00 0. -1.
         11    1    3    3    0    0  0.12317231502E+02  0.59526789162E+01 -0.13044056706E+02  0.18902274831E+02  0.51100000000E-03 0. -1.
        -11    1    3    3    0    0  0.52805160759E+01 -0.14646618214E+01  0.11671878228E+02  0.12894255539E+02  0.51100000000E-03 0.  1.
         12    1    3    3    0    0  0.40376037790E+01 -0.26124811386E+02 -0.75988141210E+01  0.27505453828E+02  0.00000000000E+00 0. -1.
</event>
<event>
 7    1  0.1134395E-011  0.5930198E+02  0.7816164E-02  0.1266605E+00
        -11   -1    0    0    0    0  0.00000000000E+00  0.00000000000E+00  0.45593999997E+02  0.45594000000E+02  0.51100000000E-03 0.  1.
         11   -1    0    0    0    0 -0.00000000000E+00 -0.00000000000E+00 -0.45593999997E+02  0.45594000000E+02  0.51100000000E-03 0. -1.
    9900012    2    1    2    0    0  0.10521535381E+02  0.28702963222E+02  0.90639579371E+01  0.59301982093E+02  0.50000069422E+02 0.  0.
         12    1    1    2    0    0 -0.10521535381E+02 -0.28702963222E+02 -0.90639579371E+01  0.31886017907E+02  0.00000000000E+00 0. -1.
         11    1    3    3    0    0  0.11792060392E+02  0.57679967538E+01  0.26577146294E+01  0.13393502983E+02  0.51100000000E-03 0. -1.
        -11    1    3    3    0    0  0.18824809028E+02  0.13999936212E+02  0.29011535729E+01  0.23638704305E+02  0.51100000000E-03 0.  1.
         12    1    3    3    0    0 -0.20095334040E+02  0.89350302556E+01  0.35050897348E+01  0.22269774805E+02  0.00000000000E+00 0. -1.
</event>
<event>
 7    1  0.1134395E-011  0.5930194E+02  0.7816164E-02  0.1266605E+00
        -11   -1    0    0    0    0  0.00000000000E+00  0.00000000000E+00  0.45593999997E+02  0.45594000000E+02  0.51100000000E-03 0. -1.
         11   -1    0    0    0    0 -0.00000000000E+00 -0.00000000000E+00 -0.45593999997E+02  0.45594000000E+02  0.51100000000E-03 0.  1.
    9900012    2    1    2    0    0  0.11185553362E+02 -0.26072630770E+02 -0.14554113298E+02  0.59301938889E+02  0.49999990628E+02 0.  0.
         12    1    1    2    0    0 -0.11185553362E+02  0.26072630770E+02  0.14554113298E+02  0.31886061111E+02  0.00000000000E+00 0. -1.
         11    1    3    3    0    0  0.12603335023E+01 -0.14847873663E+02  0.17070765597E-01  0.14901277949E+02  0.51100000000E-03 0. -1.
        -11    1    3    3    0    0  0.10870415191E+02 -0.22075681942E+02  0.18710858302E+01  0.24677978484E+02  0.51100000000E-03 0.  1.
         12    1    3    3    0    0 -0.94519533089E+00  0.10850924835E+02 -0.16442269894E+02  0.19722682456E+02  0.00000000000E+00 0. -1.
</event>
<event>
 7    1  0.1134395E-011  0.5930197E+02  0.7816164E-02  0.1266605E+00
        -11   -1    0    0    0    0  0.00000000000E+00  0.00000000000E+00  0.45593999997E+02  0.45594000000E+02  0.51100000000E-03 0. -1.
         11   -1    0    0    0    0 -0.00000000000E+00 -0.00000000000E+00 -0.45593999997E+02  0.45594000000E+02  0.51100000000E-03 0.  1.
    9900012    2    1    2    0    0 -0.42138822462E+01  0.29848895967E+02 -0.10392575931E+02  0.59301968129E+02  0.50000043954E+02 0.  0.
         12    1    1    2    0    0  0.42138822462E+01 -0.29848895967E+02  0.10392575931E+02  0.31886031871E+02  0.00000000000E+00 0. -1.
         11    1    3    3    0    0  0.75586576638E+01  0.11045466665E+02 -0.51965746437E+01  0.14357577366E+02  0.51100000000E-03 0. -1.
        -11    1    3    3    0    0  0.10396686875E+02  0.89328182404E+01 -0.13555183713E+02  0.19277690356E+02  0.51100000000E-03 0.  1.
         12    1    3    3    0    0 -0.22169226785E+02  0.98706110614E+01  0.83591824260E+01  0.25666700407E+02  0.00000000000E+00 0. -1.
</event>
<event>
 7    1  0.1134395E-011  0.5930194E+02  0.7816164E-02  0.1266605E+00
        -11   -1    0    0    0    0  0.00000000000E+00  0.00000000000E+00  0.45593999997E+02  0.45594000000E+02  0.51100000000E-03 0.  1.
         11   -1    0    0    0    0 -0.00000000000E+00 -0.00000000000E+00 -0.45593999997E+02  0.45594000000E+02  0.51100000000E-03 0. -1.
    9900012    2    1    2    0    0  0.28452875159E+02 -0.12149964942E+02  0.77157856135E+01  0.59301935637E+02  0.49999984698E+02 0.  0.
         12    1    1    2    0    0 -0.28452875159E+02  0.12149964942E+02 -0.77157856135E+01  0.31886064363E+02  0.00000000000E+00 0. -1.
         11    1    3    3    0    0  0.82613841527E+01 -0.17873005212E+02 -0.11882915367E+01  0.19725790744E+02  0.51100000000E-03 0. -1.
        -11    1    3    3    0    0 -0.19046380674E+01  0.71705476668E+01  0.14891598333E+02  0.16637430727E+02  0.51100000000E-03 0.  1.
         12    1    3    3    0    0  0.22096129074E+02 -0.14475073968E+01 -0.59875211828E+01  0.22938714167E+02  0.00000000000E+00 0. -1.
</event>
<event>
 7    1  0.1134395E-011  0.5930196E+02  0.7816164E-02  0.1266605E+00
        -11   -1    0    0    0    0  0.00000000000E+00  0.00000000000E+00  0.45593999997E+02  0.45594000000E+02  0.51100000000E-03 0. -1.
         11   -1    0    0    0    0 -0.00000000000E+00 -0.00000000000E+00 -0.45593999997E+02  0.45594000000E+02  0.51100000000E-03 0.  1.
    9900012    2    1    2    0    0 -0.30257064857E+02 -0.65615535102E+01 -0.76273103847E+01  0.59301955687E+02  0.50000021263E+02 0.  0.
         12    1    1    2    0    0  0.30257064857E+02  0.65615535102E+01  0.76273103847E+01  0.31886044313E+02  0.00000000000E+00 0. -1.
         11    1    3    3    0    0 -0.33345112288E+02 -0.79223453448E+01  0.38873988678E+01  0.34493070891E+02  0.51100000000E-03 0. -1.
        -11    1    3    3    0    0 -0.82271346147E+01  0.86861600294E+00  0.51198155694E+00  0.82886888652E+01  0.51100000000E-03 0.  1.
        -12    1    3    3    0    0  0.11315182045E+02  0.49217583167E+00 -0.12026690809E+02  0.16520195931E+02  0.00000000000E+00 0.  1.
</event>
<event>
 7    1  0.1134395E-011  0.5930192E+02  0.7816164E-02  0.1266605E+00
        -11   -1    0    0    0    0  0.00000000000E+00  0.00000000000E+00  0.45593999997E+02  0.45594000000E+02  0.51100000000E-03 0.  1.
         11   -1    0    0    0    0 -0.00000000000E+00 -0.00000000000E+00 -0.45593999997E+02  0.45594000000E+02  0.51100000000E-03 0. -1.
    9900012    2    1    2    0    0  0.28164272309E+02 -0.98669035603E+01  0.11231218790E+02  0.59301916890E+02  0.49999950507E+02 0.  0.
         12    1    1    2    0    0 -0.28164272309E+02  0.98669035603E+01 -0.11231218790E+02  0.31886083110E+02  0.00000000000E+00 0. -1.
         11    1    3    3    0    0 -0.41547070694E+01 -0.20619901433E+00 -0.82925341795E+00  0.42416707037E+01  0.51100000000E-03 0. -1.
        -11    1    3    3    0    0  0.11564542914E+02 -0.15773108195E+02  0.23509867270E+02  0.30581750346E+02  0.51100000000E-03 0.  1.
         12    1    3    3    0    0  0.20754436465E+02  0.61124036487E+01 -0.11449395061E+02  0.24478495840E+02  0.00000000000E+00 0. -1.
</event>
<event>
 7    1  0.1134395E-011  0.5930199E+02  0.7816164E-02  0.1266605E+00
        -11   -1    0    0    0    0  0.00000000000E+00  0.00000000000E+00  0.45593999997E+02  0.45594000000E+02  0.51100000000E-03 0. -1.
         11   -1    0    0    0    0 -0.00000000000E+00 -0.00000000000E+00 -0.45593999997E+02  0.45594000000E+02  0.51100000000E-03 0.  1.
    9900012    2    1    2    0    0  0.49608589648E+01  0.27544150942E+02  0.15278333833E+02  0.59301986491E+02  0.50000077443E+02 0.  0.
         12    1    1    2    0    0 -0.49608589648E+01 -0.27544150942E+02 -0.15278333833E+02  0.31886013509E+02  0.00000000000E+00 0. -1.
         11    1    3    3    0    0  0.15427024530E+01 -0.85924827513E+01  0.12556128471E+02  0.15292712419E+02  0.51100000000E-03 0. -1.
        -11    1    3    3    0    0 -0.82748724042E+01  0.62701594849E+01  0.56184776093E+01  0.11804901701E+02  0.51100000000E-03 0.  1.
        -12    1    3    3    0    0  0.11693028916E+02  0.29866474208E+02 -0.28962722473E+01  0.32204372371E+02  0.00000000000E+00 0.  1.
</event>
<event>
 7    1  0.1134395E-011  0.5930204E+02  0.7816164E-02  0.1266604E+00
        -11   -1    0    0    0    0  0.00000000000E+00  0.00000000000E+00  0.45593999997E+02  0.45594000000E+02  0.51100000000E-03 0.  1.
         11   -1    0    0    0    0 -0.00000000000E+00 -0.00000000000E+00 -0.45593999997E+02  0.45594000000E+02  0.51100000000E-03 0. -1.
    9900012    2    1    2    0    0  0.46334139634E+01 -0.10470302556E+02  0.29759345076E+02  0.59302041022E+02  0.50000176894E+02 0.  0.
         12    1    1    2    0    0 -0.46334139634E+01  0.10470302556E+02 -0.29759345076E+02  0.31885958978E+02  0.00000000000E+00 0. -1.
         11    1    3    3    0    0  0.95246351746E+01 -0.64679933285E+01 -0.39407871336E+01  0.12168952971E+02  0.51100000000E-03 0. -1.
        -11    1    3    3    0    0 -0.16767285418E+02 -0.87106952807E+01  0.13462214138E+02  0.23200200049E+02  0.51100000000E-03 0.  1.
         12    1    3    3    0    0  0.11876064206E+02  0.47083860531E+01  0.20237918072E+02  0.23932888002E+02  0.00000000000E+00 0. -1.
</event>
<event>
 7    1  0.1134395E-011  0.5930196E+02  0.7816164E-02  0.1266605E+00
        -11   -1    0    0    0    0  0.00000000000E+00  0.00000000000E+00  0.45593999997E+02  0.45594000000E+02  0.51100000000E-03 0. -1.
         11   -1    0    0    0    0 -0.00000000000E+00 -0.00000000000E+00 -0.45593999997E+02  0.45594000000E+02  0.51100000000E-03 0.  1.
    9900012    2    1    2    0    0 -0.28932702068E+02  0.66025399144E+01 -0.11662961501E+02  0.59301961469E+02  0.50000031808E+02 0.  0.
         12    1    1    2    0    0  0.28932702068E+02 -0.66025399144E+01  0.11662961501E+02  0.31886038531E+02  0.00000000000E+00 0. -1.
         11    1    3    3    0    0 -0.13933009910E+01 -0.22393074956E+01  0.34339827695E+01  0.43298988018E+01  0.51100000000E-03 0. -1.
        -11    1    3    3    0    0 -0.31769670906E+01 -0.32182985884E+01  0.14261250830E+02  0.14961077541E+02  0.51100000000E-03 0.  1.
        -12    1    3    3    0    0 -0.24362433986E+02  0.12060145998E+02 -0.29358195100E+02  0.40010985126E+02  0.00000000000E+00 0.  1.
</event>
<event>
 7    1  0.1134395E-011  0.5930192E+02  0.7816164E-02  0.1266605E+00
        -11   -1    0    0    0    0  0.00000000000E+00  0.00000000000E+00  0.45593999997E+02  0.45594000000E+02  0.51100000000E-03 0.  1.
         11   -1    0    0    0    0 -0.00000000000E+00 -0.00000000000E+00 -0.45593999997E+02  0.45594000000E+02  0.51100000000E-03 0. -1.
    9900012    2    1    2    0    0  0.14714110690E+02  0.27974969798E+02 -0.41974209455E+01  0.59301916340E+02  0.49999949504E+02 0.  0.
         12    1    1    2    0    0 -0.14714110690E+02 -0.27974969798E+02  0.41974209455E+01  0.31886083660E+02  0.00000000000E+00 0. -1.
         11    1    3    3    0    0 -0.62837635230E+01  0.17745278817E+02 -0.73590540809E+01  0.20212280464E+02  0.51100000000E-03 0. -1.
        -11    1    3    3    0    0  0.21463617570E+02 -0.34670843215E+00 -0.87252247787E+01  0.23171893182E+02  0.51100000000E-03 0.  1.
        -12    1    3    3    0    0 -0.46574335720E+00  0.10576399413E+02  0.11886857914E+02  0.15917742695E+02  0.00000000000E+00 0.  1.
</event>
<event>
 7    1  0.1134395E-011  0.5930193E+02  0.7816164E-02  0.1266605E+00
        -11   -1    0    0    0    0  0.00000000000E+00  0.00000000000E+00  0.45593999997E+02  0.45594000000E+02  0.51100000000E-03 0. -1.
         11   -1    0    0    0    0 -0.00000000000E+00 -0.00000000000E+00 -0.45593999997E+02  0.45594000000E+02  0.51100000000E-03 0.  1.
    9900012    2    1    2    0    0 -0.25156645773E+02  0.19129286239E+02 -0.42349639348E+01  0.59301931912E+02  0.49999977904E+02 0.  0.
         12    1    1    2    0    0  0.25156645773E+02 -0.19129286239E+02  0.42349639348E+01  0.31886068088E+02  0.00000000000E+00 0. -1.
         11    1    3    3    0    0  0.57962393618E+01  0.26460310820E+01  0.10225314126E+01  0.64531730162E+01  0.51100000000E-03 0. -1.
        -11    1    3    3    0    0  0.40969296723E+01  0.21989947499E+01 -0.13356881023E+02  0.14143078929E+02  0.51100000000E-03 0.  1.
         12    1    3    3    0    0 -0.35049814807E+02  0.14284260407E+02  0.80993856761E+01  0.38705679967E+02  0.00000000000E+00 0. -1.
</event>
<event>
 7    1  0.1134395E-011  0.5930192E+02  0.7816164E-02  0.1266605E+00
        -11   -1    0    0    0    0  0.00000000000E+00  0.00000000000E+00  0.45593999997E+02  0.45594000000E+02  0.51100000000E-03 0.  1.
         11   -1    0    0    0    0 -0.00000000000E+00 -0.00000000000E+00 -0.45593999997E+02  0.45594000000E+02  0.51100000000E-03 0. -1.
    9900012    2    1    2    0    0  0.39188629467E+01 -0.17214751864E+02  0.26552150727E+02  0.59301923466E+02  0.49999962500E+02 0.  0.
         12    1    1    2    0    0 -0.39188629467E+01  0.17214751864E+02 -0.26552150727E+02  0.31886076534E+02  0.00000000000E+00 0. -1.
         11    1    3    3    0    0  0.16526429109E+01  0.10475232658E+02  0.27007943863E+02  0.29015353864E+02  0.51100000000E-03 0. -1.
        -11    1    3    3    0    0 -0.14258854707E+01 -0.17696216711E+01  0.31216797568E+01  0.38612944720E+01  0.51100000000E-03 0.  1.
         12    1    3    3    0    0  0.36921055065E+01 -0.25920362851E+02 -0.35774728934E+01  0.26425275130E+02  0.00000000000E+00 0. -1.
</event>
<event>
 7    1  0.1326865E-011  0.5930193E+02  0.7816164E-02  0.1266605E+00
        -11   -1    0    0    0    0  0.00000000000E+00  0.00000000000E+00  0.45593999997E+02  0.45594000000E+02  0.51100000000E-03 0.  1.
         11   -1    0    0    0    0 -0.00000000000E+00 -0.00000000000E+00 -0.45593999997E+02  0.45594000000E+02  0.51100000000E-03 0. -1.
    9900012    2    1    2    0    0 -0.16947805066E+02 -0.17589028082E+02 -0.20496814253E+02  0.59301930943E+02  0.49999976136E+02 0.  0.
         12    1    1    2    0    0  0.16947805066E+02  0.17589028082E+02  0.20496814253E+02  0.31886069057E+02  0.00000000000E+00 0. -1.
         11    1    3    3    0    0  0.10369479940E+02 -0.11023839043E+02 -0.11211938257E+02  0.18835039188E+02  0.51100000000E-03 0. -1.
        -11    1    3    3    0    0 -0.13931127528E+02 -0.16281954440E+02 -0.10536156416E+02  0.23878629501E+02  0.51100000000E-03 0.  1.
        -12    1    3    3    0    0 -0.13386157478E+02  0.97167654014E+01  0.12512804198E+01  0.16588262254E+02  0.00000000000E+00 0.  1.
</event>
<event>
 7    1  0.1134395E-011  0.5930193E+02  0.7816164E-02  0.1266605E+00
        -11   -1    0    0    0    0  0.00000000000E+00  0.00000000000E+00  0.45593999997E+02  0.45594000000E+02  0.51100000000E-03 0.  1.
         11   -1    0    0    0    0 -0.00000000000E+00 -0.00000000000E+00 -0.45593999997E+02  0.45594000000E+02  0.51100000000E-03 0. -1.
    9900012    2    1    2    0    0 -0.80090406781E+01  0.30818897188E+02  0.16649468118E+01  0.59301934010E+02  0.49999981729E+02 0.  0.
         12    1    1    2    0    0  0.80090406781E+01 -0.30818897188E+02 -0.16649468118E+01  0.31886065990E+02  0.00000000000E+00 0. -1.
         11    1    3    3    0    0  0.99384737179E+01 -0.36699703742E+00 -0.44023901775E+01  0.10876074025E+02  0.51100000000E-03 0. -1.
        -11    1    3    3    0    0  0.53785358355E-01  0.28789451537E+02 -0.13222438791E+01  0.28819849788E+02  0.51100000000E-03 0.  1.
         12    1    3    3    0    0 -0.18001299754E+02  0.23964426879E+01  0.73895808684E+01  0.19606010196E+02  0.00000000000E+00 0. -1.
</event>
<event>
 7    1  0.1134395E-011  0.5930196E+02  0.7816164E-02  0.1266605E+00
        -11   -1    0    0    0    0  0.00000000000E+00  0.00000000000E+00  0.45593999997E+02  0.45594000000E+02  0.51100000000E-03 0.  1.
         11   -1    0    0    0    0 -0.00000000000E+00 -0.00000000000E+00 -0.45593999997E+02  0.45594000000E+02  0.51100000000E-03 0. -1.
    9900012    2    1    2    0    0 -0.10163613612E+02  0.18472200431E+02  0.23920661859E+02  0.59301963962E+02  0.50000036356E+02 0.  0.
         12    1    1    2    0    0  0.10163613612E+02 -0.18472200431E+02 -0.23920661859E+02  0.31886036038E+02  0.00000000000E+00 0. -1.
         11    1    3    3    0    0 -0.83134808721E+00 -0.35707627328E+01  0.10752539442E+02  0.11360395717E+02  0.51100000000E-03 0. -1.
        -11    1    3    3    0    0 -0.24566883941E+02  0.10438347758E+02  0.10134997573E+02  0.28551866253E+02  0.51100000000E-03 0.  1.
        -12    1    3    3    0    0  0.15234618417E+02  0.11604615406E+02  0.30331248443E+01  0.19389701992E+02  0.00000000000E+00 0.  1.
</event>
<event>
 7    1  0.1134395E-011  0.5930194E+02  0.7816164E-02  0.1266605E+00
        -11   -1    0    0    0    0  0.00000000000E+00  0.00000000000E+00  0.45593999997E+02  0.45594000000E+02  0.51100000000E-03 0.  1.
         11   -1    0    0    0    0 -0.00000000000E+00 -0.00000000000E+00 -0.45593999997E+02  0.45594000000E+02  0.51100000000E-03 0. -1.
    9900012    2    1    2    0    0 -0.98278717027E+01 -0.13513438106E+02  0.27157333210E+02  0.59301940057E+02  0.49999992757E+02 0.  0.
         12    1    1    2    0    0  0.98278717027E+01  0.13513438106E+02 -0.27157333210E+02  0.31886059943E+02  0.00000000000E+00 0. -1.
         11    1    3    3    0    0  0.14697842580E+02  0.36872418266E+01  0.54816593877E+01  0.16114307888E+02  0.51100000000E-03 0. -1.
        -11    1    3    3    0    0  0.29827811283E+01  0.10611597699E+01  0.56709187513E+01  0.64947950746E+01  0.51100000000E-03 0.  1.
         12    1    3    3    0    0 -0.27508495411E+02 -0.18261839703E+02  0.16004755071E+02  0.36692837094E+02  0.00000000000E+00 0. -1.
</event>
<event>
 7    1  0.1134395E-011  0.5930198E+02  0.7816164E-02  0.1266605E+00
        -11   -1    0    0    0    0  0.00000000000E+00  0.00000000000E+00  0.45593999997E+02  0.45594000000E+02  0.51100000000E-03 0. -1.
         11   -1    0    0    0    0 -0.00000000000E+00 -0.00000000000E+00 -0.45593999997E+02  0.45594000000E+02  0.51100000000E-03 0.  1.
    9900012    2    1    2    0    0  0.30868609058E+02 -0.42078729176E+00 -0.79793531566E+01  0.59301981686E+02  0.50000068680E+02 0.  0.
         12    1    1    2    0    0 -0.30868609058E+02  0.42078729176E+00  0.79793531566E+01  0.31886018314E+02  0.00000000000E+00 0. -1.
         11    1    3    3    0    0  0.16676576306E+02  0.16339447087E+02 -0.11850625898E+02  0.26182495351E+02  0.51100000000E-03 0. -1.
        -11    1    3    3    0    0  0.83275058677E+01 -0.18510078921E+02 -0.62971003166E+01  0.21251443440E+02  0.51100000000E-03 0.  1.
        -12    1    3    3    0    0  0.58645268846E+01  0.17498445422E+01  0.10168373058E+02  0.11868042895E+02  0.00000000000E+00 0.  1.
</event>
<event>
 7    1  0.1134395E-011  0.5930193E+02  0.7816164E-02  0.1266605E+00
        -11   -1    0    0    0    0  0.00000000000E+00  0.00000000000E+00  0.45593999997E+02  0.45594000000E+02  0.51100000000E-03 0. -1.
         11   -1    0    0    0    0 -0.00000000000E+00 -0.00000000000E+00 -0.45593999997E+02  0.45594000000E+02  0.51100000000E-03 0.  1.
    9900012    2    1    2    0    0  0.50474166984E+00 -0.26464256506E+02 -0.17779479924E+02  0.59301928701E+02  0.49999972047E+02 0.  0.
         12    1    1    2    0    0 -0.50474166984E+00  0.26464256506E+02  0.17779479924E+02  0.31886071299E+02  0.00000000000E+00 0. -1.
         11    1    3    3    0    0  0.98369133565E+00  0.10500405633E+01 -0.16619117819E+02  0.16681286257E+02  0.51100000000E-03 0. -1.
        -11    1    3    3    0    0 -0.46114684269E+01 -0.13791920629E+01 -0.12828950402E+02  0.13702181595E+02  0.51100000000E-03 0.  1.
         12    1    3    3    0    0  0.41325187611E+01 -0.26135105006E+02  0.11668588297E+02  0.28918460848E+02  0.00000000000E+00 0. -1.
</event>
<event>
 7    1  0.1134395E-011  0.5930197E+02  0.7816164E-02  0.1266605E+00
        -11   -1    0    0    0    0  0.00000000000E+00  0.00000000000E+00  0.45593999997E+02  0.45594000000E+02  0.51100000000E-03 0. -1.
         11   -1    0    0    0    0 -0.00000000000E+00 -0.00000000000E+00 -0.45593999997E+02  0.45594000000E+02  0.51100000000E-03 0.  1.
    9900012    2    1    2    0    0 -0.20403302698E+02  0.24411957058E+02  0.21167565218E+01  0.59301967532E+02  0.50000042865E+02 0.  0.
         12    1    1    2    0    0  0.20403302698E+02 -0.24411957058E+02 -0.21167565218E+01  0.31886032468E+02  0.00000000000E+00 0. -1.
         11    1    3    3    0    0 -0.28361369544E+02  0.18404809726E+02 -0.11121526414E+02  0.35592030758E+02  0.51100000000E-03 0. -1.
        -11    1    3    3    0    0 -0.39263115837E+01  0.12347757724E+01 -0.13180380431E+01  0.43217841692E+01  0.51100000000E-03 0.  1.
         12    1    3    3    0    0  0.11884378430E+02  0.47723715602E+01  0.14556320979E+02  0.19388152604E+02  0.00000000000E+00 0. -1.
</event>
<event>
 7    1  0.1134395E-011  0.5930196E+02  0.7816164E-02  0.1266605E+00
        -11   -1    0    0    0    0  0.00000000000E+00  0.00000000000E+00  0.45593999997E+02  0.45594000000E+02  0.51100000000E-03 0.  1.
         11   -1    0    0    0    0 -0.00000000000E+00 -0.00000000000E+00 -0.45593999997E+02  0.45594000000E+02  0.51100000000E-03 0. -1.
    9900012    2    1    2    0    0  0.31404307672E+02  0.38705887132E+01  0.39379953383E+01  0.59301955959E+02  0.50000021759E+02 0.  0.
         12    1    1    2    0    0 -0.31404307672E+02 -0.38705887132E+01 -0.39379953383E+01  0.31886044041E+02  0.00000000000E+00 0. -1.
         11    1    3    3    0    0  0.12373516739E+02 -0.71904402178E+01  0.41382801794E+01  0.14897372592E+02  0.51100000000E-03 0. -1.
        -11    1    3    3    0    0  0.24519149430E+02 -0.58761250527E+01  0.53113282149E+01  0.25766795340E+02  0.51100000000E-03 0.  1.
        -12    1    3    3    0    0 -0.54883584980E+01  0.16937153984E+02 -0.55116130560E+01  0.18637788027E+02  0.00000000000E+00 0.  1.
</event>
<event>
 7    1  0.1134395E-011  0.5930196E+02  0.7816164E-02  0.1266605E+00
        -11   -1    0    0    0    0  0.00000000000E+00  0.00000000000E+00  0.45593999997E+02  0.45594000000E+02  0.51100000000E-03 0.  1.
         11   -1    0    0    0    0 -0.00000000000E+00 -0.00000000000E+00 -0.45593999997E+02  0.45594000000E+02  0.51100000000E-03 0. -1.
    9900012    2    1    2    0    0 -0.21596642191E+02 -0.23416292942E+02  0.14078411378E+01  0.59301956882E+02  0.50000023443E+02 0.  0.
         12    1    1    2    0    0  0.21596642191E+02  0.23416292942E+02 -0.14078411378E+01  0.31886043118E+02  0.00000000000E+00 0. -1.
         11    1    3    3    0    0 -0.56951845151E+01  0.66977673001E+01  0.33752112773E+01  0.94173916184E+01  0.51100000000E-03 0. -1.
        -11    1    3    3    0    0  0.42338902897E+01 -0.20481670409E+02  0.11447686745E+02  0.23842696613E+02  0.51100000000E-03 0.  1.
         12    1    3    3    0    0 -0.20135347965E+02 -0.96323898333E+01 -0.13415056884E+02  0.26041868650E+02  0.00000000000E+00 0. -1.
</event>
<event>
 7    1  0.1134395E-011  0.5930196E+02  0.7816164E-02  0.1266605E+00
        -11   -1    0    0    0    0  0.00000000000E+00  0.00000000000E+00  0.45593999997E+02  0.45594000000E+02  0.51100000000E-03 0.  1.
         11   -1    0    0    0    0 -0.00000000000E+00 -0.00000000000E+00 -0.45593999997E+02  0.45594000000E+02  0.51100000000E-03 0. -1.
    9900012    2    1    2    0    0  0.23583365138E+02  0.15327622804E+02  0.15020258218E+02  0.59301964044E+02  0.50000036505E+02 0.  0.
         12    1    1    2    0    0 -0.23583365138E+02 -0.15327622804E+02 -0.15020258218E+02  0.31886035956E+02  0.00000000000E+00 0. -1.
         11    1    3    3    0    0  0.80934455491E+01  0.54923258458E+00 -0.13187959696E+02  0.15483145627E+02  0.51100000000E-03 0. -1.
        -11    1    3    3    0    0  0.55284934247E+01  0.16718842358E+02  0.47183820645E+01  0.18230388337E+02  0.51100000000E-03 0.  1.
        -12    1    3    3    0    0  0.99614261644E+01 -0.19404521389E+01  0.23489835850E+02  0.25588430081E+02  0.00000000000E+00 0.  1.
</event>
<event>
 7    1  0.1134395E-011  0.5930195E+02  0.7816164E-02  0.1266605E+00
        -11   -1    0    0    0    0  0.00000000000E+00  0.00000000000E+00  0.45593999997E+02  0.45594000000E+02  0.51100000000E-03 0.  1.
         11   -1    0    0    0    0 -0.00000000000E+00 -0.00000000000E+00 -0.45593999997E+02  0.45594000000E+02  0.51100000000E-03 0. -1.
    9900012    2    1    2    0    0  0.24682449654E+02 -0.18013543554E+02 -0.91109366970E+01  0.59301949134E+02  0.50000009313E+02 0.  0.
         12    1    1    2    0    0 -0.24682449654E+02  0.18013543554E+02  0.91109366970E+01  0.31886050866E+02  0.00000000000E+00 0. -1.
         11    1    3    3    0    0 -0.44282881506E+01 -0.35642290922E+01 -0.10875917491E+02  0.12271880316E+02  0.51100000000E-03 0. -1.
        -11    1    3    3    0    0  0.30578531287E+02  0.79407717713E+00 -0.36081326585E+01  0.30800905113E+02  0.51100000000E-03 0.  1.
         12    1    3    3    0    0 -0.14677934826E+01 -0.15243391639E+02  0.53731134527E+01  0.16229163705E+02  0.00000000000E+00 0. -1.
</event>
<event>
 7    1  0.1134395E-011  0.5930193E+02  0.7816164E-02  0.1266605E+00
        -11   -1    0    0    0    0  0.00000000000E+00  0.00000000000E+00  0.45593999997E+02  0.45594000000E+02  0.51100000000E-03 0.  1.
         11   -1    0    0    0    0 -0.00000000000E+00 -0.00000000000E+00 -0.45593999997E+02  0.45594000000E+02  0.51100000000E-03 0. -1.
    9900012    2    1    2    0    0  0.18051588262E+02  0.25212926494E+02 -0.74276518387E+01  0.59301929170E+02  0.49999972903E+02 0.  0.
         12    1    1    2    0    0 -0.18051588262E+02 -0.25212926494E+02  0.74276518387E+01  0.31886070830E+02  0.00000000000E+00 0. -1.
         11    1    3    3    0    0 -0.85757231667E+01 -0.21120634156E+01 -0.55022111432E+01  0.10405679576E+02  0.51100000000E-03 0. -1.
        -11    1    3    3    0    0  0.39567957047E+00  0.21861885390E+02 -0.30556648685E+01  0.22077945628E+02  0.51100000000E-03 0.  1.
        -12    1    3    3    0    0  0.26231631858E+02  0.54631045194E+01  0.11302241730E+01  0.26818303966E+02  0.00000000000E+00 0.  1.
</event>
<event>
 7    1  0.1134395E-011  0.5930185E+02  0.7816164E-02  0.1266605E+00
        -11   -1    0    0    0    0  0.00000000000E+00  0.00000000000E+00  0.45593999997E+02  0.45594000000E+02  0.51100000000E-03 0. -1.
         11   -1    0    0    0    0 -0.00000000000E+00 -0.00000000000E+00 -0.45593999997E+02  0.45594000000E+02  0.51100000000E-03 0.  1.
    9900012    2    1    2    0    0  0.18411136609E+02 -0.25088957184E+02 -0.69498732188E+01  0.59301851572E+02  0.49999831382E+02 0.  0.
         12    1    1    2    0    0 -0.18411136609E+02  0.25088957184E+02  0.69498732188E+01  0.31886148428E+02  0.00000000000E+00 0. -1.
         11    1    3    3    0    0  0.20148555419E+01  0.18586813316E+01 -0.33073935102E+01  0.42957177793E+01  0.51100000000E-03 0. -1.
        -11    1    3    3    0    0 -0.63378861278E+01  0.97865142002E+01 -0.14660670197E+01  0.11751340925E+02  0.51100000000E-03 0.  1.
         12    1    3    3    0    0  0.22734167195E+02 -0.36734152716E+02 -0.21764126890E+01  0.43254792868E+02  0.00000000000E+00 0. -1.
</event>
<event>
 7    1  0.1134395E-011  0.5930195E+02  0.7816164E-02  0.1266605E+00
        -11   -1    0    0    0    0  0.00000000000E+00  0.00000000000E+00  0.45593999997E+02  0.45594000000E+02  0.51100000000E-03 0.  1.
         11   -1    0    0    0    0 -0.00000000000E+00 -0.00000000000E+00 -0.45593999997E+02  0.45594000000E+02  0.51100000000E-03 0. -1.
    9900012    2    1    2    0    0 -0.22690906038E+02  0.14259388134E+02  0.17277520370E+02  0.59301951689E+02  0.50000013971E+02 0.  0.
         12    1    1    2    0    0  0.22690906038E+02 -0.14259388134E+02 -0.17277520370E+02  0.31886048311E+02  0.00000000000E+00 0. -1.
         11    1    3    3    0    0 -0.16419074553E+02  0.21616172809E+01 -0.37076799416E+01  0.16970724477E+02  0.51100000000E-03 0. -1.
        -11    1    3    3    0    0 -0.17890771239E+02 -0.16963508111E+01  0.62014743449E+01  0.19010933325E+02  0.51100000000E-03 0.  1.
        -12    1    3    3    0    0  0.11618939754E+02  0.13794121664E+02  0.14783725967E+02  0.23320293886E+02  0.00000000000E+00 0.  1.
</event>
<event>
 7    1  0.1134395E-011  0.5930203E+02  0.7816164E-02  0.1266604E+00
        -11   -1    0    0    0    0  0.00000000000E+00  0.00000000000E+00  0.45593999997E+02  0.45594000000E+02  0.51100000000E-03 0.  1.
         11   -1    0    0    0    0 -0.00000000000E+00 -0.00000000000E+00 -0.45593999997E+02  0.45594000000E+02  0.51100000000E-03 0. -1.
    9900012    2    1    2    0    0 -0.20832963929E+02 -0.55031913381E+01  0.23503562288E+02  0.59302032221E+02  0.50000160843E+02 0.  0.
         12    1    1    2    0    0  0.20832963929E+02  0.55031913381E+01 -0.23503562288E+02  0.31885967779E+02  0.00000000000E+00 0. -1.
         11    1    3    3    0    0  0.96414377377E+01  0.54118121236E+00  0.18695647316E+02  0.21042277148E+02  0.51100000000E-03 0. -1.
        -11    1    3    3    0    0 -0.16152393726E+01 -0.87446727228E+01  0.89822032990E-01  0.88930516426E+01  0.51100000000E-03 0.  1.
        -12    1    3    3    0    0 -0.28859162294E+02  0.27003001723E+01  0.47180929394E+01  0.29366703430E+02  0.00000000000E+00 0.  1.
</event>
<event>
 7    1  0.1134395E-011  0.5930195E+02  0.7816164E-02  0.1266605E+00
        -11   -1    0    0    0    0  0.00000000000E+00  0.00000000000E+00  0.45593999997E+02  0.45594000000E+02  0.51100000000E-03 0.  1.
         11   -1    0    0    0    0 -0.00000000000E+00 -0.00000000000E+00 -0.45593999997E+02  0.45594000000E+02  0.51100000000E-03 0. -1.
    9900012    2    1    2    0    0 -0.22380992915E+02 -0.14685522927E+02  0.17324752525E+02  0.59301945406E+02  0.50000002514E+02 0.  0.
         12    1    1    2    0    0  0.22380992915E+02  0.14685522927E+02 -0.17324752525E+02  0.31886054594E+02  0.00000000000E+00 0. -1.
         11    1    3    3    0    0 -0.13251148678E+01  0.11701774515E+02 -0.55845000620E+01  0.13033575772E+02  0.51100000000E-03 0. -1.
        -11    1    3    3    0    0 -0.12087880236E+02  0.69396463954E-02  0.46870373606E+01  0.12964768268E+02  0.51100000000E-03 0.  1.
         12    1    3    3    0    0 -0.89679978108E+01 -0.26394237088E+02  0.18222215227E+02  0.33303601366E+02  0.00000000000E+00 0. -1.
</event>
<event>
 7    1  0.1134395E-011  0.5930197E+02  0.7816164E-02  0.1266605E+00
        -11   -1    0    0    0    0  0.00000000000E+00  0.00000000000E+00  0.45593999997E+02  0.45594000000E+02  0.51100000000E-03 0.  1.
         11   -1    0    0    0    0 -0.00000000000E+00 -0.00000000000E+00 -0.45593999997E+02  0.45594000000E+02  0.51100000000E-03 0. -1.
    9900012    2    1    2    0    0  0.75803870146E+01 -0.13177486933E+02  0.28028746421E+02  0.59301967712E+02  0.50000043194E+02 0.  0.
         12    1    1    2    0    0 -0.75803870146E+01  0.13177486933E+02 -0.28028746421E+02  0.31886032288E+02  0.00000000000E+00 0. -1.
         11    1    3    3    0    0  0.34162768547E+01  0.74612956798E+01 -0.53443449864E+00  0.82235941816E+01  0.51100000000E-03 0. -1.
        -11    1    3    3    0    0 -0.25054540341E+01  0.76455957057E+01 -0.26123209069E+01  0.84591166438E+01  0.51100000000E-03 0.  1.
        -12    1    3    3    0    0  0.66695641940E+01 -0.28284378319E+02  0.31175501826E+02  0.42619256886E+02  0.00000000000E+00 0.  1.
</event>
<event>
 7    1  0.1134395E-011  0.5930194E+02  0.7816164E-02  0.1266605E+00
        -11   -1    0    0    0    0  0.00000000000E+00  0.00000000000E+00  0.45593999997E+02  0.45594000000E+02  0.51100000000E-03 0.  1.
         11   -1    0    0    0    0 -0.00000000000E+00 -0.00000000000E+00 -0.45593999997E+02  0.45594000000E+02  0.51100000000E-03 0. -1.
    9900012    2    1    2    0    0  0.31067304256E+02 -0.81766993305E+00 -0.71326392781E+01  0.59301944726E+02  0.50000001274E+02 0.  0.
         12    1    1    2    0    0 -0.31067304256E+02  0.81766993305E+00  0.71326392781E+01  0.31886055274E+02  0.00000000000E+00 0. -1.
         11    1    3    3    0    0  0.39456729864E+01 -0.47311972953E+01  0.31800230279E+01  0.69329005388E+01  0.51100000000E-03 0. -1.
        -11    1    3    3    0    0  0.10547420174E+02 -0.15897349113E+02 -0.17145987779E+02  0.25650705221E+02  0.51100000000E-03 0.  1.
        -12    1    3    3    0    0  0.16574211095E+02  0.19810876475E+02  0.68333254727E+01  0.26718338967E+02  0.00000000000E+00 0.  1.
</event>
<event>
 7    1  0.1134395E-011  0.5930193E+02  0.7816164E-02  0.1266605E+00
        -11   -1    0    0    0    0  0.00000000000E+00  0.00000000000E+00  0.45593999997E+02  0.45594000000E+02  0.51100000000E-03 0.  1.
         11   -1    0    0    0    0 -0.00000000000E+00 -0.00000000000E+00 -0.45593999997E+02  0.45594000000E+02  0.51100000000E-03 0. -1.
    9900012    2    1    2    0    0 -0.71326756860E+01 -0.11612352472E+02  0.28827064185E+02  0.59301930598E+02  0.49999975508E+02 0.  0.
         12    1    1    2    0    0  0.71326756860E+01  0.11612352472E+02 -0.28827064185E+02  0.31886069402E+02  0.00000000000E+00 0. -1.
         11    1    3    3    0    0 -0.12108944066E+00 -0.82939024245E+01 -0.80885278114E+01  0.11585670567E+02  0.51100000000E-03 0. -1.
        -11    1    3    3    0    0 -0.86947033659E+01 -0.15569292150E+02  0.20658245969E+02  0.27290361879E+02  0.51100000000E-03 0.  1.
        -12    1    3    3    0    0  0.16831171205E+01  0.12250842103E+02  0.16257346027E+02  0.20425898152E+02  0.00000000000E+00 0.  1.
</event>
<event>
 7    1  0.1134395E-011  0.5930198E+02  0.7816164E-02  0.1266605E+00
        -11   -1    0    0    0    0  0.00000000000E+00  0.00000000000E+00  0.45593999997E+02  0.45594000000E+02  0.51100000000E-03 0.  1.
         11   -1    0    0    0    0 -0.00000000000E+00 -0.00000000000E+00 -0.45593999997E+02  0.45594000000E+02  0.51100000000E-03 0. -1.
    9900012    2    1    2    0    0  0.21591262061E+02  0.16393824574E+02  0.16786242706E+02  0.59301983852E+02  0.50000072630E+02 0.  0.
         12    1    1    2    0    0 -0.21591262061E+02 -0.16393824574E+02 -0.16786242706E+02  0.31886016148E+02  0.00000000000E+00 0. -1.
         11    1    3    3    0    0  0.17561340454E+02  0.11615747605E+02  0.22538569468E+02  0.30843368572E+02  0.51100000000E-03 0.  1.
        -11    1    3    3    0    0  0.97250143601E+01  0.13906861332E+02 -0.49109106860E+01  0.17666175037E+02  0.51100000000E-03 0. -1.
        -12    1    3    3    0    0 -0.56950927522E+01 -0.91287843628E+01 -0.84141607507E+00  0.10792440244E+02  0.00000000000E+00 0.  1.
</event>
<event>
 7    1  0.1134395E-011  0.5930193E+02  0.7816164E-02  0.1266605E+00
        -11   -1    0    0    0    0  0.00000000000E+00  0.00000000000E+00  0.45593999997E+02  0.45594000000E+02  0.51100000000E-03 0. -1.
         11   -1    0    0    0    0 -0.00000000000E+00 -0.00000000000E+00 -0.45593999997E+02  0.45594000000E+02  0.51100000000E-03 0.  1.
    9900012    2    1    2    0    0  0.23339730070E+02  0.20881495316E+02 -0.59951205304E+01  0.59301932250E+02  0.49999978520E+02 0.  0.
         12    1    1    2    0    0 -0.23339730070E+02 -0.20881495316E+02  0.59951205304E+01  0.31886067750E+02  0.00000000000E+00 0. -1.
         11    1    3    3    0    0  0.61064047822E+01 -0.46704712545E+01 -0.54330662159E+01  0.94138031566E+01  0.51100000000E-03 0. -1.
        -11    1    3    3    0    0  0.12171105204E+02  0.78750890569E+01 -0.18966601649E+02  0.23872260217E+02  0.51100000000E-03 0.  1.
         12    1    3    3    0    0  0.50622200847E+01  0.17676877513E+02  0.18404547334E+02  0.26015868876E+02  0.00000000000E+00 0. -1.
</event>
<event>
 7    1  0.1134395E-011  0.5930177E+02  0.7816164E-02  0.1266605E+00
        -11   -1    0    0    0    0  0.00000000000E+00  0.00000000000E+00  0.45593999997E+02  0.45594000000E+02  0.51100000000E-03 0. -1.
         11   -1    0    0    0    0 -0.00000000000E+00 -0.00000000000E+00 -0.45593999997E+02  0.45594000000E+02  0.51100000000E-03 0.  1.
    9900012    2    1    2    0    0 -0.25087214061E+02 -0.16652817837E+02 -0.10490336099E+02  0.59301767818E+02  0.49999678635E+02 0.  0.
         12    1    1    2    0    0  0.25087214061E+02  0.16652817837E+02  0.10490336099E+02  0.31886232182E+02  0.00000000000E+00 0. -1.
         11    1    3    3    0    0 -0.10321850497E+02  0.49001583263E+01  0.44062357310E+00  0.11434434778E+02  0.51100000000E-03 0. -1.
        -11    1    3    3    0    0 -0.25717747722E+02 -0.14359171053E+02  0.19153233015E+01  0.29517059556E+02  0.51100000000E-03 0.  1.
        -12    1    3    3    0    0  0.10952384158E+02 -0.71938051101E+01 -0.12846282974E+02  0.18350273484E+02  0.00000000000E+00 0.  1.
</event>
<event>
 7    1  0.1134395E-011  0.5930193E+02  0.7816164E-02  0.1266605E+00
        -11   -1    0    0    0    0  0.00000000000E+00  0.00000000000E+00  0.45593999997E+02  0.45594000000E+02  0.51100000000E-03 0.  1.
         11   -1    0    0    0    0 -0.00000000000E+00 -0.00000000000E+00 -0.45593999997E+02  0.45594000000E+02  0.51100000000E-03 0. -1.
    9900012    2    1    2    0    0 -0.21079700657E+02 -0.63637224157E+01  0.23062328872E+02  0.59301925362E+02  0.49999965959E+02 0.  0.
         12    1    1    2    0    0  0.21079700657E+02  0.63637224157E+01 -0.23062328872E+02  0.31886074638E+02  0.00000000000E+00 0. -1.
         11    1    3    3    0    0  0.40908584885E+01  0.14013373160E+02  0.94135705385E+01  0.17370234916E+02  0.51100000000E-03 0. -1.
        -11    1    3    3    0    0  0.34791542722E+01  0.96469877435E+00  0.28815078922E+01  0.46193339530E+01  0.51100000000E-03 0.  1.
        -12    1    3    3    0    0 -0.28649713418E+02 -0.21341794350E+02  0.10767250442E+02  0.37312356493E+02  0.00000000000E+00 0.  1.
</event>
<event>
 7    1  0.1134395E-011  0.5930194E+02  0.7816164E-02  0.1266605E+00
        -11   -1    0    0    0    0  0.00000000000E+00  0.00000000000E+00  0.45593999997E+02  0.45594000000E+02  0.51100000000E-03 0.  1.
         11   -1    0    0    0    0 -0.00000000000E+00 -0.00000000000E+00 -0.45593999997E+02  0.45594000000E+02  0.51100000000E-03 0. -1.
    9900012    2    1    2    0    0 -0.18153792853E+02  0.15707643084E+02  0.20986436657E+02  0.59301940824E+02  0.49999994158E+02 0.  0.
         12    1    1    2    0    0  0.18153792853E+02 -0.15707643084E+02 -0.20986436657E+02  0.31886059176E+02  0.00000000000E+00 0. -1.
         11    1    3    3    0    0 -0.58340148012E+01 -0.10964079862E+02  0.12162954606E+02  0.17383447326E+02  0.51100000000E-03 0. -1.
        -11    1    3    3    0    0 -0.14718382448E+02  0.47896294539E+01  0.12121487732E+02  0.19659648962E+02  0.51100000000E-03 0.  1.
         12    1    3    3    0    0  0.23986043958E+01  0.21882093492E+02 -0.32980056812E+01  0.22258844537E+02  0.00000000000E+00 0. -1.
</event>
<event>
 7    1  0.1134395E-011  0.5930199E+02  0.7816164E-02  0.1266605E+00
        -11   -1    0    0    0    0  0.00000000000E+00  0.00000000000E+00  0.45593999997E+02  0.45594000000E+02  0.51100000000E-03 0. -1.
         11   -1    0    0    0    0 -0.00000000000E+00 -0.00000000000E+00 -0.45593999997E+02  0.45594000000E+02  0.51100000000E-03 0.  1.
    9900012    2    1    2    0    0 -0.17414275405E+02 -0.42122295943E+01 -0.26376463267E+02  0.59301989266E+02  0.50000082503E+02 0.  0.
         12    1    1    2    0    0  0.17414275405E+02  0.42122295943E+01  0.26376463267E+02  0.31886010734E+02  0.00000000000E+00 0. -1.
         11    1    3    3    0    0  0.21528024576E+01 -0.80459542175E+01  0.11722196456E+02  0.14379910559E+02  0.51100000000E-03 0. -1.
        -11    1    3    3    0    0 -0.14291333728E+00  0.10592853103E+01  0.81321960463E+00  0.13430696099E+01  0.51100000000E-03 0.  1.
        -12    1    3    3    0    0 -0.19424164526E+02  0.27744393129E+01 -0.38911879328E+02  0.43579009096E+02  0.00000000000E+00 0.  1.
</event>
<event>
 7    1  0.1134395E-011  0.5930193E+02  0.7816164E-02  0.1266605E+00
        -11   -1    0    0    0    0  0.00000000000E+00  0.00000000000E+00  0.45593999997E+02  0.45594000000E+02  0.51100000000E-03 0.  1.
         11   -1    0    0    0    0 -0.00000000000E+00 -0.00000000000E+00 -0.45593999997E+02  0.45594000000E+02  0.51100000000E-03 0. -1.
    9900012    2    1    2    0    0  0.16024322180E+02  0.22458649045E+02  0.15985983934E+02  0.59301929365E+02  0.49999973258E+02 0.  0.
         12    1    1    2    0    0 -0.16024322180E+02 -0.22458649045E+02 -0.15985983934E+02  0.31886070635E+02  0.00000000000E+00 0. -1.
         11    1    3    3    0    0  0.20491338624E+02 -0.35948110813E+01  0.80399408708E-01  0.20804424761E+02  0.51100000000E-03 0. -1.
        -11    1    3    3    0    0  0.38146812718E+01  0.75385270961E+01  0.16135343590E+02  0.18213470208E+02  0.51100000000E-03 0.  1.
         12    1    3    3    0    0 -0.82816977156E+01  0.18514933030E+02 -0.22975906449E+00  0.20284034396E+02  0.00000000000E+00 0. -1.
</event>
<event>
 7    1  0.1134395E-011  0.5930194E+02  0.7816164E-02  0.1266605E+00
        -11   -1    0    0    0    0  0.00000000000E+00  0.00000000000E+00  0.45593999997E+02  0.45594000000E+02  0.51100000000E-03 0.  1.
         11   -1    0    0    0    0 -0.00000000000E+00 -0.00000000000E+00 -0.45593999997E+02  0.45594000000E+02  0.51100000000E-03 0. -1.
    9900012    2    1    2    0    0  0.19315882044E+01 -0.26006311972E+02  0.18348342931E+02  0.59301937470E+02  0.49999988040E+02 0.  0.
         12    1    1    2    0    0 -0.19315882044E+01  0.26006311972E+02 -0.18348342931E+02  0.31886062530E+02  0.00000000000E+00 0. -1.
         11    1    3    3    0    0 -0.95056486583E+01 -0.12931295108E+02 -0.75160105968E+01  0.17721912006E+02  0.51100000000E-03 0. -1.
        -11    1    3    3    0    0  0.20567825033E+01 -0.42288638467E+01 -0.57555267268E+01  0.74323436320E+01  0.51100000000E-03 0.  1.
        -12    1    3    3    0    0  0.93804543594E+01 -0.88461530172E+01  0.31619880254E+02  0.34147681832E+02  0.00000000000E+00 0.  1.
</event>
<event>
 7    1  0.1134395E-011  0.5930156E+02  0.7816164E-02  0.1266606E+00
        -11   -1    0    0    0    0  0.00000000000E+00  0.00000000000E+00  0.45593999997E+02  0.45594000000E+02  0.51100000000E-03 0.  1.
         11   -1    0    0    0    0 -0.00000000000E+00 -0.00000000000E+00 -0.45593999997E+02  0.45594000000E+02  0.51100000000E-03 0. -1.
    9900012    2    1    2    0    0 -0.26844108734E+02  0.83290826348E+01  0.15058724032E+02  0.59301561492E+02  0.49999302342E+02 0.  0.
         12    1    1    2    0    0  0.26844108734E+02 -0.83290826348E+01 -0.15058724032E+02  0.31886438508E+02  0.00000000000E+00 0. -1.
         11    1    3    3    0    0  0.28280113458E+01 -0.10672059847E+02  0.13317760744E+02  0.17298938148E+02  0.51100000000E-03 0. -1.
        -11    1    3    3    0    0  0.10965613745E+01  0.92396466585E+01  0.27642037463E+01  0.97064071538E+01  0.51100000000E-03 0.  1.
         12    1    3    3    0    0 -0.30768681454E+02  0.97614958236E+01 -0.10232404588E+01  0.32296216190E+02  0.00000000000E+00 0. -1.
</event>
<event>
 7    1  0.1134395E-011  0.5930199E+02  0.7816164E-02  0.1266605E+00
        -11   -1    0    0    0    0  0.00000000000E+00  0.00000000000E+00  0.45593999997E+02  0.45594000000E+02  0.51100000000E-03 0.  1.
         11   -1    0    0    0    0 -0.00000000000E+00 -0.00000000000E+00 -0.45593999997E+02  0.45594000000E+02  0.51100000000E-03 0. -1.
    9900012    2    1    2    0    0  0.28260871903E+02  0.36311925535E+00  0.14761737176E+02  0.59301990203E+02  0.50000084212E+02 0.  0.
         12    1    1    2    0    0 -0.28260871903E+02 -0.36311925535E+00 -0.14761737176E+02  0.31886009797E+02  0.00000000000E+00 0. -1.
         11    1    3    3    0    0 -0.57033235790E+01 -0.77699800159E+01 -0.75015379678E-01  0.96387819180E+01  0.51100000000E-03 0. -1.
        -11    1    3    3    0    0  0.31579532646E+01 -0.10787660638E+02  0.33210210374E+01  0.11720728298E+02  0.51100000000E-03 0.  1.
        -12    1    3    3    0    0  0.30806242218E+02  0.18920759909E+02  0.11515731518E+02  0.37942479986E+02  0.00000000000E+00 0.  1.
</event>
<event>
 7    1  0.1134395E-011  0.5930196E+02  0.7816164E-02  0.1266605E+00
        -11   -1    0    0    0    0  0.00000000000E+00  0.00000000000E+00  0.45593999997E+02  0.45594000000E+02  0.51100000000E-03 0.  1.
         11   -1    0    0    0    0 -0.00000000000E+00 -0.00000000000E+00 -0.45593999997E+02  0.45594000000E+02  0.51100000000E-03 0. -1.
    9900012    2    1    2    0    0 -0.19761003368E+02 -0.19038351638E+02  0.16240803856E+02  0.59301956076E+02  0.50000021974E+02 0.  0.
         12    1    1    2    0    0  0.19761003368E+02  0.19038351638E+02 -0.16240803856E+02  0.31886043924E+02  0.00000000000E+00 0. -1.
         11    1    3    3    0    0 -0.64394164004E+00 -0.36621402344E+01  0.18703473454E+02  0.19069500556E+02  0.51100000000E-03 0. -1.
        -11    1    3    3    0    0 -0.32012214335E+01 -0.10197070019E+02  0.13421935280E+02  0.17157400811E+02  0.51100000000E-03 0.  1.
         12    1    3    3    0    0 -0.15915840294E+02 -0.51791413849E+01 -0.15884604878E+02  0.23075054710E+02  0.00000000000E+00 0. -1.
</event>
<event>
 7    1  0.1134395E-011  0.5930195E+02  0.7816164E-02  0.1266605E+00
        -11   -1    0    0    0    0  0.00000000000E+00  0.00000000000E+00  0.45593999997E+02  0.45594000000E+02  0.51100000000E-03 0.  1.
         11   -1    0    0    0    0 -0.00000000000E+00 -0.00000000000E+00 -0.45593999997E+02  0.45594000000E+02  0.51100000000E-03 0. -1.
    9900012    2    1    2    0    0  0.26867261433E+02 -0.10590651762E+02 -0.13516973518E+02  0.59301949527E+02  0.50000010030E+02 0.  0.
         12    1    1    2    0    0 -0.26867261433E+02  0.10590651762E+02  0.13516973518E+02  0.31886050473E+02  0.00000000000E+00 0. -1.
         11    1    3    3    0    0 -0.19387133268E+00  0.37663528162E+01 -0.14628951312E+01  0.40451281878E+01  0.51100000000E-03 0. -1.
        -11    1    3    3    0    0  0.58141323803E+01  0.15817223290E+02 -0.17588737162E+01  0.16943503916E+02  0.51100000000E-03 0.  1.
         12    1    3    3    0    0  0.21247000385E+02 -0.30174227868E+02 -0.10295204671E+02  0.38313317424E+02  0.00000000000E+00 0. -1.
</event>
<event>
 7    1  0.1134395E-011  0.5930195E+02  0.7816164E-02  0.1266605E+00
        -11   -1    0    0    0    0  0.00000000000E+00  0.00000000000E+00  0.45593999997E+02  0.45594000000E+02  0.51100000000E-03 0. -1.
         11   -1    0    0    0    0 -0.00000000000E+00 -0.00000000000E+00 -0.45593999997E+02  0.45594000000E+02  0.51100000000E-03 0.  1.
    9900012    2    1    2    0    0 -0.18592729809E+02 -0.25891997762E+02  0.79697381404E+00  0.59301947922E+02  0.50000007102E+02 0.  0.
         12    1    1    2    0    0  0.18592729809E+02  0.25891997762E+02 -0.79697381404E+00  0.31886052078E+02  0.00000000000E+00 0. -1.
         11    1    3    3    0    0 -0.12225270550E+02  0.78044196278E+01  0.15970800589E+01  0.14591671279E+02  0.51100000000E-03 0.  1.
        -11    1    3    3    0    0  0.92358804723E+01 -0.32330368615E+01 -0.34625948782E+01  0.10379960453E+02  0.51100000000E-03 0. -1.
        -12    1    3    3    0    0 -0.15603339731E+02 -0.30463380529E+02  0.26624886334E+01  0.34330316190E+02  0.00000000000E+00 0.  1.
</event>
<event>
 7    1  0.1134395E-011  0.5930192E+02  0.7816164E-02  0.1266605E+00
        -11   -1    0    0    0    0  0.00000000000E+00  0.00000000000E+00  0.45593999997E+02  0.45594000000E+02  0.51100000000E-03 0.  1.
         11   -1    0    0    0    0 -0.00000000000E+00 -0.00000000000E+00 -0.45593999997E+02  0.45594000000E+02  0.51100000000E-03 0. -1.
    9900012    2    1    2    0    0  0.28999780722E+02 -0.71780105768E+00  0.13237050785E+02  0.59301921003E+02  0.49999958009E+02 0.  0.
         12    1    1    2    0    0 -0.28999780722E+02  0.71780105768E+00 -0.13237050785E+02  0.31886078997E+02  0.00000000000E+00 0. -1.
         11    1    3    3    0    0  0.10661467879E+02 -0.12617891645E+02 -0.50242101592E+01  0.17266174298E+02  0.51100000000E-03 0. -1.
        -11    1    3    3    0    0  0.18342309810E+02 -0.17598363233E+00 -0.19966955352E+01  0.18451506517E+02  0.51100000000E-03 0.  1.
        -12    1    3    3    0    0 -0.39969672365E-02  0.12076074220E+02  0.20257956480E+02  0.23584240188E+02  0.00000000000E+00 0.  1.
</event>
<event>
 7    1  0.1134395E-011  0.5930198E+02  0.7816164E-02  0.1266605E+00
        -11   -1    0    0    0    0  0.00000000000E+00  0.00000000000E+00  0.45593999997E+02  0.45594000000E+02  0.51100000000E-03 0.  1.
         11   -1    0    0    0    0 -0.00000000000E+00 -0.00000000000E+00 -0.45593999997E+02  0.45594000000E+02  0.51100000000E-03 0. -1.
    9900012    2    1    2    0    0  0.31081692680E+02 -0.50639128688E+01 -0.50003599200E+01  0.59301977471E+02  0.50000060992E+02 0.  0.
         12    1    1    2    0    0 -0.31081692680E+02  0.50639128688E+01  0.50003599200E+01  0.31886022529E+02  0.00000000000E+00 0. -1.
         11    1    3    3    0    0  0.29581911969E+00  0.95577723043E+01 -0.87036784171E+01  0.12930295380E+02  0.51100000000E-03 0. -1.
        -11    1    3    3    0    0 -0.60164644994E+01 -0.52034902555E+01  0.25952917330E+01  0.83671796534E+01  0.51100000000E-03 0.  1.
         12    1    3    3    0    0  0.36802338060E+02 -0.94181949176E+01  0.11080267642E+01  0.38004502437E+02  0.00000000000E+00 0. -1.
</event>
<event>
 7    1  0.1134395E-011  0.5930196E+02  0.7816164E-02  0.1266605E+00
        -11   -1    0    0    0    0  0.00000000000E+00  0.00000000000E+00  0.45593999997E+02  0.45594000000E+02  0.51100000000E-03 0. -1.
         11   -1    0    0    0    0 -0.00000000000E+00 -0.00000000000E+00 -0.45593999997E+02  0.45594000000E+02  0.51100000000E-03 0.  1.
    9900012    2    1    2    0    0  0.15100004716E+02 -0.26449329595E+02 -0.94415303103E+01  0.59301958021E+02  0.50000025521E+02 0.  0.
         12    1    1    2    0    0 -0.15100004716E+02  0.26449329595E+02  0.94415303103E+01  0.31886041979E+02  0.00000000000E+00 0. -1.
         11    1    3    3    0    0  0.53147433897E+01 -0.17949449491E+02 -0.14903035913E+02  0.23927593152E+02  0.51100000000E-03 0.  1.
        -11    1    3    3    0    0 -0.86188022773E+01  0.68280552618E+01  0.19472959967E+01  0.11166828257E+02  0.51100000000E-03 0. -1.
         12    1    3    3    0    0  0.18404063604E+02 -0.15327935366E+02  0.35142096064E+01  0.24207536613E+02  0.00000000000E+00 0. -1.
</event>
<event>
 7    1  0.1134395E-011  0.5930195E+02  0.7816164E-02  0.1266605E+00
        -11   -1    0    0    0    0  0.00000000000E+00  0.00000000000E+00  0.45593999997E+02  0.45594000000E+02  0.51100000000E-03 0. -1.
         11   -1    0    0    0    0 -0.00000000000E+00 -0.00000000000E+00 -0.45593999997E+02  0.45594000000E+02  0.51100000000E-03 0.  1.
    9900012    2    1    2    0    0  0.16593656953E+01 -0.19140372532E+02 -0.25448244181E+02  0.59301945257E+02  0.50000002241E+02 0.  0.
         12    1    1    2    0    0 -0.16593656953E+01  0.19140372532E+02  0.25448244181E+02  0.31886054743E+02  0.00000000000E+00 0. -1.
         11    1    3    3    0    0  0.75496114671E+00 -0.75583749055E+01  0.81006046104E+01  0.11104899498E+02  0.51100000000E-03 0. -1.
        -11    1    3    3    0    0  0.11918056516E+02 -0.78739010202E+01 -0.18110532915E+01  0.14398552104E+02  0.51100000000E-03 0.  1.
         12    1    3    3    0    0 -0.11013651968E+02 -0.37080966062E+01 -0.31737795500E+02  0.33798493655E+02  0.00000000000E+00 0. -1.
</event>
<event>
 7    1  0.1134395E-011  0.5930199E+02  0.7816164E-02  0.1266605E+00
        -11   -1    0    0    0    0  0.00000000000E+00  0.00000000000E+00  0.45593999997E+02  0.45594000000E+02  0.51100000000E-03 0.  1.
         11   -1    0    0    0    0 -0.00000000000E+00 -0.00000000000E+00 -0.45593999997E+02  0.45594000000E+02  0.51100000000E-03 0. -1.
    9900012    2    1    2    0    0 -0.77537622716E+01  0.11411288101E+02  0.28746817678E+02  0.59301986575E+02  0.50000077596E+02 0.  0.
         12    1    1    2    0    0  0.77537622716E+01 -0.11411288101E+02 -0.28746817678E+02  0.31886013425E+02  0.00000000000E+00 0. -1.
         11    1    3    3    0    0 -0.39588182600E+01  0.72409426996E+00 -0.10910061021E+02  0.11628670872E+02  0.51100000000E-03 0. -1.
        -11    1    3    3    0    0 -0.11886201411E+02  0.41475938193E+01  0.94970018682E+01  0.15769507387E+02  0.51100000000E-03 0.  1.
        -12    1    3    3    0    0  0.80912573991E+01  0.65396000121E+01  0.30159876831E+02  0.31903808316E+02  0.00000000000E+00 0.  1.
</event>
<event>
 7    1  0.1134395E-011  0.5930193E+02  0.7816164E-02  0.1266605E+00
        -11   -1    0    0    0    0  0.00000000000E+00  0.00000000000E+00  0.45593999997E+02  0.45594000000E+02  0.51100000000E-03 0. -1.
         11   -1    0    0    0    0 -0.00000000000E+00 -0.00000000000E+00 -0.45593999997E+02  0.45594000000E+02  0.51100000000E-03 0.  1.
    9900012    2    1    2    0    0 -0.13997452197E+02  0.90375704218E+01 -0.27186675667E+02  0.59301926536E+02  0.49999968099E+02 0.  0.
         12    1    1    2    0    0  0.13997452197E+02 -0.90375704218E+01  0.27186675667E+02  0.31886073464E+02  0.00000000000E+00 0. -1.
         11    1    3    3    0    0 -0.14134766074E+02  0.52867014656E+00 -0.65368958428E+01  0.15582108702E+02  0.51100000000E-03 0. -1.
        -11    1    3    3    0    0 -0.84732397654E+01 -0.12188622268E+02 -0.13829103837E+02  0.20287987039E+02  0.51100000000E-03 0.  1.
        -12    1    3    3    0    0  0.86105536424E+01  0.20697522543E+02 -0.68206759880E+01  0.23431830794E+02  0.00000000000E+00 0.  1.
</event>
<event>
 7    1  0.1134395E-011  0.5930200E+02  0.7816164E-02  0.1266605E+00
        -11   -1    0    0    0    0  0.00000000000E+00  0.00000000000E+00  0.45593999997E+02  0.45594000000E+02  0.51100000000E-03 0. -1.
         11   -1    0    0    0    0 -0.00000000000E+00 -0.00000000000E+00 -0.45593999997E+02  0.45594000000E+02  0.51100000000E-03 0.  1.
    9900012    2    1    2    0    0  0.23602413564E+02  0.12723032647E+02 -0.17255941964E+02  0.59301999642E+02  0.50000101427E+02 0.  0.
         12    1    1    2    0    0 -0.23602413564E+02 -0.12723032647E+02  0.17255941964E+02  0.31886000358E+02  0.00000000000E+00 0. -1.
         11    1    3    3    0    0  0.23915545262E+01  0.33579977140E+01  0.67012906158E+01  0.78678445509E+01  0.51100000000E-03 0. -1.
        -11    1    3    3    0    0  0.23519188580E+02  0.22220288784E+02 -0.18568868679E+02  0.37305446645E+02  0.51100000000E-03 0.  1.
         12    1    3    3    0    0 -0.23083295423E+01 -0.12855253851E+02 -0.53883639004E+01  0.14128708446E+02  0.00000000000E+00 0. -1.
</event>
<event>
 7    1  0.1134395E-011  0.5930196E+02  0.7816164E-02  0.1266605E+00
        -11   -1    0    0    0    0  0.00000000000E+00  0.00000000000E+00  0.45593999997E+02  0.45594000000E+02  0.51100000000E-03 0.  1.
         11   -1    0    0    0    0 -0.00000000000E+00 -0.00000000000E+00 -0.45593999997E+02  0.45594000000E+02  0.51100000000E-03 0. -1.
    9900012    2    1    2    0    0  0.29825380342E+02  0.10863733440E+02  0.30241300733E+01  0.59301962624E+02  0.50000033916E+02 0.  0.
         12    1    1    2    0    0 -0.29825380342E+02 -0.10863733440E+02 -0.30241300733E+01  0.31886037376E+02  0.00000000000E+00 0. -1.
         11    1    3    3    0    0  0.52702570493E+01 -0.49230616203E+01  0.14524993141E+02  0.16216891536E+02  0.51100000000E-03 0. -1.
        -11    1    3    3    0    0 -0.56663890747E+01  0.52863043986E+01 -0.76003808240E+01  0.10854435419E+02  0.51100000000E-03 0.  1.
         12    1    3    3    0    0  0.30221512368E+02  0.10500490661E+02 -0.39004822433E+01  0.32230635669E+02  0.00000000000E+00 0. -1.
</event>
<event>
 7    1  0.1134395E-011  0.5930196E+02  0.7816164E-02  0.1266605E+00
        -11   -1    0    0    0    0  0.00000000000E+00  0.00000000000E+00  0.45593999997E+02  0.45594000000E+02  0.51100000000E-03 0. -1.
         11   -1    0    0    0    0 -0.00000000000E+00 -0.00000000000E+00 -0.45593999997E+02  0.45594000000E+02  0.51100000000E-03 0.  1.
    9900012    2    1    2    0    0  0.19126624292E+02  0.22772617955E+02 -0.11502171464E+02  0.59301955503E+02  0.50000020928E+02 0.  0.
         12    1    1    2    0    0 -0.19126624292E+02 -0.22772617955E+02  0.11502171464E+02  0.31886044497E+02  0.00000000000E+00 0. -1.
         11    1    3    3    0    0  0.18334583430E+02  0.11393279963E+01 -0.12091645559E+02  0.21992337538E+02  0.51100000000E-03 0. -1.
        -11    1    3    3    0    0  0.56647947481E+01 -0.54045620998E+01 -0.49777700815E+01  0.92777899456E+01  0.51100000000E-03 0.  1.
         12    1    3    3    0    0 -0.48727538860E+01  0.27037852058E+02  0.55672441769E+01  0.28031828019E+02  0.00000000000E+00 0. -1.
</event>
<event>
 7    1  0.1134395E-011  0.5930194E+02  0.7816164E-02  0.1266605E+00
        -11   -1    0    0    0    0  0.00000000000E+00  0.00000000000E+00  0.45593999997E+02  0.45594000000E+02  0.51100000000E-03 0.  1.
         11   -1    0    0    0    0 -0.00000000000E+00 -0.00000000000E+00 -0.45593999997E+02  0.45594000000E+02  0.51100000000E-03 0. -1.
    9900012    2    1    2    0    0  0.25902059590E+02  0.18263091088E+02  0.35019868242E+01  0.59301935664E+02  0.49999984747E+02 0.  0.
         12    1    1    2    0    0 -0.25902059590E+02 -0.18263091088E+02 -0.35019868242E+01  0.31886064336E+02  0.00000000000E+00 0. -1.
         11    1    3    3    0    0 -0.28406206835E+01  0.66713085008E+01 -0.71767488583E+01  0.10202019771E+02  0.51100000000E-03 0. -1.
        -11    1    3    3    0    0  0.37273650702E+01  0.20543824601E+02  0.12829127342E+01  0.20918600454E+02  0.51100000000E-03 0.  1.
        -12    1    3    3    0    0  0.25015315204E+02 -0.89520420140E+01  0.93958229482E+01  0.28181315438E+02  0.00000000000E+00 0.  1.
</event>
<event>
 7    1  0.1134395E-011  0.5930183E+02  0.7816164E-02  0.1266605E+00
        -11   -1    0    0    0    0  0.00000000000E+00  0.00000000000E+00  0.45593999997E+02  0.45594000000E+02  0.51100000000E-03 0. -1.
         11   -1    0    0    0    0 -0.00000000000E+00 -0.00000000000E+00 -0.45593999997E+02  0.45594000000E+02  0.51100000000E-03 0.  1.
    9900012    2    1    2    0    0 -0.10349895278E+01 -0.20128473642E+02 -0.24708318951E+02  0.59301832468E+02  0.49999796542E+02 0.  0.
         12    1    1    2    0    0  0.10349895278E+01  0.20128473642E+02  0.24708318951E+02  0.31886167532E+02  0.00000000000E+00 0. -1.
         11    1    3    3    0    0  0.85157972274E+01 -0.11710674934E+02 -0.42045430800E+01  0.15077695202E+02  0.51100000000E-03 0. -1.
        -11    1    3    3    0    0  0.12004521356E+02 -0.21553941048E+01 -0.17853287918E+02  0.21621612948E+02  0.51100000000E-03 0.  1.
        -12    1    3    3    0    0 -0.21555308111E+02 -0.62624046032E+01 -0.26504879531E+01  0.22602524318E+02  0.00000000000E+00 0.  1.
</event>
<event>
 7    1  0.1134395E-011  0.5930194E+02  0.7816164E-02  0.1266605E+00
        -11   -1    0    0    0    0  0.00000000000E+00  0.00000000000E+00  0.45593999997E+02  0.45594000000E+02  0.51100000000E-03 0.  1.
         11   -1    0    0    0    0 -0.00000000000E+00 -0.00000000000E+00 -0.45593999997E+02  0.45594000000E+02  0.51100000000E-03 0. -1.
    9900012    2    1    2    0    0 -0.22524062625E+01 -0.23372507692E+02  0.21572516614E+02  0.59301938423E+02  0.49999989779E+02 0.  0.
         12    1    1    2    0    0  0.22524062625E+01  0.23372507692E+02 -0.21572516614E+02  0.31886061577E+02  0.00000000000E+00 0. -1.
         11    1    3    3    0    0 -0.19941663879E+01 -0.23293659218E+02  0.58210186180E+01  0.24092644466E+02  0.51100000000E-03 0. -1.
        -11    1    3    3    0    0  0.76265208982E+01 -0.10397865860E+02 -0.21709246174E+01  0.13076404300E+02  0.51100000000E-03 0.  1.
        -12    1    3    3    0    0 -0.78847607728E+01  0.10319017386E+02  0.17922422614E+02  0.22132889658E+02  0.00000000000E+00 0.  1.
</event>
<event>
 7    1  0.1134395E-011  0.5930196E+02  0.7816164E-02  0.1266605E+00
        -11   -1    0    0    0    0  0.00000000000E+00  0.00000000000E+00  0.45593999997E+02  0.45594000000E+02  0.51100000000E-03 0. -1.
         11   -1    0    0    0    0 -0.00000000000E+00 -0.00000000000E+00 -0.45593999997E+02  0.45594000000E+02  0.51100000000E-03 0.  1.
    9900012    2    1    2    0    0 -0.14379469795E+02  0.23140668422E+02 -0.16566828083E+02  0.59301961060E+02  0.50000031062E+02 0.  0.
         12    1    1    2    0    0  0.14379469795E+02 -0.23140668422E+02  0.16566828083E+02  0.31886038940E+02  0.00000000000E+00 0. -1.
         11    1    3    3    0    0 -0.54556705086E+01  0.88503111835E+01  0.83513731084E+01  0.13335583294E+02  0.51100000000E-03 0. -1.
        -11    1    3    3    0    0  0.52235453255E+01  0.21842027703E+02 -0.12653557290E+02  0.25777356581E+02  0.51100000000E-03 0.  1.
         12    1    3    3    0    0 -0.14147344612E+02 -0.75516704645E+01 -0.12264643901E+02  0.20189021185E+02  0.00000000000E+00 0. -1.
</event>
<event>
 7    1  0.1134395E-011  0.5930198E+02  0.7816164E-02  0.1266605E+00
        -11   -1    0    0    0    0  0.00000000000E+00  0.00000000000E+00  0.45593999997E+02  0.45594000000E+02  0.51100000000E-03 0. -1.
         11   -1    0    0    0    0 -0.00000000000E+00 -0.00000000000E+00 -0.45593999997E+02  0.45594000000E+02  0.51100000000E-03 0.  1.
    9900012    2    1    2    0    0 -0.30105139761E+01  0.27304753552E+02  0.16189664263E+02  0.59301984415E+02  0.50000073656E+02 0.  0.
         12    1    1    2    0    0  0.30105139761E+01 -0.27304753552E+02 -0.16189664263E+02  0.31886015585E+02  0.00000000000E+00 0. -1.
         11    1    3    3    0    0 -0.12037318458E+02  0.10436562965E+02  0.19763175480E+02  0.25385074108E+02  0.51100000000E-03 0. -1.
        -11    1    3    3    0    0 -0.68953071750E+01  0.19840134835E+00 -0.78728469540E+01  0.10467394306E+02  0.51100000000E-03 0.  1.
        -12    1    3    3    0    0  0.15922111657E+02  0.16669789239E+02  0.42993357375E+01  0.23449516001E+02  0.00000000000E+00 0.  1.
</event>
<event>
 7    1  0.1134395E-011  0.5930196E+02  0.7816164E-02  0.1266605E+00
        -11   -1    0    0    0    0  0.00000000000E+00  0.00000000000E+00  0.45593999997E+02  0.45594000000E+02  0.51100000000E-03 0.  1.
         11   -1    0    0    0    0 -0.00000000000E+00 -0.00000000000E+00 -0.45593999997E+02  0.45594000000E+02  0.51100000000E-03 0. -1.
    9900012    2    1    2    0    0 -0.27807736196E+02  0.15476228705E+02  0.19839105593E+01  0.59301956840E+02  0.50000023367E+02 0.  0.
         12    1    1    2    0    0  0.27807736196E+02 -0.15476228705E+02 -0.19839105593E+01  0.31886043160E+02  0.00000000000E+00 0. -1.
         11    1    3    3    0    0  0.17725562220E+01  0.10975448374E+02  0.19704600638E+01  0.11290931569E+02  0.51100000000E-03 0. -1.
        -11    1    3    3    0    0  0.39468714552E+01  0.12863221595E+02 -0.17124542094E+00  0.13456210066E+02  0.51100000000E-03 0.  1.
        -12    1    3    3    0    0 -0.33527163873E+02 -0.83624412644E+01  0.18469591646E+00  0.34554815205E+02  0.00000000000E+00 0.  1.
</event>
<event>
 7    1  0.1134395E-011  0.5930196E+02  0.7816164E-02  0.1266605E+00
        -11   -1    0    0    0    0  0.00000000000E+00  0.00000000000E+00  0.45593999997E+02  0.45594000000E+02  0.51100000000E-03 0.  1.
         11   -1    0    0    0    0 -0.00000000000E+00 -0.00000000000E+00 -0.45593999997E+02  0.45594000000E+02  0.51100000000E-03 0. -1.
    9900012    2    1    2    0    0 -0.30473179696E+02 -0.41420349198E-01 -0.93863357218E+01  0.59301957682E+02  0.50000024902E+02 0.  0.
         12    1    1    2    0    0  0.30473179696E+02  0.41420349198E-01  0.93863357218E+01  0.31886042318E+02  0.00000000000E+00 0. -1.
         11    1    3    3    0    0  0.48880411809E+01  0.68918927450E-01  0.18501120540E+00  0.48920267591E+01  0.51100000000E-03 0. -1.
        -11    1    3    3    0    0  0.57905162258E+01 -0.94546392324E+01  0.22189523302E+00  0.11089162229E+02  0.51100000000E-03 0.  1.
         12    1    3    3    0    0 -0.41151737103E+02  0.93442999558E+01 -0.97932421602E+01  0.43320768694E+02  0.00000000000E+00 0. -1.
</event>
<event>
 7    1  0.1134395E-011  0.5930196E+02  0.7816164E-02  0.1266605E+00
        -11   -1    0    0    0    0  0.00000000000E+00  0.00000000000E+00  0.45593999997E+02  0.45594000000E+02  0.51100000000E-03 0. -1.
         11   -1    0    0    0    0 -0.00000000000E+00 -0.00000000000E+00 -0.45593999997E+02  0.45594000000E+02  0.51100000000E-03 0.  1.
    9900012    2    1    2    0    0 -0.22603042084E+02  0.68810739896E+01 -0.21411981888E+02  0.59301958241E+02  0.50000025921E+02 0.  0.
         12    1    1    2    0    0  0.22603042084E+02 -0.68810739896E+01  0.21411981888E+02  0.31886041759E+02  0.00000000000E+00 0. -1.
         11    1    3    3    0    0  0.46962715377E+01 -0.10044424056E+01  0.55776906240E+01  0.73603331351E+01  0.51100000000E-03 0. -1.
        -11    1    3    3    0    0  0.35601179879E+00 -0.10820359557E+02 -0.85877600745E+01  0.13818702859E+02  0.51100000000E-03 0.  1.
        -12    1    3    3    0    0 -0.27655325421E+02  0.18705875952E+02 -0.18401912437E+02  0.38122922247E+02  0.00000000000E+00 0.  1.
</event>
<event>
 7    1  0.1134395E-011  0.5930196E+02  0.7816164E-02  0.1266605E+00
        -11   -1    0    0    0    0  0.00000000000E+00  0.00000000000E+00  0.45593999997E+02  0.45594000000E+02  0.51100000000E-03 0. -1.
         11   -1    0    0    0    0 -0.00000000000E+00 -0.00000000000E+00 -0.45593999997E+02  0.45594000000E+02  0.51100000000E-03 0.  1.
    9900012    2    1    2    0    0 -0.19515986860E+02 -0.83967739381E+01 -0.23776881929E+02  0.59301958070E+02  0.50000025610E+02 0.  0.
         12    1    1    2    0    0  0.19515986860E+02  0.83967739381E+01  0.23776881929E+02  0.31886041930E+02  0.00000000000E+00 0. -1.
         11    1    3    3    0    0 -0.22660451668E+02 -0.10351812970E+02 -0.11395101811E+02  0.27395336229E+02  0.51100000000E-03 0. -1.
        -11    1    3    3    0    0 -0.90638106571E+01  0.44645020102E+01 -0.16004810151E+02  0.18927186533E+02  0.51100000000E-03 0.  1.
         12    1    3    3    0    0  0.12208275465E+02 -0.25094629780E+01  0.36230300335E+01  0.12979435307E+02  0.00000000000E+00 0. -1.
</event>
<event>
 7    1  0.1134395E-011  0.5930196E+02  0.7816164E-02  0.1266605E+00
        -11   -1    0    0    0    0  0.00000000000E+00  0.00000000000E+00  0.45593999997E+02  0.45594000000E+02  0.51100000000E-03 0.  1.
         11   -1    0    0    0    0 -0.00000000000E+00 -0.00000000000E+00 -0.45593999997E+02  0.45594000000E+02  0.51100000000E-03 0. -1.
    9900012    2    1    2    0    0 -0.12649467856E+02 -0.28102536989E+02  0.81827971156E+01  0.59301956174E+02  0.50000022151E+02 0.  0.
         12    1    1    2    0    0  0.12649467856E+02  0.28102536989E+02 -0.81827971156E+01  0.31886043826E+02  0.00000000000E+00 0. -1.
         11    1    3    3    0    0 -0.10743745077E+02  0.37039746069E+01 -0.10148707080E+02  0.15236264038E+02  0.51100000000E-03 0. -1.
        -11    1    3    3    0    0 -0.51417470037E+01 -0.17400315388E+01  0.11998908312E+02  0.13169626910E+02  0.51100000000E-03 0.  1.
         12    1    3    3    0    0  0.32360242256E+01 -0.30066480057E+02  0.63325958833E+01  0.30896065226E+02  0.00000000000E+00 0. -1.
</event>
<event>
 7    1  0.1134395E-011  0.5930195E+02  0.7816164E-02  0.1266605E+00
        -11   -1    0    0    0    0  0.00000000000E+00  0.00000000000E+00  0.45593999997E+02  0.45594000000E+02  0.51100000000E-03 0.  1.
         11   -1    0    0    0    0 -0.00000000000E+00 -0.00000000000E+00 -0.45593999997E+02  0.45594000000E+02  0.51100000000E-03 0. -1.
    9900012    2    1    2    0    0 -0.12299041192E+02  0.14920693014E+02  0.25354024568E+02  0.59301952016E+02  0.50000014568E+02 0.  0.
         12    1    1    2    0    0  0.12299041192E+02 -0.14920693014E+02 -0.25354024568E+02  0.31886047984E+02  0.00000000000E+00 0. -1.
         11    1    3    3    0    0 -0.56247413254E+01  0.84036839070E+01  0.20430415718E+02  0.22796085296E+02  0.51100000000E-03 0. -1.
        -11    1    3    3    0    0 -0.14228117596E+02 -0.65781140997E+01  0.12070480397E+02  0.19784019125E+02  0.51100000000E-03 0.  1.
         12    1    3    3    0    0  0.75538177296E+01  0.13095123206E+02 -0.71468715468E+01  0.16721847595E+02  0.00000000000E+00 0. -1.
</event>
<event>
 7    1  0.1134395E-011  0.5930197E+02  0.7816164E-02  0.1266605E+00
        -11   -1    0    0    0    0  0.00000000000E+00  0.00000000000E+00  0.45593999997E+02  0.45594000000E+02  0.51100000000E-03 0.  1.
         11   -1    0    0    0    0 -0.00000000000E+00 -0.00000000000E+00 -0.45593999997E+02  0.45594000000E+02  0.51100000000E-03 0. -1.
    9900012    2    1    2    0    0 -0.15533077673E+02  0.25328068393E+02  0.11572868403E+02  0.59301971185E+02  0.50000049529E+02 0.  0.
         12    1    1    2    0    0  0.15533077673E+02 -0.25328068393E+02 -0.11572868403E+02  0.31886028815E+02  0.00000000000E+00 0. -1.
         11    1    3    3    0    0 -0.56330441721E+00  0.34616864347E+01 -0.39978168023E+01  0.53181880640E+01  0.51100000000E-03 0. -1.
        -11    1    3    3    0    0 -0.83212866327E+01 -0.13036484663E+02  0.74370797733E+00  0.15483760700E+02  0.51100000000E-03 0.  1.
         12    1    3    3    0    0 -0.66484866229E+01  0.34902866621E+02  0.14826977228E+02  0.38500022422E+02  0.00000000000E+00 0. -1.
</event>
<event>
 7    1  0.1134395E-011  0.5930192E+02  0.7816164E-02  0.1266605E+00
        -11   -1    0    0    0    0  0.00000000000E+00  0.00000000000E+00  0.45593999997E+02  0.45594000000E+02  0.51100000000E-03 0. -1.
         11   -1    0    0    0    0 -0.00000000000E+00 -0.00000000000E+00 -0.45593999997E+02  0.45594000000E+02  0.51100000000E-03 0.  1.
    9900012    2    1    2    0    0 -0.14345172979E+02 -0.25394743134E+02 -0.12885846737E+02  0.59301921333E+02  0.49999958610E+02 0.  0.
         12    1    1    2    0    0  0.14345172979E+02  0.25394743134E+02  0.12885846737E+02  0.31886078667E+02  0.00000000000E+00 0. -1.
         11    1    3    3    0    0 -0.20490183595E+02 -0.69579922218E+01 -0.15863672242E+02  0.26831276093E+02  0.51100000000E-03 0. -1.
        -11    1    3    3    0    0 -0.67246316129E+01  0.24695871387E+01  0.33715052842E+01  0.79174856556E+01  0.51100000000E-03 0.  1.
        -12    1    3    3    0    0  0.12869642229E+02 -0.20906338051E+02 -0.39367977939E+00  0.24553159584E+02  0.00000000000E+00 0.  1.
</event>
<event>
 7    1  0.1134395E-011  0.5930200E+02  0.7816164E-02  0.1266605E+00
        -11   -1    0    0    0    0  0.00000000000E+00  0.00000000000E+00  0.45593999997E+02  0.45594000000E+02  0.51100000000E-03 0. -1.
         11   -1    0    0    0    0 -0.00000000000E+00 -0.00000000000E+00 -0.45593999997E+02  0.45594000000E+02  0.51100000000E-03 0.  1.
    9900012    2    1    2    0    0  0.12248933080E+01 -0.14999719852E+02 -0.28110937460E+02  0.59302003636E+02  0.50000108710E+02 0.  0.
         12    1    1    2    0    0 -0.12248933080E+01  0.14999719852E+02  0.28110937460E+02  0.31885996364E+02  0.00000000000E+00 0. -1.
         11    1    3    3    0    0  0.88282095542E+00  0.44332085663E+00  0.11208865408E+02  0.11252313994E+02  0.51100000000E-03 0. -1.
        -11    1    3    3    0    0  0.46132487310E+01 -0.10845940892E+02 -0.44161573308E+01  0.12586458737E+02  0.51100000000E-03 0.  1.
         12    1    3    3    0    0 -0.42711763785E+01 -0.45970998160E+01 -0.34903645538E+02  0.35463230905E+02  0.00000000000E+00 0. -1.
</event>
<event>
 7    1  0.1134395E-011  0.5930197E+02  0.7816164E-02  0.1266605E+00
        -11   -1    0    0    0    0  0.00000000000E+00  0.00000000000E+00  0.45593999997E+02  0.45594000000E+02  0.51100000000E-03 0. -1.
         11   -1    0    0    0    0 -0.00000000000E+00 -0.00000000000E+00 -0.45593999997E+02  0.45594000000E+02  0.51100000000E-03 0.  1.
    9900012    2    1    2    0    0  0.24542189098E+02  0.53842971350E+00  0.20349691091E+02  0.59301970461E+02  0.50000048208E+02 0.  0.
         12    1    1    2    0    0 -0.24542189098E+02 -0.53842971350E+00 -0.20349691091E+02  0.31886029539E+02  0.00000000000E+00 0. -1.
         11    1    3    3    0    0  0.18914368601E+02  0.12021729027E+02  0.27390176934E+01  0.22578253400E+02  0.51100000000E-03 0. -1.
        -11    1    3    3    0    0 -0.53576659627E+01  0.28771273021E+01 -0.49292845132E+01  0.78281729767E+01  0.51100000000E-03 0.  1.
        -12    1    3    3    0    0  0.10985486459E+02 -0.14360426616E+02  0.22539957911E+02  0.28895544085E+02  0.00000000000E+00 0.  1.
</event>
<event>
 7    1  0.1134395E-011  0.5930212E+02  0.7816164E-02  0.1266604E+00
        -11   -1    0    0    0    0  0.00000000000E+00  0.00000000000E+00  0.45593999997E+02  0.45594000000E+02  0.51100000000E-03 0.  1.
         11   -1    0    0    0    0 -0.00000000000E+00 -0.00000000000E+00 -0.45593999997E+02  0.45594000000E+02  0.51100000000E-03 0. -1.
    9900012    2    1    2    0    0  0.33851770944E+01 -0.30177186723E+02 -0.97255921375E+01  0.59302122799E+02  0.50000326035E+02 0.  0.
         12    1    1    2    0    0 -0.33851770944E+01  0.30177186723E+02  0.97255921375E+01  0.31885877201E+02  0.00000000000E+00 0. -1.
         11    1    3    3    0    0  0.58813488870E+01  0.88679914725E+01  0.57846847582E+01  0.12111734620E+02  0.51100000000E-03 0. -1.
        -11    1    3    3    0    0  0.48265891098E+01 -0.65361862510E-01 -0.82352974057E+00  0.48967781349E+01  0.51100000000E-03 0.  1.
        -12    1    3    3    0    0 -0.73227609025E+01 -0.38979816333E+02 -0.14686747155E+02  0.42293610044E+02  0.00000000000E+00 0.  1.
</event>
<event>
 7    1  0.1134395E-011  0.5930169E+02  0.7816164E-02  0.1266606E+00
        -11   -1    0    0    0    0  0.00000000000E+00  0.00000000000E+00  0.45593999997E+02  0.45594000000E+02  0.51100000000E-03 0. -1.
         11   -1    0    0    0    0 -0.00000000000E+00 -0.00000000000E+00 -0.45593999997E+02  0.45594000000E+02  0.51100000000E-03 0.  1.
    9900012    2    1    2    0    0 -0.73507310037E+01  0.13631848943E+02 -0.27872503042E+02  0.59301686671E+02  0.49999530641E+02 0.  0.
         12    1    1    2    0    0  0.73507310037E+01 -0.13631848943E+02  0.27872503042E+02  0.31886313329E+02  0.00000000000E+00 0. -1.
         11    1    3    3    0    0  0.49202836105E+01  0.22904273618E+02 -0.13168969778E+02  0.26874461968E+02  0.51100000000E-03 0. -1.
        -11    1    3    3    0    0  0.26559818857E+01 -0.94420429129E+01 -0.14490150966E+02  0.17497739552E+02  0.51100000000E-03 0.  1.
         12    1    3    3    0    0 -0.14926996500E+02  0.16961823720E+00 -0.21338229764E+00  0.14929485151E+02  0.00000000000E+00 0. -1.
</event>
<event>
 7    1  0.1134395E-011  0.5930194E+02  0.7816164E-02  0.1266605E+00
        -11   -1    0    0    0    0  0.00000000000E+00  0.00000000000E+00  0.45593999997E+02  0.45594000000E+02  0.51100000000E-03 0. -1.
         11   -1    0    0    0    0 -0.00000000000E+00 -0.00000000000E+00 -0.45593999997E+02  0.45594000000E+02  0.51100000000E-03 0.  1.
    9900012    2    1    2    0    0 -0.19063075092E+02  0.48146780906E+00 -0.25555592492E+02  0.59301937985E+02  0.49999988980E+02 0.  0.
         12    1    1    2    0    0  0.19063075092E+02 -0.48146780906E+00  0.25555592492E+02  0.31886062015E+02  0.00000000000E+00 0. -1.
         11    1    3    3    0    0 -0.77885081072E+01 -0.74042558447E+01  0.65118561850E+01  0.12565354527E+02  0.51100000000E-03 0. -1.
        -11    1    3    3    0    0 -0.13620838875E+02 -0.69071714078E+01 -0.54892376326E+01  0.16228616656E+02  0.51100000000E-03 0.  1.
         12    1    3    3    0    0  0.23462718908E+01  0.14792895062E+02 -0.26578211044E+02  0.30507966802E+02  0.00000000000E+00 0. -1.
</event>
<event>
 7    1  0.1134395E-011  0.5930178E+02  0.7816164E-02  0.1266605E+00
        -11   -1    0    0    0    0  0.00000000000E+00  0.00000000000E+00  0.45593999997E+02  0.45594000000E+02  0.51100000000E-03 0. -1.
         11   -1    0    0    0    0 -0.00000000000E+00 -0.00000000000E+00 -0.45593999997E+02  0.45594000000E+02  0.51100000000E-03 0.  1.
    9900012    2    1    2    0    0 -0.31582991441E+02 -0.16081064082E+01 -0.40816469423E+01  0.59301777327E+02  0.49999695978E+02 0.  0.
         12    1    1    2    0    0  0.31582991441E+02  0.16081064082E+01  0.40816469423E+01  0.31886222673E+02  0.00000000000E+00 0. -1.
         11    1    3    3    0    0 -0.26933552773E+02  0.28406937738E+01 -0.55887502147E+01  0.27653570028E+02  0.51100000000E-03 0. -1.
        -11    1    3    3    0    0 -0.85127622016E+01  0.11637677677E+02 -0.24802581920E+01  0.14630596125E+02  0.51100000000E-03 0.  1.
         12    1    3    3    0    0  0.38633235336E+01 -0.16086477859E+02  0.39873614644E+01  0.17017611174E+02  0.00000000000E+00 0. -1.
</event>
<event>
 7    1  0.1134395E-011  0.5930193E+02  0.7816164E-02  0.1266605E+00
        -11   -1    0    0    0    0  0.00000000000E+00  0.00000000000E+00  0.45593999997E+02  0.45594000000E+02  0.51100000000E-03 0.  1.
         11   -1    0    0    0    0 -0.00000000000E+00 -0.00000000000E+00 -0.45593999997E+02  0.45594000000E+02  0.51100000000E-03 0. -1.
    9900012    2    1    2    0    0 -0.17185940632E+02  0.61988508935E+01  0.26133102912E+02  0.59301931325E+02  0.49999976832E+02 0.  0.
         12    1    1    2    0    0  0.17185940632E+02 -0.61988508935E+01 -0.26133102912E+02  0.31886068675E+02  0.00000000000E+00 0. -1.
         11    1    3    3    0    0 -0.81727719785E+00 -0.13610468394E+02  0.68586592340E+01  0.15262830625E+02  0.51100000000E-03 0. -1.
        -11    1    3    3    0    0 -0.54046088163E+01 -0.63719859694E+01 -0.19705808696E+01  0.85845903149E+01  0.51100000000E-03 0.  1.
        -12    1    3    3    0    0 -0.10964054617E+02  0.26181305257E+02  0.21245024547E+02  0.35454510385E+02  0.00000000000E+00 0.  1.
</event>
<event>
 7    1  0.1134395E-011  0.5930195E+02  0.7816164E-02  0.1266605E+00
        -11   -1    0    0    0    0  0.00000000000E+00  0.00000000000E+00  0.45593999997E+02  0.45594000000E+02  0.51100000000E-03 0.  1.
         11   -1    0    0    0    0 -0.00000000000E+00 -0.00000000000E+00 -0.45593999997E+02  0.45594000000E+02  0.51100000000E-03 0. -1.
    9900012    2    1    2    0    0  0.28025144279E+02  0.27787051997E+01  0.14952939068E+02  0.59301948172E+02  0.50000007557E+02 0.  0.
         12    1    1    2    0    0 -0.28025144279E+02 -0.27787051997E+01 -0.14952939068E+02  0.31886051828E+02  0.00000000000E+00 0. -1.
         11    1    3    3    0    0  0.36263612395E+01  0.47265662524E+01 -0.17037773388E+02  0.18049283827E+02  0.51100000000E-03 0. -1.
        -11    1    3    3    0    0  0.11270477744E+02  0.31193145925E+01  0.11550999496E+02  0.16437134231E+02  0.51100000000E-03 0.  1.
        -12    1    3    3    0    0  0.13128305296E+02 -0.50671756452E+01  0.20439712960E+02  0.24815530114E+02  0.00000000000E+00 0.  1.
</event>
<event>
 7    1  0.1134395E-011  0.5930193E+02  0.7816164E-02  0.1266605E+00
        -11   -1    0    0    0    0  0.00000000000E+00  0.00000000000E+00  0.45593999997E+02  0.45594000000E+02  0.51100000000E-03 0. -1.
         11   -1    0    0    0    0 -0.00000000000E+00 -0.00000000000E+00 -0.45593999997E+02  0.45594000000E+02  0.51100000000E-03 0.  1.
    9900012    2    1    2    0    0 -0.12654917966E+02 -0.97731365982E+01 -0.27587325057E+02  0.59301926998E+02  0.49999968942E+02 0.  0.
         12    1    1    2    0    0  0.12654917966E+02  0.97731365982E+01  0.27587325057E+02  0.31886073002E+02  0.00000000000E+00 0. -1.
         11    1    3    3    0    0 -0.15089300901E+02 -0.11759561766E+02 -0.19774208925E+01  0.19232381243E+02  0.51100000000E-03 0. -1.
        -11    1    3    3    0    0 -0.13444196888E+02 -0.32148601561E+01 -0.14324659927E+02  0.19906723439E+02  0.51100000000E-03 0.  1.
        -12    1    3    3    0    0  0.15878579824E+02  0.52012853243E+01 -0.11285244237E+02  0.20162822316E+02  0.00000000000E+00 0.  1.
</event>
<event>
 7    1  0.1134395E-011  0.5930193E+02  0.7816164E-02  0.1266605E+00
        -11   -1    0    0    0    0  0.00000000000E+00  0.00000000000E+00  0.45593999997E+02  0.45594000000E+02  0.51100000000E-03 0.  1.
         11   -1    0    0    0    0 -0.00000000000E+00 -0.00000000000E+00 -0.45593999997E+02  0.45594000000E+02  0.51100000000E-03 0. -1.
    9900012    2    1    2    0    0 -0.20501396546E+01 -0.84746715002E+01  0.30670806578E+02  0.59301929283E+02  0.49999973108E+02 0.  0.
         12    1    1    2    0    0  0.20501396546E+01  0.84746715002E+01 -0.30670806578E+02  0.31886070717E+02  0.00000000000E+00 0. -1.
         11    1    3    3    0    0 -0.11092841184E+02  0.23584059853E+01 -0.86288367882E+00  0.11373555857E+02  0.51100000000E-03 0. -1.
        -11    1    3    3    0    0  0.78016147154E+01 -0.97445687104E+01  0.38653783955E+02  0.40619414396E+02  0.51100000000E-03 0.  1.
         12    1    3    3    0    0  0.12410868137E+01 -0.10885087751E+01 -0.71200936984E+01  0.73089590302E+01  0.00000000000E+00 0. -1.
</event>
<event>
 7    1  0.1134395E-011  0.5930170E+02  0.7816164E-02  0.1266606E+00
        -11   -1    0    0    0    0  0.00000000000E+00  0.00000000000E+00  0.45593999997E+02  0.45594000000E+02  0.51100000000E-03 0.  1.
         11   -1    0    0    0    0 -0.00000000000E+00 -0.00000000000E+00 -0.45593999997E+02  0.45594000000E+02  0.51100000000E-03 0. -1.
    9900012    2    1    2    0    0 -0.20500575856E+02 -0.23494353043E+02 -0.66691846083E+01  0.59301697946E+02  0.49999551204E+02 0.  0.
         12    1    1    2    0    0  0.20500575856E+02  0.23494353043E+02  0.66691846083E+01  0.31886302054E+02  0.00000000000E+00 0. -1.
         11    1    3    3    0    0 -0.24927721483E+02 -0.15132116101E+02  0.19898190629E+01  0.29228951678E+02  0.51100000000E-03 0.  1.
        -11    1    3    3    0    0 -0.50324605734E+00  0.97839578730E+01 -0.13120412636E+01  0.98843583906E+01  0.51100000000E-03 0. -1.
         12    1    3    3    0    0  0.49303916849E+01 -0.18146194816E+02 -0.73469624076E+01  0.20188387877E+02  0.00000000000E+00 0. -1.
</event>
<event>
 7    1  0.1134395E-011  0.5930193E+02  0.7816164E-02  0.1266605E+00
        -11   -1    0    0    0    0  0.00000000000E+00  0.00000000000E+00  0.45593999997E+02  0.45594000000E+02  0.51100000000E-03 0.  1.
         11   -1    0    0    0    0 -0.00000000000E+00 -0.00000000000E+00 -0.45593999997E+02  0.45594000000E+02  0.51100000000E-03 0. -1.
    9900012    2    1    2    0    0  0.29273743042E+02  0.86605724235E+01  0.92067191081E+01  0.59301933715E+02  0.49999981192E+02 0.  0.
         12    1    1    2    0    0 -0.29273743042E+02 -0.86605724235E+01 -0.92067191081E+01  0.31886066285E+02  0.00000000000E+00 0. -1.
         11    1    3    3    0    0  0.23782543755E+02  0.98761333231E+01  0.18949654058E+02  0.31972437912E+02  0.51100000000E-03 0.  1.
        -11    1    3    3    0    0  0.28119139045E+01  0.11856457408E+02 -0.49130441376E+01  0.13138510000E+02  0.51100000000E-03 0. -1.
        -12    1    3    3    0    0  0.26792853828E+01 -0.13072018307E+02 -0.48298908126E+01  0.14190985803E+02  0.00000000000E+00 0.  1.
</event>
<event>
 7    1  0.1134395E-011  0.5930173E+02  0.7816164E-02  0.1266606E+00
        -11   -1    0    0    0    0  0.00000000000E+00  0.00000000000E+00  0.45593999997E+02  0.45594000000E+02  0.51100000000E-03 0. -1.
         11   -1    0    0    0    0 -0.00000000000E+00 -0.00000000000E+00 -0.45593999997E+02  0.45594000000E+02  0.51100000000E-03 0.  1.
    9900012    2    1    2    0    0  0.19844209578E+01 -0.31621198451E+02 -0.35911111156E+01  0.59301730274E+02  0.49999610163E+02 0.  0.
         12    1    1    2    0    0 -0.19844209578E+01  0.31621198451E+02  0.35911111156E+01  0.31886269726E+02  0.00000000000E+00 0. -1.
         11    1    3    3    0    0  0.12794611091E+02 -0.10889605262E+02 -0.10451661072E+02  0.19786934962E+02  0.51100000000E-03 0.  1.
        -11    1    3    3    0    0 -0.42242786888E+01 -0.28245555295E+02  0.26847105698E+01  0.28685599096E+02  0.51100000000E-03 0. -1.
         12    1    3    3    0    0 -0.65859114447E+01  0.75139621072E+01  0.41758393868E+01  0.10829196216E+02  0.00000000000E+00 0. -1.
</event>
<event>
 7    1  0.1134395E-011  0.5930195E+02  0.7816164E-02  0.1266605E+00
        -11   -1    0    0    0    0  0.00000000000E+00  0.00000000000E+00  0.45593999997E+02  0.45594000000E+02  0.51100000000E-03 0. -1.
         11   -1    0    0    0    0 -0.00000000000E+00 -0.00000000000E+00 -0.45593999997E+02  0.45594000000E+02  0.51100000000E-03 0.  1.
    9900012    2    1    2    0    0  0.68154948045E+01  0.19230586530E+02 -0.24504164312E+02  0.59301945112E+02  0.50000001978E+02 0.  0.
         12    1    1    2    0    0 -0.68154948045E+01 -0.19230586530E+02  0.24504164312E+02  0.31886054888E+02  0.00000000000E+00 0. -1.
         11    1    3    3    0    0 -0.27748287768E+01  0.39737018460E+01  0.37201384923E+00  0.48609027625E+01  0.51100000000E-03 0. -1.
        -11    1    3    3    0    0 -0.16320143500E+02 -0.10357064497E+01 -0.15238198276E+02  0.22352236101E+02  0.51100000000E-03 0.  1.
        -12    1    3    3    0    0  0.25910467082E+02  0.16292591133E+02 -0.96379798844E+01  0.32088806249E+02  0.00000000000E+00 0.  1.
</event>
<event>
 7    1  0.1134395E-011  0.5930195E+02  0.7816164E-02  0.1266605E+00
        -11   -1    0    0    0    0  0.00000000000E+00  0.00000000000E+00  0.45593999997E+02  0.45594000000E+02  0.51100000000E-03 0.  1.
         11   -1    0    0    0    0 -0.00000000000E+00 -0.00000000000E+00 -0.45593999997E+02  0.45594000000E+02  0.51100000000E-03 0. -1.
    9900012    2    1    2    0    0  0.11433124654E+01 -0.18624938764E+02  0.25855845523E+02  0.59301948895E+02  0.50000008877E+02 0.  0.
         12    1    1    2    0    0 -0.11433124654E+01  0.18624938764E+02 -0.25855845523E+02  0.31886051105E+02  0.00000000000E+00 0. -1.
         11    1    3    3    0    0  0.11984821982E+02 -0.15217980229E+02  0.16719434716E+02  0.25588325027E+02  0.51100000000E-03 0. -1.
        -11    1    3    3    0    0  0.44532684658E+01 -0.12987259116E+02  0.58327951368E+00  0.13741932710E+02  0.51100000000E-03 0.  1.
         12    1    3    3    0    0 -0.15294777982E+02  0.95803005812E+01  0.85531312936E+01  0.19971691157E+02  0.00000000000E+00 0. -1.
</event>
<event>
 7    1  0.1134395E-011  0.5930202E+02  0.7816164E-02  0.1266604E+00
        -11   -1    0    0    0    0  0.00000000000E+00  0.00000000000E+00  0.45593999997E+02  0.45594000000E+02  0.51100000000E-03 0. -1.
         11   -1    0    0    0    0 -0.00000000000E+00 -0.00000000000E+00 -0.45593999997E+02  0.45594000000E+02  0.51100000000E-03 0.  1.
    9900012    2    1    2    0    0  0.23270415564E+02 -0.21527442093E+02 -0.34311293327E+01  0.59302021074E+02  0.50000140514E+02 0.  0.
         12    1    1    2    0    0 -0.23270415564E+02  0.21527442093E+02  0.34311293327E+01  0.31885978926E+02  0.00000000000E+00 0. -1.
         11    1    3    3    0    0 -0.22921100156E+01 -0.25890346371E+01 -0.13125773897E+02  0.13573607086E+02  0.51100000000E-03 0. -1.
        -11    1    3    3    0    0  0.20795140033E+02 -0.14311890919E+02 -0.82784169163E+01  0.26566901542E+02  0.51100000000E-03 0.  1.
         12    1    3    3    0    0  0.47673855467E+01 -0.46265165368E+01  0.17973061481E+02  0.19161512446E+02  0.00000000000E+00 0. -1.
</event>
<event>
 7    1  0.1134395E-011  0.5930194E+02  0.7816164E-02  0.1266605E+00
        -11   -1    0    0    0    0  0.00000000000E+00  0.00000000000E+00  0.45593999997E+02  0.45594000000E+02  0.51100000000E-03 0. -1.
         11   -1    0    0    0    0 -0.00000000000E+00 -0.00000000000E+00 -0.45593999997E+02  0.45594000000E+02  0.51100000000E-03 0.  1.
    9900012    2    1    2    0    0 -0.21732951271E+02 -0.22135409026E+01 -0.23227138298E+02  0.59301938973E+02  0.49999990782E+02 0.  0.
         12    1    1    2    0    0  0.21732951271E+02  0.22135409026E+01  0.23227138298E+02  0.31886061027E+02  0.00000000000E+00 0. -1.
         11    1    3    3    0    0  0.65680132217E+01 -0.17517705427E+00 -0.16958575044E+02  0.18186884078E+02  0.51100000000E-03 0. -1.
        -11    1    3    3    0    0 -0.65593146117E+01 -0.47181233839E+01 -0.15392855369E+02  0.17384628069E+02  0.51100000000E-03 0.  1.
         12    1    3    3    0    0 -0.21741649881E+02  0.26797595355E+01  0.91242921151E+01  0.23730426826E+02  0.00000000000E+00 0. -1.
</event>
<event>
 7    1  0.1134395E-011  0.5930194E+02  0.7816164E-02  0.1266605E+00
        -11   -1    0    0    0    0  0.00000000000E+00  0.00000000000E+00  0.45593999997E+02  0.45594000000E+02  0.51100000000E-03 0. -1.
         11   -1    0    0    0    0 -0.00000000000E+00 -0.00000000000E+00 -0.45593999997E+02  0.45594000000E+02  0.51100000000E-03 0.  1.
    9900012    2    1    2    0    0  0.19695436186E+02 -0.23802562781E+02 -0.78897864770E+01  0.59301938277E+02  0.49999989513E+02 0.  0.
         12    1    1    2    0    0 -0.19695436186E+02  0.23802562781E+02  0.78897864770E+01  0.31886061723E+02  0.00000000000E+00 0. -1.
         11    1    3    3    0    0 -0.39974112037E+01  0.61736789147E+01 -0.30572168455E+01  0.79649345744E+01  0.51100000000E-03 0. -1.
        -11    1    3    3    0    0 -0.59765077371E+01 -0.10859019498E+01 -0.77218609406E+01  0.98247119257E+01  0.51100000000E-03 0.  1.
        -12    1    3    3    0    0  0.29669355127E+02 -0.28890339746E+02  0.28892913091E+01  0.41512291777E+02  0.00000000000E+00 0.  1.
</event>
<event>
 7    1  0.1134395E-011  0.5930192E+02  0.7816164E-02  0.1266605E+00
        -11   -1    0    0    0    0  0.00000000000E+00  0.00000000000E+00  0.45593999997E+02  0.45594000000E+02  0.51100000000E-03 0.  1.
         11   -1    0    0    0    0 -0.00000000000E+00 -0.00000000000E+00 -0.45593999997E+02  0.45594000000E+02  0.51100000000E-03 0. -1.
    9900012    2    1    2    0    0 -0.25133095100E+01 -0.16641727081E+02  0.27082433483E+02  0.59301921402E+02  0.49999958737E+02 0.  0.
         12    1    1    2    0    0  0.25133095100E+01  0.16641727081E+02 -0.27082433483E+02  0.31886078598E+02  0.00000000000E+00 0. -1.
         11    1    3    3    0    0 -0.44899089543E+01 -0.13140852749E+01 -0.88499427874E+01  0.10010374125E+02  0.51100000000E-03 0. -1.
        -11    1    3    3    0    0  0.10917215557E+02 -0.13581709504E+02  0.66941253306E+01  0.18667076439E+02  0.51100000000E-03 0.  1.
        -12    1    3    3    0    0 -0.89406161129E+01 -0.17459323027E+01  0.29238250940E+02  0.30624470838E+02  0.00000000000E+00 0.  1.
</event>
<event>
 7    1  0.1134395E-011  0.5930193E+02  0.7816164E-02  0.1266605E+00
        -11   -1    0    0    0    0  0.00000000000E+00  0.00000000000E+00  0.45593999997E+02  0.45594000000E+02  0.51100000000E-03 0.  1.
         11   -1    0    0    0    0 -0.00000000000E+00 -0.00000000000E+00 -0.45593999997E+02  0.45594000000E+02  0.51100000000E-03 0. -1.
    9900012    2    1    2    0    0  0.12981559236E+02  0.29108620658E+02 -0.94269132449E+00  0.59301931824E+02  0.49999977743E+02 0.  0.
         12    1    1    2    0    0 -0.12981559236E+02 -0.29108620658E+02  0.94269132449E+00  0.31886068176E+02  0.00000000000E+00 0. -1.
         11    1    3    3    0    0 -0.11837692300E+01  0.20184659374E+02  0.60390894733E+01  0.21101952174E+02  0.51100000000E-03 0. -1.
        -11    1    3    3    0    0 -0.54704342496E+01  0.17945325875E+01  0.98255733414E+01  0.11388059090E+02  0.51100000000E-03 0.  1.
         12    1    3    3    0    0  0.19635762715E+02  0.71294286964E+01 -0.16807354139E+02  0.26811920560E+02  0.00000000000E+00 0. -1.
</event>
<event>
 7    1  0.1134395E-011  0.5930196E+02  0.7816164E-02  0.1266605E+00
        -11   -1    0    0    0    0  0.00000000000E+00  0.00000000000E+00  0.45593999997E+02  0.45594000000E+02  0.51100000000E-03 0.  1.
         11   -1    0    0    0    0 -0.00000000000E+00 -0.00000000000E+00 -0.45593999997E+02  0.45594000000E+02  0.51100000000E-03 0. -1.
    9900012    2    1    2    0    0 -0.16476065358E+02 -0.95642625587E+01  0.25569198712E+02  0.59301956489E+02  0.50000022727E+02 0.  0.
         12    1    1    2    0    0  0.16476065358E+02  0.95642625587E+01 -0.25569198712E+02  0.31886043511E+02  0.00000000000E+00 0. -1.
         11    1    3    3    0    0 -0.53660263408E+01  0.12536373561E+02  0.29327787596E+01  0.13948336541E+02  0.51100000000E-03 0. -1.
        -11    1    3    3    0    0 -0.11442050901E+02  0.37985851409E+01  0.19660537838E+01  0.12215365146E+02  0.51100000000E-03 0.  1.
        -12    1    3    3    0    0  0.33201188394E+00 -0.25899221261E+02  0.20670366169E+02  0.33138254802E+02  0.00000000000E+00 0.  1.
</event>
<event>
 7    1  0.1134395E-011  0.5930193E+02  0.7816164E-02  0.1266605E+00
        -11   -1    0    0    0    0  0.00000000000E+00  0.00000000000E+00  0.45593999997E+02  0.45594000000E+02  0.51100000000E-03 0. -1.
         11   -1    0    0    0    0 -0.00000000000E+00 -0.00000000000E+00 -0.45593999997E+02  0.45594000000E+02  0.51100000000E-03 0.  1.
    9900012    2    1    2    0    0 -0.12666124171E+02 -0.27996130369E+02 -0.85151140885E+01  0.59301934312E+02  0.49999982281E+02 0.  0.
         12    1    1    2    0    0  0.12666124171E+02  0.27996130369E+02  0.85151140885E+01  0.31886065688E+02  0.00000000000E+00 0. -1.
         11    1    3    3    0    0 -0.26345844397E+01 -0.21071338590E+02  0.97302228714E+01  0.23358501290E+02  0.51100000000E-03 0. -1.
        -11    1    3    3    0    0 -0.70811475005E+01 -0.13735057335E+02  0.82983941801E+00  0.15475240988E+02  0.51100000000E-03 0.  1.
         12    1    3    3    0    0 -0.29503922307E+01  0.68102655565E+01 -0.19075176378E+02  0.20468192033E+02  0.00000000000E+00 0. -1.
</event>
<event>
 7    1  0.1134395E-011  0.5930195E+02  0.7816164E-02  0.1266605E+00
        -11   -1    0    0    0    0  0.00000000000E+00  0.00000000000E+00  0.45593999997E+02  0.45594000000E+02  0.51100000000E-03 0.  1.
         11   -1    0    0    0    0 -0.00000000000E+00 -0.00000000000E+00 -0.45593999997E+02  0.45594000000E+02  0.51100000000E-03 0. -1.
    9900012    2    1    2    0    0 -0.94551486666E+01  0.22039773285E+02  0.21013538039E+02  0.59301949387E+02  0.50000009775E+02 0.  0.
         12    1    1    2    0    0  0.94551486666E+01 -0.22039773285E+02 -0.21013538039E+02  0.31886050613E+02  0.00000000000E+00 0. -1.
         11    1    3    3    0    0  0.11318377084E+02  0.70401847208E+01  0.57896039411E+01  0.14532356133E+02  0.51100000000E-03 0. -1.
        -11    1    3    3    0    0  0.16709494219E+01  0.16133267019E+02  0.15298829893E+02  0.22296380267E+02  0.51100000000E-03 0.  1.
         12    1    3    3    0    0 -0.22444475172E+02 -0.11336784548E+01 -0.74895795154E-01  0.22473212987E+02  0.00000000000E+00 0. -1.
</event>
<event>
 7    1  0.1134395E-011  0.5930194E+02  0.7816164E-02  0.1266605E+00
        -11   -1    0    0    0    0  0.00000000000E+00  0.00000000000E+00  0.45593999997E+02  0.45594000000E+02  0.51100000000E-03 0.  1.
         11   -1    0    0    0    0 -0.00000000000E+00 -0.00000000000E+00 -0.45593999997E+02  0.45594000000E+02  0.51100000000E-03 0. -1.
    9900012    2    1    2    0    0 -0.23602027205E+02 -0.34577844359E+01  0.21159132622E+02  0.59301939493E+02  0.49999991729E+02 0.  0.
         12    1    1    2    0    0  0.23602027205E+02  0.34577844359E+01 -0.21159132622E+02  0.31886060507E+02  0.00000000000E+00 0. -1.
         11    1    3    3    0    0  0.16900867941E+01  0.20217119799E+01 -0.15171305668E+01  0.30406246265E+01  0.51100000000E-03 0. -1.
        -11    1    3    3    0    0 -0.17198211116E+01  0.12053570773E+02 -0.73756378018E+01  0.14235392031E+02  0.51100000000E-03 0.  1.
        -12    1    3    3    0    0 -0.23572292887E+02 -0.17533067189E+02  0.30051900990E+02  0.42025922835E+02  0.00000000000E+00 0.  1.
</event>
<event>
 7    1  0.1134395E-011  0.5930195E+02  0.7816164E-02  0.1266605E+00
        -11   -1    0    0    0    0  0.00000000000E+00  0.00000000000E+00  0.45593999997E+02  0.45594000000E+02  0.51100000000E-03 0. -1.
         11   -1    0    0    0    0 -0.00000000000E+00 -0.00000000000E+00 -0.45593999997E+02  0.45594000000E+02  0.51100000000E-03 0.  1.
    9900012    2    1    2    0    0 -0.91891721224E+01 -0.29095609794E+02 -0.92587558660E+01  0.59301953620E+02  0.50000017493E+02 0.  0.
         12    1    1    2    0    0  0.91891721224E+01  0.29095609794E+02  0.92587558660E+01  0.31886046380E+02  0.00000000000E+00 0. -1.
         11    1    3    3    0    0  0.51849874789E+01  0.26858826681E+01  0.49760274864E+00  0.58605178627E+01  0.51100000000E-03 0. -1.
        -11    1    3    3    0    0 -0.18990320138E+02  0.64206080884E+00  0.83898132306E+00  0.19019684302E+02  0.51100000000E-03 0.  1.
         12    1    3    3    0    0  0.46161605369E+01 -0.32423553271E+02 -0.10595339938E+02  0.34421751455E+02  0.00000000000E+00 0. -1.
</event>
<event>
 7    1  0.1134395E-011  0.5930193E+02  0.7816164E-02  0.1266605E+00
        -11   -1    0    0    0    0  0.00000000000E+00  0.00000000000E+00  0.45593999997E+02  0.45594000000E+02  0.51100000000E-03 0. -1.
         11   -1    0    0    0    0 -0.00000000000E+00 -0.00000000000E+00 -0.45593999997E+02  0.45594000000E+02  0.51100000000E-03 0.  1.
    9900012    2    1    2    0    0 -0.21846638300E+02 -0.22297830469E+02 -0.65002132546E+01  0.59301927476E+02  0.49999969814E+02 0.  0.
         12    1    1    2    0    0  0.21846638300E+02  0.22297830469E+02  0.65002132546E+01  0.31886072524E+02  0.00000000000E+00 0. -1.
         11    1    3    3    0    0 -0.43322600188E+01 -0.12678893366E+02 -0.16489131106E+02  0.21246511685E+02  0.51100000000E-03 0. -1.
        -11    1    3    3    0    0  0.14037555168E+01 -0.10786185608E+02 -0.67219847216E+01  0.12786610512E+02  0.51100000000E-03 0.  1.
         12    1    3    3    0    0 -0.18918133798E+02  0.11672485045E+01  0.16710902573E+02  0.25268805280E+02  0.00000000000E+00 0. -1.
</event>
<event>
 7    1  0.1134395E-011  0.5930194E+02  0.7816164E-02  0.1266605E+00
        -11   -1    0    0    0    0  0.00000000000E+00  0.00000000000E+00  0.45593999997E+02  0.45594000000E+02  0.51100000000E-03 0.  1.
         11   -1    0    0    0    0 -0.00000000000E+00 -0.00000000000E+00 -0.45593999997E+02  0.45594000000E+02  0.51100000000E-03 0. -1.
    9900012    2    1    2    0    0 -0.79718075584E+01  0.30110914962E+02  0.68193631542E+01  0.59301943024E+02  0.49999998170E+02 0.  0.
         12    1    1    2    0    0  0.79718075584E+01 -0.30110914962E+02 -0.68193631542E+01  0.31886056976E+02  0.00000000000E+00 0. -1.
         11    1    3    3    0    0  0.28861843700E+01 -0.43776773831E+01  0.37516372945E+01  0.64473949886E+01  0.51100000000E-03 0. -1.
        -11    1    3    3    0    0 -0.15794874610E+02  0.38711254704E+01  0.12419446587E+02  0.20462314877E+02  0.51100000000E-03 0.  1.
        -12    1    3    3    0    0  0.49368826811E+01  0.30617466875E+02 -0.93517207271E+01  0.32392233159E+02  0.00000000000E+00 0.  1.
</event>
<event>
 7    1  0.1134395E-011  0.5930193E+02  0.7816164E-02  0.1266605E+00
        -11   -1    0    0    0    0  0.00000000000E+00  0.00000000000E+00  0.45593999997E+02  0.45594000000E+02  0.51100000000E-03 0. -1.
         11   -1    0    0    0    0 -0.00000000000E+00 -0.00000000000E+00 -0.45593999997E+02  0.45594000000E+02  0.51100000000E-03 0.  1.
    9900012    2    1    2    0    0  0.26430332356E+02 -0.17835858537E+02  0.20215491761E+00  0.59301934316E+02  0.49999982288E+02 0.  0.
         12    1    1    2    0    0 -0.26430332356E+02  0.17835858537E+02 -0.20215491761E+00  0.31886065684E+02  0.00000000000E+00 0. -1.
         11    1    3    3    0    0 -0.68199952127E+01 -0.13562734574E+02  0.33826716836E+01  0.15553217410E+02  0.51100000000E-03 0. -1.
        -11    1    3    3    0    0 -0.19552588941E+01 -0.47308457245E+01  0.54714311602E+01  0.74926962980E+01  0.51100000000E-03 0.  1.
         12    1    3    3    0    0  0.35205586463E+02  0.45772176136E+00 -0.86519479262E+01  0.36256020608E+02  0.00000000000E+00 0. -1.
</event>
<event>
 7    1  0.1134395E-011  0.5930195E+02  0.7816164E-02  0.1266605E+00
        -11   -1    0    0    0    0  0.00000000000E+00  0.00000000000E+00  0.45593999997E+02  0.45594000000E+02  0.51100000000E-03 0.  1.
         11   -1    0    0    0    0 -0.00000000000E+00 -0.00000000000E+00 -0.45593999997E+02  0.45594000000E+02  0.51100000000E-03 0. -1.
    9900012    2    1    2    0    0 -0.23962028265E+02 -0.10817733966E+02  0.18042118322E+02  0.59301949754E+02  0.50000010444E+02 0.  0.
         12    1    1    2    0    0  0.23962028265E+02  0.10817733966E+02 -0.18042118322E+02  0.31886050246E+02  0.00000000000E+00 0. -1.
         11    1    3    3    0    0  0.63598509329E+00 -0.18651554580E+02  0.18190000071E+02  0.26060718872E+02  0.51100000000E-03 0. -1.
        -11    1    3    3    0    0 -0.36954478918E+00 -0.27712903639E+01  0.55247690174E+01  0.61919049241E+01  0.51100000000E-03 0.  1.
        -12    1    3    3    0    0 -0.24228468569E+02  0.10605110977E+02 -0.56726507671E+01  0.27049325958E+02  0.00000000000E+00 0.  1.
</event>
<event>
 7    1  0.1134395E-011  0.5930190E+02  0.7816164E-02  0.1266605E+00
        -11   -1    0    0    0    0  0.00000000000E+00  0.00000000000E+00  0.45593999997E+02  0.45594000000E+02  0.51100000000E-03 0. -1.
         11   -1    0    0    0    0 -0.00000000000E+00 -0.00000000000E+00 -0.45593999997E+02  0.45594000000E+02  0.51100000000E-03 0.  1.
    9900012    2    1    2    0    0 -0.18798785024E+01 -0.31798777700E+02  0.14236992362E+01  0.59301903878E+02  0.49999926777E+02 0.  0.
         12    1    1    2    0    0  0.18798785024E+01  0.31798777700E+02 -0.14236992362E+01  0.31886096122E+02  0.00000000000E+00 0. -1.
         11    1    3    3    0    0  0.13543719286E+02 -0.17406322020E+02  0.28971514107E+01  0.22244232172E+02  0.51100000000E-03 0. -1.
        -11    1    3    3    0    0  0.26337606254E+01  0.64011863672E+01  0.52753629986E+01  0.87029499003E+01  0.51100000000E-03 0.  1.
        -12    1    3    3    0    0 -0.18057358414E+02 -0.20793642047E+02 -0.67488151730E+01  0.28354721806E+02  0.00000000000E+00 0.  1.
</event>
<event>
 7    1  0.1134395E-011  0.5930193E+02  0.7816164E-02  0.1266605E+00
        -11   -1    0    0    0    0  0.00000000000E+00  0.00000000000E+00  0.45593999997E+02  0.45594000000E+02  0.51100000000E-03 0.  1.
         11   -1    0    0    0    0 -0.00000000000E+00 -0.00000000000E+00 -0.45593999997E+02  0.45594000000E+02  0.51100000000E-03 0. -1.
    9900012    2    1    2    0    0  0.36470114651E+01  0.29867891225E+02 -0.10551292932E+02  0.59301930920E+02  0.49999976095E+02 0.  0.
         12    1    1    2    0    0 -0.36470114651E+01 -0.29867891225E+02  0.10551292932E+02  0.31886069080E+02  0.00000000000E+00 0. -1.
         11    1    3    3    0    0 -0.84794299032E+01 -0.62198482064E+01  0.55874547370E+01  0.11908269979E+02  0.51100000000E-03 0. -1.
        -11    1    3    3    0    0 -0.37731177090E+01 -0.12364741831E+01 -0.18602686924E+01  0.43847332325E+01  0.51100000000E-03 0.  1.
         12    1    3    3    0    0  0.15899559077E+02  0.37324213614E+02 -0.14278478977E+02  0.43008927709E+02  0.00000000000E+00 0. -1.
</event>
<event>
 7    1  0.1134395E-011  0.5930194E+02  0.7816164E-02  0.1266605E+00
        -11   -1    0    0    0    0  0.00000000000E+00  0.00000000000E+00  0.45593999997E+02  0.45594000000E+02  0.51100000000E-03 0. -1.
         11   -1    0    0    0    0 -0.00000000000E+00 -0.00000000000E+00 -0.45593999997E+02  0.45594000000E+02  0.51100000000E-03 0.  1.
    9900012    2    1    2    0    0  0.40569460095E+01 -0.26697186426E+02 -0.16956473477E+02  0.59301944008E+02  0.49999999963E+02 0.  0.
         12    1    1    2    0    0 -0.40569460095E+01  0.26697186426E+02  0.16956473477E+02  0.31886055992E+02  0.00000000000E+00 0. -1.
         11    1    3    3    0    0  0.10016501313E+02 -0.18568663749E+02  0.71794708131E+01  0.22286102697E+02  0.51100000000E-03 0. -1.
        -11    1    3    3    0    0  0.96097667184E+00  0.39398135429E+01  0.39576109642E+01  0.56664178915E+01  0.51100000000E-03 0.  1.
        -12    1    3    3    0    0 -0.69205319752E+01 -0.12068336219E+02 -0.28093555254E+02  0.31349423419E+02  0.00000000000E+00 0.  1.
</event>
<event>
 7    1  0.1134395E-011  0.5930195E+02  0.7816164E-02  0.1266605E+00
        -11   -1    0    0    0    0  0.00000000000E+00  0.00000000000E+00  0.45593999997E+02  0.45594000000E+02  0.51100000000E-03 0.  1.
         11   -1    0    0    0    0 -0.00000000000E+00 -0.00000000000E+00 -0.45593999997E+02  0.45594000000E+02  0.51100000000E-03 0. -1.
    9900012    2    1    2    0    0  0.29626660489E+01  0.18182384871E+02  0.26025827264E+02  0.59301949845E+02  0.50000010610E+02 0.  0.
         12    1    1    2    0    0 -0.29626660489E+01 -0.18182384871E+02 -0.26025827264E+02  0.31886050155E+02  0.00000000000E+00 0. -1.
         11    1    3    3    0    0 -0.35576260690E+01 -0.26935755044E+01  0.81417409121E+01  0.92843953807E+01  0.51100000000E-03 0.  1.
        -11    1    3    3    0    0 -0.44314478844E+01 -0.11592250383E+02  0.56176316667E+01  0.13622620346E+02  0.51100000000E-03 0. -1.
        -12    1    3    3    0    0  0.10951740002E+02  0.32468210759E+02  0.12266454685E+02  0.36394934118E+02  0.00000000000E+00 0.  1.
</event>
<event>
 7    1  0.1134395E-011  0.5930195E+02  0.7816164E-02  0.1266605E+00
        -11   -1    0    0    0    0  0.00000000000E+00  0.00000000000E+00  0.45593999997E+02  0.45594000000E+02  0.51100000000E-03 0. -1.
         11   -1    0    0    0    0 -0.00000000000E+00 -0.00000000000E+00 -0.45593999997E+02  0.45594000000E+02  0.51100000000E-03 0.  1.
    9900012    2    1    2    0    0 -0.10204777124E+02  0.28241055936E+02  0.10724989331E+02  0.59301951127E+02  0.50000012948E+02 0.  0.
         12    1    1    2    0    0  0.10204777124E+02 -0.28241055936E+02 -0.10724989331E+02  0.31886048873E+02  0.00000000000E+00 0. -1.
         11    1    3    3    0    0  0.79655168853E+01  0.92494849520E+01  0.12929211741E+02  0.17781083983E+02  0.51100000000E-03 0. -1.
        -11    1    3    3    0    0 -0.20850384183E+02  0.19926276954E+02  0.88023392738E+01  0.30154207182E+02  0.51100000000E-03 0.  1.
         12    1    3    3    0    0  0.26800901734E+01 -0.93470596984E+00 -0.11006561684E+02  0.11366659962E+02  0.00000000000E+00 0. -1.
</event>
<event>
 7    1  0.1134395E-011  0.5930194E+02  0.7816164E-02  0.1266605E+00
        -11   -1    0    0    0    0  0.00000000000E+00  0.00000000000E+00  0.45593999997E+02  0.45594000000E+02  0.51100000000E-03 0.  1.
         11   -1    0    0    0    0 -0.00000000000E+00 -0.00000000000E+00 -0.45593999997E+02  0.45594000000E+02  0.51100000000E-03 0. -1.
    9900012    2    1    2    0    0  0.27714776919E+02  0.12676805353E+02 -0.93760741945E+01  0.59301936886E+02  0.49999986975E+02 0.  0.
         12    1    1    2    0    0 -0.27714776919E+02 -0.12676805353E+02  0.93760741945E+01  0.31886063114E+02  0.00000000000E+00 0. -1.
         11    1    3    3    0    0  0.31465879103E+02  0.19482660386E+02 -0.95407934550E+01  0.38219135828E+02  0.51100000000E-03 0. -1.
        -11    1    3    3    0    0  0.51688304115E+01 -0.71748314972E+00  0.66748958800E+01  0.84726516017E+01  0.51100000000E-03 0.  1.
        -12    1    3    3    0    0 -0.89199325954E+01 -0.60883718831E+01 -0.65101766195E+01  0.12610149456E+02  0.00000000000E+00 0.  1.
</event>
<event>
 7    1  0.1134395E-011  0.5930196E+02  0.7816164E-02  0.1266605E+00
        -11   -1    0    0    0    0  0.00000000000E+00  0.00000000000E+00  0.45593999997E+02  0.45594000000E+02  0.51100000000E-03 0.  1.
         11   -1    0    0    0    0 -0.00000000000E+00 -0.00000000000E+00 -0.45593999997E+02  0.45594000000E+02  0.51100000000E-03 0. -1.
    9900012    2    1    2    0    0 -0.72195000910E+01  0.74858912752E+01  0.30142323917E+02  0.59301961662E+02  0.50000032161E+02 0.  0.
         12    1    1    2    0    0  0.72195000910E+01 -0.74858912752E+01 -0.30142323917E+02  0.31886038338E+02  0.00000000000E+00 0. -1.
         11    1    3    3    0    0 -0.14250815986E-01 -0.24416445451E+01  0.19878388385E+02  0.20027784606E+02  0.51100000000E-03 0. -1.
        -11    1    3    3    0    0 -0.21730376451E+02  0.38085191774E+01  0.72885631164E+01  0.23234397595E+02  0.51100000000E-03 0.  1.
         12    1    3    3    0    0  0.14525127176E+02  0.61190166429E+01  0.29753724156E+01  0.16039779462E+02  0.00000000000E+00 0. -1.
</event>
<event>
 7    1  0.1134395E-011  0.5930193E+02  0.7816164E-02  0.1266605E+00
        -11   -1    0    0    0    0  0.00000000000E+00  0.00000000000E+00  0.45593999997E+02  0.45594000000E+02  0.51100000000E-03 0. -1.
         11   -1    0    0    0    0 -0.00000000000E+00 -0.00000000000E+00 -0.45593999997E+02  0.45594000000E+02  0.51100000000E-03 0.  1.
    9900012    2    1    2    0    0  0.28559640332E+02 -0.14000563262E+02  0.22478608984E+01  0.59301926141E+02  0.49999967378E+02 0.  0.
         12    1    1    2    0    0 -0.28559640332E+02  0.14000563262E+02 -0.22478608984E+01  0.31886073859E+02  0.00000000000E+00 0. -1.
         11    1    3    3    0    0  0.23068807337E+02 -0.59786880241E+01 -0.72732302628E+00  0.23842054892E+02  0.51100000000E-03 0.  1.
        -11    1    3    3    0    0 -0.91804127176E+01 -0.94631162226E+01  0.12287911537E+02  0.18022855393E+02  0.51100000000E-03 0. -1.
         12    1    3    3    0    0  0.14671245713E+02  0.14412409849E+01 -0.93127276127E+01  0.17437015855E+02  0.00000000000E+00 0. -1.
</event>
<event>
 7    1  0.1134395E-011  0.5930195E+02  0.7816164E-02  0.1266605E+00
        -11   -1    0    0    0    0  0.00000000000E+00  0.00000000000E+00  0.45593999997E+02  0.45594000000E+02  0.51100000000E-03 0.  1.
         11   -1    0    0    0    0 -0.00000000000E+00 -0.00000000000E+00 -0.45593999997E+02  0.45594000000E+02  0.51100000000E-03 0. -1.
    9900012    2    1    2    0    0  0.19434084584E+02  0.13708986858E+02  0.21239120351E+02  0.59301949797E+02  0.50000010521E+02 0.  0.
         12    1    1    2    0    0 -0.19434084584E+02 -0.13708986858E+02 -0.21239120351E+02  0.31886050203E+02  0.00000000000E+00 0. -1.
         11    1    3    3    0    0  0.47041918282E+01  0.88967090775E+01  0.26596481763E+02  0.28436836947E+02  0.51100000000E-03 0.  1.
        -11    1    3    3    0    0  0.20235959619E+02  0.11787245167E+00  0.22562782426E+01  0.20361698048E+02  0.51100000000E-03 0. -1.
        -12    1    3    3    0    0 -0.55060668637E+01  0.46944053290E+01 -0.76136396545E+01  0.10503414801E+02  0.00000000000E+00 0.  1.
</event>
<event>
 7    1  0.1134395E-011  0.5930195E+02  0.7816164E-02  0.1266605E+00
        -11   -1    0    0    0    0  0.00000000000E+00  0.00000000000E+00  0.45593999997E+02  0.45594000000E+02  0.51100000000E-03 0.  1.
         11   -1    0    0    0    0 -0.00000000000E+00 -0.00000000000E+00 -0.45593999997E+02  0.45594000000E+02  0.51100000000E-03 0. -1.
    9900012    2    1    2    0    0  0.23185170157E+02 -0.92838002070E+01  0.19823704770E+02  0.59301947684E+02  0.50000006668E+02 0.  0.
         12    1    1    2    0    0 -0.23185170157E+02  0.92838002070E+01 -0.19823704770E+02  0.31886052316E+02  0.00000000000E+00 0. -1.
         11    1    3    3    0    0 -0.17132093660E+01 -0.51259379870E+01  0.14348391032E+02  0.15332535735E+02  0.51100000000E-03 0. -1.
        -11    1    3    3    0    0 -0.61467869771E+01  0.81329764855E+01  0.21103016880E+01  0.10410651763E+02  0.51100000000E-03 0.  1.
         12    1    3    3    0    0  0.31045166500E+02 -0.12290838705E+02  0.33650120499E+01  0.33558760186E+02  0.00000000000E+00 0. -1.
</event>
<event>
 7    1  0.1134395E-011  0.5930210E+02  0.7816164E-02  0.1266604E+00
        -11   -1    0    0    0    0  0.00000000000E+00  0.00000000000E+00  0.45593999997E+02  0.45594000000E+02  0.51100000000E-03 0. -1.
         11   -1    0    0    0    0 -0.00000000000E+00 -0.00000000000E+00 -0.45593999997E+02  0.45594000000E+02  0.51100000000E-03 0.  1.
    9900012    2    1    2    0    0 -0.19754116789E+02 -0.17523499852E+02 -0.17872107009E+02  0.59302103649E+02  0.50000291110E+02 0.  0.
         12    1    1    2    0    0  0.19754116789E+02  0.17523499852E+02  0.17872107009E+02  0.31885896351E+02  0.00000000000E+00 0. -1.
         11    1    3    3    0    0 -0.87680377577E+01  0.44975844423E+01  0.61952005962E+01  0.11639899597E+02  0.51100000000E-03 0. -1.
        -11    1    3    3    0    0 -0.13947597606E+02  0.41096648515E+01 -0.58625167327E+01  0.15677816394E+02  0.51100000000E-03 0.  1.
        -12    1    3    3    0    0  0.29615185750E+01 -0.26130749146E+02 -0.18204790872E+02  0.31984387659E+02  0.00000000000E+00 0.  1.
</event>
<event>
 7    1  0.1134395E-011  0.5930195E+02  0.7816164E-02  0.1266605E+00
        -11   -1    0    0    0    0  0.00000000000E+00  0.00000000000E+00  0.45593999997E+02  0.45594000000E+02  0.51100000000E-03 0.  1.
         11   -1    0    0    0    0 -0.00000000000E+00 -0.00000000000E+00 -0.45593999997E+02  0.45594000000E+02  0.51100000000E-03 0. -1.
    9900012    2    1    2    0    0  0.28349492279E+01 -0.29163566511E+02  0.12576561061E+02  0.59301946044E+02  0.50000003677E+02 0.  0.
         12    1    1    2    0    0 -0.28349492279E+01  0.29163566511E+02 -0.12576561061E+02  0.31886053956E+02  0.00000000000E+00 0. -1.
         11    1    3    3    0    0 -0.13043096932E+02 -0.16727643351E+02  0.42730031610E+01  0.21637813798E+02  0.51100000000E-03 0.  1.
        -11    1    3    3    0    0  0.87208640914E+01 -0.22635873462E+02  0.49077124008E+01  0.24749179363E+02  0.51100000000E-03 0. -1.
         12    1    3    3    0    0  0.71571820687E+01  0.10199950302E+02  0.33958454992E+01  0.12914952883E+02  0.00000000000E+00 0. -1.
</event>
<event>
 7    1  0.1134395E-011  0.5930190E+02  0.7816164E-02  0.1266605E+00
        -11   -1    0    0    0    0  0.00000000000E+00  0.00000000000E+00  0.45593999997E+02  0.45594000000E+02  0.51100000000E-03 0. -1.
         11   -1    0    0    0    0 -0.00000000000E+00 -0.00000000000E+00 -0.45593999997E+02  0.45594000000E+02  0.51100000000E-03 0.  1.
    9900012    2    1    2    0    0  0.20648737708E+01 -0.65687450572E+01 -0.31133760520E+02  0.59301903352E+02  0.49999925818E+02 0.  0.
         12    1    1    2    0    0 -0.20648737708E+01  0.65687450572E+01  0.31133760520E+02  0.31886096648E+02  0.00000000000E+00 0. -1.
         11    1    3    3    0    0  0.25306699446E+01  0.60226044807E+01  0.44212467720E+01  0.78881860006E+01  0.51100000000E-03 0. -1.
        -11    1    3    3    0    0  0.10779960777E+02 -0.14975145288E+02 -0.55287743991E+01  0.19262135846E+02  0.51100000000E-03 0.  1.
         12    1    3    3    0    0 -0.11245756951E+02  0.23837957498E+01 -0.30026232893E+02  0.32151581506E+02  0.00000000000E+00 0. -1.
</event>
<event>
 7    1  0.1134395E-011  0.5930195E+02  0.7816164E-02  0.1266605E+00
        -11   -1    0    0    0    0  0.00000000000E+00  0.00000000000E+00  0.45593999997E+02  0.45594000000E+02  0.51100000000E-03 0. -1.
         11   -1    0    0    0    0 -0.00000000000E+00 -0.00000000000E+00 -0.45593999997E+02  0.45594000000E+02  0.51100000000E-03 0.  1.
    9900012    2    1    2    0    0 -0.30594448650E+02  0.59269807040E+01  0.67505930206E+01  0.59301954548E+02  0.50000019186E+02 0.  0.
         12    1    1    2    0    0  0.30594448650E+02 -0.59269807040E+01 -0.67505930206E+01  0.31886045452E+02  0.00000000000E+00 0. -1.
         11    1    3    3    0    0 -0.36597562750E+01  0.29547375696E+00  0.69851729651E+01  0.78913726529E+01  0.51100000000E-03 0. -1.
        -11    1    3    3    0    0 -0.89702403965E+01 -0.38810000808E+01  0.20291285320E+02  0.22522513949E+02  0.51100000000E-03 0.  1.
        -12    1    3    3    0    0 -0.17964451978E+02  0.95125070278E+01 -0.20525865264E+02  0.28888067946E+02  0.00000000000E+00 0.  1.
</event>
<event>
 7    1  0.1134395E-011  0.5930180E+02  0.7816164E-02  0.1266605E+00
        -11   -1    0    0    0    0  0.00000000000E+00  0.00000000000E+00  0.45593999997E+02  0.45594000000E+02  0.51100000000E-03 0.  1.
         11   -1    0    0    0    0 -0.00000000000E+00 -0.00000000000E+00 -0.45593999997E+02  0.45594000000E+02  0.51100000000E-03 0. -1.
    9900012    2    1    2    0    0  0.13820357498E+02  0.21637263569E+02  0.18909163249E+02  0.59301797483E+02  0.49999732738E+02 0.  0.
         12    1    1    2    0    0 -0.13820357498E+02 -0.21637263569E+02 -0.18909163249E+02  0.31886202517E+02  0.00000000000E+00 0. -1.
         11    1    3    3    0    0  0.54939565128E+01  0.85458071217E+00  0.10882804410E+02  0.12220855062E+02  0.51100000000E-03 0. -1.
        -11    1    3    3    0    0 -0.12588399226E+02  0.28615112927E+01  0.13845547236E+02  0.18930272594E+02  0.51100000000E-03 0.  1.
        -12    1    3    3    0    0  0.20914800211E+02  0.17921171565E+02 -0.58191883977E+01  0.28150669827E+02  0.00000000000E+00 0.  1.
</event>
<event>
 7    1  0.1134395E-011  0.5930190E+02  0.7816164E-02  0.1266605E+00
        -11   -1    0    0    0    0  0.00000000000E+00  0.00000000000E+00  0.45593999997E+02  0.45594000000E+02  0.51100000000E-03 0.  1.
         11   -1    0    0    0    0 -0.00000000000E+00 -0.00000000000E+00 -0.45593999997E+02  0.45594000000E+02  0.51100000000E-03 0. -1.
    9900012    2    1    2    0    0  0.16042605672E+02  0.22657139525E+02  0.15684768105E+02  0.59301903991E+02  0.49999926982E+02 0.  0.
         12    1    1    2    0    0 -0.16042605672E+02 -0.22657139525E+02 -0.15684768105E+02  0.31886096009E+02  0.00000000000E+00 0. -1.
         11    1    3    3    0    0  0.80298083257E+01  0.10946825971E+02 -0.39558865195E+01  0.14140716354E+02  0.51100000000E-03 0. -1.
        -11    1    3    3    0    0  0.15912740695E+02  0.10795600680E+02 -0.44963010236E+01  0.19747836176E+02  0.51100000000E-03 0.  1.
        -12    1    3    3    0    0 -0.78999433483E+01  0.91471287374E+00  0.24136955648E+02  0.25413351461E+02  0.00000000000E+00 0.  1.
</event>
<event>
 7    1  0.1134395E-011  0.5930195E+02  0.7816164E-02  0.1266605E+00
        -11   -1    0    0    0    0  0.00000000000E+00  0.00000000000E+00  0.45593999997E+02  0.45594000000E+02  0.51100000000E-03 0.  1.
         11   -1    0    0    0    0 -0.00000000000E+00 -0.00000000000E+00 -0.45593999997E+02  0.45594000000E+02  0.51100000000E-03 0. -1.
    9900012    2    1    2    0    0  0.18388470664E+02 -0.24491189438E+02  0.88750327405E+01  0.59301946316E+02  0.50000004173E+02 0.  0.
         12    1    1    2    0    0 -0.18388470664E+02  0.24491189438E+02 -0.88750327405E+01  0.31886053684E+02  0.00000000000E+00 0. -1.
         11    1    3    3    0    0 -0.91515066271E+01 -0.10728586529E+02  0.12213512198E+02  0.18655361774E+02  0.51100000000E-03 0. -1.
        -11    1    3    3    0    0 -0.14133621977E+01 -0.55076623188E+01  0.68130143750E+01  0.88740690811E+01  0.51100000000E-03 0.  1.
         12    1    3    3    0    0  0.28953339488E+02 -0.82549405901E+01 -0.10151493832E+02  0.31772515461E+02  0.00000000000E+00 0. -1.
</event>
<event>
 7    1  0.1134395E-011  0.5930174E+02  0.7816164E-02  0.1266605E+00
        -11   -1    0    0    0    0  0.00000000000E+00  0.00000000000E+00  0.45593999997E+02  0.45594000000E+02  0.51100000000E-03 0.  1.
         11   -1    0    0    0    0 -0.00000000000E+00 -0.00000000000E+00 -0.45593999997E+02  0.45594000000E+02  0.51100000000E-03 0. -1.
    9900012    2    1    2    0    0 -0.19710634841E+02  0.47953086563E+01  0.24601411836E+02  0.59301740024E+02  0.49999627944E+02 0.  0.
         12    1    1    2    0    0  0.19710634841E+02 -0.47953086563E+01 -0.24601411836E+02  0.31886259976E+02  0.00000000000E+00 0. -1.
         11    1    3    3    0    0  0.75131087824E+01 -0.77259190537E+01 -0.78092224459E+01  0.13308665759E+02  0.51100000000E-03 0. -1.
        -11    1    3    3    0    0 -0.63050971857E+01 -0.25543316639E+01  0.58074542476E+01  0.89445729842E+01  0.51100000000E-03 0.  1.
        -12    1    3    3    0    0 -0.20918646438E+02  0.15075559374E+02  0.26603180034E+02  0.37048501281E+02  0.00000000000E+00 0.  1.
</event>
<event>
 7    1  0.1134395E-011  0.5930215E+02  0.7816164E-02  0.1266604E+00
        -11   -1    0    0    0    0  0.00000000000E+00  0.00000000000E+00  0.45593999997E+02  0.45594000000E+02  0.51100000000E-03 0. -1.
         11   -1    0    0    0    0 -0.00000000000E+00 -0.00000000000E+00 -0.45593999997E+02  0.45594000000E+02  0.51100000000E-03 0.  1.
    9900012    2    1    2    0    0 -0.17117714331E+02 -0.19363948866E+02 -0.18674287352E+02  0.59302146276E+02  0.50000368851E+02 0.  0.
         12    1    1    2    0    0  0.17117714331E+02  0.19363948866E+02  0.18674287352E+02  0.31885853724E+02  0.00000000000E+00 0. -1.
         11    1    3    3    0    0  0.60000492035E+01 -0.14438383935E+02 -0.13263180640E+02  0.20503157856E+02  0.51100000000E-03 0. -1.
        -11    1    3    3    0    0 -0.72507122789E+01 -0.16537149489E+02 -0.62802574587E+01  0.19117839202E+02  0.51100000000E-03 0.  1.
        -12    1    3    3    0    0 -0.15867051256E+02  0.11611584558E+02  0.86915074675E+00  0.19681149217E+02  0.00000000000E+00 0.  1.
</event>
<event>
 7    1  0.1134395E-011  0.5930194E+02  0.7816164E-02  0.1266605E+00
        -11   -1    0    0    0    0  0.00000000000E+00  0.00000000000E+00  0.45593999997E+02  0.45594000000E+02  0.51100000000E-03 0.  1.
         11   -1    0    0    0    0 -0.00000000000E+00 -0.00000000000E+00 -0.45593999997E+02  0.45594000000E+02  0.51100000000E-03 0. -1.
    9900012    2    1    2    0    0 -0.29889570252E+02  0.11096322323E+02  0.45383751188E+00  0.59301941174E+02  0.49999994795E+02 0.  0.
         12    1    1    2    0    0  0.29889570252E+02 -0.11096322323E+02 -0.45383751188E+00  0.31886058826E+02  0.00000000000E+00 0. -1.
         11    1    3    3    0    0 -0.27207072544E+00  0.13195141522E+01 -0.13937149244E+02  0.14002116604E+02  0.51100000000E-03 0. -1.
        -11    1    3    3    0    0 -0.12850567015E+02  0.18075663112E+02  0.83013559249E+00  0.22193598061E+02  0.51100000000E-03 0.  1.
         12    1    3    3    0    0 -0.16766932512E+02 -0.82988549405E+01  0.13560851164E+02  0.23106226509E+02  0.00000000000E+00 0. -1.
</event>
<event>
 7    1  0.1134395E-011  0.5930200E+02  0.7816164E-02  0.1266605E+00
        -11   -1    0    0    0    0  0.00000000000E+00  0.00000000000E+00  0.45593999997E+02  0.45594000000E+02  0.51100000000E-03 0. -1.
         11   -1    0    0    0    0 -0.00000000000E+00 -0.00000000000E+00 -0.45593999997E+02  0.45594000000E+02  0.51100000000E-03 0.  1.
    9900012    2    1    2    0    0  0.24776933946E+02 -0.19457799899E+02 -0.49208053224E+01  0.59302003736E+02  0.50000108894E+02 0.  0.
         12    1    1    2    0    0 -0.24776933946E+02  0.19457799899E+02  0.49208053224E+01  0.31885996264E+02  0.00000000000E+00 0. -1.
         11    1    3    3    0    0 -0.19092117812E+01  0.12064878238E+02  0.55976281171E+01  0.13436510608E+02  0.51100000000E-03 0. -1.
        -11    1    3    3    0    0  0.19426590217E+02 -0.10424038049E+02 -0.26461775306E+01  0.22204847049E+02  0.51100000000E-03 0.  1.
        -12    1    3    3    0    0  0.72595555108E+01 -0.21098640088E+02 -0.78722559088E+01  0.23660646079E+02  0.00000000000E+00 0.  1.
</event>
<event>
 7    1  0.1134395E-011  0.5930198E+02  0.7816164E-02  0.1266605E+00
        -11   -1    0    0    0    0  0.00000000000E+00  0.00000000000E+00  0.45593999997E+02  0.45594000000E+02  0.51100000000E-03 0.  1.
         11   -1    0    0    0    0 -0.00000000000E+00 -0.00000000000E+00 -0.45593999997E+02  0.45594000000E+02  0.51100000000E-03 0. -1.
    9900012    2    1    2    0    0 -0.30364750480E+02  0.41619938191E+01  0.87964736169E+01  0.59301980926E+02  0.50000067294E+02 0.  0.
         12    1    1    2    0    0  0.30364750480E+02 -0.41619938191E+01 -0.87964736169E+01  0.31886019074E+02  0.00000000000E+00 0. -1.
         11    1    3    3    0    0 -0.67436317521E+01  0.91213203100E+01 -0.47372912387E+01  0.12292964734E+02  0.51100000000E-03 0. -1.
        -11    1    3    3    0    0  0.65033107929E+01  0.94843418107E+01  0.49216632263E+01  0.12508739346E+02  0.51100000000E-03 0.  1.
        -12    1    3    3    0    0 -0.30124429521E+02 -0.14443668302E+02  0.86121016293E+01  0.34500276846E+02  0.00000000000E+00 0.  1.
</event>
<event>
 7    1  0.1134395E-011  0.5930219E+02  0.7816164E-02  0.1266604E+00
        -11   -1    0    0    0    0  0.00000000000E+00  0.00000000000E+00  0.45593999997E+02  0.45594000000E+02  0.51100000000E-03 0. -1.
         11   -1    0    0    0    0 -0.00000000000E+00 -0.00000000000E+00 -0.45593999997E+02  0.45594000000E+02  0.51100000000E-03 0.  1.
    9900012    2    1    2    0    0  0.42785913024E+01  0.27671873554E+02 -0.15253389675E+02  0.59302190835E+02  0.50000450115E+02 0.  0.
         12    1    1    2    0    0 -0.42785913024E+01 -0.27671873554E+02  0.15253389675E+02  0.31885809165E+02  0.00000000000E+00 0. -1.
         11    1    3    3    0    0 -0.97889100585E+01  0.37740232158E+01  0.11033086423E+01  0.10549090083E+02  0.51100000000E-03 0. -1.
        -11    1    3    3    0    0 -0.95524774753E+01  0.17477052531E+02 -0.11788619962E+01  0.19952115350E+02  0.51100000000E-03 0.  1.
        -12    1    3    3    0    0  0.23619978836E+02  0.64207978075E+01 -0.15177836321E+02  0.28800985402E+02  0.00000000000E+00 0.  1.
</event>
<event>
 7    1  0.1134395E-011  0.5930194E+02  0.7816164E-02  0.1266605E+00
        -11   -1    0    0    0    0  0.00000000000E+00  0.00000000000E+00  0.45593999997E+02  0.45594000000E+02  0.51100000000E-03 0. -1.
         11   -1    0    0    0    0 -0.00000000000E+00 -0.00000000000E+00 -0.45593999997E+02  0.45594000000E+02  0.51100000000E-03 0.  1.
    9900012    2    1    2    0    0  0.10634246629E+02  0.35504572812E+01 -0.29850091301E+02  0.59301938798E+02  0.49999990463E+02 0.  0.
         12    1    1    2    0    0 -0.10634246629E+02 -0.35504572812E+01  0.29850091301E+02  0.31886061202E+02  0.00000000000E+00 0. -1.
         11    1    3    3    0    0 -0.67154916757E+01  0.87634233544E+01  0.38403135685E+01  0.11689457896E+02  0.51100000000E-03 0. -1.
        -11    1    3    3    0    0 -0.68353013852E+01 -0.48377031116E+00 -0.15610870703E+02  0.17048597101E+02  0.51100000000E-03 0.  1.
        -12    1    3    3    0    0  0.24185039690E+02 -0.47291957620E+01 -0.18079534167E+02  0.30563883802E+02  0.00000000000E+00 0.  1.
</event>
<event>
 7    1  0.1134395E-011  0.5930195E+02  0.7816164E-02  0.1266605E+00
        -11   -1    0    0    0    0  0.00000000000E+00  0.00000000000E+00  0.45593999997E+02  0.45594000000E+02  0.51100000000E-03 0.  1.
         11   -1    0    0    0    0 -0.00000000000E+00 -0.00000000000E+00 -0.45593999997E+02  0.45594000000E+02  0.51100000000E-03 0. -1.
    9900012    2    1    2    0    0  0.27061487195E+02  0.16765747356E+02 -0.18182703843E+01  0.59301945355E+02  0.50000002421E+02 0.  0.
         12    1    1    2    0    0 -0.27061487195E+02 -0.16765747356E+02  0.18182703843E+01  0.31886054645E+02  0.00000000000E+00 0. -1.
         11    1    3    3    0    0  0.12432654082E+02  0.75606399936E+01 -0.48942298661E+01  0.15352122031E+02  0.51100000000E-03 0. -1.
        -11    1    3    3    0    0  0.84534836854E+01  0.84610677579E+01  0.21445793769E+02  0.24555511085E+02  0.51100000000E-03 0.  1.
         12    1    3    3    0    0  0.61753494279E+01  0.74403960459E+00 -0.18369834287E+02  0.19394312239E+02  0.00000000000E+00 0. -1.
</event>
<event>
 7    1  0.1134395E-011  0.5930189E+02  0.7816164E-02  0.1266605E+00
        -11   -1    0    0    0    0  0.00000000000E+00  0.00000000000E+00  0.45593999997E+02  0.45594000000E+02  0.51100000000E-03 0. -1.
         11   -1    0    0    0    0 -0.00000000000E+00 -0.00000000000E+00 -0.45593999997E+02  0.45594000000E+02  0.51100000000E-03 0.  1.
    9900012    2    1    2    0    0 -0.30728448094E+02 -0.53030610379E+01 -0.66606356489E+01  0.59301889452E+02  0.49999900466E+02 0.  0.
         12    1    1    2    0    0  0.30728448094E+02  0.53030610379E+01  0.66606356489E+01  0.31886110548E+02  0.00000000000E+00 0. -1.
         11    1    3    3    0    0 -0.14509812760E+02 -0.56119032067E+01  0.86599922549E+01  0.17805156277E+02  0.51100000000E-03 0. -1.
        -11    1    3    3    0    0 -0.52934449075E+01 -0.99185896472E+01  0.79921202986E+01  0.13793946741E+02  0.51100000000E-03 0.  1.
        -12    1    3    3    0    0 -0.10925190427E+02  0.10227431816E+02 -0.23312748202E+02  0.27702786433E+02  0.00000000000E+00 0.  1.
</event>
<event>
 7    1  0.1134395E-011  0.5930194E+02  0.7816164E-02  0.1266605E+00
        -11   -1    0    0    0    0  0.00000000000E+00  0.00000000000E+00  0.45593999997E+02  0.45594000000E+02  0.51100000000E-03 0. -1.
         11   -1    0    0    0    0 -0.00000000000E+00 -0.00000000000E+00 -0.45593999997E+02  0.45594000000E+02  0.51100000000E-03 0.  1.
    9900012    2    1    2    0    0 -0.11942828103E+02 -0.10905725096E+02 -0.27480078883E+02  0.59301941630E+02  0.49999995626E+02 0.  0.
         12    1    1    2    0    0  0.11942828103E+02  0.10905725096E+02  0.27480078883E+02  0.31886058370E+02  0.00000000000E+00 0. -1.
         11    1    3    3    0    0 -0.39438080768E+00 -0.12029132146E+00  0.20954674089E+00  0.46251088768E+00  0.51100000000E-03 0. -1.
        -11    1    3    3    0    0  0.14786391237E+01 -0.14847640939E+02 -0.38590157496E+02  0.41374376986E+02  0.51100000000E-03 0.  1.
         12    1    3    3    0    0 -0.13027086419E+02  0.40622071643E+01  0.10900531872E+02  0.17465053756E+02  0.00000000000E+00 0. -1.
</event>
<event>
 7    1  0.1134395E-011  0.5930193E+02  0.7816164E-02  0.1266605E+00
        -11   -1    0    0    0    0  0.00000000000E+00  0.00000000000E+00  0.45593999997E+02  0.45594000000E+02  0.51100000000E-03 0.  1.
         11   -1    0    0    0    0 -0.00000000000E+00 -0.00000000000E+00 -0.45593999997E+02  0.45594000000E+02  0.51100000000E-03 0. -1.
    9900012    2    1    2    0    0  0.31404084555E+02  0.37750794890E+00 -0.55101970412E+01  0.59301932347E+02  0.49999978696E+02 0.  0.
         12    1    1    2    0    0 -0.31404084555E+02 -0.37750794890E+00  0.55101970412E+01  0.31886067653E+02  0.00000000000E+00 0. -1.
         11    1    3    3    0    0 -0.60354295916E+01 -0.39054414770E+01 -0.43667375929E+01  0.84111402885E+01  0.51100000000E-03 0. -1.
        -11    1    3    3    0    0  0.13968360761E+02  0.18664218774E+02 -0.15158250082E+01  0.23361632874E+02  0.51100000000E-03 0.  1.
        -12    1    3    3    0    0  0.23471153385E+02 -0.14381269348E+02  0.37236555987E+00  0.27529159185E+02  0.00000000000E+00 0.  1.
</event>
<event>
 7    1  0.1134395E-011  0.5930192E+02  0.7816164E-02  0.1266605E+00
        -11   -1    0    0    0    0  0.00000000000E+00  0.00000000000E+00  0.45593999997E+02  0.45594000000E+02  0.51100000000E-03 0.  1.
         11   -1    0    0    0    0 -0.00000000000E+00 -0.00000000000E+00 -0.45593999997E+02  0.45594000000E+02  0.51100000000E-03 0. -1.
    9900012    2    1    2    0    0  0.17233330394E+01  0.26955976330E+01  0.31725167422E+02  0.59301915710E+02  0.49999948356E+02 0.  0.
         12    1    1    2    0    0 -0.17233330394E+01 -0.26955976330E+01 -0.31725167422E+02  0.31886084290E+02  0.00000000000E+00 0. -1.
         11    1    3    3    0    0 -0.13258644244E+00 -0.29964073981E+01  0.24430966559E+02  0.24614389363E+02  0.51100000000E-03 0. -1.
        -11    1    3    3    0    0  0.72798093878E+01  0.14701005493E+02  0.14536942873E+02  0.21918893575E+02  0.51100000000E-03 0.  1.
         12    1    3    3    0    0 -0.54238899060E+01 -0.90090004620E+01 -0.72427420093E+01  0.12768632771E+02  0.00000000000E+00 0. -1.
</event>
<event>
 7    1  0.1134395E-011  0.5930198E+02  0.7816164E-02  0.1266605E+00
        -11   -1    0    0    0    0  0.00000000000E+00  0.00000000000E+00  0.45593999997E+02  0.45594000000E+02  0.51100000000E-03 0. -1.
         11   -1    0    0    0    0 -0.00000000000E+00 -0.00000000000E+00 -0.45593999997E+02  0.45594000000E+02  0.51100000000E-03 0.  1.
    9900012    2    1    2    0    0 -0.17899392224E+02  0.52519900967E+01  0.25860132295E+02  0.59301982934E+02  0.50000070956E+02 0.  0.
         12    1    1    2    0    0  0.17899392224E+02 -0.52519900967E+01 -0.25860132295E+02  0.31886017066E+02  0.00000000000E+00 0. -1.
         11    1    3    3    0    0 -0.41068980217E+01 -0.16645498822E+02  0.24197226410E+02  0.29655438095E+02  0.51100000000E-03 0. -1.
        -11    1    3    3    0    0 -0.50136617973E+01  0.11654732735E+02  0.77280730139E+01  0.14855729956E+02  0.51100000000E-03 0.  1.
        -12    1    3    3    0    0 -0.87788324055E+01  0.10242756183E+02 -0.60651671285E+01  0.14790814884E+02  0.00000000000E+00 0.  1.
</event>
<event>
 7    1  0.1134395E-011  0.5930193E+02  0.7816164E-02  0.1266605E+00
        -11   -1    0    0    0    0  0.00000000000E+00  0.00000000000E+00  0.45593999997E+02  0.45594000000E+02  0.51100000000E-03 0. -1.
         11   -1    0    0    0    0 -0.00000000000E+00 -0.00000000000E+00 -0.45593999997E+02  0.45594000000E+02  0.51100000000E-03 0.  1.
    9900012    2    1    2    0    0  0.10475931411E+01 -0.23781561856E+02 -0.21214652964E+02  0.59301927239E+02  0.49999969382E+02 0.  0.
         12    1    1    2    0    0 -0.10475931411E+01  0.23781561856E+02  0.21214652964E+02  0.31886072761E+02  0.00000000000E+00 0. -1.
         11    1    3    3    0    0  0.62333931312E+01  0.80175899375E+01  0.30517455065E+01  0.10604248641E+02  0.51100000000E-03 0. -1.
        -11    1    3    3    0    0  0.19193525739E+01 -0.94519184247E+00  0.50896126977E+01  0.55210016841E+01  0.51100000000E-03 0.  1.
        -12    1    3    3    0    0 -0.71051525640E+01 -0.30853959951E+02 -0.29356011169E+02  0.43176676914E+02  0.00000000000E+00 0.  1.
</event>
<event>
 7    1  0.1134395E-011  0.5930188E+02  0.7816164E-02  0.1266605E+00
        -11   -1    0    0    0    0  0.00000000000E+00  0.00000000000E+00  0.45593999997E+02  0.45594000000E+02  0.51100000000E-03 0.  1.
         11   -1    0    0    0    0 -0.00000000000E+00 -0.00000000000E+00 -0.45593999997E+02  0.45594000000E+02  0.51100000000E-03 0. -1.
    9900012    2    1    2    0    0 -0.11738964231E+02  0.14629725089E+02  0.25785513702E+02  0.59301876775E+02  0.49999877348E+02 0.  0.
         12    1    1    2    0    0  0.11738964231E+02 -0.14629725089E+02 -0.25785513702E+02  0.31886123225E+02  0.00000000000E+00 0. -1.
         11    1    3    3    0    0  0.94210739844E+01  0.23174178619E+01 -0.11603734473E+00  0.97026040573E+01  0.51100000000E-03 0. -1.
        -11    1    3    3    0    0  0.27992547791E+01 -0.52250475912E+01 -0.42411546068E+01  0.72886447511E+01  0.51100000000E-03 0.  1.
        -12    1    3    3    0    0 -0.23959292995E+02  0.17537354818E+02  0.30142705654E+02  0.42310627967E+02  0.00000000000E+00 0.  1.
</event>
<event>
 7    1  0.1134395E-011  0.5930195E+02  0.7816164E-02  0.1266605E+00
        -11   -1    0    0    0    0  0.00000000000E+00  0.00000000000E+00  0.45593999997E+02  0.45594000000E+02  0.51100000000E-03 0.  1.
         11   -1    0    0    0    0 -0.00000000000E+00 -0.00000000000E+00 -0.45593999997E+02  0.45594000000E+02  0.51100000000E-03 0. -1.
    9900012    2    1    2    0    0  0.20700806618E+01 -0.15267716817E+02  0.27916518993E+02  0.59301945941E+02  0.50000003490E+02 0.  0.
         12    1    1    2    0    0 -0.20700806618E+01  0.15267716817E+02 -0.27916518993E+02  0.31886054059E+02  0.00000000000E+00 0. -1.
         11    1    3    3    0    0  0.10897776508E+02 -0.15729357854E+02  0.15313812879E+02  0.24508918712E+02  0.51100000000E-03 0. -1.
        -11    1    3    3    0    0 -0.31730623903E+01 -0.15088340839E+02  0.31493855604E+01  0.15736739938E+02  0.51100000000E-03 0.  1.
        -12    1    3    3    0    0 -0.56546334557E+01  0.15549981875E+02  0.94533205539E+01  0.19056287291E+02  0.00000000000E+00 0.  1.
</event>
<event>
 7    1  0.1134395E-011  0.5930194E+02  0.7816164E-02  0.1266605E+00
        -11   -1    0    0    0    0  0.00000000000E+00  0.00000000000E+00  0.45593999997E+02  0.45594000000E+02  0.51100000000E-03 0. -1.
         11   -1    0    0    0    0 -0.00000000000E+00 -0.00000000000E+00 -0.45593999997E+02  0.45594000000E+02  0.51100000000E-03 0.  1.
    9900012    2    1    2    0    0 -0.56204673658E+01  0.24933636999E+02 -0.19064232701E+02  0.59301939160E+02  0.49999991123E+02 0.  0.
         12    1    1    2    0    0  0.56204673658E+01 -0.24933636999E+02  0.19064232701E+02  0.31886060840E+02  0.00000000000E+00 0. -1.
         11    1    3    3    0    0 -0.12587405696E+02  0.21052474750E+01  0.58416682499E+01  0.14035666614E+02  0.51100000000E-03 0. -1.
        -11    1    3    3    0    0 -0.32497001289E+01  0.22146285193E+02 -0.50804803229E+01  0.22952772803E+02  0.51100000000E-03 0.  1.
         12    1    3    3    0    0  0.10216638459E+02  0.68210433088E+00 -0.19825420628E+02  0.22313499744E+02  0.00000000000E+00 0. -1.
</event>
<event>
 7    1  0.1134395E-011  0.5930195E+02  0.7816164E-02  0.1266605E+00
        -11   -1    0    0    0    0  0.00000000000E+00  0.00000000000E+00  0.45593999997E+02  0.45594000000E+02  0.51100000000E-03 0.  1.
         11   -1    0    0    0    0 -0.00000000000E+00 -0.00000000000E+00 -0.45593999997E+02  0.45594000000E+02  0.51100000000E-03 0. -1.
    9900012    2    1    2    0    0 -0.25044578929E+02  0.66528176473E+01  0.18580342898E+02  0.59301951976E+02  0.50000014496E+02 0.  0.
         12    1    1    2    0    0  0.25044578929E+02 -0.66528176473E+01 -0.18580342898E+02  0.31886048024E+02  0.00000000000E+00 0. -1.
         11    1    3    3    0    0 -0.19998614884E+02 -0.30688749830E+01  0.71260269275E+01  0.21450940562E+02  0.51100000000E-03 0. -1.
        -11    1    3    3    0    0 -0.13600639484E+02 -0.61368866102E+01  0.12967849733E+02  0.19768760674E+02  0.51100000000E-03 0.  1.
         12    1    3    3    0    0  0.85546754391E+01  0.15858579240E+02 -0.15135337627E+01  0.18082250741E+02  0.00000000000E+00 0. -1.
</event>
<event>
 7    1  0.1134395E-011  0.5930191E+02  0.7816164E-02  0.1266605E+00
        -11   -1    0    0    0    0  0.00000000000E+00  0.00000000000E+00  0.45593999997E+02  0.45594000000E+02  0.51100000000E-03 0.  1.
         11   -1    0    0    0    0 -0.00000000000E+00 -0.00000000000E+00 -0.45593999997E+02  0.45594000000E+02  0.51100000000E-03 0. -1.
    9900012    2    1    2    0    0 -0.22571992634E+02 -0.15942328794E+02 -0.15908181283E+02  0.59301906941E+02  0.49999932362E+02 0.  0.
         12    1    1    2    0    0  0.22571992634E+02  0.15942328794E+02  0.15908181283E+02  0.31886093059E+02  0.00000000000E+00 0. -1.
         11    1    3    3    0    0 -0.24199704053E+02  0.88544396122E+01 -0.97322908030E+01  0.27545312879E+02  0.51100000000E-03 0. -1.
        -11    1    3    3    0    0 -0.54474385487E+01 -0.57999916717E+01  0.41853020965E+01  0.89906197803E+01  0.51100000000E-03 0.  1.
         12    1    3    3    0    0  0.70751499670E+01 -0.18996776735E+02 -0.10361192576E+02  0.22765974281E+02  0.00000000000E+00 0. -1.
</event>
<event>
 7    1  0.1134395E-011  0.5930189E+02  0.7816164E-02  0.1266605E+00
        -11   -1    0    0    0    0  0.00000000000E+00  0.00000000000E+00  0.45593999997E+02  0.45594000000E+02  0.51100000000E-03 0. -1.
         11   -1    0    0    0    0 -0.00000000000E+00 -0.00000000000E+00 -0.45593999997E+02  0.45594000000E+02  0.51100000000E-03 0.  1.
    9900012    2    1    2    0    0 -0.27755495523E+02  0.15515070113E+02 -0.23746989898E+01  0.59301888170E+02  0.49999898129E+02 0.  0.
         12    1    1    2    0    0  0.27755495523E+02 -0.15515070113E+02  0.23746989898E+01  0.31886111830E+02  0.00000000000E+00 0. -1.
         11    1    3    3    0    0 -0.65774114941E+01  0.37361412830E+01  0.51691239916E+01  0.91619286589E+01  0.51100000000E-03 0. -1.
        -11    1    3    3    0    0 -0.15670638704E+02  0.28193005656E+02 -0.49985658567E+01  0.32640467922E+02  0.51100000000E-03 0.  1.
         12    1    3    3    0    0 -0.55074453246E+01 -0.16414076826E+02 -0.25452571246E+01  0.17499491589E+02  0.00000000000E+00 0. -1.
</event>
<event>
 7    1  0.1134395E-011  0.5930194E+02  0.7816164E-02  0.1266605E+00
        -11   -1    0    0    0    0  0.00000000000E+00  0.00000000000E+00  0.45593999997E+02  0.45594000000E+02  0.51100000000E-03 0.  1.
         11   -1    0    0    0    0 -0.00000000000E+00 -0.00000000000E+00 -0.45593999997E+02  0.45594000000E+02  0.51100000000E-03 0. -1.
    9900012    2    1    2    0    0 -0.18163202611E+01  0.11913758263E+02  0.29520906318E+02  0.59301944033E+02  0.50000000010E+02 0.  0.
         12    1    1    2    0    0  0.18163202611E+01 -0.11913758263E+02 -0.29520906318E+02  0.31886055967E+02  0.00000000000E+00 0. -1.
         11    1    3    3    0    0 -0.14524475324E+02  0.91139432740E+01  0.20848312127E+02  0.26994007933E+02  0.51100000000E-03 0. -1.
        -11    1    3    3    0    0  0.96884890800E+01 -0.47898590577E+01  0.17318165708E+02  0.20413927456E+02  0.51100000000E-03 0.  1.
         12    1    3    3    0    0  0.30196659829E+01  0.75896740471E+01 -0.86455715167E+01  0.11894008645E+02  0.00000000000E+00 0. -1.
</event>
<event>
 7    1  0.1134395E-011  0.5930194E+02  0.7816164E-02  0.1266605E+00
        -11   -1    0    0    0    0  0.00000000000E+00  0.00000000000E+00  0.45593999997E+02  0.45594000000E+02  0.51100000000E-03 0.  1.
         11   -1    0    0    0    0 -0.00000000000E+00 -0.00000000000E+00 -0.45593999997E+02  0.45594000000E+02  0.51100000000E-03 0. -1.
    9900012    2    1    2    0    0  0.84299996634E+01  0.17082500720E+02  0.25570379984E+02  0.59301936309E+02  0.49999985922E+02 0.  0.
         12    1    1    2    0    0 -0.84299996634E+01 -0.17082500720E+02 -0.25570379984E+02  0.31886063691E+02  0.00000000000E+00 0. -1.
         11    1    3    3    0    0  0.75780238135E+01  0.20342943853E+02 -0.79605992492E+01  0.23122131177E+02  0.51100000000E-03 0. -1.
        -11    1    3    3    0    0  0.70192821004E+01 -0.18982694050E+01  0.17696437042E+02  0.19132109977E+02  0.51100000000E-03 0.  1.
        -12    1    3    3    0    0 -0.61673062504E+01 -0.13621737277E+01  0.15834542191E+02  0.17047695154E+02  0.00000000000E+00 0.  1.
</event>
<event>
 7    1  0.1134395E-011  0.5930201E+02  0.7816164E-02  0.1266605E+00
        -11   -1    0    0    0    0  0.00000000000E+00  0.00000000000E+00  0.45593999997E+02  0.45594000000E+02  0.51100000000E-03 0.  1.
         11   -1    0    0    0    0 -0.00000000000E+00 -0.00000000000E+00 -0.45593999997E+02  0.45594000000E+02  0.51100000000E-03 0. -1.
    9900012    2    1    2    0    0  0.14954031049E+01 -0.11603030912E+02  0.29662262721E+02  0.59302009557E+02  0.50000119510E+02 0.  0.
         12    1    1    2    0    0 -0.14954031049E+01  0.11603030912E+02 -0.29662262721E+02  0.31885990443E+02  0.00000000000E+00 0. -1.
         11    1    3    3    0    0  0.11887680527E+01  0.88740484392E+01  0.26881706669E-01  0.89533584800E+01  0.51100000000E-03 0. -1.
        -11    1    3    3    0    0  0.37054499702E+01 -0.28397614918E+02  0.12662679086E+02  0.31312910028E+02  0.51100000000E-03 0.  1.
         12    1    3    3    0    0 -0.33988149180E+01  0.79205355674E+01  0.16972701929E+02  0.19035741049E+02  0.00000000000E+00 0. -1.
</event>
<event>
 7    1  0.1157828E-011  0.5930193E+02  0.7816164E-02  0.1266605E+00
        -11   -1    0    0    0    0  0.00000000000E+00  0.00000000000E+00  0.45593999997E+02  0.45594000000E+02  0.51100000000E-03 0. -1.
         11   -1    0    0    0    0 -0.00000000000E+00 -0.00000000000E+00 -0.45593999997E+02  0.45594000000E+02  0.51100000000E-03 0.  1.
    9900012    2    1    2    0    0  0.18725062117E+02 -0.13835356445E+02 -0.21787068684E+02  0.59301930924E+02  0.49999976102E+02 0.  0.
         12    1    1    2    0    0 -0.18725062117E+02  0.13835356445E+02  0.21787068684E+02  0.31886069076E+02  0.00000000000E+00 0. -1.
         11    1    3    3    0    0  0.45563229866E+01  0.45174002903E+00  0.10079948263E+02  0.11071111302E+02  0.51100000000E-03 0. -1.
        -11    1    3    3    0    0  0.18474528707E+02 -0.18479774616E+02 -0.14567075586E+02  0.29916717269E+02  0.51100000000E-03 0.  1.
         12    1    3    3    0    0 -0.43057895759E+01  0.41926781413E+01 -0.17299941362E+02  0.18314102353E+02  0.00000000000E+00 0. -1.
</event>
<event>
 7    1  0.1134395E-011  0.5930194E+02  0.7816164E-02  0.1266605E+00
        -11   -1    0    0    0    0  0.00000000000E+00  0.00000000000E+00  0.45593999997E+02  0.45594000000E+02  0.51100000000E-03 0. -1.
         11   -1    0    0    0    0 -0.00000000000E+00 -0.00000000000E+00 -0.45593999997E+02  0.45594000000E+02  0.51100000000E-03 0.  1.
    9900012    2    1    2    0    0 -0.13168139239E+02 -0.28568020874E+02 -0.52143203444E+01  0.59301939655E+02  0.49999992025E+02 0.  0.
         12    1    1    2    0    0  0.13168139239E+02  0.28568020874E+02  0.52143203444E+01  0.31886060345E+02  0.00000000000E+00 0. -1.
         11    1    3    3    0    0 -0.41473086353E+01  0.36455383284E+01  0.38974719126E+01  0.67587281489E+01  0.51100000000E-03 0. -1.
        -11    1    3    3    0    0 -0.23757360881E+02 -0.18817570351E+02  0.75789762638E+00  0.30316456900E+02  0.51100000000E-03 0.  1.
         12    1    3    3    0    0  0.14736530277E+02 -0.13395988852E+02 -0.98696898834E+01  0.22226754606E+02  0.00000000000E+00 0. -1.
</event>
<event>
 7    1  0.1134395E-011  0.5930192E+02  0.7816164E-02  0.1266605E+00
        -11   -1    0    0    0    0  0.00000000000E+00  0.00000000000E+00  0.45593999997E+02  0.45594000000E+02  0.51100000000E-03 0. -1.
         11   -1    0    0    0    0 -0.00000000000E+00 -0.00000000000E+00 -0.45593999997E+02  0.45594000000E+02  0.51100000000E-03 0.  1.
    9900012    2    1    2    0    0  0.21750125467E+02 -0.71794502308E+01 -0.22183541047E+02  0.59301922210E+02  0.49999960209E+02 0.  0.
         12    1    1    2    0    0 -0.21750125467E+02  0.71794502308E+01  0.22183541047E+02  0.31886077790E+02  0.00000000000E+00 0. -1.
         11    1    3    3    0    0  0.20527906663E+02 -0.31604772627E+01 -0.32680075389E+01  0.21025304802E+02  0.51100000000E-03 0. -1.
        -11    1    3    3    0    0  0.16565189957E+02  0.12243219070E+01 -0.64266915630E+01  0.17810301714E+02  0.51100000000E-03 0.  1.
        -12    1    3    3    0    0 -0.15342971153E+02 -0.52432948751E+01 -0.12488841945E+02  0.20466315694E+02  0.00000000000E+00 0.  1.
</event>
<event>
 7    1  0.1134395E-011  0.5930235E+02  0.7816164E-02  0.1266603E+00
        -11   -1    0    0    0    0  0.00000000000E+00  0.00000000000E+00  0.45593999997E+02  0.45594000000E+02  0.51100000000E-03 0.  1.
         11   -1    0    0    0    0 -0.00000000000E+00 -0.00000000000E+00 -0.45593999997E+02  0.45594000000E+02  0.51100000000E-03 0. -1.
    9900012    2    1    2    0    0 -0.14508413721E+02  0.25400210984E+02 -0.12689750389E+02  0.59302351948E+02  0.50000743944E+02 0.  0.
         12    1    1    2    0    0  0.14508413721E+02 -0.25400210984E+02  0.12689750389E+02  0.31885648052E+02  0.00000000000E+00 0. -1.
         11    1    3    3    0    0  0.28006618695E+01  0.21834041005E+02 -0.44704703715E+01  0.22462283035E+02  0.51100000000E-03 0. -1.
        -11    1    3    3    0    0 -0.31399648331E+01  0.10957481536E+01  0.11760578969E+02  0.12221753602E+02  0.51100000000E-03 0.  1.
         12    1    3    3    0    0 -0.14169110758E+02  0.24704218250E+01 -0.19979858987E+02  0.24618315312E+02  0.00000000000E+00 0. -1.
</event>
<event>
 7    1  0.1134395E-011  0.5930193E+02  0.7816164E-02  0.1266605E+00
        -11   -1    0    0    0    0  0.00000000000E+00  0.00000000000E+00  0.45593999997E+02  0.45594000000E+02  0.51100000000E-03 0.  1.
         11   -1    0    0    0    0 -0.00000000000E+00 -0.00000000000E+00 -0.45593999997E+02  0.45594000000E+02  0.51100000000E-03 0. -1.
    9900012    2    1    2    0    0 -0.23330343098E+02 -0.20771058962E+02  0.64015182712E+01  0.59301933519E+02  0.49999980835E+02 0.  0.
         12    1    1    2    0    0  0.23330343098E+02  0.20771058962E+02 -0.64015182712E+01  0.31886066481E+02  0.00000000000E+00 0. -1.
         11    1    3    3    0    0 -0.12184538772E+02  0.36795894161E+01 -0.75844153837E+01  0.14816400384E+02  0.51100000000E-03 0. -1.
        -11    1    3    3    0    0 -0.24244645867E+01  0.11880029755E+01 -0.87303116084E+01  0.91382558862E+01  0.51100000000E-03 0.  1.
        -12    1    3    3    0    0 -0.87213397393E+01 -0.25638651353E+02  0.22716245263E+02  0.35347277249E+02  0.00000000000E+00 0.  1.
</event>
<event>
 7    1  0.1154666E-011  0.5930194E+02  0.7816164E-02  0.1266605E+00
        -11   -1    0    0    0    0  0.00000000000E+00  0.00000000000E+00  0.45593999997E+02  0.45594000000E+02  0.51100000000E-03 0. -1.
         11   -1    0    0    0    0 -0.00000000000E+00 -0.00000000000E+00 -0.45593999997E+02  0.45594000000E+02  0.51100000000E-03 0.  1.
    9900012    2    1    2    0    0  0.47237590042E+01 -0.17767511349E+02 -0.26052296693E+02  0.59301944715E+02  0.50000001253E+02 0.  0.
         12    1    1    2    0    0 -0.47237590042E+01  0.17767511349E+02  0.26052296693E+02  0.31886055285E+02  0.00000000000E+00 0. -1.
         11    1    3    3    0    0 -0.10342996587E+02 -0.18102481754E+01  0.80140910931E+01  0.13209096607E+02  0.51100000000E-03 0. -1.
        -11    1    3    3    0    0  0.38767276973E+01  0.28132448444E+01 -0.18887909033E+02  0.19485801808E+02  0.51100000000E-03 0.  1.
        -12    1    3    3    0    0  0.11190027894E+02 -0.18770508018E+02 -0.15178478753E+02  0.26607046300E+02  0.00000000000E+00 0.  1.
</event>
<event>
 7    1  0.1134395E-011  0.5930196E+02  0.7816164E-02  0.1266605E+00
        -11   -1    0    0    0    0  0.00000000000E+00  0.00000000000E+00  0.45593999997E+02  0.45594000000E+02  0.51100000000E-03 0. -1.
         11   -1    0    0    0    0 -0.00000000000E+00 -0.00000000000E+00 -0.45593999997E+02  0.45594000000E+02  0.51100000000E-03 0.  1.
    9900012    2    1    2    0    0  0.22751011466E+02 -0.19277058047E+02 -0.11291871928E+02  0.59301955070E+02  0.50000020138E+02 0.  0.
         12    1    1    2    0    0 -0.22751011466E+02  0.19277058047E+02  0.11291871928E+02  0.31886044930E+02  0.00000000000E+00 0. -1.
         11    1    3    3    0    0  0.20817695749E+02 -0.15826870461E+01  0.79812065188E+01  0.22351308962E+02  0.51100000000E-03 0. -1.
        -11    1    3    3    0    0  0.83365006120E+01 -0.15622370958E+01 -0.17570956574E+02  0.19510928793E+02  0.51100000000E-03 0.  1.
         12    1    3    3    0    0 -0.64031848947E+01 -0.16132133905E+02 -0.17021218728E+01  0.17439717314E+02  0.00000000000E+00 0. -1.
</event>
<event>
 7    1  0.1134395E-011  0.5930195E+02  0.7816164E-02  0.1266605E+00
        -11   -1    0    0    0    0  0.00000000000E+00  0.00000000000E+00  0.45593999997E+02  0.45594000000E+02  0.51100000000E-03 0. -1.
         11   -1    0    0    0    0 -0.00000000000E+00 -0.00000000000E+00 -0.45593999997E+02  0.45594000000E+02  0.51100000000E-03 0.  1.
    9900012    2    1    2    0    0  0.27080740767E+02  0.13628463340E+02 -0.98802196393E+01  0.59301948604E+02  0.50000008345E+02 0.  0.
         12    1    1    2    0    0 -0.27080740767E+02 -0.13628463340E+02  0.98802196393E+01  0.31886051396E+02  0.00000000000E+00 0. -1.
         11    1    3    3    0    0  0.17706213900E+00 -0.10827003661E+02  0.94099625201E+01  0.14345827065E+02  0.51100000000E-03 0. -1.
        -11    1    3    3    0    0  0.66200687312E+01  0.12899156920E+00 -0.99181798793E+01  0.11925277406E+02  0.51100000000E-03 0.  1.
        -12    1    3    3    0    0  0.20283609897E+02  0.24326475432E+02 -0.93720022801E+01  0.33030844133E+02  0.00000000000E+00 0.  1.
</event>
<event>
 7    1  0.1134395E-011  0.5930197E+02  0.7816164E-02  0.1266605E+00
        -11   -1    0    0    0    0  0.00000000000E+00  0.00000000000E+00  0.45593999997E+02  0.45594000000E+02  0.51100000000E-03 0. -1.
         11   -1    0    0    0    0 -0.00000000000E+00 -0.00000000000E+00 -0.45593999997E+02  0.45594000000E+02  0.51100000000E-03 0.  1.
    9900012    2    1    2    0    0  0.23225031492E+01 -0.26689453393E+02  0.17291550680E+02  0.59301973778E+02  0.50000054258E+02 0.  0.
         12    1    1    2    0    0 -0.23225031492E+01  0.26689453393E+02 -0.17291550680E+02  0.31886026222E+02  0.00000000000E+00 0. -1.
         11    1    3    3    0    0  0.11609196460E+02 -0.11647696799E+01  0.48311065303E+01  0.12628132143E+02  0.51100000000E-03 0. -1.
        -11    1    3    3    0    0  0.10950488344E+02  0.38741411311E+00 -0.12959561163E+01  0.11033711397E+02  0.51100000000E-03 0.  1.
        -12    1    3    3    0    0 -0.20237181655E+02 -0.25912097826E+02  0.13756400266E+02  0.35640130238E+02  0.00000000000E+00 0.  1.
</event>
<event>
 7    1  0.1134395E-011  0.5930195E+02  0.7816164E-02  0.1266605E+00
        -11   -1    0    0    0    0  0.00000000000E+00  0.00000000000E+00  0.45593999997E+02  0.45594000000E+02  0.51100000000E-03 0.  1.
         11   -1    0    0    0    0 -0.00000000000E+00 -0.00000000000E+00 -0.45593999997E+02  0.45594000000E+02  0.51100000000E-03 0. -1.
    9900012    2    1    2    0    0 -0.22337213851E+02 -0.21140369483E+02  0.84174545299E+01  0.59301954694E+02  0.50000019452E+02 0.  0.
         12    1    1    2    0    0  0.22337213851E+02  0.21140369483E+02 -0.84174545299E+01  0.31886045306E+02  0.00000000000E+00 0. -1.
         11    1    3    3    0    0 -0.73593119261E+01 -0.10769407909E+02 -0.60178511239E+01  0.14365032236E+02  0.51100000000E-03 0. -1.
        -11    1    3    3    0    0 -0.63955374498E+01 -0.24720688431E+02  0.11308630311E+02  0.27926697899E+02  0.51100000000E-03 0.  1.
        -12    1    3    3    0    0 -0.85823644754E+01  0.14349726857E+02  0.31266753432E+01  0.17010224559E+02  0.00000000000E+00 0.  1.
</event>
<event>
 7    1  0.1134395E-011  0.5930222E+02  0.7816164E-02  0.1266604E+00
        -11   -1    0    0    0    0  0.00000000000E+00  0.00000000000E+00  0.45593999997E+02  0.45594000000E+02  0.51100000000E-03 0.  1.
         11   -1    0    0    0    0 -0.00000000000E+00 -0.00000000000E+00 -0.45593999997E+02  0.45594000000E+02  0.51100000000E-03 0. -1.
    9900012    2    1    2    0    0 -0.10440246797E+01  0.12045170620E+02  0.29504695599E+02  0.59302216566E+02  0.50000497042E+02 0.  0.
         12    1    1    2    0    0  0.10440246797E+01 -0.12045170620E+02 -0.29504695599E+02  0.31885783434E+02  0.00000000000E+00 0. -1.
         11    1    3    3    0    0 -0.18189064612E+01  0.13236368325E+02 -0.13315723041E+01  0.13426948730E+02  0.51100000000E-03 0. -1.
        -11    1    3    3    0    0  0.92605888804E+01  0.10695562094E+02  0.27452480108E+02  0.30883526665E+02  0.51100000000E-03 0.  1.
         12    1    3    3    0    0 -0.84857070988E+01 -0.11886759799E+02  0.33837877950E+01  0.14991741170E+02  0.00000000000E+00 0. -1.
</event>
<event>
 7    1  0.1134395E-011  0.5930194E+02  0.7816164E-02  0.1266605E+00
        -11   -1    0    0    0    0  0.00000000000E+00  0.00000000000E+00  0.45593999997E+02  0.45594000000E+02  0.51100000000E-03 0. -1.
         11   -1    0    0    0    0 -0.00000000000E+00 -0.00000000000E+00 -0.45593999997E+02  0.45594000000E+02  0.51100000000E-03 0.  1.
    9900012    2    1    2    0    0  0.11772573308E+02 -0.11986232634E+02 -0.27100874564E+02  0.59301942590E+02  0.49999997378E+02 0.  0.
         12    1    1    2    0    0 -0.11772573308E+02  0.11986232634E+02  0.27100874564E+02  0.31886057410E+02  0.00000000000E+00 0. -1.
         11    1    3    3    0    0  0.43347473725E+01 -0.14215293356E+02 -0.22116833790E+02  0.26646180536E+02  0.51100000000E-03 0. -1.
        -11    1    3    3    0    0  0.15289017525E+02  0.46195305993E+01 -0.13438408618E+02  0.20873067486E+02  0.51100000000E-03 0.  1.
         12    1    3    3    0    0 -0.78511915894E+01 -0.23904698773E+01  0.84543678453E+01  0.11782694568E+02  0.00000000000E+00 0. -1.
</event>
<event>
 7    1  0.1134395E-011  0.5930193E+02  0.7816164E-02  0.1266605E+00
        -11   -1    0    0    0    0  0.00000000000E+00  0.00000000000E+00  0.45593999997E+02  0.45594000000E+02  0.51100000000E-03 0.  1.
         11   -1    0    0    0    0 -0.00000000000E+00 -0.00000000000E+00 -0.45593999997E+02  0.45594000000E+02  0.51100000000E-03 0. -1.
    9900012    2    1    2    0    0  0.12704197974E+02  0.21733708066E+02  0.19569634951E+02  0.59301932124E+02  0.49999978291E+02 0.  0.
         12    1    1    2    0    0 -0.12704197974E+02 -0.21733708066E+02 -0.19569634951E+02  0.31886067876E+02  0.00000000000E+00 0. -1.
         11    1    3    3    0    0  0.46012830845E+01 -0.19581390119E+01  0.15770242933E+02  0.16544082835E+02  0.51100000000E-03 0. -1.
        -11    1    3    3    0    0 -0.54530267959E+01  0.27380635786E+02  0.59499216925E+01  0.28545337372E+02  0.51100000000E-03 0.  1.
         12    1    3    3    0    0  0.13555941685E+02 -0.36887887084E+01 -0.21505296743E+01  0.14212511917E+02  0.00000000000E+00 0. -1.
</event>
<event>
 7    1  0.1134395E-011  0.5930189E+02  0.7816164E-02  0.1266605E+00
        -11   -1    0    0    0    0  0.00000000000E+00  0.00000000000E+00  0.45593999997E+02  0.45594000000E+02  0.51100000000E-03 0. -1.
         11   -1    0    0    0    0 -0.00000000000E+00 -0.00000000000E+00 -0.45593999997E+02  0.45594000000E+02  0.51100000000E-03 0.  1.
    9900012    2    1    2    0    0 -0.19083191133E+02 -0.25264191015E+02  0.37783838364E+01  0.59301894627E+02  0.49999909905E+02 0.  0.
         12    1    1    2    0    0  0.19083191133E+02  0.25264191015E+02 -0.37783838364E+01  0.31886105373E+02  0.00000000000E+00 0. -1.
         11    1    3    3    0    0 -0.33256884542E+01 -0.13371355612E+02 -0.18721996492E+02  0.23245784725E+02  0.51100000000E-03 0. -1.
        -11    1    3    3    0    0 -0.88573452784E+01 -0.71605986905E+01 -0.68187042288E+00  0.11410157165E+02  0.51100000000E-03 0.  1.
         12    1    3    3    0    0 -0.69001574004E+01 -0.47322367119E+01  0.23182250751E+02  0.24645952737E+02  0.00000000000E+00 0. -1.
</event>
<event>
 7    1  0.1134395E-011  0.5930197E+02  0.7816164E-02  0.1266605E+00
        -11   -1    0    0    0    0  0.00000000000E+00  0.00000000000E+00  0.45593999997E+02  0.45594000000E+02  0.51100000000E-03 0.  1.
         11   -1    0    0    0    0 -0.00000000000E+00 -0.00000000000E+00 -0.45593999997E+02  0.45594000000E+02  0.51100000000E-03 0. -1.
    9900012    2    1    2    0    0 -0.24282747688E+02 -0.63593701756E+01  0.19662795526E+02  0.59301969325E+02  0.50000046136E+02 0.  0.
         12    1    1    2    0    0  0.24282747688E+02  0.63593701756E+01 -0.19662795526E+02  0.31886030675E+02  0.00000000000E+00 0. -1.
         11    1    3    3    0    0  0.57787102083E+01 -0.68722820727E+01  0.10768460238E+02  0.14020752074E+02  0.51100000000E-03 0. -1.
        -11    1    3    3    0    0  0.38858540770E+01  0.29251620875E+01  0.10117991085E+02  0.11226316360E+02  0.51100000000E-03 0.  1.
         12    1    3    3    0    0 -0.33947311974E+02 -0.24122501904E+01 -0.12236557975E+01  0.34054900891E+02  0.00000000000E+00 0. -1.
</event>
<event>
 7    1  0.1134395E-011  0.5930195E+02  0.7816164E-02  0.1266605E+00
        -11   -1    0    0    0    0  0.00000000000E+00  0.00000000000E+00  0.45593999997E+02  0.45594000000E+02  0.51100000000E-03 0.  1.
         11   -1    0    0    0    0 -0.00000000000E+00 -0.00000000000E+00 -0.45593999997E+02  0.45594000000E+02  0.51100000000E-03 0. -1.
    9900012    2    1    2    0    0  0.39590887894E+01  0.20377637557E+02  0.24203256108E+02  0.59301951285E+02  0.50000013235E+02 0.  0.
         12    1    1    2    0    0 -0.39590887894E+01 -0.20377637557E+02 -0.24203256108E+02  0.31886048715E+02  0.00000000000E+00 0. -1.
         11    1    3    3    0    0  0.11409012631E+02 -0.40872737530E+01  0.17286341206E+02  0.21111346913E+02  0.51100000000E-03 0. -1.
        -11    1    3    3    0    0 -0.73491866164E+01 -0.28620398338E+01 -0.39025935342E+01  0.87995484252E+01  0.51100000000E-03 0.  1.
        -12    1    3    3    0    0 -0.10073722562E+00  0.27326951144E+02  0.10819508436E+02  0.29391055946E+02  0.00000000000E+00 0.  1.
</event>
<event>
 7    1  0.1134395E-011  0.5930194E+02  0.7816164E-02  0.1266605E+00
        -11   -1    0    0    0    0  0.00000000000E+00  0.00000000000E+00  0.45593999997E+02  0.45594000000E+02  0.51100000000E-03 0.  1.
         11   -1    0    0    0    0 -0.00000000000E+00 -0.00000000000E+00 -0.45593999997E+02  0.45594000000E+02  0.51100000000E-03 0. -1.
    9900012    2    1    2    0    0  0.48798899449E+01  0.18059512221E+02  0.25821730643E+02  0.59301935945E+02  0.49999985259E+02 0.  0.
         12    1    1    2    0    0 -0.48798899449E+01 -0.18059512221E+02 -0.25821730643E+02  0.31886064055E+02  0.00000000000E+00 0. -1.
         11    1    3    3    0    0 -0.11125320187E+01  0.18477156391E+02 -0.22892126393E+01  0.18651636137E+02  0.51100000000E-03 0. -1.
        -11    1    3    3    0    0 -0.83434072355E+01  0.87848003258E+01  0.14125785190E+02  0.18609754661E+02  0.51100000000E-03 0.  1.
         12    1    3    3    0    0  0.14335829199E+02 -0.92024444959E+01  0.13985158092E+02  0.22040545147E+02  0.00000000000E+00 0. -1.
</event>
<event>
 7    1  0.1134395E-011  0.5930200E+02  0.7816164E-02  0.1266605E+00
        -11   -1    0    0    0    0  0.00000000000E+00  0.00000000000E+00  0.45593999997E+02  0.45594000000E+02  0.51100000000E-03 0.  1.
         11   -1    0    0    0    0 -0.00000000000E+00 -0.00000000000E+00 -0.45593999997E+02  0.45594000000E+02  0.51100000000E-03 0. -1.
    9900012    2    1    2    0    0 -0.23799209270E+02  0.16720706623E+02  0.13066463276E+02  0.59302002221E+02  0.50000106130E+02 0.  0.
         12    1    1    2    0    0  0.23799209270E+02 -0.16720706623E+02 -0.13066463276E+02  0.31885997779E+02  0.00000000000E+00 0. -1.
         11    1    3    3    0    0  0.74687309065E+01  0.16215931564E+02 -0.10473219532E+01  0.17883938643E+02  0.51100000000E-03 0. -1.
        -11    1    3    3    0    0  0.77461657912E+00 -0.54948007853E+01 -0.73241726313E+00  0.55972584202E+01  0.51100000000E-03 0.  1.
        -12    1    3    3    0    0 -0.32042556755E+02  0.59995758442E+01  0.14846202492E+02  0.35820805158E+02  0.00000000000E+00 0.  1.
</event>
<event>
 7    1  0.1134395E-011  0.5930196E+02  0.7816164E-02  0.1266605E+00
        -11   -1    0    0    0    0  0.00000000000E+00  0.00000000000E+00  0.45593999997E+02  0.45594000000E+02  0.51100000000E-03 0.  1.
         11   -1    0    0    0    0 -0.00000000000E+00 -0.00000000000E+00 -0.45593999997E+02  0.45594000000E+02  0.51100000000E-03 0. -1.
    9900012    2    1    2    0    0 -0.11524015729E+02  0.22039817798E+02  0.19954015683E+02  0.59301964671E+02  0.50000037649E+02 0.  0.
         12    1    1    2    0    0  0.11524015729E+02 -0.22039817798E+02 -0.19954015683E+02  0.31886035329E+02  0.00000000000E+00 0. -1.
         11    1    3    3    0    0  0.15802429791E+01  0.23871664590E+02 -0.54088525049E+01  0.24527723577E+02  0.51100000000E-03 0. -1.
        -11    1    3    3    0    0  0.23984712857E+00  0.73508113309E+01  0.10287532920E+02  0.12646157033E+02  0.51100000000E-03 0.  1.
        -12    1    3    3    0    0 -0.13344105836E+02 -0.91826581231E+01  0.15075335268E+02  0.22128084061E+02  0.00000000000E+00 0.  1.
</event>
<event>
 7    1  0.1134395E-011  0.5930195E+02  0.7816164E-02  0.1266605E+00
        -11   -1    0    0    0    0  0.00000000000E+00  0.00000000000E+00  0.45593999997E+02  0.45594000000E+02  0.51100000000E-03 0.  1.
         11   -1    0    0    0    0 -0.00000000000E+00 -0.00000000000E+00 -0.45593999997E+02  0.45594000000E+02  0.51100000000E-03 0. -1.
    9900012    2    1    2    0    0 -0.27275184401E+02  0.65769338921E+01  0.15150196350E+02  0.59301949869E+02  0.50000010652E+02 0.  0.
         12    1    1    2    0    0  0.27275184401E+02 -0.65769338921E+01 -0.15150196350E+02  0.31886050131E+02  0.00000000000E+00 0. -1.
         11    1    3    3    0    0 -0.18672406252E+02  0.80116289164E+01 -0.16570398551E+02  0.26218754004E+02  0.51100000000E-03 0. -1.
        -11    1    3    3    0    0 -0.22718798198E+01 -0.14188898745E+01  0.14281080686E+02  0.14530105031E+02  0.51100000000E-03 0.  1.
        -12    1    3    3    0    0 -0.63308983296E+01 -0.15805149724E-01  0.17439514214E+02  0.18553090833E+02  0.00000000000E+00 0.  1.
</event>
<event>
 7    1  0.1134395E-011  0.5930197E+02  0.7816164E-02  0.1266605E+00
        -11   -1    0    0    0    0  0.00000000000E+00  0.00000000000E+00  0.45593999997E+02  0.45594000000E+02  0.51100000000E-03 0.  1.
         11   -1    0    0    0    0 -0.00000000000E+00 -0.00000000000E+00 -0.45593999997E+02  0.45594000000E+02  0.51100000000E-03 0. -1.
    9900012    2    1    2    0    0 -0.27739158031E+02  0.12256774592E+02  0.98503528270E+01  0.59301970732E+02  0.50000048702E+02 0.  0.
         12    1    1    2    0    0  0.27739158031E+02 -0.12256774592E+02 -0.98503528270E+01  0.31886029268E+02  0.00000000000E+00 0. -1.
         11    1    3    3    0    0 -0.11396003500E+02 -0.37733423117E+01  0.22393736278E+02  0.25408392958E+02  0.51100000000E-03 0. -1.
        -11    1    3    3    0    0 -0.48322839716E+01 -0.15748975765E+01  0.45254154638E+01  0.68051933213E+01  0.51100000000E-03 0.  1.
         12    1    3    3    0    0 -0.11510870560E+02  0.17605014480E+02 -0.17068798914E+02  0.27088384453E+02  0.00000000000E+00 0. -1.
</event>
<event>
 7    1  0.1134395E-011  0.5930198E+02  0.7816164E-02  0.1266605E+00
        -11   -1    0    0    0    0  0.00000000000E+00  0.00000000000E+00  0.45593999997E+02  0.45594000000E+02  0.51100000000E-03 0.  1.
         11   -1    0    0    0    0 -0.00000000000E+00 -0.00000000000E+00 -0.45593999997E+02  0.45594000000E+02  0.51100000000E-03 0. -1.
    9900012    2    1    2    0    0  0.72112442008E+01 -0.18707522475E+02  0.24794054423E+02  0.59301975243E+02  0.50000056930E+02 0.  0.
         12    1    1    2    0    0 -0.72112442008E+01  0.18707522475E+02 -0.24794054423E+02  0.31886024757E+02  0.00000000000E+00 0. -1.
         11    1    3    3    0    0 -0.71451902902E+01 -0.17529503655E+02  0.14445553074E+02  0.23811997953E+02  0.51100000000E-03 0.  1.
        -11    1    3    3    0    0  0.14814866029E+02 -0.11544806753E+02  0.15078616435E+02  0.24085835926E+02  0.51100000000E-03 0. -1.
         12    1    3    3    0    0 -0.45843153768E+00  0.10366787933E+02 -0.47301150855E+01  0.11404141364E+02  0.00000000000E+00 0. -1.
</event>
<event>
 7    1  0.1134395E-011  0.5930187E+02  0.7816164E-02  0.1266605E+00
        -11   -1    0    0    0    0  0.00000000000E+00  0.00000000000E+00  0.45593999997E+02  0.45594000000E+02  0.51100000000E-03 0. -1.
         11   -1    0    0    0    0 -0.00000000000E+00 -0.00000000000E+00 -0.45593999997E+02  0.45594000000E+02  0.51100000000E-03 0.  1.
    9900012    2    1    2    0    0  0.14130704748E+02 -0.28440785985E+02 -0.28583084291E+01  0.59301873687E+02  0.49999871716E+02 0.  0.
         12    1    1    2    0    0 -0.14130704748E+02  0.28440785985E+02  0.28583084291E+01  0.31886126313E+02  0.00000000000E+00 0. -1.
         11    1    3    3    0    0  0.22633671924E+01 -0.26861998634E+02 -0.39431526577E+01  0.27244049898E+02  0.51100000000E-03 0. -1.
        -11    1    3    3    0    0 -0.46684339463E+01 -0.11736370420E+02  0.24067472396E+00  0.12633075268E+02  0.51100000000E-03 0.  1.
        -12    1    3    3    0    0  0.16535771502E+02  0.10157583069E+02  0.84416950463E+00  0.19424748522E+02  0.00000000000E+00 0.  1.
</event>
<event>
 7    1  0.1134395E-011  0.5930194E+02  0.7816164E-02  0.1266605E+00
        -11   -1    0    0    0    0  0.00000000000E+00  0.00000000000E+00  0.45593999997E+02  0.45594000000E+02  0.51100000000E-03 0. -1.
         11   -1    0    0    0    0 -0.00000000000E+00 -0.00000000000E+00 -0.45593999997E+02  0.45594000000E+02  0.51100000000E-03 0.  1.
    9900012    2    1    2    0    0  0.66180404843E+01  0.20095930585E+02 -0.23855310080E+02  0.59301941840E+02  0.49999996011E+02 0.  0.
         12    1    1    2    0    0 -0.66180404843E+01 -0.20095930585E+02  0.23855310080E+02  0.31886058160E+02  0.00000000000E+00 0. -1.
         11    1    3    3    0    0  0.33228597555E+01  0.21892599574E+02 -0.19311147978E+01  0.22227382160E+02  0.51100000000E-03 0. -1.
        -11    1    3    3    0    0 -0.58952772393E+01  0.11958333721E+02 -0.10493406417E+02  0.16966661946E+02  0.51100000000E-03 0.  1.
        -12    1    3    3    0    0  0.91904579681E+01 -0.13755002710E+02 -0.11430788865E+02  0.20107897734E+02  0.00000000000E+00 0.  1.
</event>
<event>
 7    1  0.1134395E-011  0.5930195E+02  0.7816164E-02  0.1266605E+00
        -11   -1    0    0    0    0  0.00000000000E+00  0.00000000000E+00  0.45593999997E+02  0.45594000000E+02  0.51100000000E-03 0.  1.
         11   -1    0    0    0    0 -0.00000000000E+00 -0.00000000000E+00 -0.45593999997E+02  0.45594000000E+02  0.51100000000E-03 0. -1.
    9900012    2    1    2    0    0  0.19920368160E+02 -0.24884885923E+02  0.80110025972E+00  0.59301946988E+02  0.50000005399E+02 0.  0.
         12    1    1    2    0    0 -0.19920368160E+02  0.24884885923E+02 -0.80110025972E+00  0.31886053012E+02  0.00000000000E+00 0. -1.
         11    1    3    3    0    0 -0.97650590378E+00 -0.18447939629E+02  0.12092058863E+02  0.22079355247E+02  0.51100000000E-03 0. -1.
        -11    1    3    3    0    0  0.32907248310E+01 -0.79913358512E+01  0.74873718221E+01  0.11434642787E+02  0.51100000000E-03 0.  1.
         12    1    3    3    0    0  0.17606149233E+02  0.15543895569E+01 -0.18778330425E+02  0.25787948954E+02  0.00000000000E+00 0. -1.
</event>
<event>
 7    1  0.1134395E-011  0.5930199E+02  0.7816164E-02  0.1266605E+00
        -11   -1    0    0    0    0  0.00000000000E+00  0.00000000000E+00  0.45593999997E+02  0.45594000000E+02  0.51100000000E-03 0.  1.
         11   -1    0    0    0    0 -0.00000000000E+00 -0.00000000000E+00 -0.45593999997E+02  0.45594000000E+02  0.51100000000E-03 0. -1.
    9900012    2    1    2    0    0 -0.41541226067E+01 -0.24723875653E+02  0.19702566581E+02  0.59301985952E+02  0.50000076460E+02 0.  0.
         12    1    1    2    0    0  0.41541226067E+01  0.24723875653E+02 -0.19702566581E+02  0.31886014048E+02  0.00000000000E+00 0. -1.
         11    1    3    3    0    0 -0.50958792450E+01  0.41367312209E+01  0.46937096139E+01  0.80691660458E+01  0.51100000000E-03 0. -1.
        -11    1    3    3    0    0 -0.15879151451E+02 -0.59968007634E+00  0.71153478191E+01  0.17410779473E+02  0.51100000000E-03 0.  1.
        -12    1    3    3    0    0  0.16820908089E+02 -0.28260926798E+02  0.78935091483E+01  0.33822040434E+02  0.00000000000E+00 0.  1.
</event>
<event>
 7    1  0.1134395E-011  0.5930194E+02  0.7816164E-02  0.1266605E+00
        -11   -1    0    0    0    0  0.00000000000E+00  0.00000000000E+00  0.45593999997E+02  0.45594000000E+02  0.51100000000E-03 0.  1.
         11   -1    0    0    0    0 -0.00000000000E+00 -0.00000000000E+00 -0.45593999997E+02  0.45594000000E+02  0.51100000000E-03 0. -1.
    9900012    2    1    2    0    0 -0.59019554496E+01  0.34868095250E+01  0.31140490127E+02  0.59301936522E+02  0.49999986311E+02 0.  0.
         12    1    1    2    0    0  0.59019554496E+01 -0.34868095250E+01 -0.31140490127E+02  0.31886063478E+02  0.00000000000E+00 0. -1.
         11    1    3    3    0    0  0.14336453722E+02 -0.44618783990E+01  0.33412537837E+01  0.15382010314E+02  0.51100000000E-03 0. -1.
        -11    1    3    3    0    0 -0.81712455516E+01 -0.96144783011E+01  0.11768239534E+02  0.17253953427E+02  0.51100000000E-03 0.  1.
        -12    1    3    3    0    0 -0.12067163621E+02  0.17563166225E+02  0.16030996809E+02  0.26665972781E+02  0.00000000000E+00 0.  1.
</event>
<event>
 7    1  0.1134395E-011  0.5930194E+02  0.7816164E-02  0.1266605E+00
        -11   -1    0    0    0    0  0.00000000000E+00  0.00000000000E+00  0.45593999997E+02  0.45594000000E+02  0.51100000000E-03 0.  1.
         11   -1    0    0    0    0 -0.00000000000E+00 -0.00000000000E+00 -0.45593999997E+02  0.45594000000E+02  0.51100000000E-03 0. -1.
    9900012    2    1    2    0    0 -0.25245925554E+02  0.20555451424E+01  0.19368497067E+02  0.59301941894E+02  0.49999996108E+02 0.  0.
         12    1    1    2    0    0  0.25245925554E+02 -0.20555451424E+01 -0.19368497067E+02  0.31886058106E+02  0.00000000000E+00 0. -1.
         11    1    3    3    0    0 -0.20744202801E+02  0.21708024420E+02  0.28606975522E+00  0.30027356032E+02  0.51100000000E-03 0. -1.
        -11    1    3    3    0    0  0.88536912647E+00  0.69754208396E+00  0.69726545258E+00  0.13253764829E+01  0.51100000000E-03 0.  1.
         12    1    3    3    0    0 -0.53870918790E+01 -0.20350021362E+02  0.18385161860E+02  0.27949209379E+02  0.00000000000E+00 0. -1.
</event>
<event>
 7    1  0.1134395E-011  0.5930196E+02  0.7816164E-02  0.1266605E+00
        -11   -1    0    0    0    0  0.00000000000E+00  0.00000000000E+00  0.45593999997E+02  0.45594000000E+02  0.51100000000E-03 0.  1.
         11   -1    0    0    0    0 -0.00000000000E+00 -0.00000000000E+00 -0.45593999997E+02  0.45594000000E+02  0.51100000000E-03 0. -1.
    9900012    2    1    2    0    0  0.16699467019E+02  0.24184132689E+02  0.12368305484E+02  0.59301961469E+02  0.50000031809E+02 0.  0.
         12    1    1    2    0    0 -0.16699467019E+02 -0.24184132689E+02 -0.12368305484E+02  0.31886038531E+02  0.00000000000E+00 0. -1.
         11    1    3    3    0    0 -0.39501995918E+01 -0.35580996839E+01 -0.12382431007E+02  0.13475486933E+02  0.51100000000E-03 0. -1.
        -11    1    3    3    0    0  0.10311213248E+02  0.16767938141E+01  0.54276924706E+01  0.11772535919E+02  0.51100000000E-03 0.  1.
        -12    1    3    3    0    0  0.10338453363E+02  0.26065438559E+02  0.19323044020E+02  0.34053938618E+02  0.00000000000E+00 0.  1.
</event>
<event>
 7    1  0.1134395E-011  0.5930192E+02  0.7816164E-02  0.1266605E+00
        -11   -1    0    0    0    0  0.00000000000E+00  0.00000000000E+00  0.45593999997E+02  0.45594000000E+02  0.51100000000E-03 0.  1.
         11   -1    0    0    0    0 -0.00000000000E+00 -0.00000000000E+00 -0.45593999997E+02  0.45594000000E+02  0.51100000000E-03 0. -1.
    9900012    2    1    2    0    0 -0.23570733803E+02 -0.78060679548E+01  0.20005197516E+02  0.59301919705E+02  0.49999955641E+02 0.  0.
         12    1    1    2    0    0  0.23570733803E+02  0.78060679548E+01 -0.20005197516E+02  0.31886080295E+02  0.00000000000E+00 0. -1.
         11    1    3    3    0    0 -0.14749867868E+02 -0.79339965723E+01  0.36237117908E+01  0.17135874391E+02  0.51100000000E-03 0. -1.
        -11    1    3    3    0    0 -0.23303948548E+02 -0.28173704636E+01  0.63959051693E+01  0.24329389582E+02  0.51100000000E-03 0.  1.
         12    1    3    3    0    0  0.14483082613E+02  0.29452990811E+01  0.99855805557E+01  0.17836655731E+02  0.00000000000E+00 0. -1.
</event>
<event>
 7    1  0.1134395E-011  0.5930195E+02  0.7816164E-02  0.1266605E+00
        -11   -1    0    0    0    0  0.00000000000E+00  0.00000000000E+00  0.45593999997E+02  0.45594000000E+02  0.51100000000E-03 0. -1.
         11   -1    0    0    0    0 -0.00000000000E+00 -0.00000000000E+00 -0.45593999997E+02  0.45594000000E+02  0.51100000000E-03 0.  1.
    9900012    2    1    2    0    0 -0.10003099841E+02  0.11713403090E+02 -0.27918710281E+02  0.59301949725E+02  0.50000010390E+02 0.  0.
         12    1    1    2    0    0  0.10003099841E+02 -0.11713403090E+02  0.27918710281E+02  0.31886050275E+02  0.00000000000E+00 0. -1.
         11    1    3    3    0    0 -0.88333404965E+00  0.86030195774E+01  0.29958409866E+01  0.91524471247E+01  0.51100000000E-03 0. -1.
        -11    1    3    3    0    0 -0.15849040749E+01  0.75916350530E+01  0.74752360588E+01  0.10771443641E+02  0.51100000000E-03 0.  1.
        -12    1    3    3    0    0 -0.75348617169E+01 -0.44812515403E+01 -0.38389787326E+02  0.39378058960E+02  0.00000000000E+00 0.  1.
</event>
<event>
 7    1  0.1134395E-011  0.5930196E+02  0.7816164E-02  0.1266605E+00
        -11   -1    0    0    0    0  0.00000000000E+00  0.00000000000E+00  0.45593999997E+02  0.45594000000E+02  0.51100000000E-03 0.  1.
         11   -1    0    0    0    0 -0.00000000000E+00 -0.00000000000E+00 -0.45593999997E+02  0.45594000000E+02  0.51100000000E-03 0. -1.
    9900012    2    1    2    0    0 -0.15612399540E+02  0.19079247804E+01  0.27736842163E+02  0.59301959018E+02  0.50000027338E+02 0.  0.
         12    1    1    2    0    0  0.15612399540E+02 -0.19079247804E+01 -0.27736842163E+02  0.31886040982E+02  0.00000000000E+00 0. -1.
         11    1    3    3    0    0  0.43240667150E+00  0.22776021368E+01  0.28853725938E+01  0.37013270984E+01  0.51100000000E-03 0. -1.
        -11    1    3    3    0    0 -0.20227175395E+02  0.90202743943E+01  0.34829699512E+02  0.41274834257E+02  0.51100000000E-03 0.  1.
         12    1    3    3    0    0  0.41823691841E+01 -0.93899517507E+01 -0.99782299426E+01  0.14325797662E+02  0.00000000000E+00 0. -1.
</event>
<event>
 7    1  0.1134395E-011  0.5930194E+02  0.7816164E-02  0.1266605E+00
        -11   -1    0    0    0    0  0.00000000000E+00  0.00000000000E+00  0.45593999997E+02  0.45594000000E+02  0.51100000000E-03 0. -1.
         11   -1    0    0    0    0 -0.00000000000E+00 -0.00000000000E+00 -0.45593999997E+02  0.45594000000E+02  0.51100000000E-03 0.  1.
    9900012    2    1    2    0    0 -0.71001633897E+00  0.31725380421E+02  0.31172228944E+01  0.59301937768E+02  0.49999988584E+02 0.  0.
         12    1    1    2    0    0  0.71001633897E+00 -0.31725380421E+02 -0.31172228944E+01  0.31886062232E+02  0.00000000000E+00 0. -1.
         11    1    3    3    0    0  0.77636757679E+01  0.18441984860E+01  0.73537811909E+01  0.10851443570E+02  0.51100000000E-03 0. -1.
        -11    1    3    3    0    0  0.65589277299E+01 -0.61640122776E+01  0.96066255053E+00  0.90519309057E+01  0.51100000000E-03 0.  1.
        -12    1    3    3    0    0 -0.15032619837E+02  0.36045194213E+02 -0.51972208470E+01  0.39398563293E+02  0.00000000000E+00 0.  1.
</event>
<event>
 7    1  0.1134395E-011  0.5930192E+02  0.7816164E-02  0.1266605E+00
        -11   -1    0    0    0    0  0.00000000000E+00  0.00000000000E+00  0.45593999997E+02  0.45594000000E+02  0.51100000000E-03 0. -1.
         11   -1    0    0    0    0 -0.00000000000E+00 -0.00000000000E+00 -0.45593999997E+02  0.45594000000E+02  0.51100000000E-03 0.  1.
    9900012    2    1    2    0    0 -0.19839053682E+02 -0.11158818517E+02 -0.22329681761E+02  0.59301922016E+02  0.49999959856E+02 0.  0.
         12    1    1    2    0    0  0.19839053682E+02  0.11158818517E+02  0.22329681761E+02  0.31886077984E+02  0.00000000000E+00 0. -1.
         11    1    3    3    0    0 -0.68496117932E+01  0.17568178158E+01 -0.10505926634E+02  0.12664046954E+02  0.51100000000E-03 0. -1.
        -11    1    3    3    0    0 -0.23845687102E+02 -0.14416714425E+02 -0.18829528947E+02  0.33630486300E+02  0.51100000000E-03 0.  1.
         12    1    3    3    0    0  0.10856245213E+02  0.15010780923E+01  0.70057738204E+01  0.13007388761E+02  0.00000000000E+00 0. -1.
</event>
<event>
 7    1  0.1134395E-011  0.5930192E+02  0.7816164E-02  0.1266605E+00
        -11   -1    0    0    0    0  0.00000000000E+00  0.00000000000E+00  0.45593999997E+02  0.45594000000E+02  0.51100000000E-03 0.  1.
         11   -1    0    0    0    0 -0.00000000000E+00 -0.00000000000E+00 -0.45593999997E+02  0.45594000000E+02  0.51100000000E-03 0. -1.
    9900012    2    1    2    0    0  0.91970577923E+01  0.29087501612E+02  0.92764964746E+01  0.59301921394E+02  0.49999958721E+02 0.  0.
         12    1    1    2    0    0 -0.91970577923E+01 -0.29087501612E+02 -0.92764964746E+01  0.31886078606E+02  0.00000000000E+00 0. -1.
         11    1    3    3    0    0 -0.37779466467E+01 -0.25742596783E+01 -0.49665693774E+00  0.45985173841E+01  0.51100000000E-03 0. -1.
        -11    1    3    3    0    0 -0.13828537524E+02  0.37364402129E+01  0.68720522451E+01  0.15887559216E+02  0.51100000000E-03 0.  1.
        -12    1    3    3    0    0  0.26803541963E+02  0.27925321077E+02  0.29011011672E+01  0.38815844793E+02  0.00000000000E+00 0.  1.
</event>
<event>
 7    1  0.1134395E-011  0.5930194E+02  0.7816164E-02  0.1266605E+00
        -11   -1    0    0    0    0  0.00000000000E+00  0.00000000000E+00  0.45593999997E+02  0.45594000000E+02  0.51100000000E-03 0.  1.
         11   -1    0    0    0    0 -0.00000000000E+00 -0.00000000000E+00 -0.45593999997E+02  0.45594000000E+02  0.51100000000E-03 0. -1.
    9900012    2    1    2    0    0  0.13981420571E+01 -0.21528084179E+02  0.23479935239E+02  0.59301943981E+02  0.49999999915E+02 0.  0.
         12    1    1    2    0    0 -0.13981420571E+01  0.21528084179E+02 -0.23479935239E+02  0.31886056019E+02  0.00000000000E+00 0. -1.
         11    1    3    3    0    0  0.13765100944E+02 -0.75106326908E+01 -0.13477674427E+01  0.15738617625E+02  0.51100000000E-03 0. -1.
        -11    1    3    3    0    0  0.33599306429E+01 -0.11634181457E+02  0.24864780673E+02  0.27656836954E+02  0.51100000000E-03 0.  1.
        -12    1    3    3    0    0 -0.15726889530E+02 -0.23832700309E+01 -0.37077991844E-01  0.15906489402E+02  0.00000000000E+00 0.  1.
</event>
<event>
 7    1  0.1134395E-011  0.5930196E+02  0.7816164E-02  0.1266605E+00
        -11   -1    0    0    0    0  0.00000000000E+00  0.00000000000E+00  0.45593999997E+02  0.45594000000E+02  0.51100000000E-03 0.  1.
         11   -1    0    0    0    0 -0.00000000000E+00 -0.00000000000E+00 -0.45593999997E+02  0.45594000000E+02  0.51100000000E-03 0. -1.
    9900012    2    1    2    0    0 -0.24684948013E+02  0.17882217035E+02  0.93594614288E+01  0.59301955048E+02  0.50000020097E+02 0.  0.
         12    1    1    2    0    0  0.24684948013E+02 -0.17882217035E+02 -0.93594614288E+01  0.31886044952E+02  0.00000000000E+00 0. -1.
         11    1    3    3    0    0 -0.15194848303E+02 -0.10181891330E+02 -0.58497566542E+01  0.19203488724E+02  0.51100000000E-03 0. -1.
        -11    1    3    3    0    0 -0.10275743401E+01 -0.22625744913E+01  0.71909911822E+01  0.76082525455E+01  0.51100000000E-03 0.  1.
        -12    1    3    3    0    0 -0.84625253697E+01  0.30326682856E+02  0.80182269008E+01  0.32490213778E+02  0.00000000000E+00 0.  1.
</event>
<event>
 7    1  0.1134395E-011  0.5930195E+02  0.7816164E-02  0.1266605E+00
        -11   -1    0    0    0    0  0.00000000000E+00  0.00000000000E+00  0.45593999997E+02  0.45594000000E+02  0.51100000000E-03 0.  1.
         11   -1    0    0    0    0 -0.00000000000E+00 -0.00000000000E+00 -0.45593999997E+02  0.45594000000E+02  0.51100000000E-03 0. -1.
    9900012    2    1    2    0    0 -0.28633296570E+02  0.11036597151E+02  0.86630418681E+01  0.59301945939E+02  0.50000003486E+02 0.  0.
         12    1    1    2    0    0  0.28633296570E+02 -0.11036597151E+02 -0.86630418681E+01  0.31886054061E+02  0.00000000000E+00 0. -1.
         11    1    3    3    0    0  0.83047202786E+01 -0.22181478462E+00  0.40841347462E+00  0.83177149826E+01  0.51100000000E-03 0. -1.
        -11    1    3    3    0    0 -0.17053889134E+02  0.15564586060E+02  0.17168236222E+02  0.28772205495E+02  0.51100000000E-03 0.  1.
         12    1    3    3    0    0 -0.19884127715E+02 -0.43061741242E+01 -0.89136078289E+01  0.22212025461E+02  0.00000000000E+00 0. -1.
</event>
<event>
 7    1  0.1134395E-011  0.5930195E+02  0.7816164E-02  0.1266605E+00
        -11   -1    0    0    0    0  0.00000000000E+00  0.00000000000E+00  0.45593999997E+02  0.45594000000E+02  0.51100000000E-03 0. -1.
         11   -1    0    0    0    0 -0.00000000000E+00 -0.00000000000E+00 -0.45593999997E+02  0.45594000000E+02  0.51100000000E-03 0.  1.
    9900012    2    1    2    0    0 -0.19632943186E+02  0.14633499394E+02 -0.20423721425E+02  0.59301950393E+02  0.50000011609E+02 0.  0.
         12    1    1    2    0    0  0.19632943186E+02 -0.14633499394E+02  0.20423721425E+02  0.31886049607E+02  0.00000000000E+00 0. -1.
         11    1    3    3    0    0 -0.18733393127E+02  0.21758699991E+02 -0.13714500473E+02  0.31819311225E+02  0.51100000000E-03 0. -1.
        -11    1    3    3    0    0 -0.13220769614E+02 -0.25655921229E+01 -0.42019238228E+01  0.14107699181E+02  0.51100000000E-03 0.  1.
        -12    1    3    3    0    0  0.12321219554E+02 -0.45596084743E+01 -0.25072971289E+01  0.13374939986E+02  0.00000000000E+00 0.  1.
</event>
<event>
 7    1  0.1134395E-011  0.5930197E+02  0.7816164E-02  0.1266605E+00
        -11   -1    0    0    0    0  0.00000000000E+00  0.00000000000E+00  0.45593999997E+02  0.45594000000E+02  0.51100000000E-03 0.  1.
         11   -1    0    0    0    0 -0.00000000000E+00 -0.00000000000E+00 -0.45593999997E+02  0.45594000000E+02  0.51100000000E-03 0. -1.
    9900012    2    1    2    0    0  0.20701210346E+02 -0.95088677756E+01  0.22310543532E+02  0.59301968123E+02  0.50000043944E+02 0.  0.
         12    1    1    2    0    0 -0.20701210346E+02  0.95088677756E+01 -0.22310543532E+02  0.31886031877E+02  0.00000000000E+00 0. -1.
         11    1    3    3    0    0  0.17553179711E+02 -0.21155968867E+02  0.44823375757E+01  0.27852836248E+02  0.51100000000E-03 0. -1.
        -11    1    3    3    0    0  0.10635780866E+02 -0.15258678153E+01  0.69557135149E+01  0.12799611634E+02  0.51100000000E-03 0.  1.
         12    1    3    3    0    0 -0.74877502308E+01  0.13172968906E+02  0.10872492441E+02  0.18649520241E+02  0.00000000000E+00 0. -1.
</event>
<event>
 7    1  0.1134395E-011  0.5930195E+02  0.7816164E-02  0.1266605E+00
        -11   -1    0    0    0    0  0.00000000000E+00  0.00000000000E+00  0.45593999997E+02  0.45594000000E+02  0.51100000000E-03 0. -1.
         11   -1    0    0    0    0 -0.00000000000E+00 -0.00000000000E+00 -0.45593999997E+02  0.45594000000E+02  0.51100000000E-03 0.  1.
    9900012    2    1    2    0    0 -0.10444334439E+02 -0.27951248983E+02 -0.11241171498E+02  0.59301946964E+02  0.50000005355E+02 0.  0.
         12    1    1    2    0    0  0.10444334439E+02  0.27951248983E+02  0.11241171498E+02  0.31886053036E+02  0.00000000000E+00 0. -1.
         11    1    3    3    0    0  0.14646657534E+02 -0.45853409148E+01  0.47085843976E+01  0.16053681681E+02  0.51100000000E-03 0. -1.
        -11    1    3    3    0    0  0.33115230955E+01 -0.58843591071E+01 -0.15892997629E+01  0.69366952730E+01  0.51100000000E-03 0.  1.
        -12    1    3    3    0    0 -0.28402515068E+02 -0.17481548961E+02 -0.14360456133E+02  0.36311570010E+02  0.00000000000E+00 0.  1.
</event>
<event>
 7    1  0.1134395E-011  0.5930196E+02  0.7816164E-02  0.1266605E+00
        -11   -1    0    0    0    0  0.00000000000E+00  0.00000000000E+00  0.45593999997E+02  0.45594000000E+02  0.51100000000E-03 0.  1.
         11   -1    0    0    0    0 -0.00000000000E+00 -0.00000000000E+00 -0.45593999997E+02  0.45594000000E+02  0.51100000000E-03 0. -1.
    9900012    2    1    2    0    0 -0.16198292329E+02  0.20231645144E+02  0.18574594003E+02  0.59301957881E+02  0.50000025265E+02 0.  0.
         12    1    1    2    0    0  0.16198292329E+02 -0.20231645144E+02 -0.18574594003E+02  0.31886042119E+02  0.00000000000E+00 0. -1.
         11    1    3    3    0    0  0.92555896594E+01  0.78217537201E+01  0.11646558852E+02  0.16807382442E+02  0.51100000000E-03 0. -1.
        -11    1    3    3    0    0 -0.12917581139E+02  0.56323038969E+01  0.19111617729E+02  0.23745329691E+02  0.51100000000E-03 0.  1.
         12    1    3    3    0    0 -0.12536300850E+02  0.67775875272E+01 -0.12183582578E+02  0.18749245748E+02  0.00000000000E+00 0. -1.
</event>
<event>
 7    1  0.1134395E-011  0.5930194E+02  0.7816164E-02  0.1266605E+00
        -11   -1    0    0    0    0  0.00000000000E+00  0.00000000000E+00  0.45593999997E+02  0.45594000000E+02  0.51100000000E-03 0.  1.
         11   -1    0    0    0    0 -0.00000000000E+00 -0.00000000000E+00 -0.45593999997E+02  0.45594000000E+02  0.51100000000E-03 0. -1.
    9900012    2    1    2    0    0 -0.88744739891E+01  0.29473903976E+02  0.83218765261E+01  0.59301938264E+02  0.49999989487E+02 0.  0.
         12    1    1    2    0    0  0.88744739891E+01 -0.29473903976E+02 -0.83218765261E+01  0.31886061736E+02  0.00000000000E+00 0. -1.
         11    1    3    3    0    0 -0.19625510801E+01 -0.37116540065E+01  0.95748614490E+00  0.43063629880E+01  0.51100000000E-03 0. -1.
        -11    1    3    3    0    0 -0.20263109407E+02  0.14409543437E+02  0.16897182345E+02  0.30062323869E+02  0.51100000000E-03 0.  1.
         12    1    3    3    0    0  0.13351186498E+02  0.18776014545E+02 -0.95327919636E+01  0.24933251407E+02  0.00000000000E+00 0. -1.
</event>
<event>
 7    1  0.1134395E-011  0.5930195E+02  0.7816164E-02  0.1266605E+00
        -11   -1    0    0    0    0  0.00000000000E+00  0.00000000000E+00  0.45593999997E+02  0.45594000000E+02  0.51100000000E-03 0.  1.
         11   -1    0    0    0    0 -0.00000000000E+00 -0.00000000000E+00 -0.45593999997E+02  0.45594000000E+02  0.51100000000E-03 0. -1.
    9900012    2    1    2    0    0 -0.31600883229E+02 -0.26347982026E+01  0.33409897777E+01  0.59301949835E+02  0.50000010592E+02 0.  0.
         12    1    1    2    0    0  0.31600883229E+02  0.26347982026E+01 -0.33409897777E+01  0.31886050165E+02  0.00000000000E+00 0. -1.
         11    1    3    3    0    0 -0.20626660517E+02 -0.14657351356E+02 -0.15387421732E+02  0.29615364605E+02  0.51100000000E-03 0. -1.
        -11    1    3    3    0    0 -0.98652158461E+01 -0.35403624137E+00  0.46602235608E+01  0.10916295583E+02  0.51100000000E-03 0.  1.
         12    1    3    3    0    0 -0.11090068661E+01  0.12376589395E+02  0.14068187949E+02  0.18770289648E+02  0.00000000000E+00 0. -1.
</event>
<event>
 7    1  0.1134395E-011  0.5930194E+02  0.7816164E-02  0.1266605E+00
        -11   -1    0    0    0    0  0.00000000000E+00  0.00000000000E+00  0.45593999997E+02  0.45594000000E+02  0.51100000000E-03 0.  1.
         11   -1    0    0    0    0 -0.00000000000E+00 -0.00000000000E+00 -0.45593999997E+02  0.45594000000E+02  0.51100000000E-03 0. -1.
    9900012    2    1    2    0    0 -0.20595072253E+02  0.44575517506E+01  0.23931025789E+02  0.59301940914E+02  0.49999994322E+02 0.  0.
         12    1    1    2    0    0  0.20595072253E+02 -0.44575517506E+01 -0.23931025789E+02  0.31886059086E+02  0.00000000000E+00 0. -1.
         11    1    3    3    0    0 -0.22804255324E+02  0.22164329346E+02  0.21954957724E+02  0.38643391740E+02  0.51100000000E-03 0.  1.
        -11    1    3    3    0    0 -0.36209574765E+01 -0.89230014724E+01  0.29491650449E+01  0.10071189753E+02  0.51100000000E-03 0. -1.
        -12    1    3    3    0    0  0.58301405476E+01 -0.87837761232E+01 -0.97309697911E+00  0.10587359421E+02  0.00000000000E+00 0.  1.
</event>
<event>
 7    1  0.1134395E-011  0.5930200E+02  0.7816164E-02  0.1266605E+00
        -11   -1    0    0    0    0  0.00000000000E+00  0.00000000000E+00  0.45593999997E+02  0.45594000000E+02  0.51100000000E-03 0. -1.
         11   -1    0    0    0    0 -0.00000000000E+00 -0.00000000000E+00 -0.45593999997E+02  0.45594000000E+02  0.51100000000E-03 0.  1.
    9900012    2    1    2    0    0  0.30864378156E+02  0.10058150585E+01 -0.79432869561E+01  0.59301995068E+02  0.50000093085E+02 0.  0.
         12    1    1    2    0    0 -0.30864378156E+02 -0.10058150585E+01  0.79432869561E+01  0.31886004932E+02  0.00000000000E+00 0. -1.
         11    1    3    3    0    0  0.80363291381E+01 -0.15219306756E+01  0.53770769125E+01  0.97883510042E+01  0.51100000000E-03 0. -1.
        -11    1    3    3    0    0  0.30715069546E+02  0.13681846707E+02 -0.65085062446E+01  0.34248636182E+02  0.51100000000E-03 0.  1.
         12    1    3    3    0    0 -0.78870205283E+01 -0.11154100973E+02 -0.68118576240E+01  0.15265007881E+02  0.00000000000E+00 0. -1.
</event>
<event>
 7    1  0.1134395E-011  0.5930194E+02  0.7816164E-02  0.1266605E+00
        -11   -1    0    0    0    0  0.00000000000E+00  0.00000000000E+00  0.45593999997E+02  0.45594000000E+02  0.51100000000E-03 0.  1.
         11   -1    0    0    0    0 -0.00000000000E+00 -0.00000000000E+00 -0.45593999997E+02  0.45594000000E+02  0.51100000000E-03 0. -1.
    9900012    2    1    2    0    0 -0.34711448193E+01  0.22087960239E+02  0.22733106073E+02  0.59301938067E+02  0.49999989129E+02 0.  0.
         12    1    1    2    0    0  0.34711448193E+01 -0.22087960239E+02 -0.22733106073E+02  0.31886061933E+02  0.00000000000E+00 0. -1.
         11    1    3    3    0    0 -0.50790564557E+01 -0.52351799383E+01 -0.19367910710E+01  0.75468591732E+01  0.51100000000E-03 0. -1.
        -11    1    3    3    0    0  0.94750977678E+00 -0.70349421671E+01 -0.29299747529E+01  0.76793839847E+01  0.51100000000E-03 0.  1.
         12    1    3    3    0    0  0.66040185961E+00  0.34358082344E+02  0.27599871897E+02  0.44075694909E+02  0.00000000000E+00 0. -1.
</event>
<event>
 7    1  0.1134395E-011  0.5930194E+02  0.7816164E-02  0.1266605E+00
        -11   -1    0    0    0    0  0.00000000000E+00  0.00000000000E+00  0.45593999997E+02  0.45594000000E+02  0.51100000000E-03 0.  1.
         11   -1    0    0    0    0 -0.00000000000E+00 -0.00000000000E+00 -0.45593999997E+02  0.45594000000E+02  0.51100000000E-03 0. -1.
    9900012    2    1    2    0    0 -0.66934400810E+01 -0.25804404455E+02  0.17494325918E+02  0.59301939272E+02  0.49999991327E+02 0.  0.
         12    1    1    2    0    0  0.66934400810E+01  0.25804404455E+02 -0.17494325918E+02  0.31886060728E+02  0.00000000000E+00 0. -1.
         11    1    3    3    0    0  0.12322145126E+02 -0.16038570969E+00 -0.25693901323E+00  0.12325867191E+02  0.51100000000E-03 0. -1.
        -11    1    3    3    0    0  0.28806700033E+01 -0.20834061910E+02  0.75563406561E+01  0.22348482716E+02  0.51100000000E-03 0.  1.
        -12    1    3    3    0    0 -0.21896255210E+02 -0.48099568360E+01  0.10194924275E+02  0.24627589366E+02  0.00000000000E+00 0.  1.
</event>
<event>
 7    1  0.1134395E-011  0.5930192E+02  0.7816164E-02  0.1266605E+00
        -11   -1    0    0    0    0  0.00000000000E+00  0.00000000000E+00  0.45593999997E+02  0.45594000000E+02  0.51100000000E-03 0.  1.
         11   -1    0    0    0    0 -0.00000000000E+00 -0.00000000000E+00 -0.45593999997E+02  0.45594000000E+02  0.51100000000E-03 0. -1.
    9900012    2    1    2    0    0 -0.24100363326E+02  0.75748785840E+01  0.19455476039E+02  0.59301923949E+02  0.49999963382E+02 0.  0.
         12    1    1    2    0    0  0.24100363326E+02 -0.75748785840E+01 -0.19455476039E+02  0.31886076051E+02  0.00000000000E+00 0. -1.
         11    1    3    3    0    0  0.13929901173E+01 -0.85588275175E+01 -0.29165315451E+01  0.91487762272E+01  0.51100000000E-03 0. -1.
        -11    1    3    3    0    0 -0.66962126728E+00 -0.93108234359E+01  0.43736914699E+01  0.10308685805E+02  0.51100000000E-03 0.  1.
         12    1    3    3    0    0 -0.24823732176E+02  0.25444529537E+02  0.17998316114E+02  0.39844461917E+02  0.00000000000E+00 0. -1.
</event>
<event>
 7    1  0.1134395E-011  0.5930195E+02  0.7816164E-02  0.1266605E+00
        -11   -1    0    0    0    0  0.00000000000E+00  0.00000000000E+00  0.45593999997E+02  0.45594000000E+02  0.51100000000E-03 0.  1.
         11   -1    0    0    0    0 -0.00000000000E+00 -0.00000000000E+00 -0.45593999997E+02  0.45594000000E+02  0.51100000000E-03 0. -1.
    9900012    2    1    2    0    0  0.30750355964E+02  0.82546982181E+01 -0.17307694147E+01  0.59301952936E+02  0.50000016247E+02 0.  0.
         12    1    1    2    0    0 -0.30750355964E+02 -0.82546982181E+01  0.17307694147E+01  0.31886047064E+02  0.00000000000E+00 0. -1.
         11    1    3    3    0    0  0.26395656659E+02  0.37880709681E+00  0.52063712782E+01  0.26906885503E+02  0.51100000000E-03 0.  1.
        -11    1    3    3    0    0 -0.33162717280E+01 -0.10792424201E+02 -0.41093401562E+01  0.12015022060E+02  0.51100000000E-03 0. -1.
         12    1    3    3    0    0  0.76709710325E+01  0.18668315323E+02 -0.28278005367E+01  0.20380045374E+02  0.00000000000E+00 0. -1.
</event>
<event>
 7    1  0.1134395E-011  0.5930197E+02  0.7816164E-02  0.1266605E+00
        -11   -1    0    0    0    0  0.00000000000E+00  0.00000000000E+00  0.45593999997E+02  0.45594000000E+02  0.51100000000E-03 0. -1.
         11   -1    0    0    0    0 -0.00000000000E+00 -0.00000000000E+00 -0.45593999997E+02  0.45594000000E+02  0.51100000000E-03 0.  1.
    9900012    2    1    2    0    0  0.11979702811E+02  0.29499162947E+02 -0.17335586091E+01  0.59301966702E+02  0.50000041353E+02 0.  0.
         12    1    1    2    0    0 -0.11979702811E+02 -0.29499162947E+02  0.17335586091E+01  0.31886033298E+02  0.00000000000E+00 0. -1.
         11    1    3    3    0    0 -0.72699588800E+01  0.24060194590E+01 -0.44473723046E+01  0.88555266603E+01  0.51100000000E-03 0. -1.
        -11    1    3    3    0    0  0.43174487612E+01  0.32405908778E+02  0.81465935190E+01  0.33691991241E+02  0.51100000000E-03 0.  1.
         12    1    3    3    0    0  0.14932212930E+02 -0.53127652903E+01 -0.54327798235E+01  0.16754448801E+02  0.00000000000E+00 0. -1.
</event>
<event>
 7    1  0.1134395E-011  0.5930196E+02  0.7816164E-02  0.1266605E+00
        -11   -1    0    0    0    0  0.00000000000E+00  0.00000000000E+00  0.45593999997E+02  0.45594000000E+02  0.51100000000E-03 0.  1.
         11   -1    0    0    0    0 -0.00000000000E+00 -0.00000000000E+00 -0.45593999997E+02  0.45594000000E+02  0.51100000000E-03 0. -1.
    9900012    2    1    2    0    0  0.18502216354E+01  0.12798557730E+02  0.29146070797E+02  0.59301955358E+02  0.50000020663E+02 0.  0.
         12    1    1    2    0    0 -0.18502216354E+01 -0.12798557730E+02 -0.29146070797E+02  0.31886044642E+02  0.00000000000E+00 0. -1.
         11    1    3    3    0    0 -0.95252579484E+01  0.39013999802E+00  0.83541970699E+01  0.12675778364E+02  0.51100000000E-03 0. -1.
        -11    1    3    3    0    0  0.11288303642E+02 -0.44706232900E+00  0.29170084117E+02  0.31281295873E+02  0.51100000000E-03 0.  1.
        -12    1    3    3    0    0  0.87175941838E-01  0.12855480061E+02 -0.83782103906E+01  0.15344881120E+02  0.00000000000E+00 0.  1.
</event>
<event>
 7    1  0.1134395E-011  0.5930194E+02  0.7816164E-02  0.1266605E+00
        -11   -1    0    0    0    0  0.00000000000E+00  0.00000000000E+00  0.45593999997E+02  0.45594000000E+02  0.51100000000E-03 0.  1.
         11   -1    0    0    0    0 -0.00000000000E+00 -0.00000000000E+00 -0.45593999997E+02  0.45594000000E+02  0.51100000000E-03 0. -1.
    9900012    2    1    2    0    0 -0.26403170162E+02 -0.17628123747E+02 -0.29736695910E+01  0.59301939530E+02  0.49999991797E+02 0.  0.
         12    1    1    2    0    0  0.26403170162E+02  0.17628123747E+02  0.29736695910E+01  0.31886060470E+02  0.00000000000E+00 0. -1.
         11    1    3    3    0    0  0.65296408803E+01 -0.85110966243E+00 -0.29229027541E+01  0.72044401902E+01  0.51100000000E-03 0. -1.
        -11    1    3    3    0    0  0.38353139523E+01  0.71521969345E+01  0.12374790494E+01  0.82094402221E+01  0.51100000000E-03 0.  1.
        -12    1    3    3    0    0 -0.36768124995E+02 -0.23929211019E+02 -0.12882458863E+01  0.43888059118E+02  0.00000000000E+00 0.  1.
</event>
<event>
 7    1  0.1134395E-011  0.5930195E+02  0.7816164E-02  0.1266605E+00
        -11   -1    0    0    0    0  0.00000000000E+00  0.00000000000E+00  0.45593999997E+02  0.45594000000E+02  0.51100000000E-03 0. -1.
         11   -1    0    0    0    0 -0.00000000000E+00 -0.00000000000E+00 -0.45593999997E+02  0.45594000000E+02  0.51100000000E-03 0.  1.
    9900012    2    1    2    0    0 -0.18176285208E+02 -0.18277589702E+02 -0.18768926963E+02  0.59301948997E+02  0.50000009062E+02 0.  0.
         12    1    1    2    0    0  0.18176285208E+02  0.18277589702E+02  0.18768926963E+02  0.31886051003E+02  0.00000000000E+00 0. -1.
         11    1    3    3    0    0 -0.20041150373E+02 -0.28399441444E+01 -0.95343421112E+01  0.22374464703E+02  0.51100000000E-03 0. -1.
        -11    1    3    3    0    0 -0.52980810753E+01 -0.16137758855E+02 -0.18552727560E+02  0.25153540986E+02  0.51100000000E-03 0.  1.
         12    1    3    3    0    0  0.71629462399E+01  0.70011329812E+00  0.93181427087E+01  0.11773943307E+02  0.00000000000E+00 0. -1.
</event>
<event>
 7    1  0.1134395E-011  0.5930194E+02  0.7816164E-02  0.1266605E+00
        -11   -1    0    0    0    0  0.00000000000E+00  0.00000000000E+00  0.45593999997E+02  0.45594000000E+02  0.51100000000E-03 0. -1.
         11   -1    0    0    0    0 -0.00000000000E+00 -0.00000000000E+00 -0.45593999997E+02  0.45594000000E+02  0.51100000000E-03 0.  1.
    9900012    2    1    2    0    0  0.36290546468E+01 -0.15115853038E+02 -0.27839933874E+02  0.59301937703E+02  0.49999988465E+02 0.  0.
         12    1    1    2    0    0 -0.36290546468E+01  0.15115853038E+02  0.27839933874E+02  0.31886062297E+02  0.00000000000E+00 0. -1.
         11    1    3    3    0    0 -0.67915029374E+01 -0.64339343589E+01 -0.30122294789E-01  0.93552622143E+01  0.51100000000E-03 0. -1.
        -11    1    3    3    0    0  0.11542414757E+02 -0.17341105606E+02 -0.34537953779E-01  0.20831285971E+02  0.51100000000E-03 0.  1.
        -12    1    3    3    0    0 -0.11218571726E+01  0.86591869274E+01 -0.27775273626E+02  0.29115389517E+02  0.00000000000E+00 0.  1.
</event>
<event>
 7    1  0.1134395E-011  0.5930198E+02  0.7816164E-02  0.1266605E+00
        -11   -1    0    0    0    0  0.00000000000E+00  0.00000000000E+00  0.45593999997E+02  0.45594000000E+02  0.51100000000E-03 0.  1.
         11   -1    0    0    0    0 -0.00000000000E+00 -0.00000000000E+00 -0.45593999997E+02  0.45594000000E+02  0.51100000000E-03 0. -1.
    9900012    2    1    2    0    0  0.21045247829E+02  0.15050516710E+01  0.23907124392E+02  0.59301980596E+02  0.50000066692E+02 0.  0.
         12    1    1    2    0    0 -0.21045247829E+02 -0.15050516710E+01 -0.23907124392E+02  0.31886019404E+02  0.00000000000E+00 0. -1.
         11    1    3    3    0    0  0.42766133114E+01 -0.12320973458E+02  0.51041477497E+01  0.14005289461E+02  0.51100000000E-03 0. -1.
        -11    1    3    3    0    0  0.65526250322E+01 -0.10243035279E+02  0.14288990124E+02  0.18762513307E+02  0.51100000000E-03 0.  1.
         12    1    3    3    0    0  0.10216009485E+02  0.24069060409E+02  0.45139865183E+01  0.26534177829E+02  0.00000000000E+00 0. -1.
</event>
<event>
 7    1  0.1134395E-011  0.5930190E+02  0.7816164E-02  0.1266605E+00
        -11   -1    0    0    0    0  0.00000000000E+00  0.00000000000E+00  0.45593999997E+02  0.45594000000E+02  0.51100000000E-03 0.  1.
         11   -1    0    0    0    0 -0.00000000000E+00 -0.00000000000E+00 -0.45593999997E+02  0.45594000000E+02  0.51100000000E-03 0. -1.
    9900012    2    1    2    0    0  0.31500391523E+02 -0.34604900432E+01  0.35317931444E+01  0.59301902399E+02  0.49999924079E+02 0.  0.
         12    1    1    2    0    0 -0.31500391523E+02  0.34604900432E+01 -0.35317931444E+01  0.31886097601E+02  0.00000000000E+00 0. -1.
         11    1    3    3    0    0 -0.18947612436E+01 -0.40196422702E+01  0.93061334210E+01  0.10312699145E+02  0.51100000000E-03 0.  1.
        -11    1    3    3    0    0  0.40757842641E+02  0.69969471195E+00 -0.22516835490E+01  0.40825989131E+02  0.51100000000E-03 0. -1.
         12    1    3    3    0    0 -0.73626898753E+01 -0.14054248493E+00 -0.35226567276E+01  0.81632141225E+01  0.00000000000E+00 0. -1.
</event>
<event>
 7    1  0.1134395E-011  0.5930195E+02  0.7816164E-02  0.1266605E+00
        -11   -1    0    0    0    0  0.00000000000E+00  0.00000000000E+00  0.45593999997E+02  0.45594000000E+02  0.51100000000E-03 0. -1.
         11   -1    0    0    0    0 -0.00000000000E+00 -0.00000000000E+00 -0.45593999997E+02  0.45594000000E+02  0.51100000000E-03 0.  1.
    9900012    2    1    2    0    0  0.26594289830E+02  0.15306391694E+02 -0.86705455582E+01  0.59301949155E+02  0.50000009350E+02 0.  0.
         12    1    1    2    0    0 -0.26594289830E+02 -0.15306391694E+02  0.86705455582E+01  0.31886050845E+02  0.00000000000E+00 0. -1.
         11    1    3    3    0    0  0.75826472159E+01  0.41780692446E+01 -0.51979853357E+01  0.10098111369E+02  0.51100000000E-03 0. -1.
        -11    1    3    3    0    0 -0.79574335847E+01  0.11090570766E+02 -0.14637998425E+02  0.20014807201E+02  0.51100000000E-03 0.  1.
         12    1    3    3    0    0  0.26969076198E+02  0.37751683534E-01  0.11165438202E+02  0.29189030584E+02  0.00000000000E+00 0. -1.
</event>
<event>
 7    1  0.1134395E-011  0.5930194E+02  0.7816164E-02  0.1266605E+00
        -11   -1    0    0    0    0  0.00000000000E+00  0.00000000000E+00  0.45593999997E+02  0.45594000000E+02  0.51100000000E-03 0. -1.
         11   -1    0    0    0    0 -0.00000000000E+00 -0.00000000000E+00 -0.45593999997E+02  0.45594000000E+02  0.51100000000E-03 0.  1.
    9900012    2    1    2    0    0 -0.24038154070E+02  0.20949048958E+02  0.15814858177E+00  0.59301944830E+02  0.50000001463E+02 0.  0.
         12    1    1    2    0    0  0.24038154070E+02 -0.20949048958E+02 -0.15814858177E+00  0.31886055170E+02  0.00000000000E+00 0. -1.
         11    1    3    3    0    0  0.79018920078E+01 -0.23405939990E+00 -0.99698935720E+01  0.12723736055E+02  0.51100000000E-03 0. -1.
        -11    1    3    3    0    0 -0.18868146228E+01  0.14569610851E+02  0.32151116306E+01  0.15038968477E+02  0.51100000000E-03 0.  1.
        -12    1    3    3    0    0 -0.30053231455E+02  0.66134975067E+01  0.69129305231E+01  0.31539240298E+02  0.00000000000E+00 0.  1.
</event>
<event>
 7    1  0.1134395E-011  0.5930194E+02  0.7816164E-02  0.1266605E+00
        -11   -1    0    0    0    0  0.00000000000E+00  0.00000000000E+00  0.45593999997E+02  0.45594000000E+02  0.51100000000E-03 0. -1.
         11   -1    0    0    0    0 -0.00000000000E+00 -0.00000000000E+00 -0.45593999997E+02  0.45594000000E+02  0.51100000000E-03 0.  1.
    9900012    2    1    2    0    0  0.27866251205E+02  0.15348927374E+02 -0.21455950061E+01  0.59301935556E+02  0.49999984550E+02 0.  0.
         12    1    1    2    0    0 -0.27866251205E+02 -0.15348927374E+02  0.21455950061E+01  0.31886064444E+02  0.00000000000E+00 0. -1.
         11    1    3    3    0    0  0.18745877155E+01  0.11468783993E+02 -0.92284407085E+01  0.14839514936E+02  0.51100000000E-03 0. -1.
        -11    1    3    3    0    0  0.27275838985E+02  0.16019475260E+02  0.41053847537E+01  0.31897478963E+02  0.51100000000E-03 0.  1.
         12    1    3    3    0    0 -0.12841754953E+01 -0.12139331878E+02  0.29774609486E+01  0.12564941657E+02  0.00000000000E+00 0. -1.
</event>
<event>
 7    1  0.1134395E-011  0.5930195E+02  0.7816164E-02  0.1266605E+00
        -11   -1    0    0    0    0  0.00000000000E+00  0.00000000000E+00  0.45593999997E+02  0.45594000000E+02  0.51100000000E-03 0.  1.
         11   -1    0    0    0    0 -0.00000000000E+00 -0.00000000000E+00 -0.45593999997E+02  0.45594000000E+02  0.51100000000E-03 0. -1.
    9900012    2    1    2    0    0 -0.24244289207E+02 -0.90276234452E+01  0.18639651216E+02  0.59301950673E+02  0.50000012119E+02 0.  0.
         12    1    1    2    0    0  0.24244289207E+02  0.90276234452E+01 -0.18639651216E+02  0.31886049327E+02  0.00000000000E+00 0. -1.
         11    1    3    3    0    0 -0.77505012606E+01 -0.96203530667E+01  0.87260088969E+01  0.15124969238E+02  0.51100000000E-03 0.  1.
        -11    1    3    3    0    0  0.31144414834E+01 -0.14834860965E+02 -0.39088080090E+01  0.15654124885E+02  0.51100000000E-03 0. -1.
         12    1    3    3    0    0 -0.19608229430E+02  0.15427590587E+02  0.13822450328E+02  0.28522856550E+02  0.00000000000E+00 0. -1.
</event>
<event>
 7    1  0.1134395E-011  0.5930198E+02  0.7816164E-02  0.1266605E+00
        -11   -1    0    0    0    0  0.00000000000E+00  0.00000000000E+00  0.45593999997E+02  0.45594000000E+02  0.51100000000E-03 0. -1.
         11   -1    0    0    0    0 -0.00000000000E+00 -0.00000000000E+00 -0.45593999997E+02  0.45594000000E+02  0.51100000000E-03 0.  1.
    9900012    2    1    2    0    0 -0.22002784899E+02  0.15752456388E+02 -0.16865819428E+02  0.59301979700E+02  0.50000065058E+02 0.  0.
         12    1    1    2    0    0  0.22002784899E+02 -0.15752456388E+02  0.16865819428E+02  0.31886020300E+02  0.00000000000E+00 0. -1.
         11    1    3    3    0    0 -0.17096311350E+02  0.14025983897E+01  0.91680034539E+01  0.19450023949E+02  0.51100000000E-03 0. -1.
        -11    1    3    3    0    0 -0.12348894816E+02  0.13201941246E+02 -0.70045610225E+01  0.19386859757E+02  0.51100000000E-03 0.  1.
        -12    1    3    3    0    0  0.74424212662E+01  0.11479167524E+01 -0.19029261859E+02  0.20465095995E+02  0.00000000000E+00 0.  1.
</event>
<event>
 7    1  0.1134395E-011  0.5930201E+02  0.7816164E-02  0.1266605E+00
        -11   -1    0    0    0    0  0.00000000000E+00  0.00000000000E+00  0.45593999997E+02  0.45594000000E+02  0.51100000000E-03 0. -1.
         11   -1    0    0    0    0 -0.00000000000E+00 -0.00000000000E+00 -0.45593999997E+02  0.45594000000E+02  0.51100000000E-03 0.  1.
    9900012    2    1    2    0    0  0.27364541326E+02  0.12120802248E+02 -0.10999289861E+02  0.59302010184E+02  0.50000120653E+02 0.  0.
         12    1    1    2    0    0 -0.27364541326E+02 -0.12120802248E+02  0.10999289861E+02  0.31885989816E+02  0.00000000000E+00 0. -1.
         11    1    3    3    0    0 -0.49844726932E+01 -0.42447809623E+01  0.62437315997E+01  0.90469507568E+01  0.51100000000E-03 0. -1.
        -11    1    3    3    0    0  0.96155955465E+01 -0.76511846655E+00 -0.19443691593E+02  0.21704889473E+02  0.51100000000E-03 0.  1.
         12    1    3    3    0    0  0.22733418472E+02  0.17130701677E+02  0.22006701330E+01  0.28550169954E+02  0.00000000000E+00 0. -1.
</event>
<event>
 7    1  0.1134395E-011  0.5930194E+02  0.7816164E-02  0.1266605E+00
        -11   -1    0    0    0    0  0.00000000000E+00  0.00000000000E+00  0.45593999997E+02  0.45594000000E+02  0.51100000000E-03 0. -1.
         11   -1    0    0    0    0 -0.00000000000E+00 -0.00000000000E+00 -0.45593999997E+02  0.45594000000E+02  0.51100000000E-03 0.  1.
    9900012    2    1    2    0    0  0.27739306734E+00  0.31363337003E+02  0.57432332846E+01  0.59301943746E+02  0.49999999486E+02 0.  0.
         12    1    1    2    0    0 -0.27739306734E+00 -0.31363337003E+02 -0.57432332846E+01  0.31886056254E+02  0.00000000000E+00 0. -1.
         11    1    3    3    0    0 -0.97260748111E+01  0.82785453092E+01  0.86180797317E+01  0.15407859754E+02  0.51100000000E-03 0. -1.
        -11    1    3    3    0    0 -0.67212903042E+01  0.16288238494E+02 -0.14159143415E+02  0.22604508381E+02  0.51100000000E-03 0.  1.
         12    1    3    3    0    0  0.16724758183E+02  0.67965531992E+01  0.11284296968E+02  0.21289575612E+02  0.00000000000E+00 0. -1.
</event>
<event>
 7    1  0.1134395E-011  0.5930195E+02  0.7816164E-02  0.1266605E+00
        -11   -1    0    0    0    0  0.00000000000E+00  0.00000000000E+00  0.45593999997E+02  0.45594000000E+02  0.51100000000E-03 0. -1.
         11   -1    0    0    0    0 -0.00000000000E+00 -0.00000000000E+00 -0.45593999997E+02  0.45594000000E+02  0.51100000000E-03 0.  1.
    9900012    2    1    2    0    0 -0.91510144420E+00  0.29455528148E+02 -0.12175976681E+02  0.59301953565E+02  0.50000017393E+02 0.  0.
         12    1    1    2    0    0  0.91510144420E+00 -0.29455528148E+02  0.12175976681E+02  0.31886046435E+02  0.00000000000E+00 0. -1.
         11    1    3    3    0    0  0.38004527997E+01  0.48130184982E+01  0.10859184592E+02  0.12471185942E+02  0.51100000000E-03 0. -1.
        -11    1    3    3    0    0  0.59463461590E+00  0.20077477862E+02  0.26022906469E+01  0.20254150797E+02  0.51100000000E-03 0.  1.
        -12    1    3    3    0    0 -0.53101888598E+01  0.45650317881E+01 -0.25637451920E+02  0.26576616825E+02  0.00000000000E+00 0.  1.
</event>
<event>
 7    1  0.1134395E-011  0.5930197E+02  0.7816164E-02  0.1266605E+00
        -11   -1    0    0    0    0  0.00000000000E+00  0.00000000000E+00  0.45593999997E+02  0.45594000000E+02  0.51100000000E-03 0.  1.
         11   -1    0    0    0    0 -0.00000000000E+00 -0.00000000000E+00 -0.45593999997E+02  0.45594000000E+02  0.51100000000E-03 0. -1.
    9900012    2    1    2    0    0  0.25082126458E+02  0.13231482075E+02  0.14578531686E+02  0.59301972156E+02  0.50000051299E+02 0.  0.
         12    1    1    2    0    0 -0.25082126458E+02 -0.13231482075E+02 -0.14578531686E+02  0.31886027844E+02  0.00000000000E+00 0. -1.
         11    1    3    3    0    0  0.47774662507E+01 -0.30282333634E+01 -0.42977714898E+01  0.71038877468E+01  0.51100000000E-03 0. -1.
        -11    1    3    3    0    0 -0.18654310649E+01 -0.64877000335E+01 -0.80861565639E+01  0.10533566016E+02  0.51100000000E-03 0.  1.
        -12    1    3    3    0    0  0.22170091273E+02  0.22747415472E+02  0.26962459739E+02  0.41664518393E+02  0.00000000000E+00 0.  1.
</event>
<event>
 7    1  0.1134395E-011  0.5930194E+02  0.7816164E-02  0.1266605E+00
        -11   -1    0    0    0    0  0.00000000000E+00  0.00000000000E+00  0.45593999997E+02  0.45594000000E+02  0.51100000000E-03 0.  1.
         11   -1    0    0    0    0 -0.00000000000E+00 -0.00000000000E+00 -0.45593999997E+02  0.45594000000E+02  0.51100000000E-03 0. -1.
    9900012    2    1    2    0    0  0.30834263535E+02 -0.25068484819E+01 -0.77255808600E+01  0.59301941970E+02  0.49999996247E+02 0.  0.
         12    1    1    2    0    0 -0.30834263535E+02  0.25068484819E+01  0.77255808600E+01  0.31886058030E+02  0.00000000000E+00 0. -1.
         11    1    3    3    0    0  0.12793673598E+02  0.56224326733E+01 -0.30345346760E+00  0.13977908197E+02  0.51100000000E-03 0.  1.
        -11    1    3    3    0    0  0.27458859693E+02 -0.94098483960E+01 -0.15450350372E+02  0.32882328831E+02  0.51100000000E-03 0. -1.
        -12    1    3    3    0    0 -0.94182697556E+01  0.12805672408E+01  0.80282229799E+01  0.12441704942E+02  0.00000000000E+00 0.  1.
</event>
<event>
 7    1  0.1134395E-011  0.5930196E+02  0.7816164E-02  0.1266605E+00
        -11   -1    0    0    0    0  0.00000000000E+00  0.00000000000E+00  0.45593999997E+02  0.45594000000E+02  0.51100000000E-03 0.  1.
         11   -1    0    0    0    0 -0.00000000000E+00 -0.00000000000E+00 -0.45593999997E+02  0.45594000000E+02  0.51100000000E-03 0. -1.
    9900012    2    1    2    0    0  0.23190989496E+02 -0.53517976788E+01  0.21219226323E+02  0.59301963904E+02  0.50000036249E+02 0.  0.
         12    1    1    2    0    0 -0.23190989496E+02  0.53517976788E+01 -0.21219226323E+02  0.31886036096E+02  0.00000000000E+00 0. -1.
         11    1    3    3    0    0 -0.25096115151E+01 -0.18383161371E+02  0.45490587778E+01  0.19103211981E+02  0.51100000000E-03 0.  1.
        -11    1    3    3    0    0  0.29702943795E+01  0.77953844508E+01 -0.37980566579E+01  0.91660188781E+01  0.51100000000E-03 0. -1.
        -12    1    3    3    0    0  0.22730306632E+02  0.52359792418E+01  0.20468224203E+02  0.31032733044E+02  0.00000000000E+00 0.  1.
</event>
<event>
 7    1  0.1134395E-011  0.5930195E+02  0.7816164E-02  0.1266605E+00
        -11   -1    0    0    0    0  0.00000000000E+00  0.00000000000E+00  0.45593999997E+02  0.45594000000E+02  0.51100000000E-03 0.  1.
         11   -1    0    0    0    0 -0.00000000000E+00 -0.00000000000E+00 -0.45593999997E+02  0.45594000000E+02  0.51100000000E-03 0. -1.
    9900012    2    1    2    0    0  0.17692545925E+02  0.22582054017E+02  0.13919230560E+02  0.59301947809E+02  0.50000006897E+02 0.  0.
         12    1    1    2    0    0 -0.17692545925E+02 -0.22582054017E+02 -0.13919230560E+02  0.31886052191E+02  0.00000000000E+00 0. -1.
         11    1    3    3    0    0  0.16296380068E+02  0.11153918782E+02  0.17458752365E+02  0.26358868373E+02  0.51100000000E-03 0.  1.
        -11    1    3    3    0    0  0.95272154521E+01  0.16050250028E+02  0.59782714734E+01  0.19598930846E+02  0.51100000000E-03 0. -1.
         12    1    3    3    0    0 -0.81310495957E+01 -0.46221147931E+01 -0.95177932786E+01  0.13344148590E+02  0.00000000000E+00 0. -1.
</event>
<event>
 7    1  0.1134395E-011  0.5930194E+02  0.7816164E-02  0.1266605E+00
        -11   -1    0    0    0    0  0.00000000000E+00  0.00000000000E+00  0.45593999997E+02  0.45594000000E+02  0.51100000000E-03 0.  1.
         11   -1    0    0    0    0 -0.00000000000E+00 -0.00000000000E+00 -0.45593999997E+02  0.45594000000E+02  0.51100000000E-03 0. -1.
    9900012    2    1    2    0    0  0.16667983421E+02  0.14723017829E+02  0.22850198825E+02  0.59301944872E+02  0.50000001539E+02 0.  0.
         12    1    1    2    0    0 -0.16667983421E+02 -0.14723017829E+02 -0.22850198825E+02  0.31886055128E+02  0.00000000000E+00 0. -1.
         11    1    3    3    0    0 -0.53597108936E+00  0.71983432133E+01 -0.32147792372E+01  0.79017856102E+01  0.51100000000E-03 0. -1.
        -11    1    3    3    0    0  0.11596181475E+02  0.67898920747E+01 -0.88108239230E+01  0.16068748478E+02  0.51100000000E-03 0.  1.
         12    1    3    3    0    0  0.56077730346E+01  0.73478254057E+00  0.34875801986E+02  0.35331410783E+02  0.00000000000E+00 0. -1.
</event>
<event>
 7    1  0.1134395E-011  0.5930199E+02  0.7816164E-02  0.1266605E+00
        -11   -1    0    0    0    0  0.00000000000E+00  0.00000000000E+00  0.45593999997E+02  0.45594000000E+02  0.51100000000E-03 0.  1.
         11   -1    0    0    0    0 -0.00000000000E+00 -0.00000000000E+00 -0.45593999997E+02  0.45594000000E+02  0.51100000000E-03 0. -1.
    9900012    2    1    2    0    0 -0.52766622728E+01  0.43081280681E+01  0.31149875557E+02  0.59301986147E+02  0.50000076816E+02 0.  0.
         12    1    1    2    0    0  0.52766622728E+01 -0.43081280681E+01 -0.31149875557E+02  0.31886013853E+02  0.00000000000E+00 0. -1.
         11    1    3    3    0    0 -0.79663340231E+01  0.87709374234E+01  0.31659037195E+02  0.33803645623E+02  0.51100000000E-03 0. -1.
        -11    1    3    3    0    0 -0.11377810810E+01 -0.63786192747E+01  0.11251107758E+02  0.12983403085E+02  0.51100000000E-03 0.  1.
         12    1    3    3    0    0  0.38274528313E+01  0.19158099195E+01 -0.11760269396E+02  0.12514937439E+02  0.00000000000E+00 0. -1.
</event>
<event>
 7    1  0.1134395E-011  0.5930189E+02  0.7816164E-02  0.1266605E+00
        -11   -1    0    0    0    0  0.00000000000E+00  0.00000000000E+00  0.45593999997E+02  0.45594000000E+02  0.51100000000E-03 0.  1.
         11   -1    0    0    0    0 -0.00000000000E+00 -0.00000000000E+00 -0.45593999997E+02  0.45594000000E+02  0.51100000000E-03 0. -1.
    9900012    2    1    2    0    0 -0.13817925822E+01  0.39045935348E+00  0.31853763597E+02  0.59301889160E+02  0.49999899934E+02 0.  0.
         12    1    1    2    0    0  0.13817925822E+01 -0.39045935348E+00 -0.31853763597E+02  0.31886110840E+02  0.00000000000E+00 0. -1.
         11    1    3    3    0    0  0.28933367523E+01 -0.37085721651E+01 -0.37626128347E+01  0.60234674957E+01  0.51100000000E-03 0. -1.
        -11    1    3    3    0    0  0.24470260103E+01  0.12057777560E+02  0.40093903572E+02  0.41939230321E+02  0.51100000000E-03 0.  1.
         12    1    3    3    0    0 -0.67221553448E+01 -0.79587460411E+01 -0.44775271408E+01  0.11339191343E+02  0.00000000000E+00 0. -1.
</event>
<event>
 7    1  0.1134395E-011  0.5930196E+02  0.7816164E-02  0.1266605E+00
        -11   -1    0    0    0    0  0.00000000000E+00  0.00000000000E+00  0.45593999997E+02  0.45594000000E+02  0.51100000000E-03 0.  1.
         11   -1    0    0    0    0 -0.00000000000E+00 -0.00000000000E+00 -0.45593999997E+02  0.45594000000E+02  0.51100000000E-03 0. -1.
    9900012    2    1    2    0    0 -0.30413403622E+02  0.90896244614E+01 -0.30204656490E+01  0.59301959081E+02  0.50000027454E+02 0.  0.
         12    1    1    2    0    0  0.30413403622E+02 -0.90896244614E+01  0.30204656490E+01  0.31886040919E+02  0.00000000000E+00 0. -1.
         11    1    3    3    0    0 -0.23551468207E+02 -0.92289565543E+01 -0.92321420615E+01  0.26927267612E+02  0.51100000000E-03 0. -1.
        -11    1    3    3    0    0  0.42251535462E+01 -0.23984642003E+01  0.73944294898E+01  0.88477195225E+01  0.51100000000E-03 0.  1.
        -12    1    3    3    0    0 -0.11087088962E+02  0.20717045216E+02 -0.11827530772E+01  0.23526971946E+02  0.00000000000E+00 0.  1.
</event>
<event>
 7    1  0.1134395E-011  0.5930195E+02  0.7816164E-02  0.1266605E+00
        -11   -1    0    0    0    0  0.00000000000E+00  0.00000000000E+00  0.45593999997E+02  0.45594000000E+02  0.51100000000E-03 0.  1.
         11   -1    0    0    0    0 -0.00000000000E+00 -0.00000000000E+00 -0.45593999997E+02  0.45594000000E+02  0.51100000000E-03 0. -1.
    9900012    2    1    2    0    0  0.18875070097E+02  0.23577209011E+02  0.10225791474E+02  0.59301954977E+02  0.50000019969E+02 0.  0.
         12    1    1    2    0    0 -0.18875070097E+02 -0.23577209011E+02 -0.10225791474E+02  0.31886045023E+02  0.00000000000E+00 0. -1.
         11    1    3    3    0    0  0.23209624157E+02  0.19468415081E+02  0.29039045170E+01  0.30432523737E+02  0.51100000000E-03 0. -1.
        -11    1    3    3    0    0 -0.11096436614E+02  0.71919553925E+01  0.13725866658E+02  0.19059237752E+02  0.51100000000E-03 0.  1.
         12    1    3    3    0    0  0.67618825545E+01 -0.30831614623E+01 -0.64039797010E+01  0.98101934891E+01  0.00000000000E+00 0. -1.
</event>
<event>
 7    1  0.1134395E-011  0.5930194E+02  0.7816164E-02  0.1266605E+00
        -11   -1    0    0    0    0  0.00000000000E+00  0.00000000000E+00  0.45593999997E+02  0.45594000000E+02  0.51100000000E-03 0.  1.
         11   -1    0    0    0    0 -0.00000000000E+00 -0.00000000000E+00 -0.45593999997E+02  0.45594000000E+02  0.51100000000E-03 0. -1.
    9900012    2    1    2    0    0  0.22798433321E+02  0.12931341220E+02  0.18158540537E+02  0.59301941258E+02  0.49999994948E+02 0.  0.
         12    1    1    2    0    0 -0.22798433321E+02 -0.12931341220E+02 -0.18158540537E+02  0.31886058742E+02  0.00000000000E+00 0. -1.
         11    1    3    3    0    0  0.55633042535E+01  0.15129829513E+02 -0.10076399458E+02  0.19010416134E+02  0.51100000000E-03 0. -1.
        -11    1    3    3    0    0  0.10472581690E+02  0.17466510954E+01 -0.38082388102E+00  0.10624066284E+02  0.51100000000E-03 0.  1.
        -12    1    3    3    0    0  0.67625473774E+01 -0.39451393879E+01  0.28615763876E+02  0.29667458840E+02  0.00000000000E+00 0.  1.
</event>
<event>
 7    1  0.1134395E-011  0.5930190E+02  0.7816164E-02  0.1266605E+00
        -11   -1    0    0    0    0  0.00000000000E+00  0.00000000000E+00  0.45593999997E+02  0.45594000000E+02  0.51100000000E-03 0. -1.
         11   -1    0    0    0    0 -0.00000000000E+00 -0.00000000000E+00 -0.45593999997E+02  0.45594000000E+02  0.51100000000E-03 0.  1.
    9900012    2    1    2    0    0  0.88355656600E+01 -0.27676695934E+02 -0.13139876545E+02  0.59301904692E+02  0.49999928262E+02 0.  0.
         12    1    1    2    0    0 -0.88355656600E+01  0.27676695934E+02  0.13139876545E+02  0.31886095308E+02  0.00000000000E+00 0. -1.
         11    1    3    3    0    0 -0.64750751703E+01 -0.14637236963E+02 -0.28587798481E+02  0.32763356462E+02  0.51100000000E-03 0. -1.
        -11    1    3    3    0    0  0.10618152201E+01  0.61986693793E+00 -0.32546167917E+00  0.12718538234E+01  0.51100000000E-03 0.  1.
        -12    1    3    3    0    0  0.14248825610E+02 -0.13659325909E+02  0.15773383616E+02  0.25266694407E+02  0.00000000000E+00 0.  1.
</event>
<event>
 7    1  0.1134395E-011  0.5930191E+02  0.7816164E-02  0.1266605E+00
        -11   -1    0    0    0    0  0.00000000000E+00  0.00000000000E+00  0.45593999997E+02  0.45594000000E+02  0.51100000000E-03 0. -1.
         11   -1    0    0    0    0 -0.00000000000E+00 -0.00000000000E+00 -0.45593999997E+02  0.45594000000E+02  0.51100000000E-03 0.  1.
    9900012    2    1    2    0    0 -0.16794312611E+02  0.15888747209E+02 -0.21959538174E+02  0.59301913054E+02  0.49999943511E+02 0.  0.
         12    1    1    2    0    0  0.16794312611E+02 -0.15888747209E+02  0.21959538174E+02  0.31886086946E+02  0.00000000000E+00 0. -1.
         11    1    3    3    0    0 -0.39398505886E+01  0.13788254295E+01 -0.17248146895E+02  0.17746046146E+02  0.51100000000E-03 0. -1.
        -11    1    3    3    0    0 -0.12149761168E+02  0.88116710134E-01 -0.18142936552E+02  0.21835535441E+02  0.51100000000E-03 0.  1.
         12    1    3    3    0    0 -0.70470085394E+00  0.14421805069E+02  0.13431545273E+02  0.19720331467E+02  0.00000000000E+00 0. -1.
</event>
<event>
 7    1  0.1134395E-011  0.5930197E+02  0.7816164E-02  0.1266605E+00
        -11   -1    0    0    0    0  0.00000000000E+00  0.00000000000E+00  0.45593999997E+02  0.45594000000E+02  0.51100000000E-03 0.  1.
         11   -1    0    0    0    0 -0.00000000000E+00 -0.00000000000E+00 -0.45593999997E+02  0.45594000000E+02  0.51100000000E-03 0. -1.
    9900012    2    1    2    0    0 -0.54191772829E+01 -0.88211422134E+01  0.30158565995E+02  0.59301966455E+02  0.50000040902E+02 0.  0.
         12    1    1    2    0    0  0.54191772829E+01  0.88211422134E+01 -0.30158565995E+02  0.31886033545E+02  0.00000000000E+00 0. -1.
         11    1    3    3    0    0  0.56764209041E+01 -0.14372790401E+01  0.23554514035E+01  0.63115510689E+01  0.51100000000E-03 0. -1.
        -11    1    3    3    0    0 -0.25747040733E+02 -0.13660269257E+02  0.17125201218E+02  0.33805111739E+02  0.51100000000E-03 0.  1.
         12    1    3    3    0    0  0.14651442546E+02  0.62764060836E+01  0.10677913373E+02  0.19185303647E+02  0.00000000000E+00 0. -1.
</event>
<event>
 7    1  0.1134395E-011  0.5930194E+02  0.7816164E-02  0.1266605E+00
        -11   -1    0    0    0    0  0.00000000000E+00  0.00000000000E+00  0.45593999997E+02  0.45594000000E+02  0.51100000000E-03 0.  1.
         11   -1    0    0    0    0 -0.00000000000E+00 -0.00000000000E+00 -0.45593999997E+02  0.45594000000E+02  0.51100000000E-03 0. -1.
    9900012    2    1    2    0    0  0.48613378473E+01  0.18982158538E+02  0.25154842942E+02  0.59301936087E+02  0.49999985518E+02 0.  0.
         12    1    1    2    0    0 -0.48613378473E+01 -0.18982158538E+02 -0.25154842942E+02  0.31886063913E+02  0.00000000000E+00 0. -1.
         11    1    3    3    0    0  0.20636023258E+02 -0.51629785443E+01  0.13234531991E+02  0.25053036556E+02  0.51100000000E-03 0.  1.
        -11    1    3    3    0    0 -0.98641713794E+01  0.51073552027E+01  0.16993921256E+00  0.11109267922E+02  0.51100000000E-03 0. -1.
        -12    1    3    3    0    0 -0.59105140315E+01  0.19037781879E+02  0.11750371739E+02  0.23139631609E+02  0.00000000000E+00 0.  1.
</event>
<event>
 7    1  0.1134395E-011  0.5930193E+02  0.7816164E-02  0.1266605E+00
        -11   -1    0    0    0    0  0.00000000000E+00  0.00000000000E+00  0.45593999997E+02  0.45594000000E+02  0.51100000000E-03 0. -1.
         11   -1    0    0    0    0 -0.00000000000E+00 -0.00000000000E+00 -0.45593999997E+02  0.45594000000E+02  0.51100000000E-03 0.  1.
    9900012    2    1    2    0    0  0.29890927111E+02 -0.67408849501E+01 -0.88212586529E+01  0.59301926901E+02  0.49999968765E+02 0.  0.
         12    1    1    2    0    0 -0.29890927111E+02  0.67408849501E+01  0.88212586529E+01  0.31886073099E+02  0.00000000000E+00 0. -1.
         11    1    3    3    0    0  0.21550404595E+02 -0.10536389188E+02  0.81561120198E+01  0.25336882185E+02  0.51100000000E-03 0. -1.
        -11    1    3    3    0    0 -0.69117738353E+01  0.48915031080E+01  0.28424318517E+01  0.89319000945E+01  0.51100000000E-03 0.  1.
        -12    1    3    3    0    0  0.15252296351E+02 -0.10959988700E+01 -0.19819802524E+02  0.25033144621E+02  0.00000000000E+00 0.  1.
</event>
<event>
 7    1  0.1134395E-011  0.5930194E+02  0.7816164E-02  0.1266605E+00
        -11   -1    0    0    0    0  0.00000000000E+00  0.00000000000E+00  0.45593999997E+02  0.45594000000E+02  0.51100000000E-03 0.  1.
         11   -1    0    0    0    0 -0.00000000000E+00 -0.00000000000E+00 -0.45593999997E+02  0.45594000000E+02  0.51100000000E-03 0. -1.
    9900012    2    1    2    0    0 -0.27210093526E+02  0.16355751586E+02 -0.29699679432E+01  0.59301944910E+02  0.50000001608E+02 0.  0.
         12    1    1    2    0    0  0.27210093526E+02 -0.16355751586E+02  0.29699679432E+01  0.31886055090E+02  0.00000000000E+00 0. -1.
         11    1    3    3    0    0  0.27335158884E+01  0.65282003753E+01 -0.11449262268E+01  0.71694048274E+01  0.51100000000E-03 0. -1.
        -11    1    3    3    0    0 -0.17269189486E+02  0.18671599786E+02  0.14805948369E+02  0.29429061341E+02  0.51100000000E-03 0.  1.
         12    1    3    3    0    0 -0.12674419929E+02 -0.88440485754E+01 -0.16630990085E+02  0.22703478741E+02  0.00000000000E+00 0. -1.
</event>
<event>
 7    1  0.1134395E-011  0.5930193E+02  0.7816164E-02  0.1266605E+00
        -11   -1    0    0    0    0  0.00000000000E+00  0.00000000000E+00  0.45593999997E+02  0.45594000000E+02  0.51100000000E-03 0.  1.
         11   -1    0    0    0    0 -0.00000000000E+00 -0.00000000000E+00 -0.45593999997E+02  0.45594000000E+02  0.51100000000E-03 0. -1.
    9900012    2    1    2    0    0 -0.31176918922E+02 -0.20887763837E+01  0.63528072837E+01  0.59301930618E+02  0.49999975544E+02 0.  0.
         12    1    1    2    0    0  0.31176918922E+02  0.20887763837E+01 -0.63528072837E+01  0.31886069382E+02  0.00000000000E+00 0. -1.
         11    1    3    3    0    0 -0.65130244707E+01  0.11374591615E+02  0.67968571976E+00  0.13124892194E+02  0.51100000000E-03 0. -1.
        -11    1    3    3    0    0 -0.76601907109E+01  0.88539820472E+01 -0.87630284696E+01  0.14624027764E+02  0.51100000000E-03 0.  1.
        -12    1    3    3    0    0 -0.17003703740E+02 -0.22317350046E+02  0.14436150034E+02  0.31553010660E+02  0.00000000000E+00 0.  1.
</event>
<event>
 7    1  0.1134395E-011  0.5930195E+02  0.7816164E-02  0.1266605E+00
        -11   -1    0    0    0    0  0.00000000000E+00  0.00000000000E+00  0.45593999997E+02  0.45594000000E+02  0.51100000000E-03 0.  1.
         11   -1    0    0    0    0 -0.00000000000E+00 -0.00000000000E+00 -0.45593999997E+02  0.45594000000E+02  0.51100000000E-03 0. -1.
    9900012    2    1    2    0    0  0.26327254293E+02  0.11671900480E+02  0.13688039863E+02  0.59301952664E+02  0.50000015750E+02 0.  0.
         12    1    1    2    0    0 -0.26327254293E+02 -0.11671900480E+02 -0.13688039863E+02  0.31886047336E+02  0.00000000000E+00 0. -1.
         11    1    3    3    0    0 -0.11062316663E+02 -0.56146273853E+01  0.94867332761E+00  0.12441819480E+02  0.51100000000E-03 0. -1.
        -11    1    3    3    0    0  0.40941997576E+01 -0.38724038969E+01  0.19221606191E+01  0.59542157588E+01  0.51100000000E-03 0.  1.
        -12    1    3    3    0    0  0.33295371199E+02  0.21158931762E+02  0.10817205916E+02  0.40905917425E+02  0.00000000000E+00 0.  1.
</event>
<event>
 7    1  0.1134395E-011  0.5930187E+02  0.7816164E-02  0.1266605E+00
        -11   -1    0    0    0    0  0.00000000000E+00  0.00000000000E+00  0.45593999997E+02  0.45594000000E+02  0.51100000000E-03 0. -1.
         11   -1    0    0    0    0 -0.00000000000E+00 -0.00000000000E+00 -0.45593999997E+02  0.45594000000E+02  0.51100000000E-03 0.  1.
    9900012    2    1    2    0    0  0.95359817243E+00  0.27269686250E+02 -0.16497882485E+02  0.59301870349E+02  0.49999865628E+02 0.  0.
         12    1    1    2    0    0 -0.95359817243E+00 -0.27269686250E+02  0.16497882485E+02  0.31886129651E+02  0.00000000000E+00 0. -1.
         11    1    3    3    0    0 -0.12540958676E+02  0.94177479910E+01 -0.59003279647E+01  0.16756595480E+02  0.51100000000E-03 0. -1.
        -11    1    3    3    0    0  0.10603692108E+02 -0.73110674865E+01 -0.11405406489E+02  0.17203874318E+02  0.51100000000E-03 0.  1.
         12    1    3    3    0    0  0.28908647409E+01  0.25163005745E+02  0.80785196886E+00  0.25341400551E+02  0.00000000000E+00 0. -1.
</event>
<event>
 7    1  0.1134395E-011  0.5930193E+02  0.7816164E-02  0.1266605E+00
        -11   -1    0    0    0    0  0.00000000000E+00  0.00000000000E+00  0.45593999997E+02  0.45594000000E+02  0.51100000000E-03 0. -1.
         11   -1    0    0    0    0 -0.00000000000E+00 -0.00000000000E+00 -0.45593999997E+02  0.45594000000E+02  0.51100000000E-03 0.  1.
    9900012    2    1    2    0    0  0.56990670297E+01  0.31305848073E+02 -0.20458935258E+01  0.59301934566E+02  0.49999982744E+02 0.  0.
         12    1    1    2    0    0 -0.56990670297E+01 -0.31305848073E+02  0.20458935258E+01  0.31886065434E+02  0.00000000000E+00 0. -1.
         11    1    3    3    0    0  0.62125888787E+01  0.15832847232E+02 -0.17239027647E+01  0.17095237730E+02  0.51100000000E-03 0. -1.
        -11    1    3    3    0    0  0.12517134729E+02 -0.38135230425E+01 -0.10524963310E+02  0.16792750602E+02  0.51100000000E-03 0.  1.
        -12    1    3    3    0    0 -0.13030656578E+02  0.19286523883E+02  0.10202972549E+02  0.25413946234E+02  0.00000000000E+00 0.  1.
</event>
<event>
 7    1  0.1134395E-011  0.5930188E+02  0.7816164E-02  0.1266605E+00
        -11   -1    0    0    0    0  0.00000000000E+00  0.00000000000E+00  0.45593999997E+02  0.45594000000E+02  0.51100000000E-03 0.  1.
         11   -1    0    0    0    0 -0.00000000000E+00 -0.00000000000E+00 -0.45593999997E+02  0.45594000000E+02  0.51100000000E-03 0. -1.
    9900012    2    1    2    0    0 -0.31490842943E+02  0.48450114588E+01  0.12560405801E+01  0.59301875067E+02  0.49999874232E+02 0.  0.
         12    1    1    2    0    0  0.31490842943E+02 -0.48450114588E+01 -0.12560405801E+01  0.31886124933E+02  0.00000000000E+00 0. -1.
         11    1    3    3    0    0 -0.36567818304E+00 -0.13381455529E+02 -0.25113810243E+01  0.13619989263E+02  0.51100000000E-03 0. -1.
        -11    1    3    3    0    0 -0.30977110998E+00  0.14429951669E+02  0.21380998031E+01  0.14590782513E+02  0.51100000000E-03 0.  1.
        -12    1    3    3    0    0 -0.30815393650E+02  0.37965153188E+01  0.16293218013E+01  0.31091103292E+02  0.00000000000E+00 0.  1.
</event>
<event>
 7    1  0.1134395E-011  0.5930192E+02  0.7816164E-02  0.1266605E+00
        -11   -1    0    0    0    0  0.00000000000E+00  0.00000000000E+00  0.45593999997E+02  0.45594000000E+02  0.51100000000E-03 0.  1.
         11   -1    0    0    0    0 -0.00000000000E+00 -0.00000000000E+00 -0.45593999997E+02  0.45594000000E+02  0.51100000000E-03 0. -1.
    9900012    2    1    2    0    0 -0.20687480633E+02  0.20633966600E+02  0.12766733423E+02  0.59301922868E+02  0.49999961409E+02 0.  0.
         12    1    1    2    0    0  0.20687480633E+02 -0.20633966600E+02 -0.12766733423E+02  0.31886077132E+02  0.00000000000E+00 0. -1.
         11    1    3    3    0    0 -0.28121548690E+02  0.12942249062E+02  0.13200922644E+02  0.33653939894E+02  0.51100000000E-03 0. -1.
        -11    1    3    3    0    0 -0.57293090311E+01  0.70251353939E+01  0.61104599886E+01  0.10932302173E+02  0.51100000000E-03 0.  1.
         12    1    3    3    0    0  0.13163377088E+02  0.66658214490E+00 -0.65446492098E+01  0.14715680800E+02  0.00000000000E+00 0. -1.
</event>
<event>
 7    1  0.1134395E-011  0.5930194E+02  0.7816164E-02  0.1266605E+00
        -11   -1    0    0    0    0  0.00000000000E+00  0.00000000000E+00  0.45593999997E+02  0.45594000000E+02  0.51100000000E-03 0. -1.
         11   -1    0    0    0    0 -0.00000000000E+00 -0.00000000000E+00 -0.45593999997E+02  0.45594000000E+02  0.51100000000E-03 0.  1.
    9900012    2    1    2    0    0 -0.28091427857E+02  0.96493131443E+00 -0.15055288733E+02  0.59301935170E+02  0.49999983846E+02 0.  0.
         12    1    1    2    0    0  0.28091427857E+02 -0.96493131443E+00  0.15055288733E+02  0.31886064830E+02  0.00000000000E+00 0. -1.
         11    1    3    3    0    0 -0.14186339617E+02 -0.56854935096E+01 -0.16032131695E+02  0.22149634650E+02  0.51100000000E-03 0.  1.
        -11    1    3    3    0    0 -0.12420286922E+02 -0.51263906128E+00 -0.15058871399E+02  0.19526800406E+02  0.51100000000E-03 0. -1.
         12    1    3    3    0    0 -0.14848013177E+01  0.71630638853E+01  0.16035714361E+02  0.17625500114E+02  0.00000000000E+00 0. -1.
</event>
<event>
 7    1  0.1134395E-011  0.5930193E+02  0.7816164E-02  0.1266605E+00
        -11   -1    0    0    0    0  0.00000000000E+00  0.00000000000E+00  0.45593999997E+02  0.45594000000E+02  0.51100000000E-03 0.  1.
         11   -1    0    0    0    0 -0.00000000000E+00 -0.00000000000E+00 -0.45593999997E+02  0.45594000000E+02  0.51100000000E-03 0. -1.
    9900012    2    1    2    0    0  0.64042070493E+01 -0.14708912089E+02  0.27556408718E+02  0.59301927426E+02  0.49999969723E+02 0.  0.
         12    1    1    2    0    0 -0.64042070493E+01  0.14708912089E+02 -0.27556408718E+02  0.31886072574E+02  0.00000000000E+00 0. -1.
         11    1    3    3    0    0  0.21086643072E+02 -0.66991713646E+01  0.16370118429E+02  0.27522830353E+02  0.51100000000E-03 0.  1.
        -11    1    3    3    0    0  0.26641568633E+00 -0.11348477568E+02 -0.20499891940E+01  0.11535223291E+02  0.51100000000E-03 0. -1.
        -12    1    3    3    0    0 -0.14948851709E+02  0.33387368434E+01  0.13236279483E+02  0.20243873782E+02  0.00000000000E+00 0.  1.
</event>
<event>
 7    1  0.1134395E-011  0.5930196E+02  0.7816164E-02  0.1266605E+00
        -11   -1    0    0    0    0  0.00000000000E+00  0.00000000000E+00  0.45593999997E+02  0.45594000000E+02  0.51100000000E-03 0. -1.
         11   -1    0    0    0    0 -0.00000000000E+00 -0.00000000000E+00 -0.45593999997E+02  0.45594000000E+02  0.51100000000E-03 0.  1.
    9900012    2    1    2    0    0 -0.11685163178E+02 -0.37561142761E+01  0.29429040365E+02  0.59301955251E+02  0.50000020468E+02 0.  0.
         12    1    1    2    0    0  0.11685163178E+02  0.37561142761E+01 -0.29429040365E+02  0.31886044749E+02  0.00000000000E+00 0. -1.
         11    1    3    3    0    0  0.55333775495E+01  0.46678613125E+00  0.34600209350E+01  0.65427747577E+01  0.51100000000E-03 0. -1.
        -11    1    3    3    0    0 -0.20075115194E+02 -0.10822107471E+02  0.34652964874E+02  0.41484409541E+02  0.51100000000E-03 0.  1.
         12    1    3    3    0    0  0.28565744663E+01  0.65992070638E+01 -0.86839454440E+01  0.11274770952E+02  0.00000000000E+00 0. -1.
</event>
<event>
 7    1  0.1134395E-011  0.5930195E+02  0.7816164E-02  0.1266605E+00
        -11   -1    0    0    0    0  0.00000000000E+00  0.00000000000E+00  0.45593999997E+02  0.45594000000E+02  0.51100000000E-03 0.  1.
         11   -1    0    0    0    0 -0.00000000000E+00 -0.00000000000E+00 -0.45593999997E+02  0.45594000000E+02  0.51100000000E-03 0. -1.
    9900012    2    1    2    0    0  0.23527530093E+02  0.17069409626E+02  0.13107666182E+02  0.59301947720E+02  0.50000006734E+02 0.  0.
         12    1    1    2    0    0 -0.23527530093E+02 -0.17069409626E+02 -0.13107666182E+02  0.31886052280E+02  0.00000000000E+00 0. -1.
         11    1    3    3    0    0  0.26047685426E+02  0.17435735132E+02 -0.34109159084E+00  0.31346500911E+02  0.51100000000E-03 0. -1.
        -11    1    3    3    0    0  0.12674309496E+01  0.31775348453E+01 -0.64989703862E+01  0.73443669058E+01  0.51100000000E-03 0.  1.
         12    1    3    3    0    0 -0.37875862829E+01 -0.35438603507E+01  0.19947728160E+02  0.20611079903E+02  0.00000000000E+00 0. -1.
</event>
<event>
 7    1  0.1134395E-011  0.5930195E+02  0.7816164E-02  0.1266605E+00
        -11   -1    0    0    0    0  0.00000000000E+00  0.00000000000E+00  0.45593999997E+02  0.45594000000E+02  0.51100000000E-03 0. -1.
         11   -1    0    0    0    0 -0.00000000000E+00 -0.00000000000E+00 -0.45593999997E+02  0.45594000000E+02  0.51100000000E-03 0.  1.
    9900012    2    1    2    0    0  0.15350296453E+01  0.31447044154E+02 -0.50445511104E+01  0.59301946655E+02  0.50000004791E+02 0.  0.
         12    1    1    2    0    0 -0.15350296453E+01 -0.31447044154E+02  0.50445511104E+01  0.31886053345E+02  0.00000000000E+00 0. -1.
         11    1    3    3    0    0  0.62474420000E+01 -0.21344601956E+01 -0.44430122839E+01  0.79578144165E+01  0.51100000000E-03 0. -1.
        -11    1    3    3    0    0  0.16470904564E+02  0.10353973973E+02  0.30637384285E+01  0.19694719283E+02  0.51100000000E-03 0.  1.
        -12    1    3    3    0    0 -0.21183316919E+02  0.23227530376E+02 -0.36652772549E+01  0.31649412955E+02  0.00000000000E+00 0.  1.
</event>
<event>
 7    1  0.1134395E-011  0.5930194E+02  0.7816164E-02  0.1266605E+00
        -11   -1    0    0    0    0  0.00000000000E+00  0.00000000000E+00  0.45593999997E+02  0.45594000000E+02  0.51100000000E-03 0. -1.
         11   -1    0    0    0    0 -0.00000000000E+00 -0.00000000000E+00 -0.45593999997E+02  0.45594000000E+02  0.51100000000E-03 0.  1.
    9900012    2    1    2    0    0 -0.29791170112E+02  0.10888974775E+02  0.32614308675E+01  0.59301944747E+02  0.50000001312E+02 0.  0.
         12    1    1    2    0    0  0.29791170112E+02 -0.10888974775E+02 -0.32614308675E+01  0.31886055253E+02  0.00000000000E+00 0. -1.
         11    1    3    3    0    0 -0.14845750226E+02 -0.63507136051E+01 -0.21025446631E+01  0.16283382861E+02  0.51100000000E-03 0.  1.
        -11    1    3    3    0    0 -0.12212337360E+01 -0.98961257062E+01 -0.46513905808E+01  0.11002733771E+02  0.51100000000E-03 0. -1.
        -12    1    3    3    0    0 -0.13724186149E+02  0.27135814086E+02  0.10015366111E+02  0.32015828116E+02  0.00000000000E+00 0.  1.
</event>
<event>
 7    1  0.1134395E-011  0.5930194E+02  0.7816164E-02  0.1266605E+00
        -11   -1    0    0    0    0  0.00000000000E+00  0.00000000000E+00  0.45593999997E+02  0.45594000000E+02  0.51100000000E-03 0.  1.
         11   -1    0    0    0    0 -0.00000000000E+00 -0.00000000000E+00 -0.45593999997E+02  0.45594000000E+02  0.51100000000E-03 0. -1.
    9900012    2    1    2    0    0  0.13253510886E+02 -0.21803292214E+02  0.19122798977E+02  0.59301944382E+02  0.50000000645E+02 0.  0.
         12    1    1    2    0    0 -0.13253510886E+02  0.21803292214E+02 -0.19122798977E+02  0.31886055618E+02  0.00000000000E+00 0. -1.
         11    1    3    3    0    0  0.54536296019E+01  0.24833386562E+01  0.59404654995E+01  0.84379012395E+01  0.51100000000E-03 0. -1.
        -11    1    3    3    0    0  0.23887201754E+02 -0.20014032904E+02  0.14076225383E+02  0.34195029493E+02  0.51100000000E-03 0.  1.
         12    1    3    3    0    0 -0.16087320470E+02 -0.42725979657E+01 -0.89389190470E+00  0.16669013649E+02  0.00000000000E+00 0. -1.
</event>
<event>
 7    1  0.1134395E-011  0.5930195E+02  0.7816164E-02  0.1266605E+00
        -11   -1    0    0    0    0  0.00000000000E+00  0.00000000000E+00  0.45593999997E+02  0.45594000000E+02  0.51100000000E-03 0.  1.
         11   -1    0    0    0    0 -0.00000000000E+00 -0.00000000000E+00 -0.45593999997E+02  0.45594000000E+02  0.51100000000E-03 0. -1.
    9900012    2    1    2    0    0 -0.17449503139E+02 -0.20110574026E+00  0.26686979018E+02  0.59301945801E+02  0.50000003233E+02 0.  0.
         12    1    1    2    0    0  0.17449503139E+02  0.20110574026E+00 -0.26686979018E+02  0.31886054199E+02  0.00000000000E+00 0. -1.
         11    1    3    3    0    0 -0.16271727624E+01  0.34174429973E+00  0.13703899231E+02  0.13804395487E+02  0.51100000000E-03 0. -1.
        -11    1    3    3    0    0  0.12990138577E+02 -0.14646635444E+00  0.10260073475E+02  0.16553980205E+02  0.51100000000E-03 0.  1.
         12    1    3    3    0    0 -0.28812468954E+02 -0.39638368556E+00  0.27230063115E+01  0.28943570109E+02  0.00000000000E+00 0. -1.
</event>
<event>
 7    1  0.1134395E-011  0.5930196E+02  0.7816164E-02  0.1266605E+00
        -11   -1    0    0    0    0  0.00000000000E+00  0.00000000000E+00  0.45593999997E+02  0.45594000000E+02  0.51100000000E-03 0. -1.
         11   -1    0    0    0    0 -0.00000000000E+00 -0.00000000000E+00 -0.45593999997E+02  0.45594000000E+02  0.51100000000E-03 0.  1.
    9900012    2    1    2    0    0  0.28789611034E+02 -0.12537881709E+02  0.55389007342E+01  0.59301959127E+02  0.50000027537E+02 0.  0.
         12    1    1    2    0    0 -0.28789611034E+02  0.12537881709E+02 -0.55389007342E+01  0.31886040873E+02  0.00000000000E+00 0. -1.
         11    1    3    3    0    0  0.99000897876E+01 -0.70650637232E+01  0.23023927170E+02  0.26038973209E+02  0.51100000000E-03 0. -1.
        -11    1    3    3    0    0  0.19479397411E+02 -0.47931397953E+01 -0.49057705378E+01  0.20651578570E+02  0.51100000000E-03 0.  1.
        -12    1    3    3    0    0 -0.58987616474E+00 -0.67967819087E+00 -0.12579255898E+02  0.12611407347E+02  0.00000000000E+00 0.  1.
</event>
<event>
 7    1  0.1134395E-011  0.5930193E+02  0.7816164E-02  0.1266605E+00
        -11   -1    0    0    0    0  0.00000000000E+00  0.00000000000E+00  0.45593999997E+02  0.45594000000E+02  0.51100000000E-03 0. -1.
         11   -1    0    0    0    0 -0.00000000000E+00 -0.00000000000E+00 -0.45593999997E+02  0.45594000000E+02  0.51100000000E-03 0.  1.
    9900012    2    1    2    0    0  0.32041165006E+01  0.25477920491E+02 -0.18903186134E+02  0.59301933433E+02  0.49999980677E+02 0.  0.
         12    1    1    2    0    0 -0.32041165006E+01 -0.25477920491E+02  0.18903186134E+02  0.31886066567E+02  0.00000000000E+00 0. -1.
         11    1    3    3    0    0  0.15663672245E+02 -0.12461690211E+01 -0.19585192247E+02  0.25109426936E+02  0.51100000000E-03 0. -1.
        -11    1    3    3    0    0  0.41566130771E+01  0.32821626225E+01 -0.10788073078E+01  0.54049837393E+01  0.51100000000E-03 0.  1.
        -12    1    3    3    0    0 -0.16616168822E+02  0.23441926890E+02  0.17608134205E+01  0.28787522757E+02  0.00000000000E+00 0.  1.
</event>
<event>
 7    1  0.1134395E-011  0.5930193E+02  0.7816164E-02  0.1266605E+00
        -11   -1    0    0    0    0  0.00000000000E+00  0.00000000000E+00  0.45593999997E+02  0.45594000000E+02  0.51100000000E-03 0. -1.
         11   -1    0    0    0    0 -0.00000000000E+00 -0.00000000000E+00 -0.45593999997E+02  0.45594000000E+02  0.51100000000E-03 0.  1.
    9900012    2    1    2    0    0 -0.17627908696E+02 -0.26561929254E+02  0.66477649674E+00  0.59301934416E+02  0.49999982470E+02 0.  0.
         12    1    1    2    0    0  0.17627908696E+02  0.26561929254E+02 -0.66477649674E+00  0.31886065584E+02  0.00000000000E+00 0. -1.
         11    1    3    3    0    0 -0.17213219767E+02 -0.57442576417E+01 -0.80210769275E+01  0.19840088355E+02  0.51100000000E-03 0. -1.
        -11    1    3    3    0    0 -0.16184826077E+02 -0.80003293856E+01  0.56284558133E+01  0.18911197226E+02  0.51100000000E-03 0.  1.
         12    1    3    3    0    0  0.15770137147E+02 -0.12817342226E+02  0.30573976109E+01  0.20550648835E+02  0.00000000000E+00 0. -1.
</event>
<event>
 7    1  0.1134395E-011  0.5930195E+02  0.7816164E-02  0.1266605E+00
        -11   -1    0    0    0    0  0.00000000000E+00  0.00000000000E+00  0.45593999997E+02  0.45594000000E+02  0.51100000000E-03 0. -1.
         11   -1    0    0    0    0 -0.00000000000E+00 -0.00000000000E+00 -0.45593999997E+02  0.45594000000E+02  0.51100000000E-03 0.  1.
    9900012    2    1    2    0    0  0.28978731074E+02 -0.78212289804E+01 -0.10760177922E+02  0.59301954363E+02  0.50000018850E+02 0.  0.
         12    1    1    2    0    0 -0.28978731074E+02  0.78212289804E+01  0.10760177922E+02  0.31886045637E+02  0.00000000000E+00 0. -1.
         11    1    3    3    0    0  0.25742188079E+02 -0.62389950582E+00 -0.47746433654E+01  0.26188675362E+02  0.51100000000E-03 0. -1.
        -11    1    3    3    0    0  0.43168736877E+01 -0.19677052191E+01  0.12764508473E+02  0.13617633388E+02  0.51100000000E-03 0.  1.
        -12    1    3    3    0    0 -0.10803306924E+01 -0.52296242556E+01 -0.18750043030E+02  0.19495645614E+02  0.00000000000E+00 0.  1.
</event>
<event>
 7    1  0.1134395E-011  0.5930195E+02  0.7816164E-02  0.1266605E+00
        -11   -1    0    0    0    0  0.00000000000E+00  0.00000000000E+00  0.45593999997E+02  0.45594000000E+02  0.51100000000E-03 0.  1.
         11   -1    0    0    0    0 -0.00000000000E+00 -0.00000000000E+00 -0.45593999997E+02  0.45594000000E+02  0.51100000000E-03 0. -1.
    9900012    2    1    2    0    0  0.26942444762E+02 -0.97365437593E+01  0.14000870408E+02  0.59301953110E+02  0.50000016563E+02 0.  0.
         12    1    1    2    0    0 -0.26942444762E+02  0.97365437593E+01 -0.14000870408E+02  0.31886046890E+02  0.00000000000E+00 0. -1.
         11    1    3    3    0    0 -0.23129616337E+01 -0.10747092826E+02 -0.60898941415E+00  0.11010025618E+02  0.51100000000E-03 0. -1.
        -11    1    3    3    0    0 -0.39546420808E+01 -0.89199481660E+01  0.88118731643E+01  0.13147386744E+02  0.51100000000E-03 0.  1.
        -12    1    3    3    0    0  0.33210048476E+02  0.99304972331E+01  0.57979866577E+01  0.35144540748E+02  0.00000000000E+00 0.  1.
</event>
<event>
 7    1  0.1134395E-011  0.5930194E+02  0.7816164E-02  0.1266605E+00
        -11   -1    0    0    0    0  0.00000000000E+00  0.00000000000E+00  0.45593999997E+02  0.45594000000E+02  0.51100000000E-03 0.  1.
         11   -1    0    0    0    0 -0.00000000000E+00 -0.00000000000E+00 -0.45593999997E+02  0.45594000000E+02  0.51100000000E-03 0. -1.
    9900012    2    1    2    0    0 -0.30094980796E+01 -0.19243805375E+02  0.25245588153E+02  0.59301939641E+02  0.49999992000E+02 0.  0.
         12    1    1    2    0    0  0.30094980796E+01  0.19243805375E+02 -0.25245588153E+02  0.31886060359E+02  0.00000000000E+00 0. -1.
         11    1    3    3    0    0  0.13818203608E+02 -0.24116424787E+00  0.15971395003E+02  0.21120756846E+02  0.51100000000E-03 0. -1.
        -11    1    3    3    0    0 -0.24163474454E+01 -0.21180059081E+02  0.10087253110E+02  0.23583602635E+02  0.51100000000E-03 0.  1.
         12    1    3    3    0    0 -0.14411354242E+02  0.21774179542E+01 -0.81305996006E+00  0.14597580160E+02  0.00000000000E+00 0. -1.
</event>
<event>
 7    1  0.1134395E-011  0.5930195E+02  0.7816164E-02  0.1266605E+00
        -11   -1    0    0    0    0  0.00000000000E+00  0.00000000000E+00  0.45593999997E+02  0.45594000000E+02  0.51100000000E-03 0.  1.
         11   -1    0    0    0    0 -0.00000000000E+00 -0.00000000000E+00 -0.45593999997E+02  0.45594000000E+02  0.51100000000E-03 0. -1.
    9900012    2    1    2    0    0  0.89581118999E+01  0.25109829304E+02  0.17491969012E+02  0.59301948560E+02  0.50000008266E+02 0.  0.
         12    1    1    2    0    0 -0.89581118999E+01 -0.25109829304E+02 -0.17491969012E+02  0.31886051440E+02  0.00000000000E+00 0. -1.
         11    1    3    3    0    0 -0.97782194343E+00 -0.93779149214E+01 -0.72539447085E+01  0.11896265722E+02  0.51100000000E-03 0. -1.
        -11    1    3    3    0    0  0.23950248876E+01 -0.19954017433E+01  0.26504060114E+01  0.40917508008E+01  0.51100000000E-03 0.  1.
        -12    1    3    3    0    0  0.75409089557E+01  0.36483145969E+02  0.22095507709E+02  0.43313932038E+02  0.00000000000E+00 0.  1.
</event>
<event>
 7    1  0.1134395E-011  0.5930194E+02  0.7816164E-02  0.1266605E+00
        -11   -1    0    0    0    0  0.00000000000E+00  0.00000000000E+00  0.45593999997E+02  0.45594000000E+02  0.51100000000E-03 0.  1.
         11   -1    0    0    0    0 -0.00000000000E+00 -0.00000000000E+00 -0.45593999997E+02  0.45594000000E+02  0.51100000000E-03 0. -1.
    9900012    2    1    2    0    0  0.18704148541E+02  0.50573080397E+01  0.25323891555E+02  0.59301936888E+02  0.49999986980E+02 0.  0.
         12    1    1    2    0    0 -0.18704148541E+02 -0.50573080397E+01 -0.25323891555E+02  0.31886063112E+02  0.00000000000E+00 0. -1.
         11    1    3    3    0    0  0.96318190643E+00 -0.13452014532E+02 -0.32502912521E+01  0.13872591965E+02  0.51100000000E-03 0. -1.
        -11    1    3    3    0    0  0.35977345368E+01 -0.59937144344E+01  0.48692096857E+01  0.85192434960E+01  0.51100000000E-03 0.  1.
        -12    1    3    3    0    0  0.14143232098E+02  0.24503037006E+02  0.23704973122E+02  0.36910101427E+02  0.00000000000E+00 0.  1.
</event>
<event>
 7    1  0.1134395E-011  0.5930195E+02  0.7816164E-02  0.1266605E+00
        -11   -1    0    0    0    0  0.00000000000E+00  0.00000000000E+00  0.45593999997E+02  0.45594000000E+02  0.51100000000E-03 0.  1.
         11   -1    0    0    0    0 -0.00000000000E+00 -0.00000000000E+00 -0.45593999997E+02  0.45594000000E+02  0.51100000000E-03 0. -1.
    9900012    2    1    2    0    0 -0.15778405037E+01  0.23651371763E+02  0.21327046801E+02  0.59301954585E+02  0.50000019254E+02 0.  0.
         12    1    1    2    0    0  0.15778405037E+01 -0.23651371763E+02 -0.21327046801E+02  0.31886045415E+02  0.00000000000E+00 0. -1.
         11    1    3    3    0    0 -0.21356293353E+02  0.44500299285E+01  0.54987333958E+01  0.22497335428E+02  0.51100000000E-03 0. -1.
        -11    1    3    3    0    0  0.90516543546E+01 -0.18325007486E+00 -0.82197576028E+00  0.90907464796E+01  0.51100000000E-03 0.  1.
        -12    1    3    3    0    0  0.10726798495E+02  0.19384591910E+02  0.16650289166E+02  0.27713872677E+02  0.00000000000E+00 0.  1.
</event>
<event>
 7    1  0.1134395E-011  0.5930193E+02  0.7816164E-02  0.1266605E+00
        -11   -1    0    0    0    0  0.00000000000E+00  0.00000000000E+00  0.45593999997E+02  0.45594000000E+02  0.51100000000E-03 0.  1.
         11   -1    0    0    0    0 -0.00000000000E+00 -0.00000000000E+00 -0.45593999997E+02  0.45594000000E+02  0.51100000000E-03 0. -1.
    9900012    2    1    2    0    0 -0.27010433660E+02 -0.79748736407E+01 -0.14951901682E+02  0.59301929374E+02  0.49999973274E+02 0.  0.
         12    1    1    2    0    0  0.27010433660E+02  0.79748736407E+01  0.14951901682E+02  0.31886070626E+02  0.00000000000E+00 0. -1.
         11    1    3    3    0    0 -0.30188161554E+01 -0.93434010305E+01 -0.95077214555E+01  0.13667814797E+02  0.51100000000E-03 0. -1.
        -11    1    3    3    0    0 -0.64067144344E+01 -0.17317496426E+02 -0.74182675264E+01  0.19899054391E+02  0.51100000000E-03 0.  1.
        -12    1    3    3    0    0 -0.17584903070E+02  0.18686023816E+02  0.19740873000E+01  0.25735060185E+02  0.00000000000E+00 0.  1.
</event>
<event>
 7    1  0.1134395E-011  0.5930195E+02  0.7816164E-02  0.1266605E+00
        -11   -1    0    0    0    0  0.00000000000E+00  0.00000000000E+00  0.45593999997E+02  0.45594000000E+02  0.51100000000E-03 0.  1.
         11   -1    0    0    0    0 -0.00000000000E+00 -0.00000000000E+00 -0.45593999997E+02  0.45594000000E+02  0.51100000000E-03 0. -1.
    9900012    2    1    2    0    0  0.17555638889E+02 -0.29895171862E+01  0.26449626574E+02  0.59301946376E+02  0.50000004283E+02 0.  0.
         12    1    1    2    0    0 -0.17555638889E+02  0.29895171862E+01 -0.26449626574E+02  0.31886053624E+02  0.00000000000E+00 0. -1.
         11    1    3    3    0    0 -0.38325806650E+00  0.64823338388E+01  0.15370398945E+02  0.16685823406E+02  0.51100000000E-03 0. -1.
        -11    1    3    3    0    0 -0.87237785457E+01 -0.10803000863E+02  0.71955692469E+01  0.15639224943E+02  0.51100000000E-03 0.  1.
         12    1    3    3    0    0  0.26662675501E+02  0.13311498380E+01  0.38836583814E+01  0.26976898027E+02  0.00000000000E+00 0. -1.
</event>
<event>
 7    1  0.1134395E-011  0.5930204E+02  0.7816164E-02  0.1266604E+00
        -11   -1    0    0    0    0  0.00000000000E+00  0.00000000000E+00  0.45593999997E+02  0.45594000000E+02  0.51100000000E-03 0.  1.
         11   -1    0    0    0    0 -0.00000000000E+00 -0.00000000000E+00 -0.45593999997E+02  0.45594000000E+02  0.51100000000E-03 0. -1.
    9900012    2    1    2    0    0  0.94914072153E+01  0.30320342312E+02 -0.27026910686E+01  0.59302039017E+02  0.50000173237E+02 0.  0.
         12    1    1    2    0    0 -0.94914072153E+01 -0.30320342312E+02  0.27026910686E+01  0.31885960983E+02  0.00000000000E+00 0. -1.
         11    1    3    3    0    0  0.87914715582E+01  0.21276792052E+01 -0.89779550057E+01  0.12744436720E+02  0.51100000000E-03 0. -1.
        -11    1    3    3    0    0  0.11440058774E+02 -0.37206769539E+01 -0.11233615213E+01  0.12082231711E+02  0.51100000000E-03 0.  1.
        -12    1    3    3    0    0 -0.10740123117E+02  0.31913340060E+02  0.73986254583E+01  0.34475370586E+02  0.00000000000E+00 0.  1.
</event>
<event>
 7    1  0.1134395E-011  0.5930195E+02  0.7816164E-02  0.1266605E+00
        -11   -1    0    0    0    0  0.00000000000E+00  0.00000000000E+00  0.45593999997E+02  0.45594000000E+02  0.51100000000E-03 0.  1.
         11   -1    0    0    0    0 -0.00000000000E+00 -0.00000000000E+00 -0.45593999997E+02  0.45594000000E+02  0.51100000000E-03 0. -1.
    9900012    2    1    2    0    0  0.83477022803E+01 -0.30449302134E+02  0.44582486485E+01  0.59301951094E+02  0.50000012887E+02 0.  0.
         12    1    1    2    0    0 -0.83477022803E+01  0.30449302134E+02 -0.44582486485E+01  0.31886048906E+02  0.00000000000E+00 0. -1.
         11    1    3    3    0    0 -0.15429252091E+02 -0.83789005678E+01  0.47393889542E+01  0.18185972691E+02  0.51100000000E-03 0. -1.
        -11    1    3    3    0    0 -0.15290275781E+01 -0.12529067342E+02  0.49712274990E+01  0.13565712546E+02  0.51100000000E-03 0.  1.
         12    1    3    3    0    0  0.25305981949E+02 -0.95413342249E+01 -0.52523678047E+01  0.27550265856E+02  0.00000000000E+00 0. -1.
</event>
<event>
 7    1  0.1134395E-011  0.5930185E+02  0.7816164E-02  0.1266605E+00
        -11   -1    0    0    0    0  0.00000000000E+00  0.00000000000E+00  0.45593999997E+02  0.45594000000E+02  0.51100000000E-03 0. -1.
         11   -1    0    0    0    0 -0.00000000000E+00 -0.00000000000E+00 -0.45593999997E+02  0.45594000000E+02  0.51100000000E-03 0.  1.
    9900012    2    1    2    0    0 -0.22044973659E+02  0.21827503399E+02  0.73692410568E+01  0.59301851251E+02  0.49999830798E+02 0.  0.
         12    1    1    2    0    0  0.22044973659E+02 -0.21827503399E+02 -0.73692410568E+01  0.31886148749E+02  0.00000000000E+00 0. -1.
         11    1    3    3    0    0  0.52595636630E+01 -0.88451272366E+00  0.18968459949E+01  0.56606887985E+01  0.51100000000E-03 0. -1.
        -11    1    3    3    0    0 -0.24786589592E+02 -0.47234217643E+01 -0.13142833056E+01  0.25266837508E+02  0.51100000000E-03 0.  1.
        -12    1    3    3    0    0 -0.25179477299E+01  0.27435437887E+02  0.67866783675E+01  0.28374324945E+02  0.00000000000E+00 0.  1.
</event>
<event>
 7    1  0.1134395E-011  0.5930193E+02  0.7816164E-02  0.1266605E+00
        -11   -1    0    0    0    0  0.00000000000E+00  0.00000000000E+00  0.45593999997E+02  0.45594000000E+02  0.51100000000E-03 0.  1.
         11   -1    0    0    0    0 -0.00000000000E+00 -0.00000000000E+00 -0.45593999997E+02  0.45594000000E+02  0.51100000000E-03 0. -1.
    9900012    2    1    2    0    0  0.20111514235E+02 -0.21107230096E+02  0.12912529696E+02  0.59301927957E+02  0.49999970692E+02 0.  0.
         12    1    1    2    0    0 -0.20111514235E+02  0.21107230096E+02 -0.12912529696E+02  0.31886072043E+02  0.00000000000E+00 0. -1.
         11    1    3    3    0    0  0.16854166799E+02 -0.10650559306E+02 -0.10170974505E+02  0.22381824650E+02  0.51100000000E-03 0. -1.
        -11    1    3    3    0    0  0.96339460480E+01 -0.25436824835E-01 -0.12237451568E+01  0.97113910413E+01  0.51100000000E-03 0.  1.
        -12    1    3    3    0    0 -0.63765986115E+01 -0.10431233965E+02  0.24307249357E+02  0.27208712267E+02  0.00000000000E+00 0.  1.
</event>
<event>
 7    1  0.1134395E-011  0.5930188E+02  0.7816164E-02  0.1266605E+00
        -11   -1    0    0    0    0  0.00000000000E+00  0.00000000000E+00  0.45593999997E+02  0.45594000000E+02  0.51100000000E-03 0.  1.
         11   -1    0    0    0    0 -0.00000000000E+00 -0.00000000000E+00 -0.45593999997E+02  0.45594000000E+02  0.51100000000E-03 0. -1.
    9900012    2    1    2    0    0 -0.24101024042E+02 -0.93776121261E+01  0.18652773453E+02  0.59301875642E+02  0.49999875281E+02 0.  0.
         12    1    1    2    0    0  0.24101024042E+02  0.93776121261E+01 -0.18652773453E+02  0.31886124358E+02  0.00000000000E+00 0. -1.
         11    1    3    3    0    0 -0.37854543724E+01 -0.56760035445E+00 -0.67781113472E+01  0.77842551772E+01  0.51100000000E-03 0. -1.
        -11    1    3    3    0    0  0.11445762493E+02 -0.15033283851E+01  0.29184054110E+01  0.11907248451E+02  0.51100000000E-03 0.  1.
        -12    1    3    3    0    0 -0.31761332162E+02 -0.73066833866E+01  0.22512479390E+02  0.39610372014E+02  0.00000000000E+00 0.  1.
</event>
<event>
 7    1  0.1134395E-011  0.5930194E+02  0.7816164E-02  0.1266605E+00
        -11   -1    0    0    0    0  0.00000000000E+00  0.00000000000E+00  0.45593999997E+02  0.45594000000E+02  0.51100000000E-03 0. -1.
         11   -1    0    0    0    0 -0.00000000000E+00 -0.00000000000E+00 -0.45593999997E+02  0.45594000000E+02  0.51100000000E-03 0.  1.
    9900012    2    1    2    0    0  0.61154510977E+01  0.17146579684E+02 -0.26178554822E+02  0.59301942395E+02  0.49999997023E+02 0.  0.
         12    1    1    2    0    0 -0.61154510977E+01 -0.17146579684E+02  0.26178554822E+02  0.31886057605E+02  0.00000000000E+00 0. -1.
         11    1    3    3    0    0  0.12632232972E+02 -0.20731595297E+01 -0.43647927505E+00  0.12808661706E+02  0.51100000000E-03 0. -1.
        -11    1    3    3    0    0 -0.54756432195E+01  0.78132952751E+01 -0.32034260172E+02  0.33424902046E+02  0.51100000000E-03 0.  1.
         12    1    3    3    0    0 -0.10411386546E+01  0.11406443938E+02  0.62921846249E+01  0.13068378643E+02  0.00000000000E+00 0. -1.
</event>
<event>
 7    1  0.1134395E-011  0.5930193E+02  0.7816164E-02  0.1266605E+00
        -11   -1    0    0    0    0  0.00000000000E+00  0.00000000000E+00  0.45593999997E+02  0.45594000000E+02  0.51100000000E-03 0.  1.
         11   -1    0    0    0    0 -0.00000000000E+00 -0.00000000000E+00 -0.45593999997E+02  0.45594000000E+02  0.51100000000E-03 0. -1.
    9900012    2    1    2    0    0  0.27794045497E+02 -0.48830430277E+00  0.15619666063E+02  0.59301931348E+02  0.49999976875E+02 0.  0.
         12    1    1    2    0    0 -0.27794045497E+02  0.48830430277E+00 -0.15619666063E+02  0.31886068652E+02  0.00000000000E+00 0. -1.
         11    1    3    3    0    0  0.34666036982E+01  0.79862428183E+01 -0.15808843307E+01  0.88485372283E+01  0.51100000000E-03 0. -1.
        -11    1    3    3    0    0  0.61664510535E+00 -0.47524333025E+01  0.24814859584E+02  0.25273367997E+02  0.51100000000E-03 0.  1.
         12    1    3    3    0    0  0.23710796693E+02 -0.37221138185E+01 -0.76143091903E+01  0.25180026123E+02  0.00000000000E+00 0. -1.
</event>
<event>
 7    1  0.1134395E-011  0.5930189E+02  0.7816164E-02  0.1266605E+00
        -11   -1    0    0    0    0  0.00000000000E+00  0.00000000000E+00  0.45593999997E+02  0.45594000000E+02  0.51100000000E-03 0.  1.
         11   -1    0    0    0    0 -0.00000000000E+00 -0.00000000000E+00 -0.45593999997E+02  0.45594000000E+02  0.51100000000E-03 0. -1.
    9900012    2    1    2    0    0  0.18599622675E+02 -0.20343472213E+01  0.25819358636E+02  0.59301893109E+02  0.49999907137E+02 0.  0.
         12    1    1    2    0    0 -0.18599622675E+02  0.20343472213E+01 -0.25819358636E+02  0.31886106891E+02  0.00000000000E+00 0. -1.
         11    1    3    3    0    0  0.10402591788E+02 -0.70975472107E+00  0.35453107425E+02  0.36954573385E+02  0.51100000000E-03 0. -1.
        -11    1    3    3    0    0  0.36318329936E+01 -0.54086511135E+01  0.38288526784E+01  0.75567076730E+01  0.51100000000E-03 0.  1.
         12    1    3    3    0    0  0.45651978943E+01  0.40840586132E+01 -0.13462601468E+02  0.14790612051E+02  0.00000000000E+00 0. -1.
</event>
<event>
 7    1  0.1134395E-011  0.5930203E+02  0.7816164E-02  0.1266604E+00
        -11   -1    0    0    0    0  0.00000000000E+00  0.00000000000E+00  0.45593999997E+02  0.45594000000E+02  0.51100000000E-03 0. -1.
         11   -1    0    0    0    0 -0.00000000000E+00 -0.00000000000E+00 -0.45593999997E+02  0.45594000000E+02  0.51100000000E-03 0.  1.
    9900012    2    1    2    0    0 -0.14030011802E+02  0.26349022395E+02  0.11207261391E+02  0.59302032550E+02  0.50000161443E+02 0.  0.
         12    1    1    2    0    0  0.14030011802E+02 -0.26349022395E+02 -0.11207261391E+02  0.31885967450E+02  0.00000000000E+00 0. -1.
         11    1    3    3    0    0 -0.18767219198E+01  0.20757086439E+02  0.12179705297E+02  0.24139675723E+02  0.51100000000E-03 0. -1.
        -11    1    3    3    0    0  0.81295755326E+01  0.23793827889E+01 -0.96746969924E+01  0.12858896646E+02  0.51100000000E-03 0.  1.
        -12    1    3    3    0    0 -0.20282865415E+02  0.32125531674E+01  0.87022530857E+01  0.22303460181E+02  0.00000000000E+00 0.  1.
</event>
<event>
 7    1  0.1134395E-011  0.5930195E+02  0.7816164E-02  0.1266605E+00
        -11   -1    0    0    0    0  0.00000000000E+00  0.00000000000E+00  0.45593999997E+02  0.45594000000E+02  0.51100000000E-03 0.  1.
         11   -1    0    0    0    0 -0.00000000000E+00 -0.00000000000E+00 -0.45593999997E+02  0.45594000000E+02  0.51100000000E-03 0. -1.
    9900012    2    1    2    0    0 -0.13267942996E+02 -0.27650635445E+02  0.87249143119E+01  0.59301951615E+02  0.50000013838E+02 0.  0.
         12    1    1    2    0    0  0.13267942996E+02  0.27650635445E+02 -0.87249143119E+01  0.31886048385E+02  0.00000000000E+00 0. -1.
         11    1    3    3    0    0  0.46642674550E+01 -0.30984890041E+00 -0.12839657873E+01  0.48476763131E+01  0.51100000000E-03 0. -1.
        -11    1    3    3    0    0  0.44468813539E+01 -0.67164748792E+01  0.20688636284E+02  0.22201474279E+02  0.51100000000E-03 0.  1.
         12    1    3    3    0    0 -0.22379091805E+02 -0.20624311665E+02 -0.10679756185E+02  0.32252801023E+02  0.00000000000E+00 0. -1.
</event>
<event>
 7    1  0.1134395E-011  0.5930194E+02  0.7816164E-02  0.1266605E+00
        -11   -1    0    0    0    0  0.00000000000E+00  0.00000000000E+00  0.45593999997E+02  0.45594000000E+02  0.51100000000E-03 0.  1.
         11   -1    0    0    0    0 -0.00000000000E+00 -0.00000000000E+00 -0.45593999997E+02  0.45594000000E+02  0.51100000000E-03 0. -1.
    9900012    2    1    2    0    0 -0.18676652913E+02  0.12421622847E+02  0.22662893477E+02  0.59301940053E+02  0.49999992751E+02 0.  0.
         12    1    1    2    0    0  0.18676652913E+02 -0.12421622847E+02 -0.22662893477E+02  0.31886059947E+02  0.00000000000E+00 0. -1.
         11    1    3    3    0    0 -0.63244875964E+01  0.28677807706E+01 -0.85328012426E+01  0.11001454777E+02  0.51100000000E-03 0. -1.
        -11    1    3    3    0    0 -0.15879275805E+02  0.19947156688E+02  0.24948115291E+02  0.35671401947E+02  0.51100000000E-03 0.  1.
         12    1    3    3    0    0  0.35271104881E+01 -0.10393314612E+02  0.62475794285E+01  0.12629083329E+02  0.00000000000E+00 0. -1.
</event>
<event>
 7    1  0.1134395E-011  0.5930196E+02  0.7816164E-02  0.1266605E+00
        -11   -1    0    0    0    0  0.00000000000E+00  0.00000000000E+00  0.45593999997E+02  0.45594000000E+02  0.51100000000E-03 0.  1.
         11   -1    0    0    0    0 -0.00000000000E+00 -0.00000000000E+00 -0.45593999997E+02  0.45594000000E+02  0.51100000000E-03 0. -1.
    9900012    2    1    2    0    0 -0.25065713281E+02 -0.12918775953E+02 -0.14884041618E+02  0.59301961530E+02  0.50000031920E+02 0.  0.
         12    1    1    2    0    0  0.25065713281E+02  0.12918775953E+02  0.14884041618E+02  0.31886038470E+02  0.00000000000E+00 0. -1.
         11    1    3    3    0    0 -0.19345616521E+02 -0.22207763703E+02 -0.71669668502E+01  0.30311764405E+02  0.51100000000E-03 0. -1.
        -11    1    3    3    0    0 -0.18756415795E+01 -0.89763899299E+00  0.88912171245E+01  0.91311296844E+01  0.51100000000E-03 0.  1.
         12    1    3    3    0    0 -0.38444551811E+01  0.10186626742E+02 -0.16608291892E+02  0.19859067441E+02  0.00000000000E+00 0. -1.
</event>
<event>
 7    1  0.1134395E-011  0.5930195E+02  0.7816164E-02  0.1266605E+00
        -11   -1    0    0    0    0  0.00000000000E+00  0.00000000000E+00  0.45593999997E+02  0.45594000000E+02  0.51100000000E-03 0.  1.
         11   -1    0    0    0    0 -0.00000000000E+00 -0.00000000000E+00 -0.45593999997E+02  0.45594000000E+02  0.51100000000E-03 0. -1.
    9900012    2    1    2    0    0  0.25025793238E+02  0.16010092906E+02  0.11580452424E+02  0.59301948498E+02  0.50000008152E+02 0.  0.
         12    1    1    2    0    0 -0.25025793238E+02 -0.16010092906E+02 -0.11580452424E+02  0.31886051502E+02  0.00000000000E+00 0. -1.
         11    1    3    3    0    0  0.10591345140E+02  0.12125426335E+01 -0.11163377979E+02  0.15435927561E+02  0.51100000000E-03 0. -1.
        -11    1    3    3    0    0 -0.25369394624E+01  0.16320840549E+02  0.21029568881E+02  0.26740393895E+02  0.51100000000E-03 0.  1.
         12    1    3    3    0    0  0.16971387561E+02 -0.15232902765E+01  0.17142615218E+01  0.17125627041E+02  0.00000000000E+00 0. -1.
</event>
<event>
 7    1  0.1134395E-011  0.5930194E+02  0.7816164E-02  0.1266605E+00
        -11   -1    0    0    0    0  0.00000000000E+00  0.00000000000E+00  0.45593999997E+02  0.45594000000E+02  0.51100000000E-03 0. -1.
         11   -1    0    0    0    0 -0.00000000000E+00 -0.00000000000E+00 -0.45593999997E+02  0.45594000000E+02  0.51100000000E-03 0.  1.
    9900012    2    1    2    0    0  0.30629425760E+02  0.84058479251E+01  0.28107998171E+01  0.59301943528E+02  0.49999999088E+02 0.  0.
         12    1    1    2    0    0 -0.30629425760E+02 -0.84058479251E+01 -0.28107998171E+01  0.31886056472E+02  0.00000000000E+00 0. -1.
         11    1    3    3    0    0  0.18938218641E+02  0.16101395783E+02  0.26692924893E+01  0.25000723871E+02  0.51100000000E-03 0. -1.
        -11    1    3    3    0    0  0.12797916969E+02  0.80830502594E+01  0.74571771290E+01  0.16873999859E+02  0.51100000000E-03 0.  1.
        -12    1    3    3    0    0 -0.11067098500E+01 -0.15778598117E+02 -0.73156698012E+01  0.17427219797E+02  0.00000000000E+00 0.  1.
</event>
<event>
 7    1  0.1134395E-011  0.5930191E+02  0.7816164E-02  0.1266605E+00
        -11   -1    0    0    0    0  0.00000000000E+00  0.00000000000E+00  0.45593999997E+02  0.45594000000E+02  0.51100000000E-03 0.  1.
         11   -1    0    0    0    0 -0.00000000000E+00 -0.00000000000E+00 -0.45593999997E+02  0.45594000000E+02  0.51100000000E-03 0. -1.
    9900012    2    1    2    0    0  0.27711676675E+01 -0.64388758568E+01  0.31106011951E+02  0.59301914131E+02  0.49999945476E+02 0.  0.
         12    1    1    2    0    0 -0.27711676675E+01  0.64388758568E+01 -0.31106011951E+02  0.31886085869E+02  0.00000000000E+00 0. -1.
         11    1    3    3    0    0  0.15113334132E+00 -0.24717525484E+01 -0.42012922109E+01  0.48768082236E+01  0.51100000000E-03 0. -1.
        -11    1    3    3    0    0 -0.17705047626E+02 -0.79367233491E+01  0.10336145516E+02  0.21983998575E+02  0.51100000000E-03 0.  1.
         12    1    3    3    0    0  0.20325081952E+02  0.39696000408E+01  0.24971158646E+02  0.32441107333E+02  0.00000000000E+00 0. -1.
</event>
<event>
 7    1  0.1134395E-011  0.5930194E+02  0.7816164E-02  0.1266605E+00
        -11   -1    0    0    0    0  0.00000000000E+00  0.00000000000E+00  0.45593999997E+02  0.45594000000E+02  0.51100000000E-03 0.  1.
         11   -1    0    0    0    0 -0.00000000000E+00 -0.00000000000E+00 -0.45593999997E+02  0.45594000000E+02  0.51100000000E-03 0. -1.
    9900012    2    1    2    0    0  0.19832010758E+02  0.86707509023E+01 -0.23414323488E+02  0.59301935390E+02  0.49999984247E+02 0.  0.
         12    1    1    2    0    0 -0.19832010758E+02 -0.86707509023E+01  0.23414323488E+02  0.31886064610E+02  0.00000000000E+00 0. -1.
         11    1    3    3    0    0  0.54056077750E+01  0.41160218344E+01 -0.18466311701E+02  0.19676557099E+02  0.51100000000E-03 0. -1.
        -11    1    3    3    0    0  0.15606848464E+02  0.66162339620E+01 -0.18948791217E+02  0.25424495269E+02  0.51100000000E-03 0.  1.
         12    1    3    3    0    0 -0.11804454805E+01 -0.20615048942E+01  0.14000779431E+02  0.14200883023E+02  0.00000000000E+00 0. -1.
</event>
<event>
 7    1  0.1134395E-011  0.5930194E+02  0.7816164E-02  0.1266605E+00
        -11   -1    0    0    0    0  0.00000000000E+00  0.00000000000E+00  0.45593999997E+02  0.45594000000E+02  0.51100000000E-03 0.  1.
         11   -1    0    0    0    0 -0.00000000000E+00 -0.00000000000E+00 -0.45593999997E+02  0.45594000000E+02  0.51100000000E-03 0. -1.
    9900012    2    1    2    0    0 -0.10674579807E+02 -0.30037199138E+02 -0.73520292879E+00  0.59301944906E+02  0.50000001602E+02 0.  0.
         12    1    1    2    0    0  0.10674579807E+02  0.30037199138E+02  0.73520292879E+00  0.31886055094E+02  0.00000000000E+00 0. -1.
         11    1    3    3    0    0  0.37010417375E+01  0.25481827981E+01 -0.84065732054E+01  0.95321256199E+01  0.51100000000E-03 0. -1.
        -11    1    3    3    0    0 -0.14021744252E+01 -0.11349665189E+01 -0.10873787307E+02  0.11022408665E+02  0.51100000000E-03 0.  1.
        -12    1    3    3    0    0 -0.12973447120E+02 -0.31450415417E+02  0.18545157583E+02  0.38747410621E+02  0.00000000000E+00 0.  1.
</event>
<event>
 7    1  0.1134395E-011  0.5930195E+02  0.7816164E-02  0.1266605E+00
        -11   -1    0    0    0    0  0.00000000000E+00  0.00000000000E+00  0.45593999997E+02  0.45594000000E+02  0.51100000000E-03 0.  1.
         11   -1    0    0    0    0 -0.00000000000E+00 -0.00000000000E+00 -0.45593999997E+02  0.45594000000E+02  0.51100000000E-03 0. -1.
    9900012    2    1    2    0    0 -0.20973855916E+02 -0.18681338047E+02  0.15093886547E+02  0.59301946085E+02  0.50000003752E+02 0.  0.
         12    1    1    2    0    0  0.20973855916E+02  0.18681338047E+02 -0.15093886547E+02  0.31886053915E+02  0.00000000000E+00 0. -1.
         11    1    3    3    0    0 -0.11068426051E+02 -0.35309165853E+01 -0.10031349918E+01  0.11661205223E+02  0.51100000000E-03 0. -1.
        -11    1    3    3    0    0 -0.10776966966E+02 -0.83386703590E+01  0.29547745792E+02  0.32538373069E+02  0.51100000000E-03 0.  1.
         12    1    3    3    0    0  0.87153710128E+00 -0.68117511029E+01 -0.13450724253E+02  0.15102367793E+02  0.00000000000E+00 0. -1.
</event>
<event>
 7    1  0.1134395E-011  0.5930193E+02  0.7816164E-02  0.1266605E+00
        -11   -1    0    0    0    0  0.00000000000E+00  0.00000000000E+00  0.45593999997E+02  0.45594000000E+02  0.51100000000E-03 0.  1.
         11   -1    0    0    0    0 -0.00000000000E+00 -0.00000000000E+00 -0.45593999997E+02  0.45594000000E+02  0.51100000000E-03 0. -1.
    9900012    2    1    2    0    0  0.10891492342E+02  0.12612441583E+02  0.27184979774E+02  0.59301930731E+02  0.49999975750E+02 0.  0.
         12    1    1    2    0    0 -0.10891492342E+02 -0.12612441583E+02 -0.27184979774E+02  0.31886069269E+02  0.00000000000E+00 0. -1.
         11    1    3    3    0    0  0.12119970015E+02 -0.98263821268E+01  0.22842621380E+01  0.15769252127E+02  0.51100000000E-03 0.  1.
        -11    1    3    3    0    0  0.10814304171E+02  0.15770690248E+02  0.22552477769E+02  0.29568194049E+02  0.51100000000E-03 0. -1.
         12    1    3    3    0    0 -0.12042781844E+02  0.66681334621E+01  0.23482398675E+01  0.13964484555E+02  0.00000000000E+00 0. -1.
</event>
<event>
 7    1  0.1134395E-011  0.5930191E+02  0.7816164E-02  0.1266605E+00
        -11   -1    0    0    0    0  0.00000000000E+00  0.00000000000E+00  0.45593999997E+02  0.45594000000E+02  0.51100000000E-03 0.  1.
         11   -1    0    0    0    0 -0.00000000000E+00 -0.00000000000E+00 -0.45593999997E+02  0.45594000000E+02  0.51100000000E-03 0. -1.
    9900012    2    1    2    0    0  0.17452646951E+02 -0.14623186568E+02  0.22322420013E+02  0.59301907323E+02  0.49999933059E+02 0.  0.
         12    1    1    2    0    0 -0.17452646951E+02  0.14623186568E+02 -0.22322420013E+02  0.31886092677E+02  0.00000000000E+00 0. -1.
         11    1    3    3    0    0  0.65045335202E+01  0.83141650111E+01  0.28030879112E+01  0.10922069321E+02  0.51100000000E-03 0. -1.
        -11    1    3    3    0    0  0.22330072357E+02 -0.19625689330E+02  0.21051136247E+02  0.36427326977E+02  0.51100000000E-03 0.  1.
         12    1    3    3    0    0 -0.11381958927E+02 -0.33116622494E+01 -0.15318041452E+01  0.11952511025E+02  0.00000000000E+00 0. -1.
</event>
<event>
 7    1  0.1134395E-011  0.5930189E+02  0.7816164E-02  0.1266605E+00
        -11   -1    0    0    0    0  0.00000000000E+00  0.00000000000E+00  0.45593999997E+02  0.45594000000E+02  0.51100000000E-03 0.  1.
         11   -1    0    0    0    0 -0.00000000000E+00 -0.00000000000E+00 -0.45593999997E+02  0.45594000000E+02  0.51100000000E-03 0. -1.
    9900012    2    1    2    0    0  0.16972342070E+02  0.24505441609E+02  0.11320212106E+02  0.59301886002E+02  0.49999894175E+02 0.  0.
         12    1    1    2    0    0 -0.16972342070E+02 -0.24505441609E+02 -0.11320212106E+02  0.31886113998E+02  0.00000000000E+00 0. -1.
         11    1    3    3    0    0  0.20251691907E+01  0.28812551767E+01  0.18986260659E+02  0.19310127802E+02  0.51100000000E-03 0.  1.
        -11    1    3    3    0    0  0.18109721080E+02  0.36413646042E+01 -0.10900636450E+02  0.21448669168E+02  0.51100000000E-03 0. -1.
         12    1    3    3    0    0 -0.31625482013E+01  0.17982821828E+02  0.32345878972E+01  0.18543089033E+02  0.00000000000E+00 0. -1.
</event>
<event>
 7    1  0.1134395E-011  0.5930193E+02  0.7816164E-02  0.1266605E+00
        -11   -1    0    0    0    0  0.00000000000E+00  0.00000000000E+00  0.45593999997E+02  0.45594000000E+02  0.51100000000E-03 0. -1.
         11   -1    0    0    0    0 -0.00000000000E+00 -0.00000000000E+00 -0.45593999997E+02  0.45594000000E+02  0.51100000000E-03 0.  1.
    9900012    2    1    2    0    0  0.24854924630E+02 -0.19055225919E+01 -0.19882730358E+02  0.59301933118E+02  0.49999980103E+02 0.  0.
         12    1    1    2    0    0 -0.24854924630E+02  0.19055225919E+01  0.19882730358E+02  0.31886066882E+02  0.00000000000E+00 0. -1.
         11    1    3    3    0    0 -0.72579755548E+01 -0.11200584421E+02 -0.74442914514E+01  0.15282302706E+02  0.51100000000E-03 0. -1.
        -11    1    3    3    0    0 -0.13153535851E+01 -0.55095158096E+01 -0.15416219855E+01  0.58703933529E+01  0.51100000000E-03 0.  1.
        -12    1    3    3    0    0  0.33428253770E+02  0.14804577639E+02 -0.10896816921E+02  0.38149237059E+02  0.00000000000E+00 0.  1.
</event>
<event>
 7    1  0.1134395E-011  0.5930195E+02  0.7816164E-02  0.1266605E+00
        -11   -1    0    0    0    0  0.00000000000E+00  0.00000000000E+00  0.45593999997E+02  0.45594000000E+02  0.51100000000E-03 0. -1.
         11   -1    0    0    0    0 -0.00000000000E+00 -0.00000000000E+00 -0.45593999997E+02  0.45594000000E+02  0.51100000000E-03 0.  1.
    9900012    2    1    2    0    0 -0.85045779687E+01 -0.30028951832E+02 -0.65310178607E+01  0.59301953069E+02  0.50000016490E+02 0.  0.
         12    1    1    2    0    0  0.85045779687E+01  0.30028951832E+02  0.65310178607E+01  0.31886046931E+02  0.00000000000E+00 0. -1.
         11    1    3    3    0    0 -0.19489456136E+01 -0.16677554163E+02  0.12927479044E+02  0.21191010277E+02  0.51100000000E-03 0. -1.
        -11    1    3    3    0    0  0.19928548096E+01 -0.21111988227E+02 -0.12000709666E+02  0.24366053229E+02  0.51100000000E-03 0.  1.
        -12    1    3    3    0    0 -0.85484871647E+01  0.77605905583E+01 -0.74577872386E+01  0.13744889564E+02  0.00000000000E+00 0.  1.
</event>
<event>
 7    1  0.1134395E-011  0.5930199E+02  0.7816164E-02  0.1266605E+00
        -11   -1    0    0    0    0  0.00000000000E+00  0.00000000000E+00  0.45593999997E+02  0.45594000000E+02  0.51100000000E-03 0.  1.
         11   -1    0    0    0    0 -0.00000000000E+00 -0.00000000000E+00 -0.45593999997E+02  0.45594000000E+02  0.51100000000E-03 0. -1.
    9900012    2    1    2    0    0 -0.88919437539E+01 -0.12538603109E+01  0.30595402194E+02  0.59301992648E+02  0.50000088672E+02 0.  0.
         12    1    1    2    0    0  0.88919437539E+01  0.12538603109E+01 -0.30595402194E+02  0.31886007352E+02  0.00000000000E+00 0. -1.
         11    1    3    3    0    0  0.70546824969E+01 -0.10157548849E+02  0.12844611109E+02  0.17830546221E+02  0.51100000000E-03 0. -1.
        -11    1    3    3    0    0 -0.10739797955E+02 -0.38121329374E+01  0.23853925007E+02  0.26436439930E+02  0.51100000000E-03 0.  1.
         12    1    3    3    0    0 -0.52068282954E+01  0.12715821476E+02 -0.61031339215E+01  0.15035006497E+02  0.00000000000E+00 0. -1.
</event>
<event>
 7    1  0.1134395E-011  0.5930195E+02  0.7816164E-02  0.1266605E+00
        -11   -1    0    0    0    0  0.00000000000E+00  0.00000000000E+00  0.45593999997E+02  0.45594000000E+02  0.51100000000E-03 0.  1.
         11   -1    0    0    0    0 -0.00000000000E+00 -0.00000000000E+00 -0.45593999997E+02  0.45594000000E+02  0.51100000000E-03 0. -1.
    9900012    2    1    2    0    0 -0.22376710532E+02 -0.11091312657E+02  0.19823868688E+02  0.59301950379E+02  0.50000011583E+02 0.  0.
         12    1    1    2    0    0  0.22376710532E+02  0.11091312657E+02 -0.19823868688E+02  0.31886049621E+02  0.00000000000E+00 0. -1.
         11    1    3    3    0    0 -0.67790351538E+01  0.25658969311E+01 -0.86412723359E+01  0.11278773538E+02  0.51100000000E-03 0. -1.
        -11    1    3    3    0    0 -0.84140579262E+01 -0.22170409954E+01 -0.62889675506E+01  0.10736049305E+02  0.51100000000E-03 0.  1.
        -12    1    3    3    0    0 -0.71836174522E+01 -0.11440168593E+02  0.34754108574E+02  0.37287127536E+02  0.00000000000E+00 0.  1.
</event>
<event>
 7    1  0.1134395E-011  0.5930194E+02  0.7816164E-02  0.1266605E+00
        -11   -1    0    0    0    0  0.00000000000E+00  0.00000000000E+00  0.45593999997E+02  0.45594000000E+02  0.51100000000E-03 0.  1.
         11   -1    0    0    0    0 -0.00000000000E+00 -0.00000000000E+00 -0.45593999997E+02  0.45594000000E+02  0.51100000000E-03 0. -1.
    9900012    2    1    2    0    0  0.74969382924E+01  0.28989692810E+02  0.10959660401E+02  0.59301944598E+02  0.50000001041E+02 0.  0.
         12    1    1    2    0    0 -0.74969382924E+01 -0.28989692810E+02 -0.10959660401E+02  0.31886055402E+02  0.00000000000E+00 0. -1.
         11    1    3    3    0    0  0.14441194916E+02  0.34056893239E+02  0.11021717460E+02  0.38599201335E+02  0.51100000000E-03 0. -1.
        -11    1    3    3    0    0  0.63604454527E+01 -0.33155103344E-01 -0.10354595913E+01  0.64442643059E+01  0.51100000000E-03 0.  1.
        -12    1    3    3    0    0 -0.13304702076E+02 -0.50340453261E+01  0.97340253222E+00  0.14258478957E+02  0.00000000000E+00 0.  1.
</event>
<event>
 7    1  0.1134395E-011  0.5930186E+02  0.7816164E-02  0.1266605E+00
        -11   -1    0    0    0    0  0.00000000000E+00  0.00000000000E+00  0.45593999997E+02  0.45594000000E+02  0.51100000000E-03 0. -1.
         11   -1    0    0    0    0 -0.00000000000E+00 -0.00000000000E+00 -0.45593999997E+02  0.45594000000E+02  0.51100000000E-03 0.  1.
    9900012    2    1    2    0    0 -0.22502224300E+02 -0.10703349613E+02 -0.19895078377E+02  0.59301859829E+02  0.49999846442E+02 0.  0.
         12    1    1    2    0    0  0.22502224300E+02  0.10703349613E+02  0.19895078377E+02  0.31886140171E+02  0.00000000000E+00 0. -1.
         11    1    3    3    0    0 -0.97149551183E+01 -0.23239705678E+01 -0.21843310635E+02  0.24018980243E+02  0.51100000000E-03 0. -1.
        -11    1    3    3    0    0 -0.21062689296E+02 -0.38339518568E+01 -0.67475902461E+01  0.22446960631E+02  0.51100000000E-03 0.  1.
         12    1    3    3    0    0  0.82754201136E+01 -0.45454271884E+01  0.86958225046E+01  0.12835918955E+02  0.00000000000E+00 0. -1.
</event>
<event>
 7    1  0.1134395E-011  0.5930196E+02  0.7816164E-02  0.1266605E+00
        -11   -1    0    0    0    0  0.00000000000E+00  0.00000000000E+00  0.45593999997E+02  0.45594000000E+02  0.51100000000E-03 0.  1.
         11   -1    0    0    0    0 -0.00000000000E+00 -0.00000000000E+00 -0.45593999997E+02  0.45594000000E+02  0.51100000000E-03 0. -1.
    9900012    2    1    2    0    0 -0.14528910621E+02 -0.27982961228E+02  0.47522531859E+01  0.59301964290E+02  0.50000036954E+02 0.  0.
         12    1    1    2    0    0  0.14528910621E+02  0.27982961228E+02 -0.47522531859E+01  0.31886035710E+02  0.00000000000E+00 0. -1.
         11    1    3    3    0    0 -0.11373741023E+02 -0.18383827584E+02  0.43343961509E+01  0.22047995186E+02  0.51100000000E-03 0. -1.
        -11    1    3    3    0    0 -0.97539982353E+01 -0.34388940581E+01 -0.15688174296E+02  0.18790563774E+02  0.51100000000E-03 0.  1.
        -12    1    3    3    0    0  0.65988286373E+01 -0.61602395864E+01  0.16106031331E+02  0.18463405330E+02  0.00000000000E+00 0.  1.
</event>
<event>
 7    1  0.1134395E-011  0.5930192E+02  0.7816164E-02  0.1266605E+00
        -11   -1    0    0    0    0  0.00000000000E+00  0.00000000000E+00  0.45593999997E+02  0.45594000000E+02  0.51100000000E-03 0. -1.
         11   -1    0    0    0    0 -0.00000000000E+00 -0.00000000000E+00 -0.45593999997E+02  0.45594000000E+02  0.51100000000E-03 0.  1.
    9900012    2    1    2    0    0 -0.24270749359E+02  0.13784186974E+02 -0.15415872381E+02  0.59301918299E+02  0.49999953077E+02 0.  0.
         12    1    1    2    0    0  0.24270749359E+02 -0.13784186974E+02  0.15415872381E+02  0.31886081701E+02  0.00000000000E+00 0. -1.
         11    1    3    3    0    0 -0.22497637049E+02  0.35374565791E+01 -0.96356942818E+01  0.24728604417E+02  0.51100000000E-03 0. -1.
        -11    1    3    3    0    0 -0.15776153544E+02  0.19461589357E+01 -0.85682187246E+01  0.18057932540E+02  0.51100000000E-03 0.  1.
         12    1    3    3    0    0  0.14003041234E+02  0.83005714592E+01  0.27880406251E+01  0.16515381342E+02  0.00000000000E+00 0. -1.
</event>
<event>
 7    1  0.1134395E-011  0.5930197E+02  0.7816164E-02  0.1266605E+00
        -11   -1    0    0    0    0  0.00000000000E+00  0.00000000000E+00  0.45593999997E+02  0.45594000000E+02  0.51100000000E-03 0. -1.
         11   -1    0    0    0    0 -0.00000000000E+00 -0.00000000000E+00 -0.45593999997E+02  0.45594000000E+02  0.51100000000E-03 0.  1.
    9900012    2    1    2    0    0  0.14454499451E+02 -0.21080821439E+02 -0.19062673292E+02  0.59301967008E+02  0.50000041911E+02 0.  0.
         12    1    1    2    0    0 -0.14454499451E+02  0.21080821439E+02  0.19062673292E+02  0.31886032992E+02  0.00000000000E+00 0. -1.
         11    1    3    3    0    0  0.41490828308E+01 -0.85891299029E+01  0.13237523504E+01  0.96301797165E+01  0.51100000000E-03 0. -1.
        -11    1    3    3    0    0 -0.14555723323E+02 -0.79867990126E+01  0.90983187393E+00  0.16627863189E+02  0.51100000000E-03 0.  1.
        -12    1    3    3    0    0  0.24861139944E+02 -0.45048925233E+01 -0.21296257516E+02  0.33043924103E+02  0.00000000000E+00 0.  1.
</event>
<event>
 7    1  0.1134395E-011  0.5930194E+02  0.7816164E-02  0.1266605E+00
        -11   -1    0    0    0    0  0.00000000000E+00  0.00000000000E+00  0.45593999997E+02  0.45594000000E+02  0.51100000000E-03 0.  1.
         11   -1    0    0    0    0 -0.00000000000E+00 -0.00000000000E+00 -0.45593999997E+02  0.45594000000E+02  0.51100000000E-03 0. -1.
    9900012    2    1    2    0    0  0.18993777960E+02  0.19337776102E+02  0.16793077469E+02  0.59301942911E+02  0.49999997964E+02 0.  0.
         12    1    1    2    0    0 -0.18993777960E+02 -0.19337776102E+02 -0.16793077469E+02  0.31886057089E+02  0.00000000000E+00 0. -1.
         11    1    3    3    0    0 -0.10867720469E+01 -0.13140248068E+02  0.45038650000E+01  0.13933125743E+02  0.51100000000E-03 0. -1.
        -11    1    3    3    0    0  0.12113920488E+02  0.27386527419E+01  0.65834149296E+01  0.14056622668E+02  0.51100000000E-03 0.  1.
        -12    1    3    3    0    0  0.79666295189E+01  0.29739371429E+02  0.57057975399E+01  0.31312194500E+02  0.00000000000E+00 0.  1.
</event>
<event>
 7    1  0.1134395E-011  0.5930193E+02  0.7816164E-02  0.1266605E+00
        -11   -1    0    0    0    0  0.00000000000E+00  0.00000000000E+00  0.45593999997E+02  0.45594000000E+02  0.51100000000E-03 0.  1.
         11   -1    0    0    0    0 -0.00000000000E+00 -0.00000000000E+00 -0.45593999997E+02  0.45594000000E+02  0.51100000000E-03 0. -1.
    9900012    2    1    2    0    0 -0.39861222655E+01 -0.24387913740E+02  0.20150976967E+02  0.59301931255E+02  0.49999976705E+02 0.  0.
         12    1    1    2    0    0  0.39861222655E+01  0.24387913740E+02 -0.20150976967E+02  0.31886068745E+02  0.00000000000E+00 0. -1.
         11    1    3    3    0    0  0.80873886545E+01 -0.11995307673E+01 -0.38984355377E+01  0.90577331167E+01  0.51100000000E-03 0. -1.
        -11    1    3    3    0    0 -0.13586568845E+01 -0.24735402435E+02  0.10160485834E+01  0.24793516030E+02  0.51100000000E-03 0.  1.
        -12    1    3    3    0    0 -0.10714854036E+02  0.15470194622E+01  0.23033363921E+02  0.25450682108E+02  0.00000000000E+00 0.  1.
</event>
<event>
 7    1  0.1134395E-011  0.5930204E+02  0.7816164E-02  0.1266604E+00
        -11   -1    0    0    0    0  0.00000000000E+00  0.00000000000E+00  0.45593999997E+02  0.45594000000E+02  0.51100000000E-03 0.  1.
         11   -1    0    0    0    0 -0.00000000000E+00 -0.00000000000E+00 -0.45593999997E+02  0.45594000000E+02  0.51100000000E-03 0. -1.
    9900012    2    1    2    0    0  0.20989858332E+02 -0.23995207621E+02 -0.60872796462E+00  0.59302036140E+02  0.50000167990E+02 0.  0.
         12    1    1    2    0    0 -0.20989858332E+02  0.23995207621E+02  0.60872796462E+00  0.31885963860E+02  0.00000000000E+00 0. -1.
         11    1    3    3    0    0  0.82001527395E+01  0.45076593318E+01 -0.36388027551E+01  0.10040039012E+02  0.51100000000E-03 0. -1.
        -11    1    3    3    0    0  0.20418924320E+02 -0.12074699671E+02 -0.11194794598E+02  0.26230788568E+02  0.51100000000E-03 0.  1.
        -12    1    3    3    0    0 -0.76292187282E+01 -0.16428167281E+02  0.14224869388E+02  0.23031208560E+02  0.00000000000E+00 0.  1.
</event>
<event>
 7    1  0.1285511E-011  0.5930195E+02  0.7816164E-02  0.1266605E+00
        -11   -1    0    0    0    0  0.00000000000E+00  0.00000000000E+00  0.45593999997E+02  0.45594000000E+02  0.51100000000E-03 0. -1.
         11   -1    0    0    0    0 -0.00000000000E+00 -0.00000000000E+00 -0.45593999997E+02  0.45594000000E+02  0.51100000000E-03 0.  1.
    9900012    2    1    2    0    0  0.27972010469E+01 -0.43854426747E+01 -0.31458925304E+02  0.59301946271E+02  0.50000004091E+02 0.  0.
         12    1    1    2    0    0 -0.27972010469E+01  0.43854426747E+01  0.31458925304E+02  0.31886053729E+02  0.00000000000E+00 0. -1.
         11    1    3    3    0    0  0.10598679782E+02 -0.35245561706E+01  0.49937535873E+00  0.11180513643E+02  0.51100000000E-03 0. -1.
        -11    1    3    3    0    0  0.58589831451E+01 -0.25325248330E+01 -0.33654949337E+02  0.34254882581E+02  0.51100000000E-03 0.  1.
         12    1    3    3    0    0 -0.13660461880E+02  0.16716383290E+01  0.16966486745E+01  0.13866550047E+02  0.00000000000E+00 0. -1.
</event>
<event>
 7    1  0.1134395E-011  0.5930194E+02  0.7816164E-02  0.1266605E+00
        -11   -1    0    0    0    0  0.00000000000E+00  0.00000000000E+00  0.45593999997E+02  0.45594000000E+02  0.51100000000E-03 0.  1.
         11   -1    0    0    0    0 -0.00000000000E+00 -0.00000000000E+00 -0.45593999997E+02  0.45594000000E+02  0.51100000000E-03 0. -1.
    9900012    2    1    2    0    0 -0.26781602106E+02 -0.83129288074E+01  0.15177684942E+02  0.59301935380E+02  0.49999984229E+02 0.  0.
         12    1    1    2    0    0  0.26781602106E+02  0.83129288074E+01 -0.15177684942E+02  0.31886064620E+02  0.00000000000E+00 0. -1.
         11    1    3    3    0    0 -0.28229345872E+02 -0.12600480412E+02  0.21532036397E+01  0.30988777987E+02  0.51100000000E-03 0. -1.
        -11    1    3    3    0    0 -0.91930606711E+01  0.60599831366E+01 -0.48958745561E+00  0.11021590459E+02  0.51100000000E-03 0.  1.
        -12    1    3    3    0    0  0.10640804437E+02 -0.17724315321E+01  0.13514068758E+02  0.17291566933E+02  0.00000000000E+00 0.  1.
</event>
<event>
 7    1  0.1134395E-011  0.5930194E+02  0.7816164E-02  0.1266605E+00
        -11   -1    0    0    0    0  0.00000000000E+00  0.00000000000E+00  0.45593999997E+02  0.45594000000E+02  0.51100000000E-03 0. -1.
         11   -1    0    0    0    0 -0.00000000000E+00 -0.00000000000E+00 -0.45593999997E+02  0.45594000000E+02  0.51100000000E-03 0.  1.
    9900012    2    1    2    0    0  0.20651337810E+02  0.18521259719E+02 -0.15722779551E+02  0.59301943303E+02  0.49999998678E+02 0.  0.
         12    1    1    2    0    0 -0.20651337810E+02 -0.18521259719E+02  0.15722779551E+02  0.31886056697E+02  0.00000000000E+00 0. -1.
         11    1    3    3    0    0  0.96621134599E+01  0.24066701461E+02 -0.37249836746E+01  0.26199962965E+02  0.51100000000E-03 0. -1.
        -11    1    3    3    0    0  0.31170127457E+01  0.83814637525E+01  0.45944048228E+01  0.10053519733E+02  0.51100000000E-03 0.  1.
         12    1    3    3    0    0  0.78722116043E+01 -0.13926905495E+02 -0.16592200699E+02  0.23048460605E+02  0.00000000000E+00 0. -1.
</event>
<event>
 7    1  0.1134395E-011  0.5930195E+02  0.7816164E-02  0.1266605E+00
        -11   -1    0    0    0    0  0.00000000000E+00  0.00000000000E+00  0.45593999997E+02  0.45594000000E+02  0.51100000000E-03 0.  1.
         11   -1    0    0    0    0 -0.00000000000E+00 -0.00000000000E+00 -0.45593999997E+02  0.45594000000E+02  0.51100000000E-03 0. -1.
    9900012    2    1    2    0    0  0.12097120530E+02 -0.79261706572E+01  0.28417522922E+02  0.59301951085E+02  0.50000012871E+02 0.  0.
         12    1    1    2    0    0 -0.12097120530E+02  0.79261706572E+01 -0.28417522922E+02  0.31886048915E+02  0.00000000000E+00 0. -1.
         11    1    3    3    0    0 -0.73843771483E+01 -0.14414573811E+02  0.27664214799E+02  0.32056477422E+02  0.51100000000E-03 0.  1.
        -11    1    3    3    0    0  0.12538054751E+02 -0.48695795491E+01  0.29046343538E+01  0.13760542247E+02  0.51100000000E-03 0. -1.
        -12    1    3    3    0    0  0.69434429268E+01  0.11357982702E+02 -0.21513262311E+01  0.13484931416E+02  0.00000000000E+00 0.  1.
</event>
<event>
 7    1  0.1134395E-011  0.5930191E+02  0.7816164E-02  0.1266605E+00
        -11   -1    0    0    0    0  0.00000000000E+00  0.00000000000E+00  0.45593999997E+02  0.45594000000E+02  0.51100000000E-03 0.  1.
         11   -1    0    0    0    0 -0.00000000000E+00 -0.00000000000E+00 -0.45593999997E+02  0.45594000000E+02  0.51100000000E-03 0. -1.
    9900012    2    1    2    0    0  0.25001246462E+01 -0.22332160020E+02  0.22621815206E+02  0.59301913416E+02  0.49999944172E+02 0.  0.
         12    1    1    2    0    0 -0.25001246462E+01  0.22332160020E+02 -0.22621815206E+02  0.31886086584E+02  0.00000000000E+00 0. -1.
         11    1    3    3    0    0 -0.50797451047E+01 -0.14419824905E+01  0.50698256498E+01  0.73202633977E+01  0.51100000000E-03 0. -1.
        -11    1    3    3    0    0 -0.98161988848E+01 -0.14236284815E+02  0.26243344679E+02  0.31428374219E+02  0.51100000000E-03 0.  1.
         12    1    3    3    0    0  0.17396068636E+02 -0.66538927145E+01 -0.86913551223E+01  0.20553275800E+02  0.00000000000E+00 0. -1.
</event>
<event>
 7    1  0.1134395E-011  0.5930191E+02  0.7816164E-02  0.1266605E+00
        -11   -1    0    0    0    0  0.00000000000E+00  0.00000000000E+00  0.45593999997E+02  0.45594000000E+02  0.51100000000E-03 0.  1.
         11   -1    0    0    0    0 -0.00000000000E+00 -0.00000000000E+00 -0.45593999997E+02  0.45594000000E+02  0.51100000000E-03 0. -1.
    9900012    2    1    2    0    0 -0.31751025349E+02 -0.24087825680E+01  0.16711472568E+01  0.59301912480E+02  0.49999942465E+02 0.  0.
         12    1    1    2    0    0  0.31751025349E+02  0.24087825680E+01 -0.16711472568E+01  0.31886087520E+02  0.00000000000E+00 0. -1.
         11    1    3    3    0    0 -0.46807881125E+00 -0.16515232548E+02  0.74382590715E+01  0.18119042529E+02  0.51100000000E-03 0. -1.
        -11    1    3    3    0    0  0.16535051428E+01  0.68545196615E+01 -0.10792675952E+01  0.71332557679E+01  0.51100000000E-03 0.  1.
         12    1    3    3    0    0 -0.32936451680E+02  0.72519303185E+01 -0.46878442194E+01  0.34049614184E+02  0.00000000000E+00 0. -1.
</event>
<event>
 7    1  0.1134395E-011  0.5930193E+02  0.7816164E-02  0.1266605E+00
        -11   -1    0    0    0    0  0.00000000000E+00  0.00000000000E+00  0.45593999997E+02  0.45594000000E+02  0.51100000000E-03 0.  1.
         11   -1    0    0    0    0 -0.00000000000E+00 -0.00000000000E+00 -0.45593999997E+02  0.45594000000E+02  0.51100000000E-03 0. -1.
    9900012    2    1    2    0    0  0.88490281589E+01 -0.19222128686E+02  0.23852162076E+02  0.59301934607E+02  0.49999982819E+02 0.  0.
         12    1    1    2    0    0 -0.88490281589E+01  0.19222128686E+02 -0.23852162076E+02  0.31886065393E+02  0.00000000000E+00 0. -1.
         11    1    3    3    0    0 -0.12275531720E+01 -0.22969752461E+02  0.47248686564E+00  0.23007382707E+02  0.51100000000E-03 0. -1.
        -11    1    3    3    0    0  0.51298919175E+01 -0.96762002591E+01  0.29293911767E+01  0.11336929720E+02  0.51100000000E-03 0.  1.
        -12    1    3    3    0    0  0.49466894134E+01  0.13423824034E+02  0.20450284033E+02  0.24957622180E+02  0.00000000000E+00 0.  1.
</event>
<event>
 7    1  0.1134395E-011  0.5930198E+02  0.7816164E-02  0.1266605E+00
        -11   -1    0    0    0    0  0.00000000000E+00  0.00000000000E+00  0.45593999997E+02  0.45594000000E+02  0.51100000000E-03 0.  1.
         11   -1    0    0    0    0 -0.00000000000E+00 -0.00000000000E+00 -0.45593999997E+02  0.45594000000E+02  0.51100000000E-03 0. -1.
    9900012    2    1    2    0    0 -0.11604989795E+02  0.60894763979E+01  0.29068211962E+02  0.59301977081E+02  0.50000060281E+02 0.  0.
         12    1    1    2    0    0  0.11604989795E+02 -0.60894763979E+01 -0.29068211962E+02  0.31886022919E+02  0.00000000000E+00 0. -1.
         11    1    3    3    0    0  0.64913808913E+01  0.45806176935E+00 -0.10954294067E+02  0.12741444393E+02  0.51100000000E-03 0. -1.
        -11    1    3    3    0    0  0.20802067278E+01  0.23779336240E+01  0.35494807584E+01  0.47519093285E+01  0.51100000000E-03 0.  1.
        -12    1    3    3    0    0 -0.20176577414E+02  0.32534810046E+01  0.36473025270E+02  0.41808623359E+02  0.00000000000E+00 0.  1.
</event>
<event>
 7    1  0.1134395E-011  0.5930193E+02  0.7816164E-02  0.1266605E+00
        -11   -1    0    0    0    0  0.00000000000E+00  0.00000000000E+00  0.45593999997E+02  0.45594000000E+02  0.51100000000E-03 0. -1.
         11   -1    0    0    0    0 -0.00000000000E+00 -0.00000000000E+00 -0.45593999997E+02  0.45594000000E+02  0.51100000000E-03 0.  1.
    9900012    2    1    2    0    0  0.21428820450E+02  0.76424765011E+01 -0.22340992078E+02  0.59301925925E+02  0.49999966984E+02 0.  0.
         12    1    1    2    0    0 -0.21428820450E+02 -0.76424765011E+01  0.22340992078E+02  0.31886074075E+02  0.00000000000E+00 0. -1.
         11    1    3    3    0    0 -0.13208026401E+01  0.64432447717E+01 -0.15312694139E+01  0.67531258749E+01  0.51100000000E-03 0. -1.
        -11    1    3    3    0    0  0.10146312530E+02  0.21061718590E+02 -0.16547885308E+02  0.28642209348E+02  0.51100000000E-03 0.  1.
         12    1    3    3    0    0  0.12603310560E+02 -0.19862486860E+02 -0.42618373556E+01  0.23906590702E+02  0.00000000000E+00 0. -1.
</event>
<event>
 7    1  0.1134395E-011  0.5930197E+02  0.7816164E-02  0.1266605E+00
        -11   -1    0    0    0    0  0.00000000000E+00  0.00000000000E+00  0.45593999997E+02  0.45594000000E+02  0.51100000000E-03 0. -1.
         11   -1    0    0    0    0 -0.00000000000E+00 -0.00000000000E+00 -0.45593999997E+02  0.45594000000E+02  0.51100000000E-03 0.  1.
    9900012    2    1    2    0    0  0.30530591924E+02  0.90390434398E+01 -0.17021573732E+01  0.59301973449E+02  0.50000053657E+02 0.  0.
         12    1    1    2    0    0 -0.30530591924E+02 -0.90390434398E+01  0.17021573732E+01  0.31886026551E+02  0.00000000000E+00 0. -1.
         11    1    3    3    0    0 -0.72020201106E+01  0.61566515731E+00  0.55376018393E+01  0.91056670075E+01  0.51100000000E-03 0. -1.
        -11    1    3    3    0    0  0.14480344450E+02  0.10250982678E+02  0.10746718967E+02  0.20742588799E+02  0.51100000000E-03 0.  1.
        -12    1    3    3    0    0  0.23252267584E+02 -0.18276043954E+01 -0.17986478180E+02  0.29453717642E+02  0.00000000000E+00 0.  1.
</event>
<event>
 7    1  0.1134395E-011  0.5930196E+02  0.7816164E-02  0.1266605E+00
        -11   -1    0    0    0    0  0.00000000000E+00  0.00000000000E+00  0.45593999997E+02  0.45594000000E+02  0.51100000000E-03 0.  1.
         11   -1    0    0    0    0 -0.00000000000E+00 -0.00000000000E+00 -0.45593999997E+02  0.45594000000E+02  0.51100000000E-03 0. -1.
    9900012    2    1    2    0    0 -0.13921011172E+02 -0.22650645168E+02  0.17603215969E+02  0.59301960876E+02  0.50000030727E+02 0.  0.
         12    1    1    2    0    0  0.13921011172E+02  0.22650645168E+02 -0.17603215969E+02  0.31886039124E+02  0.00000000000E+00 0. -1.
         11    1    3    3    0    0 -0.18292591479E+01  0.60047174650E+01 -0.30071922105E+01  0.69603179609E+01  0.51100000000E-03 0. -1.
        -11    1    3    3    0    0  0.72918130593E+01 -0.30666663911E+01  0.18559203783E+02  0.20174712533E+02  0.51100000000E-03 0.  1.
         12    1    3    3    0    0 -0.19383565084E+02 -0.25588696242E+02  0.20512043960E+01  0.32166930382E+02  0.00000000000E+00 0. -1.
</event>
<event>
 7    1  0.1134395E-011  0.5930193E+02  0.7816164E-02  0.1266605E+00
        -11   -1    0    0    0    0  0.00000000000E+00  0.00000000000E+00  0.45593999997E+02  0.45594000000E+02  0.51100000000E-03 0.  1.
         11   -1    0    0    0    0 -0.00000000000E+00 -0.00000000000E+00 -0.45593999997E+02  0.45594000000E+02  0.51100000000E-03 0. -1.
    9900012    2    1    2    0    0 -0.27106669229E+02  0.11454213575E+02 -0.12278069937E+02  0.59301928956E+02  0.49999972512E+02 0.  0.
         12    1    1    2    0    0  0.27106669229E+02 -0.11454213575E+02  0.12278069937E+02  0.31886071044E+02  0.00000000000E+00 0. -1.
         11    1    3    3    0    0 -0.92416511119E+01 -0.13822313076E+01 -0.21136662334E+02  0.23110109769E+02  0.51100000000E-03 0. -1.
        -11    1    3    3    0    0 -0.24840832386E+02  0.81920722377E+01  0.93983475376E+01  0.27793991039E+02  0.51100000000E-03 0.  1.
         12    1    3    3    0    0  0.69758142691E+01  0.46443726447E+01 -0.53975513994E+00  0.83978281472E+01  0.00000000000E+00 0. -1.
</event>
<event>
 7    1  0.1284406E-011  0.5930195E+02  0.7816164E-02  0.1266605E+00
        -11   -1    0    0    0    0  0.00000000000E+00  0.00000000000E+00  0.45593999997E+02  0.45594000000E+02  0.51100000000E-03 0. -1.
         11   -1    0    0    0    0 -0.00000000000E+00 -0.00000000000E+00 -0.45593999997E+02  0.45594000000E+02  0.51100000000E-03 0.  1.
    9900012    2    1    2    0    0 -0.30724370641E+02 -0.92994231028E+00 -0.84775095632E+01  0.59301954269E+02  0.50000018677E+02 0.  0.
         12    1    1    2    0    0  0.30724370641E+02  0.92994231028E+00  0.84775095632E+01  0.31886045731E+02  0.00000000000E+00 0. -1.
         11    1    3    3    0    0 -0.11148034374E+02  0.13607957592E+02 -0.73085125917E+01  0.19049134804E+02  0.51100000000E-03 0. -1.
        -11    1    3    3    0    0 -0.38185718870E+01 -0.20455547033E+01 -0.15152701061E+02  0.15759763165E+02  0.51100000000E-03 0.  1.
        -12    1    3    3    0    0 -0.15757764381E+02 -0.12492345199E+02  0.13983704090E+02  0.24493056300E+02  0.00000000000E+00 0.  1.
</event>
<event>
 7    1  0.1134395E-011  0.5930193E+02  0.7816164E-02  0.1266605E+00
        -11   -1    0    0    0    0  0.00000000000E+00  0.00000000000E+00  0.45593999997E+02  0.45594000000E+02  0.51100000000E-03 0.  1.
         11   -1    0    0    0    0 -0.00000000000E+00 -0.00000000000E+00 -0.45593999997E+02  0.45594000000E+02  0.51100000000E-03 0. -1.
    9900012    2    1    2    0    0 -0.27743316063E+02  0.11307023766E+02 -0.10917008680E+02  0.59301930140E+02  0.49999974672E+02 0.  0.
         12    1    1    2    0    0  0.27743316063E+02 -0.11307023766E+02  0.10917008680E+02  0.31886069860E+02  0.00000000000E+00 0. -1.
         11    1    3    3    0    0 -0.48915005596E+01  0.21652164621E+02 -0.13240643504E+02  0.25846811238E+02  0.51100000000E-03 0. -1.
        -11    1    3    3    0    0 -0.19154128477E+02  0.26580572148E+01  0.42517626655E+01  0.19799580599E+02  0.51100000000E-03 0.  1.
        -12    1    3    3    0    0 -0.36976870256E+01 -0.13003198070E+02 -0.19281278413E+01  0.13655538303E+02  0.00000000000E+00 0.  1.
</event>
<event>
 7    1  0.1145708E-011  0.5930197E+02  0.7816164E-02  0.1266605E+00
        -11   -1    0    0    0    0  0.00000000000E+00  0.00000000000E+00  0.45593999997E+02  0.45594000000E+02  0.51100000000E-03 0.  1.
         11   -1    0    0    0    0 -0.00000000000E+00 -0.00000000000E+00 -0.45593999997E+02  0.45594000000E+02  0.51100000000E-03 0. -1.
    9900012    2    1    2    0    0  0.87851091487E+01 -0.29745616402E+02 -0.73985838141E+01  0.59301970452E+02  0.50000048191E+02 0.  0.
         12    1    1    2    0    0 -0.87851091487E+01  0.29745616402E+02  0.73985838141E+01  0.31886029548E+02  0.00000000000E+00 0. -1.
         11    1    3    3    0    0  0.10297473718E+02 -0.31752483114E+00 -0.11857891422E+02  0.15708226387E+02  0.51100000000E-03 0. -1.
        -11    1    3    3    0    0  0.39863285255E+01  0.44352716503E+01 -0.52438456962E+01  0.79410558286E+01  0.51100000000E-03 0.  1.
        -12    1    3    3    0    0 -0.54986930947E+01 -0.33863363221E+02  0.97031533046E+01  0.35652688236E+02  0.00000000000E+00 0.  1.
</event>
<event>
 7    1  0.1134395E-011  0.5930192E+02  0.7816164E-02  0.1266605E+00
        -11   -1    0    0    0    0  0.00000000000E+00  0.00000000000E+00  0.45593999997E+02  0.45594000000E+02  0.51100000000E-03 0.  1.
         11   -1    0    0    0    0 -0.00000000000E+00 -0.00000000000E+00 -0.45593999997E+02  0.45594000000E+02  0.51100000000E-03 0. -1.
    9900012    2    1    2    0    0  0.83360791686E+01  0.22120760640E+02  0.21398694644E+02  0.59301915266E+02  0.49999947546E+02 0.  0.
         12    1    1    2    0    0 -0.83360791686E+01 -0.22120760640E+02 -0.21398694644E+02  0.31886084734E+02  0.00000000000E+00 0. -1.
         11    1    3    3    0    0 -0.60708569860E+00 -0.59791440559E+01  0.24707835638E+01  0.64979603236E+01  0.51100000000E-03 0. -1.
        -11    1    3    3    0    0  0.24103809123E+02  0.19456651523E+02  0.16755370709E+02  0.35217855565E+02  0.51100000000E-03 0.  1.
         12    1    3    3    0    0 -0.15160644256E+02  0.86432531725E+01  0.21725403718E+01  0.17586099378E+02  0.00000000000E+00 0. -1.
</event>
<event>
 7    1  0.1134395E-011  0.5930193E+02  0.7816164E-02  0.1266605E+00
        -11   -1    0    0    0    0  0.00000000000E+00  0.00000000000E+00  0.45593999997E+02  0.45594000000E+02  0.51100000000E-03 0.  1.
         11   -1    0    0    0    0 -0.00000000000E+00 -0.00000000000E+00 -0.45593999997E+02  0.45594000000E+02  0.51100000000E-03 0. -1.
    9900012    2    1    2    0    0  0.23626774518E+02 -0.17936662471E+02  0.11695008358E+02  0.59301928507E+02  0.49999971694E+02 0.  0.
         12    1    1    2    0    0 -0.23626774518E+02  0.17936662471E+02 -0.11695008358E+02  0.31886071493E+02  0.00000000000E+00 0. -1.
         11    1    3    3    0    0  0.96962744808E+01 -0.84935364059E+01  0.71734848328E+01  0.14751840034E+02  0.51100000000E-03 0. -1.
        -11    1    3    3    0    0  0.70601367430E+01 -0.30216487127E+01  0.22765000707E+02  0.24025427139E+02  0.51100000000E-03 0.  1.
         12    1    3    3    0    0  0.68703632945E+01 -0.64214773528E+01 -0.18243477182E+02  0.20524661334E+02  0.00000000000E+00 0. -1.
</event>
<event>
 7    1  0.1134395E-011  0.5930195E+02  0.7816164E-02  0.1266605E+00
        -11   -1    0    0    0    0  0.00000000000E+00  0.00000000000E+00  0.45593999997E+02  0.45594000000E+02  0.51100000000E-03 0.  1.
         11   -1    0    0    0    0 -0.00000000000E+00 -0.00000000000E+00 -0.45593999997E+02  0.45594000000E+02  0.51100000000E-03 0. -1.
    9900012    2    1    2    0    0 -0.21088538362E+02 -0.23839624152E+02  0.19147247901E+01  0.59301948175E+02  0.50000007564E+02 0.  0.
         12    1    1    2    0    0  0.21088538362E+02  0.23839624152E+02 -0.19147247901E+01  0.31886051825E+02  0.00000000000E+00 0. -1.
         11    1    3    3    0    0 -0.87118500368E+01 -0.17955166645E+02  0.77853621166E+01  0.21421862754E+02  0.51100000000E-03 0.  1.
        -11    1    3    3    0    0  0.14532733055E+01 -0.16117705766E+02 -0.11415661470E+02  0.19804286645E+02  0.51100000000E-03 0. -1.
         12    1    3    3    0    0 -0.13829961631E+02  0.10233248259E+02  0.55450241431E+01  0.18075798776E+02  0.00000000000E+00 0. -1.
</event>
<event>
 7    1  0.1134395E-011  0.5930191E+02  0.7816164E-02  0.1266605E+00
        -11   -1    0    0    0    0  0.00000000000E+00  0.00000000000E+00  0.45593999997E+02  0.45594000000E+02  0.51100000000E-03 0. -1.
         11   -1    0    0    0    0 -0.00000000000E+00 -0.00000000000E+00 -0.45593999997E+02  0.45594000000E+02  0.51100000000E-03 0.  1.
    9900012    2    1    2    0    0  0.21970755454E+02  0.17975876700E+01 -0.23038607306E+02  0.59301908310E+02  0.49999934860E+02 0.  0.
         12    1    1    2    0    0 -0.21970755454E+02 -0.17975876700E+01  0.23038607306E+02  0.31886091690E+02  0.00000000000E+00 0. -1.
         11    1    3    3    0    0  0.14760117870E+02 -0.75518491897E+01 -0.26994909989E+01  0.16798177212E+02  0.51100000000E-03 0. -1.
        -11    1    3    3    0    0 -0.10285431937E+02 -0.77331410951E+01 -0.71299356875E+01  0.14711477305E+02  0.51100000000E-03 0.  1.
         12    1    3    3    0    0  0.17496069521E+02  0.17082577955E+02 -0.13209180619E+02  0.27792253793E+02  0.00000000000E+00 0. -1.
</event>
<event>
 7    1  0.1134395E-011  0.5930196E+02  0.7816164E-02  0.1266605E+00
        -11   -1    0    0    0    0  0.00000000000E+00  0.00000000000E+00  0.45593999997E+02  0.45594000000E+02  0.51100000000E-03 0.  1.
         11   -1    0    0    0    0 -0.00000000000E+00 -0.00000000000E+00 -0.45593999997E+02  0.45594000000E+02  0.51100000000E-03 0. -1.
    9900012    2    1    2    0    0 -0.23438810942E+02 -0.15666023971E+02 -0.14896885325E+02  0.59301962965E+02  0.50000034536E+02 0.  0.
         12    1    1    2    0    0  0.23438810942E+02  0.15666023971E+02  0.14896885325E+02  0.31886037035E+02  0.00000000000E+00 0. -1.
         11    1    3    3    0    0 -0.13394848597E+02 -0.82491036428E+01  0.63334826923E+01  0.16958262975E+02  0.51100000000E-03 0. -1.
        -11    1    3    3    0    0 -0.11475863151E+01 -0.20132209754E+02 -0.16686357666E+02  0.26173600370E+02  0.51100000000E-03 0.  1.
         12    1    3    3    0    0 -0.88963760302E+01  0.12715289426E+02 -0.45440103516E+01  0.16170099620E+02  0.00000000000E+00 0. -1.
</event>
<event>
 7    1  0.1134395E-011  0.5930194E+02  0.7816164E-02  0.1266605E+00
        -11   -1    0    0    0    0  0.00000000000E+00  0.00000000000E+00  0.45593999997E+02  0.45594000000E+02  0.51100000000E-03 0.  1.
         11   -1    0    0    0    0 -0.00000000000E+00 -0.00000000000E+00 -0.45593999997E+02  0.45594000000E+02  0.51100000000E-03 0. -1.
    9900012    2    1    2    0    0 -0.10594840332E+02 -0.21258676102E+02  0.21272959375E+02  0.59301941105E+02  0.49999994671E+02 0.  0.
         12    1    1    2    0    0  0.10594840332E+02  0.21258676102E+02 -0.21272959375E+02  0.31886058895E+02  0.00000000000E+00 0. -1.
         11    1    3    3    0    0  0.86246127873E+01 -0.14209879407E+02  0.18591245876E+02  0.24938705700E+02  0.51100000000E-03 0. -1.
        -11    1    3    3    0    0  0.81527512160E+00 -0.12893719555E+02  0.37900137001E+01  0.13463910338E+02  0.51100000000E-03 0.  1.
         12    1    3    3    0    0 -0.20034728241E+02  0.58449228607E+01 -0.11083002013E+01  0.20899325067E+02  0.00000000000E+00 0. -1.
</event>
<event>
 7    1  0.1134395E-011  0.5930193E+02  0.7816164E-02  0.1266605E+00
        -11   -1    0    0    0    0  0.00000000000E+00  0.00000000000E+00  0.45593999997E+02  0.45594000000E+02  0.51100000000E-03 0.  1.
         11   -1    0    0    0    0 -0.00000000000E+00 -0.00000000000E+00 -0.45593999997E+02  0.45594000000E+02  0.51100000000E-03 0. -1.
    9900012    2    1    2    0    0  0.27972720214E+00  0.13244996736E+02  0.29003677363E+02  0.59301929586E+02  0.49999973662E+02 0.  0.
         12    1    1    2    0    0 -0.27972720214E+00 -0.13244996736E+02 -0.29003677363E+02  0.31886070414E+02  0.00000000000E+00 0. -1.
         11    1    3    3    0    0 -0.78544684834E+01  0.35321910262E+01  0.10158913694E+02  0.13318129610E+02  0.51100000000E-03 0.  1.
        -11    1    3    3    0    0  0.15945531649E+01 -0.13433993841E+02  0.17188842059E+02  0.21873981848E+02  0.51100000000E-03 0. -1.
         12    1    3    3    0    0  0.65396425206E+01  0.23146799551E+02  0.16559216102E+01  0.24109818127E+02  0.00000000000E+00 0. -1.
</event>
<event>
 7    1  0.1134395E-011  0.5930193E+02  0.7816164E-02  0.1266605E+00
        -11   -1    0    0    0    0  0.00000000000E+00  0.00000000000E+00  0.45593999997E+02  0.45594000000E+02  0.51100000000E-03 0. -1.
         11   -1    0    0    0    0 -0.00000000000E+00 -0.00000000000E+00 -0.45593999997E+02  0.45594000000E+02  0.51100000000E-03 0.  1.
    9900012    2    1    2    0    0  0.16128138519E+02  0.26624388157E+02  0.69098735085E+01  0.59301933314E+02  0.49999980460E+02 0.  0.
         12    1    1    2    0    0 -0.16128138519E+02 -0.26624388157E+02 -0.69098735085E+01  0.31886066686E+02  0.00000000000E+00 0. -1.
         11    1    3    3    0    0 -0.58104283078E+01  0.31384588291E+02  0.80569218335E+01  0.32919104620E+02  0.51100000000E-03 0. -1.
        -11    1    3    3    0    0 -0.53406899097E-01 -0.35088896035E+01 -0.25078525204E+01  0.43132914430E+01  0.51100000000E-03 0.  1.
        -12    1    3    3    0    0  0.21991973726E+02 -0.12513105304E+01  0.13608041954E+01  0.22069537251E+02  0.00000000000E+00 0.  1.
</event>
<event>
 7    1  0.1134395E-011  0.5930194E+02  0.7816164E-02  0.1266605E+00
        -11   -1    0    0    0    0  0.00000000000E+00  0.00000000000E+00  0.45593999997E+02  0.45594000000E+02  0.51100000000E-03 0. -1.
         11   -1    0    0    0    0 -0.00000000000E+00 -0.00000000000E+00 -0.45593999997E+02  0.45594000000E+02  0.51100000000E-03 0.  1.
    9900012    2    1    2    0    0  0.23020244383E+02  0.14854066550E+02 -0.16313973718E+02  0.59301942185E+02  0.49999996639E+02 0.  0.
         12    1    1    2    0    0 -0.23020244383E+02 -0.14854066550E+02  0.16313973718E+02  0.31886057815E+02  0.00000000000E+00 0. -1.
         11    1    3    3    0    0 -0.51826725322E+01  0.21806650159E+01 -0.12059744690E+02  0.13306120274E+02  0.51100000000E-03 0. -1.
        -11    1    3    3    0    0  0.18477130033E+02 -0.38869278416E+01 -0.14886416104E+02  0.24044082993E+02  0.51100000000E-03 0.  1.
         12    1    3    3    0    0  0.97257868818E+01  0.16560329376E+02  0.10632187076E+02  0.21951738918E+02  0.00000000000E+00 0. -1.
</event>
<event>
 7    1  0.1134395E-011  0.5930194E+02  0.7816164E-02  0.1266605E+00
        -11   -1    0    0    0    0  0.00000000000E+00  0.00000000000E+00  0.45593999997E+02  0.45594000000E+02  0.51100000000E-03 0. -1.
         11   -1    0    0    0    0 -0.00000000000E+00 -0.00000000000E+00 -0.45593999997E+02  0.45594000000E+02  0.51100000000E-03 0.  1.
    9900012    2    1    2    0    0 -0.21427217015E+02  0.11787984230E+02  0.20460656072E+02  0.59301942732E+02  0.49999997637E+02 0.  0.
         12    1    1    2    0    0  0.21427217015E+02 -0.11787984230E+02 -0.20460656072E+02  0.31886057268E+02  0.00000000000E+00 0. -1.
         11    1    3    3    0    0  0.70651256564E+01  0.91260314815E+01  0.85125089303E+00  0.11572600377E+02  0.51100000000E-03 0.  1.
        -11    1    3    3    0    0 -0.22700390675E+02 -0.39114099358E+01 -0.32365098078E+01  0.23261166361E+02  0.51100000000E-03 0. -1.
         12    1    3    3    0    0 -0.57919519962E+01  0.65733626847E+01  0.22845914986E+02  0.24468175994E+02  0.00000000000E+00 0. -1.
</event>
<event>
 7    1  0.1134395E-011  0.5930191E+02  0.7816164E-02  0.1266605E+00
        -11   -1    0    0    0    0  0.00000000000E+00  0.00000000000E+00  0.45593999997E+02  0.45594000000E+02  0.51100000000E-03 0.  1.
         11   -1    0    0    0    0 -0.00000000000E+00 -0.00000000000E+00 -0.45593999997E+02  0.45594000000E+02  0.51100000000E-03 0. -1.
    9900012    2    1    2    0    0 -0.56525030519E+00 -0.54136115671E+01  0.31418086753E+02  0.59301907839E+02  0.49999934000E+02 0.  0.
         12    1    1    2    0    0  0.56525030519E+00  0.54136115671E+01 -0.31418086753E+02  0.31886092161E+02  0.00000000000E+00 0. -1.
         11    1    3    3    0    0 -0.24196762483E+01  0.10890633059E+02  0.12401393562E+02  0.16680985706E+02  0.51100000000E-03 0. -1.
        -11    1    3    3    0    0 -0.12257562798E+02 -0.14701140000E+02  0.20846222730E+02  0.28300819165E+02  0.51100000000E-03 0.  1.
        -12    1    3    3    0    0  0.14111988741E+02 -0.16031046267E+01 -0.18295295393E+01  0.14320102968E+02  0.00000000000E+00 0.  1.
</event>
<event>
 7    1  0.1134395E-011  0.5930195E+02  0.7816164E-02  0.1266605E+00
        -11   -1    0    0    0    0  0.00000000000E+00  0.00000000000E+00  0.45593999997E+02  0.45594000000E+02  0.51100000000E-03 0. -1.
         11   -1    0    0    0    0 -0.00000000000E+00 -0.00000000000E+00 -0.45593999997E+02  0.45594000000E+02  0.51100000000E-03 0.  1.
    9900012    2    1    2    0    0 -0.14709323023E+02 -0.16405110193E+02 -0.23048390003E+02  0.59301951233E+02  0.50000013141E+02 0.  0.
         12    1    1    2    0    0  0.14709323023E+02  0.16405110193E+02  0.23048390003E+02  0.31886048767E+02  0.00000000000E+00 0. -1.
         11    1    3    3    0    0 -0.15805894338E+02 -0.24617951842E+01  0.45020128481E+01  0.16617907548E+02  0.51100000000E-03 0.  1.
        -11    1    3    3    0    0  0.96978173212E+01 -0.11438523907E+02 -0.14231779060E+01  0.15063629230E+02  0.51100000000E-03 0. -1.
         12    1    3    3    0    0 -0.86012460066E+01 -0.25047911011E+01 -0.26127224945E+02  0.27620414455E+02  0.00000000000E+00 0. -1.
</event>
<event>
 7    1  0.1134395E-011  0.5930194E+02  0.7816164E-02  0.1266605E+00
        -11   -1    0    0    0    0  0.00000000000E+00  0.00000000000E+00  0.45593999997E+02  0.45594000000E+02  0.51100000000E-03 0. -1.
         11   -1    0    0    0    0 -0.00000000000E+00 -0.00000000000E+00 -0.45593999997E+02  0.45594000000E+02  0.51100000000E-03 0.  1.
    9900012    2    1    2    0    0  0.10353827857E+02  0.26604028682E+02  0.14203676666E+02  0.59301944674E+02  0.50000001179E+02 0.  0.
         12    1    1    2    0    0 -0.10353827857E+02 -0.26604028682E+02 -0.14203676666E+02  0.31886055326E+02  0.00000000000E+00 0. -1.
         11    1    3    3    0    0  0.17615088655E+02  0.46760026121E+01 -0.35931693537E+01  0.18575984900E+02  0.51100000000E-03 0. -1.
        -11    1    3    3    0    0  0.12644612210E+00  0.27264882703E+02  0.15351292919E+02  0.31289806838E+02  0.51100000000E-03 0.  1.
        -12    1    3    3    0    0 -0.73877069203E+01 -0.53368566328E+01  0.24455531002E+01  0.94361529357E+01  0.00000000000E+00 0.  1.
</event>
<event>
 7    1  0.1134395E-011  0.5930195E+02  0.7816164E-02  0.1266605E+00
        -11   -1    0    0    0    0  0.00000000000E+00  0.00000000000E+00  0.45593999997E+02  0.45594000000E+02  0.51100000000E-03 0. -1.
         11   -1    0    0    0    0 -0.00000000000E+00 -0.00000000000E+00 -0.45593999997E+02  0.45594000000E+02  0.51100000000E-03 0.  1.
    9900012    2    1    2    0    0  0.23643867364E+02  0.55659627281E+01 -0.20656905496E+02  0.59301950548E+02  0.50000011891E+02 0.  0.
         12    1    1    2    0    0 -0.23643867364E+02 -0.55659627281E+01  0.20656905496E+02  0.31886049452E+02  0.00000000000E+00 0. -1.
         11    1    3    3    0    0  0.37745305952E+01 -0.15623606013E+02  0.17407309807E+01  0.16167074277E+02  0.51100000000E-03 0. -1.
        -11    1    3    3    0    0  0.35336095478E+01 -0.30987357195E+01 -0.10564448052E+02  0.11562703939E+02  0.51100000000E-03 0.  1.
        -12    1    3    3    0    0  0.16335727221E+02  0.24288304461E+02 -0.11833188425E+02  0.31572172331E+02  0.00000000000E+00 0.  1.
</event>
<event>
 7    1  0.1134395E-011  0.5930192E+02  0.7816164E-02  0.1266605E+00
        -11   -1    0    0    0    0  0.00000000000E+00  0.00000000000E+00  0.45593999997E+02  0.45594000000E+02  0.51100000000E-03 0.  1.
         11   -1    0    0    0    0 -0.00000000000E+00 -0.00000000000E+00 -0.45593999997E+02  0.45594000000E+02  0.51100000000E-03 0. -1.
    9900012    2    1    2    0    0  0.24154438479E+02 -0.19049254158E+02  0.83911300528E+01  0.59301920815E+02  0.49999957666E+02 0.  0.
         12    1    1    2    0    0 -0.24154438479E+02  0.19049254158E+02 -0.83911300528E+01  0.31886079185E+02  0.00000000000E+00 0. -1.
         11    1    3    3    0    0  0.23194719525E+02  0.27558715393E+01 -0.70473214482E+01  0.24397839692E+02  0.51100000000E-03 0. -1.
        -11    1    3    3    0    0 -0.50134356093E+01  0.82569168784E+00  0.94736389421E+01  0.10750169228E+02  0.51100000000E-03 0.  1.
        -12    1    3    3    0    0  0.59731545636E+01 -0.22630817385E+02  0.59648125589E+01  0.24153911895E+02  0.00000000000E+00 0.  1.
</event>
<event>
 7    1  0.1134395E-011  0.5930197E+02  0.7816164E-02  0.1266605E+00
        -11   -1    0    0    0    0  0.00000000000E+00  0.00000000000E+00  0.45593999997E+02  0.45594000000E+02  0.51100000000E-03 0. -1.
         11   -1    0    0    0    0 -0.00000000000E+00 -0.00000000000E+00 -0.45593999997E+02  0.45594000000E+02  0.51100000000E-03 0.  1.
    9900012    2    1    2    0    0 -0.15188218506E+02  0.21618234200E+02 -0.17851864877E+02  0.59301966836E+02  0.50000041598E+02 0.  0.
         12    1    1    2    0    0  0.15188218506E+02 -0.21618234200E+02  0.17851864877E+02  0.31886033164E+02  0.00000000000E+00 0. -1.
         11    1    3    3    0    0  0.11949568924E+02  0.29262923941E+00 -0.30609227992E+01  0.12338844272E+02  0.51100000000E-03 0. -1.
        -11    1    3    3    0    0  0.39568137373E+01  0.11057870662E+02 -0.26568139934E+01  0.12041243266E+02  0.51100000000E-03 0.  1.
        -12    1    3    3    0    0 -0.31094601167E+02  0.10267734299E+02 -0.12134128084E+02  0.34921879299E+02  0.00000000000E+00 0.  1.
</event>
<event>
 7    1  0.1134395E-011  0.5930196E+02  0.7816164E-02  0.1266605E+00
        -11   -1    0    0    0    0  0.00000000000E+00  0.00000000000E+00  0.45593999997E+02  0.45594000000E+02  0.51100000000E-03 0.  1.
         11   -1    0    0    0    0 -0.00000000000E+00 -0.00000000000E+00 -0.45593999997E+02  0.45594000000E+02  0.51100000000E-03 0. -1.
    9900012    2    1    2    0    0  0.15586098686E+02 -0.21810897883E+02  0.17264921580E+02  0.59301964563E+02  0.50000037451E+02 0.  0.
         12    1    1    2    0    0 -0.15586098686E+02  0.21810897883E+02 -0.17264921580E+02  0.31886035437E+02  0.00000000000E+00 0. -1.
         11    1    3    3    0    0  0.12731043786E+02  0.39921008970E+01 -0.41698072273E+01  0.13978685133E+02  0.51100000000E-03 0. -1.
        -11    1    3    3    0    0  0.88501216722E+01  0.29491928943E+01  0.66764128864E+00  0.93524401892E+01  0.51100000000E-03 0.  1.
         12    1    3    3    0    0 -0.59950667729E+01 -0.28752191674E+02  0.20767087519E+02  0.35970839241E+02  0.00000000000E+00 0. -1.
</event>
<event>
 7    1  0.1134395E-011  0.5930199E+02  0.7816164E-02  0.1266605E+00
        -11   -1    0    0    0    0  0.00000000000E+00  0.00000000000E+00  0.45593999997E+02  0.45594000000E+02  0.51100000000E-03 0.  1.
         11   -1    0    0    0    0 -0.00000000000E+00 -0.00000000000E+00 -0.45593999997E+02  0.45594000000E+02  0.51100000000E-03 0. -1.
    9900012    2    1    2    0    0  0.79135628396E+01 -0.28523569979E+02  0.11853234930E+02  0.59301988969E+02  0.50000081962E+02 0.  0.
         12    1    1    2    0    0 -0.79135628396E+01  0.28523569979E+02 -0.11853234930E+02  0.31886011031E+02  0.00000000000E+00 0. -1.
         11    1    3    3    0    0  0.16824622377E+02 -0.93478345355E+01  0.86220964254E+01  0.21090056322E+02  0.51100000000E-03 0.  1.
        -11    1    3    3    0    0  0.16401080296E+01  0.32598798657E+00 -0.11480876345E+02  0.11602014671E+02  0.51100000000E-03 0. -1.
        -12    1    3    3    0    0 -0.10551167567E+02 -0.19501723430E+02  0.14712014850E+02  0.26609917976E+02  0.00000000000E+00 0.  1.
</event>
<event>
 7    1  0.1134395E-011  0.5930193E+02  0.7816164E-02  0.1266605E+00
        -11   -1    0    0    0    0  0.00000000000E+00  0.00000000000E+00  0.45593999997E+02  0.45594000000E+02  0.51100000000E-03 0. -1.
         11   -1    0    0    0    0 -0.00000000000E+00 -0.00000000000E+00 -0.45593999997E+02  0.45594000000E+02  0.51100000000E-03 0.  1.
    9900012    2    1    2    0    0  0.17587963485E+02  0.49634578462E+01 -0.26129462771E+02  0.59301934108E+02  0.49999981909E+02 0.  0.
         12    1    1    2    0    0 -0.17587963485E+02 -0.49634578462E+01  0.26129462771E+02  0.31886065892E+02  0.00000000000E+00 0. -1.
         11    1    3    3    0    0 -0.12594963546E+02  0.36606827230E+00 -0.13328435881E+02  0.18341600694E+02  0.51100000000E-03 0. -1.
        -11    1    3    3    0    0  0.38199165027E+01  0.54368826072E+00 -0.13739488399E+02  0.14270981071E+02  0.51100000000E-03 0.  1.
        -12    1    3    3    0    0  0.26363010529E+02  0.40537013132E+01  0.93846150890E+00  0.26689352343E+02  0.00000000000E+00 0.  1.
</event>
<event>
 7    1  0.1134395E-011  0.5930194E+02  0.7816164E-02  0.1266605E+00
        -11   -1    0    0    0    0  0.00000000000E+00  0.00000000000E+00  0.45593999997E+02  0.45594000000E+02  0.51100000000E-03 0.  1.
         11   -1    0    0    0    0 -0.00000000000E+00 -0.00000000000E+00 -0.45593999997E+02  0.45594000000E+02  0.51100000000E-03 0. -1.
    9900012    2    1    2    0    0 -0.87853803819E+01  0.68909118234E+01  0.29867259384E+02  0.59301941019E+02  0.49999994513E+02 0.  0.
         12    1    1    2    0    0  0.87853803819E+01 -0.68909118234E+01 -0.29867259384E+02  0.31886058981E+02  0.00000000000E+00 0. -1.
         11    1    3    3    0    0 -0.28194923421E+01 -0.65084914334E+01 -0.86322603235E+01  0.11172551918E+02  0.51100000000E-03 0. -1.
        -11    1    3    3    0    0 -0.82047498143E+01  0.14516246968E+02  0.98411541176E+01  0.19362015912E+02  0.51100000000E-03 0.  1.
        -12    1    3    3    0    0  0.22388617745E+01 -0.11168437109E+01  0.28658365590E+02  0.28767373189E+02  0.00000000000E+00 0.  1.
</event>
<event>
 7    1  0.1134395E-011  0.5930193E+02  0.7816164E-02  0.1266605E+00
        -11   -1    0    0    0    0  0.00000000000E+00  0.00000000000E+00  0.45593999997E+02  0.45594000000E+02  0.51100000000E-03 0. -1.
         11   -1    0    0    0    0 -0.00000000000E+00 -0.00000000000E+00 -0.45593999997E+02  0.45594000000E+02  0.51100000000E-03 0.  1.
    9900012    2    1    2    0    0 -0.12715777516E+02  0.99131477561E+01 -0.27509269453E+02  0.59301930908E+02  0.49999976073E+02 0.  0.
         12    1    1    2    0    0  0.12715777516E+02 -0.99131477561E+01  0.27509269453E+02  0.31886069092E+02  0.00000000000E+00 0. -1.
         11    1    3    3    0    0 -0.26436325199E+02 -0.30360658180E+01 -0.58334100142E+01  0.27241983377E+02  0.51100000000E-03 0. -1.
        -11    1    3    3    0    0  0.95944330920E+01  0.65626343568E+01 -0.31635253097E+01  0.12046958484E+02  0.51100000000E-03 0.  1.
        -12    1    3    3    0    0  0.41261145904E+01  0.63865792172E+01 -0.18512334129E+02  0.20012989048E+02  0.00000000000E+00 0.  1.
</event>
<event>
 7    1  0.1134395E-011  0.5930193E+02  0.7816164E-02  0.1266605E+00
        -11   -1    0    0    0    0  0.00000000000E+00  0.00000000000E+00  0.45593999997E+02  0.45594000000E+02  0.51100000000E-03 0. -1.
         11   -1    0    0    0    0 -0.00000000000E+00 -0.00000000000E+00 -0.45593999997E+02  0.45594000000E+02  0.51100000000E-03 0.  1.
    9900012    2    1    2    0    0  0.17765111381E+02  0.26463470709E+02  0.89821685154E+00  0.59301933170E+02  0.49999980198E+02 0.  0.
         12    1    1    2    0    0 -0.17765111381E+02 -0.26463470709E+02 -0.89821685154E+00  0.31886066830E+02  0.00000000000E+00 0. -1.
         11    1    3    3    0    0  0.87188170414E+01  0.22575970394E+01  0.20034748491E+02  0.21966011526E+02  0.51100000000E-03 0. -1.
        -11    1    3    3    0    0  0.80562345210E+01  0.42509507530E+00 -0.31322184123E+01  0.86541558181E+01  0.51100000000E-03 0.  1.
        -12    1    3    3    0    0  0.99005981909E+00  0.23780778595E+02 -0.16004313227E+02  0.28681765826E+02  0.00000000000E+00 0.  1.
</event>
<event>
 7    1  0.1134395E-011  0.5930194E+02  0.7816164E-02  0.1266605E+00
        -11   -1    0    0    0    0  0.00000000000E+00  0.00000000000E+00  0.45593999997E+02  0.45594000000E+02  0.51100000000E-03 0.  1.
         11   -1    0    0    0    0 -0.00000000000E+00 -0.00000000000E+00 -0.45593999997E+02  0.45594000000E+02  0.51100000000E-03 0. -1.
    9900012    2    1    2    0    0  0.93665903620E+01  0.27851672660E+02  0.12380312336E+02  0.59301940060E+02  0.49999992763E+02 0.  0.
         12    1    1    2    0    0 -0.93665903620E+01 -0.27851672660E+02 -0.12380312336E+02  0.31886059940E+02  0.00000000000E+00 0. -1.
         11    1    3    3    0    0  0.19713215437E+01 -0.26708746089E+01 -0.11607362182E+01  0.35166729495E+01  0.51100000000E-03 0. -1.
        -11    1    3    3    0    0 -0.44838144945E+01 -0.88776979788E+01  0.10589109849E+02  0.14527469204E+02  0.51100000000E-03 0.  1.
         12    1    3    3    0    0  0.11879083313E+02  0.39400245248E+02  0.29519387053E+01  0.41257797906E+02  0.00000000000E+00 0. -1.
</event>
<event>
 7    1  0.1134395E-011  0.5930213E+02  0.7816164E-02  0.1266604E+00
        -11   -1    0    0    0    0  0.00000000000E+00  0.00000000000E+00  0.45593999997E+02  0.45594000000E+02  0.51100000000E-03 0. -1.
         11   -1    0    0    0    0 -0.00000000000E+00 -0.00000000000E+00 -0.45593999997E+02  0.45594000000E+02  0.51100000000E-03 0.  1.
    9900012    2    1    2    0    0  0.29154517946E+02  0.65496261388E+01  0.11127677313E+02  0.59302129750E+02  0.50000338711E+02 0.  0.
         12    1    1    2    0    0 -0.29154517946E+02 -0.65496261388E+01 -0.11127677313E+02  0.31885870250E+02  0.00000000000E+00 0. -1.
         11    1    3    3    0    0  0.11699840339E+02  0.64171702487E+01  0.21993454467E+02  0.25725053501E+02  0.51100000000E-03 0. -1.
        -11    1    3    3    0    0  0.59792009418E+01 -0.11147401885E+01  0.88453982881E+01  0.10734736174E+02  0.51100000000E-03 0.  1.
        -12    1    3    3    0    0  0.11475476666E+02  0.12471960787E+01 -0.19711175442E+02  0.22842340075E+02  0.00000000000E+00 0.  1.
</event>
<event>
 7    1  0.1134395E-011  0.5930196E+02  0.7816164E-02  0.1266605E+00
        -11   -1    0    0    0    0  0.00000000000E+00  0.00000000000E+00  0.45593999997E+02  0.45594000000E+02  0.51100000000E-03 0. -1.
         11   -1    0    0    0    0 -0.00000000000E+00 -0.00000000000E+00 -0.45593999997E+02  0.45594000000E+02  0.51100000000E-03 0.  1.
    9900012    2    1    2    0    0 -0.22531547919E+02 -0.98877925268E+01 -0.20280043501E+02  0.59301964545E+02  0.50000037418E+02 0.  0.
         12    1    1    2    0    0  0.22531547919E+02  0.98877925268E+01  0.20280043501E+02  0.31886035455E+02  0.00000000000E+00 0. -1.
         11    1    3    3    0    0 -0.28811623949E+02 -0.13473044508E+02 -0.10624767494E+00  0.31806349865E+02  0.51100000000E-03 0. -1.
        -11    1    3    3    0    0  0.20553373059E+01 -0.42109361792E+01  0.77313864395E+00  0.47491197679E+01  0.51100000000E-03 0.  1.
        -12    1    3    3    0    0  0.42247387244E+01  0.77961881600E+01 -0.20946934470E+02  0.22746494912E+02  0.00000000000E+00 0.  1.
</event>
<event>
 7    1  0.1134395E-011  0.5930196E+02  0.7816164E-02  0.1266605E+00
        -11   -1    0    0    0    0  0.00000000000E+00  0.00000000000E+00  0.45593999997E+02  0.45594000000E+02  0.51100000000E-03 0. -1.
         11   -1    0    0    0    0 -0.00000000000E+00 -0.00000000000E+00 -0.45593999997E+02  0.45594000000E+02  0.51100000000E-03 0.  1.
    9900012    2    1    2    0    0 -0.10451457295E+02 -0.18200209852E+02 -0.24004978650E+02  0.59301959194E+02  0.50000027660E+02 0.  0.
         12    1    1    2    0    0  0.10451457295E+02  0.18200209852E+02  0.24004978650E+02  0.31886040806E+02  0.00000000000E+00 0. -1.
         11    1    3    3    0    0  0.12059466006E+01  0.44689832112E+01 -0.62133602476E+01  0.77480296833E+01  0.51100000000E-03 0. -1.
        -11    1    3    3    0    0 -0.13424654765E+01 -0.17195307733E+02  0.11018806980E+02  0.20466922805E+02  0.51100000000E-03 0.  1.
         12    1    3    3    0    0 -0.10314938419E+02 -0.54738853304E+01 -0.28810425383E+02  0.31087006706E+02  0.00000000000E+00 0. -1.
</event>
<event>
 7    1  0.1134395E-011  0.5930193E+02  0.7816164E-02  0.1266605E+00
        -11   -1    0    0    0    0  0.00000000000E+00  0.00000000000E+00  0.45593999997E+02  0.45594000000E+02  0.51100000000E-03 0.  1.
         11   -1    0    0    0    0 -0.00000000000E+00 -0.00000000000E+00 -0.45593999997E+02  0.45594000000E+02  0.51100000000E-03 0. -1.
    9900012    2    1    2    0    0  0.15880761179E+02 -0.24457423436E+02 -0.12897950675E+02  0.59301933005E+02  0.49999979898E+02 0.  0.
         12    1    1    2    0    0 -0.15880761179E+02  0.24457423436E+02  0.12897950675E+02  0.31886066995E+02  0.00000000000E+00 0. -1.
         11    1    3    3    0    0  0.70277837853E+01 -0.11643048952E+02  0.16656170624E+00  0.13600664575E+02  0.51100000000E-03 0. -1.
        -11    1    3    3    0    0  0.14388307414E+02  0.93765329690E+01  0.34170283924E+01  0.17510535231E+02  0.51100000000E-03 0.  1.
         12    1    3    3    0    0 -0.55353300205E+01 -0.22190907454E+02 -0.16481540773E+02  0.28190733199E+02  0.00000000000E+00 0. -1.
</event>
<event>
 7    1  0.1134395E-011  0.5930192E+02  0.7816164E-02  0.1266605E+00
        -11   -1    0    0    0    0  0.00000000000E+00  0.00000000000E+00  0.45593999997E+02  0.45594000000E+02  0.51100000000E-03 0. -1.
         11   -1    0    0    0    0 -0.00000000000E+00 -0.00000000000E+00 -0.45593999997E+02  0.45594000000E+02  0.51100000000E-03 0.  1.
    9900012    2    1    2    0    0  0.14678127831E+02  0.17028538251E+02  0.22612027940E+02  0.59301915901E+02  0.49999948704E+02 0.  0.
         12    1    1    2    0    0 -0.14678127831E+02 -0.17028538251E+02 -0.22612027940E+02  0.31886084099E+02  0.00000000000E+00 0. -1.
         11    1    3    3    0    0 -0.89058314230E+00 -0.30241763585E+01  0.24985795685E+02  0.25183898968E+02  0.51100000000E-03 0. -1.
        -11    1    3    3    0    0 -0.40808027016E+01  0.40256269496E+01 -0.62341664190E+01  0.84689700807E+01  0.51100000000E-03 0.  1.
        -12    1    3    3    0    0  0.19649513675E+02  0.16027087660E+02  0.38603986742E+01  0.25649046852E+02  0.00000000000E+00 0.  1.
</event>
<event>
 7    1  0.1134395E-011  0.5930194E+02  0.7816164E-02  0.1266605E+00
        -11   -1    0    0    0    0  0.00000000000E+00  0.00000000000E+00  0.45593999997E+02  0.45594000000E+02  0.51100000000E-03 0.  1.
         11   -1    0    0    0    0 -0.00000000000E+00 -0.00000000000E+00 -0.45593999997E+02  0.45594000000E+02  0.51100000000E-03 0. -1.
    9900012    2    1    2    0    0  0.52637023424E+01 -0.21047730643E+02  0.23366795858E+02  0.59301942291E+02  0.49999996833E+02 0.  0.
         12    1    1    2    0    0 -0.52637023424E+01  0.21047730643E+02 -0.23366795858E+02  0.31886057709E+02  0.00000000000E+00 0. -1.
         11    1    3    3    0    0 -0.12137632868E+02 -0.20225116046E+02  0.33858965505E+01  0.23829430258E+02  0.51100000000E-03 0. -1.
        -11    1    3    3    0    0 -0.51582013019E+01  0.33172689637E+01  0.24512562569E+01  0.66045417363E+01  0.51100000000E-03 0.  1.
         12    1    3    3    0    0  0.22559536513E+02 -0.41398835607E+01  0.17529643050E+02  0.28867970296E+02  0.00000000000E+00 0. -1.
</event>
<event>
 7    1  0.1134395E-011  0.5930190E+02  0.7816164E-02  0.1266605E+00
        -11   -1    0    0    0    0  0.00000000000E+00  0.00000000000E+00  0.45593999997E+02  0.45594000000E+02  0.51100000000E-03 0.  1.
         11   -1    0    0    0    0 -0.00000000000E+00 -0.00000000000E+00 -0.45593999997E+02  0.45594000000E+02  0.51100000000E-03 0. -1.
    9900012    2    1    2    0    0  0.63864062912E+01 -0.99531765306E+01  0.29612010781E+02  0.59301904428E+02  0.49999927779E+02 0.  0.
         12    1    1    2    0    0 -0.63864062912E+01  0.99531765306E+01 -0.29612010781E+02  0.31886095572E+02  0.00000000000E+00 0. -1.
         11    1    3    3    0    0 -0.17340890643E-02 -0.13013597214E+02 -0.10049590865E+02  0.16442262383E+02  0.51100000000E-03 0. -1.
        -11    1    3    3    0    0 -0.46411740768E+00 -0.20861752968E+00 -0.11975246303E+01  0.13011501616E+01  0.51100000000E-03 0.  1.
        -12    1    3    3    0    0  0.68522577879E+01  0.32690382130E+01  0.40859126276E+02  0.41558491883E+02  0.00000000000E+00 0.  1.
</event>
<event>
 7    1  0.1134395E-011  0.5930195E+02  0.7816164E-02  0.1266605E+00
        -11   -1    0    0    0    0  0.00000000000E+00  0.00000000000E+00  0.45593999997E+02  0.45594000000E+02  0.51100000000E-03 0. -1.
         11   -1    0    0    0    0 -0.00000000000E+00 -0.00000000000E+00 -0.45593999997E+02  0.45594000000E+02  0.51100000000E-03 0.  1.
    9900012    2    1    2    0    0 -0.86238838749E+01 -0.28852324452E+02 -0.10482944491E+02  0.59301950942E+02  0.50000012609E+02 0.  0.
         12    1    1    2    0    0  0.86238838749E+01  0.28852324452E+02  0.10482944491E+02  0.31886049058E+02  0.00000000000E+00 0. -1.
         11    1    3    3    0    0  0.21921287691E+01 -0.12119478937E+02  0.78296814115E+01  0.14594214933E+02  0.51100000000E-03 0. -1.
        -11    1    3    3    0    0  0.50748059701E+01 -0.19579995476E+02  0.90475642036E-01  0.20227161555E+02  0.51100000000E-03 0.  1.
         12    1    3    3    0    0 -0.15890818614E+02  0.28471499610E+01 -0.18403101545E+02  0.24480574454E+02  0.00000000000E+00 0. -1.
</event>
<event>
 7    1  0.1134395E-011  0.5930195E+02  0.7816164E-02  0.1266605E+00
        -11   -1    0    0    0    0  0.00000000000E+00  0.00000000000E+00  0.45593999997E+02  0.45594000000E+02  0.51100000000E-03 0. -1.
         11   -1    0    0    0    0 -0.00000000000E+00 -0.00000000000E+00 -0.45593999997E+02  0.45594000000E+02  0.51100000000E-03 0.  1.
    9900012    2    1    2    0    0 -0.17875070021E+02  0.26131983595E+02 -0.37843434167E+01  0.59301953679E+02  0.50000017602E+02 0.  0.
         12    1    1    2    0    0  0.17875070021E+02 -0.26131983595E+02  0.37843434167E+01  0.31886046321E+02  0.00000000000E+00 0. -1.
         11    1    3    3    0    0 -0.36632112393E+01  0.27353738989E+02  0.55597467543E+01  0.28152387776E+02  0.51100000000E-03 0. -1.
        -11    1    3    3    0    0 -0.35090733513E+01 -0.93627107709E+01  0.52597099749E+01  0.11297720923E+02  0.51100000000E-03 0.  1.
        -12    1    3    3    0    0 -0.10702785431E+02  0.81409553778E+01 -0.14603800146E+02  0.19851844981E+02  0.00000000000E+00 0.  1.
</event>
<event>
 7    1  0.1134395E-011  0.5930190E+02  0.7816164E-02  0.1266605E+00
        -11   -1    0    0    0    0  0.00000000000E+00  0.00000000000E+00  0.45593999997E+02  0.45594000000E+02  0.51100000000E-03 0.  1.
         11   -1    0    0    0    0 -0.00000000000E+00 -0.00000000000E+00 -0.45593999997E+02  0.45594000000E+02  0.51100000000E-03 0. -1.
    9900012    2    1    2    0    0 -0.16990861546E+00 -0.30168988751E+02  0.10321177149E+02  0.59301898813E+02  0.49999917538E+02 0.  0.
         12    1    1    2    0    0  0.16990861546E+00  0.30168988751E+02 -0.10321177149E+02  0.31886101187E+02  0.00000000000E+00 0. -1.
         11    1    3    3    0    0 -0.36398064560E+01 -0.12170066789E+02 -0.36208089130E+01  0.13208670415E+02  0.51100000000E-03 0. -1.
        -11    1    3    3    0    0  0.13010271239E+02  0.18883608764E+01 -0.76636499322E+01  0.15217246632E+02  0.51100000000E-03 0.  1.
         12    1    3    3    0    0 -0.95403733985E+01 -0.19887282838E+02  0.21605635994E+02  0.30875981766E+02  0.00000000000E+00 0. -1.
</event>
<event>
 7    1  0.1134395E-011  0.5930196E+02  0.7816164E-02  0.1266605E+00
        -11   -1    0    0    0    0  0.00000000000E+00  0.00000000000E+00  0.45593999997E+02  0.45594000000E+02  0.51100000000E-03 0.  1.
         11   -1    0    0    0    0 -0.00000000000E+00 -0.00000000000E+00 -0.45593999997E+02  0.45594000000E+02  0.51100000000E-03 0. -1.
    9900012    2    1    2    0    0  0.11262321950E+02  0.11455133538E+02  0.27543776870E+02  0.59301958786E+02  0.50000026915E+02 0.  0.
         12    1    1    2    0    0 -0.11262321950E+02 -0.11455133538E+02 -0.27543776870E+02  0.31886041214E+02  0.00000000000E+00 0. -1.
         11    1    3    3    0    0 -0.11229855277E+02 -0.44603569007E+01  0.99540307367E-01  0.12083639425E+02  0.51100000000E-03 0. -1.
        -11    1    3    3    0    0 -0.14976337497E+01  0.12339309755E+02  0.30088427854E+01  0.12788846986E+02  0.51100000000E-03 0.  1.
        -12    1    3    3    0    0  0.23989810976E+02  0.35761806844E+01  0.24435393777E+02  0.34429472375E+02  0.00000000000E+00 0.  1.
</event>
<event>
 7    1  0.1134395E-011  0.5930193E+02  0.7816164E-02  0.1266605E+00
        -11   -1    0    0    0    0  0.00000000000E+00  0.00000000000E+00  0.45593999997E+02  0.45594000000E+02  0.51100000000E-03 0.  1.
         11   -1    0    0    0    0 -0.00000000000E+00 -0.00000000000E+00 -0.45593999997E+02  0.45594000000E+02  0.51100000000E-03 0. -1.
    9900012    2    1    2    0    0 -0.13048873457E+02 -0.10949639125E+02  0.26954662046E+02  0.59301929350E+02  0.49999973232E+02 0.  0.
         12    1    1    2    0    0  0.13048873457E+02  0.10949639125E+02 -0.26954662046E+02  0.31886070650E+02  0.00000000000E+00 0. -1.
         11    1    3    3    0    0  0.34217019975E+01  0.12704994485E+01  0.81005157571E+01  0.88848505446E+01  0.51100000000E-03 0. -1.
        -11    1    3    3    0    0 -0.18274811720E+02 -0.24649681109E+02  0.21644851626E+02  0.37550967023E+02  0.51100000000E-03 0.  1.
         12    1    3    3    0    0  0.18042362658E+01  0.12429542535E+02 -0.27907053368E+01  0.12866111783E+02  0.00000000000E+00 0. -1.
</event>
<event>
 7    1  0.1134395E-011  0.5930194E+02  0.7816164E-02  0.1266605E+00
        -11   -1    0    0    0    0  0.00000000000E+00  0.00000000000E+00  0.45593999997E+02  0.45594000000E+02  0.51100000000E-03 0.  1.
         11   -1    0    0    0    0 -0.00000000000E+00 -0.00000000000E+00 -0.45593999997E+02  0.45594000000E+02  0.51100000000E-03 0. -1.
    9900012    2    1    2    0    0 -0.31238342005E+02 -0.35708149339E+01  0.53043259733E+01  0.59301943415E+02  0.49999998883E+02 0.  0.
         12    1    1    2    0    0  0.31238342005E+02  0.35708149339E+01 -0.53043259733E+01  0.31886056585E+02  0.00000000000E+00 0. -1.
         11    1    3    3    0    0 -0.81469362721E+01  0.10764129477E+02  0.73314347344E+00  0.13519487921E+02  0.51100000000E-03 0. -1.
        -11    1    3    3    0    0 -0.26415476529E+02 -0.76745552258E+01  0.16238225715E+02  0.31943014460E+02  0.51100000000E-03 0.  1.
        -12    1    3    3    0    0  0.33240707966E+01 -0.66603891850E+01 -0.11667043215E+02  0.13839441034E+02  0.00000000000E+00 0.  1.
</event>
<event>
 7    1  0.1134395E-011  0.5930196E+02  0.7816164E-02  0.1266605E+00
        -11   -1    0    0    0    0  0.00000000000E+00  0.00000000000E+00  0.45593999997E+02  0.45594000000E+02  0.51100000000E-03 0. -1.
         11   -1    0    0    0    0 -0.00000000000E+00 -0.00000000000E+00 -0.45593999997E+02  0.45594000000E+02  0.51100000000E-03 0.  1.
    9900012    2    1    2    0    0  0.12896680364E+02  0.23422573076E+02 -0.17371771038E+02  0.59301957240E+02  0.50000024096E+02 0.  0.
         12    1    1    2    0    0 -0.12896680364E+02 -0.23422573076E+02  0.17371771038E+02  0.31886042760E+02  0.00000000000E+00 0. -1.
         11    1    3    3    0    0  0.10341377310E+02  0.80796757384E+00  0.28360697073E+01  0.10753612784E+02  0.51100000000E-03 0. -1.
        -11    1    3    3    0    0  0.14872236268E+02 -0.16672674982E+01 -0.56661125471E+00  0.14976122365E+02  0.51100000000E-03 0.  1.
         12    1    3    3    0    0 -0.12316933214E+02  0.24281873000E+02 -0.19641229491E+02  0.33572222091E+02  0.00000000000E+00 0. -1.
</event>
<event>
 7    1  0.1191767E-011  0.5930197E+02  0.7816164E-02  0.1266605E+00
        -11   -1    0    0    0    0  0.00000000000E+00  0.00000000000E+00  0.45593999997E+02  0.45594000000E+02  0.51100000000E-03 0.  1.
         11   -1    0    0    0    0 -0.00000000000E+00 -0.00000000000E+00 -0.45593999997E+02  0.45594000000E+02  0.51100000000E-03 0. -1.
    9900012    2    1    2    0    0  0.10922030012E+02  0.25499758707E+02 -0.15722301087E+02  0.59301965672E+02  0.50000039474E+02 0.  0.
         12    1    1    2    0    0 -0.10922030012E+02 -0.25499758707E+02  0.15722301087E+02  0.31886034328E+02  0.00000000000E+00 0. -1.
         11    1    3    3    0    0 -0.90875703317E+01  0.87139014653E+00  0.48217673464E+01  0.10324373876E+02  0.51100000000E-03 0. -1.
        -11    1    3    3    0    0  0.13102670690E+01  0.82181718351E+01 -0.22531698386E+02  0.24019420903E+02  0.51100000000E-03 0.  1.
        -12    1    3    3    0    0  0.18699333275E+02  0.16410196726E+02  0.19876299530E+01  0.24958170893E+02  0.00000000000E+00 0.  1.
</event>
<event>
 7    1  0.1134395E-011  0.5930197E+02  0.7816164E-02  0.1266605E+00
        -11   -1    0    0    0    0  0.00000000000E+00  0.00000000000E+00  0.45593999997E+02  0.45594000000E+02  0.51100000000E-03 0.  1.
         11   -1    0    0    0    0 -0.00000000000E+00 -0.00000000000E+00 -0.45593999997E+02  0.45594000000E+02  0.51100000000E-03 0. -1.
    9900012    2    1    2    0    0 -0.16506947688E+00  0.10947215303E+02  0.29947451976E+02  0.59301974053E+02  0.50000054758E+02 0.  0.
         12    1    1    2    0    0  0.16506947688E+00 -0.10947215303E+02 -0.29947451976E+02  0.31886025947E+02  0.00000000000E+00 0. -1.
         11    1    3    3    0    0 -0.50896642953E+01 -0.14449051156E+01  0.21474225312E+02  0.22116391805E+02  0.51100000000E-03 0. -1.
        -11    1    3    3    0    0  0.75601230890E+01 -0.10290312614E+02 -0.16847744092E+00  0.12770057937E+02  0.51100000000E-03 0.  1.
        -12    1    3    3    0    0 -0.26355282707E+01  0.22682433033E+02  0.86417041052E+01  0.24415524311E+02  0.00000000000E+00 0.  1.
</event>
<event>
 7    1  0.1134395E-011  0.5930204E+02  0.7816164E-02  0.1266604E+00
        -11   -1    0    0    0    0  0.00000000000E+00  0.00000000000E+00  0.45593999997E+02  0.45594000000E+02  0.51100000000E-03 0.  1.
         11   -1    0    0    0    0 -0.00000000000E+00 -0.00000000000E+00 -0.45593999997E+02  0.45594000000E+02  0.51100000000E-03 0. -1.
    9900012    2    1    2    0    0 -0.10462129224E+02 -0.16964928559E+01  0.30072911318E+02  0.59302043357E+02  0.50000181152E+02 0.  0.
         12    1    1    2    0    0  0.10462129224E+02  0.16964928559E+01 -0.30072911318E+02  0.31885956643E+02  0.00000000000E+00 0. -1.
         11    1    3    3    0    0  0.13595567919E+01 -0.65070372609E+00 -0.26956871941E+00  0.15311686926E+01  0.51100000000E-03 0. -1.
        -11    1    3    3    0    0 -0.11234162315E+01 -0.41241092604E+00 -0.13034640271E+02  0.13089461183E+02  0.51100000000E-03 0.  1.
        -12    1    3    3    0    0 -0.10698269785E+02 -0.63337820376E+00  0.43377120309E+02  0.44681413481E+02  0.00000000000E+00 0.  1.
</event>
<event>
 7    1  0.1134395E-011  0.5930197E+02  0.7816164E-02  0.1266605E+00
        -11   -1    0    0    0    0  0.00000000000E+00  0.00000000000E+00  0.45593999997E+02  0.45594000000E+02  0.51100000000E-03 0.  1.
         11   -1    0    0    0    0 -0.00000000000E+00 -0.00000000000E+00 -0.45593999997E+02  0.45594000000E+02  0.51100000000E-03 0. -1.
    9900012    2    1    2    0    0 -0.11376583564E+02  0.29768449796E+02 -0.10638513844E+01  0.59301968002E+02  0.50000043722E+02 0.  0.
         12    1    1    2    0    0  0.11376583564E+02 -0.29768449796E+02  0.10638513844E+01  0.31886031998E+02  0.00000000000E+00 0. -1.
         11    1    3    3    0    0 -0.12934961889E+02  0.79165453981E+01 -0.10904375252E+02  0.18678606212E+02  0.51100000000E-03 0. -1.
        -11    1    3    3    0    0  0.95065692079E+01 -0.52227441904E+01  0.34822726780E+00  0.10852335116E+02  0.51100000000E-03 0.  1.
         12    1    3    3    0    0 -0.79481908830E+01  0.27074648588E+02  0.94922965995E+01  0.29771026674E+02  0.00000000000E+00 0. -1.
</event>
<event>
 7    1  0.1134395E-011  0.5930190E+02  0.7816164E-02  0.1266605E+00
        -11   -1    0    0    0    0  0.00000000000E+00  0.00000000000E+00  0.45593999997E+02  0.45594000000E+02  0.51100000000E-03 0. -1.
         11   -1    0    0    0    0 -0.00000000000E+00 -0.00000000000E+00 -0.45593999997E+02  0.45594000000E+02  0.51100000000E-03 0.  1.
    9900012    2    1    2    0    0 -0.26033597664E+02  0.11718658561E+02 -0.14200287644E+02  0.59301900599E+02  0.49999920797E+02 0.  0.
         12    1    1    2    0    0  0.26033597664E+02 -0.11718658561E+02  0.14200287644E+02  0.31886099401E+02  0.00000000000E+00 0. -1.
         11    1    3    3    0    0  0.21887091740E+01 -0.11262129872E+02 -0.17942084024E+01  0.11612286646E+02  0.51100000000E-03 0. -1.
        -11    1    3    3    0    0 -0.85350237992E+01 -0.63854560602E+01 -0.21109072706E+01  0.10866306185E+02  0.51100000000E-03 0.  1.
        -12    1    3    3    0    0 -0.19687283039E+02  0.29366244493E+02 -0.10295171971E+02  0.36823307768E+02  0.00000000000E+00 0.  1.
</event>
<event>
 7    1  0.1134395E-011  0.5930201E+02  0.7816164E-02  0.1266605E+00
        -11   -1    0    0    0    0  0.00000000000E+00  0.00000000000E+00  0.45593999997E+02  0.45594000000E+02  0.51100000000E-03 0.  1.
         11   -1    0    0    0    0 -0.00000000000E+00 -0.00000000000E+00 -0.45593999997E+02  0.45594000000E+02  0.51100000000E-03 0. -1.
    9900012    2    1    2    0    0 -0.11067834602E+02 -0.16943832114E+02  0.24639929234E+02  0.59302007431E+02  0.50000115631E+02 0.  0.
         12    1    1    2    0    0  0.11067834602E+02  0.16943832114E+02 -0.24639929234E+02  0.31885992569E+02  0.00000000000E+00 0. -1.
         11    1    3    3    0    0 -0.40463044767E+01 -0.81409648643E+01 -0.56322251646E+01  0.10694384012E+02  0.51100000000E-03 0. -1.
        -11    1    3    3    0    0  0.84541385101E+01 -0.17928074402E+02  0.18610441332E+02  0.27188910176E+02  0.51100000000E-03 0.  1.
         12    1    3    3    0    0 -0.15475668635E+02  0.91252071528E+01  0.11661713067E+02  0.21418713242E+02  0.00000000000E+00 0. -1.
</event>
<event>
 7    1  0.1134395E-011  0.5930198E+02  0.7816164E-02  0.1266605E+00
        -11   -1    0    0    0    0  0.00000000000E+00  0.00000000000E+00  0.45593999997E+02  0.45594000000E+02  0.51100000000E-03 0.  1.
         11   -1    0    0    0    0 -0.00000000000E+00 -0.00000000000E+00 -0.45593999997E+02  0.45594000000E+02  0.51100000000E-03 0. -1.
    9900012    2    1    2    0    0 -0.10579353500E-01 -0.20557864061E+02  0.24374014096E+02  0.59301977203E+02  0.50000060503E+02 0.  0.
         12    1    1    2    0    0  0.10579353500E-01  0.20557864061E+02 -0.24374014096E+02  0.31886022797E+02  0.00000000000E+00 0. -1.
         11    1    3    3    0    0 -0.11039042338E+02 -0.20051384233E+02  0.18102985366E+02  0.29182812489E+02  0.51100000000E-03 0. -1.
        -11    1    3    3    0    0 -0.44150925095E+00  0.94403889143E+01  0.10727204421E+02  0.14296460689E+02  0.51100000000E-03 0.  1.
         12    1    3    3    0    0  0.11469972235E+02 -0.99468687428E+01 -0.44561756909E+01  0.15822704025E+02  0.00000000000E+00 0. -1.
</event>
<event>
 7    1  0.1134395E-011  0.5930196E+02  0.7816164E-02  0.1266605E+00
        -11   -1    0    0    0    0  0.00000000000E+00  0.00000000000E+00  0.45593999997E+02  0.45594000000E+02  0.51100000000E-03 0.  1.
         11   -1    0    0    0    0 -0.00000000000E+00 -0.00000000000E+00 -0.45593999997E+02  0.45594000000E+02  0.51100000000E-03 0. -1.
    9900012    2    1    2    0    0  0.25246889018E+02 -0.15605400244E+02  0.11652708001E+02  0.59301960334E+02  0.50000029739E+02 0.  0.
         12    1    1    2    0    0 -0.25246889018E+02  0.15605400244E+02 -0.11652708001E+02  0.31886039666E+02  0.00000000000E+00 0. -1.
         11    1    3    3    0    0 -0.41970442149E+01 -0.12470922455E+01  0.23256537131E+01  0.49577297894E+01  0.51100000000E-03 0. -1.
        -11    1    3    3    0    0 -0.19642755935E+01 -0.18404193580E+02  0.12774925678E+02  0.22489362959E+02  0.51100000000E-03 0.  1.
        -12    1    3    3    0    0  0.31408208826E+02  0.40458855821E+01 -0.34478713905E+01  0.31854867586E+02  0.00000000000E+00 0.  1.
</event>
<event>
 7    1  0.1134395E-011  0.5930194E+02  0.7816164E-02  0.1266605E+00
        -11   -1    0    0    0    0  0.00000000000E+00  0.00000000000E+00  0.45593999997E+02  0.45594000000E+02  0.51100000000E-03 0.  1.
         11   -1    0    0    0    0 -0.00000000000E+00 -0.00000000000E+00 -0.45593999997E+02  0.45594000000E+02  0.51100000000E-03 0. -1.
    9900012    2    1    2    0    0 -0.27026169295E+02  0.12902165085E+01  0.16871340137E+02  0.59301943432E+02  0.49999998914E+02 0.  0.
         12    1    1    2    0    0  0.27026169295E+02 -0.12902165085E+01 -0.16871340137E+02  0.31886056568E+02  0.00000000000E+00 0. -1.
         11    1    3    3    0    0 -0.10991123130E+02  0.14327212583E+01 -0.55127397208E+01  0.12379328631E+02  0.51100000000E-03 0. -1.
        -11    1    3    3    0    0 -0.25806402841E+02  0.82292090558E+01  0.94752441025E+01  0.28696176755E+02  0.51100000000E-03 0.  1.
         12    1    3    3    0    0  0.97713566756E+01 -0.83717138056E+01  0.12908835755E+02  0.18226438047E+02  0.00000000000E+00 0. -1.
</event>
<event>
 7    1  0.1134395E-011  0.5930194E+02  0.7816164E-02  0.1266605E+00
        -11   -1    0    0    0    0  0.00000000000E+00  0.00000000000E+00  0.45593999997E+02  0.45594000000E+02  0.51100000000E-03 0.  1.
         11   -1    0    0    0    0 -0.00000000000E+00 -0.00000000000E+00 -0.45593999997E+02  0.45594000000E+02  0.51100000000E-03 0. -1.
    9900012    2    1    2    0    0  0.89062944263E+01  0.30037604781E+02 -0.59279762326E+01  0.59301942175E+02  0.49999996621E+02 0.  0.
         12    1    1    2    0    0 -0.89062944263E+01 -0.30037604781E+02  0.59279762326E+01  0.31886057825E+02  0.00000000000E+00 0. -1.
         11    1    3    3    0    0  0.27471706781E+01  0.14910684371E+02  0.35981657614E+01  0.15582754964E+02  0.51100000000E-03 0. -1.
        -11    1    3    3    0    0  0.36572420724E+01  0.18685959870E+02  0.11502547278E+02  0.22245204202E+02  0.51100000000E-03 0.  1.
         12    1    3    3    0    0  0.25018816757E+01 -0.35590394603E+01 -0.21028689272E+02  0.21473983009E+02  0.00000000000E+00 0. -1.
</event>
<event>
 7    1  0.1134395E-011  0.5930193E+02  0.7816164E-02  0.1266605E+00
        -11   -1    0    0    0    0  0.00000000000E+00  0.00000000000E+00  0.45593999997E+02  0.45594000000E+02  0.51100000000E-03 0.  1.
         11   -1    0    0    0    0 -0.00000000000E+00 -0.00000000000E+00 -0.45593999997E+02  0.45594000000E+02  0.51100000000E-03 0. -1.
    9900012    2    1    2    0    0 -0.13084772362E+02  0.27532061417E+02 -0.93539058521E+01  0.59301933634E+02  0.49999981044E+02 0.  0.
         12    1    1    2    0    0  0.13084772362E+02 -0.27532061417E+02  0.93539058521E+01  0.31886066366E+02  0.00000000000E+00 0. -1.
         11    1    3    3    0    0 -0.15860059400E+00 -0.47008776394E+01 -0.42431585548E+01  0.63346507016E+01  0.51100000000E-03 0. -1.
        -11    1    3    3    0    0  0.44105632691E+01 -0.23835266365E+01  0.10175572135E+02  0.11343568050E+02  0.51100000000E-03 0.  1.
        -12    1    3    3    0    0 -0.17336735037E+02  0.34616465693E+02 -0.15286319432E+02  0.41623714882E+02  0.00000000000E+00 0.  1.
</event>
<event>
 7    1  0.1134395E-011  0.5930210E+02  0.7816164E-02  0.1266604E+00
        -11   -1    0    0    0    0  0.00000000000E+00  0.00000000000E+00  0.45593999997E+02  0.45594000000E+02  0.51100000000E-03 0.  1.
         11   -1    0    0    0    0 -0.00000000000E+00 -0.00000000000E+00 -0.45593999997E+02  0.45594000000E+02  0.51100000000E-03 0. -1.
    9900012    2    1    2    0    0 -0.36522117168E+01 -0.17385104194E+02  0.26478857438E+02  0.59302103596E+02  0.50000291013E+02 0.  0.
         12    1    1    2    0    0  0.36522117168E+01  0.17385104194E+02 -0.26478857438E+02  0.31885896404E+02  0.00000000000E+00 0. -1.
         11    1    3    3    0    0  0.76097265615E+01 -0.10618785667E+01  0.14466804069E+02  0.16380596590E+02  0.51100000000E-03 0. -1.
        -11    1    3    3    0    0  0.34199149292E+01 -0.22804186420E+02  0.13638584626E+02  0.26790627602E+02  0.51100000000E-03 0.  1.
         12    1    3    3    0    0 -0.14681853208E+02  0.64809607933E+01 -0.16265312571E+01  0.16130879404E+02  0.00000000000E+00 0. -1.
</event>
<event>
 7    1  0.1134395E-011  0.5930198E+02  0.7816164E-02  0.1266605E+00
        -11   -1    0    0    0    0  0.00000000000E+00  0.00000000000E+00  0.45593999997E+02  0.45594000000E+02  0.51100000000E-03 0. -1.
         11   -1    0    0    0    0 -0.00000000000E+00 -0.00000000000E+00 -0.45593999997E+02  0.45594000000E+02  0.51100000000E-03 0.  1.
    9900012    2    1    2    0    0 -0.57934450387E+01  0.25071591694E+02  0.18830011187E+02  0.59301983680E+02  0.50000072316E+02 0.  0.
         12    1    1    2    0    0  0.57934450387E+01 -0.25071591694E+02 -0.18830011187E+02  0.31886016320E+02  0.00000000000E+00 0. -1.
         11    1    3    3    0    0  0.33369490178E+00  0.19294887405E+02 -0.11381690969E+01  0.19331307804E+02  0.51100000000E-03 0.  1.
        -11    1    3    3    0    0 -0.16744492817E+02  0.11723111356E+02  0.57049182234E+01  0.21221580332E+02  0.51100000000E-03 0. -1.
         12    1    3    3    0    0  0.10617352876E+02 -0.59464070681E+01  0.14263262060E+02  0.18749095544E+02  0.00000000000E+00 0. -1.
</event>
<event>
 7    1  0.1134395E-011  0.5930192E+02  0.7816164E-02  0.1266605E+00
        -11   -1    0    0    0    0  0.00000000000E+00  0.00000000000E+00  0.45593999997E+02  0.45594000000E+02  0.51100000000E-03 0. -1.
         11   -1    0    0    0    0 -0.00000000000E+00 -0.00000000000E+00 -0.45593999997E+02  0.45594000000E+02  0.51100000000E-03 0.  1.
    9900012    2    1    2    0    0 -0.16740941694E+02  0.25638383766E+02 -0.88958704102E+01  0.59301915867E+02  0.49999948642E+02 0.  0.
         12    1    1    2    0    0  0.16740941694E+02 -0.25638383766E+02  0.88958704102E+01  0.31886084133E+02  0.00000000000E+00 0. -1.
         11    1    3    3    0    0 -0.14717688330E+02  0.68601097059E+01 -0.97267307853E+01  0.18928305444E+02  0.51100000000E-03 0. -1.
        -11    1    3    3    0    0  0.28931648297E+00  0.28895070001E+02  0.47425793869E+01  0.29283115167E+02  0.51100000000E-03 0.  1.
         12    1    3    3    0    0 -0.23125698476E+01 -0.10116795940E+02 -0.39117190119E+01  0.11090495256E+02  0.00000000000E+00 0. -1.
</event>
<event>
 7    1  0.1134395E-011  0.5930202E+02  0.7816164E-02  0.1266605E+00
        -11   -1    0    0    0    0  0.00000000000E+00  0.00000000000E+00  0.45593999997E+02  0.45594000000E+02  0.51100000000E-03 0. -1.
         11   -1    0    0    0    0 -0.00000000000E+00 -0.00000000000E+00 -0.45593999997E+02  0.45594000000E+02  0.51100000000E-03 0.  1.
    9900012    2    1    2    0    0 -0.12280579896E+02  0.25283591109E+02 -0.15054678878E+02  0.59302015962E+02  0.50000131191E+02 0.  0.
         12    1    1    2    0    0  0.12280579896E+02 -0.25283591109E+02  0.15054678878E+02  0.31885984038E+02  0.00000000000E+00 0. -1.
         11    1    3    3    0    0 -0.57163537767E+01 -0.11180626077E+00  0.14148435241E+02  0.15259994140E+02  0.51100000000E-03 0. -1.
        -11    1    3    3    0    0  0.36421588795E+01 -0.16897222425E+01 -0.32364687086E+01  0.51570546364E+01  0.51100000000E-03 0.  1.
        -12    1    3    3    0    0 -0.10206384999E+02  0.27085119612E+02 -0.25966645410E+02  0.38884967185E+02  0.00000000000E+00 0.  1.
</event>
<event>
 7    1  0.1134395E-011  0.5930189E+02  0.7816164E-02  0.1266605E+00
        -11   -1    0    0    0    0  0.00000000000E+00  0.00000000000E+00  0.45593999997E+02  0.45594000000E+02  0.51100000000E-03 0.  1.
         11   -1    0    0    0    0 -0.00000000000E+00 -0.00000000000E+00 -0.45593999997E+02  0.45594000000E+02  0.51100000000E-03 0. -1.
    9900012    2    1    2    0    0  0.31861794063E+02 -0.10463644843E+01 -0.67480089341E+00  0.59301887729E+02  0.49999897324E+02 0.  0.
         12    1    1    2    0    0 -0.31861794063E+02  0.10463644843E+01  0.67480089341E+00  0.31886112271E+02  0.00000000000E+00 0. -1.
         11    1    3    3    0    0 -0.22057541114E+01  0.21167737966E+01  0.78226569792E+01  0.83988121173E+01  0.51100000000E-03 0.  1.
        -11    1    3    3    0    0  0.31819646242E+00  0.10778727631E+02 -0.95035056676E+01  0.14373546485E+02  0.51100000000E-03 0. -1.
         12    1    3    3    0    0  0.33749351712E+02 -0.13941865912E+02  0.10060477950E+01  0.36529529127E+02  0.00000000000E+00 0. -1.
</event>
<event>
 7    1  0.1134395E-011  0.5930193E+02  0.7816164E-02  0.1266605E+00
        -11   -1    0    0    0    0  0.00000000000E+00  0.00000000000E+00  0.45593999997E+02  0.45594000000E+02  0.51100000000E-03 0.  1.
         11   -1    0    0    0    0 -0.00000000000E+00 -0.00000000000E+00 -0.45593999997E+02  0.45594000000E+02  0.51100000000E-03 0. -1.
    9900012    2    1    2    0    0 -0.21071206041E+02 -0.21771444547E+02  0.99362904831E+01  0.59301931094E+02  0.49999976412E+02 0.  0.
         12    1    1    2    0    0  0.21071206041E+02  0.21771444547E+02 -0.99362904831E+01  0.31886068906E+02  0.00000000000E+00 0. -1.
         11    1    3    3    0    0  0.38286038708E+01  0.46772141614E+01  0.67260683674E+01  0.90429273941E+01  0.51100000000E-03 0. -1.
        -11    1    3    3    0    0  0.80238003814E+01 -0.14687085136E+01  0.36324654238E+01  0.89293495046E+01  0.51100000000E-03 0.  1.
         12    1    3    3    0    0 -0.32923610293E+02 -0.24979950195E+02 -0.42224330819E+00  0.41329654195E+02  0.00000000000E+00 0. -1.
</event>
<event>
 7    1  0.1134395E-011  0.5930194E+02  0.7816164E-02  0.1266605E+00
        -11   -1    0    0    0    0  0.00000000000E+00  0.00000000000E+00  0.45593999997E+02  0.45594000000E+02  0.51100000000E-03 0.  1.
         11   -1    0    0    0    0 -0.00000000000E+00 -0.00000000000E+00 -0.45593999997E+02  0.45594000000E+02  0.51100000000E-03 0. -1.
    9900012    2    1    2    0    0  0.15625379438E+02 -0.21930176335E+02  0.17077351873E+02  0.59301936216E+02  0.49999985753E+02 0.  0.
         12    1    1    2    0    0 -0.15625379438E+02  0.21930176335E+02 -0.17077351873E+02  0.31886063784E+02  0.00000000000E+00 0. -1.
         11    1    3    3    0    0 -0.52941576030E+01 -0.10736770005E+02 -0.39306564509E+01  0.12599856954E+02  0.51100000000E-03 0. -1.
        -11    1    3    3    0    0 -0.65658299476E+00  0.10185205600E+02  0.83713978250E+00  0.10240620959E+02  0.51100000000E-03 0.  1.
        -12    1    3    3    0    0  0.21576120036E+02 -0.21378611930E+02  0.20170868542E+02  0.36461458303E+02  0.00000000000E+00 0.  1.
</event>
<event>
 7    1  0.1134395E-011  0.5930193E+02  0.7816164E-02  0.1266605E+00
        -11   -1    0    0    0    0  0.00000000000E+00  0.00000000000E+00  0.45593999997E+02  0.45594000000E+02  0.51100000000E-03 0.  1.
         11   -1    0    0    0    0 -0.00000000000E+00 -0.00000000000E+00 -0.45593999997E+02  0.45594000000E+02  0.51100000000E-03 0. -1.
    9900012    2    1    2    0    0 -0.20950586108E+02  0.16688400438E+02 -0.17300049304E+02  0.59301929791E+02  0.49999974035E+02 0.  0.
         12    1    1    2    0    0  0.20950586108E+02 -0.16688400438E+02  0.17300049304E+02  0.31886070209E+02  0.00000000000E+00 0. -1.
         11    1    3    3    0    0 -0.16050717305E+02 -0.13611303943E+01 -0.39043855249E+01  0.16574752745E+02  0.51100000000E-03 0. -1.
        -11    1    3    3    0    0  0.44352998276E+01  0.27135990240E+02 -0.80960451697E+01  0.28663213332E+02  0.51100000000E-03 0.  1.
         12    1    3    3    0    0 -0.93351686310E+01 -0.90864594080E+01 -0.52996186090E+01  0.14063963714E+02  0.00000000000E+00 0. -1.
</event>
<event>
 7    1  0.1134395E-011  0.5930196E+02  0.7816164E-02  0.1266605E+00
        -11   -1    0    0    0    0  0.00000000000E+00  0.00000000000E+00  0.45593999997E+02  0.45594000000E+02  0.51100000000E-03 0.  1.
         11   -1    0    0    0    0 -0.00000000000E+00 -0.00000000000E+00 -0.45593999997E+02  0.45594000000E+02  0.51100000000E-03 0. -1.
    9900012    2    1    2    0    0  0.26461502387E+02 -0.17738662861E+02  0.13594813360E+01  0.59301961391E+02  0.50000031667E+02 0.  0.
         12    1    1    2    0    0 -0.26461502387E+02  0.17738662861E+02 -0.13594813360E+01  0.31886038609E+02  0.00000000000E+00 0. -1.
         11    1    3    3    0    0  0.21245901500E+02 -0.23356796403E+02 -0.13816704114E+02  0.34464903621E+02  0.51100000000E-03 0. -1.
        -11    1    3    3    0    0 -0.48267515346E+00 -0.81743023273E+00 -0.38467851409E+01  0.39621867284E+01  0.51100000000E-03 0.  1.
        -12    1    3    3    0    0  0.56982760402E+01  0.64355637750E+01  0.19022970591E+02  0.20874871042E+02  0.00000000000E+00 0.  1.
</event>
<event>
 7    1  0.1134395E-011  0.5930192E+02  0.7816164E-02  0.1266605E+00
        -11   -1    0    0    0    0  0.00000000000E+00  0.00000000000E+00  0.45593999997E+02  0.45594000000E+02  0.51100000000E-03 0.  1.
         11   -1    0    0    0    0 -0.00000000000E+00 -0.00000000000E+00 -0.45593999997E+02  0.45594000000E+02  0.51100000000E-03 0. -1.
    9900012    2    1    2    0    0  0.23318786620E+01  0.78811631861E+01  0.30808627819E+02  0.59301922484E+02  0.49999960709E+02 0.  0.
         12    1    1    2    0    0 -0.23318786620E+01 -0.78811631861E+01 -0.30808627819E+02  0.31886077516E+02  0.00000000000E+00 0. -1.
         11    1    3    3    0    0  0.98896691797E+01 -0.68062315168E+00  0.69846375097E+01  0.12126580959E+02  0.51100000000E-03 0. -1.
        -11    1    3    3    0    0 -0.39567875786E+01 -0.23518816125E+01  0.32469469536E+02  0.32794114826E+02  0.51100000000E-03 0.  1.
        -12    1    3    3    0    0 -0.36010029391E+01  0.10913667950E+02 -0.86454792262E+01  0.14381226698E+02  0.00000000000E+00 0.  1.
</event>
<event>
 7    1  0.1134395E-011  0.5930193E+02  0.7816164E-02  0.1266605E+00
        -11   -1    0    0    0    0  0.00000000000E+00  0.00000000000E+00  0.45593999997E+02  0.45594000000E+02  0.51100000000E-03 0. -1.
         11   -1    0    0    0    0 -0.00000000000E+00 -0.00000000000E+00 -0.45593999997E+02  0.45594000000E+02  0.51100000000E-03 0.  1.
    9900012    2    1    2    0    0 -0.93523983577E+01 -0.12683534580E+02 -0.27719701465E+02  0.59301933235E+02  0.49999980316E+02 0.  0.
         12    1    1    2    0    0  0.93523983577E+01  0.12683534580E+02  0.27719701465E+02  0.31886066765E+02  0.00000000000E+00 0. -1.
         11    1    3    3    0    0 -0.16650971011E+01 -0.52505163278E+01  0.83505332832E+01  0.10003593176E+02  0.51100000000E-03 0. -1.
        -11    1    3    3    0    0 -0.30619471005E+01  0.24846063980E+01  0.52430102981E+01  0.65603312604E+01  0.51100000000E-03 0.  1.
        -12    1    3    3    0    0 -0.46253541561E+01 -0.99176246503E+01 -0.41313245046E+02  0.42738008798E+02  0.00000000000E+00 0.  1.
</event>
<event>
 7    1  0.1134395E-011  0.5930197E+02  0.7816164E-02  0.1266605E+00
        -11   -1    0    0    0    0  0.00000000000E+00  0.00000000000E+00  0.45593999997E+02  0.45594000000E+02  0.51100000000E-03 0.  1.
         11   -1    0    0    0    0 -0.00000000000E+00 -0.00000000000E+00 -0.45593999997E+02  0.45594000000E+02  0.51100000000E-03 0. -1.
    9900012    2    1    2    0    0  0.17708500885E+01  0.19296636900E+02  0.25322373856E+02  0.59301972913E+02  0.50000052679E+02 0.  0.
         12    1    1    2    0    0 -0.17708500885E+01 -0.19296636900E+02 -0.25322373856E+02  0.31886027087E+02  0.00000000000E+00 0. -1.
         11    1    3    3    0    0  0.58652797237E+01  0.60652460057E+01 -0.14340197371E+02  0.16638208324E+02  0.51100000000E-03 0. -1.
        -11    1    3    3    0    0  0.21482962122E+01  0.33070409809E+01  0.85600121131E+01  0.94247283411E+01  0.51100000000E-03 0.  1.
        -12    1    3    3    0    0 -0.62427258474E+01  0.99243499136E+01  0.31102559114E+02  0.33239036247E+02  0.00000000000E+00 0.  1.
</event>
<event>
 7    1  0.1134395E-011  0.5930195E+02  0.7816164E-02  0.1266605E+00
        -11   -1    0    0    0    0  0.00000000000E+00  0.00000000000E+00  0.45593999997E+02  0.45594000000E+02  0.51100000000E-03 0. -1.
         11   -1    0    0    0    0 -0.00000000000E+00 -0.00000000000E+00 -0.45593999997E+02  0.45594000000E+02  0.51100000000E-03 0.  1.
    9900012    2    1    2    0    0  0.78231381250E+01 -0.39332175165E+01 -0.30660212499E+02  0.59301947867E+02  0.50000007002E+02 0.  0.
         12    1    1    2    0    0 -0.78231381250E+01  0.39332175165E+01  0.30660212499E+02  0.31886052133E+02  0.00000000000E+00 0. -1.
         11    1    3    3    0    0  0.11048886655E+02 -0.15010719166E+01 -0.36007057395E+01  0.11717345915E+02  0.51100000000E-03 0. -1.
        -11    1    3    3    0    0 -0.52816725070E+01 -0.12618270860E+02 -0.32923906682E+02  0.35652495781E+02  0.51100000000E-03 0.  1.
         12    1    3    3    0    0  0.20559239769E+01  0.10186125260E+02  0.58643999226E+01  0.11932106171E+02  0.00000000000E+00 0. -1.
</event>
<event>
 7    1  0.1134395E-011  0.5930228E+02  0.7816164E-02  0.1266604E+00
        -11   -1    0    0    0    0  0.00000000000E+00  0.00000000000E+00  0.45593999997E+02  0.45594000000E+02  0.51100000000E-03 0.  1.
         11   -1    0    0    0    0 -0.00000000000E+00 -0.00000000000E+00 -0.45593999997E+02  0.45594000000E+02  0.51100000000E-03 0. -1.
    9900012    2    1    2    0    0  0.31002614695E+02  0.19002365945E+01  0.72059562333E+01  0.59302284981E+02  0.50000621813E+02 0.  0.
         12    1    1    2    0    0 -0.31002614695E+02 -0.19002365945E+01 -0.72059562333E+01  0.31885715019E+02  0.00000000000E+00 0. -1.
         11    1    3    3    0    0  0.40332318174E+01  0.42596813027E+01  0.37271532586E+01  0.69500730476E+01  0.51100000000E-03 0.  1.
        -11    1    3    3    0    0  0.27947150850E+02  0.16840144916E+02  0.52417258072E+01  0.33047078708E+02  0.51100000000E-03 0. -1.
        -12    1    3    3    0    0 -0.97776797240E+00 -0.19199589624E+02 -0.17629228325E+01  0.19305133226E+02  0.00000000000E+00 0.  1.
</event>
<event>
 7    1  0.1134395E-011  0.5930196E+02  0.7816164E-02  0.1266605E+00
        -11   -1    0    0    0    0  0.00000000000E+00  0.00000000000E+00  0.45593999997E+02  0.45594000000E+02  0.51100000000E-03 0. -1.
         11   -1    0    0    0    0 -0.00000000000E+00 -0.00000000000E+00 -0.45593999997E+02  0.45594000000E+02  0.51100000000E-03 0.  1.
    9900012    2    1    2    0    0  0.28442067299E+02 -0.14274443558E+02 -0.20021021125E+01  0.59301963182E+02  0.50000034932E+02 0.  0.
         12    1    1    2    0    0 -0.28442067299E+02  0.14274443558E+02  0.20021021125E+01  0.31886036818E+02  0.00000000000E+00 0. -1.
         11    1    3    3    0    0 -0.37398394797E+01  0.55493437795E+01  0.22010427385E+01  0.70445869371E+01  0.51100000000E-03 0. -1.
        -11    1    3    3    0    0 -0.61095382632E+01  0.64703586476E+00  0.49421549130E+01  0.78847960434E+01  0.51100000000E-03 0.  1.
        -12    1    3    3    0    0  0.38291445041E+02 -0.20470823202E+02 -0.91452997640E+01  0.44372580201E+02  0.00000000000E+00 0.  1.
</event>
<event>
 7    1  0.1134395E-011  0.5930229E+02  0.7816164E-02  0.1266604E+00
        -11   -1    0    0    0    0  0.00000000000E+00  0.00000000000E+00  0.45593999997E+02  0.45594000000E+02  0.51100000000E-03 0.  1.
         11   -1    0    0    0    0 -0.00000000000E+00 -0.00000000000E+00 -0.45593999997E+02  0.45594000000E+02  0.51100000000E-03 0. -1.
    9900012    2    1    2    0    0 -0.16049466269E+02  0.26517260110E+02  0.74798365614E+01  0.59302291505E+02  0.50000633711E+02 0.  0.
         12    1    1    2    0    0  0.16049466269E+02 -0.26517260110E+02 -0.74798365614E+01  0.31885708495E+02  0.00000000000E+00 0. -1.
         11    1    3    3    0    0 -0.39925659213E+01  0.17034415495E+02 -0.19641535210E+01  0.17605959025E+02  0.51100000000E-03 0. -1.
        -11    1    3    3    0    0  0.92730400703E+00  0.21346831437E+02  0.11013280335E+02  0.24038291311E+02  0.51100000000E-03 0.  1.
         12    1    3    3    0    0 -0.12984204355E+02 -0.11863986822E+02 -0.15692902528E+01  0.17658041169E+02  0.00000000000E+00 0. -1.
</event>
<event>
 7    1  0.1134395E-011  0.5930192E+02  0.7816164E-02  0.1266605E+00
        -11   -1    0    0    0    0  0.00000000000E+00  0.00000000000E+00  0.45593999997E+02  0.45594000000E+02  0.51100000000E-03 0. -1.
         11   -1    0    0    0    0 -0.00000000000E+00 -0.00000000000E+00 -0.45593999997E+02  0.45594000000E+02  0.51100000000E-03 0.  1.
    9900012    2    1    2    0    0  0.10530526946E+01  0.13390947548E+02 -0.28918778349E+02  0.59301919379E+02  0.49999955047E+02 0.  0.
         12    1    1    2    0    0 -0.10530526946E+01 -0.13390947548E+02  0.28918778349E+02  0.31886080621E+02  0.00000000000E+00 0. -1.
         11    1    3    3    0    0 -0.10797384967E+02  0.91516962691E+01 -0.34938856735E+01  0.14578899276E+02  0.51100000000E-03 0. -1.
        -11    1    3    3    0    0 -0.32155459385E+01  0.10679580060E+02  0.33195564089E+01  0.11636692870E+02  0.51100000000E-03 0.  1.
         12    1    3    3    0    0  0.15065983600E+02 -0.64403287813E+01 -0.28744449084E+02  0.33086327233E+02  0.00000000000E+00 0. -1.
</event>
<event>
 7    1  0.1134395E-011  0.5930194E+02  0.7816164E-02  0.1266605E+00
        -11   -1    0    0    0    0  0.00000000000E+00  0.00000000000E+00  0.45593999997E+02  0.45594000000E+02  0.51100000000E-03 0.  1.
         11   -1    0    0    0    0 -0.00000000000E+00 -0.00000000000E+00 -0.45593999997E+02  0.45594000000E+02  0.51100000000E-03 0. -1.
    9900012    2    1    2    0    0 -0.26558388797E+02 -0.16213903366E+02  0.69629191668E+01  0.59301938450E+02  0.49999989827E+02 0.  0.
         12    1    1    2    0    0  0.26558388797E+02  0.16213903366E+02 -0.69629191668E+01  0.31886061550E+02  0.00000000000E+00 0. -1.
         11    1    3    3    0    0 -0.63436820635E+01 -0.13710731743E+02  0.94739037818E+01  0.17832030736E+02  0.51100000000E-03 0.  1.
        -11    1    3    3    0    0 -0.39841816826E+01  0.21898461907E+01 -0.17990166221E+02  0.18555732563E+02  0.51100000000E-03 0. -1.
         12    1    3    3    0    0 -0.16230525051E+02 -0.46930178132E+01  0.15479181606E+02  0.22914175151E+02  0.00000000000E+00 0. -1.
</event>
<event>
 7    1  0.1134395E-011  0.5930193E+02  0.7816164E-02  0.1266605E+00
        -11   -1    0    0    0    0  0.00000000000E+00  0.00000000000E+00  0.45593999997E+02  0.45594000000E+02  0.51100000000E-03 0. -1.
         11   -1    0    0    0    0 -0.00000000000E+00 -0.00000000000E+00 -0.45593999997E+02  0.45594000000E+02  0.51100000000E-03 0.  1.
    9900012    2    1    2    0    0  0.20247846930E+02  0.11061293583E+02 -0.22008954580E+02  0.59301927763E+02  0.49999970336E+02 0.  0.
         12    1    1    2    0    0 -0.20247846930E+02 -0.11061293583E+02  0.22008954580E+02  0.31886072237E+02  0.00000000000E+00 0. -1.
         11    1    3    3    0    0 -0.43265589742E+01 -0.12739431740E+01 -0.49901706298E+01  0.67263546549E+01  0.51100000000E-03 0. -1.
        -11    1    3    3    0    0 -0.20106122528E+01 -0.86504578596E+01  0.67862144687E+01  0.11177016144E+02  0.51100000000E-03 0.  1.
        -12    1    3    3    0    0  0.26585018157E+02  0.20985694616E+02 -0.23804998419E+02  0.41398556964E+02  0.00000000000E+00 0.  1.
</event>
<event>
 7    1  0.1134395E-011  0.5930193E+02  0.7816164E-02  0.1266605E+00
        -11   -1    0    0    0    0  0.00000000000E+00  0.00000000000E+00  0.45593999997E+02  0.45594000000E+02  0.51100000000E-03 0.  1.
         11   -1    0    0    0    0 -0.00000000000E+00 -0.00000000000E+00 -0.45593999997E+02  0.45594000000E+02  0.51100000000E-03 0. -1.
    9900012    2    1    2    0    0  0.27046307523E+02  0.12409266460E+02  0.11455514792E+02  0.59301929941E+02  0.49999974308E+02 0.  0.
         12    1    1    2    0    0 -0.27046307523E+02 -0.12409266460E+02 -0.11455514792E+02  0.31886070059E+02  0.00000000000E+00 0. -1.
         11    1    3    3    0    0  0.20817714022E+02  0.14827747857E+02 -0.46013319973E+01  0.25969435496E+02  0.51100000000E-03 0. -1.
        -11    1    3    3    0    0  0.22540622978E+01  0.10093753312E+02  0.17289163469E+02  0.20146459403E+02  0.51100000000E-03 0.  1.
        -12    1    3    3    0    0  0.39745312032E+01 -0.12512234709E+02 -0.12323166805E+01  0.13186035041E+02  0.00000000000E+00 0.  1.
</event>
<event>
 7    1  0.1134395E-011  0.5930193E+02  0.7816164E-02  0.1266605E+00
        -11   -1    0    0    0    0  0.00000000000E+00  0.00000000000E+00  0.45593999997E+02  0.45594000000E+02  0.51100000000E-03 0.  1.
         11   -1    0    0    0    0 -0.00000000000E+00 -0.00000000000E+00 -0.45593999997E+02  0.45594000000E+02  0.51100000000E-03 0. -1.
    9900012    2    1    2    0    0  0.67254826607E+01  0.31151528400E+02  0.10350402140E+01  0.59301934910E+02  0.49999983371E+02 0.  0.
         12    1    1    2    0    0 -0.67254826607E+01 -0.31151528400E+02 -0.10350402140E+01  0.31886065090E+02  0.00000000000E+00 0. -1.
         11    1    3    3    0    0 -0.42598514999E+01  0.33298304536E+01  0.70093362794E+01  0.88523952120E+01  0.51100000000E-03 0. -1.
        -11    1    3    3    0    0 -0.13071396312E+02  0.23096257159E+01  0.42262948315E+01  0.13930446538E+02  0.51100000000E-03 0.  1.
        -12    1    3    3    0    0  0.24056730473E+02  0.25512072231E+02 -0.10200590897E+02  0.36519093159E+02  0.00000000000E+00 0.  1.
</event>
<event>
 7    1  0.1134395E-011  0.5930192E+02  0.7816164E-02  0.1266605E+00
        -11   -1    0    0    0    0  0.00000000000E+00  0.00000000000E+00  0.45593999997E+02  0.45594000000E+02  0.51100000000E-03 0. -1.
         11   -1    0    0    0    0 -0.00000000000E+00 -0.00000000000E+00 -0.45593999997E+02  0.45594000000E+02  0.51100000000E-03 0.  1.
    9900012    2    1    2    0    0 -0.23956596433E+02  0.20520717233E+02 -0.46587084077E+01  0.59301922906E+02  0.49999961478E+02 0.  0.
         12    1    1    2    0    0  0.23956596433E+02 -0.20520717233E+02  0.46587084077E+01  0.31886077094E+02  0.00000000000E+00 0. -1.
         11    1    3    3    0    0 -0.19795074573E+01  0.21600930447E+02  0.39978547129E+01  0.22056778743E+02  0.51100000000E-03 0. -1.
        -11    1    3    3    0    0 -0.13135784361E+02  0.13499399656E+02 -0.20023664993E+01  0.18941808090E+02  0.51100000000E-03 0.  1.
         12    1    3    3    0    0 -0.88413046154E+01 -0.14579612870E+02 -0.66541966213E+01  0.18303336073E+02  0.00000000000E+00 0. -1.
</event>
<event>
 7    1  0.1134395E-011  0.5930196E+02  0.7816164E-02  0.1266605E+00
        -11   -1    0    0    0    0  0.00000000000E+00  0.00000000000E+00  0.45593999997E+02  0.45594000000E+02  0.51100000000E-03 0.  1.
         11   -1    0    0    0    0 -0.00000000000E+00 -0.00000000000E+00 -0.45593999997E+02  0.45594000000E+02  0.51100000000E-03 0. -1.
    9900012    2    1    2    0    0  0.14468547060E+02 -0.66427305464E+01  0.27627068509E+02  0.59301958578E+02  0.50000026536E+02 0.  0.
         12    1    1    2    0    0 -0.14468547060E+02  0.66427305464E+01 -0.27627068509E+02  0.31886041422E+02  0.00000000000E+00 0. -1.
         11    1    3    3    0    0 -0.11433842942E+02 -0.47895605492E+01  0.18098855165E+01  0.12527902479E+02  0.51100000000E-03 0. -1.
        -11    1    3    3    0    0  0.22103899222E+02 -0.35952593136E+01  0.18781350967E+01  0.22472998065E+02  0.51100000000E-03 0.  1.
         12    1    3    3    0    0  0.37984907797E+01  0.17420893164E+01  0.23939047896E+02  0.24301058034E+02  0.00000000000E+00 0. -1.
</event>
<event>
 7    1  0.1134395E-011  0.5930186E+02  0.7816164E-02  0.1266605E+00
        -11   -1    0    0    0    0  0.00000000000E+00  0.00000000000E+00  0.45593999997E+02  0.45594000000E+02  0.51100000000E-03 0.  1.
         11   -1    0    0    0    0 -0.00000000000E+00 -0.00000000000E+00 -0.45593999997E+02  0.45594000000E+02  0.51100000000E-03 0. -1.
    9900012    2    1    2    0    0 -0.71148885988E+01 -0.15553303725E+02  0.26910949352E+02  0.59301857374E+02  0.49999841965E+02 0.  0.
         12    1    1    2    0    0  0.71148885988E+01  0.15553303725E+02 -0.26910949352E+02  0.31886142626E+02  0.00000000000E+00 0. -1.
         11    1    3    3    0    0  0.54489064869E+01 -0.14071378575E+02 -0.29230736533E+01  0.15370056498E+02  0.51100000000E-03 0. -1.
        -11    1    3    3    0    0  0.76671025715E+00 -0.10861604998E+02  0.24451497805E+02  0.26766360472E+02  0.51100000000E-03 0.  1.
        -12    1    3    3    0    0 -0.13330505343E+02  0.93796798482E+01  0.53825251998E+01  0.17165440404E+02  0.00000000000E+00 0.  1.
</event>
<event>
 7    1  0.1134395E-011  0.5930194E+02  0.7816164E-02  0.1266605E+00
        -11   -1    0    0    0    0  0.00000000000E+00  0.00000000000E+00  0.45593999997E+02  0.45594000000E+02  0.51100000000E-03 0.  1.
         11   -1    0    0    0    0 -0.00000000000E+00 -0.00000000000E+00 -0.45593999997E+02  0.45594000000E+02  0.51100000000E-03 0. -1.
    9900012    2    1    2    0    0  0.82696826702E+01 -0.11552314228E+02  0.28546054187E+02  0.59301939955E+02  0.49999992573E+02 0.  0.
         12    1    1    2    0    0 -0.82696826702E+01  0.11552314228E+02 -0.28546054187E+02  0.31886060045E+02  0.00000000000E+00 0. -1.
         11    1    3    3    0    0 -0.11681387212E+02 -0.72363083687E+01  0.93179216220E+01  0.16602488657E+02  0.51100000000E-03 0. -1.
        -11    1    3    3    0    0 -0.12683858106E+01 -0.12313366462E+01  0.21101372500E+02  0.21175290179E+02  0.51100000000E-03 0.  1.
        -12    1    3    3    0    0  0.21219455693E+02 -0.30846692132E+01 -0.18732399345E+01  0.21524161120E+02  0.00000000000E+00 0.  1.
</event>
<event>
 7    1  0.1134395E-011  0.5930191E+02  0.7816164E-02  0.1266605E+00
        -11   -1    0    0    0    0  0.00000000000E+00  0.00000000000E+00  0.45593999997E+02  0.45594000000E+02  0.51100000000E-03 0.  1.
         11   -1    0    0    0    0 -0.00000000000E+00 -0.00000000000E+00 -0.45593999997E+02  0.45594000000E+02  0.51100000000E-03 0. -1.
    9900012    2    1    2    0    0 -0.26705156807E+02 -0.36856676356E+01  0.17028598145E+02  0.59301910544E+02  0.49999938933E+02 0.  0.
         12    1    1    2    0    0  0.26705156807E+02  0.36856676356E+01 -0.17028598145E+02  0.31886089456E+02  0.00000000000E+00 0. -1.
         11    1    3    3    0    0 -0.28910279805E+01 -0.16289185754E+02  0.10272581168E+02  0.19473611360E+02  0.51100000000E-03 0. -1.
        -11    1    3    3    0    0 -0.19430704358E+02 -0.55253389669E+01  0.68066415882E+00  0.20212494812E+02  0.51100000000E-03 0.  1.
        -12    1    3    3    0    0 -0.43834244687E+01  0.18128857085E+02  0.60753528184E+01  0.19615804372E+02  0.00000000000E+00 0.  1.
</event>
<event>
 7    1  0.1134395E-011  0.5930197E+02  0.7816164E-02  0.1266605E+00
        -11   -1    0    0    0    0  0.00000000000E+00  0.00000000000E+00  0.45593999997E+02  0.45594000000E+02  0.51100000000E-03 0.  1.
         11   -1    0    0    0    0 -0.00000000000E+00 -0.00000000000E+00 -0.45593999997E+02  0.45594000000E+02  0.51100000000E-03 0. -1.
    9900012    2    1    2    0    0 -0.20385314734E+02 -0.12836335619E+02  0.20889863988E+02  0.59301968790E+02  0.50000045160E+02 0.  0.
         12    1    1    2    0    0  0.20385314734E+02  0.12836335619E+02 -0.20889863988E+02  0.31886031210E+02  0.00000000000E+00 0. -1.
         11    1    3    3    0    0  0.81133493888E+01  0.90075539237E+01 -0.23580136418E+01  0.12350007878E+02  0.51100000000E-03 0. -1.
        -11    1    3    3    0    0  0.20849355847E+01 -0.12276880889E+01  0.55248461154E+01  0.60314259753E+01  0.51100000000E-03 0.  1.
        -12    1    3    3    0    0 -0.30583599707E+02 -0.20616201453E+02  0.17723031515E+02  0.40920534936E+02  0.00000000000E+00 0.  1.
</event>
<event>
 7    1  0.1134395E-011  0.5930191E+02  0.7816164E-02  0.1266605E+00
        -11   -1    0    0    0    0  0.00000000000E+00  0.00000000000E+00  0.45593999997E+02  0.45594000000E+02  0.51100000000E-03 0. -1.
         11   -1    0    0    0    0 -0.00000000000E+00 -0.00000000000E+00 -0.45593999997E+02  0.45594000000E+02  0.51100000000E-03 0.  1.
    9900012    2    1    2    0    0  0.30271054004E+02  0.93954524295E+01  0.34801710141E+01  0.59301908563E+02  0.49999935321E+02 0.  0.
         12    1    1    2    0    0 -0.30271054004E+02 -0.93954524295E+01 -0.34801710141E+01  0.31886091437E+02  0.00000000000E+00 0. -1.
         11    1    3    3    0    0  0.17532388443E+02 -0.80522680620E+01 -0.32655834132E+01  0.19567516469E+02  0.51100000000E-03 0. -1.
        -11    1    3    3    0    0  0.14036521632E+02 -0.62235801484E+01  0.12943562704E+01  0.15408836680E+02  0.51100000000E-03 0.  1.
         12    1    3    3    0    0 -0.12978560717E+01  0.23671300640E+02  0.54513981569E+01  0.24325555415E+02  0.00000000000E+00 0. -1.
</event>
<event>
 7    1  0.1134395E-011  0.5930193E+02  0.7816164E-02  0.1266605E+00
        -11   -1    0    0    0    0  0.00000000000E+00  0.00000000000E+00  0.45593999997E+02  0.45594000000E+02  0.51100000000E-03 0.  1.
         11   -1    0    0    0    0 -0.00000000000E+00 -0.00000000000E+00 -0.45593999997E+02  0.45594000000E+02  0.51100000000E-03 0. -1.
    9900012    2    1    2    0    0  0.23641551417E+02 -0.28429559718E+01  0.21206518331E+02  0.59301925112E+02  0.49999965502E+02 0.  0.
         12    1    1    2    0    0 -0.23641551417E+02  0.28429559718E+01 -0.21206518331E+02  0.31886074888E+02  0.00000000000E+00 0. -1.
         11    1    3    3    0    0  0.57023481854E+01 -0.39045527839E+01 -0.34180765363E+01  0.77100943404E+01  0.51100000000E-03 0. -1.
        -11    1    3    3    0    0  0.30230471006E+02 -0.63685498812E+01  0.18214878145E+02  0.35863931616E+02  0.51100000000E-03 0.  1.
        -12    1    3    3    0    0 -0.12291267775E+02  0.74301466933E+01  0.64097167223E+01  0.15727899156E+02  0.00000000000E+00 0.  1.
</event>
<event>
 7    1  0.1134395E-011  0.5930200E+02  0.7816164E-02  0.1266605E+00
        -11   -1    0    0    0    0  0.00000000000E+00  0.00000000000E+00  0.45593999997E+02  0.45594000000E+02  0.51100000000E-03 0. -1.
         11   -1    0    0    0    0 -0.00000000000E+00 -0.00000000000E+00 -0.45593999997E+02  0.45594000000E+02  0.51100000000E-03 0.  1.
    9900012    2    1    2    0    0  0.21813271252E+02  0.65602771397E+01 -0.22312804421E+02  0.59301995547E+02  0.50000093958E+02 0.  0.
         12    1    1    2    0    0 -0.21813271252E+02 -0.65602771397E+01  0.22312804421E+02  0.31886004453E+02  0.00000000000E+00 0. -1.
         11    1    3    3    0    0  0.17256460551E+01  0.12762531967E+02 -0.81901066098E+01  0.15262303989E+02  0.51100000000E-03 0. -1.
        -11    1    3    3    0    0  0.25720337060E+01 -0.12682236624E+01 -0.23426899735E+02  0.23601766461E+02  0.51100000000E-03 0.  1.
         12    1    3    3    0    0  0.17515591491E+02 -0.49340311647E+01  0.93042019237E+01  0.20437925097E+02  0.00000000000E+00 0. -1.
</event>
<event>
 7    1  0.1134395E-011  0.5930198E+02  0.7816164E-02  0.1266605E+00
        -11   -1    0    0    0    0  0.00000000000E+00  0.00000000000E+00  0.45593999997E+02  0.45594000000E+02  0.51100000000E-03 0.  1.
         11   -1    0    0    0    0 -0.00000000000E+00 -0.00000000000E+00 -0.45593999997E+02  0.45594000000E+02  0.51100000000E-03 0. -1.
    9900012    2    1    2    0    0  0.24986354721E+02  0.11739381656E+02  0.15955784525E+02  0.59301983257E+02  0.50000071545E+02 0.  0.
         12    1    1    2    0    0 -0.24986354721E+02 -0.11739381656E+02 -0.15955784525E+02  0.31886016743E+02  0.00000000000E+00 0. -1.
         11    1    3    3    0    0  0.16365010357E+02  0.14747943381E+02 -0.48654023673E+01  0.22560752168E+02  0.51100000000E-03 0. -1.
        -11    1    3    3    0    0  0.61028665305E+01  0.83996743884E+01 -0.24804507488E+01  0.10674837043E+02  0.51100000000E-03 0.  1.
        -12    1    3    3    0    0  0.25184778340E+01 -0.11408236113E+02  0.23301637641E+02  0.26066394046E+02  0.00000000000E+00 0.  1.
</event>
<event>
 7    1  0.1134395E-011  0.5930195E+02  0.7816164E-02  0.1266605E+00
        -11   -1    0    0    0    0  0.00000000000E+00  0.00000000000E+00  0.45593999997E+02  0.45594000000E+02  0.51100000000E-03 0.  1.
         11   -1    0    0    0    0 -0.00000000000E+00 -0.00000000000E+00 -0.45593999997E+02  0.45594000000E+02  0.51100000000E-03 0. -1.
    9900012    2    1    2    0    0 -0.17869644491E+02  0.22073717967E+02  0.14496453854E+02  0.59301946725E+02  0.50000004919E+02 0.  0.
         12    1    1    2    0    0  0.17869644491E+02 -0.22073717967E+02 -0.14496453854E+02  0.31886053275E+02  0.00000000000E+00 0. -1.
         11    1    3    3    0    0 -0.11467432534E+02  0.26657081024E+02  0.33978894704E+01  0.29217248857E+02  0.51100000000E-03 0. -1.
        -11    1    3    3    0    0 -0.49272567500E+00  0.11087517003E+02  0.30915492520E+01  0.11521002080E+02  0.51100000000E-03 0.  1.
        -12    1    3    3    0    0 -0.59094862814E+01 -0.15670880061E+02  0.80070151321E+01  0.18563695788E+02  0.00000000000E+00 0.  1.
</event>
<event>
 7    1  0.1134395E-011  0.5930213E+02  0.7816164E-02  0.1266604E+00
        -11   -1    0    0    0    0  0.00000000000E+00  0.00000000000E+00  0.45593999997E+02  0.45594000000E+02  0.51100000000E-03 0.  1.
         11   -1    0    0    0    0 -0.00000000000E+00 -0.00000000000E+00 -0.45593999997E+02  0.45594000000E+02  0.51100000000E-03 0. -1.
    9900012    2    1    2    0    0  0.12194365218E+02 -0.11473224762E+02  0.27136165222E+02  0.59302127071E+02  0.50000333825E+02 0.  0.
         12    1    1    2    0    0 -0.12194365218E+02  0.11473224762E+02 -0.27136165222E+02  0.31885872929E+02  0.00000000000E+00 0. -1.
         11    1    3    3    0    0  0.46968928779E-01  0.90588907978E+01  0.12199531221E+02  0.15195205521E+02  0.51100000000E-03 0. -1.
        -11    1    3    3    0    0  0.98257624786E+01 -0.49230076483E+01  0.23651116732E+02  0.26079818549E+02  0.51100000000E-03 0.  1.
         12    1    3    3    0    0  0.23216338110E+01 -0.15609107911E+02 -0.87144827307E+01  0.18027103001E+02  0.00000000000E+00 0. -1.
</event>
<event>
 7    1  0.1134395E-011  0.5930200E+02  0.7816164E-02  0.1266605E+00
        -11   -1    0    0    0    0  0.00000000000E+00  0.00000000000E+00  0.45593999997E+02  0.45594000000E+02  0.51100000000E-03 0. -1.
         11   -1    0    0    0    0 -0.00000000000E+00 -0.00000000000E+00 -0.45593999997E+02  0.45594000000E+02  0.51100000000E-03 0.  1.
    9900012    2    1    2    0    0 -0.17748274558E+02  0.18333605001E+02 -0.19120526884E+02  0.59302001969E+02  0.50000105671E+02 0.  0.
         12    1    1    2    0    0  0.17748274558E+02 -0.18333605001E+02  0.19120526884E+02  0.31885998031E+02  0.00000000000E+00 0. -1.
         11    1    3    3    0    0 -0.32994404892E+01 -0.14411773855E+01  0.12574316586E+01  0.38137166171E+01  0.51100000000E-03 0. -1.
        -11    1    3    3    0    0 -0.90866107982E+01 -0.23218159341E+01  0.12429988996E+02  0.15571189798E+02  0.51100000000E-03 0.  1.
        -12    1    3    3    0    0 -0.53622232707E+01  0.22096598321E+02 -0.32807947538E+02  0.39917095554E+02  0.00000000000E+00 0.  1.
</event>
<event>
 7    1  0.1134395E-011  0.5930194E+02  0.7816164E-02  0.1266605E+00
        -11   -1    0    0    0    0  0.00000000000E+00  0.00000000000E+00  0.45593999997E+02  0.45594000000E+02  0.51100000000E-03 0.  1.
         11   -1    0    0    0    0 -0.00000000000E+00 -0.00000000000E+00 -0.45593999997E+02  0.45594000000E+02  0.51100000000E-03 0. -1.
    9900012    2    1    2    0    0  0.13450484932E+02 -0.11449331880E+02  0.26546529374E+02  0.59301937728E+02  0.49999988510E+02 0.  0.
         12    1    1    2    0    0 -0.13450484932E+02  0.11449331880E+02 -0.26546529374E+02  0.31886062272E+02  0.00000000000E+00 0. -1.
         11    1    3    3    0    0  0.94305153133E+01  0.47250804969E+01  0.18228170592E+02  0.21060085664E+02  0.51100000000E-03 0. -1.
        -11    1    3    3    0    0 -0.98703640464E+01 -0.89491100587E+01  0.15984212635E+02  0.20808789275E+02  0.51100000000E-03 0.  1.
         12    1    3    3    0    0  0.13890333665E+02 -0.72253023186E+01 -0.76658538529E+01  0.17433062789E+02  0.00000000000E+00 0. -1.
</event>
<event>
 7    1  0.1134395E-011  0.5930193E+02  0.7816164E-02  0.1266605E+00
        -11   -1    0    0    0    0  0.00000000000E+00  0.00000000000E+00  0.45593999997E+02  0.45594000000E+02  0.51100000000E-03 0. -1.
         11   -1    0    0    0    0 -0.00000000000E+00 -0.00000000000E+00 -0.45593999997E+02  0.45594000000E+02  0.51100000000E-03 0.  1.
    9900012    2    1    2    0    0 -0.25698741803E+02 -0.13493675742E+02  0.13199117556E+02  0.59301932203E+02  0.49999978435E+02 0.  0.
         12    1    1    2    0    0  0.25698741803E+02  0.13493675742E+02 -0.13199117556E+02  0.31886067797E+02  0.00000000000E+00 0. -1.
         11    1    3    3    0    0  0.25347988113E+01  0.13287281685E+02  0.11071546989E+02  0.17480166264E+02  0.51100000000E-03 0. -1.
        -11    1    3    3    0    0 -0.67639539087E+01 -0.76953511563E+01 -0.61209274764E+01  0.11934624222E+02  0.51100000000E-03 0.  1.
        -12    1    3    3    0    0 -0.21469586705E+02 -0.19085606271E+02  0.82484980431E+01  0.29887141717E+02  0.00000000000E+00 0.  1.
</event>
<event>
 7    1  0.1134395E-011  0.5930193E+02  0.7816164E-02  0.1266605E+00
        -11   -1    0    0    0    0  0.00000000000E+00  0.00000000000E+00  0.45593999997E+02  0.45594000000E+02  0.51100000000E-03 0.  1.
         11   -1    0    0    0    0 -0.00000000000E+00 -0.00000000000E+00 -0.45593999997E+02  0.45594000000E+02  0.51100000000E-03 0. -1.
    9900012    2    1    2    0    0 -0.10922376689E+02 -0.14317799318E+02  0.26313947226E+02  0.59301929241E+02  0.49999973032E+02 0.  0.
         12    1    1    2    0    0  0.10922376689E+02  0.14317799318E+02 -0.26313947226E+02  0.31886070759E+02  0.00000000000E+00 0. -1.
         11    1    3    3    0    0  0.37813529034E+01 -0.12251982031E+01 -0.20942391794E+01  0.44928363445E+01  0.51100000000E-03 0. -1.
        -11    1    3    3    0    0  0.14411182523E+02 -0.99408844551E+01  0.12190645211E+02  0.21333429082E+02  0.51100000000E-03 0.  1.
        -12    1    3    3    0    0 -0.29114912116E+02 -0.31517166596E+01  0.16217541195E+02  0.33475663814E+02  0.00000000000E+00 0.  1.
</event>
<event>
 7    1  0.1134395E-011  0.5930195E+02  0.7816164E-02  0.1266605E+00
        -11   -1    0    0    0    0  0.00000000000E+00  0.00000000000E+00  0.45593999997E+02  0.45594000000E+02  0.51100000000E-03 0.  1.
         11   -1    0    0    0    0 -0.00000000000E+00 -0.00000000000E+00 -0.45593999997E+02  0.45594000000E+02  0.51100000000E-03 0. -1.
    9900012    2    1    2    0    0  0.21497934821E+02  0.17935986592E+02  0.15259737246E+02  0.59301946663E+02  0.50000004806E+02 0.  0.
         12    1    1    2    0    0 -0.21497934821E+02 -0.17935986592E+02 -0.15259737246E+02  0.31886053337E+02  0.00000000000E+00 0. -1.
         11    1    3    3    0    0  0.77391901596E+01  0.40608651704E+00 -0.39700648826E+01  0.87075476467E+01  0.51100000000E-03 0. -1.
        -11    1    3    3    0    0  0.16359500775E+02  0.29384749860E+02  0.18620301027E+02  0.38442325639E+02  0.51100000000E-03 0.  1.
         12    1    3    3    0    0 -0.26007561127E+01 -0.11854849785E+02  0.60950110135E+00  0.12152073377E+02  0.00000000000E+00 0. -1.
</event>
<event>
 7    1  0.1134395E-011  0.5930195E+02  0.7816164E-02  0.1266605E+00
        -11   -1    0    0    0    0  0.00000000000E+00  0.00000000000E+00  0.45593999997E+02  0.45594000000E+02  0.51100000000E-03 0. -1.
         11   -1    0    0    0    0 -0.00000000000E+00 -0.00000000000E+00 -0.45593999997E+02  0.45594000000E+02  0.51100000000E-03 0.  1.
    9900012    2    1    2    0    0  0.28212648407E+02 -0.90855838073E+01 -0.11756654424E+02  0.59301948402E+02  0.50000007977E+02 0.  0.
         12    1    1    2    0    0 -0.28212648407E+02  0.90855838073E+01  0.11756654424E+02  0.31886051598E+02  0.00000000000E+00 0. -1.
         11    1    3    3    0    0  0.18908989581E+02 -0.39199481717E+01  0.13206585129E+02  0.23395080074E+02  0.51100000000E-03 0. -1.
        -11    1    3    3    0    0 -0.29211018620E+01 -0.28352911778E+01  0.31598429122E+01  0.51532824143E+01  0.51100000000E-03 0.  1.
        -12    1    3    3    0    0  0.12224760688E+02 -0.23303444579E+01 -0.28123082465E+02  0.30753585913E+02  0.00000000000E+00 0.  1.
</event>
<event>
 7    1  0.1134395E-011  0.5930194E+02  0.7816164E-02  0.1266605E+00
        -11   -1    0    0    0    0  0.00000000000E+00  0.00000000000E+00  0.45593999997E+02  0.45594000000E+02  0.51100000000E-03 0.  1.
         11   -1    0    0    0    0 -0.00000000000E+00 -0.00000000000E+00 -0.45593999997E+02  0.45594000000E+02  0.51100000000E-03 0. -1.
    9900012    2    1    2    0    0  0.26127512632E+02  0.64431196550E+01  0.17104386166E+02  0.59301941396E+02  0.49999995200E+02 0.  0.
         12    1    1    2    0    0 -0.26127512632E+02 -0.64431196550E+01 -0.17104386166E+02  0.31886058604E+02  0.00000000000E+00 0. -1.
         11    1    3    3    0    0  0.66713112150E+01 -0.15159018763E+02 -0.16702341635E+01  0.16646078385E+02  0.51100000000E-03 0. -1.
        -11    1    3    3    0    0  0.15892738290E+02 -0.37031942452E+00  0.96641610278E+01  0.18604092976E+02  0.51100000000E-03 0.  1.
         12    1    3    3    0    0  0.35634631270E+01  0.21972457843E+02  0.91104593018E+01  0.24051770034E+02  0.00000000000E+00 0. -1.
</event>
<event>
 7    1  0.1134395E-011  0.5930201E+02  0.7816164E-02  0.1266605E+00
        -11   -1    0    0    0    0  0.00000000000E+00  0.00000000000E+00  0.45593999997E+02  0.45594000000E+02  0.51100000000E-03 0.  1.
         11   -1    0    0    0    0 -0.00000000000E+00 -0.00000000000E+00 -0.45593999997E+02  0.45594000000E+02  0.51100000000E-03 0. -1.
    9900012    2    1    2    0    0 -0.56345079105E+01 -0.21658897362E+02  0.22712563786E+02  0.59302014550E+02  0.50000128616E+02 0.  0.
         12    1    1    2    0    0  0.56345079105E+01  0.21658897362E+02 -0.22712563786E+02  0.31885985450E+02  0.00000000000E+00 0. -1.
         11    1    3    3    0    0 -0.13898465845E+01 -0.23644310959E+02  0.42360936862E+01  0.24060956012E+02  0.51100000000E-03 0. -1.
        -11    1    3    3    0    0  0.65145117327E+01 -0.82320114828E+01  0.17454554541E+02  0.20368268229E+02  0.51100000000E-03 0.  1.
         12    1    3    3    0    0 -0.10759173059E+02  0.10217425080E+02  0.10219155591E+01  0.14872790309E+02  0.00000000000E+00 0. -1.
</event>
<event>
 7    1  0.1134395E-011  0.5930197E+02  0.7816164E-02  0.1266605E+00
        -11   -1    0    0    0    0  0.00000000000E+00  0.00000000000E+00  0.45593999997E+02  0.45594000000E+02  0.51100000000E-03 0. -1.
         11   -1    0    0    0    0 -0.00000000000E+00 -0.00000000000E+00 -0.45593999997E+02  0.45594000000E+02  0.51100000000E-03 0.  1.
    9900012    2    1    2    0    0 -0.28788676812E+02  0.62526030849E+01  0.12199832041E+02  0.59301970775E+02  0.50000048781E+02 0.  0.
         12    1    1    2    0    0  0.28788676812E+02 -0.62526030849E+01 -0.12199832041E+02  0.31886029225E+02  0.00000000000E+00 0. -1.
         11    1    3    3    0    0 -0.21879616430E+02 -0.90916539526E+01  0.21430300890E+02  0.31947356436E+02  0.51100000000E-03 0. -1.
        -11    1    3    3    0    0  0.46961865882E+00  0.37263407985E+01  0.58411624691E+01  0.69444464634E+01  0.51100000000E-03 0.  1.
        -12    1    3    3    0    0 -0.73786790409E+01  0.11617916239E+02 -0.15071631319E+02  0.20410167876E+02  0.00000000000E+00 0.  1.
</event>
<event>
 7    1  0.1134395E-011  0.5930194E+02  0.7816164E-02  0.1266605E+00
        -11   -1    0    0    0    0  0.00000000000E+00  0.00000000000E+00  0.45593999997E+02  0.45594000000E+02  0.51100000000E-03 0.  1.
         11   -1    0    0    0    0 -0.00000000000E+00 -0.00000000000E+00 -0.45593999997E+02  0.45594000000E+02  0.51100000000E-03 0. -1.
    9900012    2    1    2    0    0  0.78489069039E+01 -0.90657282857E+01  0.29545361252E+02  0.59301935012E+02  0.49999983557E+02 0.  0.
         12    1    1    2    0    0 -0.78489069039E+01  0.90657282857E+01 -0.29545361252E+02  0.31886064988E+02  0.00000000000E+00 0. -1.
         11    1    3    3    0    0 -0.53307674634E+01  0.43981957254E+00  0.30004039826E+02  0.30477088593E+02  0.51100000000E-03 0.  1.
        -11    1    3    3    0    0  0.36907560568E+01  0.10915293473E+01  0.10296274748E+02  0.10992105828E+02  0.51100000000E-03 0. -1.
         12    1    3    3    0    0  0.94889183105E+01 -0.10597077205E+02 -0.10754953322E+02  0.17832740590E+02  0.00000000000E+00 0. -1.
</event>
<event>
 7    1  0.1134395E-011  0.5930194E+02  0.7816164E-02  0.1266605E+00
        -11   -1    0    0    0    0  0.00000000000E+00  0.00000000000E+00  0.45593999997E+02  0.45594000000E+02  0.51100000000E-03 0.  1.
         11   -1    0    0    0    0 -0.00000000000E+00 -0.00000000000E+00 -0.45593999997E+02  0.45594000000E+02  0.51100000000E-03 0. -1.
    9900012    2    1    2    0    0 -0.88816452718E+01  0.29594246254E+02  0.78751483208E+01  0.59301937290E+02  0.49999987711E+02 0.  0.
         12    1    1    2    0    0  0.88816452718E+01 -0.29594246254E+02 -0.78751483208E+01  0.31886062710E+02  0.00000000000E+00 0. -1.
         11    1    3    3    0    0 -0.14674938087E+02  0.89696054820E+01 -0.14305686187E+02  0.22370969758E+02  0.51100000000E-03 0. -1.
        -11    1    3    3    0    0 -0.58491906560E+01  0.15486671771E+02  0.10149226599E+02  0.19417951352E+02  0.51100000000E-03 0.  1.
        -12    1    3    3    0    0  0.11642483471E+02  0.51379690013E+01  0.12031607909E+02  0.17513016180E+02  0.00000000000E+00 0.  1.
</event>
<event>
 7    1  0.1134395E-011  0.5930193E+02  0.7816164E-02  0.1266605E+00
        -11   -1    0    0    0    0  0.00000000000E+00  0.00000000000E+00  0.45593999997E+02  0.45594000000E+02  0.51100000000E-03 0.  1.
         11   -1    0    0    0    0 -0.00000000000E+00 -0.00000000000E+00 -0.45593999997E+02  0.45594000000E+02  0.51100000000E-03 0. -1.
    9900012    2    1    2    0    0  0.23875115718E+02  0.20053516974E+02  0.66750892333E+01  0.59301929219E+02  0.49999972992E+02 0.  0.
         12    1    1    2    0    0 -0.23875115718E+02 -0.20053516974E+02 -0.66750892333E+01  0.31886070781E+02  0.00000000000E+00 0. -1.
         11    1    3    3    0    0  0.72196376114E+01  0.74161225279E+00 -0.33499252898E+01  0.79934445442E+01  0.51100000000E-03 0.  1.
        -11    1    3    3    0    0  0.12403030089E+02  0.20596320073E+01 -0.15656087911E+02  0.20079599805E+02  0.51100000000E-03 0. -1.
         12    1    3    3    0    0  0.42524480183E+01  0.17252272714E+02  0.25681102434E+02  0.31228884869E+02  0.00000000000E+00 0. -1.
</event>
<event>
 7    1  0.1134395E-011  0.5930187E+02  0.7816164E-02  0.1266605E+00
        -11   -1    0    0    0    0  0.00000000000E+00  0.00000000000E+00  0.45593999997E+02  0.45594000000E+02  0.51100000000E-03 0.  1.
         11   -1    0    0    0    0 -0.00000000000E+00 -0.00000000000E+00 -0.45593999997E+02  0.45594000000E+02  0.51100000000E-03 0. -1.
    9900012    2    1    2    0    0  0.15879537781E+02 -0.19210050800E+02  0.19888172630E+02  0.59301871630E+02  0.49999867963E+02 0.  0.
         12    1    1    2    0    0 -0.15879537781E+02  0.19210050800E+02 -0.19888172630E+02  0.31886128370E+02  0.00000000000E+00 0. -1.
         11    1    3    3    0    0 -0.27007513161E+01  0.91509633707E+01 -0.30905708697E+01  0.10029248070E+02  0.51100000000E-03 0. -1.
        -11    1    3    3    0    0 -0.21145927672E+01 -0.14885845393E+01  0.13930963456E+02  0.14168949488E+02  0.51100000000E-03 0.  1.
        -12    1    3    3    0    0  0.20694881865E+02 -0.26872429631E+02  0.90477800437E+01  0.35103674072E+02  0.00000000000E+00 0.  1.
</event>
<event>
 7    1  0.1134395E-011  0.5930198E+02  0.7816164E-02  0.1266605E+00
        -11   -1    0    0    0    0  0.00000000000E+00  0.00000000000E+00  0.45593999997E+02  0.45594000000E+02  0.51100000000E-03 0.  1.
         11   -1    0    0    0    0 -0.00000000000E+00 -0.00000000000E+00 -0.45593999997E+02  0.45594000000E+02  0.51100000000E-03 0. -1.
    9900012    2    1    2    0    0  0.38591347760E+01  0.30375186245E+02  0.88979280216E+01  0.59301984512E+02  0.50000073833E+02 0.  0.
         12    1    1    2    0    0 -0.38591347760E+01 -0.30375186245E+02 -0.88979280216E+01  0.31886015488E+02  0.00000000000E+00 0. -1.
         11    1    3    3    0    0 -0.45651642024E+01  0.17193472714E+02  0.50198839433E+01  0.18483924454E+02  0.51100000000E-03 0. -1.
        -11    1    3    3    0    0 -0.56058807770E+01  0.21846573284E+02  0.78052000938E+01  0.23866709289E+02  0.51100000000E-03 0.  1.
         12    1    3    3    0    0  0.14030179755E+02 -0.86648597525E+01 -0.39271560155E+01  0.16951350768E+02  0.00000000000E+00 0. -1.
</event>
<event>
 7    1  0.1134395E-011  0.5930191E+02  0.7816164E-02  0.1266605E+00
        -11   -1    0    0    0    0  0.00000000000E+00  0.00000000000E+00  0.45593999997E+02  0.45594000000E+02  0.51100000000E-03 0.  1.
         11   -1    0    0    0    0 -0.00000000000E+00 -0.00000000000E+00 -0.45593999997E+02  0.45594000000E+02  0.51100000000E-03 0. -1.
    9900012    2    1    2    0    0  0.21138226685E+02 -0.12161425999E+02  0.20542589766E+02  0.59301907357E+02  0.49999933122E+02 0.  0.
         12    1    1    2    0    0 -0.21138226685E+02  0.12161425999E+02 -0.20542589766E+02  0.31886092643E+02  0.00000000000E+00 0. -1.
         11    1    3    3    0    0 -0.94140169102E+00  0.52031390725E+01  0.44622775177E+00  0.53064124245E+01  0.51100000000E-03 0. -1.
        -11    1    3    3    0    0  0.19982893955E+02 -0.14685884550E+01  0.29309144939E+02  0.35503503774E+02  0.51100000000E-03 0.  1.
         12    1    3    3    0    0  0.20967344205E+01 -0.15895976616E+02 -0.92127829246E+01  0.18491991159E+02  0.00000000000E+00 0. -1.
</event>
<event>
 7    1  0.1134395E-011  0.5930195E+02  0.7816164E-02  0.1266605E+00
        -11   -1    0    0    0    0  0.00000000000E+00  0.00000000000E+00  0.45593999997E+02  0.45594000000E+02  0.51100000000E-03 0.  1.
         11   -1    0    0    0    0 -0.00000000000E+00 -0.00000000000E+00 -0.45593999997E+02  0.45594000000E+02  0.51100000000E-03 0. -1.
    9900012    2    1    2    0    0  0.14844411017E+02  0.21327204435E+02  0.18480089506E+02  0.59301954532E+02  0.50000019157E+02 0.  0.
         12    1    1    2    0    0 -0.14844411017E+02 -0.21327204435E+02 -0.18480089506E+02  0.31886045468E+02  0.00000000000E+00 0. -1.
         11    1    3    3    0    0  0.65006600608E+01 -0.93524339138E+01  0.89940106346E+01  0.14512712665E+02  0.51100000000E-03 0. -1.
        -11    1    3    3    0    0  0.18662606897E+02  0.13294222621E+02  0.88466848026E+01  0.24562025233E+02  0.51100000000E-03 0.  1.
         12    1    3    3    0    0 -0.10318855942E+02  0.17385415728E+02  0.63939406931E+00  0.20227216634E+02  0.00000000000E+00 0. -1.
</event>
<event>
 7    1  0.1134395E-011  0.5930194E+02  0.7816164E-02  0.1266605E+00
        -11   -1    0    0    0    0  0.00000000000E+00  0.00000000000E+00  0.45593999997E+02  0.45594000000E+02  0.51100000000E-03 0. -1.
         11   -1    0    0    0    0 -0.00000000000E+00 -0.00000000000E+00 -0.45593999997E+02  0.45594000000E+02  0.51100000000E-03 0.  1.
    9900012    2    1    2    0    0  0.23926748066E+01 -0.15642862198E+01 -0.31757663867E+02  0.59301935671E+02  0.49999984760E+02 0.  0.
         12    1    1    2    0    0 -0.23926748066E+01  0.15642862198E+01  0.31757663867E+02  0.31886064329E+02  0.00000000000E+00 0. -1.
         11    1    3    3    0    0 -0.32158601547E+01 -0.86049986724E+01 -0.34046238917E+01  0.97968986313E+01  0.51100000000E-03 0. -1.
        -11    1    3    3    0    0  0.13972866381E+02 -0.73719422180E+01 -0.28785130638E+02  0.32835503241E+02  0.51100000000E-03 0.  1.
         12    1    3    3    0    0 -0.83643314193E+01  0.14412654671E+02  0.43209066310E+00  0.16669533799E+02  0.00000000000E+00 0. -1.
</event>
<event>
 7    1  0.1134395E-011  0.5930196E+02  0.7816164E-02  0.1266605E+00
        -11   -1    0    0    0    0  0.00000000000E+00  0.00000000000E+00  0.45593999997E+02  0.45594000000E+02  0.51100000000E-03 0.  1.
         11   -1    0    0    0    0 -0.00000000000E+00 -0.00000000000E+00 -0.45593999997E+02  0.45594000000E+02  0.51100000000E-03 0. -1.
    9900012    2    1    2    0    0 -0.23358107080E+02 -0.10799540058E+02  0.18827852733E+02  0.59301964336E+02  0.50000037038E+02 0.  0.
         12    1    1    2    0    0  0.23358107080E+02  0.10799540058E+02 -0.18827852733E+02  0.31886035664E+02  0.00000000000E+00 0. -1.
         11    1    3    3    0    0  0.12114102612E+02 -0.12947431869E+02  0.66495570712E+01  0.18936844606E+02  0.51100000000E-03 0. -1.
        -11    1    3    3    0    0 -0.55759761616E+00 -0.13795443401E+01  0.40906343041E+01  0.43528550353E+01  0.51100000000E-03 0.  1.
        -12    1    3    3    0    0 -0.34914612076E+02  0.35274361518E+01  0.80876613574E+01  0.36012264695E+02  0.00000000000E+00 0.  1.
</event>
<event>
 7    1  0.1134395E-011  0.5930194E+02  0.7816164E-02  0.1266605E+00
        -11   -1    0    0    0    0  0.00000000000E+00  0.00000000000E+00  0.45593999997E+02  0.45594000000E+02  0.51100000000E-03 0.  1.
         11   -1    0    0    0    0 -0.00000000000E+00 -0.00000000000E+00 -0.45593999997E+02  0.45594000000E+02  0.51100000000E-03 0. -1.
    9900012    2    1    2    0    0 -0.29654893471E+02 -0.10796884502E+02  0.45535888994E+01  0.59301943587E+02  0.49999999196E+02 0.  0.
         12    1    1    2    0    0  0.29654893471E+02  0.10796884502E+02 -0.45535888994E+01  0.31886056413E+02  0.00000000000E+00 0. -1.
         11    1    3    3    0    0  0.80647580197E+01  0.75891357789E+00 -0.95331765694E+01  0.12509905175E+02  0.51100000000E-03 0. -1.
        -11    1    3    3    0    0  0.24808330462E+01 -0.22469384279E+01  0.13200153437E+01  0.35980141287E+01  0.51100000000E-03 0.  1.
         12    1    3    3    0    0 -0.40200484536E+02 -0.93088596524E+01  0.12766750125E+02  0.43194024283E+02  0.00000000000E+00 0. -1.
</event>
<event>
 7    1  0.1134395E-011  0.5930199E+02  0.7816164E-02  0.1266605E+00
        -11   -1    0    0    0    0  0.00000000000E+00  0.00000000000E+00  0.45593999997E+02  0.45594000000E+02  0.51100000000E-03 0.  1.
         11   -1    0    0    0    0 -0.00000000000E+00 -0.00000000000E+00 -0.45593999997E+02  0.45594000000E+02  0.51100000000E-03 0. -1.
    9900012    2    1    2    0    0 -0.68806070720E+01  0.54200341936E+01  0.30659389764E+02  0.59301988882E+02  0.50000081803E+02 0.  0.
         12    1    1    2    0    0  0.68806070720E+01 -0.54200341936E+01 -0.30659389764E+02  0.31886011118E+02  0.00000000000E+00 0. -1.
         11    1    3    3    0    0 -0.58313613637E+01  0.11750557330E+02 -0.15841655412E+01  0.13213249171E+02  0.51100000000E-03 0. -1.
        -11    1    3    3    0    0  0.69319283526E+01  0.45227874824E+01 -0.26451750540E+01  0.86893146233E+01  0.51100000000E-03 0.  1.
        -12    1    3    3    0    0 -0.79811740609E+01 -0.10853310619E+02  0.34888730359E+02  0.37399425087E+02  0.00000000000E+00 0.  1.
</event>
<event>
 7    1  0.1134395E-011  0.5930204E+02  0.7816164E-02  0.1266604E+00
        -11   -1    0    0    0    0  0.00000000000E+00  0.00000000000E+00  0.45593999997E+02  0.45594000000E+02  0.51100000000E-03 0.  1.
         11   -1    0    0    0    0 -0.00000000000E+00 -0.00000000000E+00 -0.45593999997E+02  0.45594000000E+02  0.51100000000E-03 0. -1.
    9900012    2    1    2    0    0 -0.23428126629E+02  0.15358437731E+02  0.15230082402E+02  0.59302044834E+02  0.50000183846E+02 0.  0.
         12    1    1    2    0    0  0.23428126629E+02 -0.15358437731E+02 -0.15230082402E+02  0.31885955166E+02  0.00000000000E+00 0. -1.
         11    1    3    3    0    0  0.82454217218E+01 -0.50915933642E+01  0.91993807948E+00  0.97343509639E+01  0.51100000000E-03 0. -1.
        -11    1    3    3    0    0 -0.18655857807E+02  0.37169264948E+01  0.20015527810E+02  0.27613002858E+02  0.51100000000E-03 0.  1.
         12    1    3    3    0    0 -0.13017690544E+02  0.16733104601E+02 -0.57053834876E+01  0.21954691011E+02  0.00000000000E+00 0. -1.
</event>
<event>
 7    1  0.1134395E-011  0.5930194E+02  0.7816164E-02  0.1266605E+00
        -11   -1    0    0    0    0  0.00000000000E+00  0.00000000000E+00  0.45593999997E+02  0.45594000000E+02  0.51100000000E-03 0.  1.
         11   -1    0    0    0    0 -0.00000000000E+00 -0.00000000000E+00 -0.45593999997E+02  0.45594000000E+02  0.51100000000E-03 0. -1.
    9900012    2    1    2    0    0  0.10134782971E+01 -0.31738849725E+02  0.28876953605E+01  0.59301944982E+02  0.50000001740E+02 0.  0.
         12    1    1    2    0    0 -0.10134782971E+01  0.31738849725E+02 -0.28876953605E+01  0.31886055018E+02  0.00000000000E+00 0. -1.
         11    1    3    3    0    0  0.25334499640E+01 -0.94351103606E+01 -0.97007062230E+00  0.98173679523E+01  0.51100000000E-03 0. -1.
        -11    1    3    3    0    0  0.72839684430E-01 -0.21526601981E+02 -0.17690761736E+02  0.27863290357E+02  0.51100000000E-03 0.  1.
         12    1    3    3    0    0 -0.15928113513E+01 -0.77713738417E+00  0.21548527719E+02  0.21621286672E+02  0.00000000000E+00 0. -1.
</event>
<event>
 7    1  0.1134395E-011  0.5930198E+02  0.7816164E-02  0.1266605E+00
        -11   -1    0    0    0    0  0.00000000000E+00  0.00000000000E+00  0.45593999997E+02  0.45594000000E+02  0.51100000000E-03 0.  1.
         11   -1    0    0    0    0 -0.00000000000E+00 -0.00000000000E+00 -0.45593999997E+02  0.45594000000E+02  0.51100000000E-03 0. -1.
    9900012    2    1    2    0    0 -0.25763943930E+02  0.11882068915E+00  0.18786246645E+02  0.59301984441E+02  0.50000073705E+02 0.  0.
         12    1    1    2    0    0  0.25763943930E+02 -0.11882068915E+00 -0.18786246645E+02  0.31886015559E+02  0.00000000000E+00 0. -1.
         11    1    3    3    0    0 -0.26349586564E+01  0.10723490185E+02  0.50370940731E+01  0.12137074023E+02  0.51100000000E-03 0. -1.
        -11    1    3    3    0    0  0.12687152899E+01  0.89562982039E+01  0.13059395499E+02  0.15886243328E+02  0.51100000000E-03 0.  1.
         12    1    3    3    0    0 -0.24397700564E+02 -0.19560967700E+02  0.68975707276E+00  0.31278667091E+02  0.00000000000E+00 0. -1.
</event>
<event>
 7    1  0.1134395E-011  0.5930189E+02  0.7816164E-02  0.1266605E+00
        -11   -1    0    0    0    0  0.00000000000E+00  0.00000000000E+00  0.45593999997E+02  0.45594000000E+02  0.51100000000E-03 0.  1.
         11   -1    0    0    0    0 -0.00000000000E+00 -0.00000000000E+00 -0.45593999997E+02  0.45594000000E+02  0.51100000000E-03 0. -1.
    9900012    2    1    2    0    0  0.20351143442E+02  0.14782595625E+02  0.19596675147E+02  0.59301892530E+02  0.49999906080E+02 0.  0.
         12    1    1    2    0    0 -0.20351143442E+02 -0.14782595625E+02 -0.19596675147E+02  0.31886107470E+02  0.00000000000E+00 0. -1.
         11    1    3    3    0    0  0.16332795284E+02  0.29294122632E+02  0.59423481744E+01  0.34061963018E+02  0.51100000000E-03 0. -1.
        -11    1    3    3    0    0  0.39868033137E+01 -0.98648104267E+01 -0.18470728526E+00  0.10641578946E+02  0.51100000000E-03 0.  1.
        -12    1    3    3    0    0  0.31544843808E-01 -0.46467165808E+01  0.13839034258E+02  0.14598350566E+02  0.00000000000E+00 0.  1.
</event>
<event>
 7    1  0.1134395E-011  0.5930194E+02  0.7816164E-02  0.1266605E+00
        -11   -1    0    0    0    0  0.00000000000E+00  0.00000000000E+00  0.45593999997E+02  0.45594000000E+02  0.51100000000E-03 0. -1.
         11   -1    0    0    0    0 -0.00000000000E+00 -0.00000000000E+00 -0.45593999997E+02  0.45594000000E+02  0.51100000000E-03 0.  1.
    9900012    2    1    2    0    0  0.78036767570E+01 -0.27132104145E+02  0.14821346495E+02  0.59301941005E+02  0.49999994488E+02 0.  0.
         12    1    1    2    0    0 -0.78036767570E+01  0.27132104145E+02 -0.14821346495E+02  0.31886058995E+02  0.00000000000E+00 0. -1.
         11    1    3    3    0    0  0.14053431364E+02 -0.14357833380E+02  0.87272188543E+01  0.21904580837E+02  0.51100000000E-03 0. -1.
        -11    1    3    3    0    0  0.10680655674E+02 -0.16400965481E+02  0.36862925155E+01  0.19916245306E+02  0.51100000000E-03 0.  1.
         12    1    3    3    0    0 -0.16930410281E+02  0.36266947156E+01  0.24078351251E+01  0.17481114862E+02  0.00000000000E+00 0. -1.
</event>
<event>
 7    1  0.1134395E-011  0.5930197E+02  0.7816164E-02  0.1266605E+00
        -11   -1    0    0    0    0  0.00000000000E+00  0.00000000000E+00  0.45593999997E+02  0.45594000000E+02  0.51100000000E-03 0.  1.
         11   -1    0    0    0    0 -0.00000000000E+00 -0.00000000000E+00 -0.45593999997E+02  0.45594000000E+02  0.51100000000E-03 0. -1.
    9900012    2    1    2    0    0  0.25971642700E+02 -0.10494382446E+02  0.15233539280E+02  0.59301968474E+02  0.50000044585E+02 0.  0.
         12    1    1    2    0    0 -0.25971642700E+02  0.10494382446E+02 -0.15233539280E+02  0.31886031526E+02  0.00000000000E+00 0. -1.
         11    1    3    3    0    0  0.11468035252E+02 -0.10405045953E+02  0.10310607994E+02  0.18603479548E+02  0.51100000000E-03 0.  1.
        -11    1    3    3    0    0  0.10053845727E+02 -0.16956947660E+01 -0.16151042992E+02  0.19100036247E+02  0.51100000000E-03 0. -1.
         12    1    3    3    0    0  0.44497617211E+01  0.16063582732E+01  0.21073974278E+02  0.21598452680E+02  0.00000000000E+00 0. -1.
</event>
<event>
 7    1  0.1134395E-011  0.5930191E+02  0.7816164E-02  0.1266605E+00
        -11   -1    0    0    0    0  0.00000000000E+00  0.00000000000E+00  0.45593999997E+02  0.45594000000E+02  0.51100000000E-03 0.  1.
         11   -1    0    0    0    0 -0.00000000000E+00 -0.00000000000E+00 -0.45593999997E+02  0.45594000000E+02  0.51100000000E-03 0. -1.
    9900012    2    1    2    0    0 -0.29075827412E+02  0.98519804759E+01 -0.86172811939E+01  0.59301909080E+02  0.49999936264E+02 0.  0.
         12    1    1    2    0    0  0.29075827412E+02 -0.98519804759E+01  0.86172811939E+01  0.31886090920E+02  0.00000000000E+00 0. -1.
         11    1    3    3    0    0 -0.11980689367E+02 -0.57640410881E-01  0.13901444227E+02  0.18351849824E+02  0.51100000000E-03 0. -1.
        -11    1    3    3    0    0 -0.23187344791E+02  0.99190503783E+01 -0.10194663765E+02  0.27202420635E+02  0.51100000000E-03 0.  1.
         12    1    3    3    0    0  0.60922067463E+01 -0.94294915270E-02 -0.12324061655E+02  0.13747638620E+02  0.00000000000E+00 0. -1.
</event>
<event>
 7    1  0.1134395E-011  0.5930186E+02  0.7816164E-02  0.1266605E+00
        -11   -1    0    0    0    0  0.00000000000E+00  0.00000000000E+00  0.45593999997E+02  0.45594000000E+02  0.51100000000E-03 0.  1.
         11   -1    0    0    0    0 -0.00000000000E+00 -0.00000000000E+00 -0.45593999997E+02  0.45594000000E+02  0.51100000000E-03 0. -1.
    9900012    2    1    2    0    0  0.28345949517E+02 -0.10868875058E+02  0.97519525513E+01  0.59301860729E+02  0.49999848082E+02 0.  0.
         12    1    1    2    0    0 -0.28345949517E+02  0.10868875058E+02 -0.97519525513E+01  0.31886139271E+02  0.00000000000E+00 0. -1.
         11    1    3    3    0    0  0.89432787055E+01  0.57128610915E+01  0.13169647251E+02  0.16913267716E+02  0.51100000000E-03 0. -1.
        -11    1    3    3    0    0  0.35988323472E+01 -0.17230136325E+02  0.11190213702E+02  0.20857854036E+02  0.51100000000E-03 0.  1.
         12    1    3    3    0    0  0.15803838465E+02  0.64840017576E+00 -0.14607908401E+02  0.21530738976E+02  0.00000000000E+00 0. -1.
</event>
<event>
 7    1  0.1134395E-011  0.5930187E+02  0.7816164E-02  0.1266605E+00
        -11   -1    0    0    0    0  0.00000000000E+00  0.00000000000E+00  0.45593999997E+02  0.45594000000E+02  0.51100000000E-03 0.  1.
         11   -1    0    0    0    0 -0.00000000000E+00 -0.00000000000E+00 -0.45593999997E+02  0.45594000000E+02  0.51100000000E-03 0. -1.
    9900012    2    1    2    0    0  0.21282012687E+02 -0.23717474612E+02 -0.11325678690E+01  0.59301868595E+02  0.49999862429E+02 0.  0.
         12    1    1    2    0    0 -0.21282012687E+02  0.23717474612E+02  0.11325678690E+01  0.31886131405E+02  0.00000000000E+00 0. -1.
         11    1    3    3    0    0 -0.19122431081E+01  0.18863633312E+01 -0.12890857141E+02  0.13167734749E+02  0.51100000000E-03 0. -1.
        -11    1    3    3    0    0 -0.17647904466E+01 -0.16009014120E+02 -0.17055342814E+01  0.16196044760E+02  0.51100000000E-03 0.  1.
        -12    1    3    3    0    0  0.24959046242E+02 -0.95948238235E+01  0.13463823553E+02  0.29938089087E+02  0.00000000000E+00 0.  1.
</event>
<event>
 7    1  0.1134395E-011  0.5930194E+02  0.7816164E-02  0.1266605E+00
        -11   -1    0    0    0    0  0.00000000000E+00  0.00000000000E+00  0.45593999997E+02  0.45594000000E+02  0.51100000000E-03 0.  1.
         11   -1    0    0    0    0 -0.00000000000E+00 -0.00000000000E+00 -0.45593999997E+02  0.45594000000E+02  0.51100000000E-03 0. -1.
    9900012    2    1    2    0    0  0.16008705697E+02  0.11449363067E+02  0.25086933452E+02  0.59301940307E+02  0.49999993214E+02 0.  0.
         12    1    1    2    0    0 -0.16008705697E+02 -0.11449363067E+02 -0.25086933452E+02  0.31886059693E+02  0.00000000000E+00 0. -1.
         11    1    3    3    0    0  0.53116819339E+01  0.24919493815E+02  0.58896365354E+01  0.26151155916E+02  0.51100000000E-03 0. -1.
        -11    1    3    3    0    0  0.42309937968E+01  0.27580242450E+01  0.14063870555E+02  0.14943241332E+02  0.51100000000E-03 0.  1.
        -12    1    3    3    0    0  0.64660299667E+01 -0.16228154993E+02  0.51334263610E+01  0.18207543058E+02  0.00000000000E+00 0.  1.
</event>
<event>
 7    1  0.1134395E-011  0.5930197E+02  0.7816164E-02  0.1266605E+00
        -11   -1    0    0    0    0  0.00000000000E+00  0.00000000000E+00  0.45593999997E+02  0.45594000000E+02  0.51100000000E-03 0.  1.
         11   -1    0    0    0    0 -0.00000000000E+00 -0.00000000000E+00 -0.45593999997E+02  0.45594000000E+02  0.51100000000E-03 0. -1.
    9900012    2    1    2    0    0  0.27427728371E+02  0.55747639288E+00  0.16252013719E+02  0.59301968365E+02  0.50000044386E+02 0.  0.
         12    1    1    2    0    0 -0.27427728371E+02 -0.55747639288E+00 -0.16252013719E+02  0.31886031635E+02  0.00000000000E+00 0. -1.
         11    1    3    3    0    0 -0.17756316324E+01  0.95822514202E+00  0.20794783029E+02  0.20892440370E+02  0.51100000000E-03 0. -1.
        -11    1    3    3    0    0  0.15312409496E+01 -0.10792346318E+01  0.78580328580E+01  0.80782502372E+01  0.51100000000E-03 0.  1.
        -12    1    3    3    0    0  0.27672119053E+02  0.67848588263E+00 -0.12400802169E+02  0.30331277758E+02  0.00000000000E+00 0.  1.
</event>
<event>
 7    1  0.1134395E-011  0.5930197E+02  0.7816164E-02  0.1266605E+00
        -11   -1    0    0    0    0  0.00000000000E+00  0.00000000000E+00  0.45593999997E+02  0.45594000000E+02  0.51100000000E-03 0. -1.
         11   -1    0    0    0    0 -0.00000000000E+00 -0.00000000000E+00 -0.45593999997E+02  0.45594000000E+02  0.51100000000E-03 0.  1.
    9900012    2    1    2    0    0  0.26251991227E+02 -0.15120709357E+02 -0.99456525012E+01  0.59301970167E+02  0.50000047671E+02 0.  0.
         12    1    1    2    0    0 -0.26251991227E+02  0.15120709357E+02  0.99456525012E+01  0.31886029833E+02  0.00000000000E+00 0. -1.
         11    1    3    3    0    0  0.92084518992E+01  0.25769103704E+01 -0.12739964848E+02  0.15929305008E+02  0.51100000000E-03 0. -1.
        -11    1    3    3    0    0  0.13505982295E+01  0.87002909653E+01 -0.68809688614E+01  0.11174386390E+02  0.51100000000E-03 0.  1.
         12    1    3    3    0    0  0.15692941099E+02 -0.26397910692E+02  0.96752812082E+01  0.32198278769E+02  0.00000000000E+00 0. -1.
</event>
<event>
 7    1  0.1134395E-011  0.5930195E+02  0.7816164E-02  0.1266605E+00
        -11   -1    0    0    0    0  0.00000000000E+00  0.00000000000E+00  0.45593999997E+02  0.45594000000E+02  0.51100000000E-03 0.  1.
         11   -1    0    0    0    0 -0.00000000000E+00 -0.00000000000E+00 -0.45593999997E+02  0.45594000000E+02  0.51100000000E-03 0. -1.
    9900012    2    1    2    0    0  0.16540718622E+02  0.19551273361E+02  0.18996641385E+02  0.59301952166E+02  0.50000014842E+02 0.  0.
         12    1    1    2    0    0 -0.16540718622E+02 -0.19551273361E+02 -0.18996641385E+02  0.31886047834E+02  0.00000000000E+00 0. -1.
         11    1    3    3    0    0  0.60580826496E+01 -0.60431230694E+01 -0.85042873503E+01  0.12064104004E+02  0.51100000000E-03 0. -1.
        -11    1    3    3    0    0  0.41807148697E+01  0.27640997224E+02  0.12080063523E+02  0.30453752467E+02  0.51100000000E-03 0.  1.
         12    1    3    3    0    0  0.63019211028E+01 -0.20466007930E+01  0.15420865212E+02  0.16784095694E+02  0.00000000000E+00 0. -1.
</event>
<event>
 7    1  0.1134395E-011  0.5930196E+02  0.7816164E-02  0.1266605E+00
        -11   -1    0    0    0    0  0.00000000000E+00  0.00000000000E+00  0.45593999997E+02  0.45594000000E+02  0.51100000000E-03 0.  1.
         11   -1    0    0    0    0 -0.00000000000E+00 -0.00000000000E+00 -0.45593999997E+02  0.45594000000E+02  0.51100000000E-03 0. -1.
    9900012    2    1    2    0    0 -0.17846105596E+00  0.19846638161E+02  0.24955940146E+02  0.59301955354E+02  0.50000020656E+02 0.  0.
         12    1    1    2    0    0  0.17846105596E+00 -0.19846638161E+02 -0.24955940146E+02  0.31886044646E+02  0.00000000000E+00 0. -1.
         11    1    3    3    0    0 -0.11365473343E+00  0.53271520025E+01 -0.11187481910E+02  0.12391578495E+02  0.51100000000E-03 0. -1.
        -11    1    3    3    0    0  0.43959642615E+01 -0.13772156793E+01 -0.22430492796E+01  0.51237188787E+01  0.51100000000E-03 0.  1.
        -12    1    3    3    0    0 -0.44607705840E+01  0.15896701837E+02  0.38386471336E+02  0.41786657980E+02  0.00000000000E+00 0.  1.
</event>
<event>
 7    1  0.1134395E-011  0.5930193E+02  0.7816164E-02  0.1266605E+00
        -11   -1    0    0    0    0  0.00000000000E+00  0.00000000000E+00  0.45593999997E+02  0.45594000000E+02  0.51100000000E-03 0. -1.
         11   -1    0    0    0    0 -0.00000000000E+00 -0.00000000000E+00 -0.45593999997E+02  0.45594000000E+02  0.51100000000E-03 0.  1.
    9900012    2    1    2    0    0 -0.12592079619E+01  0.67373105729E+01 -0.31140719274E+02  0.59301931642E+02  0.49999977411E+02 0.  0.
         12    1    1    2    0    0  0.12592079619E+01 -0.67373105729E+01  0.31140719274E+02  0.31886068358E+02  0.00000000000E+00 0. -1.
         11    1    3    3    0    0 -0.11573608393E+02 -0.41580739139E+01 -0.86072848436E+01  0.15010774216E+02  0.51100000000E-03 0. -1.
        -11    1    3    3    0    0 -0.89743270218E+01  0.10052543804E+02  0.13918488702E+01  0.13547303273E+02  0.51100000000E-03 0.  1.
         12    1    3    3    0    0  0.19288727453E+02  0.84284068245E+00 -0.23925283300E+02  0.30743854153E+02  0.00000000000E+00 0. -1.
</event>
<event>
 7    1  0.1134395E-011  0.5930176E+02  0.7816164E-02  0.1266605E+00
        -11   -1    0    0    0    0  0.00000000000E+00  0.00000000000E+00  0.45593999997E+02  0.45594000000E+02  0.51100000000E-03 0.  1.
         11   -1    0    0    0    0 -0.00000000000E+00 -0.00000000000E+00 -0.45593999997E+02  0.45594000000E+02  0.51100000000E-03 0. -1.
    9900012    2    1    2    0    0 -0.23987545185E+02 -0.21006631397E+02  0.22718628150E+00  0.59301756881E+02  0.49999658688E+02 0.  0.
         12    1    1    2    0    0  0.23987545185E+02  0.21006631397E+02 -0.22718628150E+00  0.31886243119E+02  0.00000000000E+00 0. -1.
         11    1    3    3    0    0 -0.29330687744E+01 -0.62956259500E+01 -0.96549441293E+01  0.11893516929E+02  0.51100000000E-03 0. -1.
        -11    1    3    3    0    0  0.63733149185E+01  0.42760364320E+01  0.11708517229E+02  0.13999750233E+02  0.51100000000E-03 0.  1.
        -12    1    3    3    0    0 -0.27427791329E+02 -0.18987041879E+02 -0.18263868183E+01  0.33408489719E+02  0.00000000000E+00 0.  1.
</event>
<event>
 7    1  0.1134395E-011  0.5930193E+02  0.7816164E-02  0.1266605E+00
        -11   -1    0    0    0    0  0.00000000000E+00  0.00000000000E+00  0.45593999997E+02  0.45594000000E+02  0.51100000000E-03 0.  1.
         11   -1    0    0    0    0 -0.00000000000E+00 -0.00000000000E+00 -0.45593999997E+02  0.45594000000E+02  0.51100000000E-03 0. -1.
    9900012    2    1    2    0    0  0.23119560232E+02  0.21583762110E+02 -0.40433565254E+01  0.59301928054E+02  0.49999970867E+02 0.  0.
         12    1    1    2    0    0 -0.23119560232E+02 -0.21583762110E+02  0.40433565254E+01  0.31886071946E+02  0.00000000000E+00 0. -1.
         11    1    3    3    0    0  0.23365380780E+02  0.12289791946E+02  0.81192331557E+01  0.27620679795E+02  0.51100000000E-03 0. -1.
        -11    1    3    3    0    0 -0.78185066732E+01  0.11171683407E+02  0.35916756470E+01  0.14100910998E+02  0.51100000000E-03 0.  1.
         12    1    3    3    0    0  0.75726861258E+01 -0.18777132428E+01 -0.15754265328E+02  0.17580337261E+02  0.00000000000E+00 0. -1.
</event>
<event>
 7    1  0.1134395E-011  0.5930194E+02  0.7816164E-02  0.1266605E+00
        -11   -1    0    0    0    0  0.00000000000E+00  0.00000000000E+00  0.45593999997E+02  0.45594000000E+02  0.51100000000E-03 0. -1.
         11   -1    0    0    0    0 -0.00000000000E+00 -0.00000000000E+00 -0.45593999997E+02  0.45594000000E+02  0.51100000000E-03 0.  1.
    9900012    2    1    2    0    0  0.30080951849E+02 -0.39415719884E+01 -0.98143360125E+01  0.59301939640E+02  0.49999991998E+02 0.  0.
         12    1    1    2    0    0 -0.30080951849E+02  0.39415719884E+01  0.98143360125E+01  0.31886060360E+02  0.00000000000E+00 0. -1.
         11    1    3    3    0    0  0.59902481002E+01 -0.23406685091E+01 -0.63100074891E+01  0.90098832482E+01  0.51100000000E-03 0. -1.
        -11    1    3    3    0    0 -0.32970946740E+01 -0.15339475570E+02 -0.10479439075E+02  0.18867670435E+02  0.51100000000E-03 0.  1.
         12    1    3    3    0    0  0.27387798423E+02  0.13738572091E+02  0.69751105515E+01  0.31424385957E+02  0.00000000000E+00 0. -1.
</event>
<event>
 7    1  0.1134395E-011  0.5930199E+02  0.7816164E-02  0.1266605E+00
        -11   -1    0    0    0    0  0.00000000000E+00  0.00000000000E+00  0.45593999997E+02  0.45594000000E+02  0.51100000000E-03 0. -1.
         11   -1    0    0    0    0 -0.00000000000E+00 -0.00000000000E+00 -0.45593999997E+02  0.45594000000E+02  0.51100000000E-03 0.  1.
    9900012    2    1    2    0    0  0.59720787401E+01  0.29193469477E+02 -0.11348719427E+02  0.59301987123E+02  0.50000078595E+02 0.  0.
         12    1    1    2    0    0 -0.59720787401E+01 -0.29193469477E+02  0.11348719427E+02  0.31886012877E+02  0.00000000000E+00 0. -1.
         11    1    3    3    0    0 -0.38678137752E+01  0.83846027250E+01  0.10709421973E+02  0.14140483213E+02  0.51100000000E-03 0. -1.
        -11    1    3    3    0    0 -0.43708976705E+01 -0.61444327667E+01  0.79954953884E-02  0.75404817259E+01  0.51100000000E-03 0.  1.
         12    1    3    3    0    0  0.14210790186E+02  0.26953299519E+02 -0.22066136895E+02  0.37621022183E+02  0.00000000000E+00 0. -1.
</event>
<event>
 7    1  0.1134395E-011  0.5930194E+02  0.7816164E-02  0.1266605E+00
        -11   -1    0    0    0    0  0.00000000000E+00  0.00000000000E+00  0.45593999997E+02  0.45594000000E+02  0.51100000000E-03 0.  1.
         11   -1    0    0    0    0 -0.00000000000E+00 -0.00000000000E+00 -0.45593999997E+02  0.45594000000E+02  0.51100000000E-03 0. -1.
    9900012    2    1    2    0    0 -0.13136894264E+02  0.35939673574E+01  0.28830990612E+02  0.59301943299E+02  0.49999998671E+02 0.  0.
         12    1    1    2    0    0  0.13136894264E+02 -0.35939673574E+01 -0.28830990612E+02  0.31886056701E+02  0.00000000000E+00 0. -1.
         11    1    3    3    0    0  0.84791869626E+01 -0.11005579229E+02  0.22601780288E+02  0.26530357294E+02  0.51100000000E-03 0. -1.
        -11    1    3    3    0    0  0.74636669293E-01 -0.19237292748E+01 -0.33556858725E+01  0.38687120455E+01  0.51100000000E-03 0.  1.
        -12    1    3    3    0    0 -0.21690717895E+02  0.16523275861E+02  0.95848961964E+01  0.28902873959E+02  0.00000000000E+00 0.  1.
</event>
<event>
 7    1  0.1134395E-011  0.5930196E+02  0.7816164E-02  0.1266605E+00
        -11   -1    0    0    0    0  0.00000000000E+00  0.00000000000E+00  0.45593999997E+02  0.45594000000E+02  0.51100000000E-03 0. -1.
         11   -1    0    0    0    0 -0.00000000000E+00 -0.00000000000E+00 -0.45593999997E+02  0.45594000000E+02  0.51100000000E-03 0.  1.
    9900012    2    1    2    0    0 -0.16674736421E+02  0.13557896638E+01  0.27144691581E+02  0.59301964164E+02  0.50000036724E+02 0.  0.
         12    1    1    2    0    0  0.16674736421E+02 -0.13557896638E+01 -0.27144691581E+02  0.31886035836E+02  0.00000000000E+00 0. -1.
         11    1    3    3    0    0  0.51413360660E+01  0.48212400091E+01  0.80072079232E+01  0.10667383501E+02  0.51100000000E-03 0. -1.
        -11    1    3    3    0    0  0.69048302694E+01  0.81076128680E+01  0.13443587124E+02  0.17150513184E+02  0.51100000000E-03 0.  1.
         12    1    3    3    0    0 -0.28720902756E+02 -0.11573063213E+02  0.56938965339E+01  0.31484067479E+02  0.00000000000E+00 0. -1.
</event>
<event>
 7    1  0.1134395E-011  0.5930193E+02  0.7816164E-02  0.1266605E+00
        -11   -1    0    0    0    0  0.00000000000E+00  0.00000000000E+00  0.45593999997E+02  0.45594000000E+02  0.51100000000E-03 0.  1.
         11   -1    0    0    0    0 -0.00000000000E+00 -0.00000000000E+00 -0.45593999997E+02  0.45594000000E+02  0.51100000000E-03 0. -1.
    9900012    2    1    2    0    0  0.28939230974E+02  0.24142185876E+01  0.13168671320E+02  0.59301930235E+02  0.49999974845E+02 0.  0.
         12    1    1    2    0    0 -0.28939230974E+02 -0.24142185876E+01 -0.13168671320E+02  0.31886069765E+02  0.00000000000E+00 0. -1.
         11    1    3    3    0    0  0.28974191388E+02 -0.92744505340E+01 -0.18518465615E+01  0.30478657045E+02  0.51100000000E-03 0. -1.
        -11    1    3    3    0    0  0.77812179288E+01 -0.89942035393E-01 -0.54002920567E+00  0.78004534374E+01  0.51100000000E-03 0.  1.
        -12    1    3    3    0    0 -0.78161783431E+01  0.11778611157E+02  0.15560547088E+02  0.21022819752E+02  0.00000000000E+00 0.  1.
</event>
<event>
 7    1  0.1134395E-011  0.5930195E+02  0.7816164E-02  0.1266605E+00
        -11   -1    0    0    0    0  0.00000000000E+00  0.00000000000E+00  0.45593999997E+02  0.45594000000E+02  0.51100000000E-03 0.  1.
         11   -1    0    0    0    0 -0.00000000000E+00 -0.00000000000E+00 -0.45593999997E+02  0.45594000000E+02  0.51100000000E-03 0. -1.
    9900012    2    1    2    0    0 -0.19935202886E+02  0.22720916856E+02 -0.10152237415E+02  0.59301948169E+02  0.50000007552E+02 0.  0.
         12    1    1    2    0    0  0.19935202886E+02 -0.22720916856E+02  0.10152237415E+02  0.31886051831E+02  0.00000000000E+00 0. -1.
         11    1    3    3    0    0 -0.12067829315E+01  0.24473837509E+01  0.50544807036E+01  0.57440219108E+01  0.51100000000E-03 0. -1.
        -11    1    3    3    0    0 -0.17620615164E+02  0.17226102501E+02  0.11118219065E+02  0.27034043012E+02  0.51100000000E-03 0.  1.
         12    1    3    3    0    0 -0.11078047901E+01  0.30474306039E+01 -0.26324937183E+02  0.26523883246E+02  0.00000000000E+00 0. -1.
</event>
<event>
 7    1  0.1134395E-011  0.5930192E+02  0.7816164E-02  0.1266605E+00
        -11   -1    0    0    0    0  0.00000000000E+00  0.00000000000E+00  0.45593999997E+02  0.45594000000E+02  0.51100000000E-03 0.  1.
         11   -1    0    0    0    0 -0.00000000000E+00 -0.00000000000E+00 -0.45593999997E+02  0.45594000000E+02  0.51100000000E-03 0. -1.
    9900012    2    1    2    0    0 -0.87415542984E+01 -0.18484675180E+01  0.30608671887E+02  0.59301915285E+02  0.49999947581E+02 0.  0.
         12    1    1    2    0    0  0.87415542984E+01  0.18484675180E+01 -0.30608671887E+02  0.31886084715E+02  0.00000000000E+00 0. -1.
         11    1    3    3    0    0 -0.74557150555E+01 -0.22826680160E+01 -0.26696342337E-01  0.77973696344E+01  0.51100000000E-03 0. -1.
        -11    1    3    3    0    0 -0.14622974622E+02 -0.25757993982E+01  0.34277462634E+02  0.37355194742E+02  0.51100000000E-03 0.  1.
         12    1    3    3    0    0  0.13337135379E+02  0.30099998962E+01 -0.36420944038E+01  0.14149350909E+02  0.00000000000E+00 0. -1.
</event>
<event>
 7    1  0.1134395E-011  0.5930184E+02  0.7816164E-02  0.1266605E+00
        -11   -1    0    0    0    0  0.00000000000E+00  0.00000000000E+00  0.45593999997E+02  0.45594000000E+02  0.51100000000E-03 0.  1.
         11   -1    0    0    0    0 -0.00000000000E+00 -0.00000000000E+00 -0.45593999997E+02  0.45594000000E+02  0.51100000000E-03 0. -1.
    9900012    2    1    2    0    0  0.11252362760E+02 -0.22172918492E+02  0.19961792159E+02  0.59301841117E+02  0.49999812315E+02 0.  0.
         12    1    1    2    0    0 -0.11252362760E+02  0.22172918492E+02 -0.19961792159E+02  0.31886158883E+02  0.00000000000E+00 0. -1.
         11    1    3    3    0    0  0.66823232724E+01 -0.33741302133E+02  0.12212723239E+01  0.34418315187E+02  0.51100000000E-03 0.  1.
        -11    1    3    3    0    0  0.18495467574E+01  0.89825203454E+01  0.46127437697E+01  0.10265666092E+02  0.51100000000E-03 0. -1.
        -12    1    3    3    0    0  0.27204927306E+01  0.25858632963E+01  0.14127776065E+02  0.14617859838E+02  0.00000000000E+00 0.  1.
</event>
<event>
 7    1  0.1134395E-011  0.5930191E+02  0.7816164E-02  0.1266605E+00
        -11   -1    0    0    0    0  0.00000000000E+00  0.00000000000E+00  0.45593999997E+02  0.45594000000E+02  0.51100000000E-03 0. -1.
         11   -1    0    0    0    0 -0.00000000000E+00 -0.00000000000E+00 -0.45593999997E+02  0.45594000000E+02  0.51100000000E-03 0.  1.
    9900012    2    1    2    0    0 -0.29720701176E+01 -0.22982067617E+02 -0.21902380011E+02  0.59301907689E+02  0.49999933727E+02 0.  0.
         12    1    1    2    0    0  0.29720701176E+01  0.22982067617E+02  0.21902380011E+02  0.31886092311E+02  0.00000000000E+00 0. -1.
         11    1    3    3    0    0 -0.43507148949E+01  0.83853176206E+01  0.18385176675E+01  0.96240541961E+01  0.51100000000E-03 0. -1.
        -11    1    3    3    0    0  0.10170384170E+02 -0.10319414833E+02 -0.22591640035E+02  0.26838577392E+02  0.51100000000E-03 0.  1.
         12    1    3    3    0    0 -0.87917393932E+01 -0.21047970404E+02 -0.11492576432E+01  0.22839276101E+02  0.00000000000E+00 0. -1.
</event>
<event>
 7    1  0.1134395E-011  0.5930193E+02  0.7816164E-02  0.1266605E+00
        -11   -1    0    0    0    0  0.00000000000E+00  0.00000000000E+00  0.45593999997E+02  0.45594000000E+02  0.51100000000E-03 0. -1.
         11   -1    0    0    0    0 -0.00000000000E+00 -0.00000000000E+00 -0.45593999997E+02  0.45594000000E+02  0.51100000000E-03 0.  1.
    9900012    2    1    2    0    0  0.30530354543E+02  0.82756068166E+01 -0.40165884205E+01  0.59301934090E+02  0.49999981876E+02 0.  0.
         12    1    1    2    0    0 -0.30530354543E+02 -0.82756068166E+01  0.40165884205E+01  0.31886065910E+02  0.00000000000E+00 0. -1.
         11    1    3    3    0    0  0.32326080281E+01 -0.15473351921E+02 -0.77473506344E+01  0.17603857999E+02  0.51100000000E-03 0. -1.
        -11    1    3    3    0    0  0.54657499222E+01 -0.33956793349E+01 -0.11059879049E+01  0.65290328430E+01  0.51100000000E-03 0.  1.
        -12    1    3    3    0    0  0.21831996592E+02  0.27144638072E+02  0.48367501187E+01  0.35169043248E+02  0.00000000000E+00 0.  1.
</event>
<event>
 7    1  0.1631390E-011  0.5930195E+02  0.7816164E-02  0.1266605E+00
        -11   -1    0    0    0    0  0.00000000000E+00  0.00000000000E+00  0.45593999997E+02  0.45594000000E+02  0.51100000000E-03 0. -1.
         11   -1    0    0    0    0 -0.00000000000E+00 -0.00000000000E+00 -0.45593999997E+02  0.45594000000E+02  0.51100000000E-03 0.  1.
    9900012    2    1    2    0    0  0.29843798521E+02 -0.10492961223E+02 -0.39956867134E+01  0.59301951990E+02  0.50000014521E+02 0.  0.
         12    1    1    2    0    0 -0.29843798521E+02  0.10492961223E+02  0.39956867134E+01  0.31886048010E+02  0.00000000000E+00 0. -1.
         11    1    3    3    0    0 -0.74676277396E+01 -0.85763063740E+01  0.20005841405E+01  0.11546464058E+02  0.51100000000E-03 0. -1.
        -11    1    3    3    0    0  0.18330028573E+02 -0.81038958074E+01 -0.15793633585E+02  0.25516699176E+02  0.51100000000E-03 0.  1.
        -12    1    3    3    0    0  0.18981397687E+02  0.61872409587E+01  0.97973627312E+01  0.22238788756E+02  0.00000000000E+00 0.  1.
</event>
<event>
 7    1  0.1134395E-011  0.5930196E+02  0.7816164E-02  0.1266605E+00
        -11   -1    0    0    0    0  0.00000000000E+00  0.00000000000E+00  0.45593999997E+02  0.45594000000E+02  0.51100000000E-03 0.  1.
         11   -1    0    0    0    0 -0.00000000000E+00 -0.00000000000E+00 -0.45593999997E+02  0.45594000000E+02  0.51100000000E-03 0. -1.
    9900012    2    1    2    0    0  0.66725284561E+01 -0.12996942561E+01  0.31152973669E+02  0.59301959017E+02  0.50000027337E+02 0.  0.
         12    1    1    2    0    0 -0.66725284561E+01  0.12996942561E+01 -0.31152973669E+02  0.31886040983E+02  0.00000000000E+00 0. -1.
         11    1    3    3    0    0  0.49672421001E+00  0.10880174584E+02  0.19277214114E+02  0.22141271828E+02  0.51100000000E-03 0. -1.
        -11    1    3    3    0    0 -0.77900325977E+01 -0.18282387486E+02  0.53421016632E+01  0.20578346642E+02  0.51100000000E-03 0.  1.
         12    1    3    3    0    0  0.13965836844E+02  0.61025186459E+01  0.65336578916E+01  0.16582340547E+02  0.00000000000E+00 0. -1.
</event>
<event>
 7    1  0.1134395E-011  0.5930198E+02  0.7816164E-02  0.1266605E+00
        -11   -1    0    0    0    0  0.00000000000E+00  0.00000000000E+00  0.45593999997E+02  0.45594000000E+02  0.51100000000E-03 0.  1.
         11   -1    0    0    0    0 -0.00000000000E+00 -0.00000000000E+00 -0.45593999997E+02  0.45594000000E+02  0.51100000000E-03 0. -1.
    9900012    2    1    2    0    0  0.48275018334E+01  0.94277967336E+01  0.30075408481E+02  0.59301979231E+02  0.50000064202E+02 0.  0.
         12    1    1    2    0    0 -0.48275018334E+01 -0.94277967336E+01 -0.30075408481E+02  0.31886020769E+02  0.00000000000E+00 0. -1.
         11    1    3    3    0    0  0.63939175442E+01  0.15138820319E+02  0.63019021574E+01  0.17600569118E+02  0.51100000000E-03 0. -1.
        -11    1    3    3    0    0 -0.23952097211E+01 -0.77393212692E+01  0.32092200064E+02  0.33098994373E+02  0.51100000000E-03 0.  1.
         12    1    3    3    0    0  0.82879401034E+00  0.20282976834E+01 -0.83186937405E+01  0.86024157393E+01  0.00000000000E+00 0. -1.
</event>
<event>
 7    1  0.1134395E-011  0.5930194E+02  0.7816164E-02  0.1266605E+00
        -11   -1    0    0    0    0  0.00000000000E+00  0.00000000000E+00  0.45593999997E+02  0.45594000000E+02  0.51100000000E-03 0.  1.
         11   -1    0    0    0    0 -0.00000000000E+00 -0.00000000000E+00 -0.45593999997E+02  0.45594000000E+02  0.51100000000E-03 0. -1.
    9900012    2    1    2    0    0  0.28933085762E+02 -0.12813591091E+02  0.39254282853E+01  0.59301944183E+02  0.50000000283E+02 0.  0.
         12    1    1    2    0    0 -0.28933085762E+02  0.12813591091E+02 -0.39254282853E+01  0.31886055817E+02  0.00000000000E+00 0. -1.
         11    1    3    3    0    0  0.42313636043E+01 -0.57004742047E+01  0.10404637262E+02  0.12595885079E+02  0.51100000000E-03 0. -1.
        -11    1    3    3    0    0  0.21964112606E+02 -0.21353604916E+02 -0.91291783433E+01  0.31964677113E+02  0.51100000000E-03 0.  1.
         12    1    3    3    0    0  0.27376095515E+01  0.14240488029E+02  0.26499693670E+01  0.14741381991E+02  0.00000000000E+00 0. -1.
</event>
<event>
 7    1  0.1134395E-011  0.5930195E+02  0.7816164E-02  0.1266605E+00
        -11   -1    0    0    0    0  0.00000000000E+00  0.00000000000E+00  0.45593999997E+02  0.45594000000E+02  0.51100000000E-03 0. -1.
         11   -1    0    0    0    0 -0.00000000000E+00 -0.00000000000E+00 -0.45593999997E+02  0.45594000000E+02  0.51100000000E-03 0.  1.
    9900012    2    1    2    0    0  0.42733195901E+01 -0.31028427289E+02 -0.59745836905E+01  0.59301949592E+02  0.50000010148E+02 0.  0.
         12    1    1    2    0    0 -0.42733195901E+01  0.31028427289E+02  0.59745836905E+01  0.31886050408E+02  0.00000000000E+00 0. -1.
         11    1    3    3    0    0  0.11072300588E+02 -0.13971769392E+02  0.12316133882E+01  0.17869612533E+02  0.51100000000E-03 0. -1.
        -11    1    3    3    0    0 -0.52609073487E+01 -0.69398449806E+01 -0.21876233734E+02  0.23545874312E+02  0.51100000000E-03 0.  1.
         12    1    3    3    0    0 -0.15380736493E+01 -0.10116812916E+02  0.14670036655E+02  0.17886462747E+02  0.00000000000E+00 0. -1.
</event>
<event>
 7    1  0.1134395E-011  0.5930177E+02  0.7816164E-02  0.1266605E+00
        -11   -1    0    0    0    0  0.00000000000E+00  0.00000000000E+00  0.45593999997E+02  0.45594000000E+02  0.51100000000E-03 0. -1.
         11   -1    0    0    0    0 -0.00000000000E+00 -0.00000000000E+00 -0.45593999997E+02  0.45594000000E+02  0.51100000000E-03 0.  1.
    9900012    2    1    2    0    0  0.29931176333E+02 -0.79164171115E+01 -0.76280346561E+01  0.59301766462E+02  0.49999676161E+02 0.  0.
         12    1    1    2    0    0 -0.29931176333E+02  0.79164171115E+01  0.76280346561E+01  0.31886233538E+02  0.00000000000E+00 0. -1.
         11    1    3    3    0    0  0.74340666139E+01  0.63226832822E+01 -0.21362685946E+02  0.23486294331E+02  0.51100000000E-03 0. -1.
        -11    1    3    3    0    0  0.86866070905E+00 -0.34627430571E+01 -0.43541669976E+01  0.56306244246E+01  0.51100000000E-03 0.  1.
         12    1    3    3    0    0  0.21628449010E+02 -0.10776357337E+02  0.18088818287E+02  0.30184847706E+02  0.00000000000E+00 0. -1.
</event>
<event>
 7    1  0.1134395E-011  0.5930196E+02  0.7816164E-02  0.1266605E+00
        -11   -1    0    0    0    0  0.00000000000E+00  0.00000000000E+00  0.45593999997E+02  0.45594000000E+02  0.51100000000E-03 0. -1.
         11   -1    0    0    0    0 -0.00000000000E+00 -0.00000000000E+00 -0.45593999997E+02  0.45594000000E+02  0.51100000000E-03 0.  1.
    9900012    2    1    2    0    0  0.18496143973E+02 -0.17983850975E-01 -0.25973294092E+02  0.59301958049E+02  0.50000025572E+02 0.  0.
         12    1    1    2    0    0 -0.18496143973E+02  0.17983850975E-01  0.25973294092E+02  0.31886041951E+02  0.00000000000E+00 0. -1.
         11    1    3    3    0    0  0.21246501632E+02  0.20056436891E+02 -0.18871765952E+02  0.34782438713E+02  0.51100000000E-03 0.  1.
        -11    1    3    3    0    0 -0.38399400468E+01 -0.12655745366E+01 -0.34793497225E+01  0.53341066003E+01  0.51100000000E-03 0. -1.
        -12    1    3    3    0    0  0.10895823875E+01 -0.18808846206E+02 -0.36221784176E+01  0.19185412736E+02  0.00000000000E+00 0.  1.
</event>
<event>
 7    1  0.1134395E-011  0.5930196E+02  0.7816164E-02  0.1266605E+00
        -11   -1    0    0    0    0  0.00000000000E+00  0.00000000000E+00  0.45593999997E+02  0.45594000000E+02  0.51100000000E-03 0. -1.
         11   -1    0    0    0    0 -0.00000000000E+00 -0.00000000000E+00 -0.45593999997E+02  0.45594000000E+02  0.51100000000E-03 0.  1.
    9900012    2    1    2    0    0 -0.19894914410E+02  0.22502232104E+02 -0.10703345859E+02  0.59301957887E+02  0.50000025276E+02 0.  0.
         12    1    1    2    0    0  0.19894914410E+02 -0.22502232104E+02  0.10703345859E+02  0.31886042113E+02  0.00000000000E+00 0. -1.
         11    1    3    3    0    0 -0.22020424459E+02  0.20174155991E+02 -0.10510956771E+02  0.31660320210E+02  0.51100000000E-03 0. -1.
        -11    1    3    3    0    0  0.56443839074E+01  0.73625687028E+01 -0.11498731258E+02  0.14774549347E+02  0.51100000000E-03 0.  1.
         12    1    3    3    0    0 -0.35188738584E+01 -0.50344925894E+01  0.11306342169E+02  0.12867088331E+02  0.00000000000E+00 0. -1.
</event>
<event>
 7    1  0.1134395E-011  0.5930195E+02  0.7816164E-02  0.1266605E+00
        -11   -1    0    0    0    0  0.00000000000E+00  0.00000000000E+00  0.45593999997E+02  0.45594000000E+02  0.51100000000E-03 0.  1.
         11   -1    0    0    0    0 -0.00000000000E+00 -0.00000000000E+00 -0.45593999997E+02  0.45594000000E+02  0.51100000000E-03 0. -1.
    9900012    2    1    2    0    0 -0.29246283325E+02 -0.70016942581E+01  0.10599584421E+02  0.59301952883E+02  0.50000016150E+02 0.  0.
         12    1    1    2    0    0  0.29246283325E+02  0.70016942581E+01 -0.10599584421E+02  0.31886047117E+02  0.00000000000E+00 0. -1.
         11    1    3    3    0    0  0.36927226468E+01 -0.55395912833E+01  0.77315701721E+01  0.10202962791E+02  0.51100000000E-03 0. -1.
        -11    1    3    3    0    0 -0.40784898968E+02  0.49710194229E+00  0.37712033610E+01  0.40961897774E+02  0.51100000000E-03 0.  1.
         12    1    3    3    0    0  0.78458929962E+01 -0.19592049171E+01 -0.90318911179E+00  0.81370923177E+01  0.00000000000E+00 0. -1.
</event>
<event>
 7    1  0.1134395E-011  0.5930195E+02  0.7816164E-02  0.1266605E+00
        -11   -1    0    0    0    0  0.00000000000E+00  0.00000000000E+00  0.45593999997E+02  0.45594000000E+02  0.51100000000E-03 0. -1.
         11   -1    0    0    0    0 -0.00000000000E+00 -0.00000000000E+00 -0.45593999997E+02  0.45594000000E+02  0.51100000000E-03 0.  1.
    9900012    2    1    2    0    0  0.70884634920E+01 -0.19744342736E+02 -0.24013225213E+02  0.59301947095E+02  0.50000005593E+02 0.  0.
         12    1    1    2    0    0 -0.70884634920E+01  0.19744342736E+02  0.24013225213E+02  0.31886052905E+02  0.00000000000E+00 0. -1.
         11    1    3    3    0    0  0.19835757422E+01 -0.31318075418E+01  0.68821667509E+01  0.78170973290E+01  0.51100000000E-03 0. -1.
        -11    1    3    3    0    0  0.19807927628E+01  0.28859099911E+01  0.75180369054E+01  0.82929425187E+01  0.51100000000E-03 0.  1.
        -12    1    3    3    0    0  0.31240949870E+01 -0.19498445185E+02 -0.38413428869E+02  0.43191907247E+02  0.00000000000E+00 0.  1.
</event>
<event>
 7    1  0.1134395E-011  0.5930195E+02  0.7816164E-02  0.1266605E+00
        -11   -1    0    0    0    0  0.00000000000E+00  0.00000000000E+00  0.45593999997E+02  0.45594000000E+02  0.51100000000E-03 0.  1.
         11   -1    0    0    0    0 -0.00000000000E+00 -0.00000000000E+00 -0.45593999997E+02  0.45594000000E+02  0.51100000000E-03 0. -1.
    9900012    2    1    2    0    0 -0.31790446627E+01 -0.31716555706E+02  0.82094971185E+00  0.59301949927E+02  0.50000010759E+02 0.  0.
         12    1    1    2    0    0  0.31790446627E+01  0.31716555706E+02 -0.82094971185E+00  0.31886050073E+02  0.00000000000E+00 0. -1.
         11    1    3    3    0    0  0.97652293892E+01 -0.10046979225E+01 -0.57543146480E+00  0.98336282506E+01  0.51100000000E-03 0. -1.
        -11    1    3    3    0    0 -0.15040873854E+02  0.26965561417E+01 -0.33942383202E+01  0.15653119668E+02  0.51100000000E-03 0.  1.
        -12    1    3    3    0    0  0.20965998016E+01 -0.33408413925E+02  0.47906194969E+01  0.33815202009E+02  0.00000000000E+00 0.  1.
</event>
<event>
 7    1  0.1134395E-011  0.5930193E+02  0.7816164E-02  0.1266605E+00
        -11   -1    0    0    0    0  0.00000000000E+00  0.00000000000E+00  0.45593999997E+02  0.45594000000E+02  0.51100000000E-03 0. -1.
         11   -1    0    0    0    0 -0.00000000000E+00 -0.00000000000E+00 -0.45593999997E+02  0.45594000000E+02  0.51100000000E-03 0.  1.
    9900012    2    1    2    0    0  0.21297483446E+02  0.23720204009E+02 -0.70063017570E+00  0.59301925265E+02  0.49999965781E+02 0.  0.
         12    1    1    2    0    0 -0.21297483446E+02 -0.23720204009E+02  0.70063017570E+00  0.31886074735E+02  0.00000000000E+00 0. -1.
         11    1    3    3    0    0  0.90940467915E+01 -0.25777429321E+01  0.95370805309E+01  0.13427671093E+02  0.51100000000E-03 0. -1.
        -11    1    3    3    0    0 -0.10788292803E+02  0.16489431651E+02 -0.39094186325E+01  0.20089105806E+02  0.51100000000E-03 0.  1.
         12    1    3    3    0    0  0.22991729458E+02  0.98085152900E+01 -0.63282920741E+01  0.25785148366E+02  0.00000000000E+00 0. -1.
</event>
<event>
 7    1  0.1134395E-011  0.5930196E+02  0.7816164E-02  0.1266605E+00
        -11   -1    0    0    0    0  0.00000000000E+00  0.00000000000E+00  0.45593999997E+02  0.45594000000E+02  0.51100000000E-03 0.  1.
         11   -1    0    0    0    0 -0.00000000000E+00 -0.00000000000E+00 -0.45593999997E+02  0.45594000000E+02  0.51100000000E-03 0. -1.
    9900012    2    1    2    0    0 -0.23226975255E+02  0.14580596037E+02  0.16267546726E+02  0.59301964863E+02  0.50000037999E+02 0.  0.
         12    1    1    2    0    0  0.23226975255E+02 -0.14580596037E+02 -0.16267546726E+02  0.31886035137E+02  0.00000000000E+00 0. -1.
         11    1    3    3    0    0 -0.62339547566E+00 -0.35138646659E+01 -0.56771177814E+01  0.67056344498E+01  0.51100000000E-03 0. -1.
        -11    1    3    3    0    0 -0.12388970715E+02  0.14989178627E+02 -0.78314464081E+01  0.20964103234E+02  0.51100000000E-03 0.  1.
        -12    1    3    3    0    0 -0.10214609065E+02  0.31052820757E+01  0.29776110915E+02  0.31632227180E+02  0.00000000000E+00 0.  1.
</event>
<event>
 7    1  0.1134395E-011  0.5930195E+02  0.7816164E-02  0.1266605E+00
        -11   -1    0    0    0    0  0.00000000000E+00  0.00000000000E+00  0.45593999997E+02  0.45594000000E+02  0.51100000000E-03 0. -1.
         11   -1    0    0    0    0 -0.00000000000E+00 -0.00000000000E+00 -0.45593999997E+02  0.45594000000E+02  0.51100000000E-03 0.  1.
    9900012    2    1    2    0    0  0.17412902948E+02 -0.25983283649E+02 -0.61951345897E+01  0.59301954293E+02  0.50000018721E+02 0.  0.
         12    1    1    2    0    0 -0.17412902948E+02  0.25983283649E+02  0.61951345897E+01  0.31886045707E+02  0.00000000000E+00 0. -1.
         11    1    3    3    0    0  0.10502532194E+02  0.26417121969E+01  0.11973506864E+01  0.10895663117E+02  0.51100000000E-03 0. -1.
        -11    1    3    3    0    0  0.18377223327E+02 -0.24087142808E+01 -0.69317477216E+01  0.19788212866E+02  0.51100000000E-03 0.  1.
         12    1    3    3    0    0 -0.11466852573E+02 -0.26216281565E+02 -0.46073755449E+00  0.28618078310E+02  0.00000000000E+00 0. -1.
</event>
<event>
 7    1  0.1134395E-011  0.5930196E+02  0.7816164E-02  0.1266605E+00
        -11   -1    0    0    0    0  0.00000000000E+00  0.00000000000E+00  0.45593999997E+02  0.45594000000E+02  0.51100000000E-03 0.  1.
         11   -1    0    0    0    0 -0.00000000000E+00 -0.00000000000E+00 -0.45593999997E+02  0.45594000000E+02  0.51100000000E-03 0. -1.
    9900012    2    1    2    0    0  0.25172855948E+01 -0.20166100258E+02  0.24570541330E+02  0.59301955598E+02  0.50000021101E+02 0.  0.
         12    1    1    2    0    0 -0.25172855948E+01  0.20166100258E+02 -0.24570541330E+02  0.31886044402E+02  0.00000000000E+00 0. -1.
         11    1    3    3    0    0  0.69079337989E+01  0.97933378194E+01  0.11665170014E+02  0.16724389578E+02  0.51100000000E-03 0.  1.
        -11    1    3    3    0    0  0.84642672622E+01 -0.60719357331E+01 -0.33632692312E+01  0.10946405986E+02  0.51100000000E-03 0. -1.
         12    1    3    3    0    0 -0.12854915466E+02 -0.23887502344E+02  0.16268640546E+02  0.31631160034E+02  0.00000000000E+00 0. -1.
</event>
<event>
 7    1  0.1134395E-011  0.5930190E+02  0.7816164E-02  0.1266605E+00
        -11   -1    0    0    0    0  0.00000000000E+00  0.00000000000E+00  0.45593999997E+02  0.45594000000E+02  0.51100000000E-03 0.  1.
         11   -1    0    0    0    0 -0.00000000000E+00 -0.00000000000E+00 -0.45593999997E+02  0.45594000000E+02  0.51100000000E-03 0. -1.
    9900012    2    1    2    0    0  0.21429386895E+01 -0.30672597255E+02  0.84452834563E+01  0.59301902383E+02  0.49999924050E+02 0.  0.
         12    1    1    2    0    0 -0.21429386895E+01  0.30672597255E+02 -0.84452834563E+01  0.31886097617E+02  0.00000000000E+00 0. -1.
         11    1    3    3    0    0 -0.14197954117E+02 -0.15799128715E+02 -0.84207354564E+01  0.22849576695E+02  0.51100000000E-03 0. -1.
        -11    1    3    3    0    0 -0.30134207305E+01 -0.51549822608E+01 -0.33322349157E+01  0.68380067566E+01  0.51100000000E-03 0.  1.
        -12    1    3    3    0    0  0.19354313537E+02 -0.97184862790E+01  0.20198253828E+02  0.29614318931E+02  0.00000000000E+00 0.  1.
</event>
<event>
 7    1  0.1134395E-011  0.5930194E+02  0.7816164E-02  0.1266605E+00
        -11   -1    0    0    0    0  0.00000000000E+00  0.00000000000E+00  0.45593999997E+02  0.45594000000E+02  0.51100000000E-03 0.  1.
         11   -1    0    0    0    0 -0.00000000000E+00 -0.00000000000E+00 -0.45593999997E+02  0.45594000000E+02  0.51100000000E-03 0. -1.
    9900012    2    1    2    0    0 -0.11815845812E+02 -0.73312970896E+01  0.28694224027E+02  0.59301943145E+02  0.49999998389E+02 0.  0.
         12    1    1    2    0    0  0.11815845812E+02  0.73312970896E+01 -0.28694224027E+02  0.31886056855E+02  0.00000000000E+00 0. -1.
         11    1    3    3    0    0 -0.15869910150E+02  0.31102359217E+01 -0.13984710788E+01  0.16232169826E+02  0.51100000000E-03 0. -1.
        -11    1    3    3    0    0 -0.73830070881E+01  0.50619130359E+01  0.22821112601E+01  0.92379537404E+01  0.51100000000E-03 0.  1.
        -12    1    3    3    0    0  0.11437071425E+02 -0.15503446047E+02  0.27810583846E+02  0.33831819578E+02  0.00000000000E+00 0.  1.
</event>
<event>
 7    1  0.1134395E-011  0.5930196E+02  0.7816164E-02  0.1266605E+00
        -11   -1    0    0    0    0  0.00000000000E+00  0.00000000000E+00  0.45593999997E+02  0.45594000000E+02  0.51100000000E-03 0. -1.
         11   -1    0    0    0    0 -0.00000000000E+00 -0.00000000000E+00 -0.45593999997E+02  0.45594000000E+02  0.51100000000E-03 0.  1.
    9900012    2    1    2    0    0 -0.29481632281E+02  0.32718380747E+01 -0.11698192602E+02  0.59301964240E+02  0.50000036862E+02 0.  0.
         12    1    1    2    0    0  0.29481632281E+02 -0.32718380747E+01  0.11698192602E+02  0.31886035760E+02  0.00000000000E+00 0. -1.
         11    1    3    3    0    0 -0.15461407383E+02  0.17833775303E+00 -0.18291857941E+02  0.23951596811E+02  0.51100000000E-03 0. -1.
        -11    1    3    3    0    0 -0.14039440996E+02 -0.75644463730E+00 -0.10677899746E+02  0.17654904566E+02  0.51100000000E-03 0.  1.
         12    1    3    3    0    0  0.19216098099E-01  0.38499449590E+01  0.17271565085E+02  0.17695462863E+02  0.00000000000E+00 0. -1.
</event>
<event>
 7    1  0.1134395E-011  0.5930194E+02  0.7816164E-02  0.1266605E+00
        -11   -1    0    0    0    0  0.00000000000E+00  0.00000000000E+00  0.45593999997E+02  0.45594000000E+02  0.51100000000E-03 0. -1.
         11   -1    0    0    0    0 -0.00000000000E+00 -0.00000000000E+00 -0.45593999997E+02  0.45594000000E+02  0.51100000000E-03 0.  1.
    9900012    2    1    2    0    0  0.26676974476E+02 -0.13983560106E+02 -0.10465177682E+02  0.59301939341E+02  0.49999991453E+02 0.  0.
         12    1    1    2    0    0 -0.26676974476E+02  0.13983560106E+02  0.10465177682E+02  0.31886060659E+02  0.00000000000E+00 0. -1.
         11    1    3    3    0    0  0.68131929154E+01  0.10309686305E+02 -0.11399765684E+02  0.16812610961E+02  0.51100000000E-03 0. -1.
        -11    1    3    3    0    0  0.50515161278E+01 -0.14071134297E+02 -0.12933873364E+02  0.19768654887E+02  0.51100000000E-03 0.  1.
        -12    1    3    3    0    0  0.14812265432E+02 -0.10222112114E+02  0.13868461366E+02  0.22720673493E+02  0.00000000000E+00 0.  1.
</event>
<event>
 7    1  0.1134395E-011  0.5930194E+02  0.7816164E-02  0.1266605E+00
        -11   -1    0    0    0    0  0.00000000000E+00  0.00000000000E+00  0.45593999997E+02  0.45594000000E+02  0.51100000000E-03 0. -1.
         11   -1    0    0    0    0 -0.00000000000E+00 -0.00000000000E+00 -0.45593999997E+02  0.45594000000E+02  0.51100000000E-03 0.  1.
    9900012    2    1    2    0    0 -0.77629243277E+01 -0.27452147938E+02 -0.14242092381E+02  0.59301943236E+02  0.49999998557E+02 0.  0.
         12    1    1    2    0    0  0.77629243277E+01  0.27452147938E+02  0.14242092381E+02  0.31886056764E+02  0.00000000000E+00 0. -1.
         11    1    3    3    0    0  0.68580293447E+00 -0.10213976387E+01 -0.11246927094E+02  0.11314015561E+02  0.51100000000E-03 0. -1.
        -11    1    3    3    0    0  0.13603327374E+02 -0.16426854968E+01  0.35870007151E+01  0.14163880318E+02  0.51100000000E-03 0.  1.
        -12    1    3    3    0    0 -0.22052054636E+02 -0.24788064803E+02 -0.65821660021E+01  0.33824047357E+02  0.00000000000E+00 0.  1.
</event>
<event>
 7    1  0.1134395E-011  0.5930194E+02  0.7816164E-02  0.1266605E+00
        -11   -1    0    0    0    0  0.00000000000E+00  0.00000000000E+00  0.45593999997E+02  0.45594000000E+02  0.51100000000E-03 0. -1.
         11   -1    0    0    0    0 -0.00000000000E+00 -0.00000000000E+00 -0.45593999997E+02  0.45594000000E+02  0.51100000000E-03 0.  1.
    9900012    2    1    2    0    0  0.89116557828E+01  0.27765408532E+02 -0.12899039022E+02  0.59301941488E+02  0.49999995368E+02 0.  0.
         12    1    1    2    0    0 -0.89116557828E+01 -0.27765408532E+02  0.12899039022E+02  0.31886058512E+02  0.00000000000E+00 0. -1.
         11    1    3    3    0    0  0.75910993613E+00 -0.45823953406E+01  0.54961595290E+01  0.71959964413E+01  0.51100000000E-03 0. -1.
        -11    1    3    3    0    0  0.19166937399E+02  0.11433780714E+02 -0.17655383474E+02  0.28457255605E+02  0.51100000000E-03 0.  1.
        -12    1    3    3    0    0 -0.11014391552E+02  0.20914023159E+02 -0.73981507676E+00  0.23648689442E+02  0.00000000000E+00 0.  1.
</event>
<event>
 7    1  0.1134395E-011  0.5930194E+02  0.7816164E-02  0.1266605E+00
        -11   -1    0    0    0    0  0.00000000000E+00  0.00000000000E+00  0.45593999997E+02  0.45594000000E+02  0.51100000000E-03 0. -1.
         11   -1    0    0    0    0 -0.00000000000E+00 -0.00000000000E+00 -0.45593999997E+02  0.45594000000E+02  0.51100000000E-03 0.  1.
    9900012    2    1    2    0    0  0.18324258226E+02 -0.25829832998E+02  0.37097188997E+01  0.59301941501E+02  0.49999995392E+02 0.  0.
         12    1    1    2    0    0 -0.18324258226E+02  0.25829832998E+02 -0.37097188997E+01  0.31886058499E+02  0.00000000000E+00 0. -1.
         11    1    3    3    0    0 -0.47458838102E+01  0.35877185870E+01  0.27557431842E+01  0.65566194458E+01  0.51100000000E-03 0. -1.
        -11    1    3    3    0    0  0.26083486474E+02 -0.20454349956E+02 -0.13236985215E+02  0.35692386816E+02  0.51100000000E-03 0.  1.
         12    1    3    3    0    0 -0.30133444377E+01 -0.89632016293E+01  0.14190960931E+02  0.17052935239E+02  0.00000000000E+00 0. -1.
</event>
<event>
 7    1  0.1134395E-011  0.5930194E+02  0.7816164E-02  0.1266605E+00
        -11   -1    0    0    0    0  0.00000000000E+00  0.00000000000E+00  0.45593999997E+02  0.45594000000E+02  0.51100000000E-03 0.  1.
         11   -1    0    0    0    0 -0.00000000000E+00 -0.00000000000E+00 -0.45593999997E+02  0.45594000000E+02  0.51100000000E-03 0. -1.
    9900012    2    1    2    0    0 -0.67724593401E+01  0.17628662051E+02  0.25692116211E+02  0.59301940873E+02  0.49999994247E+02 0.  0.
         12    1    1    2    0    0  0.67724593401E+01 -0.17628662051E+02 -0.25692116211E+02  0.31886059127E+02  0.00000000000E+00 0. -1.
         11    1    3    3    0    0  0.55191639947E+01 -0.79709006159E+01  0.12431737538E+01  0.97745541624E+01  0.51100000000E-03 0. -1.
        -11    1    3    3    0    0  0.46150008806E+01  0.12306476546E+02  0.24744593123E+02  0.28018609658E+02  0.51100000000E-03 0.  1.
         12    1    3    3    0    0 -0.16906624215E+02  0.13293086121E+02 -0.29565066575E+00  0.21508777053E+02  0.00000000000E+00 0. -1.
</event>
<event>
 7    1  0.1134395E-011  0.5930192E+02  0.7816164E-02  0.1266605E+00
        -11   -1    0    0    0    0  0.00000000000E+00  0.00000000000E+00  0.45593999997E+02  0.45594000000E+02  0.51100000000E-03 0. -1.
         11   -1    0    0    0    0 -0.00000000000E+00 -0.00000000000E+00 -0.45593999997E+02  0.45594000000E+02  0.51100000000E-03 0.  1.
    9900012    2    1    2    0    0 -0.29156431998E+02  0.84804367737E+01 -0.97317298586E+01  0.59301923089E+02  0.49999961813E+02 0.  0.
         12    1    1    2    0    0  0.29156431998E+02 -0.84804367737E+01  0.97317298586E+01  0.31886076911E+02  0.00000000000E+00 0. -1.
         11    1    3    3    0    0  0.15496379479E+01  0.65810151351E+01  0.53375198866E+01  0.86139570918E+01  0.51100000000E-03 0. -1.
        -11    1    3    3    0    0 -0.25997295934E+02  0.17791214077E+02 -0.12607861877E+02  0.33931473230E+02  0.51100000000E-03 0.  1.
         12    1    3    3    0    0 -0.47087740126E+01 -0.15891792439E+02 -0.24613878684E+01  0.16756492767E+02  0.00000000000E+00 0. -1.
</event>
<event>
 7    1  0.1159108E-011  0.5930190E+02  0.7816164E-02  0.1266605E+00
        -11   -1    0    0    0    0  0.00000000000E+00  0.00000000000E+00  0.45593999997E+02  0.45594000000E+02  0.51100000000E-03 0. -1.
         11   -1    0    0    0    0 -0.00000000000E+00 -0.00000000000E+00 -0.45593999997E+02  0.45594000000E+02  0.51100000000E-03 0.  1.
    9900012    2    1    2    0    0 -0.23640769280E+02 -0.99698793411E+01 -0.18932487791E+02  0.59301897068E+02  0.49999914357E+02 0.  0.
         12    1    1    2    0    0  0.23640769280E+02  0.99698793411E+01  0.18932487791E+02  0.31886102932E+02  0.00000000000E+00 0. -1.
         11    1    3    3    0    0  0.43631108978E+01  0.29401055638E+01 -0.92491299039E+01  0.10640834632E+02  0.51100000000E-03 0. -1.
        -11    1    3    3    0    0 -0.13351887393E+02 -0.19622531214E+02 -0.18679956324E+02  0.30203599069E+02  0.51100000000E-03 0.  1.
        -12    1    3    3    0    0 -0.14651992784E+02  0.67125463087E+01  0.89965984373E+01  0.18457463367E+02  0.00000000000E+00 0.  1.
</event>
<event>
 7    1  0.1134395E-011  0.5930193E+02  0.7816164E-02  0.1266605E+00
        -11   -1    0    0    0    0  0.00000000000E+00  0.00000000000E+00  0.45593999997E+02  0.45594000000E+02  0.51100000000E-03 0. -1.
         11   -1    0    0    0    0 -0.00000000000E+00 -0.00000000000E+00 -0.45593999997E+02  0.45594000000E+02  0.51100000000E-03 0.  1.
    9900012    2    1    2    0    0 -0.17155076110E+02 -0.14064092861E+02 -0.22904712739E+02  0.59301933921E+02  0.49999981568E+02 0.  0.
         12    1    1    2    0    0  0.17155076110E+02  0.14064092861E+02  0.22904712739E+02  0.31886066079E+02  0.00000000000E+00 0. -1.
         11    1    3    3    0    0 -0.15072273516E+02 -0.16315404411E+01 -0.18847373650E+02  0.24187989725E+02  0.51100000000E-03 0. -1.
        -11    1    3    3    0    0 -0.58185214953E+01 -0.20341186122E+02  0.57979901102E+01  0.21937085832E+02  0.51100000000E-03 0.  1.
         12    1    3    3    0    0  0.37357189008E+01  0.79086337022E+01 -0.98553291986E+01  0.13176858364E+02  0.00000000000E+00 0. -1.
</event>
<event>
 7    1  0.1134395E-011  0.5930194E+02  0.7816164E-02  0.1266605E+00
        -11   -1    0    0    0    0  0.00000000000E+00  0.00000000000E+00  0.45593999997E+02  0.45594000000E+02  0.51100000000E-03 0. -1.
         11   -1    0    0    0    0 -0.00000000000E+00 -0.00000000000E+00 -0.45593999997E+02  0.45594000000E+02  0.51100000000E-03 0.  1.
    9900012    2    1    2    0    0 -0.19861673618E+02 -0.24835640759E+02 -0.23292906946E+01  0.59301941511E+02  0.49999995410E+02 0.  0.
         12    1    1    2    0    0  0.19861673618E+02  0.24835640759E+02  0.23292906946E+01  0.31886058489E+02  0.00000000000E+00 0. -1.
         11    1    3    3    0    0 -0.17073759825E+02 -0.18818880881E+01  0.45979102059E+01  0.17781888422E+02  0.51100000000E-03 0. -1.
        -11    1    3    3    0    0 -0.11049124927E+02 -0.19937020652E+01  0.86132071782E+01  0.14150807318E+02  0.51100000000E-03 0.  1.
        -12    1    3    3    0    0  0.82612111344E+01 -0.20960050606E+02 -0.15540408079E+02  0.27369245771E+02  0.00000000000E+00 0.  1.
</event>
<event>
 7    1  0.1134395E-011  0.5930195E+02  0.7816164E-02  0.1266605E+00
        -11   -1    0    0    0    0  0.00000000000E+00  0.00000000000E+00  0.45593999997E+02  0.45594000000E+02  0.51100000000E-03 0. -1.
         11   -1    0    0    0    0 -0.00000000000E+00 -0.00000000000E+00 -0.45593999997E+02  0.45594000000E+02  0.51100000000E-03 0.  1.
    9900012    2    1    2    0    0 -0.67788718659E+01 -0.28702812476E+02 -0.12120887566E+02  0.59301945631E+02  0.50000002925E+02 0.  0.
         12    1    1    2    0    0  0.67788718659E+01  0.28702812476E+02  0.12120887566E+02  0.31886054369E+02  0.00000000000E+00 0. -1.
         11    1    3    3    0    0  0.55000387163E+01 -0.36248375119E+01  0.10855467632E+02  0.12697678947E+02  0.51100000000E-03 0. -1.
        -11    1    3    3    0    0  0.64457524332E+01 -0.36250416855E+01  0.30759689660E+01  0.80093843080E+01  0.51100000000E-03 0.  1.
        -12    1    3    3    0    0 -0.18724663015E+02 -0.21452933279E+02 -0.26052324164E+02  0.38594882377E+02  0.00000000000E+00 0.  1.
</event>
<event>
 7    1  0.1134395E-011  0.5930213E+02  0.7816164E-02  0.1266604E+00
        -11   -1    0    0    0    0  0.00000000000E+00  0.00000000000E+00  0.45593999997E+02  0.45594000000E+02  0.51100000000E-03 0. -1.
         11   -1    0    0    0    0 -0.00000000000E+00 -0.00000000000E+00 -0.45593999997E+02  0.45594000000E+02  0.51100000000E-03 0.  1.
    9900012    2    1    2    0    0 -0.22167818874E+02  0.22242966294E+02  0.55269528679E+01  0.59302126150E+02  0.50000332145E+02 0.  0.
         12    1    1    2    0    0  0.22167818874E+02 -0.22242966294E+02 -0.55269528679E+01  0.31885873850E+02  0.00000000000E+00 0. -1.
         11    1    3    3    0    0 -0.15330482361E+02  0.60840083298E+01  0.66980369735E+01  0.17801756833E+02  0.51100000000E-03 0. -1.
        -11    1    3    3    0    0 -0.59729240472E+01  0.21920615366E+02  0.13001586623E+02  0.26176906897E+02  0.51100000000E-03 0.  1.
         12    1    3    3    0    0 -0.86441246587E+00 -0.57616574021E+01 -0.14172670729E+02  0.15323462419E+02  0.00000000000E+00 0. -1.
</event>
<event>
 7    1  0.1134395E-011  0.5930197E+02  0.7816164E-02  0.1266605E+00
        -11   -1    0    0    0    0  0.00000000000E+00  0.00000000000E+00  0.45593999997E+02  0.45594000000E+02  0.51100000000E-03 0.  1.
         11   -1    0    0    0    0 -0.00000000000E+00 -0.00000000000E+00 -0.45593999997E+02  0.45594000000E+02  0.51100000000E-03 0. -1.
    9900012    2    1    2    0    0 -0.24874023169E+02  0.19668874363E+02  0.33372675247E+01  0.59301968546E+02  0.50000044716E+02 0.  0.
         12    1    1    2    0    0  0.24874023169E+02 -0.19668874363E+02 -0.33372675247E+01  0.31886031454E+02  0.00000000000E+00 0. -1.
         11    1    3    3    0    0  0.77314931980E+01  0.10507442945E+01 -0.16408223725E+01  0.79732270106E+01  0.51100000000E-03 0. -1.
        -11    1    3    3    0    0  0.56933031074E+01  0.50948118404E+01  0.74053628958E+01  0.10640028564E+02  0.51100000000E-03 0.  1.
         12    1    3    3    0    0 -0.38298819475E+02  0.13523318229E+02 -0.24272729987E+01  0.40688712971E+02  0.00000000000E+00 0. -1.
</event>
<event>
 7    1  0.1134395E-011  0.5930194E+02  0.7816164E-02  0.1266605E+00
        -11   -1    0    0    0    0  0.00000000000E+00  0.00000000000E+00  0.45593999997E+02  0.45594000000E+02  0.51100000000E-03 0. -1.
         11   -1    0    0    0    0 -0.00000000000E+00 -0.00000000000E+00 -0.45593999997E+02  0.45594000000E+02  0.51100000000E-03 0.  1.
    9900012    2    1    2    0    0 -0.80954977266E+01 -0.27497059076E+02 -0.13967668451E+02  0.59301935595E+02  0.49999984620E+02 0.  0.
         12    1    1    2    0    0  0.80954977266E+01  0.27497059076E+02  0.13967668451E+02  0.31886064405E+02  0.00000000000E+00 0. -1.
         11    1    3    3    0    0  0.90285381717E+00  0.63083513989E+01 -0.55028500838E+01  0.84197269370E+01  0.51100000000E-03 0.  1.
        -11    1    3    3    0    0 -0.55651204129E+01 -0.15085732966E+02  0.14083850441E+02  0.21375330356E+02  0.51100000000E-03 0. -1.
         12    1    3    3    0    0 -0.34332311309E+01 -0.18719677509E+02 -0.22548668809E+02  0.29506878301E+02  0.00000000000E+00 0. -1.
</event>
<event>
 7    1  0.1134395E-011  0.5930197E+02  0.7816164E-02  0.1266605E+00
        -11   -1    0    0    0    0  0.00000000000E+00  0.00000000000E+00  0.45593999997E+02  0.45594000000E+02  0.51100000000E-03 0.  1.
         11   -1    0    0    0    0 -0.00000000000E+00 -0.00000000000E+00 -0.45593999997E+02  0.45594000000E+02  0.51100000000E-03 0. -1.
    9900012    2    1    2    0    0 -0.20865295676E+02  0.61181131881E+01  0.23322245842E+02  0.59301968203E+02  0.50000044090E+02 0.  0.
         12    1    1    2    0    0  0.20865295676E+02 -0.61181131881E+01 -0.23322245842E+02  0.31886031797E+02  0.00000000000E+00 0. -1.
         11    1    3    3    0    0  0.11833649052E+02  0.31731516672E+01  0.21027673683E+00  0.12253503905E+02  0.51100000000E-03 0. -1.
        -11    1    3    3    0    0 -0.32687814908E+01  0.10015421267E+02  0.79327102439E+01  0.13187929620E+02  0.51100000000E-03 0.  1.
         12    1    3    3    0    0 -0.29430163237E+02 -0.70704597456E+01  0.15179258861E+02  0.33860534679E+02  0.00000000000E+00 0. -1.
</event>
<event>
 7    1  0.1134395E-011  0.5930194E+02  0.7816164E-02  0.1266605E+00
        -11   -1    0    0    0    0  0.00000000000E+00  0.00000000000E+00  0.45593999997E+02  0.45594000000E+02  0.51100000000E-03 0. -1.
         11   -1    0    0    0    0 -0.00000000000E+00 -0.00000000000E+00 -0.45593999997E+02  0.45594000000E+02  0.51100000000E-03 0.  1.
    9900012    2    1    2    0    0  0.12593369434E+02  0.40202809550E+01 -0.29016640745E+02  0.59301936386E+02  0.49999986063E+02 0.  0.
         12    1    1    2    0    0 -0.12593369434E+02 -0.40202809550E+01  0.29016640745E+02  0.31886063614E+02  0.00000000000E+00 0. -1.
         11    1    3    3    0    0 -0.37859677595E+01 -0.78666224667E+01  0.12518454699E+01  0.88195475082E+01  0.51100000000E-03 0. -1.
        -11    1    3    3    0    0 -0.18674373778E+01 -0.93897644023E+00  0.68591826424E+01  0.71705917398E+01  0.51100000000E-03 0.  1.
        -12    1    3    3    0    0  0.18246774571E+02  0.12825879862E+02 -0.37127668858E+02  0.43311797138E+02  0.00000000000E+00 0.  1.
</event>
<event>
 7    1  0.1134395E-011  0.5930198E+02  0.7816164E-02  0.1266605E+00
        -11   -1    0    0    0    0  0.00000000000E+00  0.00000000000E+00  0.45593999997E+02  0.45594000000E+02  0.51100000000E-03 0. -1.
         11   -1    0    0    0    0 -0.00000000000E+00 -0.00000000000E+00 -0.45593999997E+02  0.45594000000E+02  0.51100000000E-03 0.  1.
    9900012    2    1    2    0    0  0.24382494105E+02 -0.11525641630E+02 -0.17010941900E+02  0.59301975191E+02  0.50000056835E+02 0.  0.
         12    1    1    2    0    0 -0.24382494105E+02  0.11525641630E+02  0.17010941900E+02  0.31886024809E+02  0.00000000000E+00 0. -1.
         11    1    3    3    0    0  0.92014942784E+00  0.69794000190E+01  0.43842083356E+01  0.82933697967E+01  0.51100000000E-03 0. -1.
        -11    1    3    3    0    0  0.18681323803E+02 -0.73922432373E+01  0.60778827487E+01  0.20989944689E+02  0.51100000000E-03 0.  1.
        -12    1    3    3    0    0  0.47810208745E+01 -0.11112798412E+02 -0.27473032985E+02  0.30018660705E+02  0.00000000000E+00 0.  1.
</event>
<event>
 7    1  0.1134395E-011  0.5930189E+02  0.7816164E-02  0.1266605E+00
        -11   -1    0    0    0    0  0.00000000000E+00  0.00000000000E+00  0.45593999997E+02  0.45594000000E+02  0.51100000000E-03 0. -1.
         11   -1    0    0    0    0 -0.00000000000E+00 -0.00000000000E+00 -0.45593999997E+02  0.45594000000E+02  0.51100000000E-03 0.  1.
    9900012    2    1    2    0    0 -0.28461536760E+02 -0.46959684773E+01  0.13587233465E+02  0.59301888479E+02  0.49999898693E+02 0.  0.
         12    1    1    2    0    0  0.28461536760E+02  0.46959684773E+01 -0.13587233465E+02  0.31886111521E+02  0.00000000000E+00 0. -1.
         11    1    3    3    0    0 -0.23486243048E+02 -0.17050546116E+02  0.23266284597E+02  0.37197375372E+02  0.51100000000E-03 0. -1.
        -11    1    3    3    0    0 -0.36611076621E+01 -0.41895092560E+00  0.24626889332E+01  0.44321627040E+01  0.51100000000E-03 0.  1.
         12    1    3    3    0    0 -0.13141860497E+01  0.12773528564E+02 -0.12141740065E+02  0.17672350403E+02  0.00000000000E+00 0. -1.
</event>
<event>
 7    1  0.1134395E-011  0.5930215E+02  0.7816164E-02  0.1266604E+00
        -11   -1    0    0    0    0  0.00000000000E+00  0.00000000000E+00  0.45593999997E+02  0.45594000000E+02  0.51100000000E-03 0.  1.
         11   -1    0    0    0    0 -0.00000000000E+00 -0.00000000000E+00 -0.45593999997E+02  0.45594000000E+02  0.51100000000E-03 0. -1.
    9900012    2    1    2    0    0 -0.26550467086E+02  0.15368828904E+02 -0.86936417543E+01  0.59302147160E+02  0.50000370464E+02 0.  0.
         12    1    1    2    0    0  0.26550467086E+02 -0.15368828904E+02  0.86936417543E+01  0.31885852840E+02  0.00000000000E+00 0. -1.
         11    1    3    3    0    0  0.92157927439E+01  0.18021275529E+01  0.48332028546E+01  0.10561171796E+02  0.51100000000E-03 0. -1.
        -11    1    3    3    0    0 -0.17218477733E+02  0.20517475852E+02 -0.10171444083E+02  0.28651371098E+02  0.51100000000E-03 0.  1.
        -12    1    3    3    0    0 -0.18547782097E+02 -0.69507745010E+01 -0.33554005262E+01  0.20089604266E+02  0.00000000000E+00 0.  1.
</event>
<event>
 7    1  0.1134395E-011  0.5930193E+02  0.7816164E-02  0.1266605E+00
        -11   -1    0    0    0    0  0.00000000000E+00  0.00000000000E+00  0.45593999997E+02  0.45594000000E+02  0.51100000000E-03 0.  1.
         11   -1    0    0    0    0 -0.00000000000E+00 -0.00000000000E+00 -0.45593999997E+02  0.45594000000E+02  0.51100000000E-03 0. -1.
    9900012    2    1    2    0    0 -0.96169640756E+01 -0.24811458631E+02  0.17567785620E+02  0.59301928291E+02  0.49999971300E+02 0.  0.
         12    1    1    2    0    0  0.96169640756E+01  0.24811458631E+02 -0.17567785620E+02  0.31886071709E+02  0.00000000000E+00 0. -1.
         11    1    3    3    0    0 -0.37304125269E+01 -0.21687227227E+02  0.15747842003E+02  0.27060050451E+02  0.51100000000E-03 0. -1.
        -11    1    3    3    0    0  0.10522263797E+02 -0.82990237506E-01  0.92162572831E+01  0.13988006340E+02  0.51100000000E-03 0.  1.
        -12    1    3    3    0    0 -0.16408815346E+02 -0.30412411672E+01 -0.73963136659E+01  0.18253871500E+02  0.00000000000E+00 0.  1.
</event>
<event>
 7    1  0.1134395E-011  0.5930198E+02  0.7816164E-02  0.1266605E+00
        -11   -1    0    0    0    0  0.00000000000E+00  0.00000000000E+00  0.45593999997E+02  0.45594000000E+02  0.51100000000E-03 0. -1.
         11   -1    0    0    0    0 -0.00000000000E+00 -0.00000000000E+00 -0.45593999997E+02  0.45594000000E+02  0.51100000000E-03 0.  1.
    9900012    2    1    2    0    0 -0.63582701898E+01  0.21145974261E+02 -0.23003011522E+02  0.59301978512E+02  0.50000062892E+02 0.  0.
         12    1    1    2    0    0  0.63582701898E+01 -0.21145974261E+02  0.23003011522E+02  0.31886021488E+02  0.00000000000E+00 0. -1.
         11    1    3    3    0    0 -0.32841969576E+01  0.27688154681E+01  0.64808787456E+00  0.43442268480E+01  0.51100000000E-03 0. -1.
        -11    1    3    3    0    0 -0.11872774661E+02  0.31182326458E+02 -0.11706330167E+02  0.35360124826E+02  0.51100000000E-03 0.  1.
         12    1    3    3    0    0  0.87987014285E+01 -0.12805167665E+02 -0.11944769229E+02  0.19597626838E+02  0.00000000000E+00 0. -1.
</event>
<event>
 7    1  0.1134395E-011  0.5930195E+02  0.7816164E-02  0.1266605E+00
        -11   -1    0    0    0    0  0.00000000000E+00  0.00000000000E+00  0.45593999997E+02  0.45594000000E+02  0.51100000000E-03 0. -1.
         11   -1    0    0    0    0 -0.00000000000E+00 -0.00000000000E+00 -0.45593999997E+02  0.45594000000E+02  0.51100000000E-03 0.  1.
    9900012    2    1    2    0    0  0.30866648194E+02 -0.25748828955E+01 -0.75723296978E+01  0.59301950233E+02  0.50000011318E+02 0.  0.
         12    1    1    2    0    0 -0.30866648194E+02  0.25748828955E+01  0.75723296978E+01  0.31886049767E+02  0.00000000000E+00 0. -1.
         11    1    3    3    0    0  0.95501433456E+01  0.43252160024E+01  0.17179898086E+02  0.20126142947E+02  0.51100000000E-03 0. -1.
        -11    1    3    3    0    0  0.67226361452E+01  0.72315865521E+01 -0.10130152824E+02  0.14146012770E+02  0.51100000000E-03 0.  1.
        -12    1    3    3    0    0  0.14593868703E+02 -0.14131685450E+02 -0.14622074960E+02  0.25029794516E+02  0.00000000000E+00 0.  1.
</event>
<event>
 7    1  0.1134395E-011  0.5930195E+02  0.7816164E-02  0.1266605E+00
        -11   -1    0    0    0    0  0.00000000000E+00  0.00000000000E+00  0.45593999997E+02  0.45594000000E+02  0.51100000000E-03 0.  1.
         11   -1    0    0    0    0 -0.00000000000E+00 -0.00000000000E+00 -0.45593999997E+02  0.45594000000E+02  0.51100000000E-03 0. -1.
    9900012    2    1    2    0    0  0.67548640553E+01  0.28441792331E+02  0.12734072005E+02  0.59301947732E+02  0.50000006756E+02 0.  0.
         12    1    1    2    0    0 -0.67548640553E+01 -0.28441792331E+02 -0.12734072005E+02  0.31886052268E+02  0.00000000000E+00 0. -1.
         11    1    3    3    0    0  0.29721992197E+01 -0.27995349974E+01 -0.11206122767E+02  0.11926799744E+02  0.51100000000E-03 0. -1.
        -11    1    3    3    0    0 -0.40987327152E+00 -0.19719942377E+01 -0.35340340906E+01  0.40676964718E+01  0.51100000000E-03 0.  1.
        -12    1    3    3    0    0  0.41925381070E+01  0.33213321566E+02  0.27474228863E+02  0.43307451516E+02  0.00000000000E+00 0.  1.
</event>
<event>
 7    1  0.1134395E-011  0.5930196E+02  0.7816164E-02  0.1266605E+00
        -11   -1    0    0    0    0  0.00000000000E+00  0.00000000000E+00  0.45593999997E+02  0.45594000000E+02  0.51100000000E-03 0.  1.
         11   -1    0    0    0    0 -0.00000000000E+00 -0.00000000000E+00 -0.45593999997E+02  0.45594000000E+02  0.51100000000E-03 0. -1.
    9900012    2    1    2    0    0 -0.92207642774E+01 -0.28413717286E+02  0.11151586965E+02  0.59301957352E+02  0.50000024301E+02 0.  0.
         12    1    1    2    0    0  0.92207642774E+01  0.28413717286E+02 -0.11151586965E+02  0.31886042648E+02  0.00000000000E+00 0. -1.
         11    1    3    3    0    0 -0.86091458251E+01 -0.28165311855E+02  0.39800010390E+01  0.29719397576E+02  0.51100000000E-03 0. -1.
        -11    1    3    3    0    0 -0.29822809753E+00 -0.14008183769E+02  0.73414034863E+01  0.15818165441E+02  0.51100000000E-03 0.  1.
        -12    1    3    3    0    0 -0.31339035474E+00  0.13759778338E+02 -0.16981756035E+00  0.13764394336E+02  0.00000000000E+00 0.  1.
</event>
<event>
 7    1  0.1134395E-011  0.5930179E+02  0.7816164E-02  0.1266605E+00
        -11   -1    0    0    0    0  0.00000000000E+00  0.00000000000E+00  0.45593999997E+02  0.45594000000E+02  0.51100000000E-03 0.  1.
         11   -1    0    0    0    0 -0.00000000000E+00 -0.00000000000E+00 -0.45593999997E+02  0.45594000000E+02  0.51100000000E-03 0. -1.
    9900012    2    1    2    0    0 -0.81192335219E+01  0.66840851489E+01  0.30102013591E+02  0.59301793429E+02  0.49999725344E+02 0.  0.
         12    1    1    2    0    0  0.81192335219E+01 -0.66840851489E+01 -0.30102013591E+02  0.31886206571E+02  0.00000000000E+00 0. -1.
         11    1    3    3    0    0 -0.12381684460E+02 -0.26320149136E+01  0.62635269418E+01  0.14123221396E+02  0.51100000000E-03 0. -1.
        -11    1    3    3    0    0 -0.33607949159E+01  0.22365563609E+02  0.10157161263E+02  0.24792767156E+02  0.51100000000E-03 0.  1.
         12    1    3    3    0    0  0.76232458542E+01 -0.13049463547E+02  0.13681325386E+02  0.20385804878E+02  0.00000000000E+00 0. -1.
</event>
<event>
 7    1  0.1134395E-011  0.5930200E+02  0.7816164E-02  0.1266605E+00
        -11   -1    0    0    0    0  0.00000000000E+00  0.00000000000E+00  0.45593999997E+02  0.45594000000E+02  0.51100000000E-03 0.  1.
         11   -1    0    0    0    0 -0.00000000000E+00 -0.00000000000E+00 -0.45593999997E+02  0.45594000000E+02  0.51100000000E-03 0. -1.
    9900012    2    1    2    0    0 -0.29378450868E+01  0.30734535517E+02  0.79670725438E+01  0.59302002256E+02  0.50000106194E+02 0.  0.
         12    1    1    2    0    0  0.29378450868E+01 -0.30734535517E+02 -0.79670725438E+01  0.31885997744E+02  0.00000000000E+00 0. -1.
         11    1    3    3    0    0  0.62578352290E+01  0.23080359962E+02 -0.43385610098E+00  0.23917603331E+02  0.51100000000E-03 0. -1.
        -11    1    3    3    0    0  0.61738253946E+01  0.10357941164E+02 -0.65929832345E+01  0.13743016166E+02  0.51100000000E-03 0.  1.
         12    1    3    3    0    0 -0.15369505710E+02 -0.27037656086E+01  0.14993911879E+02  0.21641382758E+02  0.00000000000E+00 0. -1.
</event>
<event>
 7    1  0.1134395E-011  0.5930195E+02  0.7816164E-02  0.1266605E+00
        -11   -1    0    0    0    0  0.00000000000E+00  0.00000000000E+00  0.45593999997E+02  0.45594000000E+02  0.51100000000E-03 0.  1.
         11   -1    0    0    0    0 -0.00000000000E+00 -0.00000000000E+00 -0.45593999997E+02  0.45594000000E+02  0.51100000000E-03 0. -1.
    9900012    2    1    2    0    0 -0.27454391963E+02  0.13026554182E+01  0.16164152912E+02  0.59301946801E+02  0.50000005059E+02 0.  0.
         12    1    1    2    0    0  0.27454391963E+02 -0.13026554182E+01 -0.16164152912E+02  0.31886053199E+02  0.00000000000E+00 0. -1.
         11    1    3    3    0    0  0.73495010090E+01  0.50271175459E+01  0.99800519764E+01  0.13374921069E+02  0.51100000000E-03 0. -1.
        -11    1    3    3    0    0 -0.14862945866E+02  0.12794348410E+02  0.29363251889E+01  0.19829889484E+02  0.51100000000E-03 0.  1.
        -12    1    3    3    0    0 -0.19940947106E+02 -0.16518810538E+02  0.32477757469E+01  0.26097136248E+02  0.00000000000E+00 0.  1.
</event>
<event>
 7    1  0.1134395E-011  0.5930194E+02  0.7816164E-02  0.1266605E+00
        -11   -1    0    0    0    0  0.00000000000E+00  0.00000000000E+00  0.45593999997E+02  0.45594000000E+02  0.51100000000E-03 0.  1.
         11   -1    0    0    0    0 -0.00000000000E+00 -0.00000000000E+00 -0.45593999997E+02  0.45594000000E+02  0.51100000000E-03 0. -1.
    9900012    2    1    2    0    0  0.18282119679E+02 -0.20057153072E+02  0.16739048981E+02  0.59301936429E+02  0.49999986141E+02 0.  0.
         12    1    1    2    0    0 -0.18282119679E+02  0.20057153072E+02 -0.16739048981E+02  0.31886063571E+02  0.00000000000E+00 0. -1.
         11    1    3    3    0    0  0.64148235860E+01 -0.35309222592E+02  0.50571532186E+01  0.36241770937E+02  0.51100000000E-03 0. -1.
        -11    1    3    3    0    0  0.64251667395E+01  0.56828228650E+01  0.31700494085E+01  0.91447502349E+01  0.51100000000E-03 0.  1.
        -12    1    3    3    0    0  0.54421293532E+01  0.95692466546E+01  0.85118463534E+01  0.13915415257E+02  0.00000000000E+00 0.  1.
</event>
<event>
 7    1  0.1134395E-011  0.5930192E+02  0.7816164E-02  0.1266605E+00
        -11   -1    0    0    0    0  0.00000000000E+00  0.00000000000E+00  0.45593999997E+02  0.45594000000E+02  0.51100000000E-03 0.  1.
         11   -1    0    0    0    0 -0.00000000000E+00 -0.00000000000E+00 -0.45593999997E+02  0.45594000000E+02  0.51100000000E-03 0. -1.
    9900012    2    1    2    0    0  0.18966693710E+02 -0.26154698552E+01  0.25497955506E+02  0.59301923292E+02  0.49999962182E+02 0.  0.
         12    1    1    2    0    0 -0.18966693710E+02  0.26154698552E+01 -0.25497955506E+02  0.31886076708E+02  0.00000000000E+00 0. -1.
         11    1    3    3    0    0  0.11015613563E+01  0.12686026244E+01  0.44011279661E+01  0.47109147387E+01  0.51100000000E-03 0. -1.
        -11    1    3    3    0    0 -0.10981466795E+02  0.12672717123E+02  0.10021428994E+02  0.19535081560E+02  0.51100000000E-03 0.  1.
         12    1    3    3    0    0  0.28846599148E+02 -0.16556789602E+02  0.11075398546E+02  0.35055926993E+02  0.00000000000E+00 0. -1.
</event>
<event>
 7    1  0.1248142E-011  0.5930197E+02  0.7816164E-02  0.1266605E+00
        -11   -1    0    0    0    0  0.00000000000E+00  0.00000000000E+00  0.45593999997E+02  0.45594000000E+02  0.51100000000E-03 0. -1.
         11   -1    0    0    0    0 -0.00000000000E+00 -0.00000000000E+00 -0.45593999997E+02  0.45594000000E+02  0.51100000000E-03 0.  1.
    9900012    2    1    2    0    0 -0.24587803866E+02  0.19979864304E+02 -0.36005667552E+01  0.59301966106E+02  0.50000040265E+02 0.  0.
         12    1    1    2    0    0  0.24587803866E+02 -0.19979864304E+02  0.36005667552E+01  0.31886033894E+02  0.00000000000E+00 0. -1.
         11    1    3    3    0    0  0.87111789020E+01 -0.13830670015E+01  0.67356385801E+01  0.11098033138E+02  0.51100000000E-03 0. -1.
        -11    1    3    3    0    0 -0.15767008364E+02  0.76715431549E+01  0.80977848179E+01  0.19313861508E+02  0.51100000000E-03 0.  1.
        -12    1    3    3    0    0 -0.17531974404E+02  0.13691388150E+02 -0.18433990153E+02  0.28890071460E+02  0.00000000000E+00 0.  1.
</event>
<event>
 7    1  0.1134395E-011  0.5930196E+02  0.7816164E-02  0.1266605E+00
        -11   -1    0    0    0    0  0.00000000000E+00  0.00000000000E+00  0.45593999997E+02  0.45594000000E+02  0.51100000000E-03 0.  1.
         11   -1    0    0    0    0 -0.00000000000E+00 -0.00000000000E+00 -0.45593999997E+02  0.45594000000E+02  0.51100000000E-03 0. -1.
    9900012    2    1    2    0    0 -0.14173168068E+02 -0.28078450343E+02  0.52384419900E+01  0.59301963224E+02  0.50000035010E+02 0.  0.
         12    1    1    2    0    0  0.14173168068E+02  0.28078450343E+02 -0.52384419900E+01  0.31886036776E+02  0.00000000000E+00 0. -1.
         11    1    3    3    0    0 -0.69582048650E+01 -0.18604783137E+02  0.80082395544E+01  0.21416966908E+02  0.51100000000E-03 0. -1.
        -11    1    3    3    0    0 -0.13833176209E+02 -0.11468525821E+02  0.11979617864E+02  0.21596182370E+02  0.51100000000E-03 0.  1.
         12    1    3    3    0    0  0.66182130057E+01  0.19948586147E+01 -0.14749415429E+02  0.16288813946E+02  0.00000000000E+00 0. -1.
</event>
<event>
 7    1  0.1134395E-011  0.5930194E+02  0.7816164E-02  0.1266605E+00
        -11   -1    0    0    0    0  0.00000000000E+00  0.00000000000E+00  0.45593999997E+02  0.45594000000E+02  0.51100000000E-03 0. -1.
         11   -1    0    0    0    0 -0.00000000000E+00 -0.00000000000E+00 -0.45593999997E+02  0.45594000000E+02  0.51100000000E-03 0.  1.
    9900012    2    1    2    0    0 -0.20987336825E+02  0.13269753696E+02 -0.20004146900E+02  0.59301944061E+02  0.50000000060E+02 0.  0.
         12    1    1    2    0    0  0.20987336825E+02 -0.13269753696E+02  0.20004146900E+02  0.31886055939E+02  0.00000000000E+00 0. -1.
         11    1    3    3    0    0 -0.58900199113E+00  0.17316187807E+02  0.15157265821E+01  0.17392375077E+02  0.51100000000E-03 0. -1.
        -11    1    3    3    0    0 -0.19593839801E+02  0.90782933615E+01 -0.79440506488E+01  0.23009604722E+02  0.51100000000E-03 0.  1.
        -12    1    3    3    0    0 -0.80449503305E+00 -0.13124727472E+02 -0.13575822834E+02  0.18899964262E+02  0.00000000000E+00 0.  1.
</event>
<event>
 7    1  0.1134395E-011  0.5930194E+02  0.7816164E-02  0.1266605E+00
        -11   -1    0    0    0    0  0.00000000000E+00  0.00000000000E+00  0.45593999997E+02  0.45594000000E+02  0.51100000000E-03 0. -1.
         11   -1    0    0    0    0 -0.00000000000E+00 -0.00000000000E+00 -0.45593999997E+02  0.45594000000E+02  0.51100000000E-03 0.  1.
    9900012    2    1    2    0    0  0.12657163946E+02  0.19681712033E+02 -0.21659800601E+02  0.59301944274E+02  0.50000000449E+02 0.  0.
         12    1    1    2    0    0 -0.12657163946E+02 -0.19681712033E+02  0.21659800601E+02  0.31886055726E+02  0.00000000000E+00 0. -1.
         11    1    3    3    0    0  0.26734597790E+01  0.11722593959E+02 -0.49196990500E+01  0.12991152193E+02  0.51100000000E-03 0.  1.
        -11    1    3    3    0    0  0.10787552842E+02  0.20714191631E+02  0.22041164138E+01  0.23458626572E+02  0.51100000000E-03 0. -1.
        -12    1    3    3    0    0 -0.80384867506E+00 -0.12755073557E+02 -0.18944217965E+02  0.22852165508E+02  0.00000000000E+00 0.  1.
</event>
<event>
 7    1  0.1134395E-011  0.5930192E+02  0.7816164E-02  0.1266605E+00
        -11   -1    0    0    0    0  0.00000000000E+00  0.00000000000E+00  0.45593999997E+02  0.45594000000E+02  0.51100000000E-03 0. -1.
         11   -1    0    0    0    0 -0.00000000000E+00 -0.00000000000E+00 -0.45593999997E+02  0.45594000000E+02  0.51100000000E-03 0.  1.
    9900012    2    1    2    0    0 -0.29121905701E+02 -0.76558471651E+01  0.10489272853E+02  0.59301917888E+02  0.49999952327E+02 0.  0.
         12    1    1    2    0    0  0.29121905701E+02  0.76558471651E+01 -0.10489272853E+02  0.31886082112E+02  0.00000000000E+00 0. -1.
         11    1    3    3    0    0 -0.62929700807E+01  0.32776284417E+00  0.25804803620E+02  0.26563071942E+02  0.51100000000E-03 0. -1.
        -11    1    3    3    0    0 -0.16732459594E+02  0.17426190956E+01 -0.56927597409E+01  0.17760051777E+02  0.51100000000E-03 0.  1.
        -12    1    3    3    0    0 -0.60964760262E+01 -0.97262291048E+01 -0.96227710257E+01  0.14978794169E+02  0.00000000000E+00 0.  1.
</event>
<event>
 7    1  0.1134395E-011  0.5930197E+02  0.7816164E-02  0.1266605E+00
        -11   -1    0    0    0    0  0.00000000000E+00  0.00000000000E+00  0.45593999997E+02  0.45594000000E+02  0.51100000000E-03 0.  1.
         11   -1    0    0    0    0 -0.00000000000E+00 -0.00000000000E+00 -0.45593999997E+02  0.45594000000E+02  0.51100000000E-03 0. -1.
    9900012    2    1    2    0    0  0.24708345102E+02  0.33961078315E+01  0.19866637224E+02  0.59301966369E+02  0.50000040745E+02 0.  0.
         12    1    1    2    0    0 -0.24708345102E+02 -0.33961078315E+01 -0.19866637224E+02  0.31886033631E+02  0.00000000000E+00 0. -1.
         11    1    3    3    0    0  0.58612568327E+01  0.42069272057E+01  0.27990162478E+01  0.77386730380E+01  0.51100000000E-03 0. -1.
        -11    1    3    3    0    0  0.19526607870E+02 -0.12506385124E+02  0.27433320854E+02  0.35920539767E+02  0.51100000000E-03 0.  1.
         12    1    3    3    0    0 -0.67951960058E+00  0.11695565750E+02 -0.10365699878E+02  0.15642753564E+02  0.00000000000E+00 0. -1.
</event>
<event>
 7    1  0.1134395E-011  0.5930195E+02  0.7816164E-02  0.1266605E+00
        -11   -1    0    0    0    0  0.00000000000E+00  0.00000000000E+00  0.45593999997E+02  0.45594000000E+02  0.51100000000E-03 0.  1.
         11   -1    0    0    0    0 -0.00000000000E+00 -0.00000000000E+00 -0.45593999997E+02  0.45594000000E+02  0.51100000000E-03 0. -1.
    9900012    2    1    2    0    0 -0.28352064806E+02  0.13236442886E+02  0.61381907921E+01  0.59301946854E+02  0.50000005154E+02 0.  0.
         12    1    1    2    0    0  0.28352064806E+02 -0.13236442886E+02 -0.61381907921E+01  0.31886053146E+02  0.00000000000E+00 0. -1.
         11    1    3    3    0    0 -0.14201240870E+01 -0.63542666451E+01  0.11979301418E+02  0.13634409402E+02  0.51100000000E-03 0.  1.
        -11    1    3    3    0    0  0.15141003113E+01 -0.55268323678E+01  0.33287207497E+01  0.66271228949E+01  0.51100000000E-03 0. -1.
         12    1    3    3    0    0 -0.28446041030E+02  0.25117541898E+02 -0.91698313756E+01  0.39040414557E+02  0.00000000000E+00 0. -1.
</event>
<event>
 7    1  0.1134395E-011  0.5930210E+02  0.7816164E-02  0.1266604E+00
        -11   -1    0    0    0    0  0.00000000000E+00  0.00000000000E+00  0.45593999997E+02  0.45594000000E+02  0.51100000000E-03 0. -1.
         11   -1    0    0    0    0 -0.00000000000E+00 -0.00000000000E+00 -0.45593999997E+02  0.45594000000E+02  0.51100000000E-03 0.  1.
    9900012    2    1    2    0    0  0.96257053512E+01 -0.26524312132E+02 -0.14849821987E+02  0.59302101069E+02  0.50000286405E+02 0.  0.
         12    1    1    2    0    0 -0.96257053512E+01  0.26524312132E+02  0.14849821987E+02  0.31885898931E+02  0.00000000000E+00 0. -1.
         11    1    3    3    0    0  0.59031255312E+01 -0.58943934196E+01  0.28928354101E+00  0.83471222616E+01  0.51100000000E-03 0. -1.
        -11    1    3    3    0    0  0.23369840962E+02 -0.15727431651E+02 -0.11264568638E+02  0.30337964332E+02  0.51100000000E-03 0.  1.
         12    1    3    3    0    0 -0.19647261142E+02 -0.49024870615E+01 -0.38745368901E+01  0.20617014476E+02  0.00000000000E+00 0. -1.
</event>
<event>
 7    1  0.1134395E-011  0.5930200E+02  0.7816164E-02  0.1266605E+00
        -11   -1    0    0    0    0  0.00000000000E+00  0.00000000000E+00  0.45593999997E+02  0.45594000000E+02  0.51100000000E-03 0.  1.
         11   -1    0    0    0    0 -0.00000000000E+00 -0.00000000000E+00 -0.45593999997E+02  0.45594000000E+02  0.51100000000E-03 0. -1.
    9900012    2    1    2    0    0  0.10390137963E+02 -0.30024510092E+02  0.27001265818E+01  0.59302002185E+02  0.50000106064E+02 0.  0.
         12    1    1    2    0    0 -0.10390137963E+02  0.30024510092E+02 -0.27001265818E+01  0.31885997815E+02  0.00000000000E+00 0. -1.
         11    1    3    3    0    0  0.22997698887E+01 -0.57741761614E+01 -0.93548421501E+01  0.11231345592E+02  0.51100000000E-03 0. -1.
        -11    1    3    3    0    0  0.19478685680E+01 -0.12301129599E+02 -0.14010740599E+02  0.18746008475E+02  0.51100000000E-03 0.  1.
        -12    1    3    3    0    0  0.61424995065E+01 -0.11949204331E+02  0.26065709330E+02  0.29324648118E+02  0.00000000000E+00 0.  1.
</event>
<event>
 7    1  0.1134395E-011  0.5930194E+02  0.7816164E-02  0.1266605E+00
        -11   -1    0    0    0    0  0.00000000000E+00  0.00000000000E+00  0.45593999997E+02  0.45594000000E+02  0.51100000000E-03 0. -1.
         11   -1    0    0    0    0 -0.00000000000E+00 -0.00000000000E+00 -0.45593999997E+02  0.45594000000E+02  0.51100000000E-03 0.  1.
    9900012    2    1    2    0    0 -0.97565507437E+01 -0.14398107944E+02  0.26724983321E+02  0.59301944610E+02  0.50000001063E+02 0.  0.
         12    1    1    2    0    0  0.97565507437E+01  0.14398107944E+02 -0.26724983321E+02  0.31886055390E+02  0.00000000000E+00 0. -1.
         11    1    3    3    0    0  0.10613446356E+02 -0.12911053923E+02  0.21425540865E+01  0.16850255049E+02  0.51100000000E-03 0. -1.
        -11    1    3    3    0    0 -0.70068890666E+01  0.11905594741E+02  0.17395122571E+02  0.22213283640E+02  0.51100000000E-03 0.  1.
         12    1    3    3    0    0 -0.13363108033E+02 -0.13392648762E+02  0.71873066639E+01  0.20238405921E+02  0.00000000000E+00 0. -1.
</event>
<event>
 7    1  0.1134395E-011  0.5930185E+02  0.7816164E-02  0.1266605E+00
        -11   -1    0    0    0    0  0.00000000000E+00  0.00000000000E+00  0.45593999997E+02  0.45594000000E+02  0.51100000000E-03 0.  1.
         11   -1    0    0    0    0 -0.00000000000E+00 -0.00000000000E+00 -0.45593999997E+02  0.45594000000E+02  0.51100000000E-03 0. -1.
    9900012    2    1    2    0    0 -0.30219288544E+02  0.16253507065E+01 -0.10043876164E+02  0.59301849190E+02  0.49999827039E+02 0.  0.
         12    1    1    2    0    0  0.30219288544E+02 -0.16253507065E+01  0.10043876164E+02  0.31886150810E+02  0.00000000000E+00 0. -1.
         11    1    3    3    0    0 -0.43976259397E+01  0.20857182620E+01 -0.21432688834E+02  0.21978386781E+02  0.51100000000E-03 0. -1.
        -11    1    3    3    0    0  0.95653102109E+00 -0.41575161195E+01  0.92745654832E+01  0.10208695168E+02  0.51100000000E-03 0.  1.
        -12    1    3    3    0    0 -0.26778193626E+02  0.36971485639E+01  0.21142471870E+01  0.27114767241E+02  0.00000000000E+00 0.  1.
</event>
<event>
 7    1  0.1134395E-011  0.5930195E+02  0.7816164E-02  0.1266605E+00
        -11   -1    0    0    0    0  0.00000000000E+00  0.00000000000E+00  0.45593999997E+02  0.45594000000E+02  0.51100000000E-03 0.  1.
         11   -1    0    0    0    0 -0.00000000000E+00 -0.00000000000E+00 -0.45593999997E+02  0.45594000000E+02  0.51100000000E-03 0. -1.
    9900012    2    1    2    0    0 -0.19937142916E+01 -0.19923214219E+02  0.24815539463E+02  0.59301947244E+02  0.50000005866E+02 0.  0.
         12    1    1    2    0    0  0.19937142916E+01  0.19923214219E+02 -0.24815539463E+02  0.31886052756E+02  0.00000000000E+00 0. -1.
         11    1    3    3    0    0 -0.14500375393E+02 -0.97425169807E+01  0.26920090224E+01  0.17675532142E+02  0.51100000000E-03 0.  1.
        -11    1    3    3    0    0  0.12406599329E+02  0.93290977893E+01  0.12165678971E+02  0.19722056626E+02  0.51100000000E-03 0. -1.
         12    1    3    3    0    0  0.10006177250E+00 -0.19509795027E+02  0.99578514695E+01  0.21904358476E+02  0.00000000000E+00 0. -1.
</event>
<event>
 7    1  0.1134395E-011  0.5930193E+02  0.7816164E-02  0.1266605E+00
        -11   -1    0    0    0    0  0.00000000000E+00  0.00000000000E+00  0.45593999997E+02  0.45594000000E+02  0.51100000000E-03 0.  1.
         11   -1    0    0    0    0 -0.00000000000E+00 -0.00000000000E+00 -0.45593999997E+02  0.45594000000E+02  0.51100000000E-03 0. -1.
    9900012    2    1    2    0    0 -0.31785174887E+02  0.83826743303E+00  0.23919907765E+01  0.59301926947E+02  0.49999968849E+02 0.  0.
         12    1    1    2    0    0  0.31785174887E+02 -0.83826743303E+00 -0.23919907765E+01  0.31886073053E+02  0.00000000000E+00 0. -1.
         11    1    3    3    0    0 -0.75184443524E+00 -0.26891960015E+01 -0.14024083124E+02  0.14299368970E+02  0.51100000000E-03 0. -1.
        -11    1    3    3    0    0 -0.20380326263E+02  0.59700233101E+01 -0.42190150338E+01  0.21651765864E+02  0.51100000000E-03 0.  1.
        -12    1    3    3    0    0 -0.10653004188E+02 -0.24425598756E+01  0.20635088935E+02  0.23350792113E+02  0.00000000000E+00 0.  1.
</event>
<event>
 7    1  0.1134395E-011  0.5930190E+02  0.7816164E-02  0.1266605E+00
        -11   -1    0    0    0    0  0.00000000000E+00  0.00000000000E+00  0.45593999997E+02  0.45594000000E+02  0.51100000000E-03 0. -1.
         11   -1    0    0    0    0 -0.00000000000E+00 -0.00000000000E+00 -0.45593999997E+02  0.45594000000E+02  0.51100000000E-03 0.  1.
    9900012    2    1    2    0    0  0.21255946078E+02 -0.23912579249E+01 -0.23647196573E+02  0.59301901714E+02  0.49999922830E+02 0.  0.
         12    1    1    2    0    0 -0.21255946078E+02  0.23912579249E+01  0.23647196573E+02  0.31886098286E+02  0.00000000000E+00 0. -1.
         11    1    3    3    0    0  0.19680040104E+02 -0.60168529744E+01  0.11622441777E+02  0.23634458981E+02  0.51100000000E-03 0. -1.
        -11    1    3    3    0    0  0.15127646327E+01  0.32672046386E+01 -0.16239886546E+02  0.16634211682E+02  0.51100000000E-03 0.  1.
        -12    1    3    3    0    0  0.63141341293E-01  0.35839041088E+00 -0.19029751804E+02  0.19033231051E+02  0.00000000000E+00 0.  1.
</event>
<event>
 7    1  0.1134395E-011  0.5930193E+02  0.7816164E-02  0.1266605E+00
        -11   -1    0    0    0    0  0.00000000000E+00  0.00000000000E+00  0.45593999997E+02  0.45594000000E+02  0.51100000000E-03 0.  1.
         11   -1    0    0    0    0 -0.00000000000E+00 -0.00000000000E+00 -0.45593999997E+02  0.45594000000E+02  0.51100000000E-03 0. -1.
    9900012    2    1    2    0    0  0.12369022547E+02  0.20611432408E+02  0.20949878258E+02  0.59301933079E+02  0.49999980032E+02 0.  0.
         12    1    1    2    0    0 -0.12369022547E+02 -0.20611432408E+02 -0.20949878258E+02  0.31886066921E+02  0.00000000000E+00 0. -1.
         11    1    3    3    0    0 -0.46459250901E+01  0.88899759938E+01  0.59099355215E+01  0.11642320698E+02  0.51100000000E-03 0. -1.
        -11    1    3    3    0    0 -0.62306649647E+01  0.19043958871E+02  0.11296116075E+02  0.23002082384E+02  0.51100000000E-03 0.  1.
         12    1    3    3    0    0  0.23245612601E+02 -0.73225024563E+01  0.37438266620E+01  0.24657529996E+02  0.00000000000E+00 0. -1.
</event>
<event>
 7    1  0.1134395E-011  0.5930195E+02  0.7816164E-02  0.1266605E+00
        -11   -1    0    0    0    0  0.00000000000E+00  0.00000000000E+00  0.45593999997E+02  0.45594000000E+02  0.51100000000E-03 0.  1.
         11   -1    0    0    0    0 -0.00000000000E+00 -0.00000000000E+00 -0.45593999997E+02  0.45594000000E+02  0.51100000000E-03 0. -1.
    9900012    2    1    2    0    0 -0.25878129362E+02 -0.18511432642E+02  0.20904024732E+01  0.59301945050E+02  0.50000001865E+02 0.  0.
         12    1    1    2    0    0  0.25878129362E+02  0.18511432642E+02 -0.20904024732E+01  0.31886054950E+02  0.00000000000E+00 0. -1.
         11    1    3    3    0    0 -0.37856912951E+01 -0.44647892369E+01 -0.12305690371E+02  0.13627025254E+02  0.51100000000E-03 0. -1.
        -11    1    3    3    0    0 -0.28690869973E+02 -0.19477239932E+02  0.10150186558E+02  0.36132467154E+02  0.51100000000E-03 0.  1.
         12    1    3    3    0    0  0.65984319061E+01  0.54305965265E+01  0.42459062853E+01  0.95424526426E+01  0.00000000000E+00 0. -1.
</event>
<event>
 7    1  0.1134395E-011  0.5930191E+02  0.7816164E-02  0.1266605E+00
        -11   -1    0    0    0    0  0.00000000000E+00  0.00000000000E+00  0.45593999997E+02  0.45594000000E+02  0.51100000000E-03 0. -1.
         11   -1    0    0    0    0 -0.00000000000E+00 -0.00000000000E+00 -0.45593999997E+02  0.45594000000E+02  0.51100000000E-03 0.  1.
    9900012    2    1    2    0    0 -0.11882868384E+02 -0.19812128223E+02 -0.21977250160E+02  0.59301913530E+02  0.49999944380E+02 0.  0.
         12    1    1    2    0    0  0.11882868384E+02  0.19812128223E+02  0.21977250160E+02  0.31886086470E+02  0.00000000000E+00 0. -1.
         11    1    3    3    0    0  0.87208802291E+01 -0.17372191658E+02 -0.39423185162E+01  0.19834028096E+02  0.51100000000E-03 0. -1.
        -11    1    3    3    0    0 -0.14770076377E+02 -0.13722822506E+02 -0.17593849024E+02  0.26758447965E+02  0.51100000000E-03 0.  1.
         12    1    3    3    0    0 -0.58336722354E+01  0.11282885941E+02 -0.44108261954E+00  0.12709437469E+02  0.00000000000E+00 0. -1.
</event>
<event>
 7    1  0.1134395E-011  0.5930194E+02  0.7816164E-02  0.1266605E+00
        -11   -1    0    0    0    0  0.00000000000E+00  0.00000000000E+00  0.45593999997E+02  0.45594000000E+02  0.51100000000E-03 0.  1.
         11   -1    0    0    0    0 -0.00000000000E+00 -0.00000000000E+00 -0.45593999997E+02  0.45594000000E+02  0.51100000000E-03 0. -1.
    9900012    2    1    2    0    0  0.10207730690E+02 -0.21034127476E+01  0.30134672987E+02  0.59301943062E+02  0.49999998239E+02 0.  0.
         12    1    1    2    0    0 -0.10207730690E+02  0.21034127476E+01 -0.30134672987E+02  0.31886056938E+02  0.00000000000E+00 0. -1.
         11    1    3    3    0    0  0.29098483670E+00  0.17845711977E+02  0.19358671610E+00  0.17849133991E+02  0.51100000000E-03 0. -1.
        -11    1    3    3    0    0 -0.16506886965E+01  0.21827629222E+01  0.39190166514E+00  0.27645640386E+01  0.51100000000E-03 0.  1.
        -12    1    3    3    0    0  0.11567434550E+02 -0.22131887647E+02  0.29549184605E+02  0.38688245033E+02  0.00000000000E+00 0.  1.
</event>
<event>
 7    1  0.1134395E-011  0.5930194E+02  0.7816164E-02  0.1266605E+00
        -11   -1    0    0    0    0  0.00000000000E+00  0.00000000000E+00  0.45593999997E+02  0.45594000000E+02  0.51100000000E-03 0. -1.
         11   -1    0    0    0    0 -0.00000000000E+00 -0.00000000000E+00 -0.45593999997E+02  0.45594000000E+02  0.51100000000E-03 0.  1.
    9900012    2    1    2    0    0  0.80032003734E+01  0.28111133368E+02 -0.12744945811E+02  0.59301942245E+02  0.49999996748E+02 0.  0.
         12    1    1    2    0    0 -0.80032003734E+01 -0.28111133368E+02  0.12744945811E+02  0.31886057755E+02  0.00000000000E+00 0. -1.
         11    1    3    3    0    0 -0.54877592639E+01 -0.25438186869E+01  0.85422244583E+01  0.10466905665E+02  0.51100000000E-03 0. -1.
        -11    1    3    3    0    0 -0.84835065695E+00 -0.24205334310E+01 -0.11072667212E+02  0.11365854142E+02  0.51100000000E-03 0.  1.
         12    1    3    3    0    0  0.14339310294E+02  0.33075485486E+02 -0.10214503057E+02  0.37469182438E+02  0.00000000000E+00 0. -1.
</event>
<event>
 7    1  0.1134395E-011  0.5930202E+02  0.7816164E-02  0.1266604E+00
        -11   -1    0    0    0    0  0.00000000000E+00  0.00000000000E+00  0.45593999997E+02  0.45594000000E+02  0.51100000000E-03 0.  1.
         11   -1    0    0    0    0 -0.00000000000E+00 -0.00000000000E+00 -0.45593999997E+02  0.45594000000E+02  0.51100000000E-03 0. -1.
    9900012    2    1    2    0    0 -0.31310087742E+02 -0.56484070067E+01  0.21188590147E+01  0.59302020955E+02  0.50000140296E+02 0.  0.
         12    1    1    2    0    0  0.31310087742E+02  0.56484070067E+01 -0.21188590147E+01  0.31885979045E+02  0.00000000000E+00 0. -1.
         11    1    3    3    0    0 -0.10077452950E+02 -0.86892481894E+01 -0.58559014125E+01  0.14537870328E+02  0.51100000000E-03 0. -1.
        -11    1    3    3    0    0 -0.13926746921E+02 -0.13116356473E+02  0.16338654267E+02  0.25158392446E+02  0.51100000000E-03 0.  1.
         12    1    3    3    0    0 -0.73058878716E+01  0.16157197656E+02 -0.83638938403E+01  0.19605758181E+02  0.00000000000E+00 0. -1.
</event>
<event>
 7    1  0.1134395E-011  0.5930200E+02  0.7816164E-02  0.1266605E+00
        -11   -1    0    0    0    0  0.00000000000E+00  0.00000000000E+00  0.45593999997E+02  0.45594000000E+02  0.51100000000E-03 0.  1.
         11   -1    0    0    0    0 -0.00000000000E+00 -0.00000000000E+00 -0.45593999997E+02  0.45594000000E+02  0.51100000000E-03 0. -1.
    9900012    2    1    2    0    0 -0.77985527123E+01  0.15789614921E+02  0.26581714392E+02  0.59302001446E+02  0.50000104718E+02 0.  0.
         12    1    1    2    0    0  0.77985527123E+01 -0.15789614921E+02 -0.26581714392E+02  0.31885998554E+02  0.00000000000E+00 0. -1.
         11    1    3    3    0    0 -0.19062401218E+01  0.68895246941E+01 -0.26926937134E+00  0.71534472926E+01  0.51100000000E-03 0. -1.
        -11    1    3    3    0    0 -0.91133676325E+01  0.25871510237E+02  0.16590643137E+02  0.32056792596E+02  0.51100000000E-03 0.  1.
         12    1    3    3    0    0  0.32210550419E+01 -0.16971420010E+02  0.10260340626E+02  0.20091761558E+02  0.00000000000E+00 0. -1.
</event>
<event>
 7    1  0.1134395E-011  0.5930197E+02  0.7816164E-02  0.1266605E+00
        -11   -1    0    0    0    0  0.00000000000E+00  0.00000000000E+00  0.45593999997E+02  0.45594000000E+02  0.51100000000E-03 0.  1.
         11   -1    0    0    0    0 -0.00000000000E+00 -0.00000000000E+00 -0.45593999997E+02  0.45594000000E+02  0.51100000000E-03 0. -1.
    9900012    2    1    2    0    0  0.55736682437E+01  0.11796409507E+02  0.29094636942E+02  0.59301969302E+02  0.50000046093E+02 0.  0.
         12    1    1    2    0    0 -0.55736682437E+01 -0.11796409507E+02 -0.29094636942E+02  0.31886030698E+02  0.00000000000E+00 0. -1.
         11    1    3    3    0    0 -0.51550235490E+01 -0.78222564608E+01 -0.37536536879E+00  0.93756526893E+01  0.51100000000E-03 0. -1.
        -11    1    3    3    0    0  0.31532531821E+01  0.46939899944E+01  0.32438704757E+02  0.32927892648E+02  0.51100000000E-03 0.  1.
         12    1    3    3    0    0  0.75754386106E+01  0.14924675973E+02 -0.29687024464E+01  0.16998423964E+02  0.00000000000E+00 0. -1.
</event>
<event>
 7    1  0.1134395E-011  0.5930195E+02  0.7816164E-02  0.1266605E+00
        -11   -1    0    0    0    0  0.00000000000E+00  0.00000000000E+00  0.45593999997E+02  0.45594000000E+02  0.51100000000E-03 0. -1.
         11   -1    0    0    0    0 -0.00000000000E+00 -0.00000000000E+00 -0.45593999997E+02  0.45594000000E+02  0.51100000000E-03 0.  1.
    9900012    2    1    2    0    0  0.68324979671E+01  0.20670853945E+02 -0.23297061495E+02  0.59301948103E+02  0.50000007432E+02 0.  0.
         12    1    1    2    0    0 -0.68324979671E+01 -0.20670853945E+02  0.23297061495E+02  0.31886051897E+02  0.00000000000E+00 0. -1.
         11    1    3    3    0    0  0.14382700819E+02  0.40583503370E+00 -0.30285572378E+02  0.33529728294E+02  0.51100000000E-03 0.  1.
        -11    1    3    3    0    0  0.13692775936E+01  0.11989553529E+02  0.62316275324E+01  0.13581513057E+02  0.51100000000E-03 0. -1.
        -12    1    3    3    0    0 -0.89194804455E+01  0.82754653826E+01  0.75688335101E+00  0.12190706752E+02  0.00000000000E+00 0.  1.
</event>
<event>
 7    1  0.1134395E-011  0.5930194E+02  0.7816164E-02  0.1266605E+00
        -11   -1    0    0    0    0  0.00000000000E+00  0.00000000000E+00  0.45593999997E+02  0.45594000000E+02  0.51100000000E-03 0.  1.
         11   -1    0    0    0    0 -0.00000000000E+00 -0.00000000000E+00 -0.45593999997E+02  0.45594000000E+02  0.51100000000E-03 0. -1.
    9900012    2    1    2    0    0  0.28164519013E+02  0.14524813300E+01 -0.14878533365E+02  0.59301943669E+02  0.49999999346E+02 0.  0.
         12    1    1    2    0    0 -0.28164519013E+02 -0.14524813300E+01  0.14878533365E+02  0.31886056331E+02  0.00000000000E+00 0. -1.
         11    1    3    3    0    0  0.16431648570E+02 -0.98390097903E+01 -0.11254014793E+02  0.22213915405E+02  0.51100000000E-03 0. -1.
        -11    1    3    3    0    0  0.85876866428E+01 -0.40551699573E+01 -0.14982019538E+02  0.17738480064E+02  0.51100000000E-03 0.  1.
        -12    1    3    3    0    0  0.31451837999E+01  0.15346661078E+02  0.11357500966E+02  0.19349548200E+02  0.00000000000E+00 0.  1.
</event>
<event>
 7    1  0.1134395E-011  0.5930195E+02  0.7816164E-02  0.1266605E+00
        -11   -1    0    0    0    0  0.00000000000E+00  0.00000000000E+00  0.45593999997E+02  0.45594000000E+02  0.51100000000E-03 0.  1.
         11   -1    0    0    0    0 -0.00000000000E+00 -0.00000000000E+00 -0.45593999997E+02  0.45594000000E+02  0.51100000000E-03 0. -1.
    9900012    2    1    2    0    0 -0.58283776400E+00 -0.56502521770E+01  0.31376024309E+02  0.59301953664E+02  0.50000017574E+02 0.  0.
         12    1    1    2    0    0  0.58283776400E+00  0.56502521770E+01 -0.31376024309E+02  0.31886046336E+02  0.00000000000E+00 0. -1.
         11    1    3    3    0    0  0.29741456016E+01 -0.75921628125E+01 -0.21165654085E+01  0.84241514481E+01  0.51100000000E-03 0. -1.
        -11    1    3    3    0    0  0.88893917353E+01 -0.14813339755E+02  0.17424150189E+02  0.24536856567E+02  0.51100000000E-03 0.  1.
         12    1    3    3    0    0 -0.12446375101E+02  0.16755250390E+02  0.16068439528E+02  0.26340945649E+02  0.00000000000E+00 0. -1.
</event>
<event>
 7    1  0.1134395E-011  0.5930194E+02  0.7816164E-02  0.1266605E+00
        -11   -1    0    0    0    0  0.00000000000E+00  0.00000000000E+00  0.45593999997E+02  0.45594000000E+02  0.51100000000E-03 0.  1.
         11   -1    0    0    0    0 -0.00000000000E+00 -0.00000000000E+00 -0.45593999997E+02  0.45594000000E+02  0.51100000000E-03 0. -1.
    9900012    2    1    2    0    0 -0.19099752929E+02 -0.92839313369E+01 -0.23785050942E+02  0.59301943622E+02  0.49999999261E+02 0.  0.
         12    1    1    2    0    0  0.19099752929E+02  0.92839313369E+01  0.23785050942E+02  0.31886056378E+02  0.00000000000E+00 0. -1.
         11    1    3    3    0    0  0.14684197139E+02 -0.53192696039E+00 -0.14385605863E+02  0.20563420149E+02  0.51100000000E-03 0. -1.
        -11    1    3    3    0    0 -0.11595391192E+02  0.35630387803E+01 -0.19139397373E+01  0.12280533695E+02  0.51100000000E-03 0.  1.
        -12    1    3    3    0    0 -0.22188558875E+02 -0.12315043157E+02 -0.74855053414E+01  0.26457989779E+02  0.00000000000E+00 0.  1.
</event>
<event>
 7    1  0.1134395E-011  0.5930190E+02  0.7816164E-02  0.1266605E+00
        -11   -1    0    0    0    0  0.00000000000E+00  0.00000000000E+00  0.45593999997E+02  0.45594000000E+02  0.51100000000E-03 0. -1.
         11   -1    0    0    0    0 -0.00000000000E+00 -0.00000000000E+00 -0.45593999997E+02  0.45594000000E+02  0.51100000000E-03 0.  1.
    9900012    2    1    2    0    0 -0.22182935800E+02  0.12007651590E+02 -0.19505312984E+02  0.59301896882E+02  0.49999914018E+02 0.  0.
         12    1    1    2    0    0  0.22182935800E+02 -0.12007651590E+02  0.19505312984E+02  0.31886103118E+02  0.00000000000E+00 0. -1.
         11    1    3    3    0    0 -0.38256048602E+01 -0.46770100939E+01 -0.40677808703E-01  0.60424606669E+01  0.51100000000E-03 0. -1.
        -11    1    3    3    0    0 -0.16451700116E+02 -0.98477967099E+01  0.17239444092E+01  0.19251221295E+02  0.51100000000E-03 0.  1.
        -12    1    3    3    0    0 -0.19056308236E+01  0.26532458394E+02 -0.21188579585E+02  0.34008214921E+02  0.00000000000E+00 0.  1.
</event>
<event>
 7    1  0.1134395E-011  0.5930193E+02  0.7816164E-02  0.1266605E+00
        -11   -1    0    0    0    0  0.00000000000E+00  0.00000000000E+00  0.45593999997E+02  0.45594000000E+02  0.51100000000E-03 0.  1.
         11   -1    0    0    0    0 -0.00000000000E+00 -0.00000000000E+00 -0.45593999997E+02  0.45594000000E+02  0.51100000000E-03 0. -1.
    9900012    2    1    2    0    0  0.77949420472E+01 -0.48404931188E+01  0.30537351026E+02  0.59301932465E+02  0.49999978913E+02 0.  0.
         12    1    1    2    0    0 -0.77949420472E+01  0.48404931188E+01 -0.30537351026E+02  0.31886067535E+02  0.00000000000E+00 0. -1.
         11    1    3    3    0    0 -0.11237109575E+02 -0.23948117581E+01 -0.38069742273E+00  0.11495768167E+02  0.51100000000E-03 0. -1.
        -11    1    3    3    0    0 -0.31690281262E+01 -0.42495063945E+01  0.23857988776E+02  0.24439817359E+02  0.51100000000E-03 0.  1.
         12    1    3    3    0    0  0.22201079748E+02  0.18038250338E+01  0.70600596726E+01  0.23366346940E+02  0.00000000000E+00 0. -1.
</event>
<event>
 7    1  0.1134395E-011  0.5930194E+02  0.7816164E-02  0.1266605E+00
        -11   -1    0    0    0    0  0.00000000000E+00  0.00000000000E+00  0.45593999997E+02  0.45594000000E+02  0.51100000000E-03 0.  1.
         11   -1    0    0    0    0 -0.00000000000E+00 -0.00000000000E+00 -0.45593999997E+02  0.45594000000E+02  0.51100000000E-03 0. -1.
    9900012    2    1    2    0    0  0.12756155130E+02  0.29193888145E+02  0.13107829718E+01  0.59301941123E+02  0.49999994703E+02 0.  0.
         12    1    1    2    0    0 -0.12756155130E+02 -0.29193888145E+02 -0.13107829718E+01  0.31886058877E+02  0.00000000000E+00 0. -1.
         11    1    3    3    0    0  0.15686586435E+02  0.11008286283E+02  0.13686224622E+02  0.23549184817E+02  0.51100000000E-03 0.  1.
        -11    1    3    3    0    0 -0.13823993001E+02  0.43381462706E+01 -0.48451217552E+00  0.14496794400E+02  0.51100000000E-03 0. -1.
         12    1    3    3    0    0  0.10893561697E+02  0.13847455591E+02 -0.11890929475E+02  0.21255961906E+02  0.00000000000E+00 0. -1.
</event>
<event>
 7    1  0.1134395E-011  0.5930195E+02  0.7816164E-02  0.1266605E+00
        -11   -1    0    0    0    0  0.00000000000E+00  0.00000000000E+00  0.45593999997E+02  0.45594000000E+02  0.51100000000E-03 0.  1.
         11   -1    0    0    0    0 -0.00000000000E+00 -0.00000000000E+00 -0.45593999997E+02  0.45594000000E+02  0.51100000000E-03 0. -1.
    9900012    2    1    2    0    0  0.70794021478E+01 -0.30072813266E+02 -0.78884704200E+01  0.59301952925E+02  0.50000016226E+02 0.  0.
         12    1    1    2    0    0 -0.70794021478E+01  0.30072813266E+02  0.78884704200E+01  0.31886047075E+02  0.00000000000E+00 0. -1.
         11    1    3    3    0    0 -0.26787233784E+00 -0.27148780337E+01 -0.20743400924E+02  0.20922021902E+02  0.51100000000E-03 0. -1.
        -11    1    3    3    0    0 -0.48531698527E+01 -0.93685319899E+01  0.12871887623E+02  0.16643561533E+02  0.51100000000E-03 0.  1.
        -12    1    3    3    0    0  0.12200444338E+02 -0.17989403243E+02 -0.16957119104E-01  0.21736369490E+02  0.00000000000E+00 0.  1.
</event>
<event>
 7    1  0.1134395E-011  0.5930194E+02  0.7816164E-02  0.1266605E+00
        -11   -1    0    0    0    0  0.00000000000E+00  0.00000000000E+00  0.45593999997E+02  0.45594000000E+02  0.51100000000E-03 0.  1.
         11   -1    0    0    0    0 -0.00000000000E+00 -0.00000000000E+00 -0.45593999997E+02  0.45594000000E+02  0.51100000000E-03 0. -1.
    9900012    2    1    2    0    0  0.63022398562E+01  0.24870328161E+02  0.18933284835E+02  0.59301941531E+02  0.49999995447E+02 0.  0.
         12    1    1    2    0    0 -0.63022398562E+01 -0.24870328161E+02 -0.18933284835E+02  0.31886058469E+02  0.00000000000E+00 0. -1.
         11    1    3    3    0    0  0.30927932161E+01  0.54598818252E+01  0.26894787887E+01  0.68270766686E+01  0.51100000000E-03 0. -1.
        -11    1    3    3    0    0  0.19721011593E+02  0.23481301062E+02  0.17701223246E+02  0.35406540391E+02  0.51100000000E-03 0.  1.
         12    1    3    3    0    0 -0.16511564953E+02 -0.40708547261E+01 -0.14574171996E+01  0.17068324472E+02  0.00000000000E+00 0. -1.
</event>
<event>
 7    1  0.1134395E-011  0.5930194E+02  0.7816164E-02  0.1266605E+00
        -11   -1    0    0    0    0  0.00000000000E+00  0.00000000000E+00  0.45593999997E+02  0.45594000000E+02  0.51100000000E-03 0. -1.
         11   -1    0    0    0    0 -0.00000000000E+00 -0.00000000000E+00 -0.45593999997E+02  0.45594000000E+02  0.51100000000E-03 0.  1.
    9900012    2    1    2    0    0 -0.16645295732E+02 -0.13302499457E+02 -0.23721262274E+02  0.59301942770E+02  0.49999997706E+02 0.  0.
         12    1    1    2    0    0  0.16645295732E+02  0.13302499457E+02  0.23721262274E+02  0.31886057230E+02  0.00000000000E+00 0. -1.
         11    1    3    3    0    0 -0.26493777827E+02 -0.15180229974E+00 -0.97620910978E+01  0.28235469366E+02  0.51100000000E-03 0. -1.
        -11    1    3    3    0    0 -0.46818187330E+00 -0.17048853384E+01 -0.15481717247E+02  0.15582342490E+02  0.51100000000E-03 0.  1.
         12    1    3    3    0    0  0.10316663968E+02 -0.11445811818E+02  0.15225460713E+01  0.15484130914E+02  0.00000000000E+00 0. -1.
</event>
<event>
 7    1  0.1134395E-011  0.5930185E+02  0.7816164E-02  0.1266605E+00
        -11   -1    0    0    0    0  0.00000000000E+00  0.00000000000E+00  0.45593999997E+02  0.45594000000E+02  0.51100000000E-03 0. -1.
         11   -1    0    0    0    0 -0.00000000000E+00 -0.00000000000E+00 -0.45593999997E+02  0.45594000000E+02  0.51100000000E-03 0.  1.
    9900012    2    1    2    0    0  0.24526766829E+02  0.18747337372E+02 -0.79813367707E+01  0.59301848049E+02  0.49999824958E+02 0.  0.
         12    1    1    2    0    0 -0.24526766829E+02 -0.18747337372E+02  0.79813367707E+01  0.31886151951E+02  0.00000000000E+00 0. -1.
         11    1    3    3    0    0 -0.46222790304E+01  0.44830558535E+01 -0.79529560334E+01  0.10232925444E+02  0.51100000000E-03 0. -1.
        -11    1    3    3    0    0  0.35672529576E+02  0.13556972354E+02 -0.77448633610E+01  0.38939745435E+02  0.51100000000E-03 0.  1.
         12    1    3    3    0    0 -0.65234837170E+01  0.70730916407E+00  0.77164826238E+01  0.10129177170E+02  0.00000000000E+00 0. -1.
</event>
<event>
 7    1  0.1134395E-011  0.5930197E+02  0.7816164E-02  0.1266605E+00
        -11   -1    0    0    0    0  0.00000000000E+00  0.00000000000E+00  0.45593999997E+02  0.45594000000E+02  0.51100000000E-03 0. -1.
         11   -1    0    0    0    0 -0.00000000000E+00 -0.00000000000E+00 -0.45593999997E+02  0.45594000000E+02  0.51100000000E-03 0.  1.
    9900012    2    1    2    0    0 -0.19520712611E+02 -0.19779622079E+02 -0.15634176066E+02  0.59301966511E+02  0.50000041003E+02 0.  0.
         12    1    1    2    0    0  0.19520712611E+02  0.19779622079E+02  0.15634176066E+02  0.31886033489E+02  0.00000000000E+00 0. -1.
         11    1    3    3    0    0 -0.65904636281E+01 -0.32191375851E+01  0.60613074239E+00  0.73596502881E+01  0.51100000000E-03 0. -1.
        -11    1    3    3    0    0 -0.23001856756E+02 -0.26278210647E+02 -0.84744646510E+01  0.35936698797E+02  0.51100000000E-03 0.  1.
         12    1    3    3    0    0  0.10071607774E+02  0.97177261536E+01 -0.77658421577E+01  0.16005617425E+02  0.00000000000E+00 0. -1.
</event>
<event>
 7    1  0.1134395E-011  0.5930191E+02  0.7816164E-02  0.1266605E+00
        -11   -1    0    0    0    0  0.00000000000E+00  0.00000000000E+00  0.45593999997E+02  0.45594000000E+02  0.51100000000E-03 0.  1.
         11   -1    0    0    0    0 -0.00000000000E+00 -0.00000000000E+00 -0.45593999997E+02  0.45594000000E+02  0.51100000000E-03 0. -1.
    9900012    2    1    2    0    0  0.92438984901E+01  0.14369526762E+02  0.26921924405E+02  0.59301906286E+02  0.49999931168E+02 0.  0.
         12    1    1    2    0    0 -0.92438984901E+01 -0.14369526762E+02 -0.26921924405E+02  0.31886093714E+02  0.00000000000E+00 0. -1.
         11    1    3    3    0    0  0.14443652481E+01  0.24243852101E+02  0.14364108613E+02  0.28216629355E+02  0.51100000000E-03 0. -1.
        -11    1    3    3    0    0  0.38826277414E+01 -0.75878897787E+01  0.20353551882E+02  0.22066217255E+02  0.51100000000E-03 0.  1.
        -12    1    3    3    0    0  0.39169055006E+01 -0.22864355600E+01 -0.77957360891E+01  0.90190596762E+01  0.00000000000E+00 0.  1.
</event>
<event>
 7    1  0.1134395E-011  0.5930197E+02  0.7816164E-02  0.1266605E+00
        -11   -1    0    0    0    0  0.00000000000E+00  0.00000000000E+00  0.45593999997E+02  0.45594000000E+02  0.51100000000E-03 0. -1.
         11   -1    0    0    0    0 -0.00000000000E+00 -0.00000000000E+00 -0.45593999997E+02  0.45594000000E+02  0.51100000000E-03 0.  1.
    9900012    2    1    2    0    0 -0.10401734515E+02  0.74206315811E+01 -0.29213992464E+02  0.59301965287E+02  0.50000038773E+02 0.  0.
         12    1    1    2    0    0  0.10401734515E+02 -0.74206315811E+01  0.29213992464E+02  0.31886034713E+02  0.00000000000E+00 0. -1.
         11    1    3    3    0    0 -0.15067550370E+02  0.11232781603E+01 -0.60873324755E+00  0.15121619768E+02  0.51100000000E-03 0. -1.
        -11    1    3    3    0    0  0.10806014542E+01  0.19481632053E+02 -0.13034052655E+02  0.23464616251E+02  0.51100000000E-03 0.  1.
        -12    1    3    3    0    0  0.35852144004E+01 -0.13184278632E+02 -0.15571206562E+02  0.20715729269E+02  0.00000000000E+00 0.  1.
</event>
<event>
 7    1  0.1134395E-011  0.5930195E+02  0.7816164E-02  0.1266605E+00
        -11   -1    0    0    0    0  0.00000000000E+00  0.00000000000E+00  0.45593999997E+02  0.45594000000E+02  0.51100000000E-03 0. -1.
         11   -1    0    0    0    0 -0.00000000000E+00 -0.00000000000E+00 -0.45593999997E+02  0.45594000000E+02  0.51100000000E-03 0.  1.
    9900012    2    1    2    0    0  0.19043905298E+02 -0.22217744856E+02 -0.12665770179E+02  0.59301948979E+02  0.50000009030E+02 0.  0.
         12    1    1    2    0    0 -0.19043905298E+02  0.22217744856E+02  0.12665770179E+02  0.31886051021E+02  0.00000000000E+00 0. -1.
         11    1    3    3    0    0  0.24428842251E+01  0.19984907600E+01 -0.74874381946E+00  0.32438042826E+01  0.51100000000E-03 0. -1.
        -11    1    3    3    0    0  0.19990175490E+02  0.94481864227E+00 -0.21080336538E+02  0.29066826232E+02  0.51100000000E-03 0.  1.
         12    1    3    3    0    0 -0.33891544170E+01 -0.25161054258E+02  0.91633101782E+01  0.26991318465E+02  0.00000000000E+00 0. -1.
</event>
<event>
 7    1  0.1134395E-011  0.5930197E+02  0.7816164E-02  0.1266605E+00
        -11   -1    0    0    0    0  0.00000000000E+00  0.00000000000E+00  0.45593999997E+02  0.45594000000E+02  0.51100000000E-03 0. -1.
         11   -1    0    0    0    0 -0.00000000000E+00 -0.00000000000E+00 -0.45593999997E+02  0.45594000000E+02  0.51100000000E-03 0.  1.
    9900012    2    1    2    0    0  0.30719639417E+02  0.19400034161E+01 -0.83221910714E+01  0.59301972913E+02  0.50000052680E+02 0.  0.
         12    1    1    2    0    0 -0.30719639417E+02 -0.19400034161E+01  0.83221910714E+01  0.31886027087E+02  0.00000000000E+00 0. -1.
         11    1    3    3    0    0  0.19897692922E+02  0.50987382574E+01  0.11875861293E+02  0.23726596830E+02  0.51100000000E-03 0. -1.
        -11    1    3    3    0    0 -0.56233220752E+01 -0.54631388158E+01  0.17697348768E+01  0.80373875530E+01  0.51100000000E-03 0.  1.
        -12    1    3    3    0    0  0.16445268570E+02  0.23044039746E+01 -0.21967787241E+02  0.27537988530E+02  0.00000000000E+00 0.  1.
</event>
