<event>
 7    1  0.2685294E-009  0.4778727E+02  0.7816164E-02  0.1312668E+00
        -11   -1    0    0    0    0  0.00000000000E+00  0.00000000000E+00  0.45593999997E+02  0.45594000000E+02  0.51100000000E-03 0.  1.
         11   -1    0    0    0    0 -0.00000000000E+00 -0.00000000000E+00 -0.45593999997E+02  0.45594000000E+02  0.51100000000E-03 0. -1.
    9900012    2    1    2    0    0 -0.37409031506E+02 -0.16129507750E+02 -0.14967517586E+02  0.47787271421E+02  0.20000001719E+02 0.  0.
        -12    1    1    2    0    0  0.37409031506E+02  0.16129507750E+02  0.14967517586E+02  0.43400728579E+02  0.00000000000E+00 0.  1.
         11    1    3    3    0    0 -0.24211545381E+01  0.40756466858E+01 -0.21489322635E+01  0.52048818756E+01  0.51100000000E-03 0. -1.
        -11    1    3    3    0    0 -0.14804896906E+02 -0.10831241404E+02 -0.53309270463E+01  0.19102867486E+02  0.51100000000E-03 0.  1.
         12    1    3    3    0    0 -0.20182980062E+02 -0.93739130317E+01 -0.74876582761E+01  0.23479522060E+02  0.00000000000E+00 0. -1.
</event>
<event>
 7    1  0.2685294E-009  0.4778726E+02  0.7816164E-02  0.1312668E+00
        -11   -1    0    0    0    0  0.00000000000E+00  0.00000000000E+00  0.45593999997E+02  0.45594000000E+02  0.51100000000E-03 0.  1.
         11   -1    0    0    0    0 -0.00000000000E+00 -0.00000000000E+00 -0.45593999997E+02  0.45594000000E+02  0.51100000000E-03 0. -1.
    9900012    2    1    2    0    0  0.10661990622E+02  0.26981081225E+02 -0.32279514165E+02  0.47787264720E+02  0.19999971166E+02 0.  0.
        -12    1    1    2    0    0 -0.10661990622E+02 -0.26981081225E+02  0.32279514165E+02  0.43400735280E+02  0.00000000000E+00 0.  1.
         11    1    3    3    0    0  0.29531014550E+01  0.12394299222E+02 -0.11141478843E+02  0.16925484114E+02  0.51100000000E-03 0.  1.
        -11    1    3    3    0    0  0.12063019350E+02  0.13127734004E+02 -0.17725360806E+02  0.25140450511E+02  0.51100000000E-03 0. -1.
        -12    1    3    3    0    0 -0.43541301830E+01  0.14590479986E+01 -0.34126745160E+01  0.57213300958E+01  0.00000000000E+00 0.  1.
</event>
<event>
 7    1  0.2685294E-009  0.4778727E+02  0.7816164E-02  0.1312668E+00
        -11   -1    0    0    0    0  0.00000000000E+00  0.00000000000E+00  0.45593999997E+02  0.45594000000E+02  0.51100000000E-03 0.  1.
         11   -1    0    0    0    0 -0.00000000000E+00 -0.00000000000E+00 -0.45593999997E+02  0.45594000000E+02  0.51100000000E-03 0. -1.
    9900012    2    1    2    0    0  0.29284438508E+02  0.92615171711E+01 -0.30663811286E+02  0.47787270033E+02  0.19999995391E+02 0.  0.
        -12    1    1    2    0    0 -0.29284438508E+02 -0.92615171711E+01  0.30663811286E+02  0.43400729967E+02  0.00000000000E+00 0.  1.
         11    1    3    3    0    0  0.99061715648E+01  0.71354146473E+01 -0.14796621873E+02  0.19182971521E+02  0.51100000000E-03 0. -1.
        -11    1    3    3    0    0  0.73745738022E+01  0.12250207260E+01 -0.14723509224E+02  0.16512623615E+02  0.51100000000E-03 0.  1.
        -12    1    3    3    0    0  0.12003693141E+02  0.90108179771E+00 -0.11436801888E+01  0.12091674897E+02  0.00000000000E+00 0.  1.
</event>
<event>
 7    1  0.2685294E-009  0.4778727E+02  0.7816164E-02  0.1312668E+00
        -11   -1    0    0    0    0  0.00000000000E+00  0.00000000000E+00  0.45593999997E+02  0.45594000000E+02  0.51100000000E-03 0. -1.
         11   -1    0    0    0    0 -0.00000000000E+00 -0.00000000000E+00 -0.45593999997E+02  0.45594000000E+02  0.51100000000E-03 0.  1.
    9900012    2    1    2    0    0 -0.36638555331E+02 -0.22855552156E+02 -0.43432056484E+01  0.47787269172E+02  0.19999991464E+02 0.  0.
        -12    1    1    2    0    0  0.36638555331E+02  0.22855552156E+02  0.43432056484E+01  0.43400730828E+02  0.00000000000E+00 0.  1.
         11    1    3    3    0    0  0.96510898818E+00 -0.27448058150E+01 -0.37630051773E+01  0.47566377354E+01  0.51100000000E-03 0.  1.
        -11    1    3    3    0    0 -0.33925428452E+02 -0.19600081879E+02 -0.14850738375E+01  0.39208460182E+02  0.51100000000E-03 0. -1.
        -12    1    3    3    0    0 -0.36782358677E+01 -0.51066446172E+00  0.90487336638E+00  0.38221712547E+01  0.00000000000E+00 0.  1.
</event>
<event>
 7    1  0.2685294E-009  0.4778728E+02  0.7816164E-02  0.1312668E+00
        -11   -1    0    0    0    0  0.00000000000E+00  0.00000000000E+00  0.45593999997E+02  0.45594000000E+02  0.51100000000E-03 0.  1.
         11   -1    0    0    0    0 -0.00000000000E+00 -0.00000000000E+00 -0.45593999997E+02  0.45594000000E+02  0.51100000000E-03 0. -1.
    9900012    2    1    2    0    0  0.24829506789E+02  0.68135498095E+01 -0.34938430559E+02  0.47787276523E+02  0.20000024981E+02 0.  0.
        -12    1    1    2    0    0 -0.24829506789E+02 -0.68135498095E+01  0.34938430559E+02  0.43400723477E+02  0.00000000000E+00 0.  1.
         11    1    3    3    0    0  0.85791146954E+01  0.10457357564E+02 -0.15106697907E+02  0.20277323741E+02  0.51100000000E-03 0. -1.
        -11    1    3    3    0    0  0.10938504077E+02 -0.21407528688E+01 -0.60909725689E+01  0.12701718048E+02  0.51100000000E-03 0.  1.
         12    1    3    3    0    0  0.53118880168E+01 -0.15030548854E+01 -0.13740760083E+02  0.14808234734E+02  0.00000000000E+00 0. -1.
</event>
<event>
 7    1  0.2685294E-009  0.4778727E+02  0.7816164E-02  0.1312668E+00
        -11   -1    0    0    0    0  0.00000000000E+00  0.00000000000E+00  0.45593999997E+02  0.45594000000E+02  0.51100000000E-03 0. -1.
         11   -1    0    0    0    0 -0.00000000000E+00 -0.00000000000E+00 -0.45593999997E+02  0.45594000000E+02  0.51100000000E-03 0.  1.
    9900012    2    1    2    0    0  0.38971562649E+01 -0.20580773456E+02  0.38011412271E+02  0.47787268142E+02  0.19999986768E+02 0.  0.
        -12    1    1    2    0    0 -0.38971562649E+01  0.20580773456E+02 -0.38011412271E+02  0.43400731858E+02  0.00000000000E+00 0.  1.
         11    1    3    3    0    0  0.59766195509E+01 -0.12332749406E+02  0.23918094723E+02  0.27566137644E+02  0.51100000000E-03 0. -1.
        -11    1    3    3    0    0 -0.35408351154E+01  0.20400993961E+01  0.34763941383E+01  0.53651500749E+01  0.51100000000E-03 0.  1.
         12    1    3    3    0    0  0.14613718294E+01 -0.10288123446E+02  0.10616923409E+02  0.14855980423E+02  0.00000000000E+00 0. -1.
</event>
<event>
 7    1  0.2685294E-009  0.4778727E+02  0.7816164E-02  0.1312668E+00
        -11   -1    0    0    0    0  0.00000000000E+00  0.00000000000E+00  0.45593999997E+02  0.45594000000E+02  0.51100000000E-03 0. -1.
         11   -1    0    0    0    0 -0.00000000000E+00 -0.00000000000E+00 -0.45593999997E+02  0.45594000000E+02  0.51100000000E-03 0.  1.
    9900012    2    1    2    0    0  0.36908088705E+02 -0.11991860565E+02  0.19432221479E+02  0.47787274623E+02  0.20000016314E+02 0.  0.
        -12    1    1    2    0    0 -0.36908088705E+02  0.11991860565E+02 -0.19432221479E+02  0.43400725377E+02  0.00000000000E+00 0.  1.
         11    1    3    3    0    0  0.90097671416E+01  0.60724060705E+00  0.62643448907E+01  0.10990298552E+02  0.51100000000E-03 0. -1.
        -11    1    3    3    0    0 -0.10666390301E+01 -0.29704586670E+01  0.36471439879E+01  0.48231735448E+01  0.51100000000E-03 0.  1.
        -12    1    3    3    0    0  0.28964960594E+02 -0.96286425050E+01  0.95207326002E+01  0.31973802525E+02  0.00000000000E+00 0.  1.
</event>
<event>
 7    1  0.2685294E-009  0.4778727E+02  0.7816164E-02  0.1312668E+00
        -11   -1    0    0    0    0  0.00000000000E+00  0.00000000000E+00  0.45593999997E+02  0.45594000000E+02  0.51100000000E-03 0.  1.
         11   -1    0    0    0    0 -0.00000000000E+00 -0.00000000000E+00 -0.45593999997E+02  0.45594000000E+02  0.51100000000E-03 0. -1.
    9900012    2    1    2    0    0  0.21802167106E+02 -0.34589728534E+02 -0.14554703133E+02  0.47787271966E+02  0.20000004201E+02 0.  0.
        -12    1    1    2    0    0 -0.21802167106E+02  0.34589728534E+02  0.14554703133E+02  0.43400728034E+02  0.00000000000E+00 0.  1.
         11    1    3    3    0    0 -0.10422883658E+01  0.14018453231E+01 -0.98390559015E+00  0.20048954633E+01  0.51100000000E-03 0. -1.
        -11    1    3    3    0    0  0.14913047805E+01  0.16966105530E+00  0.34794854997E+00  0.15407281644E+01  0.51100000000E-03 0.  1.
         12    1    3    3    0    0  0.21353150692E+02 -0.36161234913E+02 -0.13918746093E+02  0.44241648338E+02  0.00000000000E+00 0. -1.
</event>
<event>
 7    1  0.2685294E-009  0.4778728E+02  0.7816164E-02  0.1312668E+00
        -11   -1    0    0    0    0  0.00000000000E+00  0.00000000000E+00  0.45593999997E+02  0.45594000000E+02  0.51100000000E-03 0.  1.
         11   -1    0    0    0    0 -0.00000000000E+00 -0.00000000000E+00 -0.45593999997E+02  0.45594000000E+02  0.51100000000E-03 0. -1.
    9900012    2    1    2    0    0 -0.47457392410E+00 -0.22885496671E+02 -0.36873455425E+02  0.47787275429E+02  0.20000019992E+02 0.  0.
        -12    1    1    2    0    0  0.47457392410E+00  0.22885496671E+02  0.36873455425E+02  0.43400724571E+02  0.00000000000E+00 0.  1.
         11    1    3    3    0    0  0.65695159602E+01 -0.15959841037E+02 -0.21598490563E+02  0.27647239658E+02  0.51100000000E-03 0. -1.
        -11    1    3    3    0    0 -0.37497165969E+00  0.44703894658E-01  0.10843310181E+01  0.11482056443E+01  0.51100000000E-03 0.  1.
         12    1    3    3    0    0 -0.66691182246E+01 -0.69703595290E+01 -0.16359295880E+02  0.18991830127E+02  0.00000000000E+00 0. -1.
</event>
<event>
 7    1  0.2685294E-009  0.4778727E+02  0.7816164E-02  0.1312668E+00
        -11   -1    0    0    0    0  0.00000000000E+00  0.00000000000E+00  0.45593999997E+02  0.45594000000E+02  0.51100000000E-03 0.  1.
         11   -1    0    0    0    0 -0.00000000000E+00 -0.00000000000E+00 -0.45593999997E+02  0.45594000000E+02  0.51100000000E-03 0. -1.
    9900012    2    1    2    0    0  0.20645701361E+02  0.10306081927E+01 -0.38161710647E+02  0.47787270773E+02  0.19999998761E+02 0.  0.
        -12    1    1    2    0    0 -0.20645701361E+02 -0.10306081927E+01  0.38161710647E+02  0.43400729227E+02  0.00000000000E+00 0.  1.
         11    1    3    3    0    0  0.16837950616E+02  0.79755523903E+01 -0.26940638319E+02  0.32755518774E+02  0.51100000000E-03 0. -1.
        -11    1    3    3    0    0 -0.82729058179E+00 -0.37412214911E+01 -0.22658821722E+01  0.44514458585E+01  0.51100000000E-03 0.  1.
         12    1    3    3    0    0  0.46350413275E+01 -0.32037227066E+01 -0.89551901558E+01  0.10580306140E+02  0.00000000000E+00 0. -1.
</event>
<event>
 7    1  0.2685294E-009  0.4778727E+02  0.7816164E-02  0.1312668E+00
        -11   -1    0    0    0    0  0.00000000000E+00  0.00000000000E+00  0.45593999997E+02  0.45594000000E+02  0.51100000000E-03 0. -1.
         11   -1    0    0    0    0 -0.00000000000E+00 -0.00000000000E+00 -0.45593999997E+02  0.45594000000E+02  0.51100000000E-03 0.  1.
    9900012    2    1    2    0    0  0.10076289124E+02  0.25176277418E+02  0.33885785628E+02  0.47787274030E+02  0.20000013613E+02 0.  0.
        -12    1    1    2    0    0 -0.10076289124E+02 -0.25176277418E+02 -0.33885785628E+02  0.43400725970E+02  0.00000000000E+00 0.  1.
         11    1    3    3    0    0  0.38801004508E+01  0.14769959934E+02  0.84324721638E+01  0.17444583200E+02  0.51100000000E-03 0. -1.
        -11    1    3    3    0    0  0.62136455632E+01  0.90558985927E+01  0.26466244192E+02  0.28654507018E+02  0.51100000000E-03 0.  1.
         12    1    3    3    0    0 -0.17456890227E-01  0.13504188912E+01 -0.10129307287E+01  0.16881838128E+01  0.00000000000E+00 0. -1.
</event>
<event>
 7    1  0.2685294E-009  0.4778727E+02  0.7816164E-02  0.1312668E+00
        -11   -1    0    0    0    0  0.00000000000E+00  0.00000000000E+00  0.45593999997E+02  0.45594000000E+02  0.51100000000E-03 0. -1.
         11   -1    0    0    0    0 -0.00000000000E+00 -0.00000000000E+00 -0.45593999997E+02  0.45594000000E+02  0.51100000000E-03 0.  1.
    9900012    2    1    2    0    0 -0.15185557021E+00  0.43063059988E+02  0.54012080241E+01  0.47787271392E+02  0.20000001583E+02 0.  0.
        -12    1    1    2    0    0  0.15185557021E+00 -0.43063059988E+02 -0.54012080241E+01  0.43400728608E+02  0.00000000000E+00 0.  1.
         11    1    3    3    0    0  0.56660340635E+01  0.28658590851E+02  0.32044032632E+00  0.29215089488E+02  0.51100000000E-03 0. -1.
        -11    1    3    3    0    0 -0.71352699242E+01  0.10687640860E+02  0.64748467752E+01  0.14389627690E+02  0.51100000000E-03 0.  1.
        -12    1    3    3    0    0  0.13173802905E+01  0.37168282772E+01 -0.13940790774E+01  0.41825542132E+01  0.00000000000E+00 0.  1.
</event>
<event>
 7    1  0.2685294E-009  0.4778727E+02  0.7816164E-02  0.1312668E+00
        -11   -1    0    0    0    0  0.00000000000E+00  0.00000000000E+00  0.45593999997E+02  0.45594000000E+02  0.51100000000E-03 0.  1.
         11   -1    0    0    0    0 -0.00000000000E+00 -0.00000000000E+00 -0.45593999997E+02  0.45594000000E+02  0.51100000000E-03 0. -1.
    9900012    2    1    2    0    0  0.34827468059E+02 -0.93568567996E+01 -0.24147881101E+02  0.47787268875E+02  0.19999990108E+02 0.  0.
        -12    1    1    2    0    0 -0.34827468059E+02  0.93568567996E+01  0.24147881101E+02  0.43400731125E+02  0.00000000000E+00 0.  1.
         11    1    3    3    0    0  0.72299536721E+01  0.43046830387E+01 -0.54567608169E+01  0.10028896501E+02  0.51100000000E-03 0. -1.
        -11    1    3    3    0    0  0.25053849351E+02 -0.15099558946E+02 -0.18903522021E+02  0.34828654765E+02  0.51100000000E-03 0.  1.
        -12    1    3    3    0    0  0.25436650359E+01  0.14380191074E+01  0.21240173749E+00  0.29297176086E+01  0.00000000000E+00 0.  1.
</event>
<event>
 7    1  0.4002578E-009  0.4778727E+02  0.7816164E-02  0.1312668E+00
        -11   -1    0    0    0    0  0.00000000000E+00  0.00000000000E+00  0.45593999997E+02  0.45594000000E+02  0.51100000000E-03 0. -1.
         11   -1    0    0    0    0 -0.00000000000E+00 -0.00000000000E+00 -0.45593999997E+02  0.45594000000E+02  0.51100000000E-03 0.  1.
    9900012    2    1    2    0    0 -0.34949368697E+02  0.36157838078E+01  0.25477264033E+02  0.47787271349E+02  0.20000001387E+02 0.  0.
        -12    1    1    2    0    0  0.34949368697E+02 -0.36157838078E+01 -0.25477264033E+02  0.43400728651E+02  0.00000000000E+00 0.  1.
         11    1    3    3    0    0 -0.15668102827E+02  0.32745924260E+01  0.17347909089E+02  0.23604286724E+02  0.51100000000E-03 0. -1.
        -11    1    3    3    0    0 -0.51639834688E+01 -0.54481690609E+01  0.30317266243E+01  0.80957172609E+01  0.51100000000E-03 0.  1.
        -12    1    3    3    0    0 -0.14117282402E+02  0.57893604427E+01  0.50976283198E+01  0.16087267364E+02  0.00000000000E+00 0.  1.
</event>
<event>
 7    1  0.2685294E-009  0.4778727E+02  0.7816164E-02  0.1312668E+00
        -11   -1    0    0    0    0  0.00000000000E+00  0.00000000000E+00  0.45593999997E+02  0.45594000000E+02  0.51100000000E-03 0.  1.
         11   -1    0    0    0    0 -0.00000000000E+00 -0.00000000000E+00 -0.45593999997E+02  0.45594000000E+02  0.51100000000E-03 0. -1.
    9900012    2    1    2    0    0 -0.40027975997E+02  0.11088523100E+02 -0.12586861870E+02  0.47787270759E+02  0.19999998697E+02 0.  0.
        -12    1    1    2    0    0  0.40027975997E+02 -0.11088523100E+02  0.12586861870E+02  0.43400729241E+02  0.00000000000E+00 0.  1.
         11    1    3    3    0    0 -0.37658011237E+01  0.51959184449E+01  0.10726644334E+01  0.65061075796E+01  0.51100000000E-03 0. -1.
        -11    1    3    3    0    0 -0.23182569028E+02 -0.81794238425E+00 -0.12942025437E+02  0.26563067578E+02  0.51100000000E-03 0.  1.
         12    1    3    3    0    0 -0.13079605845E+02  0.67105470391E+01 -0.71750086647E+00  0.14718095601E+02  0.00000000000E+00 0. -1.
</event>
<event>
 7    1  0.2685294E-009  0.4778727E+02  0.7816164E-02  0.1312668E+00
        -11   -1    0    0    0    0  0.00000000000E+00  0.00000000000E+00  0.45593999997E+02  0.45594000000E+02  0.51100000000E-03 0.  1.
         11   -1    0    0    0    0 -0.00000000000E+00 -0.00000000000E+00 -0.45593999997E+02  0.45594000000E+02  0.51100000000E-03 0. -1.
    9900012    2    1    2    0    0 -0.14918737460E+02  0.13252796310E+02 -0.38541120034E+02  0.47787271078E+02  0.20000000154E+02 0.  0.
        -12    1    1    2    0    0  0.14918737460E+02 -0.13252796310E+02  0.38541120034E+02  0.43400728922E+02  0.00000000000E+00 0.  1.
         11    1    3    3    0    0 -0.53831236863E+01  0.12778148625E+02 -0.26455554150E+02  0.29868971334E+02  0.51100000000E-03 0. -1.
        -11    1    3    3    0    0 -0.39618194215E+01 -0.43164983640E+01 -0.58511060701E+01  0.82803148346E+01  0.51100000000E-03 0.  1.
        -12    1    3    3    0    0 -0.55737943520E+01  0.47911460487E+01 -0.62344598139E+01  0.96379849092E+01  0.00000000000E+00 0.  1.
</event>
<event>
 7    1  0.2685294E-009  0.4778727E+02  0.7816164E-02  0.1312668E+00
        -11   -1    0    0    0    0  0.00000000000E+00  0.00000000000E+00  0.45593999997E+02  0.45594000000E+02  0.51100000000E-03 0.  1.
         11   -1    0    0    0    0 -0.00000000000E+00 -0.00000000000E+00 -0.45593999997E+02  0.45594000000E+02  0.51100000000E-03 0. -1.
    9900012    2    1    2    0    0 -0.10322190746E+02  0.22065546531E+02 -0.35919179143E+02  0.47787269640E+02  0.19999993594E+02 0.  0.
        -12    1    1    2    0    0  0.10322190746E+02 -0.22065546531E+02  0.35919179143E+02  0.43400730360E+02  0.00000000000E+00 0.  1.
         11    1    3    3    0    0 -0.11876359165E+02  0.80431021044E+01 -0.12333544781E+02  0.18917074975E+02  0.51100000000E-03 0.  1.
        -11    1    3    3    0    0  0.74791998905E+00 -0.49628344950E+00 -0.59292988761E+01  0.59968547586E+01  0.51100000000E-03 0. -1.
         12    1    3    3    0    0  0.80624842985E+00  0.14518727876E+02 -0.17656335486E+02  0.22873339906E+02  0.00000000000E+00 0. -1.
</event>
<event>
 7    1  0.2685294E-009  0.4778727E+02  0.7816164E-02  0.1312668E+00
        -11   -1    0    0    0    0  0.00000000000E+00  0.00000000000E+00  0.45593999997E+02  0.45594000000E+02  0.51100000000E-03 0. -1.
         11   -1    0    0    0    0 -0.00000000000E+00 -0.00000000000E+00 -0.45593999997E+02  0.45594000000E+02  0.51100000000E-03 0.  1.
    9900012    2    1    2    0    0  0.39728266821E+02  0.34092950648E+01  0.17136647566E+02  0.47787272273E+02  0.20000005601E+02 0.  0.
        -12    1    1    2    0    0 -0.39728266821E+02 -0.34092950648E+01 -0.17136647566E+02  0.43400727727E+02  0.00000000000E+00 0.  1.
         11    1    3    3    0    0  0.55675923703E+01 -0.37365964447E+01  0.45557938160E+01  0.81065094429E+01  0.51100000000E-03 0. -1.
        -11    1    3    3    0    0  0.16798220499E+02  0.10504160862E+02  0.83350271253E+01  0.21493959263E+02  0.51100000000E-03 0.  1.
        -12    1    3    3    0    0  0.17362453952E+02 -0.33582693524E+01  0.42458266250E+01  0.18186803567E+02  0.00000000000E+00 0.  1.
</event>
<event>
 7    1  0.2685294E-009  0.4778727E+02  0.7816164E-02  0.1312668E+00
        -11   -1    0    0    0    0  0.00000000000E+00  0.00000000000E+00  0.45593999997E+02  0.45594000000E+02  0.51100000000E-03 0.  1.
         11   -1    0    0    0    0 -0.00000000000E+00 -0.00000000000E+00 -0.45593999997E+02  0.45594000000E+02  0.51100000000E-03 0. -1.
    9900012    2    1    2    0    0 -0.37541150135E+02 -0.21114979665E+02  0.53332029314E+01  0.47787269900E+02  0.19999994783E+02 0.  0.
        -12    1    1    2    0    0  0.37541150135E+02  0.21114979665E+02 -0.53332029314E+01  0.43400730100E+02  0.00000000000E+00 0.  1.
         11    1    3    3    0    0 -0.21144028401E+02 -0.48634079656E+01 -0.21921169623E+01  0.21806605676E+02  0.51100000000E-03 0. -1.
        -11    1    3    3    0    0 -0.12467396542E+02 -0.16075501966E+02  0.82998598890E+01  0.21971468190E+02  0.51100000000E-03 0.  1.
        -12    1    3    3    0    0 -0.39297251922E+01 -0.17606973338E+00 -0.77453999536E+00  0.40091960343E+01  0.00000000000E+00 0.  1.
</event>
<event>
 7    1  0.2685294E-009  0.4778732E+02  0.7816164E-02  0.1312668E+00
        -11   -1    0    0    0    0  0.00000000000E+00  0.00000000000E+00  0.45593999997E+02  0.45594000000E+02  0.51100000000E-03 0.  1.
         11   -1    0    0    0    0 -0.00000000000E+00 -0.00000000000E+00 -0.45593999997E+02  0.45594000000E+02  0.51100000000E-03 0. -1.
    9900012    2    1    2    0    0 -0.11374951737E+02  0.57121153170E+01 -0.41492178964E+02  0.47787323697E+02  0.20000240061E+02 0.  0.
        -12    1    1    2    0    0  0.11374951737E+02 -0.57121153170E+01  0.41492178964E+02  0.43400676303E+02  0.00000000000E+00 0.  1.
         11    1    3    3    0    0 -0.87986583862E+01  0.61764274185E+01 -0.17187454676E+02  0.20272475023E+02  0.51100000000E-03 0. -1.
        -11    1    3    3    0    0  0.19867787400E+01 -0.55003904308E+01 -0.13983868148E+02  0.15157511448E+02  0.51100000000E-03 0.  1.
        -12    1    3    3    0    0 -0.45630720910E+01  0.50360783293E+01 -0.10320856140E+02  0.12357337226E+02  0.00000000000E+00 0.  1.
</event>
<event>
 7    1  0.2685294E-009  0.4778727E+02  0.7816164E-02  0.1312668E+00
        -11   -1    0    0    0    0  0.00000000000E+00  0.00000000000E+00  0.45593999997E+02  0.45594000000E+02  0.51100000000E-03 0. -1.
         11   -1    0    0    0    0 -0.00000000000E+00 -0.00000000000E+00 -0.45593999997E+02  0.45594000000E+02  0.51100000000E-03 0.  1.
    9900012    2    1    2    0    0 -0.69968741368E+01 -0.41607014328E+02 -0.10174643393E+02  0.47787271237E+02  0.20000000879E+02 0.  0.
        -12    1    1    2    0    0  0.69968741368E+01  0.41607014328E+02  0.10174643393E+02  0.43400728763E+02  0.00000000000E+00 0.  1.
         11    1    3    3    0    0 -0.10234511918E+02 -0.28894981638E+02 -0.64032671653E+01  0.31315603598E+02  0.51100000000E-03 0. -1.
        -11    1    3    3    0    0  0.46907207667E+01 -0.36065300881E+01 -0.41758640935E+01  0.72420826960E+01  0.51100000000E-03 0.  1.
        -12    1    3    3    0    0 -0.14530829859E+01 -0.91055026018E+01  0.40448786585E+00  0.92295849435E+01  0.00000000000E+00 0.  1.
</event>
<event>
 7    1  0.2685294E-009  0.4778726E+02  0.7816164E-02  0.1312668E+00
        -11   -1    0    0    0    0  0.00000000000E+00  0.00000000000E+00  0.45593999997E+02  0.45594000000E+02  0.51100000000E-03 0.  1.
         11   -1    0    0    0    0 -0.00000000000E+00 -0.00000000000E+00 -0.45593999997E+02  0.45594000000E+02  0.51100000000E-03 0. -1.
    9900012    2    1    2    0    0  0.38710317600E+01 -0.31670805633E+02 -0.29421067135E+02  0.47787262590E+02  0.19999961454E+02 0.  0.
        -12    1    1    2    0    0 -0.38710317600E+01  0.31670805633E+02  0.29421067135E+02  0.43400737410E+02  0.00000000000E+00 0.  1.
         11    1    3    3    0    0  0.49049396178E+01 -0.10069450521E+02 -0.23652693373E+01  0.11447565931E+02  0.51100000000E-03 0. -1.
        -11    1    3    3    0    0 -0.56751376311E+01 -0.82694737898E+01 -0.12993913728E+02  0.16414419823E+02  0.51100000000E-03 0.  1.
        -12    1    3    3    0    0  0.46412297733E+01 -0.13331881322E+02 -0.14061884069E+02  0.19925276836E+02  0.00000000000E+00 0.  1.
</event>
<event>
 7    1  0.2685294E-009  0.4778727E+02  0.7816164E-02  0.1312668E+00
        -11   -1    0    0    0    0  0.00000000000E+00  0.00000000000E+00  0.45593999997E+02  0.45594000000E+02  0.51100000000E-03 0.  1.
         11   -1    0    0    0    0 -0.00000000000E+00 -0.00000000000E+00 -0.45593999997E+02  0.45594000000E+02  0.51100000000E-03 0. -1.
    9900012    2    1    2    0    0 -0.99957676292E+01 -0.33343101005E+02 -0.25921911626E+02  0.47787271234E+02  0.20000000863E+02 0.  0.
        -12    1    1    2    0    0  0.99957676292E+01  0.33343101005E+02  0.25921911626E+02  0.43400728766E+02  0.00000000000E+00 0.  1.
         11    1    3    3    0    0  0.28019245590E+01 -0.13934831199E+02 -0.17904378454E+02  0.22860382102E+02  0.51100000000E-03 0. -1.
        -11    1    3    3    0    0 -0.89356342895E+01 -0.16215600595E+02 -0.71190001486E+01  0.19836114190E+02  0.51100000000E-03 0.  1.
         12    1    3    3    0    0 -0.38620578988E+01 -0.31926692113E+01 -0.89853302315E+00  0.50907749410E+01  0.00000000000E+00 0. -1.
</event>
<event>
 7    1  0.2685294E-009  0.4778727E+02  0.7816164E-02  0.1312668E+00
        -11   -1    0    0    0    0  0.00000000000E+00  0.00000000000E+00  0.45593999997E+02  0.45594000000E+02  0.51100000000E-03 0.  1.
         11   -1    0    0    0    0 -0.00000000000E+00 -0.00000000000E+00 -0.45593999997E+02  0.45594000000E+02  0.51100000000E-03 0. -1.
    9900012    2    1    2    0    0  0.86260523365E+01 -0.19368100740E+02 -0.37869394358E+02  0.47787272653E+02  0.20000007336E+02 0.  0.
        -12    1    1    2    0    0 -0.86260523365E+01  0.19368100740E+02  0.37869394358E+02  0.43400727347E+02  0.00000000000E+00 0.  1.
         11    1    3    3    0    0 -0.58246968058E+00 -0.16454672058E+02 -0.19521095340E+02  0.25537593210E+02  0.51100000000E-03 0. -1.
        -11    1    3    3    0    0  0.31433643337E+01 -0.41583571011E+01 -0.38369257319E+01  0.64726094002E+01  0.51100000000E-03 0.  1.
         12    1    3    3    0    0  0.60651576833E+01  0.12449284187E+01 -0.14511373286E+02  0.15777070043E+02  0.00000000000E+00 0. -1.
</event>
<event>
 7    1  0.2685294E-009  0.4778729E+02  0.7816164E-02  0.1312668E+00
        -11   -1    0    0    0    0  0.00000000000E+00  0.00000000000E+00  0.45593999997E+02  0.45594000000E+02  0.51100000000E-03 0. -1.
         11   -1    0    0    0    0 -0.00000000000E+00 -0.00000000000E+00 -0.45593999997E+02  0.45594000000E+02  0.51100000000E-03 0.  1.
    9900012    2    1    2    0    0 -0.31108273129E+02 -0.15133510797E+02  0.26208285732E+02  0.47787285178E+02  0.20000064438E+02 0.  0.
        -12    1    1    2    0    0  0.31108273129E+02  0.15133510797E+02 -0.26208285732E+02  0.43400714822E+02  0.00000000000E+00 0.  1.
         11    1    3    3    0    0 -0.81214886046E+00 -0.41736990643E+01  0.55428277652E+01  0.69858635505E+01  0.51100000000E-03 0. -1.
        -11    1    3    3    0    0 -0.29921724600E+02 -0.12253638831E+02  0.16254421919E+02  0.36189328536E+02  0.51100000000E-03 0.  1.
        -12    1    3    3    0    0 -0.37439966820E+00  0.12938270987E+01  0.44110360474E+01  0.46120930914E+01  0.00000000000E+00 0.  1.
</event>
<event>
 7    1  0.2685294E-009  0.4778727E+02  0.7816164E-02  0.1312668E+00
        -11   -1    0    0    0    0  0.00000000000E+00  0.00000000000E+00  0.45593999997E+02  0.45594000000E+02  0.51100000000E-03 0.  1.
         11   -1    0    0    0    0 -0.00000000000E+00 -0.00000000000E+00 -0.45593999997E+02  0.45594000000E+02  0.51100000000E-03 0. -1.
    9900012    2    1    2    0    0  0.16646432461E+02 -0.30483868296E+02 -0.26024093672E+02  0.47787269690E+02  0.19999993827E+02 0.  0.
        -12    1    1    2    0    0 -0.16646432461E+02  0.30483868296E+02  0.26024093672E+02  0.43400730310E+02  0.00000000000E+00 0.  1.
         11    1    3    3    0    0  0.63711500544E+01 -0.10280463637E+02 -0.17056917914E+02  0.20909756923E+02  0.51100000000E-03 0. -1.
        -11    1    3    3    0    0  0.72214967416E+01 -0.57828299340E+01  0.65472270150E+00  0.92746859414E+01  0.51100000000E-03 0.  1.
        -12    1    3    3    0    0  0.30537856646E+01 -0.14420574726E+02 -0.96218984592E+01  0.17602826826E+02  0.00000000000E+00 0.  1.
</event>
<event>
 7    1  0.2685294E-009  0.4778727E+02  0.7816164E-02  0.1312668E+00
        -11   -1    0    0    0    0  0.00000000000E+00  0.00000000000E+00  0.45593999997E+02  0.45594000000E+02  0.51100000000E-03 0.  1.
         11   -1    0    0    0    0 -0.00000000000E+00 -0.00000000000E+00 -0.45593999997E+02  0.45594000000E+02  0.51100000000E-03 0. -1.
    9900012    2    1    2    0    0  0.94899688778E+00  0.35767893165E+01 -0.43242683410E+02  0.47787266303E+02  0.19999978382E+02 0.  0.
        -12    1    1    2    0    0 -0.94899688778E+00 -0.35767893165E+01  0.43242683410E+02  0.43400733697E+02  0.00000000000E+00 0.  1.
         11    1    3    3    0    0 -0.70478234385E+01  0.11789507653E+01 -0.21944293990E+02  0.23078426703E+02  0.51100000000E-03 0.  1.
        -11    1    3    3    0    0  0.80695078076E+01  0.17321829651E+01 -0.22142927275E+02  0.23631052508E+02  0.51100000000E-03 0. -1.
        -12    1    3    3    0    0 -0.72687481333E-01  0.66565558613E+00  0.84453785393E+00  0.10777870922E+01  0.00000000000E+00 0.  1.
</event>
<event>
 7    1  0.2685294E-009  0.4778727E+02  0.7816164E-02  0.1312668E+00
        -11   -1    0    0    0    0  0.00000000000E+00  0.00000000000E+00  0.45593999997E+02  0.45594000000E+02  0.51100000000E-03 0.  1.
         11   -1    0    0    0    0 -0.00000000000E+00 -0.00000000000E+00 -0.45593999997E+02  0.45594000000E+02  0.51100000000E-03 0. -1.
    9900012    2    1    2    0    0  0.37301658409E+01 -0.19311954275E+02 -0.38687950135E+02  0.47787271886E+02  0.20000003838E+02 0.  0.
        -12    1    1    2    0    0 -0.37301658409E+01  0.19311954275E+02  0.38687950135E+02  0.43400728114E+02  0.00000000000E+00 0.  1.
         11    1    3    3    0    0  0.66806246900E+01 -0.78781432309E+01 -0.18363332340E+02  0.21069121052E+02  0.51100000000E-03 0. -1.
        -11    1    3    3    0    0 -0.50169610911E+01  0.43490055957E+00 -0.40088532583E+01  0.64366094952E+01  0.51100000000E-03 0.  1.
        -12    1    3    3    0    0  0.20665022420E+01 -0.11868711604E+02 -0.16315764537E+02  0.20281541339E+02  0.00000000000E+00 0.  1.
</event>
<event>
 7    1  0.2685294E-009  0.4778727E+02  0.7816164E-02  0.1312668E+00
        -11   -1    0    0    0    0  0.00000000000E+00  0.00000000000E+00  0.45593999997E+02  0.45594000000E+02  0.51100000000E-03 0.  1.
         11   -1    0    0    0    0 -0.00000000000E+00 -0.00000000000E+00 -0.45593999997E+02  0.45594000000E+02  0.51100000000E-03 0. -1.
    9900012    2    1    2    0    0 -0.38311127005E+02 -0.13032909026E+02  0.15685163143E+02  0.47787268291E+02  0.19999987446E+02 0.  0.
        -12    1    1    2    0    0  0.38311127005E+02  0.13032909026E+02 -0.15685163143E+02  0.43400731709E+02  0.00000000000E+00 0.  1.
         11    1    3    3    0    0  0.19614585244E+00  0.83701490497E-01 -0.13996083874E+01  0.14157623509E+01  0.51100000000E-03 0. -1.
        -11    1    3    3    0    0 -0.38789047275E+01  0.15589171439E+01 -0.14730880269E+01  0.44323936132E+01  0.51100000000E-03 0.  1.
         12    1    3    3    0    0 -0.34628368130E+02 -0.14675527660E+02  0.18557859558E+02  0.41939112327E+02  0.00000000000E+00 0. -1.
</event>
<event>
 7    1  0.2685294E-009  0.4778727E+02  0.7816164E-02  0.1312668E+00
        -11   -1    0    0    0    0  0.00000000000E+00  0.00000000000E+00  0.45593999997E+02  0.45594000000E+02  0.51100000000E-03 0.  1.
         11   -1    0    0    0    0 -0.00000000000E+00 -0.00000000000E+00 -0.45593999997E+02  0.45594000000E+02  0.51100000000E-03 0. -1.
    9900012    2    1    2    0    0 -0.82010508071E+01  0.42147120319E+02 -0.63234841708E+01  0.47787269159E+02  0.19999991401E+02 0.  0.
        -12    1    1    2    0    0  0.82010508071E+01 -0.42147120319E+02  0.63234841708E+01  0.43400730841E+02  0.00000000000E+00 0.  1.
         11    1    3    3    0    0 -0.73692518475E+01  0.17711610820E+02  0.29785839064E+01  0.19413371500E+02  0.51100000000E-03 0. -1.
        -11    1    3    3    0    0  0.35429316358E+01  0.22590408394E+01 -0.14808933071E+01  0.44551852193E+01  0.51100000000E-03 0.  1.
         12    1    3    3    0    0 -0.43747305953E+01  0.22176468659E+02 -0.78211747701E+01  0.23918712439E+02  0.00000000000E+00 0. -1.
</event>
<event>
 7    1  0.2685294E-009  0.4778727E+02  0.7816164E-02  0.1312668E+00
        -11   -1    0    0    0    0  0.00000000000E+00  0.00000000000E+00  0.45593999997E+02  0.45594000000E+02  0.51100000000E-03 0. -1.
         11   -1    0    0    0    0 -0.00000000000E+00 -0.00000000000E+00 -0.45593999997E+02  0.45594000000E+02  0.51100000000E-03 0.  1.
    9900012    2    1    2    0    0 -0.29001407899E+02  0.30596242441E+02 -0.10315599379E+02  0.47787270718E+02  0.19999998513E+02 0.  0.
        -12    1    1    2    0    0  0.29001407899E+02 -0.30596242441E+02  0.10315599379E+02  0.43400729282E+02  0.00000000000E+00 0.  1.
         11    1    3    3    0    0 -0.11628896019E+02  0.15550437148E+02 -0.28866114844E+01  0.19631093811E+02  0.51100000000E-03 0. -1.
        -11    1    3    3    0    0 -0.70817348150E+01  0.25166087883E+01 -0.91620581752E+01  0.11850215106E+02  0.51100000000E-03 0.  1.
        -12    1    3    3    0    0 -0.10290777065E+02  0.12529196505E+02  0.17330702807E+01  0.16305961801E+02  0.00000000000E+00 0.  1.
</event>
<event>
 7    1  0.2685294E-009  0.4778727E+02  0.7816164E-02  0.1312668E+00
        -11   -1    0    0    0    0  0.00000000000E+00  0.00000000000E+00  0.45593999997E+02  0.45594000000E+02  0.51100000000E-03 0. -1.
         11   -1    0    0    0    0 -0.00000000000E+00 -0.00000000000E+00 -0.45593999997E+02  0.45594000000E+02  0.51100000000E-03 0.  1.
    9900012    2    1    2    0    0  0.19047893136E+02  0.19284611337E+02  0.33895499517E+02  0.47787270112E+02  0.19999995747E+02 0.  0.
        -12    1    1    2    0    0 -0.19047893136E+02 -0.19284611337E+02 -0.33895499517E+02  0.43400729888E+02  0.00000000000E+00 0.  1.
         11    1    3    3    0    0  0.14962012432E+01  0.65108648271E+01  0.90977849686E+01  0.11287146254E+02  0.51100000000E-03 0. -1.
        -11    1    3    3    0    0  0.15609911473E+02  0.16379895412E+02  0.20072317948E+02  0.30246789217E+02  0.51100000000E-03 0.  1.
        -12    1    3    3    0    0  0.19417804192E+01 -0.36061489014E+01  0.47253966004E+01  0.62533346406E+01  0.00000000000E+00 0.  1.
</event>
<event>
 7    1  0.2685294E-009  0.4778727E+02  0.7816164E-02  0.1312668E+00
        -11   -1    0    0    0    0  0.00000000000E+00  0.00000000000E+00  0.45593999997E+02  0.45594000000E+02  0.51100000000E-03 0.  1.
         11   -1    0    0    0    0 -0.00000000000E+00 -0.00000000000E+00 -0.45593999997E+02  0.45594000000E+02  0.51100000000E-03 0. -1.
    9900012    2    1    2    0    0 -0.11656512483E+02  0.38086408773E+02 -0.17238757007E+02  0.47787267753E+02  0.19999984992E+02 0.  0.
        -12    1    1    2    0    0  0.11656512483E+02 -0.38086408773E+02  0.17238757007E+02  0.43400732247E+02  0.00000000000E+00 0.  1.
         11    1    3    3    0    0 -0.91840256119E+01  0.12611326950E+02 -0.11551061175E+02  0.19411823933E+02  0.51100000000E-03 0. -1.
        -11    1    3    3    0    0 -0.51636286474E+01  0.23700634911E+02 -0.35683933843E+01  0.24517679083E+02  0.51100000000E-03 0.  1.
         12    1    3    3    0    0  0.26911417762E+01  0.17744469117E+01 -0.21193024474E+01  0.38577647369E+01  0.00000000000E+00 0. -1.
</event>
<event>
 7    1  0.2685294E-009  0.4778727E+02  0.7816164E-02  0.1312668E+00
        -11   -1    0    0    0    0  0.00000000000E+00  0.00000000000E+00  0.45593999997E+02  0.45594000000E+02  0.51100000000E-03 0. -1.
         11   -1    0    0    0    0 -0.00000000000E+00 -0.00000000000E+00 -0.45593999997E+02  0.45594000000E+02  0.51100000000E-03 0.  1.
    9900012    2    1    2    0    0 -0.10064800952E+02 -0.22848330385E+02  0.35500383644E+02  0.47787266614E+02  0.19999979801E+02 0.  0.
        -12    1    1    2    0    0  0.10064800952E+02  0.22848330385E+02 -0.35500383644E+02  0.43400733386E+02  0.00000000000E+00 0.  1.
         11    1    3    3    0    0 -0.59994898034E+01 -0.22151168837E+02  0.23470384225E+02  0.32825707833E+02  0.51100000000E-03 0. -1.
        -11    1    3    3    0    0 -0.65561015245E+00  0.26825550300E+01  0.10086203402E+01  0.29399390152E+01  0.51100000000E-03 0.  1.
         12    1    3    3    0    0 -0.34097009958E+01 -0.33797165776E+01  0.11021379078E+02  0.12021619766E+02  0.00000000000E+00 0. -1.
</event>
<event>
 7    1  0.2685294E-009  0.4778727E+02  0.7816164E-02  0.1312668E+00
        -11   -1    0    0    0    0  0.00000000000E+00  0.00000000000E+00  0.45593999997E+02  0.45594000000E+02  0.51100000000E-03 0.  1.
         11   -1    0    0    0    0 -0.00000000000E+00 -0.00000000000E+00 -0.45593999997E+02  0.45594000000E+02  0.51100000000E-03 0. -1.
    9900012    2    1    2    0    0  0.40139733418E+02 -0.88610666518E+01 -0.13925033231E+02  0.47787271301E+02  0.20000001170E+02 0.  0.
        -12    1    1    2    0    0 -0.40139733418E+02  0.88610666518E+01  0.13925033231E+02  0.43400728699E+02  0.00000000000E+00 0.  1.
         11    1    3    3    0    0  0.15462585583E+02 -0.23586924648E+01 -0.15491876710E+02  0.22014841069E+02  0.51100000000E-03 0. -1.
        -11    1    3    3    0    0  0.86932588835E+01 -0.27258009649E+01  0.20618754378E+01  0.93409887859E+01  0.51100000000E-03 0.  1.
         12    1    3    3    0    0  0.15983888952E+02 -0.37765732221E+01 -0.49503195832E+00  0.16431441446E+02  0.00000000000E+00 0. -1.
</event>
<event>
 7    1  0.2685294E-009  0.4778727E+02  0.7816164E-02  0.1312668E+00
        -11   -1    0    0    0    0  0.00000000000E+00  0.00000000000E+00  0.45593999997E+02  0.45594000000E+02  0.51100000000E-03 0. -1.
         11   -1    0    0    0    0 -0.00000000000E+00 -0.00000000000E+00 -0.45593999997E+02  0.45594000000E+02  0.51100000000E-03 0.  1.
    9900012    2    1    2    0    0 -0.35051570936E+02 -0.23874297243E+02  0.92210958529E+01  0.47787270713E+02  0.19999998490E+02 0.  0.
        -12    1    1    2    0    0  0.35051570936E+02  0.23874297243E+02 -0.92210958529E+01  0.43400729287E+02  0.00000000000E+00 0.  1.
         11    1    3    3    0    0 -0.80740142692E+01 -0.91923639884E+01  0.44235304930E+01  0.13009876417E+02  0.51100000000E-03 0. -1.
        -11    1    3    3    0    0 -0.23670594013E+01  0.56946454998E+00  0.52865046935E+01  0.58201711502E+01  0.51100000000E-03 0.  1.
        -12    1    3    3    0    0 -0.24610497265E+02 -0.15251397804E+02 -0.48893933356E+00  0.28957223146E+02  0.00000000000E+00 0.  1.
</event>
<event>
 7    1  0.2685294E-009  0.4778727E+02  0.7816164E-02  0.1312668E+00
        -11   -1    0    0    0    0  0.00000000000E+00  0.00000000000E+00  0.45593999997E+02  0.45594000000E+02  0.51100000000E-03 0.  1.
         11   -1    0    0    0    0 -0.00000000000E+00 -0.00000000000E+00 -0.45593999997E+02  0.45594000000E+02  0.51100000000E-03 0. -1.
    9900012    2    1    2    0    0 -0.37143833331E+01  0.28589834546E+02 -0.32441453756E+02  0.47787271841E+02  0.20000003634E+02 0.  0.
        -12    1    1    2    0    0  0.37143833331E+01 -0.28589834546E+02  0.32441453756E+02  0.43400728159E+02  0.00000000000E+00 0.  1.
         11    1    3    3    0    0  0.19291539093E+01  0.21120078411E+02 -0.14791983211E+02  0.25856954857E+02  0.51100000000E-03 0. -1.
        -11    1    3    3    0    0 -0.71900102136E+01  0.75537118811E+01 -0.11224696111E+02  0.15321508186E+02  0.51100000000E-03 0.  1.
         12    1    3    3    0    0  0.15464729713E+01 -0.83955745691E-01 -0.64247744331E+01  0.66088087985E+01  0.00000000000E+00 0. -1.
</event>
<event>
 7    1  0.2685294E-009  0.4778727E+02  0.7816164E-02  0.1312668E+00
        -11   -1    0    0    0    0  0.00000000000E+00  0.00000000000E+00  0.45593999997E+02  0.45594000000E+02  0.51100000000E-03 0.  1.
         11   -1    0    0    0    0 -0.00000000000E+00 -0.00000000000E+00 -0.45593999997E+02  0.45594000000E+02  0.51100000000E-03 0. -1.
    9900012    2    1    2    0    0 -0.24386983558E+02 -0.23743648917E+02 -0.26928374890E+02  0.47787271836E+02  0.20000003609E+02 0.  0.
        -12    1    1    2    0    0  0.24386983558E+02  0.23743648917E+02  0.26928374890E+02  0.43400728164E+02  0.00000000000E+00 0.  1.
         11    1    3    3    0    0 -0.28789882416E+01 -0.28916769205E+01 -0.44160138353E+01  0.60126156673E+01  0.51100000000E-03 0. -1.
        -11    1    3    3    0    0 -0.12834548270E+02 -0.21497779218E+02 -0.11003014559E+02  0.27348610024E+02  0.51100000000E-03 0.  1.
        -12    1    3    3    0    0 -0.86734470460E+01  0.64580722086E+00 -0.11509346495E+02  0.14426046145E+02  0.00000000000E+00 0.  1.
</event>
<event>
 7    1  0.2685294E-009  0.4778727E+02  0.7816164E-02  0.1312668E+00
        -11   -1    0    0    0    0  0.00000000000E+00  0.00000000000E+00  0.45593999997E+02  0.45594000000E+02  0.51100000000E-03 0.  1.
         11   -1    0    0    0    0 -0.00000000000E+00 -0.00000000000E+00 -0.45593999997E+02  0.45594000000E+02  0.51100000000E-03 0. -1.
    9900012    2    1    2    0    0  0.24208732074E+02  0.35975778393E+02 -0.18178132716E+01  0.47787265159E+02  0.19999973167E+02 0.  0.
        -12    1    1    2    0    0 -0.24208732074E+02 -0.35975778393E+02  0.18178132716E+01  0.43400734841E+02  0.00000000000E+00 0.  1.
         11    1    3    3    0    0  0.14446134640E+01  0.37461625669E+01 -0.22728355692E+01  0.46137212555E+01  0.51100000000E-03 0. -1.
        -11    1    3    3    0    0 -0.12591902618E+01  0.35335706975E+01 -0.40014054941E+01  0.54847906231E+01  0.51100000000E-03 0.  1.
         12    1    3    3    0    0  0.24023308872E+02  0.28696045129E+02  0.44564277917E+01  0.37688753281E+02  0.00000000000E+00 0. -1.
</event>
<event>
 7    1  0.2685294E-009  0.4778727E+02  0.7816164E-02  0.1312668E+00
        -11   -1    0    0    0    0  0.00000000000E+00  0.00000000000E+00  0.45593999997E+02  0.45594000000E+02  0.51100000000E-03 0. -1.
         11   -1    0    0    0    0 -0.00000000000E+00 -0.00000000000E+00 -0.45593999997E+02  0.45594000000E+02  0.51100000000E-03 0.  1.
    9900012    2    1    2    0    0 -0.27416874896E+02 -0.22690678659E+02  0.24840927162E+02  0.47787267410E+02  0.19999983427E+02 0.  0.
        -12    1    1    2    0    0  0.27416874896E+02  0.22690678659E+02 -0.24840927162E+02  0.43400732590E+02  0.00000000000E+00 0.  1.
         11    1    3    3    0    0 -0.75400196106E+01 -0.78534599409E+01  0.12228503972E+02  0.16372691850E+02  0.51100000000E-03 0. -1.
        -11    1    3    3    0    0 -0.62014250951E+01 -0.14736035495E+01 -0.26958627658E+01  0.69207555183E+01  0.51100000000E-03 0.  1.
        -12    1    3    3    0    0 -0.13675430191E+02 -0.13363615169E+02  0.15308285956E+02  0.24493820041E+02  0.00000000000E+00 0.  1.
</event>
<event>
 7    1  0.2685294E-009  0.4778726E+02  0.7816164E-02  0.1312668E+00
        -11   -1    0    0    0    0  0.00000000000E+00  0.00000000000E+00  0.45593999997E+02  0.45594000000E+02  0.51100000000E-03 0. -1.
         11   -1    0    0    0    0 -0.00000000000E+00 -0.00000000000E+00 -0.45593999997E+02  0.45594000000E+02  0.51100000000E-03 0.  1.
    9900012    2    1    2    0    0 -0.25150697272E+02 -0.34901606493E+01  0.35197798961E+02  0.47787264450E+02  0.19999969932E+02 0.  0.
        -12    1    1    2    0    0  0.25150697272E+02  0.34901606493E+01 -0.35197798961E+02  0.43400735550E+02  0.00000000000E+00 0.  1.
         11    1    3    3    0    0 -0.13716518055E+02 -0.47114168844E+01  0.77930166041E+01  0.16464246860E+02  0.51100000000E-03 0. -1.
        -11    1    3    3    0    0 -0.97786521087E+01  0.11084707735E+01  0.27905304722E+02  0.29589808657E+02  0.51100000000E-03 0.  1.
         12    1    3    3    0    0 -0.16555271081E+01  0.11278546165E+00 -0.50052236455E+00  0.17332089324E+01  0.00000000000E+00 0. -1.
</event>
<event>
 7    1  0.2685294E-009  0.4778727E+02  0.7816164E-02  0.1312668E+00
        -11   -1    0    0    0    0  0.00000000000E+00  0.00000000000E+00  0.45593999997E+02  0.45594000000E+02  0.51100000000E-03 0.  1.
         11   -1    0    0    0    0 -0.00000000000E+00 -0.00000000000E+00 -0.45593999997E+02  0.45594000000E+02  0.51100000000E-03 0. -1.
    9900012    2    1    2    0    0  0.85365957965E+01 -0.41199625933E+02 -0.10646155853E+02  0.47787270982E+02  0.19999999716E+02 0.  0.
        -12    1    1    2    0    0 -0.85365957965E+01  0.41199625933E+02  0.10646155853E+02  0.43400729018E+02  0.00000000000E+00 0.  1.
         11    1    3    3    0    0  0.52425526387E+01 -0.28777932455E+02  0.78078565355E+00  0.29261978420E+02  0.51100000000E-03 0. -1.
        -11    1    3    3    0    0 -0.54238834790E+00  0.47696653501E+00 -0.19127931326E+01  0.20446173296E+01  0.51100000000E-03 0.  1.
         12    1    3    3    0    0  0.38364315057E+01 -0.12898660013E+02 -0.95141483744E+01  0.16480675233E+02  0.00000000000E+00 0. -1.
</event>
<event>
 7    1  0.2685294E-009  0.4778726E+02  0.7816164E-02  0.1312668E+00
        -11   -1    0    0    0    0  0.00000000000E+00  0.00000000000E+00  0.45593999997E+02  0.45594000000E+02  0.51100000000E-03 0. -1.
         11   -1    0    0    0    0 -0.00000000000E+00 -0.00000000000E+00 -0.45593999997E+02  0.45594000000E+02  0.51100000000E-03 0.  1.
    9900012    2    1    2    0    0  0.24396831950E+02  0.87878523566E+00  0.35883786712E+02  0.47787264736E+02  0.19999971235E+02 0.  0.
        -12    1    1    2    0    0 -0.24396831950E+02 -0.87878523566E+00 -0.35883786712E+02  0.43400735264E+02  0.00000000000E+00 0.  1.
         11    1    3    3    0    0  0.63756816090E+01 -0.75581504677E+01  0.14362391992E+02  0.17437122998E+02  0.51100000000E-03 0. -1.
        -11    1    3    3    0    0 -0.52767845263E+00  0.81457214773E+00  0.26141870255E+01  0.27885383983E+01  0.51100000000E-03 0.  1.
         12    1    3    3    0    0  0.18548828794E+02  0.76223635557E+01  0.18907207694E+02  0.27561603339E+02  0.00000000000E+00 0. -1.
</event>
<event>
 7    1  0.2685294E-009  0.4778727E+02  0.7816164E-02  0.1312668E+00
        -11   -1    0    0    0    0  0.00000000000E+00  0.00000000000E+00  0.45593999997E+02  0.45594000000E+02  0.51100000000E-03 0. -1.
         11   -1    0    0    0    0 -0.00000000000E+00 -0.00000000000E+00 -0.45593999997E+02  0.45594000000E+02  0.51100000000E-03 0.  1.
    9900012    2    1    2    0    0  0.13159977126E+02 -0.11831461831E+01  0.41340517390E+02  0.47787271770E+02  0.20000003309E+02 0.  0.
        -12    1    1    2    0    0 -0.13159977126E+02  0.11831461831E+01 -0.41340517390E+02  0.43400728230E+02  0.00000000000E+00 0.  1.
         11    1    3    3    0    0  0.13209347714E+02 -0.27024444584E+01  0.27147122832E+02  0.30310993903E+02  0.51100000000E-03 0. -1.
        -11    1    3    3    0    0 -0.24610357165E+01  0.43047415456E+01  0.32486079623E+01  0.59279803074E+01  0.51100000000E-03 0.  1.
        -12    1    3    3    0    0  0.24116651279E+01 -0.27854432702E+01  0.10944786595E+02  0.11548297559E+02  0.00000000000E+00 0.  1.
</event>
<event>
 7    1  0.2685294E-009  0.4778727E+02  0.7816164E-02  0.1312668E+00
        -11   -1    0    0    0    0  0.00000000000E+00  0.00000000000E+00  0.45593999997E+02  0.45594000000E+02  0.51100000000E-03 0.  1.
         11   -1    0    0    0    0 -0.00000000000E+00 -0.00000000000E+00 -0.45593999997E+02  0.45594000000E+02  0.51100000000E-03 0. -1.
    9900012    2    1    2    0    0  0.17751294260E+02 -0.39529429728E+02  0.24369665454E+01  0.47787273411E+02  0.20000010791E+02 0.  0.
        -12    1    1    2    0    0 -0.17751294260E+02  0.39529429728E+02 -0.24369665454E+01  0.43400726589E+02  0.00000000000E+00 0.  1.
         11    1    3    3    0    0  0.14702370723E+01 -0.14209085640E+02  0.42903694128E+01  0.14915327074E+02  0.51100000000E-03 0. -1.
        -11    1    3    3    0    0  0.17909120535E+02 -0.19071427595E+02 -0.29286526479E+01  0.26325519091E+02  0.51100000000E-03 0.  1.
        -12    1    3    3    0    0 -0.16280633469E+01 -0.62489164924E+01  0.10752497805E+01  0.65464272455E+01  0.00000000000E+00 0.  1.
</event>
<event>
 7    1  0.2685294E-009  0.4778728E+02  0.7816164E-02  0.1312668E+00
        -11   -1    0    0    0    0  0.00000000000E+00  0.00000000000E+00  0.45593999997E+02  0.45594000000E+02  0.51100000000E-03 0. -1.
         11   -1    0    0    0    0 -0.00000000000E+00 -0.00000000000E+00 -0.45593999997E+02  0.45594000000E+02  0.51100000000E-03 0.  1.
    9900012    2    1    2    0    0  0.11956523372E+02 -0.36349193868E+02  0.20479268657E+02  0.47787276611E+02  0.20000025379E+02 0.  0.
        -12    1    1    2    0    0 -0.11956523372E+02  0.36349193868E+02 -0.20479268657E+02  0.43400723389E+02  0.00000000000E+00 0.  1.
         11    1    3    3    0    0  0.71673908447E+01 -0.16225680293E+01  0.41955817598E+01  0.84620993314E+01  0.51100000000E-03 0.  1.
        -11    1    3    3    0    0  0.66076322118E-01 -0.24341609834E+02  0.12000118829E+02  0.27138923846E+02  0.51100000000E-03 0. -1.
        -12    1    3    3    0    0  0.47230562054E+01 -0.10385016005E+02  0.42835680685E+01  0.12186253433E+02  0.00000000000E+00 0.  1.
</event>
<event>
 7    1  0.2685294E-009  0.4778727E+02  0.7816164E-02  0.1312668E+00
        -11   -1    0    0    0    0  0.00000000000E+00  0.00000000000E+00  0.45593999997E+02  0.45594000000E+02  0.51100000000E-03 0.  1.
         11   -1    0    0    0    0 -0.00000000000E+00 -0.00000000000E+00 -0.45593999997E+02  0.45594000000E+02  0.51100000000E-03 0. -1.
    9900012    2    1    2    0    0  0.11141755561E+02 -0.70841948390E+01 -0.41343662366E+02  0.47787274760E+02  0.20000016942E+02 0.  0.
        -12    1    1    2    0    0 -0.11141755561E+02  0.70841948390E+01  0.41343662366E+02  0.43400725240E+02  0.00000000000E+00 0.  1.
         11    1    3    3    0    0  0.16762838941E+02 -0.62261889742E+01 -0.27687131239E+02  0.32959603077E+02  0.51100000000E-03 0. -1.
        -11    1    3    3    0    0 -0.38016850310E+01 -0.56510224675E+00 -0.10376097972E+02  0.11065060280E+02  0.51100000000E-03 0.  1.
         12    1    3    3    0    0 -0.18193983489E+01 -0.29290361803E+00 -0.32804331555E+01  0.37626114029E+01  0.00000000000E+00 0. -1.
</event>
<event>
 7    1  0.2685294E-009  0.4778727E+02  0.7816164E-02  0.1312668E+00
        -11   -1    0    0    0    0  0.00000000000E+00  0.00000000000E+00  0.45593999997E+02  0.45594000000E+02  0.51100000000E-03 0. -1.
         11   -1    0    0    0    0 -0.00000000000E+00 -0.00000000000E+00 -0.45593999997E+02  0.45594000000E+02  0.51100000000E-03 0.  1.
    9900012    2    1    2    0    0 -0.15871227740E+02 -0.12151045040E+02  0.38523753895E+02  0.47787269825E+02  0.19999994441E+02 0.  0.
        -12    1    1    2    0    0  0.15871227740E+02  0.12151045040E+02 -0.38523753895E+02  0.43400730175E+02  0.00000000000E+00 0.  1.
         11    1    3    3    0    0 -0.13941466991E+02 -0.11556495684E+02  0.34797155571E+02  0.39227020413E+02  0.51100000000E-03 0. -1.
        -11    1    3    3    0    0  0.88389684254E-01 -0.30483112955E+01 -0.68317611142E+00  0.31251790911E+01  0.51100000000E-03 0.  1.
        -12    1    3    3    0    0 -0.20181504339E+01  0.24537619394E+01  0.44097744354E+01  0.54350703215E+01  0.00000000000E+00 0.  1.
</event>
<event>
 7    1  0.2892534E-009  0.4778727E+02  0.7816164E-02  0.1312668E+00
        -11   -1    0    0    0    0  0.00000000000E+00  0.00000000000E+00  0.45593999997E+02  0.45594000000E+02  0.51100000000E-03 0. -1.
         11   -1    0    0    0    0 -0.00000000000E+00 -0.00000000000E+00 -0.45593999997E+02  0.45594000000E+02  0.51100000000E-03 0.  1.
    9900012    2    1    2    0    0  0.13612881509E+02  0.19993449029E+02  0.36035743163E+02  0.47787270370E+02  0.19999996927E+02 0.  0.
        -12    1    1    2    0    0 -0.13612881509E+02 -0.19993449029E+02 -0.36035743163E+02  0.43400729630E+02  0.00000000000E+00 0.  1.
         11    1    3    3    0    0  0.71014710739E+01  0.14345324227E+02  0.23700305635E+02  0.28599365483E+02  0.51100000000E-03 0. -1.
        -11    1    3    3    0    0  0.79442485355E+01 -0.44240868545E-01  0.37433205922E+01  0.87821120106E+01  0.51100000000E-03 0.  1.
        -12    1    3    3    0    0 -0.14328381000E+01  0.56923656704E+01  0.85921169360E+01  0.10405792876E+02  0.00000000000E+00 0.  1.
</event>
<event>
 7    1  0.2685294E-009  0.4778727E+02  0.7816164E-02  0.1312668E+00
        -11   -1    0    0    0    0  0.00000000000E+00  0.00000000000E+00  0.45593999997E+02  0.45594000000E+02  0.51100000000E-03 0.  1.
         11   -1    0    0    0    0 -0.00000000000E+00 -0.00000000000E+00 -0.45593999997E+02  0.45594000000E+02  0.51100000000E-03 0. -1.
    9900012    2    1    2    0    0 -0.32273551858E+00  0.80130933183E+01 -0.42653366710E+02  0.47787268273E+02  0.19999987365E+02 0.  0.
        -12    1    1    2    0    0  0.32273551858E+00 -0.80130933183E+01  0.42653366710E+02  0.43400731727E+02  0.00000000000E+00 0.  1.
         11    1    3    3    0    0 -0.38011177234E+01  0.75813697620E+01 -0.52565947354E+01  0.99778480590E+01  0.51100000000E-03 0. -1.
        -11    1    3    3    0    0  0.10358168040E+01 -0.17525045224E+01 -0.20273213637E+02  0.20375165765E+02  0.51100000000E-03 0.  1.
         12    1    3    3    0    0  0.24425654008E+01  0.21842280787E+01 -0.17123558338E+02  0.17434254449E+02  0.00000000000E+00 0. -1.
</event>
<event>
 7    1  0.2685294E-009  0.4778727E+02  0.7816164E-02  0.1312668E+00
        -11   -1    0    0    0    0  0.00000000000E+00  0.00000000000E+00  0.45593999997E+02  0.45594000000E+02  0.51100000000E-03 0. -1.
         11   -1    0    0    0    0 -0.00000000000E+00 -0.00000000000E+00 -0.45593999997E+02  0.45594000000E+02  0.51100000000E-03 0.  1.
    9900012    2    1    2    0    0 -0.22553544981E+02 -0.34131097587E+02  0.14492381739E+02  0.47787270258E+02  0.19999996412E+02 0.  0.
        -12    1    1    2    0    0  0.22553544981E+02  0.34131097587E+02 -0.14492381739E+02  0.43400729742E+02  0.00000000000E+00 0.  1.
         11    1    3    3    0    0 -0.29926424121E+01 -0.17217900508E+01  0.81507978762E+01  0.88518910898E+01  0.51100000000E-03 0. -1.
        -11    1    3    3    0    0 -0.42506482408E+01 -0.89230135101E+01 -0.10559378416E+01  0.99399791527E+01  0.51100000000E-03 0.  1.
         12    1    3    3    0    0 -0.15310254328E+02 -0.23486294026E+02  0.73975217044E+01  0.28995400015E+02  0.00000000000E+00 0. -1.
</event>
<event>
 7    1  0.2685294E-009  0.4778727E+02  0.7816164E-02  0.1312668E+00
        -11   -1    0    0    0    0  0.00000000000E+00  0.00000000000E+00  0.45593999997E+02  0.45594000000E+02  0.51100000000E-03 0.  1.
         11   -1    0    0    0    0 -0.00000000000E+00 -0.00000000000E+00 -0.45593999997E+02  0.45594000000E+02  0.51100000000E-03 0. -1.
    9900012    2    1    2    0    0 -0.29055886203E+02  0.26771668732E+02 -0.17962644321E+02  0.47787270044E+02  0.19999995436E+02 0.  0.
        -12    1    1    2    0    0  0.29055886203E+02 -0.26771668732E+02  0.17962644321E+02  0.43400729956E+02  0.00000000000E+00 0.  1.
         11    1    3    3    0    0 -0.25439624643E+02  0.23357327099E+02 -0.20843085651E+02  0.40338238074E+02  0.51100000000E-03 0. -1.
        -11    1    3    3    0    0 -0.14209532334E+01 -0.66279760864E+00  0.22980043014E+01  0.27819476616E+01  0.51100000000E-03 0.  1.
         12    1    3    3    0    0 -0.21953083272E+01  0.40771392417E+01  0.58243702863E+00  0.46670843082E+01  0.00000000000E+00 0. -1.
</event>
<event>
 7    1  0.2685294E-009  0.4778726E+02  0.7816164E-02  0.1312668E+00
        -11   -1    0    0    0    0  0.00000000000E+00  0.00000000000E+00  0.45593999997E+02  0.45594000000E+02  0.51100000000E-03 0.  1.
         11   -1    0    0    0    0 -0.00000000000E+00 -0.00000000000E+00 -0.45593999997E+02  0.45594000000E+02  0.51100000000E-03 0. -1.
    9900012    2    1    2    0    0 -0.27265265260E+02 -0.26666927558E+01 -0.33661816331E+02  0.47787264768E+02  0.19999971385E+02 0.  0.
        -12    1    1    2    0    0  0.27265265260E+02  0.26666927558E+01  0.33661816331E+02  0.43400735232E+02  0.00000000000E+00 0.  1.
         11    1    3    3    0    0 -0.30251230425E+01 -0.70316695005E+01 -0.57594918285E+01  0.95795350498E+01  0.51100000000E-03 0. -1.
        -11    1    3    3    0    0 -0.34743656777E+01  0.25831077311E+00 -0.40655989348E+00  0.35075964029E+01  0.51100000000E-03 0.  1.
         12    1    3    3    0    0 -0.20765776540E+02  0.41066659716E+01 -0.27495764609E+02  0.34700133316E+02  0.00000000000E+00 0. -1.
</event>
<event>
 7    1  0.2685294E-009  0.4778727E+02  0.7816164E-02  0.1312668E+00
        -11   -1    0    0    0    0  0.00000000000E+00  0.00000000000E+00  0.45593999997E+02  0.45594000000E+02  0.51100000000E-03 0. -1.
         11   -1    0    0    0    0 -0.00000000000E+00 -0.00000000000E+00 -0.45593999997E+02  0.45594000000E+02  0.51100000000E-03 0.  1.
    9900012    2    1    2    0    0  0.23434239303E+02 -0.11857938154E+02  0.34552118004E+02  0.47787272730E+02  0.20000007685E+02 0.  0.
        -12    1    1    2    0    0 -0.23434239303E+02  0.11857938154E+02 -0.34552118004E+02  0.43400727270E+02  0.00000000000E+00 0.  1.
         11    1    3    3    0    0 -0.13792764251E+01 -0.47427161530E+01  0.72545383859E+01  0.87763367881E+01  0.51100000000E-03 0. -1.
        -11    1    3    3    0    0  0.15031429277E+01 -0.21222622731E+01  0.77738146032E+01  0.81972940391E+01  0.51100000000E-03 0.  1.
         12    1    3    3    0    0  0.23310372801E+02 -0.49929597284E+01  0.19523765015E+02  0.30813641903E+02  0.00000000000E+00 0. -1.
</event>
<event>
 7    1  0.2685294E-009  0.4778727E+02  0.7816164E-02  0.1312668E+00
        -11   -1    0    0    0    0  0.00000000000E+00  0.00000000000E+00  0.45593999997E+02  0.45594000000E+02  0.51100000000E-03 0. -1.
         11   -1    0    0    0    0 -0.00000000000E+00 -0.00000000000E+00 -0.45593999997E+02  0.45594000000E+02  0.51100000000E-03 0.  1.
    9900012    2    1    2    0    0 -0.12080601335E+02 -0.10244973086E+01  0.41672926116E+02  0.47787270807E+02  0.19999998920E+02 0.  0.
        -12    1    1    2    0    0  0.12080601335E+02  0.10244973086E+01 -0.41672926116E+02  0.43400729193E+02  0.00000000000E+00 0.  1.
         11    1    3    3    0    0  0.98258903962E+00 -0.17292794283E+01  0.24331230720E+02  0.24412387781E+02  0.51100000000E-03 0. -1.
        -11    1    3    3    0    0 -0.14839566294E+01 -0.30380572574E+01  0.26371474765E+01  0.42879442920E+01  0.51100000000E-03 0.  1.
         12    1    3    3    0    0 -0.11579233745E+02  0.37428393771E+01  0.14704547920E+02  0.19086938734E+02  0.00000000000E+00 0. -1.
</event>
<event>
 7    1  0.2685294E-009  0.4778727E+02  0.7816164E-02  0.1312668E+00
        -11   -1    0    0    0    0  0.00000000000E+00  0.00000000000E+00  0.45593999997E+02  0.45594000000E+02  0.51100000000E-03 0.  1.
         11   -1    0    0    0    0 -0.00000000000E+00 -0.00000000000E+00 -0.45593999997E+02  0.45594000000E+02  0.51100000000E-03 0. -1.
    9900012    2    1    2    0    0  0.30965945350E+02 -0.24731198949E+02 -0.17694661703E+02  0.47787273905E+02  0.20000013041E+02 0.  0.
        -12    1    1    2    0    0 -0.30965945350E+02  0.24731198949E+02  0.17694661703E+02  0.43400726095E+02  0.00000000000E+00 0.  1.
         11    1    3    3    0    0  0.16174371080E+02 -0.17870070908E+02 -0.13651709968E+02  0.27700521645E+02  0.51100000000E-03 0. -1.
        -11    1    3    3    0    0  0.13758252666E+02 -0.29260714528E+01  0.38796816404E+00  0.14071315864E+02  0.51100000000E-03 0.  1.
        -12    1    3    3    0    0  0.10333216031E+01 -0.39350565881E+01 -0.44309198983E+01  0.60154363958E+01  0.00000000000E+00 0.  1.
</event>
<event>
 7    1  0.2685294E-009  0.4778727E+02  0.7816164E-02  0.1312668E+00
        -11   -1    0    0    0    0  0.00000000000E+00  0.00000000000E+00  0.45593999997E+02  0.45594000000E+02  0.51100000000E-03 0.  1.
         11   -1    0    0    0    0 -0.00000000000E+00 -0.00000000000E+00 -0.45593999997E+02  0.45594000000E+02  0.51100000000E-03 0. -1.
    9900012    2    1    2    0    0 -0.17048495589E+02  0.39563659432E+02 -0.52620686563E+01  0.47787265950E+02  0.19999976774E+02 0.  0.
        -12    1    1    2    0    0  0.17048495589E+02 -0.39563659432E+02  0.52620686563E+01  0.43400734050E+02  0.00000000000E+00 0.  1.
         11    1    3    3    0    0 -0.84153233971E+01  0.31913553191E+01  0.16644604982E+01  0.91527507156E+01  0.51100000000E-03 0. -1.
        -11    1    3    3    0    0 -0.60516265808E+01  0.23121058632E+02 -0.10849470377E+01  0.23924519784E+02  0.51100000000E-03 0.  1.
        -12    1    3    3    0    0 -0.25815456111E+01  0.13251245481E+02 -0.58415821169E+01  0.14709995451E+02  0.00000000000E+00 0.  1.
</event>
<event>
 7    1  0.2697778E-009  0.4778726E+02  0.7816164E-02  0.1312668E+00
        -11   -1    0    0    0    0  0.00000000000E+00  0.00000000000E+00  0.45593999997E+02  0.45594000000E+02  0.51100000000E-03 0. -1.
         11   -1    0    0    0    0 -0.00000000000E+00 -0.00000000000E+00 -0.45593999997E+02  0.45594000000E+02  0.51100000000E-03 0.  1.
    9900012    2    1    2    0    0 -0.30609474479E+02 -0.15432341756E+02  0.26618172865E+02  0.47787260068E+02  0.19999949954E+02 0.  0.
        -12    1    1    2    0    0  0.30609474479E+02  0.15432341756E+02 -0.26618172865E+02  0.43400739932E+02  0.00000000000E+00 0.  1.
         11    1    3    3    0    0 -0.43554101863E+01 -0.42568505073E+01  0.37093251339E+01  0.71308812458E+01  0.51100000000E-03 0. -1.
        -11    1    3    3    0    0 -0.13512894451E+02 -0.12193517499E+02  0.54130711252E+01  0.18988984299E+02  0.51100000000E-03 0.  1.
        -12    1    3    3    0    0 -0.12741169842E+02  0.10180262501E+01  0.17495776606E+02  0.21667394523E+02  0.00000000000E+00 0.  1.
</event>
<event>
 7    1  0.2685294E-009  0.4778727E+02  0.7816164E-02  0.1312668E+00
        -11   -1    0    0    0    0  0.00000000000E+00  0.00000000000E+00  0.45593999997E+02  0.45594000000E+02  0.51100000000E-03 0. -1.
         11   -1    0    0    0    0 -0.00000000000E+00 -0.00000000000E+00 -0.45593999997E+02  0.45594000000E+02  0.51100000000E-03 0.  1.
    9900012    2    1    2    0    0  0.22634209015E+02 -0.36194392627E+02 -0.78282889657E+01  0.47787267477E+02  0.19999983736E+02 0.  0.
        -12    1    1    2    0    0 -0.22634209015E+02  0.36194392627E+02  0.78282889657E+01  0.43400732523E+02  0.00000000000E+00 0.  1.
         11    1    3    3    0    0  0.42263441363E+00  0.21896404720E+01 -0.63793463127E+00  0.23195055721E+01  0.51100000000E-03 0. -1.
        -11    1    3    3    0    0  0.10521922691E+02 -0.18588205464E+02 -0.69999320041E+01  0.22477350551E+02  0.51100000000E-03 0.  1.
         12    1    3    3    0    0  0.11689651910E+02 -0.19795827636E+02 -0.19042233030E+00  0.22990411354E+02  0.00000000000E+00 0. -1.
</event>
<event>
 7    1  0.2685294E-009  0.4778727E+02  0.7816164E-02  0.1312668E+00
        -11   -1    0    0    0    0  0.00000000000E+00  0.00000000000E+00  0.45593999997E+02  0.45594000000E+02  0.51100000000E-03 0.  1.
         11   -1    0    0    0    0 -0.00000000000E+00 -0.00000000000E+00 -0.45593999997E+02  0.45594000000E+02  0.51100000000E-03 0. -1.
    9900012    2    1    2    0    0  0.10992328948E+02  0.41985610656E+02 -0.20133570248E-01  0.47787271859E+02  0.20000003713E+02 0.  0.
        -12    1    1    2    0    0 -0.10992328948E+02 -0.41985610656E+02  0.20133570248E-01  0.43400728141E+02  0.00000000000E+00 0.  1.
         11    1    3    3    0    0  0.93169658605E+00  0.21796404074E+02 -0.13799701091E+01  0.21859908666E+02  0.51100000000E-03 0. -1.
        -11    1    3    3    0    0  0.53709665184E+01  0.73735090672E+00 -0.17087177714E+01  0.56842487969E+01  0.51100000000E-03 0.  1.
        -12    1    3    3    0    0  0.46896658440E+01  0.19451855674E+02  0.30685543102E+01  0.20243114396E+02  0.00000000000E+00 0.  1.
</event>
<event>
 7    1  0.2685294E-009  0.4778728E+02  0.7816164E-02  0.1312668E+00
        -11   -1    0    0    0    0  0.00000000000E+00  0.00000000000E+00  0.45593999997E+02  0.45594000000E+02  0.51100000000E-03 0.  1.
         11   -1    0    0    0    0 -0.00000000000E+00 -0.00000000000E+00 -0.45593999997E+02  0.45594000000E+02  0.51100000000E-03 0. -1.
    9900012    2    1    2    0    0 -0.13810917964E+01 -0.28871689189E+01 -0.43282548923E+02  0.47787283413E+02  0.20000056395E+02 0.  0.
        -12    1    1    2    0    0  0.13810917964E+01  0.28871689189E+01  0.43282548923E+02  0.43400716587E+02  0.00000000000E+00 0.  1.
         11    1    3    3    0    0 -0.26074062658E+01 -0.64278767392E+01 -0.83463651531E+01  0.10852556304E+02  0.51100000000E-03 0. -1.
        -11    1    3    3    0    0  0.39030269741E+01  0.37098022693E+01 -0.33425546473E+02  0.33856512073E+02  0.51100000000E-03 0.  1.
        -12    1    3    3    0    0 -0.26767125048E+01 -0.16909444901E+00 -0.15106372969E+01  0.30782150361E+01  0.00000000000E+00 0.  1.
</event>
<event>
 7    1  0.2685294E-009  0.4778727E+02  0.7816164E-02  0.1312668E+00
        -11   -1    0    0    0    0  0.00000000000E+00  0.00000000000E+00  0.45593999997E+02  0.45594000000E+02  0.51100000000E-03 0.  1.
         11   -1    0    0    0    0 -0.00000000000E+00 -0.00000000000E+00 -0.45593999997E+02  0.45594000000E+02  0.51100000000E-03 0. -1.
    9900012    2    1    2    0    0  0.35755070715E+02  0.62507087829E+01 -0.23793417900E+02  0.47787272155E+02  0.20000005063E+02 0.  0.
        -12    1    1    2    0    0 -0.35755070715E+02 -0.62507087829E+01  0.23793417900E+02  0.43400727845E+02  0.00000000000E+00 0.  1.
         11    1    3    3    0    0  0.90141883773E+01  0.43168615162E+00 -0.16745872583E+02  0.19022780918E+02  0.51100000000E-03 0. -1.
        -11    1    3    3    0    0  0.26694418392E+02  0.53226260759E+01 -0.73325375104E+01  0.28190218663E+02  0.51100000000E-03 0.  1.
        -12    1    3    3    0    0  0.46463945695E-01  0.49639655541E+00  0.28499219408E+00  0.57427257392E+00  0.00000000000E+00 0.  1.
</event>
<event>
 7    1  0.2685294E-009  0.4778727E+02  0.7816164E-02  0.1312668E+00
        -11   -1    0    0    0    0  0.00000000000E+00  0.00000000000E+00  0.45593999997E+02  0.45594000000E+02  0.51100000000E-03 0. -1.
         11   -1    0    0    0    0 -0.00000000000E+00 -0.00000000000E+00 -0.45593999997E+02  0.45594000000E+02  0.51100000000E-03 0.  1.
    9900012    2    1    2    0    0  0.10662807170E+02 -0.39907846011E+02  0.13315095169E+02  0.47787269715E+02  0.19999993937E+02 0.  0.
        -12    1    1    2    0    0 -0.10662807170E+02  0.39907846011E+02 -0.13315095169E+02  0.43400730285E+02  0.00000000000E+00 0.  1.
         11    1    3    3    0    0  0.52051614754E+01 -0.25672087511E+02  0.12398586445E+01  0.26223787539E+02  0.51100000000E-03 0. -1.
        -11    1    3    3    0    0  0.36151243051E+01 -0.22018848266E+01 -0.24899194351E+00  0.42402143554E+01  0.51100000000E-03 0.  1.
         12    1    3    3    0    0  0.18425213892E+01 -0.12033873673E+02  0.12324228468E+02  0.17323267820E+02  0.00000000000E+00 0. -1.
</event>
<event>
 7    1  0.2685294E-009  0.4778727E+02  0.7816164E-02  0.1312668E+00
        -11   -1    0    0    0    0  0.00000000000E+00  0.00000000000E+00  0.45593999997E+02  0.45594000000E+02  0.51100000000E-03 0.  1.
         11   -1    0    0    0    0 -0.00000000000E+00 -0.00000000000E+00 -0.45593999997E+02  0.45594000000E+02  0.51100000000E-03 0. -1.
    9900012    2    1    2    0    0  0.20967486057E+02 -0.37877836966E+02 -0.30425654703E+01  0.47787271787E+02  0.20000003387E+02 0.  0.
        -12    1    1    2    0    0 -0.20967486057E+02  0.37877836966E+02  0.30425654703E+01  0.43400728213E+02  0.00000000000E+00 0.  1.
         11    1    3    3    0    0  0.61834909012E+01 -0.14005123009E+02  0.89204878604E-01  0.15309702413E+02  0.51100000000E-03 0. -1.
        -11    1    3    3    0    0  0.42215087093E+01 -0.34498882012E+00  0.38878563932E+01  0.57493982871E+01  0.51100000000E-03 0.  1.
        -12    1    3    3    0    0  0.10562486446E+02 -0.23527725137E+02 -0.70196267420E+01  0.26728171087E+02  0.00000000000E+00 0.  1.
</event>
<event>
 7    1  0.2685294E-009  0.4778727E+02  0.7816164E-02  0.1312668E+00
        -11   -1    0    0    0    0  0.00000000000E+00  0.00000000000E+00  0.45593999997E+02  0.45594000000E+02  0.51100000000E-03 0.  1.
         11   -1    0    0    0    0 -0.00000000000E+00 -0.00000000000E+00 -0.45593999997E+02  0.45594000000E+02  0.51100000000E-03 0. -1.
    9900012    2    1    2    0    0 -0.51901899238E+00  0.14996981264E+02 -0.40724002969E+02  0.47787271370E+02  0.20000001486E+02 0.  0.
        -12    1    1    2    0    0  0.51901899238E+00 -0.14996981264E+02  0.40724002969E+02  0.43400728630E+02  0.00000000000E+00 0.  1.
         11    1    3    3    0    0 -0.85016107422E+00  0.87207660277E+01 -0.72178553706E+01  0.11352179102E+02  0.51100000000E-03 0. -1.
        -11    1    3    3    0    0  0.48479961837E+01  0.56661924611E+01 -0.29296378212E+02  0.30230557067E+02  0.51100000000E-03 0.  1.
        -12    1    3    3    0    0 -0.45168541019E+01  0.61002277485E+00 -0.42097693869E+01  0.62045352005E+01  0.00000000000E+00 0.  1.
</event>
<event>
 7    1  0.2685294E-009  0.4778727E+02  0.7816164E-02  0.1312668E+00
        -11   -1    0    0    0    0  0.00000000000E+00  0.00000000000E+00  0.45593999997E+02  0.45594000000E+02  0.51100000000E-03 0.  1.
         11   -1    0    0    0    0 -0.00000000000E+00 -0.00000000000E+00 -0.45593999997E+02  0.45594000000E+02  0.51100000000E-03 0. -1.
    9900012    2    1    2    0    0 -0.11370038993E+02 -0.58913776536E+01 -0.41468509345E+02  0.47787269769E+02  0.19999994183E+02 0.  0.
        -12    1    1    2    0    0  0.11370038993E+02  0.58913776536E+01  0.41468509345E+02  0.43400730231E+02  0.00000000000E+00 0.  1.
         11    1    3    3    0    0 -0.71083872133E+00 -0.17365884412E+01 -0.24378104757E+02  0.24450215192E+02  0.51100000000E-03 0. -1.
        -11    1    3    3    0    0  0.23280047955E+01 -0.45591471885E+00 -0.29329388814E+01  0.37722135811E+01  0.51100000000E-03 0.  1.
         12    1    3    3    0    0 -0.12987205067E+02 -0.36988744936E+01 -0.14157465706E+02  0.19564840996E+02  0.00000000000E+00 0. -1.
</event>
<event>
 7    1  0.2685294E-009  0.4778727E+02  0.7816164E-02  0.1312668E+00
        -11   -1    0    0    0    0  0.00000000000E+00  0.00000000000E+00  0.45593999997E+02  0.45594000000E+02  0.51100000000E-03 0.  1.
         11   -1    0    0    0    0 -0.00000000000E+00 -0.00000000000E+00 -0.45593999997E+02  0.45594000000E+02  0.51100000000E-03 0. -1.
    9900012    2    1    2    0    0  0.62258831697E+01 -0.10383847968E+02 -0.41677784216E+02  0.47787267091E+02  0.19999981974E+02 0.  0.
        -12    1    1    2    0    0 -0.62258831697E+01  0.10383847968E+02  0.41677784216E+02  0.43400732909E+02  0.00000000000E+00 0.  1.
         11    1    3    3    0    0  0.15837341378E+01 -0.24986703983E+01 -0.28874982530E+02  0.29026129331E+02  0.51100000000E-03 0. -1.
        -11    1    3    3    0    0  0.26369486734E+01  0.38900382808E+00  0.73843998006E+00  0.27658843341E+01  0.51100000000E-03 0.  1.
         12    1    3    3    0    0  0.20052003586E+01 -0.82741813981E+01 -0.13541241666E+02  0.15995253425E+02  0.00000000000E+00 0. -1.
</event>
<event>
 7    1  0.2685294E-009  0.4778727E+02  0.7816164E-02  0.1312668E+00
        -11   -1    0    0    0    0  0.00000000000E+00  0.00000000000E+00  0.45593999997E+02  0.45594000000E+02  0.51100000000E-03 0.  1.
         11   -1    0    0    0    0 -0.00000000000E+00 -0.00000000000E+00 -0.45593999997E+02  0.45594000000E+02  0.51100000000E-03 0. -1.
    9900012    2    1    2    0    0  0.27414715035E+02 -0.17859700930E+02  0.28514696471E+02  0.47787269216E+02  0.19999991664E+02 0.  0.
        -12    1    1    2    0    0 -0.27414715035E+02  0.17859700930E+02 -0.28514696471E+02  0.43400730784E+02  0.00000000000E+00 0.  1.
         11    1    3    3    0    0  0.22140045378E+02 -0.64278877783E+01  0.16749444021E+02  0.28496372153E+02  0.51100000000E-03 0. -1.
        -11    1    3    3    0    0  0.10418218347E+01 -0.57598574697E+00  0.63169832514E+01  0.64281747002E+01  0.51100000000E-03 0.  1.
         12    1    3    3    0    0  0.42328478222E+01 -0.10855827405E+02  0.54482691988E+01  0.12862722363E+02  0.00000000000E+00 0. -1.
</event>
<event>
 7    1  0.2685294E-009  0.4778727E+02  0.7816164E-02  0.1312668E+00
        -11   -1    0    0    0    0  0.00000000000E+00  0.00000000000E+00  0.45593999997E+02  0.45594000000E+02  0.51100000000E-03 0.  1.
         11   -1    0    0    0    0 -0.00000000000E+00 -0.00000000000E+00 -0.45593999997E+02  0.45594000000E+02  0.51100000000E-03 0. -1.
    9900012    2    1    2    0    0 -0.15873178041E+02  0.51274700684E+01 -0.40067124071E+02  0.47787272336E+02  0.20000005890E+02 0.  0.
        -12    1    1    2    0    0  0.15873178041E+02 -0.51274700684E+01  0.40067124071E+02  0.43400727664E+02  0.00000000000E+00 0.  1.
         11    1    3    3    0    0 -0.24243292643E+01  0.45700530546E+01 -0.25866994734E+02  0.26379237558E+02  0.51100000000E-03 0. -1.
        -11    1    3    3    0    0 -0.86803754097E+01  0.45375650312E+01 -0.91310435692E+01  0.13390831587E+02  0.51100000000E-03 0.  1.
         12    1    3    3    0    0 -0.47684733670E+01 -0.39801480174E+01 -0.50690857681E+01  0.80172031916E+01  0.00000000000E+00 0. -1.
</event>
<event>
 7    1  0.2685294E-009  0.4778727E+02  0.7816164E-02  0.1312668E+00
        -11   -1    0    0    0    0  0.00000000000E+00  0.00000000000E+00  0.45593999997E+02  0.45594000000E+02  0.51100000000E-03 0.  1.
         11   -1    0    0    0    0 -0.00000000000E+00 -0.00000000000E+00 -0.45593999997E+02  0.45594000000E+02  0.51100000000E-03 0. -1.
    9900012    2    1    2    0    0  0.14092561285E+02  0.14240873183E+02 -0.38499622719E+02  0.47787266111E+02  0.19999977507E+02 0.  0.
        -12    1    1    2    0    0 -0.14092561285E+02 -0.14240873183E+02  0.38499622719E+02  0.43400733889E+02  0.00000000000E+00 0.  1.
         11    1    3    3    0    0  0.15253557235E+02  0.44146748637E+01 -0.28999731328E+02  0.33062740054E+02  0.51100000000E-03 0. -1.
        -11    1    3    3    0    0 -0.36407783679E+00  0.45302742111E+01 -0.96139989151E+00  0.46454523043E+01  0.51100000000E-03 0.  1.
         12    1    3    3    0    0 -0.79691811298E+00  0.52959241085E+01 -0.85384914991E+01  0.10079073753E+02  0.00000000000E+00 0. -1.
</event>
<event>
 7    1  0.2685294E-009  0.4778727E+02  0.7816164E-02  0.1312668E+00
        -11   -1    0    0    0    0  0.00000000000E+00  0.00000000000E+00  0.45593999997E+02  0.45594000000E+02  0.51100000000E-03 0.  1.
         11   -1    0    0    0    0 -0.00000000000E+00 -0.00000000000E+00 -0.45593999997E+02  0.45594000000E+02  0.51100000000E-03 0. -1.
    9900012    2    1    2    0    0  0.15722739458E+02  0.37552530235E+02 -0.15040816092E+02  0.47787271759E+02  0.20000003260E+02 0.  0.
        -12    1    1    2    0    0 -0.15722739458E+02 -0.37552530235E+02  0.15040816092E+02  0.43400728241E+02  0.00000000000E+00 0.  1.
         11    1    3    3    0    0  0.89897093840E+01  0.18491573920E+02 -0.99912458777E+01  0.22859968838E+02  0.51100000000E-03 0. -1.
        -11    1    3    3    0    0  0.12438166440E+01  0.15970734450E+02  0.11869913477E+01  0.16063013024E+02  0.51100000000E-03 0.  1.
        -12    1    3    3    0    0  0.54892134299E+01  0.30902218654E+01 -0.62365615619E+01  0.88642898967E+01  0.00000000000E+00 0.  1.
</event>
<event>
 7    1  0.2685294E-009  0.4778727E+02  0.7816164E-02  0.1312668E+00
        -11   -1    0    0    0    0  0.00000000000E+00  0.00000000000E+00  0.45593999997E+02  0.45594000000E+02  0.51100000000E-03 0.  1.
         11   -1    0    0    0    0 -0.00000000000E+00 -0.00000000000E+00 -0.45593999997E+02  0.45594000000E+02  0.51100000000E-03 0. -1.
    9900012    2    1    2    0    0 -0.32643946942E+01  0.40168647648E+02 -0.16107357548E+02  0.47787268511E+02  0.19999988448E+02 0.  0.
        -12    1    1    2    0    0  0.32643946942E+01 -0.40168647648E+02  0.16107357548E+02  0.43400731489E+02  0.00000000000E+00 0.  1.
         11    1    3    3    0    0 -0.29068114662E+01  0.14559765514E+02 -0.29474887574E+01  0.15136842965E+02  0.51100000000E-03 0. -1.
        -11    1    3    3    0    0  0.26520421766E+01  0.15442680323E+02  0.10496757401E+00  0.15669100859E+02  0.51100000000E-03 0.  1.
        -12    1    3    3    0    0 -0.30096254046E+01  0.10166201811E+02 -0.13264836365E+02  0.16981324687E+02  0.00000000000E+00 0.  1.
</event>
<event>
 7    1  0.2685294E-009  0.4778727E+02  0.7816164E-02  0.1312668E+00
        -11   -1    0    0    0    0  0.00000000000E+00  0.00000000000E+00  0.45593999997E+02  0.45594000000E+02  0.51100000000E-03 0.  1.
         11   -1    0    0    0    0 -0.00000000000E+00 -0.00000000000E+00 -0.45593999997E+02  0.45594000000E+02  0.51100000000E-03 0. -1.
    9900012    2    1    2    0    0 -0.17477227280E+02  0.39279763279E+02  0.59388382586E+01  0.47787273318E+02  0.20000010366E+02 0.  0.
        -12    1    1    2    0    0  0.17477227280E+02 -0.39279763279E+02 -0.59388382586E+01  0.43400726682E+02  0.00000000000E+00 0.  1.
         11    1    3    3    0    0 -0.12269811681E+02  0.26153619095E+02 -0.37645159267E+01  0.29132999346E+02  0.51100000000E-03 0. -1.
        -11    1    3    3    0    0  0.22988684423E+00  0.81831695001E+01  0.71675497143E+01  0.10880757336E+02  0.51100000000E-03 0.  1.
         12    1    3    3    0    0 -0.54373024429E+01  0.49429746842E+01  0.25358044709E+01  0.77735166366E+01  0.00000000000E+00 0. -1.
</event>
<event>
 7    1  0.2685294E-009  0.4778727E+02  0.7816164E-02  0.1312668E+00
        -11   -1    0    0    0    0  0.00000000000E+00  0.00000000000E+00  0.45593999997E+02  0.45594000000E+02  0.51100000000E-03 0. -1.
         11   -1    0    0    0    0 -0.00000000000E+00 -0.00000000000E+00 -0.45593999997E+02  0.45594000000E+02  0.51100000000E-03 0.  1.
    9900012    2    1    2    0    0  0.23047357184E+01  0.23609214178E+02  0.36344410304E+02  0.47787274647E+02  0.20000016424E+02 0.  0.
        -12    1    1    2    0    0 -0.23047357184E+01 -0.23609214178E+02 -0.36344410304E+02  0.43400725353E+02  0.00000000000E+00 0.  1.
         11    1    3    3    0    0  0.54520513557E+01  0.13455767160E+02  0.23737511695E+02  0.27825384015E+02  0.51100000000E-03 0. -1.
        -11    1    3    3    0    0 -0.42709176930E+01  0.67391422172E+01  0.12827628364E+01  0.80809811607E+01  0.51100000000E-03 0.  1.
         12    1    3    3    0    0  0.11236020557E+01  0.34143048010E+01  0.11324135773E+02  0.11880909471E+02  0.00000000000E+00 0. -1.
</event>
<event>
 7    1  0.2730803E-009  0.4778727E+02  0.7816164E-02  0.1312668E+00
        -11   -1    0    0    0    0  0.00000000000E+00  0.00000000000E+00  0.45593999997E+02  0.45594000000E+02  0.51100000000E-03 0. -1.
         11   -1    0    0    0    0 -0.00000000000E+00 -0.00000000000E+00 -0.45593999997E+02  0.45594000000E+02  0.51100000000E-03 0.  1.
    9900012    2    1    2    0    0  0.11398771962E+02  0.39892361838E+02  0.12739337126E+02  0.47787271369E+02  0.20000001482E+02 0.  0.
        -12    1    1    2    0    0 -0.11398771962E+02 -0.39892361838E+02 -0.12739337126E+02  0.43400728631E+02  0.00000000000E+00 0.  1.
         11    1    3    3    0    0  0.10686173230E+02  0.27068374936E+02  0.13107826178E+02  0.31917179189E+02  0.51100000000E-03 0. -1.
        -11    1    3    3    0    0  0.14931586920E+01  0.72376181682E+01 -0.47001851288E+01  0.87581036837E+01  0.51100000000E-03 0.  1.
        -12    1    3    3    0    0 -0.78055996020E+00  0.55863687334E+01  0.43316960770E+01  0.71119884969E+01  0.00000000000E+00 0.  1.
</event>
<event>
 7    1  0.2685294E-009  0.4778727E+02  0.7816164E-02  0.1312668E+00
        -11   -1    0    0    0    0  0.00000000000E+00  0.00000000000E+00  0.45593999997E+02  0.45594000000E+02  0.51100000000E-03 0.  1.
         11   -1    0    0    0    0 -0.00000000000E+00 -0.00000000000E+00 -0.45593999997E+02  0.45594000000E+02  0.51100000000E-03 0. -1.
    9900012    2    1    2    0    0  0.19979731353E+02  0.38516003324E+02 -0.97524078793E+00  0.47787271071E+02  0.20000000120E+02 0.  0.
        -12    1    1    2    0    0 -0.19979731353E+02 -0.38516003324E+02  0.97524078793E+00  0.43400728929E+02  0.00000000000E+00 0.  1.
         11    1    3    3    0    0  0.35876341898E+01  0.90313815554E+01 -0.86438287575E+01  0.13005873586E+02  0.51100000000E-03 0. -1.
        -11    1    3    3    0    0  0.16292129280E+02  0.28204186799E+02  0.69328687849E+01  0.33301265731E+02  0.51100000000E-03 0.  1.
         12    1    3    3    0    0  0.99967883285E-01  0.12804349697E+01  0.73571918468E+00  0.14801317536E+01  0.00000000000E+00 0. -1.
</event>
<event>
 7    1  0.2685294E-009  0.4778727E+02  0.7816164E-02  0.1312668E+00
        -11   -1    0    0    0    0  0.00000000000E+00  0.00000000000E+00  0.45593999997E+02  0.45594000000E+02  0.51100000000E-03 0.  1.
         11   -1    0    0    0    0 -0.00000000000E+00 -0.00000000000E+00 -0.45593999997E+02  0.45594000000E+02  0.51100000000E-03 0. -1.
    9900012    2    1    2    0    0  0.16448005950E+02 -0.38974197271E+02 -0.97004201622E+01  0.47787273002E+02  0.20000008925E+02 0.  0.
        -12    1    1    2    0    0 -0.16448005950E+02  0.38974197271E+02  0.97004201622E+01  0.43400726998E+02  0.00000000000E+00 0.  1.
         11    1    3    3    0    0  0.55027428120E+01 -0.13965467835E+01  0.32188519040E+01  0.65262186000E+01  0.51100000000E-03 0. -1.
        -11    1    3    3    0    0  0.84881309686E+01 -0.29211721734E+02 -0.91909085242E+01  0.31778071901E+02  0.51100000000E-03 0.  1.
         12    1    3    3    0    0  0.24571321698E+01 -0.83659287535E+01 -0.37283635420E+01  0.94829825007E+01  0.00000000000E+00 0. -1.
</event>
<event>
 7    1  0.2685294E-009  0.4778727E+02  0.7816164E-02  0.1312668E+00
        -11   -1    0    0    0    0  0.00000000000E+00  0.00000000000E+00  0.45593999997E+02  0.45594000000E+02  0.51100000000E-03 0. -1.
         11   -1    0    0    0    0 -0.00000000000E+00 -0.00000000000E+00 -0.45593999997E+02  0.45594000000E+02  0.51100000000E-03 0.  1.
    9900012    2    1    2    0    0 -0.18666846864E+02  0.34455268403E+02  0.18654936681E+02  0.47787270108E+02  0.19999995732E+02 0.  0.
        -12    1    1    2    0    0  0.18666846864E+02 -0.34455268403E+02 -0.18654936681E+02  0.43400729892E+02  0.00000000000E+00 0.  1.
         11    1    3    3    0    0 -0.59949604000E+01  0.19742218835E+02  0.16422745988E+01  0.20697628387E+02  0.51100000000E-03 0. -1.
        -11    1    3    3    0    0 -0.43961726868E+01  0.95744430877E+00  0.64829178261E+01  0.78912139559E+01  0.51100000000E-03 0.  1.
         12    1    3    3    0    0 -0.82757137768E+01  0.13755605260E+02  0.10529744256E+02  0.19198427765E+02  0.00000000000E+00 0. -1.
</event>
<event>
 7    1  0.2685294E-009  0.4778727E+02  0.7816164E-02  0.1312668E+00
        -11   -1    0    0    0    0  0.00000000000E+00  0.00000000000E+00  0.45593999997E+02  0.45594000000E+02  0.51100000000E-03 0.  1.
         11   -1    0    0    0    0 -0.00000000000E+00 -0.00000000000E+00 -0.45593999997E+02  0.45594000000E+02  0.51100000000E-03 0. -1.
    9900012    2    1    2    0    0  0.14626563943E+02 -0.34727060101E+02 -0.21534109188E+02  0.47787274954E+02  0.20000017824E+02 0.  0.
        -12    1    1    2    0    0 -0.14626563943E+02  0.34727060101E+02  0.21534109188E+02  0.43400725046E+02  0.00000000000E+00 0.  1.
         11    1    3    3    0    0  0.28872727371E+01 -0.11772469111E+02 -0.62336348571E+01  0.13630318287E+02  0.51100000000E-03 0. -1.
        -11    1    3    3    0    0  0.13148436192E+02 -0.18770048625E+02 -0.57384301322E+01  0.23624683709E+02  0.51100000000E-03 0.  1.
        -12    1    3    3    0    0 -0.14091449867E+01 -0.41845423651E+01 -0.95620441983E+01  0.10532272957E+02  0.00000000000E+00 0.  1.
</event>
<event>
 7    1  0.2685294E-009  0.4778727E+02  0.7816164E-02  0.1312668E+00
        -11   -1    0    0    0    0  0.00000000000E+00  0.00000000000E+00  0.45593999997E+02  0.45594000000E+02  0.51100000000E-03 0.  1.
         11   -1    0    0    0    0 -0.00000000000E+00 -0.00000000000E+00 -0.45593999997E+02  0.45594000000E+02  0.51100000000E-03 0. -1.
    9900012    2    1    2    0    0  0.32015218965E+02  0.27955834012E+02 -0.87818102820E+01  0.47787273134E+02  0.20000009526E+02 0.  0.
        -12    1    1    2    0    0 -0.32015218965E+02 -0.27955834012E+02  0.87818102820E+01  0.43400726866E+02  0.00000000000E+00 0.  1.
         11    1    3    3    0    0  0.20205270735E+02  0.12125132192E+02 -0.12260951079E+02  0.26563183502E+02  0.51100000000E-03 0. -1.
        -11    1    3    3    0    0  0.83907284214E+01  0.13505728059E+02  0.12587549597E+00  0.15900467249E+02  0.51100000000E-03 0.  1.
         12    1    3    3    0    0  0.34192198083E+01  0.23249737612E+01  0.33532653012E+01  0.53236223822E+01  0.00000000000E+00 0. -1.
</event>
<event>
 7    1  0.2685294E-009  0.4778727E+02  0.7816164E-02  0.1312668E+00
        -11   -1    0    0    0    0  0.00000000000E+00  0.00000000000E+00  0.45593999997E+02  0.45594000000E+02  0.51100000000E-03 0. -1.
         11   -1    0    0    0    0 -0.00000000000E+00 -0.00000000000E+00 -0.45593999997E+02  0.45594000000E+02  0.51100000000E-03 0.  1.
    9900012    2    1    2    0    0  0.33195225658E+02 -0.18648779076E+02  0.20830824998E+02  0.47787271462E+02  0.20000001905E+02 0.  0.
        -12    1    1    2    0    0 -0.33195225658E+02  0.18648779076E+02 -0.20830824998E+02  0.43400728538E+02  0.00000000000E+00 0.  1.
         11    1    3    3    0    0  0.19167137024E+02 -0.13770123223E+02  0.97960196952E+01  0.25553031863E+02  0.51100000000E-03 0. -1.
        -11    1    3    3    0    0  0.93886920527E+01 -0.29709286925E+01  0.13447706365E+02  0.16667776171E+02  0.51100000000E-03 0.  1.
        -12    1    3    3    0    0  0.46393965809E+01 -0.19077271603E+01 -0.24129010618E+01  0.55664634273E+01  0.00000000000E+00 0.  1.
</event>
<event>
 7    1  0.2685294E-009  0.4778727E+02  0.7816164E-02  0.1312668E+00
        -11   -1    0    0    0    0  0.00000000000E+00  0.00000000000E+00  0.45593999997E+02  0.45594000000E+02  0.51100000000E-03 0. -1.
         11   -1    0    0    0    0 -0.00000000000E+00 -0.00000000000E+00 -0.45593999997E+02  0.45594000000E+02  0.51100000000E-03 0.  1.
    9900012    2    1    2    0    0  0.38073575925E+02 -0.19221697789E+02  0.80344604653E+01  0.47787269538E+02  0.19999993134E+02 0.  0.
        -12    1    1    2    0    0 -0.38073575925E+02  0.19221697789E+02 -0.80344604653E+01  0.43400730462E+02  0.00000000000E+00 0.  1.
         11    1    3    3    0    0  0.88467219601E+01 -0.16519196031E+01  0.84877839328E+01  0.12370764090E+02  0.51100000000E-03 0. -1.
        -11    1    3    3    0    0  0.91871444556E+01 -0.10711835152E+02 -0.16145940061E+01  0.14204011745E+02  0.51100000000E-03 0.  1.
         12    1    3    3    0    0  0.20039709510E+02 -0.68579430334E+01  0.11612705387E+01  0.21212493704E+02  0.00000000000E+00 0. -1.
</event>
<event>
 7    1  0.2685294E-009  0.4778723E+02  0.7816164E-02  0.1312668E+00
        -11   -1    0    0    0    0  0.00000000000E+00  0.00000000000E+00  0.45593999997E+02  0.45594000000E+02  0.51100000000E-03 0. -1.
         11   -1    0    0    0    0 -0.00000000000E+00 -0.00000000000E+00 -0.45593999997E+02  0.45594000000E+02  0.51100000000E-03 0.  1.
    9900012    2    1    2    0    0  0.42040980145E+02  0.44814523931E+01  0.98030426107E+01  0.47787227293E+02  0.19999800518E+02 0.  0.
        -12    1    1    2    0    0 -0.42040980145E+02 -0.44814523931E+01 -0.98030426107E+01  0.43400772707E+02  0.00000000000E+00 0.  1.
         11    1    3    3    0    0  0.36136076407E+02  0.22384195890E+01  0.98271584832E+01  0.37515324662E+02  0.51100000000E-03 0. -1.
        -11    1    3    3    0    0 -0.65228067820E-01 -0.25436773485E+01  0.53221590183E+00  0.25995775005E+01  0.51100000000E-03 0.  1.
        -12    1    3    3    0    0  0.59701318059E+01  0.47867101526E+01 -0.55633177436E+00  0.76723251305E+01  0.00000000000E+00 0.  1.
</event>
<event>
 7    1  0.2685294E-009  0.4778725E+02  0.7816164E-02  0.1312668E+00
        -11   -1    0    0    0    0  0.00000000000E+00  0.00000000000E+00  0.45593999997E+02  0.45594000000E+02  0.51100000000E-03 0. -1.
         11   -1    0    0    0    0 -0.00000000000E+00 -0.00000000000E+00 -0.45593999997E+02  0.45594000000E+02  0.51100000000E-03 0.  1.
    9900012    2    1    2    0    0 -0.40731775721E+02  0.12920357791E+02  0.75902431385E+01  0.47787251277E+02  0.19999909871E+02 0.  0.
        -12    1    1    2    0    0  0.40731775721E+02 -0.12920357791E+02 -0.75902431385E+01  0.43400748723E+02  0.00000000000E+00 0.  1.
         11    1    3    3    0    0 -0.15188240293E+02 -0.24895685208E+01 -0.17526519888E+01  0.15490396505E+02  0.51100000000E-03 0. -1.
        -11    1    3    3    0    0 -0.65416368938E+00 -0.28363303163E-03  0.20168253424E+01  0.21202629402E+01  0.51100000000E-03 0.  1.
         12    1    3    3    0    0 -0.24889371738E+02  0.15410209945E+02  0.73260697849E+01  0.30176591832E+02  0.00000000000E+00 0. -1.
</event>
<event>
 7    1  0.2685294E-009  0.4778727E+02  0.7816164E-02  0.1312668E+00
        -11   -1    0    0    0    0  0.00000000000E+00  0.00000000000E+00  0.45593999997E+02  0.45594000000E+02  0.51100000000E-03 0.  1.
         11   -1    0    0    0    0 -0.00000000000E+00 -0.00000000000E+00 -0.45593999997E+02  0.45594000000E+02  0.51100000000E-03 0. -1.
    9900012    2    1    2    0    0 -0.21360275096E+02  0.15045647596E+02 -0.34655307362E+02  0.47787271987E+02  0.20000004297E+02 0.  0.
        -12    1    1    2    0    0  0.21360275096E+02 -0.15045647596E+02  0.34655307362E+02  0.43400728013E+02  0.00000000000E+00 0.  1.
         11    1    3    3    0    0 -0.45329012190E+01  0.50413234860E+01 -0.11869509152E+02  0.13669212988E+02  0.51100000000E-03 0. -1.
        -11    1    3    3    0    0 -0.63600298876E+01  0.12813610313E+02 -0.10563413278E+02  0.17782696358E+02  0.51100000000E-03 0.  1.
        -12    1    3    3    0    0 -0.10467343989E+02 -0.28092862039E+01 -0.12222384933E+02  0.16335362641E+02  0.00000000000E+00 0.  1.
</event>
<event>
 7    1  0.2685294E-009  0.4778729E+02  0.7816164E-02  0.1312668E+00
        -11   -1    0    0    0    0  0.00000000000E+00  0.00000000000E+00  0.45593999997E+02  0.45594000000E+02  0.51100000000E-03 0.  1.
         11   -1    0    0    0    0 -0.00000000000E+00 -0.00000000000E+00 -0.45593999997E+02  0.45594000000E+02  0.51100000000E-03 0. -1.
    9900012    2    1    2    0    0 -0.28253541221E+02  0.28449067553E+02 -0.16613526800E+02  0.47787293683E+02  0.20000103217E+02 0.  0.
        -12    1    1    2    0    0  0.28253541221E+02 -0.28449067553E+02  0.16613526800E+02  0.43400706317E+02  0.00000000000E+00 0.  1.
         11    1    3    3    0    0 -0.19676379004E+02  0.91134416122E+01 -0.14314735339E+02  0.25983193738E+02  0.51100000000E-03 0. -1.
        -11    1    3    3    0    0 -0.11242002061E+01  0.81720076210E+01 -0.54184138010E+00  0.82667482727E+01  0.51100000000E-03 0.  1.
         12    1    3    3    0    0 -0.74529620108E+01  0.11163618319E+02 -0.17569500805E+01  0.13537351672E+02  0.00000000000E+00 0. -1.
</event>
<event>
 7    1  0.2685294E-009  0.4778727E+02  0.7816164E-02  0.1312668E+00
        -11   -1    0    0    0    0  0.00000000000E+00  0.00000000000E+00  0.45593999997E+02  0.45594000000E+02  0.51100000000E-03 0.  1.
         11   -1    0    0    0    0 -0.00000000000E+00 -0.00000000000E+00 -0.45593999997E+02  0.45594000000E+02  0.51100000000E-03 0. -1.
    9900012    2    1    2    0    0  0.25534968703E+02  0.27468105837E+02 -0.21842429719E+02  0.47787271885E+02  0.20000003831E+02 0.  0.
        -12    1    1    2    0    0 -0.25534968703E+02 -0.27468105837E+02  0.21842429719E+02  0.43400728115E+02  0.00000000000E+00 0.  1.
         11    1    3    3    0    0  0.17789893566E+02  0.85487420369E+01 -0.97667649049E+01  0.22021603041E+02  0.51100000000E-03 0. -1.
        -11    1    3    3    0    0 -0.20843706528E+01  0.14660552950E+01 -0.24767498329E+01  0.35536191611E+01  0.51100000000E-03 0.  1.
        -12    1    3    3    0    0  0.98294457890E+01  0.17453308505E+02 -0.95989149808E+01  0.22212049683E+02  0.00000000000E+00 0.  1.
</event>
<event>
 7    1  0.2685294E-009  0.4778725E+02  0.7816164E-02  0.1312668E+00
        -11   -1    0    0    0    0  0.00000000000E+00  0.00000000000E+00  0.45593999997E+02  0.45594000000E+02  0.51100000000E-03 0.  1.
         11   -1    0    0    0    0 -0.00000000000E+00 -0.00000000000E+00 -0.45593999997E+02  0.45594000000E+02  0.51100000000E-03 0. -1.
    9900012    2    1    2    0    0  0.82059419670E+01 -0.39681928917E+02  0.15544514075E+02  0.47787252495E+02  0.19999915425E+02 0.  0.
        -12    1    1    2    0    0 -0.82059419670E+01  0.39681928917E+02 -0.15544514075E+02  0.43400747505E+02  0.00000000000E+00 0.  1.
         11    1    3    3    0    0  0.11991495462E+02 -0.30123473782E+02  0.94321180440E+01  0.33766617941E+02  0.51100000000E-03 0. -1.
        -11    1    3    3    0    0 -0.21479877195E+01  0.13940974437E+00  0.30242405504E+01  0.37120503078E+01  0.51100000000E-03 0.  1.
        -12    1    3    3    0    0 -0.16375657751E+01 -0.96978648797E+01  0.30881554810E+01  0.10308584247E+02  0.00000000000E+00 0.  1.
</event>
<event>
 7    1  0.2685294E-009  0.4778727E+02  0.7816164E-02  0.1312668E+00
        -11   -1    0    0    0    0  0.00000000000E+00  0.00000000000E+00  0.45593999997E+02  0.45594000000E+02  0.51100000000E-03 0.  1.
         11   -1    0    0    0    0 -0.00000000000E+00 -0.00000000000E+00 -0.45593999997E+02  0.45594000000E+02  0.51100000000E-03 0. -1.
    9900012    2    1    2    0    0  0.18665734740E+02  0.72339921654E+01 -0.38508218382E+02  0.47787272138E+02  0.20000004984E+02 0.  0.
        -12    1    1    2    0    0 -0.18665734740E+02 -0.72339921654E+01  0.38508218382E+02  0.43400727862E+02  0.00000000000E+00 0.  1.
         11    1    3    3    0    0  0.89962182192E+01  0.82519303735E+01 -0.27078537266E+02  0.29703088692E+02  0.51100000000E-03 0. -1.
        -11    1    3    3    0    0  0.27662142853E+01 -0.51855017650E+01 -0.39153567544E+01  0.70619677712E+01  0.51100000000E-03 0.  1.
        -12    1    3    3    0    0  0.69033022353E+01  0.41675635569E+01 -0.75143243621E+01  0.11022215674E+02  0.00000000000E+00 0.  1.
</event>
<event>
 7    1  0.2685294E-009  0.4778727E+02  0.7816164E-02  0.1312668E+00
        -11   -1    0    0    0    0  0.00000000000E+00  0.00000000000E+00  0.45593999997E+02  0.45594000000E+02  0.51100000000E-03 0.  1.
         11   -1    0    0    0    0 -0.00000000000E+00 -0.00000000000E+00 -0.45593999997E+02  0.45594000000E+02  0.51100000000E-03 0. -1.
    9900012    2    1    2    0    0  0.18649849123E+02 -0.27031212596E+02 -0.28374635594E+02  0.47787271068E+02  0.20000000107E+02 0.  0.
        -12    1    1    2    0    0 -0.18649849123E+02  0.27031212596E+02  0.28374635594E+02  0.43400728932E+02  0.00000000000E+00 0.  1.
         11    1    3    3    0    0  0.71604484964E+01 -0.13327209223E+02 -0.16546125257E+02  0.22420097895E+02  0.51100000000E-03 0. -1.
        -11    1    3    3    0    0  0.12959783500E+02 -0.72880996948E+01 -0.45396035091E+01  0.15546073003E+02  0.51100000000E-03 0.  1.
        -12    1    3    3    0    0 -0.14703828734E+01 -0.64159036781E+01 -0.72889068288E+01  0.98211001706E+01  0.00000000000E+00 0.  1.
</event>
<event>
 7    1  0.2685294E-009  0.4778727E+02  0.7816164E-02  0.1312668E+00
        -11   -1    0    0    0    0  0.00000000000E+00  0.00000000000E+00  0.45593999997E+02  0.45594000000E+02  0.51100000000E-03 0. -1.
         11   -1    0    0    0    0 -0.00000000000E+00 -0.00000000000E+00 -0.45593999997E+02  0.45594000000E+02  0.51100000000E-03 0.  1.
    9900012    2    1    2    0    0  0.95639215534E+01  0.39964228313E+02 -0.13964781591E+02  0.47787271147E+02  0.20000000467E+02 0.  0.
        -12    1    1    2    0    0 -0.95639215534E+01 -0.39964228313E+02  0.13964781591E+02  0.43400728853E+02  0.00000000000E+00 0.  1.
         11    1    3    3    0    0  0.59376576316E+00  0.32063471845E+02 -0.11641442498E+02  0.34116593737E+02  0.51100000000E-03 0. -1.
        -11    1    3    3    0    0  0.71561725907E+01  0.54013277379E+01 -0.43615905505E+01  0.99703871475E+01  0.51100000000E-03 0.  1.
         12    1    3    3    0    0  0.18139831995E+01  0.24994287297E+01  0.20382514571E+01  0.37002902623E+01  0.00000000000E+00 0. -1.
</event>
<event>
 7    1  0.2685294E-009  0.4778727E+02  0.7816164E-02  0.1312668E+00
        -11   -1    0    0    0    0  0.00000000000E+00  0.00000000000E+00  0.45593999997E+02  0.45594000000E+02  0.51100000000E-03 0.  1.
         11   -1    0    0    0    0 -0.00000000000E+00 -0.00000000000E+00 -0.45593999997E+02  0.45594000000E+02  0.51100000000E-03 0. -1.
    9900012    2    1    2    0    0  0.32343983136E+02 -0.10925708684E+02 -0.26797738722E+02  0.47787272403E+02  0.20000006192E+02 0.  0.
        -12    1    1    2    0    0 -0.32343983136E+02  0.10925708684E+02  0.26797738722E+02  0.43400727597E+02  0.00000000000E+00 0.  1.
         11    1    3    3    0    0  0.80794963824E+01  0.28490998847E+01 -0.14008761726E+01  0.86809035392E+01  0.51100000000E-03 0.  1.
        -11    1    3    3    0    0  0.12009792051E+02 -0.11619183867E+02 -0.10668937492E+02  0.19825911488E+02  0.51100000000E-03 0. -1.
        -12    1    3    3    0    0  0.12254694703E+02 -0.21556247017E+01 -0.14727925058E+02  0.19280457376E+02  0.00000000000E+00 0.  1.
</event>
<event>
 7    1  0.2685294E-009  0.4778727E+02  0.7816164E-02  0.1312668E+00
        -11   -1    0    0    0    0  0.00000000000E+00  0.00000000000E+00  0.45593999997E+02  0.45594000000E+02  0.51100000000E-03 0.  1.
         11   -1    0    0    0    0 -0.00000000000E+00 -0.00000000000E+00 -0.45593999997E+02  0.45594000000E+02  0.51100000000E-03 0. -1.
    9900012    2    1    2    0    0 -0.93994059363E+01  0.52133875224E+01 -0.42048724798E+02  0.47787268456E+02  0.19999988197E+02 0.  0.
        -12    1    1    2    0    0  0.93994059363E+01 -0.52133875224E+01  0.42048724798E+02  0.43400731544E+02  0.00000000000E+00 0.  1.
         11    1    3    3    0    0 -0.10967717627E+02 -0.18545483673E+01 -0.11129710903E+02  0.15735331094E+02  0.51100000000E-03 0.  1.
        -11    1    3    3    0    0  0.15762714032E+01  0.62036268977E+01 -0.18002461788E+02  0.19106497557E+02  0.51100000000E-03 0. -1.
         12    1    3    3    0    0 -0.79597126436E-02  0.86430899207E+00 -0.12916552108E+02  0.12945439805E+02  0.00000000000E+00 0. -1.
</event>
<event>
 7    1  0.2685294E-009  0.4778727E+02  0.7816164E-02  0.1312668E+00
        -11   -1    0    0    0    0  0.00000000000E+00  0.00000000000E+00  0.45593999997E+02  0.45594000000E+02  0.51100000000E-03 0.  1.
         11   -1    0    0    0    0 -0.00000000000E+00 -0.00000000000E+00 -0.45593999997E+02  0.45594000000E+02  0.51100000000E-03 0. -1.
    9900012    2    1    2    0    0 -0.22509686043E+02 -0.17749132909E+02 -0.32586892347E+02  0.47787271462E+02  0.20000001904E+02 0.  0.
        -12    1    1    2    0    0  0.22509686043E+02  0.17749132909E+02  0.32586892347E+02  0.43400728538E+02  0.00000000000E+00 0.  1.
         11    1    3    3    0    0 -0.74007681214E+01 -0.10678453766E+01 -0.39000816101E+01  0.84334037826E+01  0.51100000000E-03 0. -1.
        -11    1    3    3    0    0  0.96655284829E+00 -0.75788686387E+01 -0.13181347232E+02  0.15235530492E+02  0.51100000000E-03 0.  1.
        -12    1    3    3    0    0 -0.16075470770E+02 -0.91024188938E+01 -0.15505463505E+02  0.24118337188E+02  0.00000000000E+00 0.  1.
</event>
<event>
 7    1  0.2685294E-009  0.4778726E+02  0.7816164E-02  0.1312668E+00
        -11   -1    0    0    0    0  0.00000000000E+00  0.00000000000E+00  0.45593999997E+02  0.45594000000E+02  0.51100000000E-03 0. -1.
         11   -1    0    0    0    0 -0.00000000000E+00 -0.00000000000E+00 -0.45593999997E+02  0.45594000000E+02  0.51100000000E-03 0.  1.
    9900012    2    1    2    0    0 -0.33782420114E+02 -0.15516429057E+02  0.22396711532E+02  0.47787260757E+02  0.19999953094E+02 0.  0.
        -12    1    1    2    0    0  0.33782420114E+02  0.15516429057E+02 -0.22396711532E+02  0.43400739243E+02  0.00000000000E+00 0.  1.
         11    1    3    3    0    0 -0.21951318365E+02 -0.11414703157E+02  0.49184194533E+01  0.25225912795E+02  0.51100000000E-03 0. -1.
        -11    1    3    3    0    0 -0.79098179237E+01  0.84360409819E+00  0.96899181882E+01  0.12536801913E+02  0.51100000000E-03 0.  1.
        -12    1    3    3    0    0 -0.39212838246E+01 -0.49453299977E+01  0.77883738907E+01  0.10024546049E+02  0.00000000000E+00 0.  1.
</event>
<event>
 7    1  0.2685294E-009  0.4778727E+02  0.7816164E-02  0.1312668E+00
        -11   -1    0    0    0    0  0.00000000000E+00  0.00000000000E+00  0.45593999997E+02  0.45594000000E+02  0.51100000000E-03 0.  1.
         11   -1    0    0    0    0 -0.00000000000E+00 -0.00000000000E+00 -0.45593999997E+02  0.45594000000E+02  0.51100000000E-03 0. -1.
    9900012    2    1    2    0    0 -0.39802307864E+02 -0.16778238424E+02 -0.42296951309E+01  0.47787270550E+02  0.19999997745E+02 0.  0.
        -12    1    1    2    0    0  0.39802307864E+02  0.16778238424E+02  0.42296951309E+01  0.43400729450E+02  0.00000000000E+00 0.  1.
         11    1    3    3    0    0  0.22041855254E+00 -0.49059913036E+01 -0.84744167712E+00  0.49835221146E+01  0.51100000000E-03 0. -1.
        -11    1    3    3    0    0 -0.26321061513E+02 -0.35964592419E+01 -0.70928100173E+00  0.26575098835E+02  0.51100000000E-03 0.  1.
        -12    1    3    3    0    0 -0.13701664903E+02 -0.82757878787E+01 -0.26729724521E+01  0.16228649601E+02  0.00000000000E+00 0.  1.
</event>
<event>
 7    1  0.3103791E-009  0.4778726E+02  0.7816164E-02  0.1312668E+00
        -11   -1    0    0    0    0  0.00000000000E+00  0.00000000000E+00  0.45593999997E+02  0.45594000000E+02  0.51100000000E-03 0. -1.
         11   -1    0    0    0    0 -0.00000000000E+00 -0.00000000000E+00 -0.45593999997E+02  0.45594000000E+02  0.51100000000E-03 0.  1.
    9900012    2    1    2    0    0  0.41600219206E+02  0.12343250505E+02 -0.83071629011E+00  0.47787260829E+02  0.19999953425E+02 0.  0.
        -12    1    1    2    0    0 -0.41600219206E+02 -0.12343250505E+02  0.83071629011E+00  0.43400739171E+02  0.00000000000E+00 0.  1.
         11    1    3    3    0    0  0.10453061041E+02  0.19201296099E+01  0.15298673445E+00  0.10629053958E+02  0.51100000000E-03 0. -1.
        -11    1    3    3    0    0  0.26060392292E+02  0.14542243443E+02  0.21114649464E+01  0.29917873842E+02  0.51100000000E-03 0.  1.
        -12    1    3    3    0    0  0.50867658731E+01 -0.41191225471E+01 -0.30951679710E+01  0.72403330293E+01  0.00000000000E+00 0.  1.
</event>
<event>
 7    1  0.2685294E-009  0.4778726E+02  0.7816164E-02  0.1312668E+00
        -11   -1    0    0    0    0  0.00000000000E+00  0.00000000000E+00  0.45593999997E+02  0.45594000000E+02  0.51100000000E-03 0. -1.
         11   -1    0    0    0    0 -0.00000000000E+00 -0.00000000000E+00 -0.45593999997E+02  0.45594000000E+02  0.51100000000E-03 0.  1.
    9900012    2    1    2    0    0  0.31416045576E+02  0.27001762322E+02  0.12944548618E+02  0.47787257759E+02  0.19999939425E+02 0.  0.
        -12    1    1    2    0    0 -0.31416045576E+02 -0.27001762322E+02 -0.12944548618E+02  0.43400742241E+02  0.00000000000E+00 0.  1.
         11    1    3    3    0    0  0.16200796640E+02  0.21901535267E+02  0.84485801079E+01  0.28522299433E+02  0.51100000000E-03 0. -1.
        -11    1    3    3    0    0  0.12186646637E+02 -0.33639404780E+00  0.46282860599E+01  0.13040266459E+02  0.51100000000E-03 0.  1.
        -12    1    3    3    0    0  0.30286022991E+01  0.54366211032E+01 -0.13231754965E+00  0.62246918671E+01  0.00000000000E+00 0.  1.
</event>
<event>
 7    1  0.2685294E-009  0.4778727E+02  0.7816164E-02  0.1312668E+00
        -11   -1    0    0    0    0  0.00000000000E+00  0.00000000000E+00  0.45593999997E+02  0.45594000000E+02  0.51100000000E-03 0.  1.
         11   -1    0    0    0    0 -0.00000000000E+00 -0.00000000000E+00 -0.45593999997E+02  0.45594000000E+02  0.51100000000E-03 0. -1.
    9900012    2    1    2    0    0  0.27388784271E+02 -0.11664292512E+02 -0.31581989612E+02  0.47787270841E+02  0.19999999074E+02 0.  0.
        -12    1    1    2    0    0 -0.27388784271E+02  0.11664292512E+02  0.31581989612E+02  0.43400729159E+02  0.00000000000E+00 0.  1.
         11    1    3    3    0    0  0.58421748807E+00 -0.43363633989E+01 -0.83040042855E+01  0.93862583086E+01  0.51100000000E-03 0. -1.
        -11    1    3    3    0    0  0.19159219613E+02  0.93132735325E+00 -0.16184857604E+02  0.25097662893E+02  0.51100000000E-03 0.  1.
        -12    1    3    3    0    0  0.76453471709E+01 -0.82592564663E+01 -0.70931277225E+01  0.13303349639E+02  0.00000000000E+00 0.  1.
</event>
<event>
 7    1  0.3250463E-009  0.4778725E+02  0.7816164E-02  0.1312668E+00
        -11   -1    0    0    0    0  0.00000000000E+00  0.00000000000E+00  0.45593999997E+02  0.45594000000E+02  0.51100000000E-03 0. -1.
         11   -1    0    0    0    0 -0.00000000000E+00 -0.00000000000E+00 -0.45593999997E+02  0.45594000000E+02  0.51100000000E-03 0.  1.
    9900012    2    1    2    0    0 -0.29338740680E+02 -0.58995909803E+01  0.31433394776E+02  0.47787249021E+02  0.19999899584E+02 0.  0.
        -12    1    1    2    0    0  0.29338740680E+02  0.58995909803E+01 -0.31433394776E+02  0.43400750979E+02  0.00000000000E+00 0.  1.
         11    1    3    3    0    0 -0.38310362029E+01 -0.13511304565E+00  0.12209423469E+02  0.12797074495E+02  0.51100000000E-03 0. -1.
        -11    1    3    3    0    0 -0.14325960824E+02 -0.97792168175E+01  0.10958653278E+02  0.20517268751E+02  0.51100000000E-03 0.  1.
        -12    1    3    3    0    0 -0.11181743654E+02  0.40147388829E+01  0.82653180286E+01  0.14472905774E+02  0.00000000000E+00 0.  1.
</event>
<event>
 7    1  0.2685294E-009  0.4778728E+02  0.7816164E-02  0.1312668E+00
        -11   -1    0    0    0    0  0.00000000000E+00  0.00000000000E+00  0.45593999997E+02  0.45594000000E+02  0.51100000000E-03 0.  1.
         11   -1    0    0    0    0 -0.00000000000E+00 -0.00000000000E+00 -0.45593999997E+02  0.45594000000E+02  0.51100000000E-03 0. -1.
    9900012    2    1    2    0    0  0.14454089144E+01  0.15247253135E+02 -0.40608556435E+02  0.47787276610E+02  0.20000025375E+02 0.  0.
        -12    1    1    2    0    0 -0.14454089144E+01 -0.15247253135E+02  0.40608556435E+02  0.43400723390E+02  0.00000000000E+00 0.  1.
         11    1    3    3    0    0 -0.68752350965E+01  0.84053395179E+01 -0.20568003558E+02  0.23258576067E+02  0.51100000000E-03 0.  1.
        -11    1    3    3    0    0 -0.17507937122E+01  0.15468848257E+01 -0.61118489889E+01  0.65431513517E+01  0.51100000000E-03 0. -1.
         12    1    3    3    0    0  0.10071437723E+02  0.52950287915E+01 -0.13928703887E+02  0.17985549191E+02  0.00000000000E+00 0. -1.
</event>
<event>
 7    1  0.2685294E-009  0.4778727E+02  0.7816164E-02  0.1312668E+00
        -11   -1    0    0    0    0  0.00000000000E+00  0.00000000000E+00  0.45593999997E+02  0.45594000000E+02  0.51100000000E-03 0.  1.
         11   -1    0    0    0    0 -0.00000000000E+00 -0.00000000000E+00 -0.45593999997E+02  0.45594000000E+02  0.51100000000E-03 0. -1.
    9900012    2    1    2    0    0 -0.13629262311E+02 -0.40211965663E+02  0.89924721789E+01  0.47787268099E+02  0.19999986572E+02 0.  0.
        -12    1    1    2    0    0  0.13629262311E+02  0.40211965663E+02 -0.89924721789E+01  0.43400731901E+02  0.00000000000E+00 0.  1.
         11    1    3    3    0    0 -0.36292429927E+01 -0.31866096138E+02  0.49693046068E+01  0.32454791269E+02  0.51100000000E-03 0. -1.
        -11    1    3    3    0    0 -0.51028412912E+01 -0.49985749847E+01  0.57328524093E+01  0.91591668905E+01  0.51100000000E-03 0.  1.
         12    1    3    3    0    0 -0.48971780271E+01 -0.33472945397E+01 -0.17096848372E+01  0.61733099394E+01  0.00000000000E+00 0. -1.
</event>
<event>
 7    1  0.2685294E-009  0.4778726E+02  0.7816164E-02  0.1312668E+00
        -11   -1    0    0    0    0  0.00000000000E+00  0.00000000000E+00  0.45593999997E+02  0.45594000000E+02  0.51100000000E-03 0.  1.
         11   -1    0    0    0    0 -0.00000000000E+00 -0.00000000000E+00 -0.45593999997E+02  0.45594000000E+02  0.51100000000E-03 0. -1.
    9900012    2    1    2    0    0 -0.38590632755E+02 -0.32262775513E+01 -0.19595360177E+02  0.47787263327E+02  0.19999964813E+02 0.  0.
        -12    1    1    2    0    0  0.38590632755E+02  0.32262775513E+01  0.19595360177E+02  0.43400736673E+02  0.00000000000E+00 0.  1.
         11    1    3    3    0    0 -0.35009193716E+02 -0.24436460934E+01 -0.23010987223E+02  0.41965707239E+02  0.51100000000E-03 0. -1.
        -11    1    3    3    0    0 -0.36413255829E+01 -0.91661722778E+00  0.17382088702E+01  0.41377299913E+01  0.51100000000E-03 0.  1.
         12    1    3    3    0    0  0.59886543075E-01  0.13398576991E+00  0.16774181763E+01  0.16838260964E+01  0.00000000000E+00 0. -1.
</event>
<event>
 7    1  0.2685294E-009  0.4778727E+02  0.7816164E-02  0.1312668E+00
        -11   -1    0    0    0    0  0.00000000000E+00  0.00000000000E+00  0.45593999997E+02  0.45594000000E+02  0.51100000000E-03 0.  1.
         11   -1    0    0    0    0 -0.00000000000E+00 -0.00000000000E+00 -0.45593999997E+02  0.45594000000E+02  0.51100000000E-03 0. -1.
    9900012    2    1    2    0    0 -0.38664633911E+02  0.11571584641E+02 -0.15961449490E+02  0.47787270093E+02  0.19999995664E+02 0.  0.
        -12    1    1    2    0    0  0.38664633911E+02 -0.11571584641E+02  0.15961449490E+02  0.43400729907E+02  0.00000000000E+00 0.  1.
         11    1    3    3    0    0 -0.16813707935E+02 -0.19220915543E+01 -0.87015102439E+01  0.19029227290E+02  0.51100000000E-03 0. -1.
        -11    1    3    3    0    0 -0.70428985110E+01  0.41039196964E+00 -0.54514099555E+01  0.89156442150E+01  0.51100000000E-03 0.  1.
         12    1    3    3    0    0 -0.14808027466E+02  0.13083284226E+02 -0.18085292902E+01  0.19842398589E+02  0.00000000000E+00 0. -1.
</event>
<event>
 7    1  0.2685294E-009  0.4778727E+02  0.7816164E-02  0.1312668E+00
        -11   -1    0    0    0    0  0.00000000000E+00  0.00000000000E+00  0.45593999997E+02  0.45594000000E+02  0.51100000000E-03 0. -1.
         11   -1    0    0    0    0 -0.00000000000E+00 -0.00000000000E+00 -0.45593999997E+02  0.45594000000E+02  0.51100000000E-03 0.  1.
    9900012    2    1    2    0    0  0.21998812550E+01  0.24235703601E+02  0.35936252825E+02  0.47787273351E+02  0.20000010517E+02 0.  0.
        -12    1    1    2    0    0 -0.21998812550E+01 -0.24235703601E+02 -0.35936252825E+02  0.43400726649E+02  0.00000000000E+00 0.  1.
         11    1    3    3    0    0 -0.15211867684E+01  0.90977296482E+01  0.19781260649E+02  0.21826153282E+02  0.51100000000E-03 0. -1.
        -11    1    3    3    0    0  0.56206444677E+01  0.14947184164E+02  0.85373898063E+01  0.18107925989E+02  0.51100000000E-03 0.  1.
        -12    1    3    3    0    0 -0.18995764444E+01  0.19078978879E+00  0.76176023692E+01  0.78531940805E+01  0.00000000000E+00 0.  1.
</event>
<event>
 7    1  0.2685294E-009  0.4778727E+02  0.7816164E-02  0.1312668E+00
        -11   -1    0    0    0    0  0.00000000000E+00  0.00000000000E+00  0.45593999997E+02  0.45594000000E+02  0.51100000000E-03 0.  1.
         11   -1    0    0    0    0 -0.00000000000E+00 -0.00000000000E+00 -0.45593999997E+02  0.45594000000E+02  0.51100000000E-03 0. -1.
    9900012    2    1    2    0    0  0.19032351661E+02  0.21544383364E+02 -0.32515108552E+02  0.47787272490E+02  0.20000006590E+02 0.  0.
        -12    1    1    2    0    0 -0.19032351661E+02 -0.21544383364E+02  0.32515108552E+02  0.43400727510E+02  0.00000000000E+00 0.  1.
         11    1    3    3    0    0  0.17616135959E+02  0.92880175768E+01 -0.13431795642E+02  0.24021004372E+02  0.51100000000E-03 0. -1.
        -11    1    3    3    0    0  0.14335055396E+01  0.57594147784E+00 -0.19361697770E+00  0.15569632343E+01  0.51100000000E-03 0.  1.
         12    1    3    3    0    0 -0.17289837468E-01  0.11680424309E+02 -0.18889695932E+02  0.22209304883E+02  0.00000000000E+00 0. -1.
</event>
<event>
 7    1  0.2685294E-009  0.4778727E+02  0.7816164E-02  0.1312668E+00
        -11   -1    0    0    0    0  0.00000000000E+00  0.00000000000E+00  0.45593999997E+02  0.45594000000E+02  0.51100000000E-03 0. -1.
         11   -1    0    0    0    0 -0.00000000000E+00 -0.00000000000E+00 -0.45593999997E+02  0.45594000000E+02  0.51100000000E-03 0.  1.
    9900012    2    1    2    0    0 -0.30034280748E+02 -0.29913977532E+02  0.93123170209E+01  0.47787270512E+02  0.19999997570E+02 0.  0.
        -12    1    1    2    0    0  0.30034280748E+02  0.29913977532E+02 -0.93123170209E+01  0.43400729488E+02  0.00000000000E+00 0.  1.
         11    1    3    3    0    0 -0.18125956575E+02 -0.19132510751E+02  0.76249145469E+01  0.27436154824E+02  0.51100000000E-03 0. -1.
        -11    1    3    3    0    0  0.22159322605E+01 -0.17899231253E+01 -0.16303975504E+01  0.32821299503E+01  0.51100000000E-03 0.  1.
        -12    1    3    3    0    0 -0.14124256433E+02 -0.89915436557E+01  0.33178000244E+01  0.17068985737E+02  0.00000000000E+00 0.  1.
</event>
<event>
 7    1  0.2685294E-009  0.4778727E+02  0.7816164E-02  0.1312668E+00
        -11   -1    0    0    0    0  0.00000000000E+00  0.00000000000E+00  0.45593999997E+02  0.45594000000E+02  0.51100000000E-03 0.  1.
         11   -1    0    0    0    0 -0.00000000000E+00 -0.00000000000E+00 -0.45593999997E+02  0.45594000000E+02  0.51100000000E-03 0. -1.
    9900012    2    1    2    0    0 -0.11267054100E+02 -0.18779459694E+02 -0.37470107299E+02  0.47787267800E+02  0.19999985206E+02 0.  0.
        -12    1    1    2    0    0  0.11267054100E+02  0.18779459694E+02  0.37470107299E+02  0.43400732200E+02  0.00000000000E+00 0.  1.
         11    1    3    3    0    0 -0.98020728999E+01 -0.74697480947E+01 -0.11663469528E+02  0.16968037347E+02  0.51100000000E-03 0. -1.
        -11    1    3    3    0    0  0.40546545465E+01 -0.10220962967E+02 -0.19344178397E+02  0.22250967295E+02  0.51100000000E-03 0.  1.
        -12    1    3    3    0    0 -0.55196357468E+01 -0.10887486332E+01 -0.64624593750E+01  0.85682631576E+01  0.00000000000E+00 0.  1.
</event>
<event>
 7    1  0.2685294E-009  0.4778728E+02  0.7816164E-02  0.1312668E+00
        -11   -1    0    0    0    0  0.00000000000E+00  0.00000000000E+00  0.45593999997E+02  0.45594000000E+02  0.51100000000E-03 0.  1.
         11   -1    0    0    0    0 -0.00000000000E+00 -0.00000000000E+00 -0.45593999997E+02  0.45594000000E+02  0.51100000000E-03 0. -1.
    9900012    2    1    2    0    0 -0.54075829257E+01 -0.15773683901E+02 -0.40069584122E+02  0.47787278478E+02  0.20000033892E+02 0.  0.
        -12    1    1    2    0    0  0.54075829257E+01  0.15773683901E+02  0.40069584122E+02  0.43400721522E+02  0.00000000000E+00 0.  1.
         11    1    3    3    0    0  0.45610556626E+01 -0.79150505744E-02 -0.15993833333E+02  0.16631476072E+02  0.51100000000E-03 0. -1.
        -11    1    3    3    0    0 -0.51638699009E+01 -0.68603475348E+01 -0.61176072106E+01  0.10543009006E+02  0.51100000000E-03 0.  1.
         12    1    3    3    0    0 -0.48047686875E+01 -0.89054213160E+01 -0.17958143579E+02  0.20612793400E+02  0.00000000000E+00 0. -1.
</event>
<event>
 7    1  0.2685294E-009  0.4778727E+02  0.7816164E-02  0.1312668E+00
        -11   -1    0    0    0    0  0.00000000000E+00  0.00000000000E+00  0.45593999997E+02  0.45594000000E+02  0.51100000000E-03 0.  1.
         11   -1    0    0    0    0 -0.00000000000E+00 -0.00000000000E+00 -0.45593999997E+02  0.45594000000E+02  0.51100000000E-03 0. -1.
    9900012    2    1    2    0    0  0.17989288342E+01  0.98854341012E+00 -0.43352162815E+02  0.47787269778E+02  0.19999994227E+02 0.  0.
        -12    1    1    2    0    0 -0.17989288342E+01 -0.98854341012E+00  0.43352162815E+02  0.43400730222E+02  0.00000000000E+00 0.  1.
         11    1    3    3    0    0  0.12001128167E+01  0.28798548839E+01 -0.37015015293E+02  0.37146267542E+02  0.51100000000E-03 0. -1.
        -11    1    3    3    0    0  0.43513940737E+01 -0.20110501330E+01 -0.35738189582E+01  0.59792253035E+01  0.51100000000E-03 0.  1.
         12    1    3    3    0    0 -0.37525780562E+01  0.11973865921E+00 -0.27633285640E+01  0.46617769324E+01  0.00000000000E+00 0. -1.
</event>
<event>
 7    1  0.2685294E-009  0.4778728E+02  0.7816164E-02  0.1312668E+00
        -11   -1    0    0    0    0  0.00000000000E+00  0.00000000000E+00  0.45593999997E+02  0.45594000000E+02  0.51100000000E-03 0.  1.
         11   -1    0    0    0    0 -0.00000000000E+00 -0.00000000000E+00 -0.45593999997E+02  0.45594000000E+02  0.51100000000E-03 0. -1.
    9900012    2    1    2    0    0 -0.34260520421E+02  0.21622737457E+02 -0.15565888249E+02  0.47787275217E+02  0.20000019026E+02 0.  0.
        -12    1    1    2    0    0  0.34260520421E+02 -0.21622737457E+02  0.15565888249E+02  0.43400724783E+02  0.00000000000E+00 0.  1.
         11    1    3    3    0    0 -0.12018563161E+02  0.57619778809E+01 -0.96198306840E+01  0.16437377899E+02  0.51100000000E-03 0. -1.
        -11    1    3    3    0    0 -0.70340590311E+01  0.80175091793E+01  0.41929064804E+01  0.11460318709E+02  0.51100000000E-03 0.  1.
        -12    1    3    3    0    0 -0.15207898230E+02  0.78432503971E+01 -0.10138964045E+02  0.19889578609E+02  0.00000000000E+00 0.  1.
</event>
<event>
 7    1  0.2685294E-009  0.4778728E+02  0.7816164E-02  0.1312668E+00
        -11   -1    0    0    0    0  0.00000000000E+00  0.00000000000E+00  0.45593999997E+02  0.45594000000E+02  0.51100000000E-03 0.  1.
         11   -1    0    0    0    0 -0.00000000000E+00 -0.00000000000E+00 -0.45593999997E+02  0.45594000000E+02  0.51100000000E-03 0. -1.
    9900012    2    1    2    0    0 -0.34823273185E+02  0.25702966975E+02 -0.32124135150E+01  0.47787280337E+02  0.20000042370E+02 0.  0.
        -12    1    1    2    0    0  0.34823273185E+02 -0.25702966975E+02  0.32124135150E+01  0.43400719663E+02  0.00000000000E+00 0.  1.
         11    1    3    3    0    0 -0.81247849675E+01  0.13294791435E+02  0.42721953949E+01  0.16155966818E+02  0.51100000000E-03 0. -1.
        -11    1    3    3    0    0 -0.59634171933E+01 -0.88760167319E+00 -0.23450922764E+01  0.64691297249E+01  0.51100000000E-03 0.  1.
         12    1    3    3    0    0 -0.20735071024E+02  0.13295777213E+02 -0.51395166335E+01  0.25162183794E+02  0.00000000000E+00 0. -1.
</event>
<event>
 7    1  0.2685294E-009  0.4778728E+02  0.7816164E-02  0.1312668E+00
        -11   -1    0    0    0    0  0.00000000000E+00  0.00000000000E+00  0.45593999997E+02  0.45594000000E+02  0.51100000000E-03 0.  1.
         11   -1    0    0    0    0 -0.00000000000E+00 -0.00000000000E+00 -0.45593999997E+02  0.45594000000E+02  0.51100000000E-03 0. -1.
    9900012    2    1    2    0    0 -0.36173862183E+02 -0.19647981942E+02  0.13748840680E+02  0.47787284342E+02  0.20000060627E+02 0.  0.
        -12    1    1    2    0    0  0.36173862183E+02  0.19647981942E+02 -0.13748840680E+02  0.43400715658E+02  0.00000000000E+00 0.  1.
         11    1    3    3    0    0 -0.65705119747E+00 -0.47553219630E+01  0.52297976335E+00  0.48289037412E+01  0.51100000000E-03 0. -1.
        -11    1    3    3    0    0 -0.33372020829E+02 -0.93500684912E+01  0.94689087213E+01  0.35927368226E+02  0.51100000000E-03 0.  1.
        -12    1    3    3    0    0 -0.21447901565E+01 -0.55425914877E+01  0.37569521955E+01  0.70310123747E+01  0.00000000000E+00 0.  1.
</event>
<event>
 7    1  0.2685294E-009  0.4778727E+02  0.7816164E-02  0.1312668E+00
        -11   -1    0    0    0    0  0.00000000000E+00  0.00000000000E+00  0.45593999997E+02  0.45594000000E+02  0.51100000000E-03 0.  1.
         11   -1    0    0    0    0 -0.00000000000E+00 -0.00000000000E+00 -0.45593999997E+02  0.45594000000E+02  0.51100000000E-03 0. -1.
    9900012    2    1    2    0    0 -0.18689451764E+01 -0.62414632716E+00 -0.43355978712E+02  0.47787269537E+02  0.19999993125E+02 0.  0.
        -12    1    1    2    0    0  0.18689451764E+01  0.62414632716E+00  0.43355978712E+02  0.43400730463E+02  0.00000000000E+00 0.  1.
         11    1    3    3    0    0  0.96218276803E-01  0.72840785186E+01 -0.81958208303E+01  0.10965333427E+02  0.51100000000E-03 0.  1.
        -11    1    3    3    0    0  0.20893294310E+01 -0.57454474751E+01 -0.23674664729E+02  0.24451282471E+02  0.51100000000E-03 0. -1.
        -12    1    3    3    0    0 -0.40544928842E+01 -0.21627773707E+01 -0.11485493152E+02  0.12370653639E+02  0.00000000000E+00 0.  1.
</event>
<event>
 7    1  0.2685294E-009  0.4778727E+02  0.7816164E-02  0.1312668E+00
        -11   -1    0    0    0    0  0.00000000000E+00  0.00000000000E+00  0.45593999997E+02  0.45594000000E+02  0.51100000000E-03 0. -1.
         11   -1    0    0    0    0 -0.00000000000E+00 -0.00000000000E+00 -0.45593999997E+02  0.45594000000E+02  0.51100000000E-03 0.  1.
    9900012    2    1    2    0    0 -0.39281020567E+02  0.15775599146E+02  0.95789107304E+01  0.47787266873E+02  0.19999980979E+02 0.  0.
        -12    1    1    2    0    0  0.39281020567E+02 -0.15775599146E+02 -0.95789107304E+01  0.43400733127E+02  0.00000000000E+00 0.  1.
         11    1    3    3    0    0 -0.35661152563E+02  0.13292045179E+02  0.79217562321E+01  0.38873519126E+02  0.51100000000E-03 0. -1.
        -11    1    3    3    0    0 -0.21315347128E+01  0.14446497174E+01  0.47066397435E+01  0.53649707338E+01  0.51100000000E-03 0.  1.
         12    1    3    3    0    0 -0.14883332912E+01  0.10389042501E+01 -0.30494852453E+01  0.35487770130E+01  0.00000000000E+00 0. -1.
</event>
<event>
 7    1  0.2685294E-009  0.4778727E+02  0.7816164E-02  0.1312668E+00
        -11   -1    0    0    0    0  0.00000000000E+00  0.00000000000E+00  0.45593999997E+02  0.45594000000E+02  0.51100000000E-03 0. -1.
         11   -1    0    0    0    0 -0.00000000000E+00 -0.00000000000E+00 -0.45593999997E+02  0.45594000000E+02  0.51100000000E-03 0.  1.
    9900012    2    1    2    0    0 -0.23124731199E+02  0.31374065419E+02  0.19092878860E+02  0.47787271929E+02  0.20000004034E+02 0.  0.
        -12    1    1    2    0    0  0.23124731199E+02 -0.31374065419E+02 -0.19092878860E+02  0.43400728071E+02  0.00000000000E+00 0.  1.
         11    1    3    3    0    0 -0.14571547646E+02  0.16925034974E+02  0.16100316856E+02  0.27531927154E+02  0.51100000000E-03 0. -1.
        -11    1    3    3    0    0 -0.59816286563E+00  0.78549611693E+00 -0.31441890144E+01  0.32955618311E+01  0.51100000000E-03 0.  1.
        -12    1    3    3    0    0 -0.79550206865E+01  0.13663534328E+02  0.61367510186E+01  0.16959782944E+02  0.00000000000E+00 0.  1.
</event>
<event>
 7    1  0.2685294E-009  0.4778727E+02  0.7816164E-02  0.1312668E+00
        -11   -1    0    0    0    0  0.00000000000E+00  0.00000000000E+00  0.45593999997E+02  0.45594000000E+02  0.51100000000E-03 0.  1.
         11   -1    0    0    0    0 -0.00000000000E+00 -0.00000000000E+00 -0.45593999997E+02  0.45594000000E+02  0.51100000000E-03 0. -1.
    9900012    2    1    2    0    0 -0.13055694096E+02  0.39156956468E+02 -0.13412863680E+02  0.47787270741E+02  0.19999998615E+02 0.  0.
        -12    1    1    2    0    0  0.13055694096E+02 -0.39156956468E+02  0.13412863680E+02  0.43400729259E+02  0.00000000000E+00 0.  1.
         11    1    3    3    0    0 -0.28404245562E+01  0.17791241897E+02 -0.15345229621E+02  0.23665848227E+02  0.51100000000E-03 0. -1.
        -11    1    3    3    0    0 -0.46576729521E+01  0.14368393361E+02  0.14154880377E+01  0.15170637816E+02  0.51100000000E-03 0.  1.
         12    1    3    3    0    0 -0.55575965875E+01  0.69973212096E+01  0.51687790364E+00  0.89507846978E+01  0.00000000000E+00 0. -1.
</event>
<event>
 7    1  0.2685294E-009  0.4778727E+02  0.7816164E-02  0.1312668E+00
        -11   -1    0    0    0    0  0.00000000000E+00  0.00000000000E+00  0.45593999997E+02  0.45594000000E+02  0.51100000000E-03 0. -1.
         11   -1    0    0    0    0 -0.00000000000E+00 -0.00000000000E+00 -0.45593999997E+02  0.45594000000E+02  0.51100000000E-03 0.  1.
    9900012    2    1    2    0    0 -0.35731646942E+02 -0.19290245143E+02  0.15321850684E+02  0.47787271213E+02  0.20000000770E+02 0.  0.
        -12    1    1    2    0    0  0.35731646942E+02  0.19290245143E+02 -0.15321850684E+02  0.43400728787E+02  0.00000000000E+00 0.  1.
         11    1    3    3    0    0 -0.17631485958E+02 -0.36473829827E+01  0.54104757338E+01  0.18800158181E+02  0.51100000000E-03 0. -1.
        -11    1    3    3    0    0 -0.19582767990E+01 -0.65646941175E+01 -0.17900540774E+01  0.70805614706E+01  0.51100000000E-03 0.  1.
        -12    1    3    3    0    0 -0.16141884185E+02 -0.90781680426E+01  0.11701429027E+02  0.21906551562E+02  0.00000000000E+00 0.  1.
</event>
<event>
 7    1  0.2685294E-009  0.4778727E+02  0.7816164E-02  0.1312668E+00
        -11   -1    0    0    0    0  0.00000000000E+00  0.00000000000E+00  0.45593999997E+02  0.45594000000E+02  0.51100000000E-03 0.  1.
         11   -1    0    0    0    0 -0.00000000000E+00 -0.00000000000E+00 -0.45593999997E+02  0.45594000000E+02  0.51100000000E-03 0. -1.
    9900012    2    1    2    0    0 -0.20775857251E+02 -0.15981423894E+02 -0.34591635590E+02  0.47787269510E+02  0.19999993005E+02 0.  0.
        -12    1    1    2    0    0  0.20775857251E+02  0.15981423894E+02  0.34591635590E+02  0.43400730490E+02  0.00000000000E+00 0.  1.
         11    1    3    3    0    0 -0.26578485452E+00 -0.62597256130E+01 -0.48853647122E+01  0.79449100039E+01  0.51100000000E-03 0. -1.
        -11    1    3    3    0    0 -0.20983459894E+02 -0.11762176144E+02 -0.25014193233E+02  0.34703951362E+02  0.51100000000E-03 0.  1.
        -12    1    3    3    0    0  0.47338749708E+00  0.20404778628E+01 -0.46920776449E+01  0.51384081442E+01  0.00000000000E+00 0.  1.
</event>
<event>
 7    1  0.2685294E-009  0.4778727E+02  0.7816164E-02  0.1312668E+00
        -11   -1    0    0    0    0  0.00000000000E+00  0.00000000000E+00  0.45593999997E+02  0.45594000000E+02  0.51100000000E-03 0. -1.
         11   -1    0    0    0    0 -0.00000000000E+00 -0.00000000000E+00 -0.45593999997E+02  0.45594000000E+02  0.51100000000E-03 0.  1.
    9900012    2    1    2    0    0 -0.70092044140E+01  0.22502488859E+02  0.36443548512E+02  0.47787272131E+02  0.20000004955E+02 0.  0.
        -12    1    1    2    0    0  0.70092044140E+01 -0.22502488859E+02 -0.36443548512E+02  0.43400727869E+02  0.00000000000E+00 0.  1.
         11    1    3    3    0    0 -0.10485607380E+02  0.12744103660E+02  0.27956438043E+02  0.32464173616E+02  0.51100000000E-03 0. -1.
        -11    1    3    3    0    0  0.14216088001E+01 -0.83668790375E+00  0.95928109430E-01  0.16523379473E+01  0.51100000000E-03 0.  1.
        -12    1    3    3    0    0  0.20547941662E+01  0.10595073103E+02  0.83911823595E+01  0.13670760568E+02  0.00000000000E+00 0.  1.
</event>
<event>
 7    1  0.2685294E-009  0.4778727E+02  0.7816164E-02  0.1312668E+00
        -11   -1    0    0    0    0  0.00000000000E+00  0.00000000000E+00  0.45593999997E+02  0.45594000000E+02  0.51100000000E-03 0.  1.
         11   -1    0    0    0    0 -0.00000000000E+00 -0.00000000000E+00 -0.45593999997E+02  0.45594000000E+02  0.51100000000E-03 0. -1.
    9900012    2    1    2    0    0  0.26341356842E+02  0.23792840879E+02 -0.24973130100E+02  0.47787267468E+02  0.19999983694E+02 0.  0.
        -12    1    1    2    0    0 -0.26341356842E+02 -0.23792840879E+02  0.24973130100E+02  0.43400732532E+02  0.00000000000E+00 0.  1.
         11    1    3    3    0    0  0.12749668649E+02  0.76121465787E+01 -0.85969383887E+01  0.17158268447E+02  0.51100000000E-03 0. -1.
        -11    1    3    3    0    0  0.11883667988E+02  0.14370255847E+02 -0.19267815017E+02  0.26813700113E+02  0.51100000000E-03 0.  1.
        -12    1    3    3    0    0  0.17080202048E+01  0.18104384534E+01  0.28916233061E+01  0.38152989080E+01  0.00000000000E+00 0.  1.
</event>
<event>
 7    1  0.2685294E-009  0.4778726E+02  0.7816164E-02  0.1312668E+00
        -11   -1    0    0    0    0  0.00000000000E+00  0.00000000000E+00  0.45593999997E+02  0.45594000000E+02  0.51100000000E-03 0. -1.
         11   -1    0    0    0    0 -0.00000000000E+00 -0.00000000000E+00 -0.45593999997E+02  0.45594000000E+02  0.51100000000E-03 0.  1.
    9900012    2    1    2    0    0  0.19236236479E+02  0.15858438400E+02  0.35526063192E+02  0.47787262353E+02  0.19999960374E+02 0.  0.
        -12    1    1    2    0    0 -0.19236236479E+02 -0.15858438400E+02 -0.35526063192E+02  0.43400737647E+02  0.00000000000E+00 0.  1.
         11    1    3    3    0    0 -0.28998307930E+01  0.43053217242E+01  0.37877124303E+01  0.64258524332E+01  0.51100000000E-03 0. -1.
        -11    1    3    3    0    0  0.91305180187E+01  0.60481713175E+01  0.73845216927E+01  0.13209008156E+02  0.51100000000E-03 0.  1.
         12    1    3    3    0    0  0.13005549253E+02  0.55049453586E+01  0.24353829069E+02  0.28152401764E+02  0.00000000000E+00 0. -1.
</event>
<event>
 7    1  0.2685294E-009  0.4778729E+02  0.7816164E-02  0.1312668E+00
        -11   -1    0    0    0    0  0.00000000000E+00  0.00000000000E+00  0.45593999997E+02  0.45594000000E+02  0.51100000000E-03 0.  1.
         11   -1    0    0    0    0 -0.00000000000E+00 -0.00000000000E+00 -0.45593999997E+02  0.45594000000E+02  0.51100000000E-03 0. -1.
    9900012    2    1    2    0    0 -0.81645836157E+01  0.75996335636E+01 -0.41942902978E+02  0.47787286110E+02  0.20000068692E+02 0.  0.
        -12    1    1    2    0    0  0.81645836157E+01 -0.75996335636E+01  0.41942902978E+02  0.43400713890E+02  0.00000000000E+00 0.  1.
         11    1    3    3    0    0 -0.58459722799E+01  0.15816504153E+00 -0.43897753546E+01  0.73123550244E+01  0.51100000000E-03 0. -1.
        -11    1    3    3    0    0  0.78908721424E+00  0.95662113862E+01 -0.16508383206E+02  0.19096119377E+02  0.51100000000E-03 0.  1.
        -12    1    3    3    0    0 -0.31076985500E+01 -0.21247428641E+01 -0.21044744417E+02  0.21378811709E+02  0.00000000000E+00 0.  1.
</event>
<event>
 7    1  0.2685294E-009  0.4778727E+02  0.7816164E-02  0.1312668E+00
        -11   -1    0    0    0    0  0.00000000000E+00  0.00000000000E+00  0.45593999997E+02  0.45594000000E+02  0.51100000000E-03 0. -1.
         11   -1    0    0    0    0 -0.00000000000E+00 -0.00000000000E+00 -0.45593999997E+02  0.45594000000E+02  0.51100000000E-03 0.  1.
    9900012    2    1    2    0    0 -0.15607890251E+02 -0.29276731507E+02  0.27980171879E+02  0.47787271156E+02  0.20000000509E+02 0.  0.
        -12    1    1    2    0    0  0.15607890251E+02  0.29276731507E+02 -0.27980171879E+02  0.43400728844E+02  0.00000000000E+00 0.  1.
         11    1    3    3    0    0 -0.41380923435E+01 -0.18259022895E+02  0.22160681321E+02  0.29010541571E+02  0.51100000000E-03 0. -1.
        -11    1    3    3    0    0 -0.21664200706E+01  0.12140857760E+01  0.74409005464E+00  0.25924988841E+01  0.51100000000E-03 0.  1.
         12    1    3    3    0    0 -0.93033778371E+01 -0.12231794388E+02  0.50754005025E+01  0.16184230701E+02  0.00000000000E+00 0. -1.
</event>
<event>
 7    1  0.2685294E-009  0.4778727E+02  0.7816164E-02  0.1312668E+00
        -11   -1    0    0    0    0  0.00000000000E+00  0.00000000000E+00  0.45593999997E+02  0.45594000000E+02  0.51100000000E-03 0.  1.
         11   -1    0    0    0    0 -0.00000000000E+00 -0.00000000000E+00 -0.45593999997E+02  0.45594000000E+02  0.51100000000E-03 0. -1.
    9900012    2    1    2    0    0 -0.22200536026E+02 -0.21783068133E+01 -0.37229211535E+02  0.47787274062E+02  0.20000013757E+02 0.  0.
        -12    1    1    2    0    0  0.22200536026E+02  0.21783068133E+01  0.37229211535E+02  0.43400725938E+02  0.00000000000E+00 0.  1.
         11    1    3    3    0    0 -0.45142696859E+01  0.23519396525E+01 -0.90869118132E+01  0.10415479705E+02  0.51100000000E-03 0. -1.
        -11    1    3    3    0    0 -0.12564774739E+02  0.35445352851E+01 -0.86508703140E+01  0.15661253209E+02  0.51100000000E-03 0.  1.
        -12    1    3    3    0    0 -0.51214916012E+01 -0.80747817508E+01 -0.19491429408E+02  0.21710541148E+02  0.00000000000E+00 0.  1.
</event>
<event>
 7    1  0.2685294E-009  0.4778727E+02  0.7816164E-02  0.1312668E+00
        -11   -1    0    0    0    0  0.00000000000E+00  0.00000000000E+00  0.45593999997E+02  0.45594000000E+02  0.51100000000E-03 0.  1.
         11   -1    0    0    0    0 -0.00000000000E+00 -0.00000000000E+00 -0.45593999997E+02  0.45594000000E+02  0.51100000000E-03 0. -1.
    9900012    2    1    2    0    0 -0.21264526527E+02  0.36001707553E+02 -0.11632715086E+02  0.47787273100E+02  0.20000009374E+02 0.  0.
        -12    1    1    2    0    0  0.21264526527E+02 -0.36001707553E+02  0.11632715086E+02  0.43400726900E+02  0.00000000000E+00 0.  1.
         11    1    3    3    0    0 -0.29037501405E+01  0.59965330957E+01 -0.21423480465E+00  0.66660386182E+01  0.51100000000E-03 0. -1.
        -11    1    3    3    0    0  0.37952958612E+00  0.15584697737E+02 -0.68953207345E+01  0.17046181230E+02  0.51100000000E-03 0.  1.
        -12    1    3    3    0    0 -0.18740305972E+02  0.14420476721E+02 -0.45231595470E+01  0.24075053252E+02  0.00000000000E+00 0.  1.
</event>
<event>
 7    1  0.2685294E-009  0.4778727E+02  0.7816164E-02  0.1312668E+00
        -11   -1    0    0    0    0  0.00000000000E+00  0.00000000000E+00  0.45593999997E+02  0.45594000000E+02  0.51100000000E-03 0. -1.
         11   -1    0    0    0    0 -0.00000000000E+00 -0.00000000000E+00 -0.45593999997E+02  0.45594000000E+02  0.51100000000E-03 0.  1.
    9900012    2    1    2    0    0 -0.41280510353E+02  0.13331543984E+02  0.13463746251E+01  0.47787270460E+02  0.19999997335E+02 0.  0.
        -12    1    1    2    0    0  0.41280510353E+02 -0.13331543984E+02 -0.13463746251E+01  0.43400729540E+02  0.00000000000E+00 0.  1.
         11    1    3    3    0    0 -0.33031039857E+02  0.11248598777E+02 -0.20344835189E+01  0.34953107043E+02  0.51100000000E-03 0. -1.
        -11    1    3    3    0    0 -0.63864139074E+01 -0.20063019330E+01  0.46665977185E+01  0.81601877779E+01  0.51100000000E-03 0.  1.
         12    1    3    3    0    0 -0.18630565878E+01  0.40892471400E+01 -0.12857395744E+01  0.46739756390E+01  0.00000000000E+00 0. -1.
</event>
<event>
 7    1  0.2685294E-009  0.4778727E+02  0.7816164E-02  0.1312668E+00
        -11   -1    0    0    0    0  0.00000000000E+00  0.00000000000E+00  0.45593999997E+02  0.45594000000E+02  0.51100000000E-03 0.  1.
         11   -1    0    0    0    0 -0.00000000000E+00 -0.00000000000E+00 -0.45593999997E+02  0.45594000000E+02  0.51100000000E-03 0. -1.
    9900012    2    1    2    0    0  0.22396865219E+02 -0.53544515106E+01 -0.36787686219E+02  0.47787267518E+02  0.19999983922E+02 0.  0.
        -12    1    1    2    0    0 -0.22396865219E+02  0.53544515106E+01  0.36787686219E+02  0.43400732482E+02  0.00000000000E+00 0.  1.
         11    1    3    3    0    0  0.14112464015E+02 -0.11717904187E+01 -0.34469257050E+02  0.37264787872E+02  0.51100000000E-03 0. -1.
        -11    1    3    3    0    0  0.71169560158E+01 -0.24666556890E+01 -0.33037674478E+01  0.82249822388E+01  0.51100000000E-03 0.  1.
         12    1    3    3    0    0  0.11674451887E+01 -0.17160054030E+01  0.98533827861E+00  0.22974974070E+01  0.00000000000E+00 0. -1.
</event>
<event>
 7    1  0.5527203E-009  0.4778726E+02  0.7816164E-02  0.1312668E+00
        -11   -1    0    0    0    0  0.00000000000E+00  0.00000000000E+00  0.45593999997E+02  0.45594000000E+02  0.51100000000E-03 0. -1.
         11   -1    0    0    0    0 -0.00000000000E+00 -0.00000000000E+00 -0.45593999997E+02  0.45594000000E+02  0.51100000000E-03 0.  1.
    9900012    2    1    2    0    0 -0.39159542245E+02  0.12054721106E+02  0.14312157109E+02  0.47787263936E+02  0.19999967589E+02 0.  0.
        -12    1    1    2    0    0  0.39159542245E+02 -0.12054721106E+02 -0.14312157109E+02  0.43400736064E+02  0.00000000000E+00 0.  1.
         11    1    3    3    0    0 -0.90575313563E+01  0.23794035433E+01  0.43629480138E+01  0.10331299585E+02  0.51100000000E-03 0. -1.
        -11    1    3    3    0    0 -0.16379479221E+02  0.47336491801E+01  0.14281591564E+02  0.22240922462E+02  0.51100000000E-03 0.  1.
        -12    1    3    3    0    0 -0.13722531668E+02  0.49416683827E+01 -0.43323824698E+01  0.15215041888E+02  0.00000000000E+00 0.  1.
</event>
<event>
 7    1  0.2685294E-009  0.4778727E+02  0.7816164E-02  0.1312668E+00
        -11   -1    0    0    0    0  0.00000000000E+00  0.00000000000E+00  0.45593999997E+02  0.45594000000E+02  0.51100000000E-03 0. -1.
         11   -1    0    0    0    0 -0.00000000000E+00 -0.00000000000E+00 -0.45593999997E+02  0.45594000000E+02  0.51100000000E-03 0.  1.
    9900012    2    1    2    0    0  0.13089476428E+02 -0.35874532676E+02 -0.20622965248E+02  0.47787272086E+02  0.20000004749E+02 0.  0.
        -12    1    1    2    0    0 -0.13089476428E+02  0.35874532676E+02  0.20622965248E+02  0.43400727914E+02  0.00000000000E+00 0.  1.
         11    1    3    3    0    0  0.40044616826E+01 -0.14602498377E+02 -0.84109036795E+01  0.17320853708E+02  0.51100000000E-03 0. -1.
        -11    1    3    3    0    0  0.77329655308E+01 -0.20553559648E+02 -0.42615345812E+01  0.22369806601E+02  0.51100000000E-03 0.  1.
        -12    1    3    3    0    0  0.13520492143E+01 -0.71847465120E+00 -0.79505269869E+01  0.80966117773E+01  0.00000000000E+00 0.  1.
</event>
<event>
 7    1  0.2685294E-009  0.4778727E+02  0.7816164E-02  0.1312668E+00
        -11   -1    0    0    0    0  0.00000000000E+00  0.00000000000E+00  0.45593999997E+02  0.45594000000E+02  0.51100000000E-03 0.  1.
         11   -1    0    0    0    0 -0.00000000000E+00 -0.00000000000E+00 -0.45593999997E+02  0.45594000000E+02  0.51100000000E-03 0. -1.
    9900012    2    1    2    0    0 -0.18998717159E+02 -0.47430186692E+01 -0.38732101867E+02  0.47787271955E+02  0.20000004152E+02 0.  0.
        -12    1    1    2    0    0  0.18998717159E+02  0.47430186692E+01  0.38732101867E+02  0.43400728045E+02  0.00000000000E+00 0.  1.
         11    1    3    3    0    0 -0.73285127321E+01 -0.30159400288E+01 -0.44473756440E+01  0.90874717882E+01  0.51100000000E-03 0. -1.
        -11    1    3    3    0    0  0.14616607543E+01 -0.26412721466E+01 -0.14996093575E+01  0.33706971385E+01  0.51100000000E-03 0.  1.
        -12    1    3    3    0    0 -0.13131865181E+02  0.91419350625E+00 -0.32785116865E+02  0.35329103028E+02  0.00000000000E+00 0.  1.
</event>
<event>
 7    1  0.2685294E-009  0.4778726E+02  0.7816164E-02  0.1312668E+00
        -11   -1    0    0    0    0  0.00000000000E+00  0.00000000000E+00  0.45593999997E+02  0.45594000000E+02  0.51100000000E-03 0.  1.
         11   -1    0    0    0    0 -0.00000000000E+00 -0.00000000000E+00 -0.45593999997E+02  0.45594000000E+02  0.51100000000E-03 0. -1.
    9900012    2    1    2    0    0 -0.30832765297E+02  0.18041160950E+02 -0.24647127558E+02  0.47787264970E+02  0.19999972302E+02 0.  0.
        -12    1    1    2    0    0  0.30832765297E+02 -0.18041160950E+02  0.24647127558E+02  0.43400735030E+02  0.00000000000E+00 0.  1.
         11    1    3    3    0    0 -0.12916534901E+02 -0.17691230763E+01 -0.83865701944E+01  0.15501652499E+02  0.51100000000E-03 0. -1.
        -11    1    3    3    0    0 -0.31292172965E+01  0.14199185281E+00 -0.29808036838E+01  0.43240436442E+01  0.51100000000E-03 0.  1.
         12    1    3    3    0    0 -0.14787013100E+02  0.19668292174E+02 -0.13279753680E+02  0.27961568827E+02  0.00000000000E+00 0. -1.
</event>
<event>
 7    1  0.2685294E-009  0.4778727E+02  0.7816164E-02  0.1312668E+00
        -11   -1    0    0    0    0  0.00000000000E+00  0.00000000000E+00  0.45593999997E+02  0.45594000000E+02  0.51100000000E-03 0.  1.
         11   -1    0    0    0    0 -0.00000000000E+00 -0.00000000000E+00 -0.45593999997E+02  0.45594000000E+02  0.51100000000E-03 0. -1.
    9900012    2    1    2    0    0  0.62794346630E+01  0.32983397773E+02 -0.27500681006E+02  0.47787270926E+02  0.19999999459E+02 0.  0.
        -12    1    1    2    0    0 -0.62794346630E+01 -0.32983397773E+02  0.27500681006E+02  0.43400729074E+02  0.00000000000E+00 0.  1.
         11    1    3    3    0    0  0.14395112877E+00  0.57019130239E+01 -0.39303987247E+01  0.69268007374E+01  0.51100000000E-03 0. -1.
        -11    1    3    3    0    0 -0.44034446451E+01  0.89346346341E+01 -0.15057140648E+02  0.18053683988E+02  0.51100000000E-03 0.  1.
        -12    1    3    3    0    0  0.10538928179E+02  0.18346850115E+02 -0.85131416339E+01  0.22806786201E+02  0.00000000000E+00 0.  1.
</event>
<event>
 7    1  0.2685294E-009  0.4778727E+02  0.7816164E-02  0.1312668E+00
        -11   -1    0    0    0    0  0.00000000000E+00  0.00000000000E+00  0.45593999997E+02  0.45594000000E+02  0.51100000000E-03 0.  1.
         11   -1    0    0    0    0 -0.00000000000E+00 -0.00000000000E+00 -0.45593999997E+02  0.45594000000E+02  0.51100000000E-03 0. -1.
    9900012    2    1    2    0    0  0.83008848476E+01 -0.41180650485E+02  0.10902866642E+02  0.47787272303E+02  0.20000005738E+02 0.  0.
        -12    1    1    2    0    0 -0.83008848476E+01  0.41180650485E+02 -0.10902866642E+02  0.43400727697E+02  0.00000000000E+00 0.  1.
         11    1    3    3    0    0 -0.24643465945E+01 -0.28673294293E+02  0.28173085492E+01  0.28916570292E+02  0.51100000000E-03 0. -1.
        -11    1    3    3    0    0  0.58569583564E+01 -0.62835120742E+01  0.65372100235E+01  0.10794517142E+02  0.51100000000E-03 0.  1.
         12    1    3    3    0    0  0.49082730857E+01 -0.62238441181E+01  0.15483480695E+01  0.80761848688E+01  0.00000000000E+00 0. -1.
</event>
<event>
 7    1  0.2685294E-009  0.4778727E+02  0.7816164E-02  0.1312668E+00
        -11   -1    0    0    0    0  0.00000000000E+00  0.00000000000E+00  0.45593999997E+02  0.45594000000E+02  0.51100000000E-03 0.  1.
         11   -1    0    0    0    0 -0.00000000000E+00 -0.00000000000E+00 -0.45593999997E+02  0.45594000000E+02  0.51100000000E-03 0. -1.
    9900012    2    1    2    0    0  0.16851490342E+02  0.26121497245E+02 -0.30287256375E+02  0.47787271391E+02  0.20000001579E+02 0.  0.
        -12    1    1    2    0    0 -0.16851490342E+02 -0.26121497245E+02  0.30287256375E+02  0.43400728609E+02  0.00000000000E+00 0.  1.
         11    1    3    3    0    0  0.32602850519E+01  0.62272047638E+01 -0.92247048624E+01  0.11597530679E+02  0.51100000000E-03 0. -1.
        -11    1    3    3    0    0  0.48760113392E+00  0.76088203414E+01 -0.15685004680E+02  0.17439933312E+02  0.51100000000E-03 0.  1.
        -12    1    3    3    0    0  0.13103604156E+02  0.12285472140E+02 -0.53775468325E+01  0.18749807400E+02  0.00000000000E+00 0.  1.
</event>
<event>
 7    1  0.2685294E-009  0.4778727E+02  0.7816164E-02  0.1312668E+00
        -11   -1    0    0    0    0  0.00000000000E+00  0.00000000000E+00  0.45593999997E+02  0.45594000000E+02  0.51100000000E-03 0.  1.
         11   -1    0    0    0    0 -0.00000000000E+00 -0.00000000000E+00 -0.45593999997E+02  0.45594000000E+02  0.51100000000E-03 0. -1.
    9900012    2    1    2    0    0 -0.40084943960E+01 -0.42491527684E+02 -0.78756221314E+01  0.47787269866E+02  0.19999994627E+02 0.  0.
        -12    1    1    2    0    0  0.40084943960E+01  0.42491527684E+02  0.78756221314E+01  0.43400730134E+02  0.00000000000E+00 0.  1.
         11    1    3    3    0    0  0.44773003035E+00 -0.24188555092E+02  0.16551442330E+01  0.24249250758E+02  0.51100000000E-03 0. -1.
        -11    1    3    3    0    0  0.96527761438E+00 -0.29499712610E+01  0.19043867679E+01  0.36415354641E+01  0.51100000000E-03 0.  1.
         12    1    3    3    0    0 -0.54215020407E+01 -0.15353001330E+02 -0.11435153132E+02  0.19896483644E+02  0.00000000000E+00 0. -1.
</event>
<event>
 7    1  0.2685294E-009  0.4778727E+02  0.7816164E-02  0.1312668E+00
        -11   -1    0    0    0    0  0.00000000000E+00  0.00000000000E+00  0.45593999997E+02  0.45594000000E+02  0.51100000000E-03 0.  1.
         11   -1    0    0    0    0 -0.00000000000E+00 -0.00000000000E+00 -0.45593999997E+02  0.45594000000E+02  0.51100000000E-03 0. -1.
    9900012    2    1    2    0    0 -0.39054342656E+02  0.13175528372E+02 -0.13593658507E+02  0.47787265216E+02  0.19999973427E+02 0.  0.
        -12    1    1    2    0    0  0.39054342656E+02 -0.13175528372E+02  0.13593658507E+02  0.43400734784E+02  0.00000000000E+00 0.  1.
         11    1    3    3    0    0 -0.13543303711E+02  0.37820596913E+01 -0.10216142760E+01  0.14098537048E+02  0.51100000000E-03 0. -1.
        -11    1    3    3    0    0 -0.14786736015E+02  0.12128925540E+02 -0.36439342457E+01  0.19468863700E+02  0.51100000000E-03 0.  1.
        -12    1    3    3    0    0 -0.10724302930E+02 -0.27354568595E+01 -0.89281099853E+01  0.14219864468E+02  0.00000000000E+00 0.  1.
</event>
<event>
 7    1  0.4327586E-009  0.4778727E+02  0.7816164E-02  0.1312668E+00
        -11   -1    0    0    0    0  0.00000000000E+00  0.00000000000E+00  0.45593999997E+02  0.45594000000E+02  0.51100000000E-03 0. -1.
         11   -1    0    0    0    0 -0.00000000000E+00 -0.00000000000E+00 -0.45593999997E+02  0.45594000000E+02  0.51100000000E-03 0.  1.
    9900012    2    1    2    0    0 -0.29467171900E+02  0.54595138146E+01  0.31392719957E+02  0.47787269854E+02  0.19999994574E+02 0.  0.
        -12    1    1    2    0    0  0.29467171900E+02 -0.54595138146E+01 -0.31392719957E+02  0.43400730146E+02  0.00000000000E+00 0.  1.
         11    1    3    3    0    0 -0.54485430959E+01 -0.45172272099E+00  0.82027259088E+01  0.98577577512E+01  0.51100000000E-03 0. -1.
        -11    1    3    3    0    0 -0.14474963436E+02 -0.51801252716E+01  0.12330842690E+02  0.19708068043E+02  0.51100000000E-03 0.  1.
        -12    1    3    3    0    0 -0.95436653676E+01  0.11091361807E+02  0.10859151359E+02  0.18221444060E+02  0.00000000000E+00 0.  1.
</event>
<event>
 7    1  0.2685294E-009  0.4778722E+02  0.7816164E-02  0.1312668E+00
        -11   -1    0    0    0    0  0.00000000000E+00  0.00000000000E+00  0.45593999997E+02  0.45594000000E+02  0.51100000000E-03 0.  1.
         11   -1    0    0    0    0 -0.00000000000E+00 -0.00000000000E+00 -0.45593999997E+02  0.45594000000E+02  0.51100000000E-03 0. -1.
    9900012    2    1    2    0    0  0.25482097273E+02  0.34912923419E+02  0.39214837289E+01  0.47787221923E+02  0.19999776032E+02 0.  0.
        -12    1    1    2    0    0 -0.25482097273E+02 -0.34912923419E+02 -0.39214837289E+01  0.43400778077E+02  0.00000000000E+00 0.  1.
         11    1    3    3    0    0  0.49034178223E+00  0.12105604259E+02 -0.30271655564E+00  0.12119312155E+02  0.51100000000E-03 0. -1.
        -11    1    3    3    0    0  0.40349451580E+00  0.42102772805E+01  0.22123939694E+01  0.47732515061E+01  0.51100000000E-03 0.  1.
         12    1    3    3    0    0  0.24588260975E+02  0.18597041880E+02  0.20118063152E+01  0.30894658261E+02  0.00000000000E+00 0. -1.
</event>
<event>
 7    1  0.2685294E-009  0.4778727E+02  0.7816164E-02  0.1312668E+00
        -11   -1    0    0    0    0  0.00000000000E+00  0.00000000000E+00  0.45593999997E+02  0.45594000000E+02  0.51100000000E-03 0. -1.
         11   -1    0    0    0    0 -0.00000000000E+00 -0.00000000000E+00 -0.45593999997E+02  0.45594000000E+02  0.51100000000E-03 0.  1.
    9900012    2    1    2    0    0  0.79236025377E+01 -0.33790452615E+02 -0.26058497931E+02  0.47787268675E+02  0.19999989198E+02 0.  0.
        -12    1    1    2    0    0 -0.79236025377E+01  0.33790452615E+02  0.26058497931E+02  0.43400731325E+02  0.00000000000E+00 0.  1.
         11    1    3    3    0    0  0.39569301620E+00 -0.36154732871E+00  0.11327893750E+01  0.12531964983E+01  0.51100000000E-03 0. -1.
        -11    1    3    3    0    0 -0.49562100707E+01 -0.10439662176E+02 -0.94085357837E+01  0.14902050545E+02  0.51100000000E-03 0.  1.
        -12    1    3    3    0    0  0.12484119592E+02 -0.22989243111E+02 -0.17782751522E+02  0.31632021632E+02  0.00000000000E+00 0.  1.
</event>
<event>
 7    1  0.2685294E-009  0.4778727E+02  0.7816164E-02  0.1312668E+00
        -11   -1    0    0    0    0  0.00000000000E+00  0.00000000000E+00  0.45593999997E+02  0.45594000000E+02  0.51100000000E-03 0.  1.
         11   -1    0    0    0    0 -0.00000000000E+00 -0.00000000000E+00 -0.45593999997E+02  0.45594000000E+02  0.51100000000E-03 0. -1.
    9900012    2    1    2    0    0 -0.18837423053E+02 -0.38900535846E+02  0.39399917297E+01  0.47787265775E+02  0.19999975977E+02 0.  0.
        -12    1    1    2    0    0  0.18837423053E+02  0.38900535846E+02 -0.39399917297E+01  0.43400734225E+02  0.00000000000E+00 0.  1.
         11    1    3    3    0    0 -0.28581661246E+01 -0.26022785711E+02  0.54346360078E+01  0.26737422437E+02  0.51100000000E-03 0. -1.
        -11    1    3    3    0    0 -0.14550967603E+02 -0.13064487595E+02 -0.14419563771E+01  0.19608435245E+02  0.51100000000E-03 0.  1.
         12    1    3    3    0    0 -0.14282893258E+01  0.18673746048E+00 -0.52687900968E-01  0.14414080936E+01  0.00000000000E+00 0. -1.
</event>
<event>
 7    1  0.2685294E-009  0.4778727E+02  0.7816164E-02  0.1312668E+00
        -11   -1    0    0    0    0  0.00000000000E+00  0.00000000000E+00  0.45593999997E+02  0.45594000000E+02  0.51100000000E-03 0.  1.
         11   -1    0    0    0    0 -0.00000000000E+00 -0.00000000000E+00 -0.45593999997E+02  0.45594000000E+02  0.51100000000E-03 0. -1.
    9900012    2    1    2    0    0  0.33949111195E+02 -0.12461206281E+02 -0.23995818275E+02  0.47787272960E+02  0.20000008734E+02 0.  0.
        -12    1    1    2    0    0 -0.33949111195E+02  0.12461206281E+02  0.23995818275E+02  0.43400727040E+02  0.00000000000E+00 0.  1.
         11    1    3    3    0    0  0.16576936345E+02  0.20979203270E+01 -0.49809277678E+01  0.17435760091E+02  0.51100000000E-03 0. -1.
        -11    1    3    3    0    0  0.86148878410E+01 -0.81816090943E+01 -0.14148609123E+02  0.18475339246E+02  0.51100000000E-03 0.  1.
         12    1    3    3    0    0  0.87572870099E+01 -0.63775175133E+01 -0.48662813836E+01  0.11876173622E+02  0.00000000000E+00 0. -1.
</event>
<event>
 7    1  0.2685294E-009  0.4778727E+02  0.7816164E-02  0.1312668E+00
        -11   -1    0    0    0    0  0.00000000000E+00  0.00000000000E+00  0.45593999997E+02  0.45594000000E+02  0.51100000000E-03 0.  1.
         11   -1    0    0    0    0 -0.00000000000E+00 -0.00000000000E+00 -0.45593999997E+02  0.45594000000E+02  0.51100000000E-03 0. -1.
    9900012    2    1    2    0    0 -0.28318929301E+02  0.32789050134E+02  0.25573590978E+01  0.47787266700E+02  0.19999980190E+02 0.  0.
        -12    1    1    2    0    0  0.28318929301E+02 -0.32789050134E+02 -0.25573590978E+01  0.43400733300E+02  0.00000000000E+00 0.  1.
         11    1    3    3    0    0 -0.19933405871E+02  0.15868149426E+02  0.77075664958E+01  0.26618516439E+02  0.51100000000E-03 0. -1.
        -11    1    3    3    0    0 -0.90440894580E+00  0.48252739042E+01  0.19381024591E+01  0.52780171651E+01  0.51100000000E-03 0.  1.
         12    1    3    3    0    0 -0.74811144834E+01  0.12095626804E+02 -0.70883098571E+01  0.15890733096E+02  0.00000000000E+00 0. -1.
</event>
<event>
 7    1  0.2685294E-009  0.4778727E+02  0.7816164E-02  0.1312668E+00
        -11   -1    0    0    0    0  0.00000000000E+00  0.00000000000E+00  0.45593999997E+02  0.45594000000E+02  0.51100000000E-03 0.  1.
         11   -1    0    0    0    0 -0.00000000000E+00 -0.00000000000E+00 -0.45593999997E+02  0.45594000000E+02  0.51100000000E-03 0. -1.
    9900012    2    1    2    0    0 -0.32377259312E+02 -0.28008098833E+02 -0.71332336436E+01  0.47787267943E+02  0.19999985862E+02 0.  0.
        -12    1    1    2    0    0  0.32377259312E+02  0.28008098833E+02  0.71332336436E+01  0.43400732057E+02  0.00000000000E+00 0.  1.
         11    1    3    3    0    0  0.45783729666E+00 -0.60071977606E+01 -0.10914481663E+01  0.61226872601E+01  0.51100000000E-03 0.  1.
        -11    1    3    3    0    0 -0.27349630563E+02 -0.16077876004E+02 -0.91427949788E+01  0.33016527513E+02  0.51100000000E-03 0. -1.
        -12    1    3    3    0    0 -0.54854660455E+01 -0.59230250691E+01  0.31010095016E+01  0.86480531701E+01  0.00000000000E+00 0.  1.
</event>
<event>
 7    1  0.2685294E-009  0.4778726E+02  0.7816164E-02  0.1312668E+00
        -11   -1    0    0    0    0  0.00000000000E+00  0.00000000000E+00  0.45593999997E+02  0.45594000000E+02  0.51100000000E-03 0.  1.
         11   -1    0    0    0    0 -0.00000000000E+00 -0.00000000000E+00 -0.45593999997E+02  0.45594000000E+02  0.51100000000E-03 0. -1.
    9900012    2    1    2    0    0 -0.17832964840E+02 -0.98702413742E+01 -0.38316937921E+02  0.47787262317E+02  0.19999960208E+02 0.  0.
        -12    1    1    2    0    0  0.17832964840E+02  0.98702413742E+01  0.38316937921E+02  0.43400737683E+02  0.00000000000E+00 0.  1.
         11    1    3    3    0    0 -0.78216359457E+01  0.34056990689E+01 -0.12691086809E+02  0.15291842913E+02  0.51100000000E-03 0. -1.
        -11    1    3    3    0    0  0.92102548943E+00 -0.68838852728E+01 -0.12206501501E+02  0.14044032311E+02  0.51100000000E-03 0.  1.
        -12    1    3    3    0    0 -0.10932354384E+02 -0.63920551704E+01 -0.13419349611E+02  0.18451387093E+02  0.00000000000E+00 0.  1.
</event>
<event>
 7    1  0.2685294E-009  0.4778727E+02  0.7816164E-02  0.1312668E+00
        -11   -1    0    0    0    0  0.00000000000E+00  0.00000000000E+00  0.45593999997E+02  0.45594000000E+02  0.51100000000E-03 0.  1.
         11   -1    0    0    0    0 -0.00000000000E+00 -0.00000000000E+00 -0.45593999997E+02  0.45594000000E+02  0.51100000000E-03 0. -1.
    9900012    2    1    2    0    0 -0.13644959616E+02 -0.40762544207E+02 -0.59877698294E+01  0.47787270505E+02  0.19999997542E+02 0.  0.
        -12    1    1    2    0    0  0.13644959616E+02  0.40762544207E+02  0.59877698294E+01  0.43400729495E+02  0.00000000000E+00 0.  1.
         11    1    3    3    0    0 -0.53224601878E+00 -0.13585246762E+02 -0.79610638542E+00  0.13618957414E+02  0.51100000000E-03 0. -1.
        -11    1    3    3    0    0 -0.61076407837E+01 -0.20378447510E+02 -0.97413010442E+01  0.23398233804E+02  0.51100000000E-03 0.  1.
        -12    1    3    3    0    0 -0.70050728138E+01 -0.67988499356E+01  0.45496376002E+01  0.10770079288E+02  0.00000000000E+00 0.  1.
</event>
<event>
 7    1  0.2685294E-009  0.4778727E+02  0.7816164E-02  0.1312668E+00
        -11   -1    0    0    0    0  0.00000000000E+00  0.00000000000E+00  0.45593999997E+02  0.45594000000E+02  0.51100000000E-03 0.  1.
         11   -1    0    0    0    0 -0.00000000000E+00 -0.00000000000E+00 -0.45593999997E+02  0.45594000000E+02  0.51100000000E-03 0. -1.
    9900012    2    1    2    0    0  0.87401003218E+01  0.35051971731E+02 -0.24053971126E+02  0.47787267255E+02  0.19999982723E+02 0.  0.
        -12    1    1    2    0    0 -0.87401003218E+01 -0.35051971731E+02  0.24053971126E+02  0.43400732745E+02  0.00000000000E+00 0.  1.
         11    1    3    3    0    0 -0.13737556442E+01  0.21821332815E+01 -0.39848203787E+01  0.47463358435E+01  0.51100000000E-03 0. -1.
        -11    1    3    3    0    0 -0.42419958641E+01  0.42789340502E+01 -0.40673430247E+01  0.72696000618E+01  0.51100000000E-03 0.  1.
        -12    1    3    3    0    0  0.14355851830E+02  0.28590904399E+02 -0.16001807723E+02  0.35771331350E+02  0.00000000000E+00 0.  1.
</event>
<event>
 7    1  0.2685294E-009  0.4778722E+02  0.7816164E-02  0.1312668E+00
        -11   -1    0    0    0    0  0.00000000000E+00  0.00000000000E+00  0.45593999997E+02  0.45594000000E+02  0.51100000000E-03 0.  1.
         11   -1    0    0    0    0 -0.00000000000E+00 -0.00000000000E+00 -0.45593999997E+02  0.45594000000E+02  0.51100000000E-03 0. -1.
    9900012    2    1    2    0    0  0.55966679964E+01 -0.38647321724E+02  0.18939096418E+02  0.47787221871E+02  0.19999775797E+02 0.  0.
        -12    1    1    2    0    0 -0.55966679964E+01  0.38647321724E+02 -0.18939096418E+02  0.43400778129E+02  0.00000000000E+00 0.  1.
         11    1    3    3    0    0  0.85186702171E+01 -0.12466785481E+02  0.88594656668E+01  0.17506530629E+02  0.51100000000E-03 0. -1.
        -11    1    3    3    0    0 -0.49642807208E+01 -0.15421491811E+02  0.10526711405E+02  0.19320407501E+02  0.51100000000E-03 0.  1.
        -12    1    3    3    0    0  0.20422785002E+01 -0.10759044432E+02 -0.44708065417E+00  0.10960283741E+02  0.00000000000E+00 0.  1.
</event>
<event>
 7    1  0.2685294E-009  0.4778727E+02  0.7816164E-02  0.1312668E+00
        -11   -1    0    0    0    0  0.00000000000E+00  0.00000000000E+00  0.45593999997E+02  0.45594000000E+02  0.51100000000E-03 0.  1.
         11   -1    0    0    0    0 -0.00000000000E+00 -0.00000000000E+00 -0.45593999997E+02  0.45594000000E+02  0.51100000000E-03 0. -1.
    9900012    2    1    2    0    0 -0.27145306466E+00 -0.38412262477E+02 -0.20200194643E+02  0.47787268912E+02  0.19999990277E+02 0.  0.
        -12    1    1    2    0    0  0.27145306466E+00  0.38412262477E+02  0.20200194643E+02  0.43400731088E+02  0.00000000000E+00 0.  1.
         11    1    3    3    0    0 -0.51404116246E+01 -0.32052815418E+02 -0.18415214702E+02  0.37321936454E+02  0.51100000000E-03 0. -1.
        -11    1    3    3    0    0  0.41902354654E+01 -0.47325010836E+01 -0.41158784858E+01  0.75428837809E+01  0.51100000000E-03 0.  1.
         12    1    3    3    0    0  0.67872309450E+00 -0.16269459755E+01  0.23308985447E+01  0.29224486774E+01  0.00000000000E+00 0. -1.
</event>
<event>
 7    1  0.2685294E-009  0.4778727E+02  0.7816164E-02  0.1312668E+00
        -11   -1    0    0    0    0  0.00000000000E+00  0.00000000000E+00  0.45593999997E+02  0.45594000000E+02  0.51100000000E-03 0. -1.
         11   -1    0    0    0    0 -0.00000000000E+00 -0.00000000000E+00 -0.45593999997E+02  0.45594000000E+02  0.51100000000E-03 0.  1.
    9900012    2    1    2    0    0  0.15785410904E+02 -0.40387384628E+02 -0.18174323498E+01  0.47787273107E+02  0.20000009403E+02 0.  0.
        -12    1    1    2    0    0 -0.15785410904E+02  0.40387384628E+02  0.18174323498E+01  0.43400726893E+02  0.00000000000E+00 0.  1.
         11    1    3    3    0    0  0.10674928083E+02 -0.11580789906E+02 -0.58740878192E+01  0.16809928388E+02  0.51100000000E-03 0.  1.
        -11    1    3    3    0    0  0.65114983950E+00  0.58205365993E+00 -0.32339922516E+00  0.93132695465E+00  0.51100000000E-03 0. -1.
         12    1    3    3    0    0  0.44593329809E+01 -0.29388648382E+02  0.43800546945E+01  0.30046017764E+02  0.00000000000E+00 0. -1.
</event>
<event>
 7    1  0.2685294E-009  0.4778726E+02  0.7816164E-02  0.1312668E+00
        -11   -1    0    0    0    0  0.00000000000E+00  0.00000000000E+00  0.45593999997E+02  0.45594000000E+02  0.51100000000E-03 0.  1.
         11   -1    0    0    0    0 -0.00000000000E+00 -0.00000000000E+00 -0.45593999997E+02  0.45594000000E+02  0.51100000000E-03 0. -1.
    9900012    2    1    2    0    0 -0.24133395040E+02  0.27886739393E+02 -0.22880841957E+02  0.47787263615E+02  0.19999966125E+02 0.  0.
        -12    1    1    2    0    0  0.24133395040E+02 -0.27886739393E+02  0.22880841957E+02  0.43400736385E+02  0.00000000000E+00 0.  1.
         11    1    3    3    0    0 -0.10780156602E+02  0.20798952715E+02 -0.80021046116E+01  0.24755643576E+02  0.51100000000E-03 0. -1.
        -11    1    3    3    0    0 -0.42471121444E+01  0.51999849710E+01 -0.11143413484E+02  0.13009745179E+02  0.51100000000E-03 0.  1.
        -12    1    3    3    0    0 -0.91061262937E+01  0.18878017072E+01 -0.37353238607E+01  0.10021874860E+02  0.00000000000E+00 0.  1.
</event>
<event>
 7    1  0.2685294E-009  0.4778727E+02  0.7816164E-02  0.1312668E+00
        -11   -1    0    0    0    0  0.00000000000E+00  0.00000000000E+00  0.45593999997E+02  0.45594000000E+02  0.51100000000E-03 0.  1.
         11   -1    0    0    0    0 -0.00000000000E+00 -0.00000000000E+00 -0.45593999997E+02  0.45594000000E+02  0.51100000000E-03 0. -1.
    9900012    2    1    2    0    0  0.22268816299E+02 -0.37219180149E+02 -0.15670307966E+01  0.47787272634E+02  0.20000007248E+02 0.  0.
        -12    1    1    2    0    0 -0.22268816299E+02  0.37219180149E+02  0.15670307966E+01  0.43400727366E+02  0.00000000000E+00 0.  1.
         11    1    3    3    0    0  0.18473922386E+02 -0.18060476156E+02 -0.76814871245E+00  0.25846792064E+02  0.51100000000E-03 0. -1.
        -11    1    3    3    0    0  0.42711967908E+01 -0.19799356464E+02 -0.21526237031E+01  0.20368883806E+02  0.51100000000E-03 0.  1.
         12    1    3    3    0    0 -0.47630287689E+00  0.64065247077E+00  0.13537416190E+01  0.15715967644E+01  0.00000000000E+00 0. -1.
</event>
<event>
 7    1  0.2685294E-009  0.4778727E+02  0.7816164E-02  0.1312668E+00
        -11   -1    0    0    0    0  0.00000000000E+00  0.00000000000E+00  0.45593999997E+02  0.45594000000E+02  0.51100000000E-03 0.  1.
         11   -1    0    0    0    0 -0.00000000000E+00 -0.00000000000E+00 -0.45593999997E+02  0.45594000000E+02  0.51100000000E-03 0. -1.
    9900012    2    1    2    0    0  0.13261348693E+02  0.48725522637E+01 -0.41036788723E+02  0.47787272317E+02  0.20000005803E+02 0.  0.
        -12    1    1    2    0    0 -0.13261348693E+02 -0.48725522637E+01  0.41036788723E+02  0.43400727683E+02  0.00000000000E+00 0.  1.
         11    1    3    3    0    0 -0.14065508900E+01  0.78849289228E+00 -0.38547891293E+01  0.41784573637E+01  0.51100000000E-03 0. -1.
        -11    1    3    3    0    0 -0.17248563501E+01 -0.28281358461E+01 -0.12999378202E+01  0.35585559417E+01  0.51100000000E-03 0.  1.
        -12    1    3    3    0    0  0.16392755933E+02  0.69121952176E+01 -0.35882061773E+02  0.40050259012E+02  0.00000000000E+00 0.  1.
</event>
<event>
 7    1  0.2685294E-009  0.4778727E+02  0.7816164E-02  0.1312668E+00
        -11   -1    0    0    0    0  0.00000000000E+00  0.00000000000E+00  0.45593999997E+02  0.45594000000E+02  0.51100000000E-03 0. -1.
         11   -1    0    0    0    0 -0.00000000000E+00 -0.00000000000E+00 -0.45593999997E+02  0.45594000000E+02  0.51100000000E-03 0.  1.
    9900012    2    1    2    0    0  0.30761997253E+02  0.17124610067E+02  0.25378543181E+02  0.47787271908E+02  0.20000003935E+02 0.  0.
        -12    1    1    2    0    0 -0.30761997253E+02 -0.17124610067E+02 -0.25378543181E+02  0.43400728092E+02  0.00000000000E+00 0.  1.
         11    1    3    3    0    0  0.21816305339E+02  0.17590135171E+02  0.11687862536E+02  0.30363961615E+02  0.51100000000E-03 0. -1.
        -11    1    3    3    0    0  0.14763913690E+01  0.99605904244E+00  0.72109602761E+01  0.74276384844E+01  0.51100000000E-03 0.  1.
         12    1    3    3    0    0  0.74693005449E+01 -0.14615841465E+01  0.64797203688E+01  0.99956718086E+01  0.00000000000E+00 0. -1.
</event>
<event>
 7    1  0.2685294E-009  0.4778727E+02  0.7816164E-02  0.1312668E+00
        -11   -1    0    0    0    0  0.00000000000E+00  0.00000000000E+00  0.45593999997E+02  0.45594000000E+02  0.51100000000E-03 0.  1.
         11   -1    0    0    0    0 -0.00000000000E+00 -0.00000000000E+00 -0.45593999997E+02  0.45594000000E+02  0.51100000000E-03 0. -1.
    9900012    2    1    2    0    0 -0.75682746061E+01 -0.34160324330E+02 -0.25679115058E+02  0.47787268566E+02  0.19999988700E+02 0.  0.
        -12    1    1    2    0    0  0.75682746061E+01  0.34160324330E+02  0.25679115058E+02  0.43400731434E+02  0.00000000000E+00 0.  1.
         11    1    3    3    0    0 -0.77223930031E+01 -0.24107871902E+02 -0.14492811006E+02  0.29169614541E+02  0.51100000000E-03 0. -1.
        -11    1    3    3    0    0  0.41244273601E+01 -0.46522183394E+01 -0.10052492661E+02  0.11819756575E+02  0.51100000000E-03 0.  1.
        -12    1    3    3    0    0 -0.39703089631E+01 -0.54002340885E+01 -0.11338113902E+01  0.67978974500E+01  0.00000000000E+00 0.  1.
</event>
<event>
 7    1  0.2685294E-009  0.4778727E+02  0.7816164E-02  0.1312668E+00
        -11   -1    0    0    0    0  0.00000000000E+00  0.00000000000E+00  0.45593999997E+02  0.45594000000E+02  0.51100000000E-03 0.  1.
         11   -1    0    0    0    0 -0.00000000000E+00 -0.00000000000E+00 -0.45593999997E+02  0.45594000000E+02  0.51100000000E-03 0. -1.
    9900012    2    1    2    0    0  0.18338735464E+01 -0.28442473933E+01 -0.43268587055E+02  0.47787268887E+02  0.19999990163E+02 0.  0.
        -12    1    1    2    0    0 -0.18338735464E+01  0.28442473933E+01  0.43268587055E+02  0.43400731113E+02  0.00000000000E+00 0.  1.
         11    1    3    3    0    0 -0.20366173506E+01 -0.15025337910E+01 -0.19835125299E+02  0.19995939936E+02  0.51100000000E-03 0. -1.
        -11    1    3    3    0    0 -0.44596736118E+01 -0.36924982289E+01 -0.60610882841E+01  0.83821252283E+01  0.51100000000E-03 0.  1.
        -12    1    3    3    0    0  0.83301645089E+01  0.23507846266E+01 -0.17372373471E+02  0.19409203722E+02  0.00000000000E+00 0.  1.
</event>
<event>
 7    1  0.2685294E-009  0.4778727E+02  0.7816164E-02  0.1312668E+00
        -11   -1    0    0    0    0  0.00000000000E+00  0.00000000000E+00  0.45593999997E+02  0.45594000000E+02  0.51100000000E-03 0. -1.
         11   -1    0    0    0    0 -0.00000000000E+00 -0.00000000000E+00 -0.45593999997E+02  0.45594000000E+02  0.51100000000E-03 0.  1.
    9900012    2    1    2    0    0  0.17786001360E+01 -0.41433936448E+02  0.12794099463E+02  0.47787268565E+02  0.19999988696E+02 0.  0.
        -12    1    1    2    0    0 -0.17786001360E+01  0.41433936448E+02 -0.12794099463E+02  0.43400731435E+02  0.00000000000E+00 0.  1.
         11    1    3    3    0    0 -0.52288703558E+01 -0.49077576186E+01 -0.59105387704E+00  0.71955899680E+01  0.51100000000E-03 0.  1.
        -11    1    3    3    0    0  0.35228275683E+01 -0.29320743729E+02  0.69921982735E+01  0.30348099839E+02  0.51100000000E-03 0. -1.
        -12    1    3    3    0    0  0.34846429235E+01 -0.72054351010E+01  0.63929550661E+01  0.10243578758E+02  0.00000000000E+00 0.  1.
</event>
<event>
 7    1  0.2685294E-009  0.4778727E+02  0.7816164E-02  0.1312668E+00
        -11   -1    0    0    0    0  0.00000000000E+00  0.00000000000E+00  0.45593999997E+02  0.45594000000E+02  0.51100000000E-03 0.  1.
         11   -1    0    0    0    0 -0.00000000000E+00 -0.00000000000E+00 -0.45593999997E+02  0.45594000000E+02  0.51100000000E-03 0. -1.
    9900012    2    1    2    0    0 -0.27724793438E+02 -0.17155442520E+02 -0.28646985291E+02  0.47787272523E+02  0.20000006743E+02 0.  0.
        -12    1    1    2    0    0  0.27724793438E+02  0.17155442520E+02  0.28646985291E+02  0.43400727477E+02  0.00000000000E+00 0.  1.
         11    1    3    3    0    0 -0.17636085327E+01  0.12890229505E+01 -0.27637265556E+01  0.35227943396E+01  0.51100000000E-03 0. -1.
        -11    1    3    3    0    0 -0.30612561879E+01 -0.67350350618E+01  0.50504427345E+00  0.74153257994E+01  0.51100000000E-03 0.  1.
        -12    1    3    3    0    0 -0.22899928718E+02 -0.11709430409E+02 -0.26388303009E+02  0.36849152384E+02  0.00000000000E+00 0.  1.
</event>
<event>
 7    1  0.2685294E-009  0.4778727E+02  0.7816164E-02  0.1312668E+00
        -11   -1    0    0    0    0  0.00000000000E+00  0.00000000000E+00  0.45593999997E+02  0.45594000000E+02  0.51100000000E-03 0.  1.
         11   -1    0    0    0    0 -0.00000000000E+00 -0.00000000000E+00 -0.45593999997E+02  0.45594000000E+02  0.51100000000E-03 0. -1.
    9900012    2    1    2    0    0  0.10576503654E+02  0.29031222118E+02 -0.30478669077E+02  0.47787267795E+02  0.19999985184E+02 0.  0.
        -12    1    1    2    0    0 -0.10576503654E+02 -0.29031222118E+02  0.30478669077E+02  0.43400732205E+02  0.00000000000E+00 0.  1.
         11    1    3    3    0    0  0.12194053728E+02  0.80518356611E+01 -0.12248544677E+02  0.19067088157E+02  0.51100000000E-03 0. -1.
        -11    1    3    3    0    0 -0.41747233851E+01  0.10455378505E+02 -0.78993817781E+01  0.13752944695E+02  0.51100000000E-03 0.  1.
         12    1    3    3    0    0  0.25571733106E+01  0.10524007952E+02 -0.10330742622E+02  0.14967234943E+02  0.00000000000E+00 0. -1.
</event>
<event>
 7    1  0.2685294E-009  0.4778727E+02  0.7816164E-02  0.1312668E+00
        -11   -1    0    0    0    0  0.00000000000E+00  0.00000000000E+00  0.45593999997E+02  0.45594000000E+02  0.51100000000E-03 0.  1.
         11   -1    0    0    0    0 -0.00000000000E+00 -0.00000000000E+00 -0.45593999997E+02  0.45594000000E+02  0.51100000000E-03 0. -1.
    9900012    2    1    2    0    0  0.35739660021E+01  0.54439167415E+01 -0.42909370009E+02  0.47787268473E+02  0.19999988278E+02 0.  0.
        -12    1    1    2    0    0 -0.35739660021E+01 -0.54439167415E+01  0.42909370009E+02  0.43400731527E+02  0.00000000000E+00 0.  1.
         11    1    3    3    0    0  0.45633587461E+01 -0.50397848938E+01 -0.28730524592E+02  0.29524002412E+02  0.51100000000E-03 0. -1.
        -11    1    3    3    0    0 -0.28601619047E+01  0.68443462254E+01 -0.90098886864E+01  0.11670633906E+02  0.51100000000E-03 0.  1.
        -12    1    3    3    0    0  0.18707691607E+01  0.36393554098E+01 -0.51689567308E+01  0.65926321554E+01  0.00000000000E+00 0.  1.
</event>
<event>
 7    1  0.2685294E-009  0.4778727E+02  0.7816164E-02  0.1312668E+00
        -11   -1    0    0    0    0  0.00000000000E+00  0.00000000000E+00  0.45593999997E+02  0.45594000000E+02  0.51100000000E-03 0. -1.
         11   -1    0    0    0    0 -0.00000000000E+00 -0.00000000000E+00 -0.45593999997E+02  0.45594000000E+02  0.51100000000E-03 0.  1.
    9900012    2    1    2    0    0  0.22501659742E+02  0.36214563356E+02  0.81119677099E+01  0.47787270624E+02  0.19999998084E+02 0.  0.
        -12    1    1    2    0    0 -0.22501659742E+02 -0.36214563356E+02 -0.81119677099E+01  0.43400729376E+02  0.00000000000E+00 0.  1.
         11    1    3    3    0    0  0.19350390197E+01  0.26008091203E+00  0.98150061486E+00  0.21852601233E+01  0.51100000000E-03 0. -1.
        -11    1    3    3    0    0 -0.88613909326E+00  0.75783640247E+01  0.65004697092E+01  0.10023619630E+02  0.51100000000E-03 0.  1.
        -12    1    3    3    0    0  0.21452759815E+02  0.28376118420E+02  0.62999738580E+00  0.35578390871E+02  0.00000000000E+00 0.  1.
</event>
<event>
 7    1  0.2685294E-009  0.4778727E+02  0.7816164E-02  0.1312668E+00
        -11   -1    0    0    0    0  0.00000000000E+00  0.00000000000E+00  0.45593999997E+02  0.45594000000E+02  0.51100000000E-03 0.  1.
         11   -1    0    0    0    0 -0.00000000000E+00 -0.00000000000E+00 -0.45593999997E+02  0.45594000000E+02  0.51100000000E-03 0. -1.
    9900012    2    1    2    0    0 -0.19984868567E+02  0.56282752307E+01 -0.38112346226E+02  0.47787269723E+02  0.19999993977E+02 0.  0.
        -12    1    1    2    0    0  0.19984868567E+02 -0.56282752307E+01  0.38112346226E+02  0.43400730277E+02  0.00000000000E+00 0.  1.
         11    1    3    3    0    0 -0.19249887813E+02  0.11478884521E+01 -0.37544879491E+02  0.42207745793E+02  0.51100000000E-03 0. -1.
        -11    1    3    3    0    0 -0.13170718508E+01  0.46545321758E+01 -0.14492533380E+00  0.48394577846E+01  0.51100000000E-03 0.  1.
         12    1    3    3    0    0  0.58209109665E+00 -0.17414539721E+00 -0.42254140101E+00  0.74006614552E+00  0.00000000000E+00 0. -1.
</event>
<event>
 7    1  0.2685294E-009  0.4778727E+02  0.7816164E-02  0.1312668E+00
        -11   -1    0    0    0    0  0.00000000000E+00  0.00000000000E+00  0.45593999997E+02  0.45594000000E+02  0.51100000000E-03 0. -1.
         11   -1    0    0    0    0 -0.00000000000E+00 -0.00000000000E+00 -0.45593999997E+02  0.45594000000E+02  0.51100000000E-03 0.  1.
    9900012    2    1    2    0    0 -0.59830116886E+01  0.10832127059E+02  0.41599179795E+02  0.47787272297E+02  0.20000005713E+02 0.  0.
        -12    1    1    2    0    0  0.59830116886E+01 -0.10832127059E+02 -0.41599179795E+02  0.43400727703E+02  0.00000000000E+00 0.  1.
         11    1    3    3    0    0 -0.27695302180E+01  0.90855117179E+01  0.12274466167E+02  0.15520288037E+02  0.51100000000E-03 0. -1.
        -11    1    3    3    0    0  0.25009325178E+01 -0.40890304001E+01  0.69026008187E+01  0.84036141864E+01  0.51100000000E-03 0.  1.
        -12    1    3    3    0    0 -0.57144139883E+01  0.58356457415E+01  0.22422112810E+02  0.23863370074E+02  0.00000000000E+00 0.  1.
</event>
<event>
 7    1  0.2685294E-009  0.4778726E+02  0.7816164E-02  0.1312668E+00
        -11   -1    0    0    0    0  0.00000000000E+00  0.00000000000E+00  0.45593999997E+02  0.45594000000E+02  0.51100000000E-03 0.  1.
         11   -1    0    0    0    0 -0.00000000000E+00 -0.00000000000E+00 -0.45593999997E+02  0.45594000000E+02  0.51100000000E-03 0. -1.
    9900012    2    1    2    0    0 -0.41016461136E+02  0.31181584618E+01  0.13840189073E+02  0.47787264639E+02  0.19999970795E+02 0.  0.
        -12    1    1    2    0    0  0.41016461136E+02 -0.31181584618E+01 -0.13840189073E+02  0.43400735361E+02  0.00000000000E+00 0.  1.
         11    1    3    3    0    0 -0.29727720955E+02  0.41056917744E+01  0.10642146942E+02  0.31841001711E+02  0.51100000000E-03 0. -1.
        -11    1    3    3    0    0 -0.24926175444E+01 -0.14719942697E+01  0.60332697932E+01  0.66918049890E+01  0.51100000000E-03 0.  1.
         12    1    3    3    0    0 -0.87961226363E+01  0.48446095707E+00 -0.28352276629E+01  0.92544579394E+01  0.00000000000E+00 0. -1.
</event>
<event>
 7    1  0.2685294E-009  0.4778726E+02  0.7816164E-02  0.1312668E+00
        -11   -1    0    0    0    0  0.00000000000E+00  0.00000000000E+00  0.45593999997E+02  0.45594000000E+02  0.51100000000E-03 0.  1.
         11   -1    0    0    0    0 -0.00000000000E+00 -0.00000000000E+00 -0.45593999997E+02  0.45594000000E+02  0.51100000000E-03 0. -1.
    9900012    2    1    2    0    0  0.29293643232E+02 -0.24320073597E+02 -0.20833633554E+02  0.47787264976E+02  0.19999972331E+02 0.  0.
        -12    1    1    2    0    0 -0.29293643232E+02  0.24320073597E+02  0.20833633554E+02  0.43400735024E+02  0.00000000000E+00 0.  1.
         11    1    3    3    0    0  0.22487793201E+02 -0.94184386081E+01 -0.15277478625E+02  0.28771673262E+02  0.51100000000E-03 0. -1.
        -11    1    3    3    0    0  0.19643998182E+01 -0.48798904654E+01  0.19288328784E+01  0.56029094348E+01  0.51100000000E-03 0.  1.
         12    1    3    3    0    0  0.48414502128E+01 -0.10021744523E+02 -0.74849878072E+01  0.13412682279E+02  0.00000000000E+00 0. -1.
</event>
<event>
 7    1  0.2685294E-009  0.4778727E+02  0.7816164E-02  0.1312668E+00
        -11   -1    0    0    0    0  0.00000000000E+00  0.00000000000E+00  0.45593999997E+02  0.45594000000E+02  0.51100000000E-03 0.  1.
         11   -1    0    0    0    0 -0.00000000000E+00 -0.00000000000E+00 -0.45593999997E+02  0.45594000000E+02  0.51100000000E-03 0. -1.
    9900012    2    1    2    0    0  0.40770580413E+02 -0.21602107430E+01 -0.14721291498E+02  0.47787272345E+02  0.20000005928E+02 0.  0.
        -12    1    1    2    0    0 -0.40770580413E+02  0.21602107430E+01  0.14721291498E+02  0.43400727655E+02  0.00000000000E+00 0.  1.
         11    1    3    3    0    0  0.72404701186E+00  0.25328430708E+01 -0.27252684997E+01  0.37903333301E+01  0.51100000000E-03 0.  1.
        -11    1    3    3    0    0  0.21830527654E+02 -0.77974451440E+01 -0.27793489311E+01  0.23347309677E+02  0.51100000000E-03 0. -1.
         12    1    3    3    0    0  0.18216005747E+02  0.31043913303E+01 -0.92166740667E+01  0.20649629337E+02  0.00000000000E+00 0. -1.
</event>
<event>
 7    1  0.2685294E-009  0.4778730E+02  0.7816164E-02  0.1312668E+00
        -11   -1    0    0    0    0  0.00000000000E+00  0.00000000000E+00  0.45593999997E+02  0.45594000000E+02  0.51100000000E-03 0.  1.
         11   -1    0    0    0    0 -0.00000000000E+00 -0.00000000000E+00 -0.45593999997E+02  0.45594000000E+02  0.51100000000E-03 0. -1.
    9900012    2    1    2    0    0 -0.43159809999E+02  0.49713406701E+00 -0.45392532902E+01  0.47787295376E+02  0.20000110939E+02 0.  0.
        -12    1    1    2    0    0  0.43159809999E+02 -0.49713406701E+00  0.45392532902E+01  0.43400704624E+02  0.00000000000E+00 0.  1.
         11    1    3    3    0    0 -0.30660117603E+02 -0.49011164680E+01  0.21172430491E+01  0.31121479278E+02  0.51100000000E-03 0. -1.
        -11    1    3    3    0    0 -0.95021287760E+01  0.42146474491E+01 -0.80571171309E+01  0.13151837937E+02  0.51100000000E-03 0.  1.
        -12    1    3    3    0    0 -0.29975636199E+01  0.11836030860E+01  0.14006207916E+01  0.35139781619E+01  0.00000000000E+00 0.  1.
</event>
<event>
 7    1  0.2685294E-009  0.4778727E+02  0.7816164E-02  0.1312668E+00
        -11   -1    0    0    0    0  0.00000000000E+00  0.00000000000E+00  0.45593999997E+02  0.45594000000E+02  0.51100000000E-03 0.  1.
         11   -1    0    0    0    0 -0.00000000000E+00 -0.00000000000E+00 -0.45593999997E+02  0.45594000000E+02  0.51100000000E-03 0. -1.
    9900012    2    1    2    0    0 -0.26105153740E+02 -0.34346764082E+02 -0.47375141680E+01  0.47787270799E+02  0.19999998882E+02 0.  0.
        -12    1    1    2    0    0  0.26105153740E+02  0.34346764082E+02  0.47375141680E+01  0.43400729201E+02  0.00000000000E+00 0.  1.
         11    1    3    3    0    0 -0.17823606774E+02 -0.22208039181E+02 -0.32106003826E+00  0.28477728886E+02  0.51100000000E-03 0. -1.
        -11    1    3    3    0    0 -0.36688583616E+01  0.14557275395E+01 -0.28503091234E+01  0.48686678575E+01  0.51100000000E-03 0.  1.
         12    1    3    3    0    0 -0.46126886044E+01 -0.13594452440E+02 -0.15661450063E+01  0.14440874056E+02  0.00000000000E+00 0. -1.
</event>
<event>
 7    1  0.2900284E-009  0.4778725E+02  0.7816164E-02  0.1312668E+00
        -11   -1    0    0    0    0  0.00000000000E+00  0.00000000000E+00  0.45593999997E+02  0.45594000000E+02  0.51100000000E-03 0.  1.
         11   -1    0    0    0    0 -0.00000000000E+00 -0.00000000000E+00 -0.45593999997E+02  0.45594000000E+02  0.51100000000E-03 0. -1.
    9900012    2    1    2    0    0 -0.42447088358E+02  0.62116329992E+01  0.65791845322E+01  0.47787246969E+02  0.19999890228E+02 0.  0.
        -12    1    1    2    0    0  0.42447088358E+02 -0.62116329992E+01 -0.65791845322E+01  0.43400753031E+02  0.00000000000E+00 0.  1.
         11    1    3    3    0    0 -0.26542388522E+02 -0.16285560491E+01  0.24761201322E+01  0.26707335218E+02  0.51100000000E-03 0. -1.
        -11    1    3    3    0    0 -0.11504643736E+02  0.10282504998E+02  0.17644003295E+01  0.15530609946E+02  0.51100000000E-03 0.  1.
        -12    1    3    3    0    0 -0.44000561000E+01 -0.24423159498E+01  0.23386640705E+01  0.55493018044E+01  0.00000000000E+00 0.  1.
</event>
<event>
 7    1  0.2685294E-009  0.4778728E+02  0.7816164E-02  0.1312668E+00
        -11   -1    0    0    0    0  0.00000000000E+00  0.00000000000E+00  0.45593999997E+02  0.45594000000E+02  0.51100000000E-03 0.  1.
         11   -1    0    0    0    0 -0.00000000000E+00 -0.00000000000E+00 -0.45593999997E+02  0.45594000000E+02  0.51100000000E-03 0. -1.
    9900012    2    1    2    0    0  0.11545748811E+02  0.21231963077E+02 -0.36048887519E+02  0.47787275777E+02  0.20000021580E+02 0.  0.
        -12    1    1    2    0    0 -0.11545748811E+02 -0.21231963077E+02  0.36048887519E+02  0.43400724223E+02  0.00000000000E+00 0.  1.
         11    1    3    3    0    0  0.14032436989E+00  0.43169235912E+01 -0.14583254076E+00  0.43216649120E+01  0.51100000000E-03 0. -1.
        -11    1    3    3    0    0  0.14551515824E+02  0.14340337718E+02 -0.30235688584E+02  0.36490940835E+02  0.51100000000E-03 0.  1.
        -12    1    3    3    0    0 -0.31460913831E+01  0.25747017686E+01 -0.56673663942E+01  0.69746700305E+01  0.00000000000E+00 0.  1.
</event>
<event>
 7    1  0.2685294E-009  0.4778727E+02  0.7816164E-02  0.1312668E+00
        -11   -1    0    0    0    0  0.00000000000E+00  0.00000000000E+00  0.45593999997E+02  0.45594000000E+02  0.51100000000E-03 0.  1.
         11   -1    0    0    0    0 -0.00000000000E+00 -0.00000000000E+00 -0.45593999997E+02  0.45594000000E+02  0.51100000000E-03 0. -1.
    9900012    2    1    2    0    0 -0.27080903586E+02 -0.88357792987E+00 -0.33903795666E+02  0.47787269482E+02  0.19999992876E+02 0.  0.
        -12    1    1    2    0    0  0.27080903586E+02  0.88357792987E+00  0.33903795666E+02  0.43400730518E+02  0.00000000000E+00 0.  1.
         11    1    3    3    0    0 -0.60785402614E+01 -0.57653915412E+01 -0.17009056173E+02  0.18960389856E+02  0.51100000000E-03 0. -1.
        -11    1    3    3    0    0 -0.73822255455E+01  0.38130718636E+01 -0.11387765323E+02  0.14096736160E+02  0.51100000000E-03 0.  1.
         12    1    3    3    0    0 -0.13620137779E+02  0.10687417478E+01 -0.55069741699E+01  0.14730143466E+02  0.00000000000E+00 0. -1.
</event>
<event>
 7    1  0.2685294E-009  0.4778727E+02  0.7816164E-02  0.1312668E+00
        -11   -1    0    0    0    0  0.00000000000E+00  0.00000000000E+00  0.45593999997E+02  0.45594000000E+02  0.51100000000E-03 0. -1.
         11   -1    0    0    0    0 -0.00000000000E+00 -0.00000000000E+00 -0.45593999997E+02  0.45594000000E+02  0.51100000000E-03 0.  1.
    9900012    2    1    2    0    0 -0.14850089880E+02 -0.32320888922E+02  0.24868826372E+02  0.47787267803E+02  0.19999985221E+02 0.  0.
        -12    1    1    2    0    0  0.14850089880E+02  0.32320888922E+02 -0.24868826372E+02  0.43400732197E+02  0.00000000000E+00 0.  1.
         11    1    3    3    0    0 -0.31002474616E+01  0.30852537709E+00  0.60261661245E+01  0.67839074767E+01  0.51100000000E-03 0. -1.
        -11    1    3    3    0    0 -0.33061157779E+01 -0.20978682623E+02  0.69804712960E+01  0.22355368615E+02  0.51100000000E-03 0.  1.
         12    1    3    3    0    0 -0.84437266404E+01 -0.11650731676E+02  0.11862188951E+02  0.18647991711E+02  0.00000000000E+00 0. -1.
</event>
<event>
 7    1  0.2685294E-009  0.4778727E+02  0.7816164E-02  0.1312668E+00
        -11   -1    0    0    0    0  0.00000000000E+00  0.00000000000E+00  0.45593999997E+02  0.45594000000E+02  0.51100000000E-03 0.  1.
         11   -1    0    0    0    0 -0.00000000000E+00 -0.00000000000E+00 -0.45593999997E+02  0.45594000000E+02  0.51100000000E-03 0. -1.
    9900012    2    1    2    0    0  0.42432214550E+02  0.91106856264E+01 -0.35457111500E+00  0.47787272530E+02  0.20000006774E+02 0.  0.
        -12    1    1    2    0    0 -0.42432214550E+02 -0.91106856264E+01  0.35457111500E+00  0.43400727470E+02  0.00000000000E+00 0.  1.
         11    1    3    3    0    0  0.93579196658E+01  0.97968199962E+01  0.35320599941E+01  0.14000849638E+02  0.51100000000E-03 0. -1.
        -11    1    3    3    0    0  0.24902910579E+01 -0.30855324858E+00 -0.18778811982E+01  0.31341973001E+01  0.51100000000E-03 0.  1.
         12    1    3    3    0    0  0.30584003827E+02 -0.37758112125E+00 -0.20087499109E+01  0.30652225593E+02  0.00000000000E+00 0. -1.
</event>
<event>
 7    1  0.2919753E-009  0.4778726E+02  0.7816164E-02  0.1312668E+00
        -11   -1    0    0    0    0  0.00000000000E+00  0.00000000000E+00  0.45593999997E+02  0.45594000000E+02  0.51100000000E-03 0. -1.
         11   -1    0    0    0    0 -0.00000000000E+00 -0.00000000000E+00 -0.45593999997E+02  0.45594000000E+02  0.51100000000E-03 0.  1.
    9900012    2    1    2    0    0 -0.87010585469E+01 -0.17993084037E+02  0.38524859032E+02  0.47787259725E+02  0.19999948388E+02 0.  0.
        -12    1    1    2    0    0  0.87010585469E+01  0.17993084037E+02 -0.38524859032E+02  0.43400740275E+02  0.00000000000E+00 0.  1.
         11    1    3    3    0    0  0.25781499232E+01 -0.11476115173E+02  0.18618991861E+02  0.22023054617E+02  0.51100000000E-03 0. -1.
        -11    1    3    3    0    0 -0.53922498013E+01  0.12078524565E+00  0.14265022840E+02  0.15250633557E+02  0.51100000000E-03 0.  1.
        -12    1    3    3    0    0 -0.58869586688E+01 -0.66377541091E+01  0.56408443316E+01  0.10513571551E+02  0.00000000000E+00 0.  1.
</event>
<event>
 7    1  0.2685294E-009  0.4778728E+02  0.7816164E-02  0.1312668E+00
        -11   -1    0    0    0    0  0.00000000000E+00  0.00000000000E+00  0.45593999997E+02  0.45594000000E+02  0.51100000000E-03 0. -1.
         11   -1    0    0    0    0 -0.00000000000E+00 -0.00000000000E+00 -0.45593999997E+02  0.45594000000E+02  0.51100000000E-03 0.  1.
    9900012    2    1    2    0    0  0.38530641353E+01  0.41987658529E+02  0.10286553577E+02  0.47787277005E+02  0.20000027176E+02 0.  0.
        -12    1    1    2    0    0 -0.38530641353E+01 -0.41987658529E+02 -0.10286553577E+02  0.43400722995E+02  0.00000000000E+00 0.  1.
         11    1    3    3    0    0  0.50023660590E-01  0.28828720209E+02 -0.63645887132E+00  0.28835788379E+02  0.51100000000E-03 0. -1.
        -11    1    3    3    0    0  0.31972562516E+01  0.10214117513E+02  0.11689198115E+02  0.15848911538E+02  0.51100000000E-03 0.  1.
         12    1    3    3    0    0  0.60578422315E+00  0.29448208073E+01 -0.76618566658E+00  0.31025770882E+01  0.00000000000E+00 0. -1.
</event>
<event>
 7    1  0.2685294E-009  0.4778727E+02  0.7816164E-02  0.1312668E+00
        -11   -1    0    0    0    0  0.00000000000E+00  0.00000000000E+00  0.45593999997E+02  0.45594000000E+02  0.51100000000E-03 0.  1.
         11   -1    0    0    0    0 -0.00000000000E+00 -0.00000000000E+00 -0.45593999997E+02  0.45594000000E+02  0.51100000000E-03 0. -1.
    9900012    2    1    2    0    0  0.24981661628E+02  0.27132254433E+02 -0.22877511911E+02  0.47787271901E+02  0.20000003903E+02 0.  0.
        -12    1    1    2    0    0 -0.24981661628E+02 -0.27132254433E+02  0.22877511911E+02  0.43400728099E+02  0.00000000000E+00 0.  1.
         11    1    3    3    0    0  0.91208522743E+01  0.23635716998E+02 -0.13499770813E+02  0.28706808887E+02  0.51100000000E-03 0.  1.
        -11    1    3    3    0    0  0.13223025693E+02  0.16423642767E+01 -0.68424826284E+01  0.14978829650E+02  0.51100000000E-03 0. -1.
         12    1    3    3    0    0  0.26377836600E+01  0.18541731591E+01 -0.25352584693E+01  0.41016333634E+01  0.00000000000E+00 0. -1.
</event>
<event>
 7    1  0.2685294E-009  0.4778724E+02  0.7816164E-02  0.1312668E+00
        -11   -1    0    0    0    0  0.00000000000E+00  0.00000000000E+00  0.45593999997E+02  0.45594000000E+02  0.51100000000E-03 0. -1.
         11   -1    0    0    0    0 -0.00000000000E+00 -0.00000000000E+00 -0.45593999997E+02  0.45594000000E+02  0.51100000000E-03 0.  1.
    9900012    2    1    2    0    0  0.35670136974E+02 -0.19268471722E+02  0.15491723167E+02  0.47787237784E+02  0.19999848350E+02 0.  0.
        -12    1    1    2    0    0 -0.35670136974E+02  0.19268471722E+02 -0.15491723167E+02  0.43400762216E+02  0.00000000000E+00 0.  1.
         11    1    3    3    0    0  0.85586154295E+01 -0.10503316146E+02  0.33895401910E+01  0.13966335636E+02  0.51100000000E-03 0. -1.
        -11    1    3    3    0    0  0.26084692469E+02 -0.80340771290E+01  0.14650904784E+02  0.30977517456E+02  0.51100000000E-03 0.  1.
        -12    1    3    3    0    0  0.10268290762E+01 -0.73107844716E+00 -0.25487218079E+01  0.28433846911E+01  0.00000000000E+00 0.  1.
</event>
<event>
 7    1  0.2685294E-009  0.4778727E+02  0.7816164E-02  0.1312668E+00
        -11   -1    0    0    0    0  0.00000000000E+00  0.00000000000E+00  0.45593999997E+02  0.45594000000E+02  0.51100000000E-03 0.  1.
         11   -1    0    0    0    0 -0.00000000000E+00 -0.00000000000E+00 -0.45593999997E+02  0.45594000000E+02  0.51100000000E-03 0. -1.
    9900012    2    1    2    0    0  0.32010907978E+02 -0.18907221931E+02 -0.22392897120E+02  0.47787272908E+02  0.20000008495E+02 0.  0.
        -12    1    1    2    0    0 -0.32010907978E+02  0.18907221931E+02  0.22392897120E+02  0.43400727092E+02  0.00000000000E+00 0.  1.
         11    1    3    3    0    0  0.13257602607E+02 -0.16903567382E+01 -0.16908496545E+02  0.21552693299E+02  0.51100000000E-03 0.  1.
        -11    1    3    3    0    0  0.13136485739E+02 -0.10819585163E+02 -0.48583914891E+01  0.17698436338E+02  0.51100000000E-03 0. -1.
        -12    1    3    3    0    0  0.56168196319E+01 -0.63972800300E+01 -0.62600908581E+00  0.85361432705E+01  0.00000000000E+00 0.  1.
</event>
<event>
 7    1  0.2685294E-009  0.4778727E+02  0.7816164E-02  0.1312668E+00
        -11   -1    0    0    0    0  0.00000000000E+00  0.00000000000E+00  0.45593999997E+02  0.45594000000E+02  0.51100000000E-03 0. -1.
         11   -1    0    0    0    0 -0.00000000000E+00 -0.00000000000E+00 -0.45593999997E+02  0.45594000000E+02  0.51100000000E-03 0.  1.
    9900012    2    1    2    0    0 -0.39976433954E+02  0.15207098015E+02  0.73656006253E+01  0.47787272192E+02  0.20000005233E+02 0.  0.
        -12    1    1    2    0    0  0.39976433954E+02 -0.15207098015E+02 -0.73656006253E+01  0.43400727808E+02  0.00000000000E+00 0.  1.
         11    1    3    3    0    0 -0.20889359161E+02  0.15845917429E+02  0.10155695736E+02  0.28117549350E+02  0.51100000000E-03 0. -1.
        -11    1    3    3    0    0 -0.16834189114E+02 -0.14486383021E+01 -0.15332079103E+01  0.16965824554E+02  0.51100000000E-03 0.  1.
         12    1    3    3    0    0 -0.22528856794E+01  0.80981888806E+00 -0.12568872009E+01  0.27038982879E+01  0.00000000000E+00 0. -1.
</event>
<event>
 7    1  0.2685294E-009  0.4778727E+02  0.7816164E-02  0.1312668E+00
        -11   -1    0    0    0    0  0.00000000000E+00  0.00000000000E+00  0.45593999997E+02  0.45594000000E+02  0.51100000000E-03 0.  1.
         11   -1    0    0    0    0 -0.00000000000E+00 -0.00000000000E+00 -0.45593999997E+02  0.45594000000E+02  0.51100000000E-03 0. -1.
    9900012    2    1    2    0    0 -0.43083543157E+00 -0.42367244066E+02  0.94050000663E+01  0.47787274025E+02  0.20000013589E+02 0.  0.
        -12    1    1    2    0    0  0.43083543157E+00  0.42367244066E+02 -0.94050000663E+01  0.43400725975E+02  0.00000000000E+00 0.  1.
         11    1    3    3    0    0  0.11899223431E+01 -0.33704400749E+02  0.35766924275E+01  0.33914528952E+02  0.51100000000E-03 0. -1.
        -11    1    3    3    0    0  0.88816207485E+00 -0.25257293064E+00  0.49692150064E+01  0.50542776930E+01  0.51100000000E-03 0.  1.
        -12    1    3    3    0    0 -0.25089198495E+01 -0.84102703865E+01  0.85909263242E+00  0.88184673802E+01  0.00000000000E+00 0.  1.
</event>
<event>
 7    1  0.2685294E-009  0.4778727E+02  0.7816164E-02  0.1312668E+00
        -11   -1    0    0    0    0  0.00000000000E+00  0.00000000000E+00  0.45593999997E+02  0.45594000000E+02  0.51100000000E-03 0.  1.
         11   -1    0    0    0    0 -0.00000000000E+00 -0.00000000000E+00 -0.45593999997E+02  0.45594000000E+02  0.51100000000E-03 0. -1.
    9900012    2    1    2    0    0  0.13655874418E+02 -0.37266388200E+02 -0.17560080081E+02  0.47787274107E+02  0.20000013963E+02 0.  0.
        -12    1    1    2    0    0 -0.13655874418E+02  0.37266388200E+02  0.17560080081E+02  0.43400725893E+02  0.00000000000E+00 0.  1.
         11    1    3    3    0    0 -0.25688815442E+01 -0.22844803594E+01 -0.47843749793E+01  0.58913705624E+01  0.51100000000E-03 0.  1.
        -11    1    3    3    0    0 -0.46217372867E+00 -0.85401688105E+01 -0.38550177573E+01  0.93813245354E+01  0.51100000000E-03 0. -1.
         12    1    3    3    0    0  0.16686929691E+02 -0.26441739030E+02 -0.89206873441E+01  0.32514579009E+02  0.00000000000E+00 0. -1.
</event>
<event>
 7    1  0.2685294E-009  0.4778727E+02  0.7816164E-02  0.1312668E+00
        -11   -1    0    0    0    0  0.00000000000E+00  0.00000000000E+00  0.45593999997E+02  0.45594000000E+02  0.51100000000E-03 0.  1.
         11   -1    0    0    0    0 -0.00000000000E+00 -0.00000000000E+00 -0.45593999997E+02  0.45594000000E+02  0.51100000000E-03 0. -1.
    9900012    2    1    2    0    0  0.31720796224E+02  0.11000285991E+02 -0.27502873974E+02  0.47787270954E+02  0.19999999586E+02 0.  0.
        -12    1    1    2    0    0 -0.31720796224E+02 -0.11000285991E+02  0.27502873974E+02  0.43400729046E+02  0.00000000000E+00 0.  1.
         11    1    3    3    0    0  0.88255272016E+01  0.94560239541E+01 -0.38269031031E+01  0.13488940174E+02  0.51100000000E-03 0. -1.
        -11    1    3    3    0    0  0.20829301609E+02 -0.22533328085E-01 -0.23891576272E+02  0.31696493975E+02  0.51100000000E-03 0.  1.
        -12    1    3    3    0    0  0.20659674128E+01  0.15667953646E+01  0.21560540199E+00  0.26018368040E+01  0.00000000000E+00 0.  1.
</event>
<event>
 7    1  0.2685294E-009  0.4778727E+02  0.7816164E-02  0.1312668E+00
        -11   -1    0    0    0    0  0.00000000000E+00  0.00000000000E+00  0.45593999997E+02  0.45594000000E+02  0.51100000000E-03 0. -1.
         11   -1    0    0    0    0 -0.00000000000E+00 -0.00000000000E+00 -0.45593999997E+02  0.45594000000E+02  0.51100000000E-03 0.  1.
    9900012    2    1    2    0    0 -0.11717876460E+02 -0.31192979346E+02  0.27808503350E+02  0.47787269042E+02  0.19999990868E+02 0.  0.
        -12    1    1    2    0    0  0.11717876460E+02  0.31192979346E+02 -0.27808503350E+02  0.43400730958E+02  0.00000000000E+00 0.  1.
         11    1    3    3    0    0  0.45651087507E+01 -0.88420887386E+01  0.10795526516E+02  0.14682170963E+02  0.51100000000E-03 0. -1.
        -11    1    3    3    0    0 -0.13336823778E+02 -0.19233442048E+02  0.16800254185E+02  0.28810496394E+02  0.51100000000E-03 0.  1.
         12    1    3    3    0    0 -0.29461614323E+01 -0.31174485593E+01  0.21272264795E+00  0.42946016847E+01  0.00000000000E+00 0. -1.
</event>
<event>
 7    1  0.2685294E-009  0.4778727E+02  0.7816164E-02  0.1312668E+00
        -11   -1    0    0    0    0  0.00000000000E+00  0.00000000000E+00  0.45593999997E+02  0.45594000000E+02  0.51100000000E-03 0.  1.
         11   -1    0    0    0    0 -0.00000000000E+00 -0.00000000000E+00 -0.45593999997E+02  0.45594000000E+02  0.51100000000E-03 0. -1.
    9900012    2    1    2    0    0  0.35175073745E+02 -0.62247842208E+01 -0.24649337857E+02  0.47787267191E+02  0.19999982428E+02 0.  0.
        -12    1    1    2    0    0 -0.35175073745E+02  0.62247842208E+01  0.24649337857E+02  0.43400732809E+02  0.00000000000E+00 0.  1.
         11    1    3    3    0    0  0.19513183005E+02 -0.46709948825E+01 -0.13481566664E+02  0.24173025134E+02  0.51100000000E-03 0. -1.
        -11    1    3    3    0    0  0.43504027097E+01  0.21954626982E+01 -0.10620439946E+02  0.11685024823E+02  0.51100000000E-03 0.  1.
        -12    1    3    3    0    0  0.11311488031E+02 -0.37492520364E+01 -0.54733124711E+00  0.11929217233E+02  0.00000000000E+00 0.  1.
</event>
<event>
 7    1  0.2685294E-009  0.4778727E+02  0.7816164E-02  0.1312668E+00
        -11   -1    0    0    0    0  0.00000000000E+00  0.00000000000E+00  0.45593999997E+02  0.45594000000E+02  0.51100000000E-03 0.  1.
         11   -1    0    0    0    0 -0.00000000000E+00 -0.00000000000E+00 -0.45593999997E+02  0.45594000000E+02  0.51100000000E-03 0. -1.
    9900012    2    1    2    0    0 -0.24417195763E+02  0.69476870669E+01 -0.35201610951E+02  0.47787271688E+02  0.20000002933E+02 0.  0.
        -12    1    1    2    0    0  0.24417195763E+02 -0.69476870669E+01  0.35201610951E+02  0.43400728312E+02  0.00000000000E+00 0.  1.
         11    1    3    3    0    0 -0.22997391321E+01  0.88985057181E+01 -0.75910663568E+01  0.11920423348E+02  0.51100000000E-03 0. -1.
        -11    1    3    3    0    0 -0.22459279666E+02 -0.19711670110E+01 -0.27282439187E+02  0.35392601357E+02  0.51100000000E-03 0.  1.
        -12    1    3    3    0    0  0.34182303548E+00  0.20348359798E-01 -0.32810540674E+00  0.47424698340E+00  0.00000000000E+00 0.  1.
</event>
<event>
 7    1  0.2685294E-009  0.4778727E+02  0.7816164E-02  0.1312668E+00
        -11   -1    0    0    0    0  0.00000000000E+00  0.00000000000E+00  0.45593999997E+02  0.45594000000E+02  0.51100000000E-03 0.  1.
         11   -1    0    0    0    0 -0.00000000000E+00 -0.00000000000E+00 -0.45593999997E+02  0.45594000000E+02  0.51100000000E-03 0. -1.
    9900012    2    1    2    0    0 -0.18447156564E+02 -0.27494794594E+02 -0.28059971788E+02  0.47787270377E+02  0.19999996957E+02 0.  0.
        -12    1    1    2    0    0  0.18447156564E+02  0.27494794594E+02  0.28059971788E+02  0.43400729623E+02  0.00000000000E+00 0.  1.
         11    1    3    3    0    0 -0.13716116356E+02 -0.16071085161E+02 -0.72617382803E+01  0.22341541336E+02  0.51100000000E-03 0.  1.
        -11    1    3    3    0    0  0.14529308469E+01 -0.54887495040E+01 -0.11337312639E+02  0.12679591369E+02  0.51100000000E-03 0. -1.
         12    1    3    3    0    0 -0.61839710546E+01 -0.59349599294E+01 -0.94609208690E+01  0.12766137672E+02  0.00000000000E+00 0. -1.
</event>
<event>
 7    1  0.2685294E-009  0.4778727E+02  0.7816164E-02  0.1312668E+00
        -11   -1    0    0    0    0  0.00000000000E+00  0.00000000000E+00  0.45593999997E+02  0.45594000000E+02  0.51100000000E-03 0.  1.
         11   -1    0    0    0    0 -0.00000000000E+00 -0.00000000000E+00 -0.45593999997E+02  0.45594000000E+02  0.51100000000E-03 0. -1.
    9900012    2    1    2    0    0  0.51657081002E+01 -0.27597073315E+01 -0.43003753232E+02  0.47787270550E+02  0.19999997745E+02 0.  0.
        -12    1    1    2    0    0 -0.51657081002E+01  0.27597073315E+01  0.43003753232E+02  0.43400729450E+02  0.00000000000E+00 0.  1.
         11    1    3    3    0    0  0.51217388225E+01 -0.18553665386E+01 -0.20816120940E+02  0.21517097500E+02  0.51100000000E-03 0. -1.
        -11    1    3    3    0    0 -0.79755105333E+00 -0.70882910791E+01 -0.77038227916E+01  0.10498992522E+02  0.51100000000E-03 0.  1.
        -12    1    3    3    0    0  0.84152033094E+00  0.61839502862E+01 -0.14483809500E+02  0.15771180528E+02  0.00000000000E+00 0.  1.
</event>
<event>
 7    1  0.2685294E-009  0.4778727E+02  0.7816164E-02  0.1312668E+00
        -11   -1    0    0    0    0  0.00000000000E+00  0.00000000000E+00  0.45593999997E+02  0.45594000000E+02  0.51100000000E-03 0.  1.
         11   -1    0    0    0    0 -0.00000000000E+00 -0.00000000000E+00 -0.45593999997E+02  0.45594000000E+02  0.51100000000E-03 0. -1.
    9900012    2    1    2    0    0  0.19675675782E+01 -0.25867156436E+02 -0.34794283650E+02  0.47787270986E+02  0.19999999732E+02 0.  0.
        -12    1    1    2    0    0 -0.19675675782E+01  0.25867156436E+02  0.34794283650E+02  0.43400729014E+02  0.00000000000E+00 0.  1.
         11    1    3    3    0    0  0.68313142939E+00 -0.20920422759E+01 -0.16712085552E+02  0.16856367141E+02  0.51100000000E-03 0.  1.
        -11    1    3    3    0    0  0.45947318473E+00 -0.12873975507E+02 -0.48454962592E+01  0.13763327913E+02  0.51100000000E-03 0. -1.
        -12    1    3    3    0    0  0.82496296412E+00 -0.10901138652E+02 -0.13236701839E+02  0.17167575932E+02  0.00000000000E+00 0.  1.
</event>
<event>
 7    1  0.2685294E-009  0.4778728E+02  0.7816164E-02  0.1312668E+00
        -11   -1    0    0    0    0  0.00000000000E+00  0.00000000000E+00  0.45593999997E+02  0.45594000000E+02  0.51100000000E-03 0.  1.
         11   -1    0    0    0    0 -0.00000000000E+00 -0.00000000000E+00 -0.45593999997E+02  0.45594000000E+02  0.51100000000E-03 0. -1.
    9900012    2    1    2    0    0 -0.32248718569E+01 -0.17978280601E+02 -0.39370087485E+02  0.47787283872E+02  0.20000058486E+02 0.  0.
        -12    1    1    2    0    0  0.32248718569E+01  0.17978280601E+02  0.39370087485E+02  0.43400716128E+02  0.00000000000E+00 0.  1.
         11    1    3    3    0    0 -0.60653358281E+01 -0.17116325683E+02 -0.18097973017E+02  0.25637736468E+02  0.51100000000E-03 0. -1.
        -11    1    3    3    0    0  0.12517259554E+01 -0.32782865408E+00 -0.20008954966E+02  0.20050749826E+02  0.51100000000E-03 0.  1.
         12    1    3    3    0    0  0.15887380158E+01 -0.53412626418E+00 -0.12631595015E+01  0.20987975784E+01  0.00000000000E+00 0. -1.
</event>
<event>
 7    1  0.2685294E-009  0.4778727E+02  0.7816164E-02  0.1312668E+00
        -11   -1    0    0    0    0  0.00000000000E+00  0.00000000000E+00  0.45593999997E+02  0.45594000000E+02  0.51100000000E-03 0. -1.
         11   -1    0    0    0    0 -0.00000000000E+00 -0.00000000000E+00 -0.45593999997E+02  0.45594000000E+02  0.51100000000E-03 0.  1.
    9900012    2    1    2    0    0  0.12640879265E+02  0.34975221809E+02  0.22373316663E+02  0.47787271115E+02  0.20000000323E+02 0.  0.
        -12    1    1    2    0    0 -0.12640879265E+02 -0.34975221809E+02 -0.22373316663E+02  0.43400728885E+02  0.00000000000E+00 0.  1.
         11    1    3    3    0    0  0.11407892339E+02  0.91783695054E+01  0.84051884593E+01  0.16882821675E+02  0.51100000000E-03 0. -1.
        -11    1    3    3    0    0  0.25541585095E+01  0.27271967951E+01 -0.29729333418E+00  0.37482944973E+01  0.51100000000E-03 0.  1.
         12    1    3    3    0    0 -0.13211715839E+01  0.23069655509E+02  0.14265421538E+02  0.27156154943E+02  0.00000000000E+00 0. -1.
</event>
<event>
 7    1  0.2685294E-009  0.4778727E+02  0.7816164E-02  0.1312668E+00
        -11   -1    0    0    0    0  0.00000000000E+00  0.00000000000E+00  0.45593999997E+02  0.45594000000E+02  0.51100000000E-03 0. -1.
         11   -1    0    0    0    0 -0.00000000000E+00 -0.00000000000E+00 -0.45593999997E+02  0.45594000000E+02  0.51100000000E-03 0.  1.
    9900012    2    1    2    0    0  0.15624497481E+02 -0.36003827879E+02  0.18526268542E+02  0.47787272246E+02  0.20000005477E+02 0.  0.
        -12    1    1    2    0    0 -0.15624497481E+02  0.36003827879E+02 -0.18526268542E+02  0.43400727754E+02  0.00000000000E+00 0.  1.
         11    1    3    3    0    0  0.32318591180E+01 -0.18883724947E+02  0.10311592088E+02  0.21757042834E+02  0.51100000000E-03 0. -1.
        -11    1    3    3    0    0  0.45418855969E+01  0.65869704111E+00  0.41224504881E+01  0.61690521845E+01  0.51100000000E-03 0.  1.
        -12    1    3    3    0    0  0.78507527665E+01 -0.17778799973E+02  0.40922259664E+01  0.19861177227E+02  0.00000000000E+00 0.  1.
</event>
<event>
 7    1  0.2685294E-009  0.4778727E+02  0.7816164E-02  0.1312668E+00
        -11   -1    0    0    0    0  0.00000000000E+00  0.00000000000E+00  0.45593999997E+02  0.45594000000E+02  0.51100000000E-03 0. -1.
         11   -1    0    0    0    0 -0.00000000000E+00 -0.00000000000E+00 -0.45593999997E+02  0.45594000000E+02  0.51100000000E-03 0.  1.
    9900012    2    1    2    0    0  0.17684117486E+02  0.18220875890E+02  0.35197943877E+02  0.47787267487E+02  0.19999983781E+02 0.  0.
        -12    1    1    2    0    0 -0.17684117486E+02 -0.18220875890E+02 -0.35197943877E+02  0.43400732513E+02  0.00000000000E+00 0.  1.
         11    1    3    3    0    0  0.11655566427E+02  0.17261170461E+02  0.31665282208E+02  0.37901059774E+02  0.51100000000E-03 0. -1.
        -11    1    3    3    0    0  0.73578917257E+01  0.52476369260E+00  0.16810684101E+01  0.75657080859E+01  0.51100000000E-03 0.  1.
         12    1    3    3    0    0 -0.13293406670E+01  0.43494173637E+00  0.18515932591E+01  0.23204996272E+01  0.00000000000E+00 0. -1.
</event>
<event>
 7    1  0.2685294E-009  0.4778726E+02  0.7816164E-02  0.1312668E+00
        -11   -1    0    0    0    0  0.00000000000E+00  0.00000000000E+00  0.45593999997E+02  0.45594000000E+02  0.51100000000E-03 0.  1.
         11   -1    0    0    0    0 -0.00000000000E+00 -0.00000000000E+00 -0.45593999997E+02  0.45594000000E+02  0.51100000000E-03 0. -1.
    9900012    2    1    2    0    0 -0.11860527153E+02  0.15120586523E+02 -0.38914262789E+02  0.47787261647E+02  0.19999957153E+02 0.  0.
        -12    1    1    2    0    0  0.11860527153E+02 -0.15120586523E+02  0.38914262789E+02  0.43400738353E+02  0.00000000000E+00 0.  1.
         11    1    3    3    0    0 -0.20303020242E+01  0.14687593333E+02 -0.27595310540E+02  0.31326485412E+02  0.51100000000E-03 0. -1.
        -11    1    3    3    0    0 -0.73271242503E+01  0.14917464909E+01 -0.36425634077E+01  0.83174711188E+01  0.51100000000E-03 0.  1.
        -12    1    3    3    0    0 -0.25031008789E+01 -0.10587533012E+01 -0.76763888418E+01  0.81433051161E+01  0.00000000000E+00 0.  1.
</event>
<event>
 7    1  0.2732014E-009  0.4778727E+02  0.7816164E-02  0.1312668E+00
        -11   -1    0    0    0    0  0.00000000000E+00  0.00000000000E+00  0.45593999997E+02  0.45594000000E+02  0.51100000000E-03 0. -1.
         11   -1    0    0    0    0 -0.00000000000E+00 -0.00000000000E+00 -0.45593999997E+02  0.45594000000E+02  0.51100000000E-03 0.  1.
    9900012    2    1    2    0    0 -0.12499582360E+02 -0.33691066542E+02  0.24337132760E+02  0.47787267807E+02  0.19999985238E+02 0.  0.
        -12    1    1    2    0    0  0.12499582360E+02  0.33691066542E+02 -0.24337132760E+02  0.43400732193E+02  0.00000000000E+00 0.  1.
         11    1    3    3    0    0 -0.68406190729E+01 -0.23235678918E+02  0.16502909520E+02  0.29309330716E+02  0.51100000000E-03 0. -1.
        -11    1    3    3    0    0 -0.54316274315E+01 -0.51991178030E-01  0.56649113618E+01  0.78483438148E+01  0.51100000000E-03 0.  1.
        -12    1    3    3    0    0 -0.22733585604E+00 -0.10403396446E+02  0.21693118780E+01  0.10629593276E+02  0.00000000000E+00 0.  1.
</event>
<event>
 7    1  0.2685294E-009  0.4778728E+02  0.7816164E-02  0.1312668E+00
        -11   -1    0    0    0    0  0.00000000000E+00  0.00000000000E+00  0.45593999997E+02  0.45594000000E+02  0.51100000000E-03 0. -1.
         11   -1    0    0    0    0 -0.00000000000E+00 -0.00000000000E+00 -0.45593999997E+02  0.45594000000E+02  0.51100000000E-03 0.  1.
    9900012    2    1    2    0    0  0.41955082617E+02 -0.68086786109E+01 -0.87769684109E+01  0.47787282998E+02  0.20000054500E+02 0.  0.
        -12    1    1    2    0    0 -0.41955082617E+02  0.68086786109E+01  0.87769684109E+01  0.43400717002E+02  0.00000000000E+00 0.  1.
         11    1    3    3    0    0  0.52354599089E+01 -0.37220828260E+01 -0.72922324836E+01  0.97180551489E+01  0.51100000000E-03 0. -1.
        -11    1    3    3    0    0  0.22778037980E+01  0.12996146332E+01  0.18202567573E+01  0.31922912243E+01  0.51100000000E-03 0.  1.
         12    1    3    3    0    0  0.34441818910E+02 -0.43862104182E+01 -0.33049926845E+01  0.34876936624E+02  0.00000000000E+00 0. -1.
</event>
<event>
 7    1  0.2685294E-009  0.4778727E+02  0.7816164E-02  0.1312668E+00
        -11   -1    0    0    0    0  0.00000000000E+00  0.00000000000E+00  0.45593999997E+02  0.45594000000E+02  0.51100000000E-03 0. -1.
         11   -1    0    0    0    0 -0.00000000000E+00 -0.00000000000E+00 -0.45593999997E+02  0.45594000000E+02  0.51100000000E-03 0.  1.
    9900012    2    1    2    0    0 -0.33759022354E+02 -0.27133950532E+02  0.27750141665E+01  0.47787267686E+02  0.19999984689E+02 0.  0.
        -12    1    1    2    0    0  0.33759022354E+02  0.27133950532E+02 -0.27750141665E+01  0.43400732314E+02  0.00000000000E+00 0.  1.
         11    1    3    3    0    0 -0.27638816120E+02 -0.17801599575E+02 -0.20482467688E+01  0.32939283827E+02  0.51100000000E-03 0.  1.
        -11    1    3    3    0    0 -0.63627319560E+01 -0.50531136622E+01 -0.34649322788E+00  0.81325502424E+01  0.51100000000E-03 0. -1.
         12    1    3    3    0    0  0.24252572272E+00 -0.42792372951E+01  0.51697541632E+01  0.67154336168E+01  0.00000000000E+00 0. -1.
</event>
<event>
 7    1  0.2685294E-009  0.4778727E+02  0.7816164E-02  0.1312668E+00
        -11   -1    0    0    0    0  0.00000000000E+00  0.00000000000E+00  0.45593999997E+02  0.45594000000E+02  0.51100000000E-03 0.  1.
         11   -1    0    0    0    0 -0.00000000000E+00 -0.00000000000E+00 -0.45593999997E+02  0.45594000000E+02  0.51100000000E-03 0. -1.
    9900012    2    1    2    0    0 -0.35663580263E+02 -0.24683785447E+02  0.15630355495E+01  0.47787270728E+02  0.19999998558E+02 0.  0.
        -12    1    1    2    0    0  0.35663580263E+02  0.24683785447E+02 -0.15630355495E+01  0.43400729272E+02  0.00000000000E+00 0.  1.
         11    1    3    3    0    0 -0.23381438549E+02 -0.20459182994E+02  0.93325772468E+01  0.32440204002E+02  0.51100000000E-03 0. -1.
        -11    1    3    3    0    0 -0.28255407750E+01 -0.20821383345E+00 -0.84242007910E+00  0.29557918605E+01  0.51100000000E-03 0.  1.
         12    1    3    3    0    0 -0.94566009393E+01 -0.40163886199E+01 -0.69271216182E+01  0.12391274865E+02  0.00000000000E+00 0. -1.
</event>
<event>
 7    1  0.2685294E-009  0.4778727E+02  0.7816164E-02  0.1312668E+00
        -11   -1    0    0    0    0  0.00000000000E+00  0.00000000000E+00  0.45593999997E+02  0.45594000000E+02  0.51100000000E-03 0.  1.
         11   -1    0    0    0    0 -0.00000000000E+00 -0.00000000000E+00 -0.45593999997E+02  0.45594000000E+02  0.51100000000E-03 0. -1.
    9900012    2    1    2    0    0  0.39653448607E+02  0.13413570726E+02 -0.11458768721E+02  0.47787271358E+02  0.20000001429E+02 0.  0.
        -12    1    1    2    0    0 -0.39653448607E+02 -0.13413570726E+02  0.11458768721E+02  0.43400728642E+02  0.00000000000E+00 0.  1.
         11    1    3    3    0    0  0.33808203183E+02  0.14940015799E+02 -0.91682622889E+01  0.38082222995E+02  0.51100000000E-03 0. -1.
        -11    1    3    3    0    0  0.69115740746E+01 -0.49326537578E+00  0.54675459895E-01  0.69293691334E+01  0.51100000000E-03 0.  1.
         12    1    3    3    0    0 -0.10663286507E+01 -0.10331796972E+01 -0.23451818921E+01  0.27756792295E+01  0.00000000000E+00 0. -1.
</event>
<event>
 7    1  0.2685294E-009  0.4778727E+02  0.7816164E-02  0.1312668E+00
        -11   -1    0    0    0    0  0.00000000000E+00  0.00000000000E+00  0.45593999997E+02  0.45594000000E+02  0.51100000000E-03 0. -1.
         11   -1    0    0    0    0 -0.00000000000E+00 -0.00000000000E+00 -0.45593999997E+02  0.45594000000E+02  0.51100000000E-03 0.  1.
    9900012    2    1    2    0    0 -0.34724418751E+02 -0.24002181825E+02  0.10086294932E+02  0.47787270335E+02  0.19999996768E+02 0.  0.
        -12    1    1    2    0    0  0.34724418751E+02  0.24002181825E+02 -0.10086294932E+02  0.43400729665E+02  0.00000000000E+00 0.  1.
         11    1    3    3    0    0 -0.44306534444E+01 -0.67137067764E+01  0.72641581054E+01  0.10838475071E+02  0.51100000000E-03 0. -1.
        -11    1    3    3    0    0 -0.16172766204E+02 -0.14498800598E+02 -0.18919441865E+01  0.21802592473E+02  0.51100000000E-03 0.  1.
        -12    1    3    3    0    0 -0.14120999103E+02 -0.27896744499E+01  0.47140810135E+01  0.15146202791E+02  0.00000000000E+00 0.  1.
</event>
<event>
 7    1  0.2685294E-009  0.4778727E+02  0.7816164E-02  0.1312668E+00
        -11   -1    0    0    0    0  0.00000000000E+00  0.00000000000E+00  0.45593999997E+02  0.45594000000E+02  0.51100000000E-03 0.  1.
         11   -1    0    0    0    0 -0.00000000000E+00 -0.00000000000E+00 -0.45593999997E+02  0.45594000000E+02  0.51100000000E-03 0. -1.
    9900012    2    1    2    0    0  0.21731109954E+02  0.36976885461E+02 -0.66401905036E+01  0.47787270419E+02  0.19999997149E+02 0.  0.
        -12    1    1    2    0    0 -0.21731109954E+02 -0.36976885461E+02  0.66401905036E+01  0.43400729581E+02  0.00000000000E+00 0.  1.
         11    1    3    3    0    0  0.22360533771E+02  0.36243845541E+02 -0.90274360839E+01  0.43532796977E+02  0.51100000000E-03 0. -1.
        -11    1    3    3    0    0 -0.14668114956E+01 -0.30318788175E+00  0.25032544149E+01  0.29171461709E+01  0.51100000000E-03 0.  1.
        -12    1    3    3    0    0  0.83738767873E+00  0.10362278019E+01 -0.11600883459E+00  0.13373272717E+01  0.00000000000E+00 0.  1.
</event>
<event>
 7    1  0.2685294E-009  0.4778725E+02  0.7816164E-02  0.1312668E+00
        -11   -1    0    0    0    0  0.00000000000E+00  0.00000000000E+00  0.45593999997E+02  0.45594000000E+02  0.51100000000E-03 0.  1.
         11   -1    0    0    0    0 -0.00000000000E+00 -0.00000000000E+00 -0.45593999997E+02  0.45594000000E+02  0.51100000000E-03 0. -1.
    9900012    2    1    2    0    0  0.15294587973E+02 -0.39109073466E+02 -0.10962693690E+02  0.47787254597E+02  0.19999925007E+02 0.  0.
        -12    1    1    2    0    0 -0.15294587973E+02  0.39109073466E+02  0.10962693690E+02  0.43400745403E+02  0.00000000000E+00 0.  1.
         11    1    3    3    0    0  0.60682630320E+01 -0.43116989436E+01 -0.70218011625E+01  0.10233291544E+02  0.51100000000E-03 0.  1.
        -11    1    3    3    0    0  0.10648321533E+02 -0.25803940607E+02 -0.81302989015E+00  0.27926530758E+02  0.51100000000E-03 0. -1.
        -12    1    3    3    0    0 -0.14219965919E+01 -0.89934339158E+01 -0.31278626371E+01  0.96274322943E+01  0.00000000000E+00 0.  1.
</event>
<event>
 7    1  0.2685294E-009  0.4778727E+02  0.7816164E-02  0.1312668E+00
        -11   -1    0    0    0    0  0.00000000000E+00  0.00000000000E+00  0.45593999997E+02  0.45594000000E+02  0.51100000000E-03 0.  1.
         11   -1    0    0    0    0 -0.00000000000E+00 -0.00000000000E+00 -0.45593999997E+02  0.45594000000E+02  0.51100000000E-03 0. -1.
    9900012    2    1    2    0    0 -0.19141501254E+02 -0.17004625894E+02 -0.35043817982E+02  0.47787267854E+02  0.19999985455E+02 0.  0.
        -12    1    1    2    0    0  0.19141501254E+02  0.17004625894E+02  0.35043817982E+02  0.43400732146E+02  0.00000000000E+00 0.  1.
         11    1    3    3    0    0 -0.26583649922E+01  0.27356407270E+01 -0.12174358032E+02  0.12757963331E+02  0.51100000000E-03 0. -1.
        -11    1    3    3    0    0 -0.88590098620E+01 -0.15216478006E+02 -0.14072287584E+02  0.22540020779E+02  0.51100000000E-03 0.  1.
         12    1    3    3    0    0 -0.76241263994E+01 -0.45237886155E+01 -0.87971723661E+01  0.12489283744E+02  0.00000000000E+00 0. -1.
</event>
<event>
 7    1  0.2732296E-009  0.4778726E+02  0.7816164E-02  0.1312668E+00
        -11   -1    0    0    0    0  0.00000000000E+00  0.00000000000E+00  0.45593999997E+02  0.45594000000E+02  0.51100000000E-03 0.  1.
         11   -1    0    0    0    0 -0.00000000000E+00 -0.00000000000E+00 -0.45593999997E+02  0.45594000000E+02  0.51100000000E-03 0. -1.
    9900012    2    1    2    0    0 -0.42884359577E+02  0.59839617022E+01 -0.29576685083E+01  0.47787263866E+02  0.19999967270E+02 0.  0.
        -12    1    1    2    0    0  0.42884359577E+02 -0.59839617022E+01  0.29576685083E+01  0.43400736134E+02  0.00000000000E+00 0.  1.
         11    1    3    3    0    0 -0.27854089227E+02  0.45753748648E+01 -0.34672764394E+01  0.28439520882E+02  0.51100000000E-03 0. -1.
        -11    1    3    3    0    0 -0.63096551913E+01 -0.42215352099E+01  0.37584253302E+01  0.84710607001E+01  0.51100000000E-03 0.  1.
        -12    1    3    3    0    0 -0.87206151581E+01  0.56301220473E+01 -0.32488173991E+01  0.10876682284E+02  0.00000000000E+00 0.  1.
</event>
<event>
 7    1  0.2685294E-009  0.4778726E+02  0.7816164E-02  0.1312668E+00
        -11   -1    0    0    0    0  0.00000000000E+00  0.00000000000E+00  0.45593999997E+02  0.45594000000E+02  0.51100000000E-03 0.  1.
         11   -1    0    0    0    0 -0.00000000000E+00 -0.00000000000E+00 -0.45593999997E+02  0.45594000000E+02  0.51100000000E-03 0. -1.
    9900012    2    1    2    0    0 -0.29953709569E+02  0.31289023818E+02  0.27196138089E+01  0.47787262360E+02  0.19999960405E+02 0.  0.
        -12    1    1    2    0    0  0.29953709569E+02 -0.31289023818E+02 -0.27196138089E+01  0.43400737640E+02  0.00000000000E+00 0.  1.
         11    1    3    3    0    0 -0.27810129642E+02  0.31389592884E+02  0.58934167869E+00  0.41941115579E+02  0.51100000000E-03 0. -1.
        -11    1    3    3    0    0 -0.31756895898E+01 -0.26722041665E+00  0.30812275121E+01  0.44328742780E+01  0.51100000000E-03 0.  1.
        -12    1    3    3    0    0  0.10321096632E+01  0.16665135012E+00 -0.95095538192E+00  0.14132725030E+01  0.00000000000E+00 0.  1.
</event>
<event>
 7    1  0.2685294E-009  0.4778727E+02  0.7816164E-02  0.1312668E+00
        -11   -1    0    0    0    0  0.00000000000E+00  0.00000000000E+00  0.45593999997E+02  0.45594000000E+02  0.51100000000E-03 0.  1.
         11   -1    0    0    0    0 -0.00000000000E+00 -0.00000000000E+00 -0.45593999997E+02  0.45594000000E+02  0.51100000000E-03 0. -1.
    9900012    2    1    2    0    0 -0.29510697336E+02  0.24187599400E+02 -0.20680951430E+02  0.47787274499E+02  0.20000015749E+02 0.  0.
        -12    1    1    2    0    0  0.29510697336E+02 -0.24187599400E+02  0.20680951430E+02  0.43400725501E+02  0.00000000000E+00 0.  1.
         11    1    3    3    0    0 -0.29006333202E+01  0.84083964339E+00 -0.57401530340E+00  0.30741143105E+01  0.51100000000E-03 0. -1.
        -11    1    3    3    0    0 -0.25420352104E+02  0.25433695755E+02 -0.21538930787E+02  0.41916496998E+02  0.51100000000E-03 0.  1.
        -12    1    3    3    0    0 -0.11897119115E+01 -0.20869359982E+01  0.14319946603E+01  0.27966631903E+01  0.00000000000E+00 0.  1.
</event>
<event>
 7    1  0.2685294E-009  0.4778727E+02  0.7816164E-02  0.1312668E+00
        -11   -1    0    0    0    0  0.00000000000E+00  0.00000000000E+00  0.45593999997E+02  0.45594000000E+02  0.51100000000E-03 0. -1.
         11   -1    0    0    0    0 -0.00000000000E+00 -0.00000000000E+00 -0.45593999997E+02  0.45594000000E+02  0.51100000000E-03 0.  1.
    9900012    2    1    2    0    0 -0.32866277549E+02 -0.22194556371E+02  0.17630449446E+02  0.47787270973E+02  0.19999999673E+02 0.  0.
        -12    1    1    2    0    0  0.32866277549E+02  0.22194556371E+02 -0.17630449446E+02  0.43400729027E+02  0.00000000000E+00 0.  1.
         11    1    3    3    0    0 -0.22001184549E+02 -0.20943381687E+02  0.12927062427E+02  0.33011911506E+02  0.51100000000E-03 0. -1.
        -11    1    3    3    0    0 -0.30792902041E+01  0.14721813257E+01  0.55165267943E+01  0.64870188955E+01  0.51100000000E-03 0.  1.
         12    1    3    3    0    0 -0.77858027955E+01 -0.27233560096E+01 -0.81313977476E+00  0.82883405709E+01  0.00000000000E+00 0. -1.
</event>
<event>
 7    1  0.2685294E-009  0.4778727E+02  0.7816164E-02  0.1312668E+00
        -11   -1    0    0    0    0  0.00000000000E+00  0.00000000000E+00  0.45593999997E+02  0.45594000000E+02  0.51100000000E-03 0. -1.
         11   -1    0    0    0    0 -0.00000000000E+00 -0.00000000000E+00 -0.45593999997E+02  0.45594000000E+02  0.51100000000E-03 0.  1.
    9900012    2    1    2    0    0  0.41278950698E+02 -0.10059093259E+02 -0.88592406664E+01  0.47787271054E+02  0.20000000042E+02 0.  0.
        -12    1    1    2    0    0 -0.41278950698E+02  0.10059093259E+02  0.88592406664E+01  0.43400728946E+02  0.00000000000E+00 0.  1.
         11    1    3    3    0    0  0.73456309616E+01 -0.35549201775E+01 -0.44515897470E+01  0.92958271944E+01  0.51100000000E-03 0. -1.
        -11    1    3    3    0    0  0.31043939796E+02 -0.23258963414E+01 -0.81520066991E+01  0.32180602936E+02  0.51100000000E-03 0.  1.
        -12    1    3    3    0    0  0.28893799402E+01 -0.41782767397E+01  0.37443557797E+01  0.63108409231E+01  0.00000000000E+00 0.  1.
</event>
<event>
 7    1  0.2685294E-009  0.4778728E+02  0.7816164E-02  0.1312668E+00
        -11   -1    0    0    0    0  0.00000000000E+00  0.00000000000E+00  0.45593999997E+02  0.45594000000E+02  0.51100000000E-03 0.  1.
         11   -1    0    0    0    0 -0.00000000000E+00 -0.00000000000E+00 -0.45593999997E+02  0.45594000000E+02  0.51100000000E-03 0. -1.
    9900012    2    1    2    0    0  0.94488979766E+01 -0.41986536713E+02  0.56099878169E+01  0.47787275335E+02  0.20000019563E+02 0.  0.
        -12    1    1    2    0    0 -0.94488979766E+01  0.41986536713E+02 -0.56099878169E+01  0.43400724665E+02  0.00000000000E+00 0.  1.
         11    1    3    3    0    0  0.42117760357E+01 -0.33754453777E+01 -0.42477828371E+01  0.68685040704E+01  0.51100000000E-03 0. -1.
        -11    1    3    3    0    0  0.48922774624E+01 -0.19694798341E+02  0.83343040410E+01  0.21938096649E+02  0.51100000000E-03 0.  1.
         12    1    3    3    0    0  0.34484447854E+00 -0.18916292994E+02  0.15234666129E+01  0.18980674616E+02  0.00000000000E+00 0. -1.
</event>
<event>
 7    1  0.2685294E-009  0.4778726E+02  0.7816164E-02  0.1312668E+00
        -11   -1    0    0    0    0  0.00000000000E+00  0.00000000000E+00  0.45593999997E+02  0.45594000000E+02  0.51100000000E-03 0. -1.
         11   -1    0    0    0    0 -0.00000000000E+00 -0.00000000000E+00 -0.45593999997E+02  0.45594000000E+02  0.51100000000E-03 0.  1.
    9900012    2    1    2    0    0  0.62934032635E+01  0.26913566618E+02  0.33461577169E+02  0.47787261074E+02  0.19999954539E+02 0.  0.
        -12    1    1    2    0    0 -0.62934032635E+01 -0.26913566618E+02 -0.33461577169E+02  0.43400738926E+02  0.00000000000E+00 0.  1.
         11    1    3    3    0    0  0.94906175841E+00 -0.21046175882E+01  0.88595827550E+01  0.91554541268E+01  0.51100000000E-03 0. -1.
        -11    1    3    3    0    0  0.54918080702E+01  0.21886011405E+02  0.17393383698E+02  0.28490125444E+02  0.51100000000E-03 0.  1.
         12    1    3    3    0    0 -0.14746656502E+00  0.71321728013E+01  0.72086107154E+01  0.10141681503E+02  0.00000000000E+00 0. -1.
</event>
<event>
 7    1  0.2685294E-009  0.4778727E+02  0.7816164E-02  0.1312668E+00
        -11   -1    0    0    0    0  0.00000000000E+00  0.00000000000E+00  0.45593999997E+02  0.45594000000E+02  0.51100000000E-03 0.  1.
         11   -1    0    0    0    0 -0.00000000000E+00 -0.00000000000E+00 -0.45593999997E+02  0.45594000000E+02  0.51100000000E-03 0. -1.
    9900012    2    1    2    0    0  0.36336647428E+01  0.41786950694E+02  0.11147673128E+02  0.47787269776E+02  0.19999994218E+02 0.  0.
        -12    1    1    2    0    0 -0.36336647428E+01 -0.41786950694E+02 -0.11147673128E+02  0.43400730224E+02  0.00000000000E+00 0.  1.
         11    1    3    3    0    0 -0.21422070692E+01  0.38381370822E-01  0.34234930869E+01  0.40386667892E+01  0.51100000000E-03 0.  1.
        -11    1    3    3    0    0  0.29604489464E+01  0.52984272615E+01 -0.10305156782E+01  0.61562612220E+01  0.51100000000E-03 0. -1.
         12    1    3    3    0    0  0.28154228656E+01  0.36450142062E+02  0.87546957190E+01  0.37592341765E+02  0.00000000000E+00 0. -1.
</event>
<event>
 7    1  0.2685294E-009  0.4778727E+02  0.7816164E-02  0.1312668E+00
        -11   -1    0    0    0    0  0.00000000000E+00  0.00000000000E+00  0.45593999997E+02  0.45594000000E+02  0.51100000000E-03 0. -1.
         11   -1    0    0    0    0 -0.00000000000E+00 -0.00000000000E+00 -0.45593999997E+02  0.45594000000E+02  0.51100000000E-03 0.  1.
    9900012    2    1    2    0    0 -0.41164715599E+02 -0.77455045456E+01 -0.11362061914E+02  0.47787273025E+02  0.20000009031E+02 0.  0.
        -12    1    1    2    0    0  0.41164715599E+02  0.77455045456E+01  0.11362061914E+02  0.43400726975E+02  0.00000000000E+00 0.  1.
         11    1    3    3    0    0 -0.18043734496E+02 -0.82618822322E+01 -0.49486318065E+01  0.20452970679E+02  0.51100000000E-03 0. -1.
        -11    1    3    3    0    0 -0.51273648799E+01  0.22168650287E+01  0.36256519724E+01  0.66595580674E+01  0.51100000000E-03 0.  1.
        -12    1    3    3    0    0 -0.17993616224E+02 -0.17004873421E+01 -0.10039082080E+02  0.20674744279E+02  0.00000000000E+00 0.  1.
</event>
<event>
 7    1  0.2685294E-009  0.4778727E+02  0.7816164E-02  0.1312668E+00
        -11   -1    0    0    0    0  0.00000000000E+00  0.00000000000E+00  0.45593999997E+02  0.45594000000E+02  0.51100000000E-03 0.  1.
         11   -1    0    0    0    0 -0.00000000000E+00 -0.00000000000E+00 -0.45593999997E+02  0.45594000000E+02  0.51100000000E-03 0. -1.
    9900012    2    1    2    0    0  0.16350518621E+02  0.35875882208E+02 -0.18144006439E+02  0.47787270133E+02  0.19999995843E+02 0.  0.
        -12    1    1    2    0    0 -0.16350518621E+02 -0.35875882208E+02  0.18144006439E+02  0.43400729867E+02  0.00000000000E+00 0.  1.
         11    1    3    3    0    0  0.14536153536E+02  0.28362110416E+02 -0.13156078566E+02  0.34478855410E+02  0.51100000000E-03 0. -1.
        -11    1    3    3    0    0 -0.16333593839E+01  0.24797773704E+01 -0.63915064117E+01  0.70475891733E+01  0.51100000000E-03 0.  1.
         12    1    3    3    0    0  0.34477244688E+01  0.50339944210E+01  0.14035785390E+01  0.62608255493E+01  0.00000000000E+00 0. -1.
</event>
<event>
 7    1  0.2685294E-009  0.4778727E+02  0.7816164E-02  0.1312668E+00
        -11   -1    0    0    0    0  0.00000000000E+00  0.00000000000E+00  0.45593999997E+02  0.45594000000E+02  0.51100000000E-03 0. -1.
         11   -1    0    0    0    0 -0.00000000000E+00 -0.00000000000E+00 -0.45593999997E+02  0.45594000000E+02  0.51100000000E-03 0.  1.
    9900012    2    1    2    0    0 -0.13784210236E+02  0.40180228384E+02 -0.88976452313E+01  0.47787270795E+02  0.19999998863E+02 0.  0.
        -12    1    1    2    0    0  0.13784210236E+02 -0.40180228384E+02  0.88976452313E+01  0.43400729205E+02  0.00000000000E+00 0.  1.
         11    1    3    3    0    0  0.23422956738E+01  0.10987553565E+02  0.22924314026E+01  0.11465946292E+02  0.51100000000E-03 0. -1.
        -11    1    3    3    0    0 -0.12205828125E+02  0.27295055715E+02 -0.80899778044E+01  0.30974990683E+02  0.51100000000E-03 0.  1.
        -12    1    3    3    0    0 -0.39206777848E+01  0.18976191042E+01 -0.31000988295E+01  0.53463338195E+01  0.00000000000E+00 0.  1.
</event>
<event>
 7    1  0.2685294E-009  0.4778727E+02  0.7816164E-02  0.1312668E+00
        -11   -1    0    0    0    0  0.00000000000E+00  0.00000000000E+00  0.45593999997E+02  0.45594000000E+02  0.51100000000E-03 0. -1.
         11   -1    0    0    0    0 -0.00000000000E+00 -0.00000000000E+00 -0.45593999997E+02  0.45594000000E+02  0.51100000000E-03 0.  1.
    9900012    2    1    2    0    0  0.10387429013E+01 -0.41961462296E+02  0.11035396388E+02  0.47787270994E+02  0.19999999769E+02 0.  0.
        -12    1    1    2    0    0 -0.10387429013E+01  0.41961462296E+02 -0.11035396388E+02  0.43400729006E+02  0.00000000000E+00 0.  1.
         11    1    3    3    0    0  0.91503225016E+00 -0.27771032776E+02  0.14318046643E+02  0.31258183015E+02  0.51100000000E-03 0. -1.
        -11    1    3    3    0    0  0.29105397965E+01 -0.92900952730E+01 -0.45576024171E+01  0.10749365197E+02  0.51100000000E-03 0.  1.
         12    1    3    3    0    0 -0.27868291454E+01 -0.49003342471E+01  0.12749521619E+01  0.57797227818E+01  0.00000000000E+00 0. -1.
</event>
<event>
 7    1  0.2685294E-009  0.4778727E+02  0.7816164E-02  0.1312668E+00
        -11   -1    0    0    0    0  0.00000000000E+00  0.00000000000E+00  0.45593999997E+02  0.45594000000E+02  0.51100000000E-03 0.  1.
         11   -1    0    0    0    0 -0.00000000000E+00 -0.00000000000E+00 -0.45593999997E+02  0.45594000000E+02  0.51100000000E-03 0. -1.
    9900012    2    1    2    0    0 -0.16596626129E+02 -0.40070280658E+02 -0.15962208824E+01  0.47787270606E+02  0.19999997999E+02 0.  0.
        -12    1    1    2    0    0  0.16596626129E+02  0.40070280658E+02  0.15962208824E+01  0.43400729394E+02  0.00000000000E+00 0.  1.
         11    1    3    3    0    0 -0.89302211551E+01 -0.31536395383E+02  0.13129058003E+01  0.32802695096E+02  0.51100000000E-03 0. -1.
        -11    1    3    3    0    0  0.17496977858E+01  0.14612418066E+00  0.30222119993E+00  0.17816095343E+01  0.51100000000E-03 0.  1.
         12    1    3    3    0    0 -0.94161027598E+01 -0.86800094554E+01 -0.32113478826E+01  0.13202965976E+02  0.00000000000E+00 0. -1.
</event>
<event>
 7    1  0.2685294E-009  0.4778728E+02  0.7816164E-02  0.1312668E+00
        -11   -1    0    0    0    0  0.00000000000E+00  0.00000000000E+00  0.45593999997E+02  0.45594000000E+02  0.51100000000E-03 0.  1.
         11   -1    0    0    0    0 -0.00000000000E+00 -0.00000000000E+00 -0.45593999997E+02  0.45594000000E+02  0.51100000000E-03 0. -1.
    9900012    2    1    2    0    0 -0.24251319742E+02 -0.15412223354E+02 -0.32526287213E+02  0.47787279985E+02  0.20000040765E+02 0.  0.
        -12    1    1    2    0    0  0.24251319742E+02  0.15412223354E+02  0.32526287213E+02  0.43400720015E+02  0.00000000000E+00 0.  1.
         11    1    3    3    0    0 -0.86000142135E+01  0.21441974797E+01 -0.11810309924E+02  0.14766219830E+02  0.51100000000E-03 0.  1.
        -11    1    3    3    0    0  0.12616811270E+01 -0.10717950409E+01 -0.32478811697E+01  0.36454514438E+01  0.51100000000E-03 0. -1.
         12    1    3    3    0    0 -0.16912986656E+02 -0.16484625793E+02 -0.17468096119E+02  0.29375608711E+02  0.00000000000E+00 0. -1.
</event>
<event>
 7    1  0.2685294E-009  0.4778727E+02  0.7816164E-02  0.1312668E+00
        -11   -1    0    0    0    0  0.00000000000E+00  0.00000000000E+00  0.45593999997E+02  0.45594000000E+02  0.51100000000E-03 0. -1.
         11   -1    0    0    0    0 -0.00000000000E+00 -0.00000000000E+00 -0.45593999997E+02  0.45594000000E+02  0.51100000000E-03 0.  1.
    9900012    2    1    2    0    0  0.24532068274E+02  0.34195800495E+02 -0.10604151951E+02  0.47787272082E+02  0.20000004729E+02 0.  0.
        -12    1    1    2    0    0 -0.24532068274E+02 -0.34195800495E+02  0.10604151951E+02  0.43400727918E+02  0.00000000000E+00 0.  1.
         11    1    3    3    0    0  0.47174262873E+01  0.25367960762E+01  0.48385837046E+01  0.72181256318E+01  0.51100000000E-03 0.  1.
        -11    1    3    3    0    0  0.18217244118E+02  0.29748925505E+02 -0.15251032698E+02  0.38071781552E+02  0.51100000000E-03 0. -1.
         12    1    3    3    0    0  0.15973978686E+01  0.19100789138E+01 -0.19170295675E+00  0.24973648975E+01  0.00000000000E+00 0. -1.
</event>
<event>
 7    1  0.2685294E-009  0.4778727E+02  0.7816164E-02  0.1312668E+00
        -11   -1    0    0    0    0  0.00000000000E+00  0.00000000000E+00  0.45593999997E+02  0.45594000000E+02  0.51100000000E-03 0. -1.
         11   -1    0    0    0    0 -0.00000000000E+00 -0.00000000000E+00 -0.45593999997E+02  0.45594000000E+02  0.51100000000E-03 0.  1.
    9900012    2    1    2    0    0  0.30380096234E+02 -0.21406234132E+01  0.30920720674E+02  0.47787268638E+02  0.19999989027E+02 0.  0.
        -12    1    1    2    0    0 -0.30380096234E+02  0.21406234132E+01 -0.30920720674E+02  0.43400731362E+02  0.00000000000E+00 0.  1.
         11    1    3    3    0    0  0.11786472343E+01 -0.77151767428E+00  0.10092149673E+02  0.10189991860E+02  0.51100000000E-03 0. -1.
        -11    1    3    3    0    0  0.24827170264E+02  0.14979298332E+01  0.20710231371E+02  0.32365813149E+02  0.51100000000E-03 0.  1.
        -12    1    3    3    0    0  0.43742787363E+01 -0.28670355722E+01  0.11833962986E+00  0.52314636291E+01  0.00000000000E+00 0.  1.
</event>
<event>
 7    1  0.2685294E-009  0.4778727E+02  0.7816164E-02  0.1312668E+00
        -11   -1    0    0    0    0  0.00000000000E+00  0.00000000000E+00  0.45593999997E+02  0.45594000000E+02  0.51100000000E-03 0. -1.
         11   -1    0    0    0    0 -0.00000000000E+00 -0.00000000000E+00 -0.45593999997E+02  0.45594000000E+02  0.51100000000E-03 0.  1.
    9900012    2    1    2    0    0 -0.40210197679E+02  0.15353345338E+02  0.55711557741E+01  0.47787274348E+02  0.20000015062E+02 0.  0.
        -12    1    1    2    0    0  0.40210197679E+02 -0.15353345338E+02 -0.55711557741E+01  0.43400725652E+02  0.00000000000E+00 0.  1.
         11    1    3    3    0    0 -0.25155518288E+02  0.54621855424E+01  0.28172955530E+01  0.25895419010E+02  0.51100000000E-03 0. -1.
        -11    1    3    3    0    0 -0.23033662707E+01  0.71070257839E+01  0.45035539093E+01  0.87233771984E+01  0.51100000000E-03 0.  1.
        -12    1    3    3    0    0 -0.12751313121E+02  0.27841340121E+01 -0.17496936882E+01  0.13168478139E+02  0.00000000000E+00 0.  1.
</event>
<event>
 7    1  0.2685294E-009  0.4778727E+02  0.7816164E-02  0.1312668E+00
        -11   -1    0    0    0    0  0.00000000000E+00  0.00000000000E+00  0.45593999997E+02  0.45594000000E+02  0.51100000000E-03 0.  1.
         11   -1    0    0    0    0 -0.00000000000E+00 -0.00000000000E+00 -0.45593999997E+02  0.45594000000E+02  0.51100000000E-03 0. -1.
    9900012    2    1    2    0    0 -0.53345896800E+01 -0.33528140133E+02 -0.27037554428E+02  0.47787269853E+02  0.19999994569E+02 0.  0.
        -12    1    1    2    0    0  0.53345896800E+01  0.33528140133E+02  0.27037554428E+02  0.43400730147E+02  0.00000000000E+00 0.  1.
         11    1    3    3    0    0 -0.80680949668E+01 -0.22138191386E+02 -0.11237192951E+02  0.26104945507E+02  0.51100000000E-03 0. -1.
        -11    1    3    3    0    0  0.16977213769E+01  0.91961389541E+00 -0.45692179942E+00  0.19841182883E+01  0.51100000000E-03 0.  1.
         12    1    3    3    0    0  0.10357839099E+01 -0.12309562642E+02 -0.15343439678E+02  0.19698206058E+02  0.00000000000E+00 0. -1.
</event>
<event>
 7    1  0.2685294E-009  0.4778727E+02  0.7816164E-02  0.1312668E+00
        -11   -1    0    0    0    0  0.00000000000E+00  0.00000000000E+00  0.45593999997E+02  0.45594000000E+02  0.51100000000E-03 0. -1.
         11   -1    0    0    0    0 -0.00000000000E+00 -0.00000000000E+00 -0.45593999997E+02  0.45594000000E+02  0.51100000000E-03 0.  1.
    9900012    2    1    2    0    0  0.18900274807E+02 -0.37169529414E+02 -0.12034505091E+02  0.47787267087E+02  0.19999981955E+02 0.  0.
        -12    1    1    2    0    0 -0.18900274807E+02  0.37169529414E+02  0.12034505091E+02  0.43400732913E+02  0.00000000000E+00 0.  1.
         11    1    3    3    0    0  0.76020064586E+01 -0.66691447385E+01 -0.38385277851E+01  0.10816759661E+02  0.51100000000E-03 0. -1.
        -11    1    3    3    0    0  0.32213304313E+01 -0.21354008056E+02 -0.11308942230E+02  0.24377506116E+02  0.51100000000E-03 0.  1.
        -12    1    3    3    0    0  0.80769379171E+01 -0.91463766193E+01  0.31129649242E+01  0.12593001310E+02  0.00000000000E+00 0.  1.
</event>
<event>
 7    1  0.2685294E-009  0.4778727E+02  0.7816164E-02  0.1312668E+00
        -11   -1    0    0    0    0  0.00000000000E+00  0.00000000000E+00  0.45593999997E+02  0.45594000000E+02  0.51100000000E-03 0.  1.
         11   -1    0    0    0    0 -0.00000000000E+00 -0.00000000000E+00 -0.45593999997E+02  0.45594000000E+02  0.51100000000E-03 0. -1.
    9900012    2    1    2    0    0 -0.11659927011E+02 -0.36632524305E+02 -0.20142677142E+02  0.47787272157E+02  0.20000005071E+02 0.  0.
        -12    1    1    2    0    0  0.11659927011E+02  0.36632524305E+02  0.20142677142E+02  0.43400727843E+02  0.00000000000E+00 0.  1.
         11    1    3    3    0    0  0.33978111726E-01 -0.19764394909E+02 -0.39340188513E+01  0.20152145424E+02  0.51100000000E-03 0. -1.
        -11    1    3    3    0    0 -0.63391880252E+01 -0.78040145252E+01 -0.13375438917E+02  0.16732911104E+02  0.51100000000E-03 0.  1.
         12    1    3    3    0    0 -0.53547170974E+01 -0.90641148715E+01 -0.28332193739E+01  0.10902215629E+02  0.00000000000E+00 0. -1.
</event>
<event>
 7    1  0.2685294E-009  0.4778727E+02  0.7816164E-02  0.1312668E+00
        -11   -1    0    0    0    0  0.00000000000E+00  0.00000000000E+00  0.45593999997E+02  0.45594000000E+02  0.51100000000E-03 0.  1.
         11   -1    0    0    0    0 -0.00000000000E+00 -0.00000000000E+00 -0.45593999997E+02  0.45594000000E+02  0.51100000000E-03 0. -1.
    9900012    2    1    2    0    0  0.16315076088E+02 -0.28718812766E+01 -0.40114756584E+02  0.47787272983E+02  0.20000008838E+02 0.  0.
        -12    1    1    2    0    0 -0.16315076088E+02  0.28718812766E+01  0.40114756584E+02  0.43400727017E+02  0.00000000000E+00 0.  1.
         11    1    3    3    0    0  0.23844243486E+01  0.64095155330E+01 -0.12686259188E+02  0.14412097046E+02  0.51100000000E-03 0. -1.
        -11    1    3    3    0    0  0.19321093750E+01 -0.62569446115E+01 -0.11101958783E+02  0.12889371264E+02  0.51100000000E-03 0.  1.
         12    1    3    3    0    0  0.11998542365E+02 -0.30244521981E+01 -0.16326538613E+02  0.20485804672E+02  0.00000000000E+00 0. -1.
</event>
<event>
 7    1  0.2685294E-009  0.4778727E+02  0.7816164E-02  0.1312668E+00
        -11   -1    0    0    0    0  0.00000000000E+00  0.00000000000E+00  0.45593999997E+02  0.45594000000E+02  0.51100000000E-03 0. -1.
         11   -1    0    0    0    0 -0.00000000000E+00 -0.00000000000E+00 -0.45593999997E+02  0.45594000000E+02  0.51100000000E-03 0.  1.
    9900012    2    1    2    0    0 -0.40537456367E+02 -0.90082080798E+01  0.12617056038E+02  0.47787270921E+02  0.19999999439E+02 0.  0.
        -12    1    1    2    0    0  0.40537456367E+02  0.90082080798E+01 -0.12617056038E+02  0.43400729079E+02  0.00000000000E+00 0.  1.
         11    1    3    3    0    0 -0.25947750412E+02 -0.10741839356E+02  0.15800828016E+02  0.32223268463E+02  0.51100000000E-03 0. -1.
        -11    1    3    3    0    0 -0.10080724399E+02  0.18947795364E+01 -0.40531292142E+00  0.10265255610E+02  0.51100000000E-03 0.  1.
         12    1    3    3    0    0 -0.45089815556E+01 -0.16114825988E+00 -0.27784590574E+01  0.52987468485E+01  0.00000000000E+00 0. -1.
</event>
<event>
 7    1  0.2685294E-009  0.4778728E+02  0.7816164E-02  0.1312668E+00
        -11   -1    0    0    0    0  0.00000000000E+00  0.00000000000E+00  0.45593999997E+02  0.45594000000E+02  0.51100000000E-03 0.  1.
         11   -1    0    0    0    0 -0.00000000000E+00 -0.00000000000E+00 -0.45593999997E+02  0.45594000000E+02  0.51100000000E-03 0. -1.
    9900012    2    1    2    0    0  0.38178607388E+02 -0.17369092025E+02 -0.11150383567E+02  0.47787280265E+02  0.20000042038E+02 0.  0.
        -12    1    1    2    0    0 -0.38178607388E+02  0.17369092025E+02  0.11150383567E+02  0.43400719735E+02  0.00000000000E+00 0.  1.
         11    1    3    3    0    0  0.26043056079E+02 -0.68084371363E+01 -0.86414222500E+01  0.28271359446E+02  0.51100000000E-03 0. -1.
        -11    1    3    3    0    0  0.83161844176E+01 -0.40753713244E+00  0.22413195930E+00  0.83291803426E+01  0.51100000000E-03 0.  1.
         12    1    3    3    0    0  0.38193668917E+01 -0.10153117756E+02 -0.27330932763E+01  0.11186740476E+02  0.00000000000E+00 0. -1.
</event>
<event>
 7    1  0.2685294E-009  0.4778727E+02  0.7816164E-02  0.1312668E+00
        -11   -1    0    0    0    0  0.00000000000E+00  0.00000000000E+00  0.45593999997E+02  0.45594000000E+02  0.51100000000E-03 0.  1.
         11   -1    0    0    0    0 -0.00000000000E+00 -0.00000000000E+00 -0.45593999997E+02  0.45594000000E+02  0.51100000000E-03 0. -1.
    9900012    2    1    2    0    0 -0.31503349261E+02 -0.58449411826E+01  0.29274541725E+02  0.47787272526E+02  0.20000006754E+02 0.  0.
        -12    1    1    2    0    0  0.31503349261E+02  0.58449411826E+01 -0.29274541725E+02  0.43400727474E+02  0.00000000000E+00 0.  1.
         11    1    3    3    0    0 -0.85984207339E+01 -0.91404332897E+01  0.10279562699E+02  0.16221891671E+02  0.51100000000E-03 0. -1.
        -11    1    3    3    0    0 -0.11217868705E+02  0.39929490448E+01  0.40430048904E+01  0.12574979489E+02  0.51100000000E-03 0.  1.
        -12    1    3    3    0    0 -0.11687059822E+02 -0.69745693779E+00  0.14951974135E+02  0.18990401365E+02  0.00000000000E+00 0.  1.
</event>
<event>
 7    1  0.2685294E-009  0.4778727E+02  0.7816164E-02  0.1312668E+00
        -11   -1    0    0    0    0  0.00000000000E+00  0.00000000000E+00  0.45593999997E+02  0.45594000000E+02  0.51100000000E-03 0. -1.
         11   -1    0    0    0    0 -0.00000000000E+00 -0.00000000000E+00 -0.45593999997E+02  0.45594000000E+02  0.51100000000E-03 0.  1.
    9900012    2    1    2    0    0  0.36218792949E+02 -0.23452345639E+02  0.46700981121E+01  0.47787270801E+02  0.19999998890E+02 0.  0.
        -12    1    1    2    0    0 -0.36218792949E+02  0.23452345639E+02 -0.46700981121E+01  0.43400729199E+02  0.00000000000E+00 0.  1.
         11    1    3    3    0    0  0.86071891101E+01 -0.84410284596E+01 -0.26301820490E+01  0.12339064944E+02  0.51100000000E-03 0. -1.
        -11    1    3    3    0    0  0.13505763801E+02 -0.13834932075E+02  0.87448366755E+01  0.21219876769E+02  0.51100000000E-03 0.  1.
        -12    1    3    3    0    0  0.14105840038E+02 -0.11763851040E+01 -0.14445565144E+01  0.14228329087E+02  0.00000000000E+00 0.  1.
</event>
<event>
 7    1  0.2685294E-009  0.4778727E+02  0.7816164E-02  0.1312668E+00
        -11   -1    0    0    0    0  0.00000000000E+00  0.00000000000E+00  0.45593999997E+02  0.45594000000E+02  0.51100000000E-03 0. -1.
         11   -1    0    0    0    0 -0.00000000000E+00 -0.00000000000E+00 -0.45593999997E+02  0.45594000000E+02  0.51100000000E-03 0.  1.
    9900012    2    1    2    0    0 -0.27160505321E+02 -0.15586911978E+02  0.30049596673E+02  0.47787272650E+02  0.20000007319E+02 0.  0.
        -12    1    1    2    0    0  0.27160505321E+02  0.15586911978E+02 -0.30049596673E+02  0.43400727350E+02  0.00000000000E+00 0.  1.
         11    1    3    3    0    0 -0.21574497387E+02 -0.86278256447E+01  0.27632668840E+02  0.36103499835E+02  0.51100000000E-03 0. -1.
        -11    1    3    3    0    0  0.87818840876E+00 -0.26312343353E+01 -0.12985489781E+01  0.30628154887E+01  0.51100000000E-03 0.  1.
        -12    1    3    3    0    0 -0.64641963431E+01 -0.43278519984E+01  0.37154768104E+01  0.86209573257E+01  0.00000000000E+00 0.  1.
</event>
<event>
 7    1  0.2685294E-009  0.4778726E+02  0.7816164E-02  0.1312668E+00
        -11   -1    0    0    0    0  0.00000000000E+00  0.00000000000E+00  0.45593999997E+02  0.45594000000E+02  0.51100000000E-03 0. -1.
         11   -1    0    0    0    0 -0.00000000000E+00 -0.00000000000E+00 -0.45593999997E+02  0.45594000000E+02  0.51100000000E-03 0.  1.
    9900012    2    1    2    0    0 -0.37099158437E+02 -0.16576128389E+02 -0.15248229624E+02  0.47787261575E+02  0.19999956827E+02 0.  0.
        -12    1    1    2    0    0  0.37099158437E+02  0.16576128389E+02  0.15248229624E+02  0.43400738425E+02  0.00000000000E+00 0.  1.
         11    1    3    3    0    0 -0.16174238851E+02  0.16499249353E+01 -0.41992509987E+01  0.16791723077E+02  0.51100000000E-03 0. -1.
        -11    1    3    3    0    0 -0.25614248176E+01 -0.51105308430E+01 -0.50938967792E+01  0.76567752515E+01  0.51100000000E-03 0.  1.
         12    1    3    3    0    0 -0.18363494769E+02 -0.13115522481E+02 -0.59550818462E+01  0.23338763247E+02  0.00000000000E+00 0. -1.
</event>
<event>
 7    1  0.2685294E-009  0.4778727E+02  0.7816164E-02  0.1312668E+00
        -11   -1    0    0    0    0  0.00000000000E+00  0.00000000000E+00  0.45593999997E+02  0.45594000000E+02  0.51100000000E-03 0.  1.
         11   -1    0    0    0    0 -0.00000000000E+00 -0.00000000000E+00 -0.45593999997E+02  0.45594000000E+02  0.51100000000E-03 0. -1.
    9900012    2    1    2    0    0 -0.11701998047E+02  0.27480368879E+02 -0.31488345591E+02  0.47787270281E+02  0.19999996521E+02 0.  0.
        -12    1    1    2    0    0  0.11701998047E+02 -0.27480368879E+02  0.31488345591E+02  0.43400729719E+02  0.00000000000E+00 0.  1.
         11    1    3    3    0    0 -0.12897247119E+02  0.17996708558E+02 -0.13448277595E+02  0.25905147611E+02  0.51100000000E-03 0. -1.
        -11    1    3    3    0    0  0.82651562190E+00  0.10522235604E+02 -0.13111691010E+02  0.16832023395E+02  0.51100000000E-03 0.  1.
         12    1    3    3    0    0  0.36873345057E+00 -0.10385752830E+01 -0.49283769859E+01  0.50500992754E+01  0.00000000000E+00 0. -1.
</event>
<event>
 7    1  0.2685294E-009  0.4778728E+02  0.7816164E-02  0.1312668E+00
        -11   -1    0    0    0    0  0.00000000000E+00  0.00000000000E+00  0.45593999997E+02  0.45594000000E+02  0.51100000000E-03 0.  1.
         11   -1    0    0    0    0 -0.00000000000E+00 -0.00000000000E+00 -0.45593999997E+02  0.45594000000E+02  0.51100000000E-03 0. -1.
    9900012    2    1    2    0    0 -0.13550896271E+02  0.11509526705E+02 -0.39592005517E+02  0.47787275403E+02  0.20000019870E+02 0.  0.
        -12    1    1    2    0    0  0.13550896271E+02 -0.11509526705E+02  0.39592005517E+02  0.43400724597E+02  0.00000000000E+00 0.  1.
         11    1    3    3    0    0 -0.77531239368E+01 -0.17227568041E+01 -0.14091680512E+02  0.16175731257E+02  0.51100000000E-03 0. -1.
        -11    1    3    3    0    0 -0.38042198661E-01 -0.22032146639E+01 -0.32097540698E+01  0.38933434878E+01  0.51100000000E-03 0.  1.
         12    1    3    3    0    0 -0.57597301357E+01  0.15435498173E+02 -0.22290570935E+02  0.27718200657E+02  0.00000000000E+00 0. -1.
</event>
<event>
 7    1  0.2685294E-009  0.4778725E+02  0.7816164E-02  0.1312668E+00
        -11   -1    0    0    0    0  0.00000000000E+00  0.00000000000E+00  0.45593999997E+02  0.45594000000E+02  0.51100000000E-03 0.  1.
         11   -1    0    0    0    0 -0.00000000000E+00 -0.00000000000E+00 -0.45593999997E+02  0.45594000000E+02  0.51100000000E-03 0. -1.
    9900012    2    1    2    0    0  0.93453340550E+01  0.33963129809E+02 -0.25353416239E+02  0.47787249200E+02  0.19999900402E+02 0.  0.
        -12    1    1    2    0    0 -0.93453340550E+01 -0.33963129809E+02  0.25353416239E+02  0.43400750800E+02  0.00000000000E+00 0.  1.
         11    1    3    3    0    0  0.27717548488E+01  0.13471184871E+01 -0.29321395329E+01  0.42537977928E+01  0.51100000000E-03 0.  1.
        -11    1    3    3    0    0  0.11646766079E+02  0.17060748051E+02 -0.97693878410E+01  0.22850759795E+02  0.51100000000E-03 0. -1.
        -12    1    3    3    0    0 -0.50731868729E+01  0.15555263271E+02 -0.12651888865E+02  0.20682691612E+02  0.00000000000E+00 0.  1.
</event>
<event>
 7    1  0.2685294E-009  0.4778728E+02  0.7816164E-02  0.1312668E+00
        -11   -1    0    0    0    0  0.00000000000E+00  0.00000000000E+00  0.45593999997E+02  0.45594000000E+02  0.51100000000E-03 0. -1.
         11   -1    0    0    0    0 -0.00000000000E+00 -0.00000000000E+00 -0.45593999997E+02  0.45594000000E+02  0.51100000000E-03 0.  1.
    9900012    2    1    2    0    0  0.31482118284E+01  0.11369806379E+02  0.41766480663E+02  0.47787278327E+02  0.20000033203E+02 0.  0.
        -12    1    1    2    0    0 -0.31482118284E+01 -0.11369806379E+02 -0.41766480663E+02  0.43400721673E+02  0.00000000000E+00 0.  1.
         11    1    3    3    0    0 -0.63517927739E+01  0.29038126844E+01  0.22580631750E+02  0.23636038798E+02  0.51100000000E-03 0. -1.
        -11    1    3    3    0    0  0.98414171206E+01  0.48137148995E+01  0.15167625676E+02  0.18710483986E+02  0.51100000000E-03 0.  1.
         12    1    3    3    0    0 -0.34141251838E+00  0.36522787948E+01  0.40182232368E+01  0.54407555435E+01  0.00000000000E+00 0. -1.
</event>
<event>
 7    1  0.2685294E-009  0.4778727E+02  0.7816164E-02  0.1312668E+00
        -11   -1    0    0    0    0  0.00000000000E+00  0.00000000000E+00  0.45593999997E+02  0.45594000000E+02  0.51100000000E-03 0.  1.
         11   -1    0    0    0    0 -0.00000000000E+00 -0.00000000000E+00 -0.45593999997E+02  0.45594000000E+02  0.51100000000E-03 0. -1.
    9900012    2    1    2    0    0 -0.36665911939E+02 -0.11276499080E+02 -0.20299628701E+02  0.47787268955E+02  0.19999990475E+02 0.  0.
        -12    1    1    2    0    0  0.36665911939E+02  0.11276499080E+02  0.20299628701E+02  0.43400731045E+02  0.00000000000E+00 0.  1.
         11    1    3    3    0    0 -0.13929956118E+02 -0.11636975143E+02 -0.15048407227E+02  0.23577901269E+02  0.51100000000E-03 0. -1.
        -11    1    3    3    0    0 -0.10155100558E+02  0.33651823621E+01 -0.24193147663E+01  0.10968299953E+02  0.51100000000E-03 0.  1.
        -12    1    3    3    0    0 -0.12580855263E+02 -0.30047062983E+01 -0.28319067081E+01  0.13241067733E+02  0.00000000000E+00 0.  1.
</event>
<event>
 7    1  0.2685294E-009  0.4778727E+02  0.7816164E-02  0.1312668E+00
        -11   -1    0    0    0    0  0.00000000000E+00  0.00000000000E+00  0.45593999997E+02  0.45594000000E+02  0.51100000000E-03 0. -1.
         11   -1    0    0    0    0 -0.00000000000E+00 -0.00000000000E+00 -0.45593999997E+02  0.45594000000E+02  0.51100000000E-03 0.  1.
    9900012    2    1    2    0    0 -0.27878246519E+02  0.25744186215E+02  0.21063320119E+02  0.47787271811E+02  0.20000003496E+02 0.  0.
        -12    1    1    2    0    0  0.27878246519E+02 -0.25744186215E+02 -0.21063320119E+02  0.43400728189E+02  0.00000000000E+00 0.  1.
         11    1    3    3    0    0 -0.80499543593E+01  0.33523112357E+01  0.67290960516E+01  0.11014558082E+02  0.51100000000E-03 0. -1.
        -11    1    3    3    0    0 -0.19027916148E+02  0.15291598002E+02  0.16311237192E+02  0.29359002391E+02  0.51100000000E-03 0.  1.
        -12    1    3    3    0    0 -0.80037601160E+00  0.71002769775E+01 -0.19770131242E+01  0.74137113384E+01  0.00000000000E+00 0.  1.
</event>
<event>
 7    1  0.2685294E-009  0.4778727E+02  0.7816164E-02  0.1312668E+00
        -11   -1    0    0    0    0  0.00000000000E+00  0.00000000000E+00  0.45593999997E+02  0.45594000000E+02  0.51100000000E-03 0.  1.
         11   -1    0    0    0    0 -0.00000000000E+00 -0.00000000000E+00 -0.45593999997E+02  0.45594000000E+02  0.51100000000E-03 0. -1.
    9900012    2    1    2    0    0  0.41144208348E+02  0.12585272798E+02  0.56910808458E+01  0.47787269900E+02  0.19999994783E+02 0.  0.
        -12    1    1    2    0    0 -0.41144208348E+02 -0.12585272798E+02 -0.56910808458E+01  0.43400730100E+02  0.00000000000E+00 0.  1.
         11    1    3    3    0    0  0.16157834915E+02  0.11301364838E+02 -0.25924177760E+00  0.19719626845E+02  0.51100000000E-03 0.  1.
        -11    1    3    3    0    0  0.11480943060E+01  0.30155601819E+01 -0.60709641727E+00  0.32833352048E+01  0.51100000000E-03 0. -1.
         12    1    3    3    0    0  0.23838279127E+02 -0.17316522215E+01  0.65574190407E+01  0.24784307850E+02  0.00000000000E+00 0. -1.
</event>
<event>
 7    1  0.2685294E-009  0.4778727E+02  0.7816164E-02  0.1312668E+00
        -11   -1    0    0    0    0  0.00000000000E+00  0.00000000000E+00  0.45593999997E+02  0.45594000000E+02  0.51100000000E-03 0.  1.
         11   -1    0    0    0    0 -0.00000000000E+00 -0.00000000000E+00 -0.45593999997E+02  0.45594000000E+02  0.51100000000E-03 0. -1.
    9900012    2    1    2    0    0 -0.21511962843E+02  0.27065429648E+02 -0.26235881257E+02  0.47787268523E+02  0.19999988504E+02 0.  0.
        -12    1    1    2    0    0  0.21511962843E+02 -0.27065429648E+02  0.26235881257E+02  0.43400731477E+02  0.00000000000E+00 0.  1.
         11    1    3    3    0    0 -0.80094591751E+00 -0.14389712475E+01 -0.20335862989E+01  0.26167969180E+01  0.51100000000E-03 0. -1.
        -11    1    3    3    0    0 -0.22581750370E+02  0.26444848099E+02 -0.19955750271E+02  0.40093608093E+02  0.51100000000E-03 0.  1.
        -12    1    3    3    0    0  0.18707334446E+01  0.20595527963E+01 -0.42465446873E+01  0.50768635123E+01  0.00000000000E+00 0.  1.
</event>
<event>
 7    1  0.2685294E-009  0.4778727E+02  0.7816164E-02  0.1312668E+00
        -11   -1    0    0    0    0  0.00000000000E+00  0.00000000000E+00  0.45593999997E+02  0.45594000000E+02  0.51100000000E-03 0.  1.
         11   -1    0    0    0    0 -0.00000000000E+00 -0.00000000000E+00 -0.45593999997E+02  0.45594000000E+02  0.51100000000E-03 0. -1.
    9900012    2    1    2    0    0  0.29181385522E+02  0.98925869026E+01 -0.30564795063E+02  0.47787271506E+02  0.20000002103E+02 0.  0.
        -12    1    1    2    0    0 -0.29181385522E+02 -0.98925869026E+01  0.30564795063E+02  0.43400728494E+02  0.00000000000E+00 0.  1.
         11    1    3    3    0    0  0.28537336292E+01  0.69632592038E+01 -0.12607543159E+02  0.14682674114E+02  0.51100000000E-03 0.  1.
        -11    1    3    3    0    0  0.19907505641E+02  0.38667729037E+01 -0.17163934221E+02  0.26568051335E+02  0.51100000000E-03 0. -1.
         12    1    3    3    0    0  0.64201462518E+01 -0.93744520498E+00 -0.79331768311E+00  0.65365460568E+01  0.00000000000E+00 0. -1.
</event>
<event>
 7    1  0.2685294E-009  0.4778727E+02  0.7816164E-02  0.1312668E+00
        -11   -1    0    0    0    0  0.00000000000E+00  0.00000000000E+00  0.45593999997E+02  0.45594000000E+02  0.51100000000E-03 0.  1.
         11   -1    0    0    0    0 -0.00000000000E+00 -0.00000000000E+00 -0.45593999997E+02  0.45594000000E+02  0.51100000000E-03 0. -1.
    9900012    2    1    2    0    0 -0.77193039823E+01 -0.15071552023E+02 -0.39961029846E+02  0.47787271426E+02  0.20000001741E+02 0.  0.
        -12    1    1    2    0    0  0.77193039823E+01  0.15071552023E+02  0.39961029846E+02  0.43400728574E+02  0.00000000000E+00 0.  1.
         11    1    3    3    0    0 -0.49207360039E+01 -0.11177124480E+02 -0.19256404629E+02  0.22802431317E+02  0.51100000000E-03 0. -1.
        -11    1    3    3    0    0 -0.17375792405E+01  0.16552148114E+00  0.15522592916E+01  0.23358270799E+01  0.51100000000E-03 0.  1.
        -12    1    3    3    0    0 -0.10609887378E+01 -0.40599490243E+01 -0.22256884509E+02  0.22649013030E+02  0.00000000000E+00 0.  1.
</event>
<event>
 7    1  0.2685294E-009  0.4778727E+02  0.7816164E-02  0.1312668E+00
        -11   -1    0    0    0    0  0.00000000000E+00  0.00000000000E+00  0.45593999997E+02  0.45594000000E+02  0.51100000000E-03 0. -1.
         11   -1    0    0    0    0 -0.00000000000E+00 -0.00000000000E+00 -0.45593999997E+02  0.45594000000E+02  0.51100000000E-03 0.  1.
    9900012    2    1    2    0    0 -0.35388009293E+02 -0.51420306404E+01  0.24594136844E+02  0.47787271343E+02  0.20000001362E+02 0.  0.
        -12    1    1    2    0    0  0.35388009293E+02  0.51420306404E+01 -0.24594136844E+02  0.43400728657E+02  0.00000000000E+00 0.  1.
         11    1    3    3    0    0 -0.40202509456E+01  0.51854493428E+01  0.10541606413E+01  0.66454915146E+01  0.51100000000E-03 0.  1.
        -11    1    3    3    0    0 -0.11151027591E+02 -0.61015121090E+01  0.12010829528E+02  0.17488107175E+02  0.51100000000E-03 0. -1.
         12    1    3    3    0    0 -0.20216730756E+02 -0.42259678742E+01  0.11529146674E+02  0.23653672653E+02  0.00000000000E+00 0. -1.
</event>
<event>
 7    1  0.2685294E-009  0.4778727E+02  0.7816164E-02  0.1312668E+00
        -11   -1    0    0    0    0  0.00000000000E+00  0.00000000000E+00  0.45593999997E+02  0.45594000000E+02  0.51100000000E-03 0.  1.
         11   -1    0    0    0    0 -0.00000000000E+00 -0.00000000000E+00 -0.45593999997E+02  0.45594000000E+02  0.51100000000E-03 0. -1.
    9900012    2    1    2    0    0  0.24588476090E+02 -0.48450432607E+01 -0.35433817336E+02  0.47787274065E+02  0.20000013774E+02 0.  0.
        -12    1    1    2    0    0 -0.24588476090E+02  0.48450432607E+01  0.35433817336E+02  0.43400725935E+02  0.00000000000E+00 0.  1.
         11    1    3    3    0    0  0.77235768103E+01 -0.84135389031E+01 -0.22184134121E+02  0.24951494596E+02  0.51100000000E-03 0. -1.
        -11    1    3    3    0    0  0.12609748507E+02  0.40597066224E+01 -0.12976121693E+02  0.18543643377E+02  0.51100000000E-03 0.  1.
        -12    1    3    3    0    0  0.42551507727E+01 -0.49121097997E+00 -0.27356152266E+00  0.42921360920E+01  0.00000000000E+00 0.  1.
</event>
<event>
 7    1  0.2685294E-009  0.4778727E+02  0.7816164E-02  0.1312668E+00
        -11   -1    0    0    0    0  0.00000000000E+00  0.00000000000E+00  0.45593999997E+02  0.45594000000E+02  0.51100000000E-03 0.  1.
         11   -1    0    0    0    0 -0.00000000000E+00 -0.00000000000E+00 -0.45593999997E+02  0.45594000000E+02  0.51100000000E-03 0. -1.
    9900012    2    1    2    0    0 -0.17112896981E+02  0.21054917998E+02 -0.33874214616E+02  0.47787271541E+02  0.20000002263E+02 0.  0.
        -12    1    1    2    0    0  0.17112896981E+02 -0.21054917998E+02  0.33874214616E+02  0.43400728459E+02  0.00000000000E+00 0.  1.
         11    1    3    3    0    0 -0.75987030985E+01  0.77784926818E+01 -0.22574641710E+02  0.25057128442E+02  0.51100000000E-03 0. -1.
        -11    1    3    3    0    0  0.18554966664E+01  0.54863391121E+01 -0.46506568532E+01  0.74277448906E+01  0.51100000000E-03 0.  1.
        -12    1    3    3    0    0 -0.11369690549E+02  0.77900862037E+01 -0.66489160529E+01  0.15302398208E+02  0.00000000000E+00 0.  1.
</event>
<event>
 7    1  0.2685294E-009  0.4778727E+02  0.7816164E-02  0.1312668E+00
        -11   -1    0    0    0    0  0.00000000000E+00  0.00000000000E+00  0.45593999997E+02  0.45594000000E+02  0.51100000000E-03 0. -1.
         11   -1    0    0    0    0 -0.00000000000E+00 -0.00000000000E+00 -0.45593999997E+02  0.45594000000E+02  0.51100000000E-03 0.  1.
    9900012    2    1    2    0    0 -0.33838319854E+01 -0.32215612554E+02  0.28884721915E+02  0.47787272226E+02  0.20000005389E+02 0.  0.
        -12    1    1    2    0    0  0.33838319854E+01  0.32215612554E+02 -0.28884721915E+02  0.43400727774E+02  0.00000000000E+00 0.  1.
         11    1    3    3    0    0  0.26876675524E+01 -0.28199506450E+02  0.21429419231E+02  0.35519793492E+02  0.51100000000E-03 0. -1.
        -11    1    3    3    0    0 -0.67500145126E+01 -0.46674564720E+01  0.77441178770E+01  0.11283581337E+02  0.51100000000E-03 0.  1.
         12    1    3    3    0    0  0.67851497481E+00  0.65135036755E+00 -0.28881519264E+00  0.98389739701E+00  0.00000000000E+00 0. -1.
</event>
<event>
 7    1  0.2685294E-009  0.4778727E+02  0.7816164E-02  0.1312668E+00
        -11   -1    0    0    0    0  0.00000000000E+00  0.00000000000E+00  0.45593999997E+02  0.45594000000E+02  0.51100000000E-03 0. -1.
         11   -1    0    0    0    0 -0.00000000000E+00 -0.00000000000E+00 -0.45593999997E+02  0.45594000000E+02  0.51100000000E-03 0.  1.
    9900012    2    1    2    0    0 -0.24164433834E+02  0.28805643259E+02  0.21678071582E+02  0.47787265748E+02  0.19999975851E+02 0.  0.
        -12    1    1    2    0    0  0.24164433834E+02 -0.28805643259E+02 -0.21678071582E+02  0.43400734252E+02  0.00000000000E+00 0.  1.
         11    1    3    3    0    0 -0.11421019054E+02  0.49339030091E+01  0.76385971180E+01  0.14599015081E+02  0.51100000000E-03 0. -1.
        -11    1    3    3    0    0 -0.98326818909E+01  0.23502871185E+02  0.83906972923E+01  0.26822945186E+02  0.51100000000E-03 0.  1.
        -12    1    3    3    0    0 -0.29107328893E+01  0.36886906529E+00  0.56487771716E+01  0.63653054816E+01  0.00000000000E+00 0.  1.
</event>
<event>
 7    1  0.2685294E-009  0.4778727E+02  0.7816164E-02  0.1312668E+00
        -11   -1    0    0    0    0  0.00000000000E+00  0.00000000000E+00  0.45593999997E+02  0.45594000000E+02  0.51100000000E-03 0.  1.
         11   -1    0    0    0    0 -0.00000000000E+00 -0.00000000000E+00 -0.45593999997E+02  0.45594000000E+02  0.51100000000E-03 0. -1.
    9900012    2    1    2    0    0 -0.10799315340E+02 -0.17485781899E+02 -0.38226240169E+02  0.47787271689E+02  0.20000002940E+02 0.  0.
        -12    1    1    2    0    0  0.10799315340E+02  0.17485781899E+02  0.38226240169E+02  0.43400728311E+02  0.00000000000E+00 0.  1.
         11    1    3    3    0    0 -0.74373699124E+00 -0.17716933670E+01  0.46233116046E+00  0.19763077852E+01  0.51100000000E-03 0. -1.
        -11    1    3    3    0    0 -0.98952310813E+01 -0.15350505120E+02 -0.19870541024E+02  0.26988738511E+02  0.51100000000E-03 0.  1.
        -12    1    3    3    0    0 -0.16034726723E+00 -0.36358341224E+00 -0.18818030306E+02  0.18822225393E+02  0.00000000000E+00 0.  1.
</event>
<event>
 7    1  0.2685294E-009  0.4778727E+02  0.7816164E-02  0.1312668E+00
        -11   -1    0    0    0    0  0.00000000000E+00  0.00000000000E+00  0.45593999997E+02  0.45594000000E+02  0.51100000000E-03 0.  1.
         11   -1    0    0    0    0 -0.00000000000E+00 -0.00000000000E+00 -0.45593999997E+02  0.45594000000E+02  0.51100000000E-03 0. -1.
    9900012    2    1    2    0    0 -0.18233722496E+02 -0.33237822456E+02 -0.21128218562E+02  0.47787273079E+02  0.20000009277E+02 0.  0.
        -12    1    1    2    0    0  0.18233722496E+02  0.33237822456E+02  0.21128218562E+02  0.43400726921E+02  0.00000000000E+00 0.  1.
         11    1    3    3    0    0 -0.45928622898E+00  0.13371530338E+01 -0.39568616901E+01  0.42018658679E+01  0.51100000000E-03 0. -1.
        -11    1    3    3    0    0 -0.15859309246E+02 -0.21538303954E+02 -0.97929995115E+01  0.28483663154E+02  0.51100000000E-03 0.  1.
         12    1    3    3    0    0 -0.19151270208E+01 -0.13036671536E+02 -0.73783573606E+01  0.15101744057E+02  0.00000000000E+00 0. -1.
</event>
<event>
 7    1  0.2685294E-009  0.4778727E+02  0.7816164E-02  0.1312668E+00
        -11   -1    0    0    0    0  0.00000000000E+00  0.00000000000E+00  0.45593999997E+02  0.45594000000E+02  0.51100000000E-03 0.  1.
         11   -1    0    0    0    0 -0.00000000000E+00 -0.00000000000E+00 -0.45593999997E+02  0.45594000000E+02  0.51100000000E-03 0. -1.
    9900012    2    1    2    0    0 -0.26013769536E+02  0.17535455973E+02 -0.29990252747E+02  0.47787266349E+02  0.19999978590E+02 0.  0.
        -12    1    1    2    0    0  0.26013769536E+02 -0.17535455973E+02  0.29990252747E+02  0.43400733651E+02  0.00000000000E+00 0.  1.
         11    1    3    3    0    0 -0.34852924033E+01  0.75064988867E+01 -0.41947765412E+00  0.82867816694E+01  0.51100000000E-03 0. -1.
        -11    1    3    3    0    0 -0.17486282115E+01  0.40115690468E+01 -0.68439764430E+01  0.81234475841E+01  0.51100000000E-03 0.  1.
         12    1    3    3    0    0 -0.20779848922E+02  0.60173880394E+01 -0.22726798650E+02  0.31377037095E+02  0.00000000000E+00 0. -1.
</event>
<event>
 7    1  0.2685294E-009  0.4778727E+02  0.7816164E-02  0.1312668E+00
        -11   -1    0    0    0    0  0.00000000000E+00  0.00000000000E+00  0.45593999997E+02  0.45594000000E+02  0.51100000000E-03 0.  1.
         11   -1    0    0    0    0 -0.00000000000E+00 -0.00000000000E+00 -0.45593999997E+02  0.45594000000E+02  0.51100000000E-03 0. -1.
    9900012    2    1    2    0    0  0.29118286202E+02 -0.17595269077E+02 -0.26947271859E+02  0.47787267911E+02  0.19999985714E+02 0.  0.
        -12    1    1    2    0    0 -0.29118286202E+02  0.17595269077E+02  0.26947271859E+02  0.43400732089E+02  0.00000000000E+00 0.  1.
         11    1    3    3    0    0  0.20512522305E+02 -0.11800425761E+02 -0.22757993528E+02  0.32831994901E+02  0.51100000000E-03 0. -1.
        -11    1    3    3    0    0  0.47354559302E+01  0.16743136715E+01  0.92942516368E+00  0.51080035761E+01  0.51100000000E-03 0.  1.
         12    1    3    3    0    0  0.38703079663E+01 -0.74691569869E+01 -0.51187034942E+01  0.98472694342E+01  0.00000000000E+00 0. -1.
</event>
<event>
 7    1  0.2685294E-009  0.4778727E+02  0.7816164E-02  0.1312668E+00
        -11   -1    0    0    0    0  0.00000000000E+00  0.00000000000E+00  0.45593999997E+02  0.45594000000E+02  0.51100000000E-03 0.  1.
         11   -1    0    0    0    0 -0.00000000000E+00 -0.00000000000E+00 -0.45593999997E+02  0.45594000000E+02  0.51100000000E-03 0. -1.
    9900012    2    1    2    0    0  0.13597445818E+01  0.43183183395E+02 -0.41215200805E+01  0.47787272343E+02  0.20000005919E+02 0.  0.
        -12    1    1    2    0    0 -0.13597445818E+01 -0.43183183395E+02  0.41215200805E+01  0.43400727657E+02  0.00000000000E+00 0.  1.
         11    1    3    3    0    0 -0.42422412833E+00  0.10331676100E+02 -0.63911428223E+00  0.10360114115E+02  0.51100000000E-03 0. -1.
        -11    1    3    3    0    0 -0.87998646943E-01  0.28701810331E+02 -0.91799642032E+01  0.30134256305E+02  0.51100000000E-03 0.  1.
        -12    1    3    3    0    0  0.18719673570E+01  0.41496969640E+01  0.56975584049E+01  0.72929019228E+01  0.00000000000E+00 0.  1.
</event>
<event>
 7    1  0.2685294E-009  0.4778727E+02  0.7816164E-02  0.1312668E+00
        -11   -1    0    0    0    0  0.00000000000E+00  0.00000000000E+00  0.45593999997E+02  0.45594000000E+02  0.51100000000E-03 0.  1.
         11   -1    0    0    0    0 -0.00000000000E+00 -0.00000000000E+00 -0.45593999997E+02  0.45594000000E+02  0.51100000000E-03 0. -1.
    9900012    2    1    2    0    0  0.17858603690E+02 -0.11438524075E+02 -0.37866264090E+02  0.47787268267E+02  0.19999987339E+02 0.  0.
        -12    1    1    2    0    0 -0.17858603690E+02  0.11438524075E+02  0.37866264090E+02  0.43400731733E+02  0.00000000000E+00 0.  1.
         11    1    3    3    0    0  0.86772705418E+01 -0.26068102918E+01 -0.28283668751E+02  0.29699434376E+02  0.51100000000E-03 0. -1.
        -11    1    3    3    0    0 -0.59255958547E-01  0.14869689493E+01 -0.99934343773E+00  0.17925611544E+01  0.51100000000E-03 0.  1.
         12    1    3    3    0    0  0.92405891071E+01 -0.10318682733E+02 -0.85832519011E+01  0.16295272737E+02  0.00000000000E+00 0. -1.
</event>
<event>
 7    1  0.2685294E-009  0.4778730E+02  0.7816164E-02  0.1312668E+00
        -11   -1    0    0    0    0  0.00000000000E+00  0.00000000000E+00  0.45593999997E+02  0.45594000000E+02  0.51100000000E-03 0.  1.
         11   -1    0    0    0    0 -0.00000000000E+00 -0.00000000000E+00 -0.45593999997E+02  0.45594000000E+02  0.51100000000E-03 0. -1.
    9900012    2    1    2    0    0  0.39312866985E+02  0.22569332922E+01  0.18248994112E+02  0.47787296728E+02  0.20000117099E+02 0.  0.
        -12    1    1    2    0    0 -0.39312866985E+02 -0.22569332922E+01 -0.18248994112E+02  0.43400703272E+02  0.00000000000E+00 0.  1.
         11    1    3    3    0    0  0.22138351492E+02  0.29650990974E+01  0.32954351722E+01  0.22577827900E+02  0.51100000000E-03 0. -1.
        -11    1    3    3    0    0  0.14771565090E+02 -0.46562454304E+01  0.10006676463E+02  0.18439450394E+02  0.51100000000E-03 0.  1.
         12    1    3    3    0    0  0.24029504029E+01  0.39480796252E+01  0.49468824760E+01  0.67700184341E+01  0.00000000000E+00 0. -1.
</event>
<event>
 7    1  0.2685294E-009  0.4778727E+02  0.7816164E-02  0.1312668E+00
        -11   -1    0    0    0    0  0.00000000000E+00  0.00000000000E+00  0.45593999997E+02  0.45594000000E+02  0.51100000000E-03 0.  1.
         11   -1    0    0    0    0 -0.00000000000E+00 -0.00000000000E+00 -0.45593999997E+02  0.45594000000E+02  0.51100000000E-03 0. -1.
    9900012    2    1    2    0    0  0.34203724728E+02 -0.10810504104E-01 -0.26715692614E+02  0.47787272656E+02  0.20000007349E+02 0.  0.
        -12    1    1    2    0    0 -0.34203724728E+02  0.10810504104E-01  0.26715692614E+02  0.43400727344E+02  0.00000000000E+00 0.  1.
         11    1    3    3    0    0  0.10991398863E+02 -0.35989995900E+00 -0.73144980744E+01  0.13207659114E+02  0.51100000000E-03 0. -1.
        -11    1    3    3    0    0  0.17994235788E+02  0.28798331921E+01 -0.21703863186E+02  0.28339788960E+02  0.51100000000E-03 0.  1.
        -12    1    3    3    0    0  0.52180900770E+01 -0.25307437372E+01  0.23026686470E+01  0.62398245819E+01  0.00000000000E+00 0.  1.
</event>
<event>
 7    1  0.2685294E-009  0.4778727E+02  0.7816164E-02  0.1312668E+00
        -11   -1    0    0    0    0  0.00000000000E+00  0.00000000000E+00  0.45593999997E+02  0.45594000000E+02  0.51100000000E-03 0.  1.
         11   -1    0    0    0    0 -0.00000000000E+00 -0.00000000000E+00 -0.45593999997E+02  0.45594000000E+02  0.51100000000E-03 0. -1.
    9900012    2    1    2    0    0 -0.16292759620E+02 -0.21159675032E+02 -0.34211651988E+02  0.47787274255E+02  0.20000014636E+02 0.  0.
        -12    1    1    2    0    0  0.16292759620E+02  0.21159675032E+02  0.34211651988E+02  0.43400725745E+02  0.00000000000E+00 0.  1.
         11    1    3    3    0    0  0.34943304100E+01 -0.45357566399E+01 -0.62677766494E+01  0.84893143244E+01  0.51100000000E-03 0.  1.
        -11    1    3    3    0    0 -0.15038943005E+02 -0.15133409624E+02 -0.17014473756E+02  0.27288866063E+02  0.51100000000E-03 0. -1.
         12    1    3    3    0    0 -0.47481470252E+01 -0.14905087679E+01 -0.10929401582E+02  0.12009093867E+02  0.00000000000E+00 0. -1.
</event>
<event>
 7    1  0.2685294E-009  0.4778725E+02  0.7816164E-02  0.1312668E+00
        -11   -1    0    0    0    0  0.00000000000E+00  0.00000000000E+00  0.45593999997E+02  0.45594000000E+02  0.51100000000E-03 0. -1.
         11   -1    0    0    0    0 -0.00000000000E+00 -0.00000000000E+00 -0.45593999997E+02  0.45594000000E+02  0.51100000000E-03 0.  1.
    9900012    2    1    2    0    0  0.11567652377E+02  0.39618230748E+02  0.13424231987E+02  0.47787253537E+02  0.19999920176E+02 0.  0.
        -12    1    1    2    0    0 -0.11567652377E+02 -0.39618230748E+02 -0.13424231987E+02  0.43400746463E+02  0.00000000000E+00 0.  1.
         11    1    3    3    0    0  0.81132924963E+01  0.42383387202E+01  0.16258709354E+01  0.92969073782E+01  0.51100000000E-03 0. -1.
        -11    1    3    3    0    0  0.28317023832E+00  0.31666961074E+02  0.93006116750E+01  0.33005726577E+02  0.51100000000E-03 0.  1.
        -12    1    3    3    0    0  0.31711896423E+01  0.37129309533E+01  0.24977493767E+01  0.54846195820E+01  0.00000000000E+00 0.  1.
</event>
<event>
 7    1  0.2685294E-009  0.4778726E+02  0.7816164E-02  0.1312668E+00
        -11   -1    0    0    0    0  0.00000000000E+00  0.00000000000E+00  0.45593999997E+02  0.45594000000E+02  0.51100000000E-03 0.  1.
         11   -1    0    0    0    0 -0.00000000000E+00 -0.00000000000E+00 -0.45593999997E+02  0.45594000000E+02  0.51100000000E-03 0. -1.
    9900012    2    1    2    0    0  0.28342735349E+01 -0.25735971960E+02 -0.34831751421E+02  0.47787259612E+02  0.19999947875E+02 0.  0.
        -12    1    1    2    0    0 -0.28342735349E+01  0.25735971960E+02  0.34831751421E+02  0.43400740388E+02  0.00000000000E+00 0.  1.
         11    1    3    3    0    0  0.29184866682E+01 -0.12713581192E+02 -0.51367312740E+01  0.14019226783E+02  0.51100000000E-03 0. -1.
        -11    1    3    3    0    0 -0.10747515158E+01 -0.65474024319E+01 -0.52507097412E+01  0.84612955553E+01  0.51100000000E-03 0.  1.
         12    1    3    3    0    0  0.99053838238E+00 -0.64749883366E+01 -0.24444310405E+02  0.25306737274E+02  0.00000000000E+00 0. -1.
</event>
<event>
 7    1  0.2685294E-009  0.4778726E+02  0.7816164E-02  0.1312668E+00
        -11   -1    0    0    0    0  0.00000000000E+00  0.00000000000E+00  0.45593999997E+02  0.45594000000E+02  0.51100000000E-03 0. -1.
         11   -1    0    0    0    0 -0.00000000000E+00 -0.00000000000E+00 -0.45593999997E+02  0.45594000000E+02  0.51100000000E-03 0.  1.
    9900012    2    1    2    0    0 -0.22058464172E+02  0.29772056527E+02 -0.22598071318E+02  0.47787262463E+02  0.19999960874E+02 0.  0.
        -12    1    1    2    0    0  0.22058464172E+02 -0.29772056527E+02  0.22598071318E+02  0.43400737537E+02  0.00000000000E+00 0.  1.
         11    1    3    3    0    0 -0.18631805582E+02  0.22832108621E+02 -0.17523557739E+02  0.34285921884E+02  0.51100000000E-03 0. -1.
        -11    1    3    3    0    0  0.18342637086E+01  0.41002366312E+01 -0.59542895565E+01  0.74585540267E+01  0.51100000000E-03 0.  1.
         12    1    3    3    0    0 -0.52609222983E+01  0.28397112747E+01  0.87977597739E+00  0.60427865528E+01  0.00000000000E+00 0. -1.
</event>
<event>
 7    1  0.2685294E-009  0.4778727E+02  0.7816164E-02  0.1312668E+00
        -11   -1    0    0    0    0  0.00000000000E+00  0.00000000000E+00  0.45593999997E+02  0.45594000000E+02  0.51100000000E-03 0.  1.
         11   -1    0    0    0    0 -0.00000000000E+00 -0.00000000000E+00 -0.45593999997E+02  0.45594000000E+02  0.51100000000E-03 0. -1.
    9900012    2    1    2    0    0 -0.20863665998E+02 -0.30680673041E+02 -0.22517265720E+02  0.47787268294E+02  0.19999987458E+02 0.  0.
        -12    1    1    2    0    0  0.20863665998E+02  0.30680673041E+02  0.22517265720E+02  0.43400731706E+02  0.00000000000E+00 0.  1.
         11    1    3    3    0    0 -0.21045206247E+01 -0.91082815619E+01  0.10840359555E+01  0.94108944465E+01  0.51100000000E-03 0. -1.
        -11    1    3    3    0    0 -0.13398376544E+02 -0.16846757719E+02 -0.22513385376E+02  0.31147748891E+02  0.51100000000E-03 0.  1.
        -12    1    3    3    0    0 -0.53607688289E+01 -0.47256337610E+01 -0.10879162996E+01  0.72286249560E+01  0.00000000000E+00 0.  1.
</event>
<event>
 7    1  0.2685294E-009  0.4778727E+02  0.7816164E-02  0.1312668E+00
        -11   -1    0    0    0    0  0.00000000000E+00  0.00000000000E+00  0.45593999997E+02  0.45594000000E+02  0.51100000000E-03 0. -1.
         11   -1    0    0    0    0 -0.00000000000E+00 -0.00000000000E+00 -0.45593999997E+02  0.45594000000E+02  0.51100000000E-03 0.  1.
    9900012    2    1    2    0    0 -0.32595509671E+02  0.23933530382E+02  0.15758868936E+02  0.47787273308E+02  0.20000010322E+02 0.  0.
        -12    1    1    2    0    0  0.32595509671E+02 -0.23933530382E+02 -0.15758868936E+02  0.43400726692E+02  0.00000000000E+00 0.  1.
         11    1    3    3    0    0 -0.23413430093E+02  0.24220717479E+02  0.13508593938E+02  0.36294820214E+02  0.51100000000E-03 0. -1.
        -11    1    3    3    0    0 -0.83324525587E+01 -0.16511097067E+00  0.42216311682E+01  0.93423336087E+01  0.51100000000E-03 0.  1.
         12    1    3    3    0    0 -0.84962701901E+00 -0.12207612671E+00 -0.19713561703E+01  0.21501194856E+01  0.00000000000E+00 0. -1.
</event>
<event>
 7    1  0.2685294E-009  0.4778727E+02  0.7816164E-02  0.1312668E+00
        -11   -1    0    0    0    0  0.00000000000E+00  0.00000000000E+00  0.45593999997E+02  0.45594000000E+02  0.51100000000E-03 0. -1.
         11   -1    0    0    0    0 -0.00000000000E+00 -0.00000000000E+00 -0.45593999997E+02  0.45594000000E+02  0.51100000000E-03 0.  1.
    9900012    2    1    2    0    0  0.21037866870E+02 -0.37883090802E+02 -0.24296107444E+01  0.47787269366E+02  0.19999992349E+02 0.  0.
        -12    1    1    2    0    0 -0.21037866870E+02  0.37883090802E+02  0.24296107444E+01  0.43400730634E+02  0.00000000000E+00 0.  1.
         11    1    3    3    0    0  0.16054983081E+02 -0.22377463222E+02 -0.94719482584E+01  0.29124408080E+02  0.51100000000E-03 0. -1.
        -11    1    3    3    0    0 -0.10034069324E+00 -0.91171356494E+01  0.38345302611E+01  0.98912008011E+01  0.51100000000E-03 0.  1.
         12    1    3    3    0    0  0.50832244825E+01 -0.63884919310E+01  0.32078072529E+01  0.87716604850E+01  0.00000000000E+00 0. -1.
</event>
<event>
 7    1  0.2685294E-009  0.4778727E+02  0.7816164E-02  0.1312668E+00
        -11   -1    0    0    0    0  0.00000000000E+00  0.00000000000E+00  0.45593999997E+02  0.45594000000E+02  0.51100000000E-03 0.  1.
         11   -1    0    0    0    0 -0.00000000000E+00 -0.00000000000E+00 -0.45593999997E+02  0.45594000000E+02  0.51100000000E-03 0. -1.
    9900012    2    1    2    0    0 -0.34922365739E+01 -0.43259994556E+02 -0.16135137123E-01  0.47787272983E+02  0.20000008837E+02 0.  0.
        -12    1    1    2    0    0  0.34922365739E+01  0.43259994556E+02  0.16135137123E-01  0.43400727017E+02  0.00000000000E+00 0.  1.
         11    1    3    3    0    0 -0.88392490622E+01 -0.26808003372E+02  0.47259386469E+01  0.28620549700E+02  0.51100000000E-03 0. -1.
        -11    1    3    3    0    0  0.17868458565E+01 -0.10636122478E+02 -0.58322225056E+01  0.12261106765E+02  0.51100000000E-03 0.  1.
         12    1    3    3    0    0  0.35601666319E+01 -0.58158687068E+01  0.10901487215E+01  0.69056165182E+01  0.00000000000E+00 0. -1.
</event>
<event>
 7    1  0.2685294E-009  0.4778727E+02  0.7816164E-02  0.1312668E+00
        -11   -1    0    0    0    0  0.00000000000E+00  0.00000000000E+00  0.45593999997E+02  0.45594000000E+02  0.51100000000E-03 0.  1.
         11   -1    0    0    0    0 -0.00000000000E+00 -0.00000000000E+00 -0.45593999997E+02  0.45594000000E+02  0.51100000000E-03 0. -1.
    9900012    2    1    2    0    0 -0.33383675489E+02 -0.20768934668E+02 -0.18379465142E+02  0.47787272180E+02  0.20000005177E+02 0.  0.
        -12    1    1    2    0    0  0.33383675489E+02  0.20768934668E+02  0.18379465142E+02  0.43400727820E+02  0.00000000000E+00 0.  1.
         11    1    3    3    0    0 -0.91817471873E+01 -0.14836790519E+02 -0.13425617115E+02  0.22015495213E+02  0.51100000000E-03 0. -1.
        -11    1    3    3    0    0 -0.19476506230E+02 -0.64300740626E+01 -0.35350984885E+01  0.20812906307E+02  0.51100000000E-03 0.  1.
         12    1    3    3    0    0 -0.47254220721E+01  0.49792991396E+00 -0.14187495390E+01  0.49588706591E+01  0.00000000000E+00 0. -1.
</event>
<event>
 7    1  0.2685294E-009  0.4778727E+02  0.7816164E-02  0.1312668E+00
        -11   -1    0    0    0    0  0.00000000000E+00  0.00000000000E+00  0.45593999997E+02  0.45594000000E+02  0.51100000000E-03 0. -1.
         11   -1    0    0    0    0 -0.00000000000E+00 -0.00000000000E+00 -0.45593999997E+02  0.45594000000E+02  0.51100000000E-03 0.  1.
    9900012    2    1    2    0    0  0.52187938714E-01 -0.14628558167E+02  0.40861053707E+02  0.47787272498E+02  0.20000006628E+02 0.  0.
        -12    1    1    2    0    0 -0.52187938714E-01  0.14628558167E+02 -0.40861053707E+02  0.43400727502E+02  0.00000000000E+00 0.  1.
         11    1    3    3    0    0 -0.69963350494E+01 -0.44492372706E+01  0.18684042708E+02  0.20441082862E+02  0.51100000000E-03 0. -1.
        -11    1    3    3    0    0  0.66587710105E+01 -0.57683058806E+01  0.62152216434E+01  0.10781538130E+02  0.51100000000E-03 0.  1.
        -12    1    3    3    0    0  0.38975197754E+00 -0.44110150158E+01  0.15961789356E+02  0.16564651506E+02  0.00000000000E+00 0.  1.
</event>
<event>
 7    1  0.2685294E-009  0.4778727E+02  0.7816164E-02  0.1312668E+00
        -11   -1    0    0    0    0  0.00000000000E+00  0.00000000000E+00  0.45593999997E+02  0.45594000000E+02  0.51100000000E-03 0. -1.
         11   -1    0    0    0    0 -0.00000000000E+00 -0.00000000000E+00 -0.45593999997E+02  0.45594000000E+02  0.51100000000E-03 0.  1.
    9900012    2    1    2    0    0 -0.24958840686E+01 -0.17026087083E+01  0.43295438518E+02  0.47787270626E+02  0.19999998094E+02 0.  0.
        -12    1    1    2    0    0  0.24958840686E+01  0.17026087083E+01 -0.43295438518E+02  0.43400729374E+02  0.00000000000E+00 0.  1.
         11    1    3    3    0    0  0.22313358516E+01 -0.38228847126E+01  0.31465457855E+01  0.54308431988E+01  0.51100000000E-03 0.  1.
        -11    1    3    3    0    0 -0.80373516223E-01  0.10277505327E+01  0.36049465239E+02  0.36064202131E+02  0.51100000000E-03 0. -1.
        -12    1    3    3    0    0 -0.46468464040E+01  0.10925254715E+01  0.40994274936E+01  0.62922252966E+01  0.00000000000E+00 0.  1.
</event>
<event>
 7    1  0.3207482E-009  0.4778727E+02  0.7816164E-02  0.1312668E+00
        -11   -1    0    0    0    0  0.00000000000E+00  0.00000000000E+00  0.45593999997E+02  0.45594000000E+02  0.51100000000E-03 0.  1.
         11   -1    0    0    0    0 -0.00000000000E+00 -0.00000000000E+00 -0.45593999997E+02  0.45594000000E+02  0.51100000000E-03 0. -1.
    9900012    2    1    2    0    0  0.45919903642E+00 -0.43244128214E+02  0.36548005282E+01  0.47787273558E+02  0.20000011461E+02 0.  0.
        -12    1    1    2    0    0 -0.45919903642E+00  0.43244128214E+02 -0.36548005282E+01  0.43400726442E+02  0.00000000000E+00 0.  1.
         11    1    3    3    0    0 -0.48669373894E+01 -0.23370286782E+02  0.56973368288E+01  0.24542148053E+02  0.51100000000E-03 0. -1.
        -11    1    3    3    0    0  0.17723218962E+01 -0.39729512117E-01 -0.25299765379E+01  0.30892531268E+01  0.51100000000E-03 0.  1.
        -12    1    3    3    0    0  0.35538145297E+01 -0.19834111920E+02  0.48744023730E+00  0.20155872379E+02  0.00000000000E+00 0.  1.
</event>
<event>
 7    1  0.2685294E-009  0.4778728E+02  0.7816164E-02  0.1312668E+00
        -11   -1    0    0    0    0  0.00000000000E+00  0.00000000000E+00  0.45593999997E+02  0.45594000000E+02  0.51100000000E-03 0.  1.
         11   -1    0    0    0    0 -0.00000000000E+00 -0.00000000000E+00 -0.45593999997E+02  0.45594000000E+02  0.51100000000E-03 0. -1.
    9900012    2    1    2    0    0 -0.13588719729E+02 -0.12378613454E+02 -0.39315891880E+02  0.47787277319E+02  0.20000028608E+02 0.  0.
        -12    1    1    2    0    0  0.13588719729E+02  0.12378613454E+02  0.39315891880E+02  0.43400722681E+02  0.00000000000E+00 0.  1.
         11    1    3    3    0    0 -0.12898684548E+02 -0.56197019267E+00 -0.26101598351E+02  0.29120187333E+02  0.51100000000E-03 0. -1.
        -11    1    3    3    0    0 -0.19981843781E+01 -0.11407511823E+02 -0.10527818248E+02  0.15651166861E+02  0.51100000000E-03 0.  1.
         12    1    3    3    0    0  0.13081491975E+01 -0.40913143833E+00 -0.26864752812E+01  0.30159231246E+01  0.00000000000E+00 0. -1.
</event>
<event>
 7    1  0.2685294E-009  0.4778727E+02  0.7816164E-02  0.1312668E+00
        -11   -1    0    0    0    0  0.00000000000E+00  0.00000000000E+00  0.45593999997E+02  0.45594000000E+02  0.51100000000E-03 0.  1.
         11   -1    0    0    0    0 -0.00000000000E+00 -0.00000000000E+00 -0.45593999997E+02  0.45594000000E+02  0.51100000000E-03 0. -1.
    9900012    2    1    2    0    0 -0.53950777618E+01  0.31052549845E+02 -0.29837146391E+02  0.47787273962E+02  0.20000013300E+02 0.  0.
        -12    1    1    2    0    0  0.53950777618E+01 -0.31052549845E+02  0.29837146391E+02  0.43400726038E+02  0.00000000000E+00 0.  1.
         11    1    3    3    0    0  0.22531840070E+01  0.12926472521E+02 -0.41232065867E+01  0.13753958079E+02  0.51100000000E-03 0. -1.
        -11    1    3    3    0    0 -0.35124304593E+01  0.53629475672E+00 -0.78857495350E+01  0.86492673555E+01  0.51100000000E-03 0.  1.
         12    1    3    3    0    0 -0.41358313095E+01  0.17589782567E+02 -0.17828190269E+02  0.25384048527E+02  0.00000000000E+00 0. -1.
</event>
<event>
 7    1  0.2685294E-009  0.4778727E+02  0.7816164E-02  0.1312668E+00
        -11   -1    0    0    0    0  0.00000000000E+00  0.00000000000E+00  0.45593999997E+02  0.45594000000E+02  0.51100000000E-03 0.  1.
         11   -1    0    0    0    0 -0.00000000000E+00 -0.00000000000E+00 -0.45593999997E+02  0.45594000000E+02  0.51100000000E-03 0. -1.
    9900012    2    1    2    0    0  0.23237648921E+02  0.74782516165E+00 -0.36648001173E+02  0.47787267751E+02  0.19999984982E+02 0.  0.
        -12    1    1    2    0    0 -0.23237648921E+02 -0.74782516165E+00  0.36648001173E+02  0.43400732249E+02  0.00000000000E+00 0.  1.
         11    1    3    3    0    0  0.24211865391E+00 -0.28909391951E+01  0.72834873142E+00  0.29910939484E+01  0.51100000000E-03 0. -1.
        -11    1    3    3    0    0  0.21005586771E+01  0.30536097547E+01 -0.44018631597E+01  0.57544138561E+01  0.51100000000E-03 0.  1.
         12    1    3    3    0    0  0.20894971590E+02  0.58515460209E+00 -0.32974486744E+02  0.39041759946E+02  0.00000000000E+00 0. -1.
</event>
<event>
 7    1  0.2685294E-009  0.4778727E+02  0.7816164E-02  0.1312668E+00
        -11   -1    0    0    0    0  0.00000000000E+00  0.00000000000E+00  0.45593999997E+02  0.45594000000E+02  0.51100000000E-03 0.  1.
         11   -1    0    0    0    0 -0.00000000000E+00 -0.00000000000E+00 -0.45593999997E+02  0.45594000000E+02  0.51100000000E-03 0. -1.
    9900012    2    1    2    0    0 -0.23932113859E+01 -0.36602045316E+01 -0.43179840057E+02  0.47787272526E+02  0.20000006754E+02 0.  0.
        -12    1    1    2    0    0  0.23932113859E+01  0.36602045316E+01  0.43179840057E+02  0.43400727474E+02  0.00000000000E+00 0.  1.
         11    1    3    3    0    0  0.30025877668E+01 -0.63259155388E+01 -0.20645914725E+02  0.21801067309E+02  0.51100000000E-03 0. -1.
        -11    1    3    3    0    0 -0.77465558858E+00  0.63591196080E+01 -0.15645352261E+02  0.16906080004E+02  0.51100000000E-03 0.  1.
        -12    1    3    3    0    0 -0.46211435642E+01 -0.36934086008E+01 -0.68885730705E+01  0.90801252129E+01  0.00000000000E+00 0.  1.
</event>
<event>
 7    1  0.2685294E-009  0.4778727E+02  0.7816164E-02  0.1312668E+00
        -11   -1    0    0    0    0  0.00000000000E+00  0.00000000000E+00  0.45593999997E+02  0.45594000000E+02  0.51100000000E-03 0.  1.
         11   -1    0    0    0    0 -0.00000000000E+00 -0.00000000000E+00 -0.45593999997E+02  0.45594000000E+02  0.51100000000E-03 0. -1.
    9900012    2    1    2    0    0 -0.26419511967E+02  0.30330449420E+02 -0.16300201268E+02  0.47787270329E+02  0.19999996738E+02 0.  0.
        -12    1    1    2    0    0  0.26419511967E+02 -0.30330449420E+02  0.16300201268E+02  0.43400729671E+02  0.00000000000E+00 0.  1.
         11    1    3    3    0    0 -0.13624066093E+02  0.18857071280E+02  0.47149273778E+00  0.23268575801E+02  0.51100000000E-03 0. -1.
        -11    1    3    3    0    0 -0.62734857365E+00 -0.91218816458E-01  0.18260208673E+00  0.65972031084E+00  0.51100000000E-03 0.  1.
         12    1    3    3    0    0 -0.12168097300E+02  0.11564596957E+02 -0.16954296092E+02  0.23858974217E+02  0.00000000000E+00 0. -1.
</event>
<event>
 7    1  0.2685294E-009  0.4778727E+02  0.7816164E-02  0.1312668E+00
        -11   -1    0    0    0    0  0.00000000000E+00  0.00000000000E+00  0.45593999997E+02  0.45594000000E+02  0.51100000000E-03 0.  1.
         11   -1    0    0    0    0 -0.00000000000E+00 -0.00000000000E+00 -0.45593999997E+02  0.45594000000E+02  0.51100000000E-03 0. -1.
    9900012    2    1    2    0    0 -0.41420104164E+02 -0.10682691653E+02  0.73401907631E+01  0.47787270394E+02  0.19999997033E+02 0.  0.
        -12    1    1    2    0    0  0.41420104164E+02  0.10682691653E+02 -0.73401907631E+01  0.43400729606E+02  0.00000000000E+00 0.  1.
         11    1    3    3    0    0 -0.87527306847E+01  0.37802747504E+00  0.86956220276E+01  0.12343704546E+02  0.51100000000E-03 0. -1.
        -11    1    3    3    0    0 -0.85532474642E+01 -0.38734003732E+01 -0.38701914263E+01  0.10155769521E+02  0.51100000000E-03 0.  1.
         12    1    3    3    0    0 -0.24114126015E+02 -0.71873187547E+01  0.25147601619E+01  0.25287796326E+02  0.00000000000E+00 0. -1.
</event>
<event>
 7    1  0.2685294E-009  0.4778728E+02  0.7816164E-02  0.1312668E+00
        -11   -1    0    0    0    0  0.00000000000E+00  0.00000000000E+00  0.45593999997E+02  0.45594000000E+02  0.51100000000E-03 0. -1.
         11   -1    0    0    0    0 -0.00000000000E+00 -0.00000000000E+00 -0.45593999997E+02  0.45594000000E+02  0.51100000000E-03 0.  1.
    9900012    2    1    2    0    0 -0.28746068578E+02  0.12266480494E+02  0.30113450439E+02  0.47787275354E+02  0.20000019649E+02 0.  0.
        -12    1    1    2    0    0  0.28746068578E+02 -0.12266480494E+02 -0.30113450439E+02  0.43400724646E+02  0.00000000000E+00 0.  1.
         11    1    3    3    0    0 -0.80692029749E+01  0.54110438460E+01  0.82727810914E+01  0.12760499183E+02  0.51100000000E-03 0. -1.
        -11    1    3    3    0    0 -0.17972158541E+02  0.13908265120E+00  0.21147605564E+02  0.27753180862E+02  0.51100000000E-03 0.  1.
        -12    1    3    3    0    0 -0.27047070623E+01  0.67163539973E+01  0.69306378410E+00  0.72735953089E+01  0.00000000000E+00 0.  1.
</event>
<event>
 7    1  0.2685294E-009  0.4778727E+02  0.7816164E-02  0.1312668E+00
        -11   -1    0    0    0    0  0.00000000000E+00  0.00000000000E+00  0.45593999997E+02  0.45594000000E+02  0.51100000000E-03 0. -1.
         11   -1    0    0    0    0 -0.00000000000E+00 -0.00000000000E+00 -0.45593999997E+02  0.45594000000E+02  0.51100000000E-03 0.  1.
    9900012    2    1    2    0    0 -0.18611985242E+02 -0.35513243612E+02  0.16614048130E+02  0.47787273488E+02  0.20000011143E+02 0.  0.
        -12    1    1    2    0    0  0.18611985242E+02  0.35513243612E+02 -0.16614048130E+02  0.43400726512E+02  0.00000000000E+00 0.  1.
         11    1    3    3    0    0 -0.16922228325E+02 -0.18284163421E+02  0.77139173734E+01  0.26080202549E+02  0.51100000000E-03 0. -1.
        -11    1    3    3    0    0 -0.15494763206E+01 -0.18477298304E+02  0.83028818065E+01  0.20316231836E+02  0.51100000000E-03 0.  1.
        -12    1    3    3    0    0 -0.14028059628E+00  0.12482181128E+01  0.59724895032E+00  0.13908391034E+01  0.00000000000E+00 0.  1.
</event>
<event>
 7    1  0.2685294E-009  0.4778728E+02  0.7816164E-02  0.1312668E+00
        -11   -1    0    0    0    0  0.00000000000E+00  0.00000000000E+00  0.45593999997E+02  0.45594000000E+02  0.51100000000E-03 0.  1.
         11   -1    0    0    0    0 -0.00000000000E+00 -0.00000000000E+00 -0.45593999997E+02  0.45594000000E+02  0.51100000000E-03 0. -1.
    9900012    2    1    2    0    0  0.30127916907E+02 -0.31134155098E+02  0.25681737535E+01  0.47787279877E+02  0.20000040271E+02 0.  0.
        -12    1    1    2    0    0 -0.30127916907E+02  0.31134155098E+02 -0.25681737535E+01  0.43400720123E+02  0.00000000000E+00 0.  1.
         11    1    3    3    0    0  0.62338076173E+01 -0.62854087335E+01 -0.72600317252E+01  0.11448789511E+02  0.51100000000E-03 0. -1.
        -11    1    3    3    0    0  0.15491103428E+02 -0.15774861727E+02  0.92250210718E+01  0.23956660075E+02  0.51100000000E-03 0.  1.
         12    1    3    3    0    0  0.84030058613E+01 -0.90738846378E+01  0.60318440697E+00  0.12381830291E+02  0.00000000000E+00 0. -1.
</event>
<event>
 7    1  0.2685294E-009  0.4778727E+02  0.7816164E-02  0.1312668E+00
        -11   -1    0    0    0    0  0.00000000000E+00  0.00000000000E+00  0.45593999997E+02  0.45594000000E+02  0.51100000000E-03 0.  1.
         11   -1    0    0    0    0 -0.00000000000E+00 -0.00000000000E+00 -0.45593999997E+02  0.45594000000E+02  0.51100000000E-03 0. -1.
    9900012    2    1    2    0    0 -0.34806018644E+02 -0.20434649880E+02 -0.15955860831E+02  0.47787270231E+02  0.19999996293E+02 0.  0.
        -12    1    1    2    0    0  0.34806018644E+02  0.20434649880E+02  0.15955860831E+02  0.43400729769E+02  0.00000000000E+00 0.  1.
         11    1    3    3    0    0 -0.10126867805E+02 -0.11127156401E+02 -0.13768110825E+02  0.20394311390E+02  0.51100000000E-03 0. -1.
        -11    1    3    3    0    0 -0.16124171529E+02 -0.77576475971E+01  0.14849835600E+01  0.17954809388E+02  0.51100000000E-03 0.  1.
        -12    1    3    3    0    0 -0.85549793099E+01 -0.15498458819E+01 -0.36727335658E+01  0.94381494529E+01  0.00000000000E+00 0.  1.
</event>
<event>
 7    1  0.2685294E-009  0.4778727E+02  0.7816164E-02  0.1312668E+00
        -11   -1    0    0    0    0  0.00000000000E+00  0.00000000000E+00  0.45593999997E+02  0.45594000000E+02  0.51100000000E-03 0.  1.
         11   -1    0    0    0    0 -0.00000000000E+00 -0.00000000000E+00 -0.45593999997E+02  0.45594000000E+02  0.51100000000E-03 0. -1.
    9900012    2    1    2    0    0 -0.71232835353E+01 -0.42696778112E+02  0.31412109527E+01  0.47787271484E+02  0.20000002006E+02 0.  0.
        -12    1    1    2    0    0  0.71232835353E+01  0.42696778112E+02 -0.31412109527E+01  0.43400728516E+02  0.00000000000E+00 0.  1.
         11    1    3    3    0    0 -0.11172284112E+02 -0.17772456395E+02  0.45682297025E+01  0.21483688265E+02  0.51100000000E-03 0. -1.
        -11    1    3    3    0    0  0.23696221639E+01 -0.19476086395E+01  0.76582706460E+00  0.31614521926E+01  0.51100000000E-03 0.  1.
         12    1    3    3    0    0  0.16793784130E+01 -0.22976713077E+02 -0.21928458144E+01  0.23142131027E+02  0.00000000000E+00 0. -1.
</event>
<event>
 7    1  0.2685294E-009  0.4778725E+02  0.7816164E-02  0.1312668E+00
        -11   -1    0    0    0    0  0.00000000000E+00  0.00000000000E+00  0.45593999997E+02  0.45594000000E+02  0.51100000000E-03 0.  1.
         11   -1    0    0    0    0 -0.00000000000E+00 -0.00000000000E+00 -0.45593999997E+02  0.45594000000E+02  0.51100000000E-03 0. -1.
    9900012    2    1    2    0    0 -0.40355850644E+02  0.15892049282E+02 -0.15725117241E+01  0.47787254561E+02  0.19999924845E+02 0.  0.
        -12    1    1    2    0    0  0.40355850644E+02 -0.15892049282E+02  0.15725117241E+01  0.43400745439E+02  0.00000000000E+00 0.  1.
         11    1    3    3    0    0 -0.52686872228E+01  0.53342554870E+01 -0.24111239891E+01  0.78757136695E+01  0.51100000000E-03 0. -1.
        -11    1    3    3    0    0 -0.26901165093E+02  0.13560103825E+02 -0.32140590449E+01  0.30296522489E+02  0.51100000000E-03 0.  1.
        -12    1    3    3    0    0 -0.81859983278E+01 -0.30023100300E+01  0.40526713098E+01  0.96150184027E+01  0.00000000000E+00 0.  1.
</event>
<event>
 7    1  0.2685294E-009  0.4778725E+02  0.7816164E-02  0.1312668E+00
        -11   -1    0    0    0    0  0.00000000000E+00  0.00000000000E+00  0.45593999997E+02  0.45594000000E+02  0.51100000000E-03 0. -1.
         11   -1    0    0    0    0 -0.00000000000E+00 -0.00000000000E+00 -0.45593999997E+02  0.45594000000E+02  0.51100000000E-03 0.  1.
    9900012    2    1    2    0    0 -0.25803777055E+02  0.34498206220E+02 -0.52596462919E+01  0.47787250907E+02  0.19999908185E+02 0.  0.
        -12    1    1    2    0    0  0.25803777055E+02 -0.34498206220E+02  0.52596462919E+01  0.43400749093E+02  0.00000000000E+00 0.  1.
         11    1    3    3    0    0 -0.21587955978E+02  0.15037921224E+02 -0.45961467728E+01  0.26707742013E+02  0.51100000000E-03 0. -1.
        -11    1    3    3    0    0 -0.66963926569E-01  0.14774569843E+02  0.96392453058E-01  0.14775036039E+02  0.51100000000E-03 0.  1.
        -12    1    3    3    0    0 -0.41488571504E+01  0.46857151541E+01 -0.75989197224E+00  0.63044728542E+01  0.00000000000E+00 0.  1.
</event>
<event>
 7    1  0.2685294E-009  0.4778727E+02  0.7816164E-02  0.1312668E+00
        -11   -1    0    0    0    0  0.00000000000E+00  0.00000000000E+00  0.45593999997E+02  0.45594000000E+02  0.51100000000E-03 0. -1.
         11   -1    0    0    0    0 -0.00000000000E+00 -0.00000000000E+00 -0.45593999997E+02  0.45594000000E+02  0.51100000000E-03 0.  1.
    9900012    2    1    2    0    0 -0.27565736336E+02  0.12558524495E+02 -0.31081134610E+02  0.47787270906E+02  0.19999999370E+02 0.  0.
        -12    1    1    2    0    0  0.27565736336E+02 -0.12558524495E+02  0.31081134610E+02  0.43400729094E+02  0.00000000000E+00 0.  1.
         11    1    3    3    0    0 -0.50026225820E+01 -0.29143357400E+00 -0.54584104203E+01  0.74098185406E+01  0.51100000000E-03 0. -1.
        -11    1    3    3    0    0 -0.10646117473E+00 -0.34400293257E+01 -0.23716184232E+01  0.41796782113E+01  0.51100000000E-03 0.  1.
        -12    1    3    3    0    0 -0.22456652579E+02  0.16289987395E+02 -0.23251105766E+02  0.36197774154E+02  0.00000000000E+00 0.  1.
</event>
<event>
 7    1  0.2685294E-009  0.4778727E+02  0.7816164E-02  0.1312668E+00
        -11   -1    0    0    0    0  0.00000000000E+00  0.00000000000E+00  0.45593999997E+02  0.45594000000E+02  0.51100000000E-03 0.  1.
         11   -1    0    0    0    0 -0.00000000000E+00 -0.00000000000E+00 -0.45593999997E+02  0.45594000000E+02  0.51100000000E-03 0. -1.
    9900012    2    1    2    0    0  0.94673263641E+01 -0.39077777628E+02 -0.16337689070E+02  0.47787273543E+02  0.20000011390E+02 0.  0.
        -12    1    1    2    0    0 -0.94673263641E+01  0.39077777628E+02  0.16337689070E+02  0.43400726457E+02  0.00000000000E+00 0.  1.
         11    1    3    3    0    0  0.53362792096E+01 -0.10758458503E+02 -0.39344620848E+01  0.12637258299E+02  0.51100000000E-03 0. -1.
        -11    1    3    3    0    0  0.74352012973E+00 -0.26635264526E+02 -0.14984719446E+02  0.30570115402E+02  0.51100000000E-03 0.  1.
        -12    1    3    3    0    0  0.33875270248E+01 -0.16840545995E+01  0.25814924602E+01  0.45798998417E+01  0.00000000000E+00 0.  1.
</event>
<event>
 7    1  0.2685294E-009  0.4778727E+02  0.7816164E-02  0.1312668E+00
        -11   -1    0    0    0    0  0.00000000000E+00  0.00000000000E+00  0.45593999997E+02  0.45594000000E+02  0.51100000000E-03 0.  1.
         11   -1    0    0    0    0 -0.00000000000E+00 -0.00000000000E+00 -0.45593999997E+02  0.45594000000E+02  0.51100000000E-03 0. -1.
    9900012    2    1    2    0    0  0.30934149343E+02 -0.26527716950E+02 -0.14932578124E+02  0.47787271301E+02  0.20000001171E+02 0.  0.
        -12    1    1    2    0    0 -0.30934149343E+02  0.26527716950E+02  0.14932578124E+02  0.43400728699E+02  0.00000000000E+00 0.  1.
         11    1    3    3    0    0  0.19290779208E+02 -0.21361062424E+02 -0.13011461145E+02  0.31586821172E+02  0.51100000000E-03 0. -1.
        -11    1    3    3    0    0  0.11315090627E+02 -0.25473631715E+01  0.16969125944E+01  0.11721768110E+02  0.51100000000E-03 0.  1.
         12    1    3    3    0    0  0.32827950823E+00 -0.26192913542E+01 -0.36180295735E+01  0.44786820191E+01  0.00000000000E+00 0. -1.
</event>
<event>
 7    1  0.2685294E-009  0.4778727E+02  0.7816164E-02  0.1312668E+00
        -11   -1    0    0    0    0  0.00000000000E+00  0.00000000000E+00  0.45593999997E+02  0.45594000000E+02  0.51100000000E-03 0.  1.
         11   -1    0    0    0    0 -0.00000000000E+00 -0.00000000000E+00 -0.45593999997E+02  0.45594000000E+02  0.51100000000E-03 0. -1.
    9900012    2    1    2    0    0 -0.24982193200E+02 -0.21452304483E+01 -0.35424723399E+02  0.47787273985E+02  0.20000013407E+02 0.  0.
        -12    1    1    2    0    0  0.24982193200E+02  0.21452304483E+01  0.35424723399E+02  0.43400726015E+02  0.00000000000E+00 0.  1.
         11    1    3    3    0    0 -0.23934778976E+02 -0.48698832099E+01 -0.24637694734E+02  0.34693016721E+02  0.51100000000E-03 0. -1.
        -11    1    3    3    0    0 -0.42301095171E+00  0.44869059623E+01 -0.10172676907E+02  0.11126303029E+02  0.51100000000E-03 0.  1.
         12    1    3    3    0    0 -0.62440327188E+00 -0.17622532007E+01 -0.61435175747E+00  0.19679542350E+01  0.00000000000E+00 0. -1.
</event>
<event>
 7    1  0.2685294E-009  0.4778732E+02  0.7816164E-02  0.1312668E+00
        -11   -1    0    0    0    0  0.00000000000E+00  0.00000000000E+00  0.45593999997E+02  0.45594000000E+02  0.51100000000E-03 0.  1.
         11   -1    0    0    0    0 -0.00000000000E+00 -0.00000000000E+00 -0.45593999997E+02  0.45594000000E+02  0.51100000000E-03 0. -1.
    9900012    2    1    2    0    0  0.20611686978E+02 -0.45214473396E+01 -0.37925373860E+02  0.47787319032E+02  0.20000218792E+02 0.  0.
        -12    1    1    2    0    0 -0.20611686978E+02  0.45214473396E+01  0.37925373860E+02  0.43400680968E+02  0.00000000000E+00 0.  1.
         11    1    3    3    0    0  0.63289780376E+01 -0.48527185669E+01 -0.28634120770E+02  0.29724025855E+02  0.51100000000E-03 0. -1.
        -11    1    3    3    0    0  0.14540058618E+02  0.11266686315E+01 -0.91473238694E+01  0.17214999886E+02  0.51100000000E-03 0.  1.
        -12    1    3    3    0    0 -0.25734967793E+00 -0.79539740423E+00 -0.14392922028E+00  0.84829329117E+00  0.00000000000E+00 0.  1.
</event>
<event>
 7    1  0.2685294E-009  0.4778727E+02  0.7816164E-02  0.1312668E+00
        -11   -1    0    0    0    0  0.00000000000E+00  0.00000000000E+00  0.45593999997E+02  0.45594000000E+02  0.51100000000E-03 0.  1.
         11   -1    0    0    0    0 -0.00000000000E+00 -0.00000000000E+00 -0.45593999997E+02  0.45594000000E+02  0.51100000000E-03 0. -1.
    9900012    2    1    2    0    0  0.69807694758E+01 -0.42835555709E+02 -0.84395413376E-01  0.47787273071E+02  0.20000009241E+02 0.  0.
        -12    1    1    2    0    0 -0.69807694758E+01  0.42835555709E+02  0.84395413376E-01  0.43400726929E+02  0.00000000000E+00 0.  1.
         11    1    3    3    0    0  0.14921210290E+01 -0.58516509140E+01 -0.46915429061E+01  0.76471444792E+01  0.51100000000E-03 0. -1.
        -11    1    3    3    0    0  0.71401007208E+01 -0.35624480407E+02  0.14949122766E+01  0.36363710008E+02  0.51100000000E-03 0.  1.
        -12    1    3    3    0    0 -0.16514522739E+01 -0.13594243874E+01  0.31122352161E+01  0.37764185836E+01  0.00000000000E+00 0.  1.
</event>
<event>
 7    1  0.2685294E-009  0.4778727E+02  0.7816164E-02  0.1312668E+00
        -11   -1    0    0    0    0  0.00000000000E+00  0.00000000000E+00  0.45593999997E+02  0.45594000000E+02  0.51100000000E-03 0.  1.
         11   -1    0    0    0    0 -0.00000000000E+00 -0.00000000000E+00 -0.45593999997E+02  0.45594000000E+02  0.51100000000E-03 0. -1.
    9900012    2    1    2    0    0 -0.29881343911E+02 -0.92595053731E+01 -0.30083058075E+02  0.47787268015E+02  0.19999986187E+02 0.  0.
        -12    1    1    2    0    0  0.29881343911E+02  0.92595053731E+01  0.30083058075E+02  0.43400731985E+02  0.00000000000E+00 0.  1.
         11    1    3    3    0    0 -0.70823243030E+01 -0.33369014775E+01 -0.71674301079E-01  0.78293911941E+01  0.51100000000E-03 0. -1.
        -11    1    3    3    0    0 -0.13147016704E+02 -0.28145485087E+00 -0.23741664499E+02  0.27140189729E+02  0.51100000000E-03 0.  1.
        -12    1    3    3    0    0 -0.96520029039E+01 -0.56411490448E+01 -0.62697192750E+01  0.12817687092E+02  0.00000000000E+00 0.  1.
</event>
<event>
 7    1  0.2685294E-009  0.4778727E+02  0.7816164E-02  0.1312668E+00
        -11   -1    0    0    0    0  0.00000000000E+00  0.00000000000E+00  0.45593999997E+02  0.45594000000E+02  0.51100000000E-03 0.  1.
         11   -1    0    0    0    0 -0.00000000000E+00 -0.00000000000E+00 -0.45593999997E+02  0.45594000000E+02  0.51100000000E-03 0. -1.
    9900012    2    1    2    0    0 -0.43267971619E+02 -0.26877341456E+01  0.20693373843E+01  0.47787269129E+02  0.19999991268E+02 0.  0.
        -12    1    1    2    0    0  0.43267971619E+02  0.26877341456E+01 -0.20693373843E+01  0.43400730871E+02  0.00000000000E+00 0.  1.
         11    1    3    3    0    0 -0.19055618548E+02  0.30389318347E+01  0.48233366520E+01  0.19890105119E+02  0.51100000000E-03 0. -1.
        -11    1    3    3    0    0 -0.52499470510E+01 -0.11290584770E+00 -0.58713818405E+01  0.78770436553E+01  0.51100000000E-03 0.  1.
        -12    1    3    3    0    0 -0.18962406020E+02 -0.56137601326E+01  0.31173825728E+01  0.20020120355E+02  0.00000000000E+00 0.  1.
</event>
<event>
 7    1  0.2685294E-009  0.4778727E+02  0.7816164E-02  0.1312668E+00
        -11   -1    0    0    0    0  0.00000000000E+00  0.00000000000E+00  0.45593999997E+02  0.45594000000E+02  0.51100000000E-03 0.  1.
         11   -1    0    0    0    0 -0.00000000000E+00 -0.00000000000E+00 -0.45593999997E+02  0.45594000000E+02  0.51100000000E-03 0. -1.
    9900012    2    1    2    0    0 -0.50554888200E+01 -0.12177629831E+02 -0.41349369339E+02  0.47787274427E+02  0.20000015422E+02 0.  0.
        -12    1    1    2    0    0  0.50554888200E+01  0.12177629831E+02  0.41349369339E+02  0.43400725573E+02  0.00000000000E+00 0.  1.
         11    1    3    3    0    0 -0.34731915433E+01 -0.78834437289E+01 -0.10132698453E+02  0.13299748972E+02  0.51100000000E-03 0. -1.
        -11    1    3    3    0    0  0.89670608691E+00 -0.25281301481E+00 -0.29393010860E+02  0.29407772508E+02  0.51100000000E-03 0.  1.
        -12    1    3    3    0    0 -0.24790033636E+01 -0.40413730871E+01 -0.18236600268E+01  0.50797529467E+01  0.00000000000E+00 0.  1.
</event>
<event>
 7    1  0.2685294E-009  0.4778727E+02  0.7816164E-02  0.1312668E+00
        -11   -1    0    0    0    0  0.00000000000E+00  0.00000000000E+00  0.45593999997E+02  0.45594000000E+02  0.51100000000E-03 0.  1.
         11   -1    0    0    0    0 -0.00000000000E+00 -0.00000000000E+00 -0.45593999997E+02  0.45594000000E+02  0.51100000000E-03 0. -1.
    9900012    2    1    2    0    0 -0.35773910255E+02  0.20932062048E+02 -0.12872423682E+02  0.47787272264E+02  0.20000005562E+02 0.  0.
        -12    1    1    2    0    0  0.35773910255E+02 -0.20932062048E+02  0.12872423682E+02  0.43400727736E+02  0.00000000000E+00 0.  1.
         11    1    3    3    0    0 -0.22553123904E+02  0.45382881494E+01 -0.86166149522E+01  0.24565942087E+02  0.51100000000E-03 0. -1.
        -11    1    3    3    0    0 -0.35094944915E+01  0.99823448051E+01 -0.46952117928E+01  0.11576215851E+02  0.51100000000E-03 0.  1.
        -12    1    3    3    0    0 -0.97112918599E+01  0.64114290936E+01  0.43940306297E+00  0.11645114326E+02  0.00000000000E+00 0.  1.
</event>
<event>
 7    1  0.2685294E-009  0.4778727E+02  0.7816164E-02  0.1312668E+00
        -11   -1    0    0    0    0  0.00000000000E+00  0.00000000000E+00  0.45593999997E+02  0.45594000000E+02  0.51100000000E-03 0.  1.
         11   -1    0    0    0    0 -0.00000000000E+00 -0.00000000000E+00 -0.45593999997E+02  0.45594000000E+02  0.51100000000E-03 0. -1.
    9900012    2    1    2    0    0 -0.25287544359E+02 -0.18599686500E+02 -0.29970234232E+02  0.47787272154E+02  0.20000005058E+02 0.  0.
        -12    1    1    2    0    0  0.25287544359E+02  0.18599686500E+02  0.29970234232E+02  0.43400727846E+02  0.00000000000E+00 0.  1.
         11    1    3    3    0    0 -0.17252886906E+01 -0.17970105152E+01 -0.93603813675E+01  0.96862070732E+01  0.51100000000E-03 0. -1.
        -11    1    3    3    0    0 -0.13519118838E+02 -0.11827268570E+02 -0.45724169047E+01  0.18535313663E+02  0.51100000000E-03 0.  1.
        -12    1    3    3    0    0 -0.10043136831E+02 -0.49754074152E+01 -0.16037435960E+02  0.19565751418E+02  0.00000000000E+00 0.  1.
</event>
<event>
 7    1  0.2685294E-009  0.4778727E+02  0.7816164E-02  0.1312668E+00
        -11   -1    0    0    0    0  0.00000000000E+00  0.00000000000E+00  0.45593999997E+02  0.45594000000E+02  0.51100000000E-03 0.  1.
         11   -1    0    0    0    0 -0.00000000000E+00 -0.00000000000E+00 -0.45593999997E+02  0.45594000000E+02  0.51100000000E-03 0. -1.
    9900012    2    1    2    0    0  0.24611959027E+01 -0.13044899071E+02 -0.41320654623E+02  0.47787269874E+02  0.19999994662E+02 0.  0.
        -12    1    1    2    0    0 -0.24611959027E+01  0.13044899071E+02  0.41320654623E+02  0.43400730126E+02  0.00000000000E+00 0.  1.
         11    1    3    3    0    0  0.22880043597E+01 -0.14965808244E+02 -0.24343720293E+02  0.28667526895E+02  0.51100000000E-03 0. -1.
        -11    1    3    3    0    0 -0.13887400332E+01  0.35828536046E+01 -0.27849621927E+01  0.47456773497E+01  0.51100000000E-03 0.  1.
         12    1    3    3    0    0  0.15619315762E+01 -0.16619444314E+01 -0.14191972138E+02  0.14374065629E+02  0.00000000000E+00 0. -1.
</event>
<event>
 7    1  0.2685294E-009  0.4778727E+02  0.7816164E-02  0.1312668E+00
        -11   -1    0    0    0    0  0.00000000000E+00  0.00000000000E+00  0.45593999997E+02  0.45594000000E+02  0.51100000000E-03 0.  1.
         11   -1    0    0    0    0 -0.00000000000E+00 -0.00000000000E+00 -0.45593999997E+02  0.45594000000E+02  0.51100000000E-03 0. -1.
    9900012    2    1    2    0    0  0.22613471283E+02 -0.32514103508E+01 -0.36900984224E+02  0.47787269713E+02  0.19999993931E+02 0.  0.
        -12    1    1    2    0    0 -0.22613471283E+02  0.32514103508E+01  0.36900984224E+02  0.43400730287E+02  0.00000000000E+00 0.  1.
         11    1    3    3    0    0 -0.17638697703E+01 -0.40760777719E+01 -0.10430057180E+02  0.11336301849E+02  0.51100000000E-03 0. -1.
        -11    1    3    3    0    0  0.18677836374E+02  0.30642382861E+01 -0.20390273038E+02  0.27821113614E+02  0.51100000000E-03 0.  1.
         12    1    3    3    0    0  0.56995046790E+01 -0.22395708650E+01 -0.60806540054E+01  0.86298542502E+01  0.00000000000E+00 0. -1.
</event>
<event>
 7    1  0.2685294E-009  0.4778727E+02  0.7816164E-02  0.1312668E+00
        -11   -1    0    0    0    0  0.00000000000E+00  0.00000000000E+00  0.45593999997E+02  0.45594000000E+02  0.51100000000E-03 0. -1.
         11   -1    0    0    0    0 -0.00000000000E+00 -0.00000000000E+00 -0.45593999997E+02  0.45594000000E+02  0.51100000000E-03 0.  1.
    9900012    2    1    2    0    0  0.28167447116E+02  0.32269136147E+02 -0.69943573785E+01  0.47787271206E+02  0.20000000737E+02 0.  0.
        -12    1    1    2    0    0 -0.28167447116E+02 -0.32269136147E+02  0.69943573785E+01  0.43400728794E+02  0.00000000000E+00 0.  1.
         11    1    3    3    0    0  0.11647844349E+02  0.14531200495E+02 -0.11708107145E+02  0.21997905332E+02  0.51100000000E-03 0. -1.
        -11    1    3    3    0    0  0.76154182729E+01  0.40518116731E+01 -0.52394473914E+00  0.86421230988E+01  0.51100000000E-03 0.  1.
         12    1    3    3    0    0  0.89041844941E+01  0.13686123979E+02  0.52376945056E+01  0.17147242775E+02  0.00000000000E+00 0. -1.
</event>
<event>
 7    1  0.2685294E-009  0.4778730E+02  0.7816164E-02  0.1312668E+00
        -11   -1    0    0    0    0  0.00000000000E+00  0.00000000000E+00  0.45593999997E+02  0.45594000000E+02  0.51100000000E-03 0.  1.
         11   -1    0    0    0    0 -0.00000000000E+00 -0.00000000000E+00 -0.45593999997E+02  0.45594000000E+02  0.51100000000E-03 0. -1.
    9900012    2    1    2    0    0  0.13500186317E+02 -0.35598773727E+02 -0.20834907790E+02  0.47787296042E+02  0.20000113973E+02 0.  0.
        -12    1    1    2    0    0 -0.13500186317E+02  0.35598773727E+02  0.20834907790E+02  0.43400703958E+02  0.00000000000E+00 0.  1.
         11    1    3    3    0    0  0.36401872281E+01 -0.17540704009E+02 -0.20130481952E+02  0.26947422215E+02  0.51100000000E-03 0. -1.
        -11    1    3    3    0    0  0.65903878333E+01 -0.86969111133E+01 -0.42867142752E+00  0.10920312915E+02  0.51100000000E-03 0.  1.
         12    1    3    3    0    0  0.32696112553E+01 -0.93611586051E+01 -0.27575441058E+00  0.99195609120E+01  0.00000000000E+00 0. -1.
</event>
<event>
 7    1  0.2685294E-009  0.4778727E+02  0.7816164E-02  0.1312668E+00
        -11   -1    0    0    0    0  0.00000000000E+00  0.00000000000E+00  0.45593999997E+02  0.45594000000E+02  0.51100000000E-03 0.  1.
         11   -1    0    0    0    0 -0.00000000000E+00 -0.00000000000E+00 -0.45593999997E+02  0.45594000000E+02  0.51100000000E-03 0. -1.
    9900012    2    1    2    0    0  0.54445173022E+01  0.22306630601E+02 -0.36829264556E+02  0.47787271145E+02  0.20000000457E+02 0.  0.
        -12    1    1    2    0    0 -0.54445173022E+01 -0.22306630601E+02  0.36829264556E+02  0.43400728855E+02  0.00000000000E+00 0.  1.
         11    1    3    3    0    0  0.62126636377E+01  0.88060854241E+01 -0.13624291095E+02  0.17371402881E+02  0.51100000000E-03 0. -1.
        -11    1    3    3    0    0 -0.61505726881E+01  0.31317301798E+01 -0.13755794803E+02  0.15390229668E+02  0.51100000000E-03 0.  1.
        -12    1    3    3    0    0  0.53824263526E+01  0.10368814997E+02 -0.94491786590E+01  0.15025638596E+02  0.00000000000E+00 0.  1.
</event>
<event>
 7    1  0.2685294E-009  0.4778727E+02  0.7816164E-02  0.1312668E+00
        -11   -1    0    0    0    0  0.00000000000E+00  0.00000000000E+00  0.45593999997E+02  0.45594000000E+02  0.51100000000E-03 0.  1.
         11   -1    0    0    0    0 -0.00000000000E+00 -0.00000000000E+00 -0.45593999997E+02  0.45594000000E+02  0.51100000000E-03 0. -1.
    9900012    2    1    2    0    0 -0.18780643818E+02 -0.60808596063E+01 -0.38651441506E+02  0.47787269980E+02  0.19999995148E+02 0.  0.
        -12    1    1    2    0    0  0.18780643818E+02  0.60808596063E+01  0.38651441506E+02  0.43400730020E+02  0.00000000000E+00 0.  1.
         11    1    3    3    0    0 -0.60194420131E+01 -0.49116684094E+01 -0.11686692514E+02  0.14033422636E+02  0.51100000000E-03 0.  1.
        -11    1    3    3    0    0 -0.29091830800E+01 -0.10368371004E+01 -0.22880458290E+02  0.23087956800E+02  0.51100000000E-03 0. -1.
        -12    1    3    3    0    0 -0.98520187247E+01 -0.13235409649E+00 -0.40842907016E+01  0.10665890544E+02  0.00000000000E+00 0.  1.
</event>
<event>
 7    1  0.2685294E-009  0.4778726E+02  0.7816164E-02  0.1312668E+00
        -11   -1    0    0    0    0  0.00000000000E+00  0.00000000000E+00  0.45593999997E+02  0.45594000000E+02  0.51100000000E-03 0.  1.
         11   -1    0    0    0    0 -0.00000000000E+00 -0.00000000000E+00 -0.45593999997E+02  0.45594000000E+02  0.51100000000E-03 0. -1.
    9900012    2    1    2    0    0 -0.20267817614E+02 -0.48545578259E+01 -0.38069316979E+02  0.47787262014E+02  0.19999958828E+02 0.  0.
        -12    1    1    2    0    0  0.20267817614E+02  0.48545578259E+01  0.38069316979E+02  0.43400737986E+02  0.00000000000E+00 0.  1.
         11    1    3    3    0    0 -0.13709809154E+02  0.48069876189E+01 -0.19888160890E+02  0.24629351207E+02  0.51100000000E-03 0. -1.
        -11    1    3    3    0    0  0.28200033837E+00 -0.21301661180E+01  0.19063800571E+00  0.21571914591E+01  0.51100000000E-03 0.  1.
         12    1    3    3    0    0 -0.68400087983E+01 -0.75313793268E+01 -0.18371794094E+02  0.21000719349E+02  0.00000000000E+00 0. -1.
</event>
<event>
 7    1  0.2685294E-009  0.4778729E+02  0.7816164E-02  0.1312668E+00
        -11   -1    0    0    0    0  0.00000000000E+00  0.00000000000E+00  0.45593999997E+02  0.45594000000E+02  0.51100000000E-03 0. -1.
         11   -1    0    0    0    0 -0.00000000000E+00 -0.00000000000E+00 -0.45593999997E+02  0.45594000000E+02  0.51100000000E-03 0.  1.
    9900012    2    1    2    0    0 -0.29575914622E+02 -0.47223573907E+00  0.31759468652E+02  0.47787290542E+02  0.20000088899E+02 0.  0.
        -12    1    1    2    0    0  0.29575914622E+02  0.47223573907E+00 -0.31759468652E+02  0.43400709458E+02  0.00000000000E+00 0.  1.
         11    1    3    3    0    0 -0.46704616981E+01  0.80185576734E+00  0.24847484733E+01  0.53507158757E+01  0.51100000000E-03 0. -1.
        -11    1    3    3    0    0 -0.19509770322E+02 -0.35367788288E+00  0.90964561501E+01  0.21529090571E+02  0.51100000000E-03 0.  1.
        -12    1    3    3    0    0 -0.53956826015E+01 -0.92041362353E+00  0.20178264029E+02  0.20907484095E+02  0.00000000000E+00 0.  1.
</event>
<event>
 7    1  0.2685294E-009  0.4778727E+02  0.7816164E-02  0.1312668E+00
        -11   -1    0    0    0    0  0.00000000000E+00  0.00000000000E+00  0.45593999997E+02  0.45594000000E+02  0.51100000000E-03 0. -1.
         11   -1    0    0    0    0 -0.00000000000E+00 -0.00000000000E+00 -0.45593999997E+02  0.45594000000E+02  0.51100000000E-03 0.  1.
    9900012    2    1    2    0    0  0.12977992245E+02  0.31275514995E+02 -0.27148427417E+02  0.47787271525E+02  0.20000002191E+02 0.  0.
        -12    1    1    2    0    0 -0.12977992245E+02 -0.31275514995E+02  0.27148427417E+02  0.43400728475E+02  0.00000000000E+00 0.  1.
         11    1    3    3    0    0  0.57731258662E+01  0.23029702822E+02 -0.21844399087E+02  0.32262578417E+02  0.51100000000E-03 0. -1.
        -11    1    3    3    0    0  0.54944180271E+01 -0.64288065327E+00 -0.17816357133E+01  0.58117253090E+01  0.51100000000E-03 0.  1.
        -12    1    3    3    0    0  0.17104483521E+01  0.88886928262E+01 -0.35223926166E+01  0.97129677992E+01  0.00000000000E+00 0.  1.
</event>
<event>
 7    1  0.2685294E-009  0.4778723E+02  0.7816164E-02  0.1312668E+00
        -11   -1    0    0    0    0  0.00000000000E+00  0.00000000000E+00  0.45593999997E+02  0.45594000000E+02  0.51100000000E-03 0. -1.
         11   -1    0    0    0    0 -0.00000000000E+00 -0.00000000000E+00 -0.45593999997E+02  0.45594000000E+02  0.51100000000E-03 0.  1.
    9900012    2    1    2    0    0 -0.20643360361E+01  0.10796307686E+02  0.41985769544E+02  0.47787232875E+02  0.19999825967E+02 0.  0.
        -12    1    1    2    0    0  0.20643360361E+01 -0.10796307686E+02 -0.41985769544E+02  0.43400767125E+02  0.00000000000E+00 0.  1.
         11    1    3    3    0    0 -0.73182317849E+01 -0.28186962143E+01  0.14785744019E+02  0.16736779596E+02  0.51100000000E-03 0. -1.
        -11    1    3    3    0    0  0.29439273526E+01  0.87725133753E+01  0.13788964674E+02  0.16606000308E+02  0.51100000000E-03 0.  1.
         12    1    3    3    0    0  0.23099683962E+01  0.48424905247E+01  0.13411060851E+02  0.14444452971E+02  0.00000000000E+00 0. -1.
</event>
<event>
 7    1  0.2685294E-009  0.4778727E+02  0.7816164E-02  0.1312668E+00
        -11   -1    0    0    0    0  0.00000000000E+00  0.00000000000E+00  0.45593999997E+02  0.45594000000E+02  0.51100000000E-03 0.  1.
         11   -1    0    0    0    0 -0.00000000000E+00 -0.00000000000E+00 -0.45593999997E+02  0.45594000000E+02  0.51100000000E-03 0. -1.
    9900012    2    1    2    0    0  0.11143856844E+02  0.16221917958E+02 -0.38681870932E+02  0.47787270670E+02  0.19999998293E+02 0.  0.
        -12    1    1    2    0    0 -0.11143856844E+02 -0.16221917958E+02  0.38681870932E+02  0.43400729330E+02  0.00000000000E+00 0.  1.
         11    1    3    3    0    0  0.89120178604E+01  0.92476928232E+01 -0.29386910176E+02  0.32070771348E+02  0.51100000000E-03 0. -1.
        -11    1    3    3    0    0 -0.11594468318E+01 -0.11655819581E+01  0.11803006207E+01  0.20238596970E+01  0.51100000000E-03 0.  1.
         12    1    3    3    0    0  0.33912858155E+01  0.81398070934E+01 -0.10475261376E+02  0.13692639625E+02  0.00000000000E+00 0. -1.
</event>
<event>
 7    1  0.2685294E-009  0.4778727E+02  0.7816164E-02  0.1312668E+00
        -11   -1    0    0    0    0  0.00000000000E+00  0.00000000000E+00  0.45593999997E+02  0.45594000000E+02  0.51100000000E-03 0.  1.
         11   -1    0    0    0    0 -0.00000000000E+00 -0.00000000000E+00 -0.45593999997E+02  0.45594000000E+02  0.51100000000E-03 0. -1.
    9900012    2    1    2    0    0 -0.97771527385E+00 -0.16481794235E+02 -0.40137485879E+02  0.47787271422E+02  0.20000001723E+02 0.  0.
        -12    1    1    2    0    0  0.97771527385E+00  0.16481794235E+02  0.40137485879E+02  0.43400728578E+02  0.00000000000E+00 0.  1.
         11    1    3    3    0    0 -0.49965751573E+01 -0.92475514781E+01 -0.31789537561E+02  0.33482199304E+02  0.51100000000E-03 0. -1.
        -11    1    3    3    0    0  0.33985481143E+01 -0.20315416969E+01  0.53153526338E+00  0.39949744615E+01  0.51100000000E-03 0.  1.
        -12    1    3    3    0    0  0.62031176923E+00 -0.52027010603E+01 -0.88794835821E+01  0.10310097657E+02  0.00000000000E+00 0.  1.
</event>
<event>
 7    1  0.2685294E-009  0.4778727E+02  0.7816164E-02  0.1312668E+00
        -11   -1    0    0    0    0  0.00000000000E+00  0.00000000000E+00  0.45593999997E+02  0.45594000000E+02  0.51100000000E-03 0.  1.
         11   -1    0    0    0    0 -0.00000000000E+00 -0.00000000000E+00 -0.45593999997E+02  0.45594000000E+02  0.51100000000E-03 0. -1.
    9900012    2    1    2    0    0 -0.11646944719E+02  0.11214610284E+02 -0.40276600723E+02  0.47787269926E+02  0.19999994901E+02 0.  0.
        -12    1    1    2    0    0  0.11646944719E+02 -0.11214610284E+02  0.40276600723E+02  0.43400730074E+02  0.00000000000E+00 0.  1.
         11    1    3    3    0    0 -0.97919650789E+01  0.27462727761E+01 -0.21078361883E+02  0.23403459877E+02  0.51100000000E-03 0. -1.
        -11    1    3    3    0    0  0.17132583875E+01  0.10078644671E+02 -0.96254995305E+01  0.14041530336E+02  0.51100000000E-03 0.  1.
        -12    1    3    3    0    0 -0.35682380273E+01 -0.16103071625E+01 -0.95727393100E+01  0.10342279714E+02  0.00000000000E+00 0.  1.
</event>
<event>
 7    1  0.2685294E-009  0.4778727E+02  0.7816164E-02  0.1312668E+00
        -11   -1    0    0    0    0  0.00000000000E+00  0.00000000000E+00  0.45593999997E+02  0.45594000000E+02  0.51100000000E-03 0. -1.
         11   -1    0    0    0    0 -0.00000000000E+00 -0.00000000000E+00 -0.45593999997E+02  0.45594000000E+02  0.51100000000E-03 0.  1.
    9900012    2    1    2    0    0 -0.38517785121E+02 -0.25324882326E+01  0.19839107726E+02  0.47787268870E+02  0.19999990084E+02 0.  0.
        -12    1    1    2    0    0  0.38517785121E+02  0.25324882326E+01 -0.19839107726E+02  0.43400731130E+02  0.00000000000E+00 0.  1.
         11    1    3    3    0    0 -0.29624370855E+02 -0.34218540816E+01  0.11775326072E+02  0.32061982757E+02  0.51100000000E-03 0. -1.
        -11    1    3    3    0    0 -0.98722505536E+01  0.26462489267E+01  0.36118778793E+01  0.10840185720E+02  0.51100000000E-03 0.  1.
        -12    1    3    3    0    0  0.97883628782E+00 -0.17568830777E+01  0.44519037746E+01  0.48851003926E+01  0.00000000000E+00 0.  1.
</event>
<event>
 7    1  0.2685294E-009  0.4778727E+02  0.7816164E-02  0.1312668E+00
        -11   -1    0    0    0    0  0.00000000000E+00  0.00000000000E+00  0.45593999997E+02  0.45594000000E+02  0.51100000000E-03 0.  1.
         11   -1    0    0    0    0 -0.00000000000E+00 -0.00000000000E+00 -0.45593999997E+02  0.45594000000E+02  0.51100000000E-03 0. -1.
    9900012    2    1    2    0    0  0.33130701639E+02 -0.98293379907E+01  0.26255743397E+02  0.47787270308E+02  0.19999996645E+02 0.  0.
        -12    1    1    2    0    0 -0.33130701639E+02  0.98293379907E+01 -0.26255743397E+02  0.43400729692E+02  0.00000000000E+00 0.  1.
         11    1    3    3    0    0  0.26148606818E+02 -0.26888721023E+01  0.18623420614E+02  0.32215081365E+02  0.51100000000E-03 0. -1.
        -11    1    3    3    0    0 -0.43440358149E+00 -0.19355330157E+01  0.60596086756E+01  0.63760373344E+01  0.51100000000E-03 0.  1.
         12    1    3    3    0    0  0.74164984021E+01 -0.52049328726E+01  0.15727141076E+01  0.91961516093E+01  0.00000000000E+00 0. -1.
</event>
<event>
 7    1  0.2685294E-009  0.4778729E+02  0.7816164E-02  0.1312668E+00
        -11   -1    0    0    0    0  0.00000000000E+00  0.00000000000E+00  0.45593999997E+02  0.45594000000E+02  0.51100000000E-03 0.  1.
         11   -1    0    0    0    0 -0.00000000000E+00 -0.00000000000E+00 -0.45593999997E+02  0.45594000000E+02  0.51100000000E-03 0. -1.
    9900012    2    1    2    0    0 -0.11182994614E+02 -0.23872886638E+02 -0.34476772146E+02  0.47787286842E+02  0.20000072028E+02 0.  0.
        -12    1    1    2    0    0  0.11182994614E+02  0.23872886638E+02  0.34476772146E+02  0.43400713158E+02  0.00000000000E+00 0.  1.
         11    1    3    3    0    0 -0.10506527204E+02 -0.17620209630E+02 -0.30342282292E+02  0.36626670559E+02  0.51100000000E-03 0. -1.
        -11    1    3    3    0    0  0.10408736651E+01 -0.38580492663E+01 -0.63300635555E+01  0.74858310832E+01  0.51100000000E-03 0.  1.
         12    1    3    3    0    0 -0.17173410753E+01 -0.23946277414E+01  0.21955737010E+01  0.36747851999E+01  0.00000000000E+00 0. -1.
</event>
<event>
 7    1  0.2685294E-009  0.4778727E+02  0.7816164E-02  0.1312668E+00
        -11   -1    0    0    0    0  0.00000000000E+00  0.00000000000E+00  0.45593999997E+02  0.45594000000E+02  0.51100000000E-03 0. -1.
         11   -1    0    0    0    0 -0.00000000000E+00 -0.00000000000E+00 -0.45593999997E+02  0.45594000000E+02  0.51100000000E-03 0.  1.
    9900012    2    1    2    0    0  0.42588517985E+02  0.24317764812E+01  0.79954824428E+01  0.47787272581E+02  0.20000007005E+02 0.  0.
        -12    1    1    2    0    0 -0.42588517985E+02 -0.24317764812E+01 -0.79954824428E+01  0.43400727419E+02  0.00000000000E+00 0.  1.
         11    1    3    3    0    0  0.43848040635E+02  0.35884069097E+00  0.57591654242E+01  0.44226094343E+02  0.51100000000E-03 0. -1.
        -11    1    3    3    0    0 -0.60461205039E+00  0.20241876477E+01  0.16452410761E+01  0.26776313832E+01  0.51100000000E-03 0.  1.
         12    1    3    3    0    0 -0.65491059969E+00  0.48748142548E-01  0.59107594256E+00  0.88354685493E+00  0.00000000000E+00 0. -1.
</event>
<event>
 7    1  0.2685294E-009  0.4778728E+02  0.7816164E-02  0.1312668E+00
        -11   -1    0    0    0    0  0.00000000000E+00  0.00000000000E+00  0.45593999997E+02  0.45594000000E+02  0.51100000000E-03 0.  1.
         11   -1    0    0    0    0 -0.00000000000E+00 -0.00000000000E+00 -0.45593999997E+02  0.45594000000E+02  0.51100000000E-03 0. -1.
    9900012    2    1    2    0    0 -0.28721680621E+02  0.22578685552E+02 -0.23428414219E+02  0.47787279133E+02  0.20000036880E+02 0.  0.
        -12    1    1    2    0    0  0.28721680621E+02 -0.22578685552E+02  0.23428414219E+02  0.43400720867E+02  0.00000000000E+00 0.  1.
         11    1    3    3    0    0 -0.17575579907E+02  0.60971566181E+01 -0.14734289226E+02  0.23731321226E+02  0.51100000000E-03 0. -1.
        -11    1    3    3    0    0 -0.71480532600E+01  0.29113942915E+01 -0.56271298453E+00  0.77387032695E+01  0.51100000000E-03 0.  1.
         12    1    3    3    0    0 -0.39980474541E+01  0.13570134643E+02 -0.81314120079E+01  0.16317254637E+02  0.00000000000E+00 0. -1.
</event>
<event>
 7    1  0.2685294E-009  0.4778726E+02  0.7816164E-02  0.1312668E+00
        -11   -1    0    0    0    0  0.00000000000E+00  0.00000000000E+00  0.45593999997E+02  0.45594000000E+02  0.51100000000E-03 0. -1.
         11   -1    0    0    0    0 -0.00000000000E+00 -0.00000000000E+00 -0.45593999997E+02  0.45594000000E+02  0.51100000000E-03 0.  1.
    9900012    2    1    2    0    0 -0.35695277895E+02  0.21194948737E+02  0.12658821928E+02  0.47787257051E+02  0.19999936197E+02 0.  0.
        -12    1    1    2    0    0  0.35695277895E+02 -0.21194948737E+02 -0.12658821928E+02  0.43400742949E+02  0.00000000000E+00 0.  1.
         11    1    3    3    0    0 -0.13665097644E+02  0.30186790652E+01  0.11388216822E+02  0.18042693800E+02  0.51100000000E-03 0. -1.
        -11    1    3    3    0    0 -0.11030058013E+02  0.75243235052E+01 -0.33205690455E+01  0.13758771857E+02  0.51100000000E-03 0.  1.
        -12    1    3    3    0    0 -0.11000122238E+02  0.10651946167E+02  0.45911741515E+01  0.15985791394E+02  0.00000000000E+00 0.  1.
</event>
<event>
 7    1  0.2685294E-009  0.4778727E+02  0.7816164E-02  0.1312668E+00
        -11   -1    0    0    0    0  0.00000000000E+00  0.00000000000E+00  0.45593999997E+02  0.45594000000E+02  0.51100000000E-03 0.  1.
         11   -1    0    0    0    0 -0.00000000000E+00 -0.00000000000E+00 -0.45593999997E+02  0.45594000000E+02  0.51100000000E-03 0. -1.
    9900012    2    1    2    0    0  0.60127548825E+01 -0.40597567203E+02 -0.14117629080E+02  0.47787272645E+02  0.20000007299E+02 0.  0.
        -12    1    1    2    0    0 -0.60127548825E+01  0.40597567203E+02  0.14117629080E+02  0.43400727355E+02  0.00000000000E+00 0.  1.
         11    1    3    3    0    0  0.40590526954E+01 -0.22405247140E+02 -0.15661027737E+02  0.27635824544E+02  0.51100000000E-03 0. -1.
        -11    1    3    3    0    0  0.49083000726E+01 -0.13928406687E+02  0.21688091239E+01  0.14926341002E+02  0.51100000000E-03 0.  1.
         12    1    3    3    0    0 -0.29545978855E+01 -0.42639133760E+01 -0.62541046689E+00  0.52251070989E+01  0.00000000000E+00 0. -1.
</event>
<event>
 7    1  0.2685294E-009  0.4778727E+02  0.7816164E-02  0.1312668E+00
        -11   -1    0    0    0    0  0.00000000000E+00  0.00000000000E+00  0.45593999997E+02  0.45594000000E+02  0.51100000000E-03 0.  1.
         11   -1    0    0    0    0 -0.00000000000E+00 -0.00000000000E+00 -0.45593999997E+02  0.45594000000E+02  0.51100000000E-03 0. -1.
    9900012    2    1    2    0    0  0.28088710117E+02 -0.18094128817E+02 -0.27699275605E+02  0.47787274169E+02  0.20000014245E+02 0.  0.
        -12    1    1    2    0    0 -0.28088710117E+02  0.18094128817E+02  0.27699275605E+02  0.43400725831E+02  0.00000000000E+00 0.  1.
         11    1    3    3    0    0  0.10412577244E+02 -0.73621949465E+01 -0.58286556526E+01  0.14021301875E+02  0.51100000000E-03 0. -1.
        -11    1    3    3    0    0  0.51783711997E+01  0.18279190171E+01  0.16045032436E+00  0.54938657412E+01  0.51100000000E-03 0.  1.
        -12    1    3    3    0    0  0.12497761673E+02 -0.12559852887E+02 -0.22031070276E+02  0.28272106552E+02  0.00000000000E+00 0.  1.
</event>
<event>
 7    1  0.2685294E-009  0.4778727E+02  0.7816164E-02  0.1312668E+00
        -11   -1    0    0    0    0  0.00000000000E+00  0.00000000000E+00  0.45593999997E+02  0.45594000000E+02  0.51100000000E-03 0.  1.
         11   -1    0    0    0    0 -0.00000000000E+00 -0.00000000000E+00 -0.45593999997E+02  0.45594000000E+02  0.51100000000E-03 0. -1.
    9900012    2    1    2    0    0  0.40367547792E+02  0.76383619933E+01 -0.13990705974E+02  0.47787270256E+02  0.19999996404E+02 0.  0.
        -12    1    1    2    0    0 -0.40367547792E+02 -0.76383619933E+01  0.13990705974E+02  0.43400729744E+02  0.00000000000E+00 0.  1.
         11    1    3    3    0    0  0.12292637546E+02  0.48568786053E+00 -0.62238010590E+01  0.13786969588E+02  0.51100000000E-03 0. -1.
        -11    1    3    3    0    0  0.28675716676E+02  0.56480628292E+01 -0.34991531123E+01  0.29435376902E+02  0.51100000000E-03 0.  1.
        -12    1    3    3    0    0 -0.60080642964E+00  0.15046113036E+01 -0.42677518025E+01  0.45649237659E+01  0.00000000000E+00 0.  1.
</event>
<event>
 7    1  0.2685294E-009  0.4778722E+02  0.7816164E-02  0.1312668E+00
        -11   -1    0    0    0    0  0.00000000000E+00  0.00000000000E+00  0.45593999997E+02  0.45594000000E+02  0.51100000000E-03 0.  1.
         11   -1    0    0    0    0 -0.00000000000E+00 -0.00000000000E+00 -0.45593999997E+02  0.45594000000E+02  0.51100000000E-03 0. -1.
    9900012    2    1    2    0    0  0.10879508780E+02 -0.50174779631E+01 -0.41714377981E+02  0.47787215137E+02  0.19999745093E+02 0.  0.
        -12    1    1    2    0    0 -0.10879508780E+02  0.50174779631E+01  0.41714377981E+02  0.43400784863E+02  0.00000000000E+00 0.  1.
         11    1    3    3    0    0 -0.38041644775E+01  0.59090578182E+00 -0.66808135750E+01  0.77106489545E+01  0.51100000000E-03 0. -1.
        -11    1    3    3    0    0  0.11095013430E+02  0.96827723597E+00 -0.14959924142E+02  0.18650367676E+02  0.51100000000E-03 0.  1.
        -12    1    3    3    0    0  0.35886598266E+01 -0.65766609809E+01 -0.20073640264E+02  0.21426198507E+02  0.00000000000E+00 0.  1.
</event>
<event>
 7    1  0.2685294E-009  0.4778727E+02  0.7816164E-02  0.1312668E+00
        -11   -1    0    0    0    0  0.00000000000E+00  0.00000000000E+00  0.45593999997E+02  0.45594000000E+02  0.51100000000E-03 0.  1.
         11   -1    0    0    0    0 -0.00000000000E+00 -0.00000000000E+00 -0.45593999997E+02  0.45594000000E+02  0.51100000000E-03 0. -1.
    9900012    2    1    2    0    0 -0.25257927046E+02  0.10348071399E+02 -0.33742819235E+02  0.47787270625E+02  0.19999998088E+02 0.  0.
        -12    1    1    2    0    0  0.25257927046E+02 -0.10348071399E+02  0.33742819235E+02  0.43400729375E+02  0.00000000000E+00 0.  1.
         11    1    3    3    0    0 -0.15725509438E+02 -0.14607295962E+01 -0.21414322824E+02  0.26608243089E+02  0.51100000000E-03 0. -1.
        -11    1    3    3    0    0 -0.29620143914E+01  0.95609754578E+01 -0.54153366174E+01  0.11380318620E+02  0.51100000000E-03 0.  1.
        -12    1    3    3    0    0 -0.65704032166E+01  0.22478255379E+01 -0.69131597937E+01  0.97987089155E+01  0.00000000000E+00 0.  1.
</event>
<event>
 7    1  0.2685294E-009  0.4778727E+02  0.7816164E-02  0.1312668E+00
        -11   -1    0    0    0    0  0.00000000000E+00  0.00000000000E+00  0.45593999997E+02  0.45594000000E+02  0.51100000000E-03 0.  1.
         11   -1    0    0    0    0 -0.00000000000E+00 -0.00000000000E+00 -0.45593999997E+02  0.45594000000E+02  0.51100000000E-03 0. -1.
    9900012    2    1    2    0    0 -0.90117089647E+01 -0.25503341574E+02 -0.33941005774E+02  0.47787271863E+02  0.20000003732E+02 0.  0.
        -12    1    1    2    0    0  0.90117089647E+01  0.25503341574E+02  0.33941005774E+02  0.43400728137E+02  0.00000000000E+00 0.  1.
         11    1    3    3    0    0  0.41691758917E+01 -0.56112143353E+01 -0.35981796916E+01  0.78622294095E+01  0.51100000000E-03 0. -1.
        -11    1    3    3    0    0 -0.24443847978E+00  0.11583131326E+01 -0.20052673006E+01  0.23286340828E+01  0.51100000000E-03 0.  1.
         12    1    3    3    0    0 -0.12936446377E+02 -0.21050440371E+02 -0.28337558782E+02  0.37596408371E+02  0.00000000000E+00 0. -1.
</event>
<event>
 7    1  0.2685294E-009  0.4778728E+02  0.7816164E-02  0.1312668E+00
        -11   -1    0    0    0    0  0.00000000000E+00  0.00000000000E+00  0.45593999997E+02  0.45594000000E+02  0.51100000000E-03 0.  1.
         11   -1    0    0    0    0 -0.00000000000E+00 -0.00000000000E+00 -0.45593999997E+02  0.45594000000E+02  0.51100000000E-03 0. -1.
    9900012    2    1    2    0    0 -0.25653812009E+02 -0.34925031829E+02  0.23972746524E+01  0.47787275990E+02  0.20000022550E+02 0.  0.
        -12    1    1    2    0    0  0.25653812009E+02  0.34925031829E+02 -0.23972746524E+01  0.43400724010E+02  0.00000000000E+00 0.  1.
         11    1    3    3    0    0 -0.24146857847E+02 -0.24418371760E+02  0.26100485839E+01  0.34440382942E+02  0.51100000000E-03 0. -1.
        -11    1    3    3    0    0 -0.20958851169E+01 -0.29764470074E+01  0.33936887564E+01  0.49768559199E+01  0.51100000000E-03 0.  1.
         12    1    3    3    0    0  0.58893095493E+00 -0.75302130613E+01 -0.36064626879E+01  0.83700371288E+01  0.00000000000E+00 0. -1.
</event>
<event>
 7    1  0.2685294E-009  0.4778727E+02  0.7816164E-02  0.1312668E+00
        -11   -1    0    0    0    0  0.00000000000E+00  0.00000000000E+00  0.45593999997E+02  0.45594000000E+02  0.51100000000E-03 0.  1.
         11   -1    0    0    0    0 -0.00000000000E+00 -0.00000000000E+00 -0.45593999997E+02  0.45594000000E+02  0.51100000000E-03 0. -1.
    9900012    2    1    2    0    0 -0.17397681372E+02  0.20480426521E+02 -0.34080729612E+02  0.47787270531E+02  0.19999997657E+02 0.  0.
        -12    1    1    2    0    0  0.17397681372E+02 -0.20480426521E+02  0.34080729612E+02  0.43400729469E+02  0.00000000000E+00 0.  1.
         11    1    3    3    0    0 -0.60647091334E+01  0.16880733307E+02 -0.12344478315E+02  0.21774434527E+02  0.51100000000E-03 0. -1.
        -11    1    3    3    0    0 -0.10147938467E+02  0.50193731967E+00 -0.11980760954E+02  0.15708953801E+02  0.51100000000E-03 0.  1.
        -12    1    3    3    0    0 -0.11850337714E+01  0.30977558948E+01 -0.97554903425E+01  0.10303882203E+02  0.00000000000E+00 0.  1.
</event>
<event>
 7    1  0.2685294E-009  0.4778727E+02  0.7816164E-02  0.1312668E+00
        -11   -1    0    0    0    0  0.00000000000E+00  0.00000000000E+00  0.45593999997E+02  0.45594000000E+02  0.51100000000E-03 0. -1.
         11   -1    0    0    0    0 -0.00000000000E+00 -0.00000000000E+00 -0.45593999997E+02  0.45594000000E+02  0.51100000000E-03 0.  1.
    9900012    2    1    2    0    0 -0.20216159621E+00  0.37273473769E+02  0.22232196637E+02  0.47787270934E+02  0.19999999496E+02 0.  0.
        -12    1    1    2    0    0  0.20216159621E+00 -0.37273473769E+02 -0.22232196637E+02  0.43400729066E+02  0.00000000000E+00 0.  1.
         11    1    3    3    0    0 -0.48540580220E-01  0.25414773514E+02  0.22619160292E+02  0.34022631902E+02  0.51100000000E-03 0. -1.
        -11    1    3    3    0    0  0.32978049900E+01  0.60301014942E+01 -0.10727246375E+01  0.69561756872E+01  0.51100000000E-03 0.  1.
        -12    1    3    3    0    0 -0.34514260060E+01  0.58285987614E+01  0.68576098319E+00  0.68084633451E+01  0.00000000000E+00 0.  1.
</event>
<event>
 7    1  0.2685294E-009  0.4778726E+02  0.7816164E-02  0.1312668E+00
        -11   -1    0    0    0    0  0.00000000000E+00  0.00000000000E+00  0.45593999997E+02  0.45594000000E+02  0.51100000000E-03 0.  1.
         11   -1    0    0    0    0 -0.00000000000E+00 -0.00000000000E+00 -0.45593999997E+02  0.45594000000E+02  0.51100000000E-03 0. -1.
    9900012    2    1    2    0    0  0.41744522733E+02 -0.11309615285E+02  0.36209793463E+01  0.47787261901E+02  0.19999958314E+02 0.  0.
        -12    1    1    2    0    0 -0.41744522733E+02  0.11309615285E+02 -0.36209793463E+01  0.43400738099E+02  0.00000000000E+00 0.  1.
         11    1    3    3    0    0  0.21084289149E+02 -0.32786047528E+01 -0.94833244913E+00  0.21358741366E+02  0.51100000000E-03 0. -1.
        -11    1    3    3    0    0  0.45558330478E+01 -0.24769669253E+01  0.75250358404E+01  0.91387715022E+01  0.51100000000E-03 0.  1.
        -12    1    3    3    0    0  0.16104400536E+02 -0.55540436066E+01 -0.29557240450E+01  0.17289749033E+02  0.00000000000E+00 0.  1.
</event>
<event>
 7    1  0.2685294E-009  0.4778727E+02  0.7816164E-02  0.1312668E+00
        -11   -1    0    0    0    0  0.00000000000E+00  0.00000000000E+00  0.45593999997E+02  0.45594000000E+02  0.51100000000E-03 0.  1.
         11   -1    0    0    0    0 -0.00000000000E+00 -0.00000000000E+00 -0.45593999997E+02  0.45594000000E+02  0.51100000000E-03 0. -1.
    9900012    2    1    2    0    0 -0.12136890169E+02 -0.41576833773E+02 -0.27723762591E+01  0.47787270978E+02  0.19999999696E+02 0.  0.
        -12    1    1    2    0    0  0.12136890169E+02  0.41576833773E+02  0.27723762591E+01  0.43400729022E+02  0.00000000000E+00 0.  1.
         11    1    3    3    0    0  0.30628858135E+01 -0.12057045812E+02 -0.99343987016E+00  0.12479605212E+02  0.51100000000E-03 0. -1.
        -11    1    3    3    0    0 -0.87390119955E+01 -0.16821316832E+02  0.48901132878E+01  0.19576522645E+02  0.51100000000E-03 0.  1.
        -12    1    3    3    0    0 -0.64607639872E+01 -0.12698471129E+02 -0.66690496768E+01  0.15731143121E+02  0.00000000000E+00 0.  1.
</event>
<event>
 7    1  0.2685294E-009  0.4778727E+02  0.7816164E-02  0.1312668E+00
        -11   -1    0    0    0    0  0.00000000000E+00  0.00000000000E+00  0.45593999997E+02  0.45594000000E+02  0.51100000000E-03 0.  1.
         11   -1    0    0    0    0 -0.00000000000E+00 -0.00000000000E+00 -0.45593999997E+02  0.45594000000E+02  0.51100000000E-03 0. -1.
    9900012    2    1    2    0    0 -0.12762446922E+02  0.62828344807E+01 -0.41003283899E+02  0.47787270155E+02  0.19999995944E+02 0.  0.
        -12    1    1    2    0    0  0.12762446922E+02 -0.62828344807E+01  0.41003283899E+02  0.43400729845E+02  0.00000000000E+00 0.  1.
         11    1    3    3    0    0 -0.89735933916E+01  0.10523357771E+02 -0.35975334762E+02  0.38542069854E+02  0.51100000000E-03 0. -1.
        -11    1    3    3    0    0 -0.16701371402E+01 -0.43231887137E+01 -0.10721476010E+01  0.47569758735E+01  0.51100000000E-03 0.  1.
        -12    1    3    3    0    0 -0.21187163904E+01  0.82665423192E-01 -0.39558015364E+01  0.44882244273E+01  0.00000000000E+00 0.  1.
</event>
<event>
 7    1  0.2685294E-009  0.4778727E+02  0.7816164E-02  0.1312668E+00
        -11   -1    0    0    0    0  0.00000000000E+00  0.00000000000E+00  0.45593999997E+02  0.45594000000E+02  0.51100000000E-03 0.  1.
         11   -1    0    0    0    0 -0.00000000000E+00 -0.00000000000E+00 -0.45593999997E+02  0.45594000000E+02  0.51100000000E-03 0. -1.
    9900012    2    1    2    0    0  0.17702123489E+02 -0.49815768185E+01 -0.39312110582E+02  0.47787270490E+02  0.19999997471E+02 0.  0.
        -12    1    1    2    0    0 -0.17702123489E+02  0.49815768185E+01  0.39312110582E+02  0.43400729510E+02  0.00000000000E+00 0.  1.
         11    1    3    3    0    0  0.98780777530E+01 -0.90542075352E+01 -0.21975884985E+02  0.25738970751E+02  0.51100000000E-03 0. -1.
        -11    1    3    3    0    0  0.92489092362E+01  0.33607720193E+01 -0.83021602153E+01  0.12874897092E+02  0.51100000000E-03 0.  1.
        -12    1    3    3    0    0 -0.14248635007E+01  0.71185869743E+00 -0.90340653821E+01  0.91734026473E+01  0.00000000000E+00 0.  1.
</event>
<event>
 7    1  0.2685294E-009  0.4778726E+02  0.7816164E-02  0.1312668E+00
        -11   -1    0    0    0    0  0.00000000000E+00  0.00000000000E+00  0.45593999997E+02  0.45594000000E+02  0.51100000000E-03 0. -1.
         11   -1    0    0    0    0 -0.00000000000E+00 -0.00000000000E+00 -0.45593999997E+02  0.45594000000E+02  0.51100000000E-03 0.  1.
    9900012    2    1    2    0    0 -0.26712370201E+02 -0.34046486392E+02  0.33030839218E+01  0.47787258983E+02  0.19999945009E+02 0.  0.
        -12    1    1    2    0    0  0.26712370201E+02  0.34046486392E+02 -0.33030839218E+01  0.43400741017E+02  0.00000000000E+00 0.  1.
         11    1    3    3    0    0 -0.62641904011E+01 -0.12293071955E+02  0.82275516463E+01  0.16064006531E+02  0.51100000000E-03 0. -1.
        -11    1    3    3    0    0 -0.21495462548E+02 -0.20638602778E+02 -0.45125066763E+01  0.30139169722E+02  0.51100000000E-03 0.  1.
        -12    1    3    3    0    0  0.10472827485E+01 -0.11148116599E+01 -0.41196104820E+00  0.15840827307E+01  0.00000000000E+00 0.  1.
</event>
<event>
 7    1  0.2685294E-009  0.4778730E+02  0.7816164E-02  0.1312668E+00
        -11   -1    0    0    0    0  0.00000000000E+00  0.00000000000E+00  0.45593999997E+02  0.45594000000E+02  0.51100000000E-03 0.  1.
         11   -1    0    0    0    0 -0.00000000000E+00 -0.00000000000E+00 -0.45593999997E+02  0.45594000000E+02  0.51100000000E-03 0. -1.
    9900012    2    1    2    0    0 -0.31767306924E+00  0.41927861302E+02 -0.11206011285E+02  0.47787295415E+02  0.20000111114E+02 0.  0.
        -12    1    1    2    0    0  0.31767306924E+00 -0.41927861302E+02  0.11206011285E+02  0.43400704585E+02  0.00000000000E+00 0.  1.
         11    1    3    3    0    0  0.56908254684E+01  0.92528255595E+01 -0.82146955661E+01  0.13619159256E+02  0.51100000000E-03 0. -1.
        -11    1    3    3    0    0 -0.22901766680E+01  0.24314184918E+01 -0.14967025627E+01  0.36601671922E+01  0.51100000000E-03 0.  1.
         12    1    3    3    0    0 -0.37183218696E+01  0.30243617251E+02 -0.14946131566E+01  0.30507968966E+02  0.00000000000E+00 0. -1.
</event>
<event>
 7    1  0.2685294E-009  0.4778727E+02  0.7816164E-02  0.1312668E+00
        -11   -1    0    0    0    0  0.00000000000E+00  0.00000000000E+00  0.45593999997E+02  0.45594000000E+02  0.51100000000E-03 0.  1.
         11   -1    0    0    0    0 -0.00000000000E+00 -0.00000000000E+00 -0.45593999997E+02  0.45594000000E+02  0.51100000000E-03 0. -1.
    9900012    2    1    2    0    0 -0.40547604734E+02  0.49683192975E+01 -0.14657101588E+02  0.47787273356E+02  0.20000010537E+02 0.  0.
        -12    1    1    2    0    0  0.40547604734E+02 -0.49683192975E+01  0.14657101588E+02  0.43400726644E+02  0.00000000000E+00 0.  1.
         11    1    3    3    0    0 -0.18899768583E+02  0.73794105652E+01 -0.13876494742E+02  0.24580766045E+02  0.51100000000E-03 0. -1.
        -11    1    3    3    0    0 -0.38479634747E+01 -0.23313332566E+01  0.24389130113E+01  0.51176395529E+01  0.51100000000E-03 0.  1.
         12    1    3    3    0    0 -0.17799872677E+02 -0.79758011068E-01 -0.32195198570E+01  0.18088867758E+02  0.00000000000E+00 0. -1.
</event>
<event>
 7    1  0.2685294E-009  0.4778727E+02  0.7816164E-02  0.1312668E+00
        -11   -1    0    0    0    0  0.00000000000E+00  0.00000000000E+00  0.45593999997E+02  0.45594000000E+02  0.51100000000E-03 0.  1.
         11   -1    0    0    0    0 -0.00000000000E+00 -0.00000000000E+00 -0.45593999997E+02  0.45594000000E+02  0.51100000000E-03 0. -1.
    9900012    2    1    2    0    0  0.13556727632E+02  0.15804208849E+02 -0.38079723375E+02  0.47787271737E+02  0.20000003157E+02 0.  0.
        -12    1    1    2    0    0 -0.13556727632E+02 -0.15804208849E+02  0.38079723375E+02  0.43400728263E+02  0.00000000000E+00 0.  1.
         11    1    3    3    0    0  0.33415789490E+01  0.94899047706E+01 -0.15051342846E+02  0.18104346554E+02  0.51100000000E-03 0. -1.
        -11    1    3    3    0    0 -0.26059607339E+01  0.44646155022E+01 -0.34786005362E+01  0.62309296964E+01  0.51100000000E-03 0.  1.
        -12    1    3    3    0    0  0.12821109417E+02  0.18496885764E+01 -0.19549779993E+02  0.23451995486E+02  0.00000000000E+00 0.  1.
</event>
<event>
 7    1  0.2685294E-009  0.4778727E+02  0.7816164E-02  0.1312668E+00
        -11   -1    0    0    0    0  0.00000000000E+00  0.00000000000E+00  0.45593999997E+02  0.45594000000E+02  0.51100000000E-03 0. -1.
         11   -1    0    0    0    0 -0.00000000000E+00 -0.00000000000E+00 -0.45593999997E+02  0.45594000000E+02  0.51100000000E-03 0.  1.
    9900012    2    1    2    0    0  0.25324126199E+02  0.32378505103E+02  0.13926389452E+02  0.47787270932E+02  0.19999999490E+02 0.  0.
        -12    1    1    2    0    0 -0.25324126199E+02 -0.32378505103E+02 -0.13926389452E+02  0.43400729068E+02  0.00000000000E+00 0.  1.
         11    1    3    3    0    0  0.74814278744E+01  0.13372854330E+02  0.12387684339E+02  0.19704307131E+02  0.51100000000E-03 0. -1.
        -11    1    3    3    0    0  0.10517778519E+02  0.10914446236E+02 -0.42317504377E+01  0.15737106267E+02  0.51100000000E-03 0.  1.
        -12    1    3    3    0    0  0.73249198051E+01  0.80912045368E+01  0.57704555502E+01  0.12345857535E+02  0.00000000000E+00 0.  1.
</event>
<event>
 7    1  0.2685294E-009  0.4778727E+02  0.7816164E-02  0.1312668E+00
        -11   -1    0    0    0    0  0.00000000000E+00  0.00000000000E+00  0.45593999997E+02  0.45594000000E+02  0.51100000000E-03 0. -1.
         11   -1    0    0    0    0 -0.00000000000E+00 -0.00000000000E+00 -0.45593999997E+02  0.45594000000E+02  0.51100000000E-03 0.  1.
    9900012    2    1    2    0    0 -0.36917546602E+01  0.39533140816E+02  0.17524988927E+02  0.47787268300E+02  0.19999987485E+02 0.  0.
        -12    1    1    2    0    0  0.36917546602E+01 -0.39533140816E+02 -0.17524988927E+02  0.43400731700E+02  0.00000000000E+00 0.  1.
         11    1    3    3    0    0 -0.65540896328E+01  0.13203633853E+02  0.42845100771E+00  0.14747054227E+02  0.51100000000E-03 0. -1.
        -11    1    3    3    0    0  0.18389980201E+01  0.59811660961E+01  0.93341079143E+01  0.11237518961E+02  0.51100000000E-03 0.  1.
         12    1    3    3    0    0  0.10233369526E+01  0.20348340867E+02  0.77624300046E+01  0.21802695111E+02  0.00000000000E+00 0. -1.
</event>
<event>
 7    1  0.2685294E-009  0.4778727E+02  0.7816164E-02  0.1312668E+00
        -11   -1    0    0    0    0  0.00000000000E+00  0.00000000000E+00  0.45593999997E+02  0.45594000000E+02  0.51100000000E-03 0.  1.
         11   -1    0    0    0    0 -0.00000000000E+00 -0.00000000000E+00 -0.45593999997E+02  0.45594000000E+02  0.51100000000E-03 0. -1.
    9900012    2    1    2    0    0  0.15865074588E+01  0.42689726246E+02 -0.76611732987E+01  0.47787270638E+02  0.19999998147E+02 0.  0.
        -12    1    1    2    0    0 -0.15865074588E+01 -0.42689726246E+02  0.76611732987E+01  0.43400729362E+02  0.00000000000E+00 0.  1.
         11    1    3    3    0    0 -0.23247946000E+01  0.24441737513E+02 -0.11788921266E+01  0.24580337457E+02  0.51100000000E-03 0. -1.
        -11    1    3    3    0    0  0.27617234665E+01  0.89813615917E+00 -0.49662986372E+01  0.57530763493E+01  0.51100000000E-03 0.  1.
        -12    1    3    3    0    0  0.11495785923E+01  0.17349852573E+02 -0.15159825349E+01  0.17453856832E+02  0.00000000000E+00 0.  1.
</event>
<event>
 7    1  0.2685294E-009  0.4778728E+02  0.7816164E-02  0.1312668E+00
        -11   -1    0    0    0    0  0.00000000000E+00  0.00000000000E+00  0.45593999997E+02  0.45594000000E+02  0.51100000000E-03 0.  1.
         11   -1    0    0    0    0 -0.00000000000E+00 -0.00000000000E+00 -0.45593999997E+02  0.45594000000E+02  0.51100000000E-03 0. -1.
    9900012    2    1    2    0    0 -0.40433665890E+01 -0.39940335471E+02 -0.16493745859E+02  0.47787275773E+02  0.20000021561E+02 0.  0.
        -12    1    1    2    0    0  0.40433665890E+01  0.39940335471E+02  0.16493745859E+02  0.43400724227E+02  0.00000000000E+00 0.  1.
         11    1    3    3    0    0 -0.76177497334E+01 -0.25623784086E+02 -0.89281115700E+01  0.28183676097E+02  0.51100000000E-03 0. -1.
        -11    1    3    3    0    0  0.25916070293E+01  0.50561746294E+00  0.51954865661E+00  0.26910977464E+01  0.51100000000E-03 0.  1.
         12    1    3    3    0    0  0.98277611512E+00 -0.14822168848E+02 -0.80851829453E+01  0.16912501929E+02  0.00000000000E+00 0. -1.
</event>
<event>
 7    1  0.2685294E-009  0.4778727E+02  0.7816164E-02  0.1312668E+00
        -11   -1    0    0    0    0  0.00000000000E+00  0.00000000000E+00  0.45593999997E+02  0.45594000000E+02  0.51100000000E-03 0.  1.
         11   -1    0    0    0    0 -0.00000000000E+00 -0.00000000000E+00 -0.45593999997E+02  0.45594000000E+02  0.51100000000E-03 0. -1.
    9900012    2    1    2    0    0 -0.23635963763E+02 -0.22824787459E+02 -0.28354776974E+02  0.47787273246E+02  0.20000010039E+02 0.  0.
        -12    1    1    2    0    0  0.23635963763E+02  0.22824787459E+02  0.28354776974E+02  0.43400726754E+02  0.00000000000E+00 0.  1.
         11    1    3    3    0    0  0.42519247885E+00  0.70276817742E+00 -0.74845702480E+00  0.11112425182E+01  0.51100000000E-03 0. -1.
        -11    1    3    3    0    0 -0.54740980740E+01 -0.29726833551E+01 -0.14978360624E+02  0.16222018472E+02  0.51100000000E-03 0.  1.
        -12    1    3    3    0    0 -0.18587058167E+02 -0.20554872281E+02 -0.12627959325E+02  0.30454012257E+02  0.00000000000E+00 0.  1.
</event>
<event>
 7    1  0.2685294E-009  0.4778727E+02  0.7816164E-02  0.1312668E+00
        -11   -1    0    0    0    0  0.00000000000E+00  0.00000000000E+00  0.45593999997E+02  0.45594000000E+02  0.51100000000E-03 0.  1.
         11   -1    0    0    0    0 -0.00000000000E+00 -0.00000000000E+00 -0.45593999997E+02  0.45594000000E+02  0.51100000000E-03 0. -1.
    9900012    2    1    2    0    0  0.20980282563E+02 -0.95325221867E+01 -0.36777470307E+02  0.47787267773E+02  0.19999985085E+02 0.  0.
        -12    1    1    2    0    0 -0.20980282563E+02  0.95325221867E+01  0.36777470307E+02  0.43400732227E+02  0.00000000000E+00 0.  1.
         11    1    3    3    0    0  0.82858102856E+01  0.44692448983E+00 -0.22753088942E+02  0.24218948166E+02  0.51100000000E-03 0. -1.
        -11    1    3    3    0    0 -0.59339686911E+00 -0.12662972380E+01  0.98492304886E+00  0.17104684190E+01  0.51100000000E-03 0.  1.
         12    1    3    3    0    0  0.13287869147E+02 -0.87131494385E+01 -0.15009304413E+02  0.21857851188E+02  0.00000000000E+00 0. -1.
</event>
<event>
 7    1  0.2685294E-009  0.4778728E+02  0.7816164E-02  0.1312668E+00
        -11   -1    0    0    0    0  0.00000000000E+00  0.00000000000E+00  0.45593999997E+02  0.45594000000E+02  0.51100000000E-03 0.  1.
         11   -1    0    0    0    0 -0.00000000000E+00 -0.00000000000E+00 -0.45593999997E+02  0.45594000000E+02  0.51100000000E-03 0. -1.
    9900012    2    1    2    0    0 -0.16168856061E+02 -0.11249823361E+02 -0.38673406232E+02  0.47787276716E+02  0.20000025858E+02 0.  0.
        -12    1    1    2    0    0  0.16168856061E+02  0.11249823361E+02  0.38673406232E+02  0.43400723284E+02  0.00000000000E+00 0.  1.
         11    1    3    3    0    0 -0.79126102576E+01 -0.81243431518E+01 -0.23953438276E+02  0.26502482115E+02  0.51100000000E-03 0. -1.
        -11    1    3    3    0    0  0.11620585269E+00  0.35956490756E+01 -0.76559190214E+00  0.36780874509E+01  0.51100000000E-03 0.  1.
        -12    1    3    3    0    0 -0.83724516565E+01 -0.67211292852E+01 -0.13954376054E+02  0.17606707150E+02  0.00000000000E+00 0.  1.
</event>
<event>
 7    1  0.2685294E-009  0.4778727E+02  0.7816164E-02  0.1312668E+00
        -11   -1    0    0    0    0  0.00000000000E+00  0.00000000000E+00  0.45593999997E+02  0.45594000000E+02  0.51100000000E-03 0.  1.
         11   -1    0    0    0    0 -0.00000000000E+00 -0.00000000000E+00 -0.45593999997E+02  0.45594000000E+02  0.51100000000E-03 0. -1.
    9900012    2    1    2    0    0 -0.40792763542E+02 -0.12278397003E+02  0.82954668718E+01  0.47787270041E+02  0.19999995425E+02 0.  0.
        -12    1    1    2    0    0  0.40792763542E+02  0.12278397003E+02 -0.82954668718E+01  0.43400729959E+02  0.00000000000E+00 0.  1.
         11    1    3    3    0    0 -0.10913955144E+00 -0.43477365822E+01 -0.16846564906E+01  0.46639889132E+01  0.51100000000E-03 0. -1.
        -11    1    3    3    0    0 -0.31027665658E+02 -0.31770988215E+01  0.74327339441E+01  0.32063304996E+02  0.51100000000E-03 0.  1.
        -12    1    3    3    0    0 -0.96559583321E+01 -0.47535615989E+01  0.25473894182E+01  0.11059976132E+02  0.00000000000E+00 0.  1.
</event>
<event>
 7    1  0.2685294E-009  0.4778727E+02  0.7816164E-02  0.1312668E+00
        -11   -1    0    0    0    0  0.00000000000E+00  0.00000000000E+00  0.45593999997E+02  0.45594000000E+02  0.51100000000E-03 0.  1.
         11   -1    0    0    0    0 -0.00000000000E+00 -0.00000000000E+00 -0.45593999997E+02  0.45594000000E+02  0.51100000000E-03 0. -1.
    9900012    2    1    2    0    0  0.32671326968E+02  0.16701725592E+02 -0.23178870112E+02  0.47787271166E+02  0.20000000556E+02 0.  0.
        -12    1    1    2    0    0 -0.32671326968E+02 -0.16701725592E+02  0.23178870112E+02  0.43400728834E+02  0.00000000000E+00 0.  1.
         11    1    3    3    0    0  0.44158814287E+01  0.10182083933E+02 -0.33185522588E+01  0.11583938508E+02  0.51100000000E-03 0.  1.
        -11    1    3    3    0    0  0.12609218107E+02 -0.14421641555E+01 -0.90275601669E+01  0.15574628777E+02  0.51100000000E-03 0. -1.
        -12    1    3    3    0    0  0.15646227433E+02  0.79618058145E+01 -0.10832757686E+02  0.20628703881E+02  0.00000000000E+00 0.  1.
</event>
<event>
 7    1  0.2685294E-009  0.4778730E+02  0.7816164E-02  0.1312668E+00
        -11   -1    0    0    0    0  0.00000000000E+00  0.00000000000E+00  0.45593999997E+02  0.45594000000E+02  0.51100000000E-03 0.  1.
         11   -1    0    0    0    0 -0.00000000000E+00 -0.00000000000E+00 -0.45593999997E+02  0.45594000000E+02  0.51100000000E-03 0. -1.
    9900012    2    1    2    0    0  0.27814132473E+02 -0.20200047968E+02 -0.26494387714E+02  0.47787303192E+02  0.20000146572E+02 0.  0.
        -12    1    1    2    0    0 -0.27814132473E+02  0.20200047968E+02  0.26494387714E+02  0.43400696808E+02  0.00000000000E+00 0.  1.
         11    1    3    3    0    0  0.58638996590E+01 -0.60107207210E+01 -0.12996877833E+02  0.15473620018E+02  0.51100000000E-03 0. -1.
        -11    1    3    3    0    0  0.14878864276E+02 -0.12432610999E+02 -0.31278893683E+01  0.19640114831E+02  0.51100000000E-03 0.  1.
        -12    1    3    3    0    0  0.70713685374E+01 -0.17567162481E+01 -0.10369620513E+02  0.12673568343E+02  0.00000000000E+00 0.  1.
</event>
<event>
 7    1  0.2685294E-009  0.4778727E+02  0.7816164E-02  0.1312668E+00
        -11   -1    0    0    0    0  0.00000000000E+00  0.00000000000E+00  0.45593999997E+02  0.45594000000E+02  0.51100000000E-03 0.  1.
         11   -1    0    0    0    0 -0.00000000000E+00 -0.00000000000E+00 -0.45593999997E+02  0.45594000000E+02  0.51100000000E-03 0. -1.
    9900012    2    1    2    0    0  0.22142450383E+02 -0.37305767454E+02  0.12706617571E+01  0.47787274481E+02  0.20000015667E+02 0.  0.
        -12    1    1    2    0    0 -0.22142450383E+02  0.37305767454E+02 -0.12706617571E+01  0.43400725519E+02  0.00000000000E+00 0.  1.
         11    1    3    3    0    0  0.58965423642E+01 -0.69876176264E+01  0.11647429771E+01  0.92169755565E+01  0.51100000000E-03 0. -1.
        -11    1    3    3    0    0  0.75303931114E+01 -0.68607449961E+01  0.72999041726E+01  0.12532567315E+02  0.51100000000E-03 0.  1.
        -12    1    3    3    0    0  0.87155149080E+01 -0.23457404831E+02 -0.71939853926E+01  0.26037731609E+02  0.00000000000E+00 0.  1.
</event>
<event>
 7    1  0.2685294E-009  0.4778728E+02  0.7816164E-02  0.1312668E+00
        -11   -1    0    0    0    0  0.00000000000E+00  0.00000000000E+00  0.45593999997E+02  0.45594000000E+02  0.51100000000E-03 0.  1.
         11   -1    0    0    0    0 -0.00000000000E+00 -0.00000000000E+00 -0.45593999997E+02  0.45594000000E+02  0.51100000000E-03 0. -1.
    9900012    2    1    2    0    0  0.21331809086E+02  0.35175150170E+02 -0.13830585791E+02  0.47787281438E+02  0.20000047390E+02 0.  0.
        -12    1    1    2    0    0 -0.21331809086E+02 -0.35175150170E+02  0.13830585791E+02  0.43400718562E+02  0.00000000000E+00 0.  1.
         11    1    3    3    0    0  0.39271555752E+01  0.17878227376E+02 -0.11595190824E+02  0.21667995190E+02  0.51100000000E-03 0.  1.
        -11    1    3    3    0    0  0.80810031733E+01  0.71700650805E+01  0.32797753237E+01  0.11290233478E+02  0.51100000000E-03 0. -1.
         12    1    3    3    0    0  0.93236503377E+01  0.10126857713E+02 -0.55151702901E+01  0.14829052771E+02  0.00000000000E+00 0. -1.
</event>
<event>
 7    1  0.2685294E-009  0.4778727E+02  0.7816164E-02  0.1312668E+00
        -11   -1    0    0    0    0  0.00000000000E+00  0.00000000000E+00  0.45593999997E+02  0.45594000000E+02  0.51100000000E-03 0.  1.
         11   -1    0    0    0    0 -0.00000000000E+00 -0.00000000000E+00 -0.45593999997E+02  0.45594000000E+02  0.51100000000E-03 0. -1.
    9900012    2    1    2    0    0  0.19328523825E+02  0.26976139977E+02 -0.27969970586E+02  0.47787271712E+02  0.20000003045E+02 0.  0.
        -12    1    1    2    0    0 -0.19328523825E+02 -0.26976139977E+02  0.27969970586E+02  0.43400728288E+02  0.00000000000E+00 0.  1.
         11    1    3    3    0    0  0.11259199733E+02  0.31067485073E+01 -0.14048158452E+02  0.18269434065E+02  0.51100000000E-03 0. -1.
        -11    1    3    3    0    0  0.88561842819E+01  0.17831541589E+02 -0.10052907984E+02  0.22303740374E+02  0.51100000000E-03 0.  1.
         12    1    3    3    0    0 -0.78686018979E+00  0.60378498800E+01 -0.38689041510E+01  0.72140972728E+01  0.00000000000E+00 0. -1.
</event>
<event>
 7    1  0.2685294E-009  0.4778724E+02  0.7816164E-02  0.1312668E+00
        -11   -1    0    0    0    0  0.00000000000E+00  0.00000000000E+00  0.45593999997E+02  0.45594000000E+02  0.51100000000E-03 0.  1.
         11   -1    0    0    0    0 -0.00000000000E+00 -0.00000000000E+00 -0.45593999997E+02  0.45594000000E+02  0.51100000000E-03 0. -1.
    9900012    2    1    2    0    0  0.52208094711E+01  0.42340143495E+02  0.79800645992E+01  0.47787239249E+02  0.19999855033E+02 0.  0.
        -12    1    1    2    0    0 -0.52208094711E+01 -0.42340143495E+02 -0.79800645992E+01  0.43400760751E+02  0.00000000000E+00 0.  1.
         11    1    3    3    0    0  0.33866835828E+01  0.23495055994E+02 -0.33952117924E+00  0.23740315009E+02  0.51100000000E-03 0.  1.
        -11    1    3    3    0    0  0.32300491719E+01 -0.35124144642E+00  0.18657869763E+01  0.37466984811E+01  0.51100000000E-03 0. -1.
        -12    1    3    3    0    0 -0.13959232836E+01  0.19196328948E+02  0.64537988022E+01  0.20300225759E+02  0.00000000000E+00 0.  1.
</event>
<event>
 7    1  0.2685294E-009  0.4778728E+02  0.7816164E-02  0.1312668E+00
        -11   -1    0    0    0    0  0.00000000000E+00  0.00000000000E+00  0.45593999997E+02  0.45594000000E+02  0.51100000000E-03 0.  1.
         11   -1    0    0    0    0 -0.00000000000E+00 -0.00000000000E+00 -0.45593999997E+02  0.45594000000E+02  0.51100000000E-03 0. -1.
    9900012    2    1    2    0    0  0.32045785761E+02 -0.22089375199E+02 -0.19202864515E+02  0.47787275498E+02  0.20000020304E+02 0.  0.
        -12    1    1    2    0    0 -0.32045785761E+02  0.22089375199E+02  0.19202864515E+02  0.43400724502E+02  0.00000000000E+00 0.  1.
         11    1    3    3    0    0  0.12022622813E+02 -0.29928001894E+01 -0.12970505813E+02  0.17936954412E+02  0.51100000000E-03 0. -1.
        -11    1    3    3    0    0  0.87112541619E+01 -0.10229947250E+02  0.15165664152E+01  0.13521750766E+02  0.51100000000E-03 0.  1.
         12    1    3    3    0    0  0.11311908786E+02 -0.88666277595E+01 -0.77489251174E+01  0.16328570320E+02  0.00000000000E+00 0. -1.
</event>
<event>
 7    1  0.2685294E-009  0.4778727E+02  0.7816164E-02  0.1312668E+00
        -11   -1    0    0    0    0  0.00000000000E+00  0.00000000000E+00  0.45593999997E+02  0.45594000000E+02  0.51100000000E-03 0. -1.
         11   -1    0    0    0    0 -0.00000000000E+00 -0.00000000000E+00 -0.45593999997E+02  0.45594000000E+02  0.51100000000E-03 0.  1.
    9900012    2    1    2    0    0  0.10798679065E+02 -0.41215372590E+02  0.82646560163E+01  0.47787274818E+02  0.20000017204E+02 0.  0.
        -12    1    1    2    0    0 -0.10798679065E+02  0.41215372590E+02 -0.82646560163E+01  0.43400725182E+02  0.00000000000E+00 0.  1.
         11    1    3    3    0    0  0.13123053341E+02 -0.20027806324E+02  0.45544152899E+01  0.24373556450E+02  0.51100000000E-03 0. -1.
        -11    1    3    3    0    0 -0.42936355450E+01 -0.15089290602E+02  0.57185925618E+01  0.16698032765E+02  0.51100000000E-03 0.  1.
        -12    1    3    3    0    0  0.19692612691E+01 -0.60982756637E+01 -0.20083518354E+01  0.67156856025E+01  0.00000000000E+00 0.  1.
</event>
<event>
 7    1  0.2685294E-009  0.4778727E+02  0.7816164E-02  0.1312668E+00
        -11   -1    0    0    0    0  0.00000000000E+00  0.00000000000E+00  0.45593999997E+02  0.45594000000E+02  0.51100000000E-03 0.  1.
         11   -1    0    0    0    0 -0.00000000000E+00 -0.00000000000E+00 -0.45593999997E+02  0.45594000000E+02  0.51100000000E-03 0. -1.
    9900012    2    1    2    0    0 -0.86245917238E+01  0.40793296202E+02 -0.12047681372E+02  0.47787271620E+02  0.20000002625E+02 0.  0.
        -12    1    1    2    0    0  0.86245917238E+01 -0.40793296202E+02  0.12047681372E+02  0.43400728380E+02  0.00000000000E+00 0.  1.
         11    1    3    3    0    0 -0.45588787907E+01  0.28474790045E+02 -0.42470988183E+01  0.29148497261E+02  0.51100000000E-03 0. -1.
        -11    1    3    3    0    0 -0.73007442078E+01  0.95191369057E+01 -0.78921976014E+01  0.14359722026E+02  0.51100000000E-03 0.  1.
         12    1    3    3    0    0  0.32350312747E+01  0.27993692515E+01  0.91615047353E-01  0.42790523333E+01  0.00000000000E+00 0. -1.
</event>
<event>
 7    1  0.2685294E-009  0.4778727E+02  0.7816164E-02  0.1312668E+00
        -11   -1    0    0    0    0  0.00000000000E+00  0.00000000000E+00  0.45593999997E+02  0.45594000000E+02  0.51100000000E-03 0.  1.
         11   -1    0    0    0    0 -0.00000000000E+00 -0.00000000000E+00 -0.45593999997E+02  0.45594000000E+02  0.51100000000E-03 0. -1.
    9900012    2    1    2    0    0  0.23188826300E+02  0.31315296352E+02 -0.19111612822E+02  0.47787271948E+02  0.20000004118E+02 0.  0.
        -12    1    1    2    0    0 -0.23188826300E+02 -0.31315296352E+02  0.19111612822E+02  0.43400728052E+02  0.00000000000E+00 0.  1.
         11    1    3    3    0    0  0.14661116066E+00  0.12865730799E+01 -0.56689784465E+01  0.58149877050E+01  0.51100000000E-03 0. -1.
        -11    1    3    3    0    0  0.20035213913E+02  0.16694175955E+02 -0.83051510530E+01  0.27369341272E+02  0.51100000000E-03 0.  1.
        -12    1    3    3    0    0  0.30070012263E+01  0.13334547317E+02 -0.51374833230E+01  0.14602942971E+02  0.00000000000E+00 0.  1.
</event>
<event>
 7    1  0.2685294E-009  0.4778727E+02  0.7816164E-02  0.1312668E+00
        -11   -1    0    0    0    0  0.00000000000E+00  0.00000000000E+00  0.45593999997E+02  0.45594000000E+02  0.51100000000E-03 0. -1.
         11   -1    0    0    0    0 -0.00000000000E+00 -0.00000000000E+00 -0.45593999997E+02  0.45594000000E+02  0.51100000000E-03 0.  1.
    9900012    2    1    2    0    0  0.15925567347E+02 -0.14781041571E+02  0.37570207295E+02  0.47787270036E+02  0.19999995402E+02 0.  0.
        -12    1    1    2    0    0 -0.15925567347E+02  0.14781041571E+02 -0.37570207295E+02  0.43400729964E+02  0.00000000000E+00 0.  1.
         11    1    3    3    0    0  0.10787497637E+02  0.13823911685E+01  0.12449124197E+02  0.16530632297E+02  0.51100000000E-03 0. -1.
        -11    1    3    3    0    0  0.56308425564E+01 -0.15696494160E+02  0.19775249115E+02  0.25867871861E+02  0.51100000000E-03 0.  1.
        -12    1    3    3    0    0 -0.49277284644E+00 -0.46693857996E+00  0.53458339824E+01  0.53887658776E+01  0.00000000000E+00 0.  1.
</event>
<event>
 7    1  0.2685294E-009  0.4778726E+02  0.7816164E-02  0.1312668E+00
        -11   -1    0    0    0    0  0.00000000000E+00  0.00000000000E+00  0.45593999997E+02  0.45594000000E+02  0.51100000000E-03 0. -1.
         11   -1    0    0    0    0 -0.00000000000E+00 -0.00000000000E+00 -0.45593999997E+02  0.45594000000E+02  0.51100000000E-03 0.  1.
    9900012    2    1    2    0    0  0.74690914623E+01 -0.22981830982E+02  0.36050965816E+02  0.47787262462E+02  0.19999960871E+02 0.  0.
        -12    1    1    2    0    0 -0.74690914623E+01  0.22981830982E+02 -0.36050965816E+02  0.43400737538E+02  0.00000000000E+00 0.  1.
         11    1    3    3    0    0  0.28443489360E+01 -0.20213902186E+02  0.13588980849E+02  0.24522490967E+02  0.51100000000E-03 0.  1.
        -11    1    3    3    0    0  0.40487126226E+01 -0.12940462010E+01  0.18817207750E+02  0.19291291746E+02  0.51100000000E-03 0. -1.
        -12    1    3    3    0    0  0.57602990366E+00 -0.14738825946E+01  0.36447772175E+01  0.39734797493E+01  0.00000000000E+00 0.  1.
</event>
<event>
 7    1  0.2685294E-009  0.4778727E+02  0.7816164E-02  0.1312668E+00
        -11   -1    0    0    0    0  0.00000000000E+00  0.00000000000E+00  0.45593999997E+02  0.45594000000E+02  0.51100000000E-03 0.  1.
         11   -1    0    0    0    0 -0.00000000000E+00 -0.00000000000E+00 -0.45593999997E+02  0.45594000000E+02  0.51100000000E-03 0. -1.
    9900012    2    1    2    0    0 -0.16134427506E+01 -0.19898099297E+02 -0.38536814176E+02  0.47787267288E+02  0.19999982871E+02 0.  0.
        -12    1    1    2    0    0  0.16134427506E+01  0.19898099297E+02  0.38536814176E+02  0.43400732712E+02  0.00000000000E+00 0.  1.
         11    1    3    3    0    0  0.81816772650E+00 -0.21714093922E+02 -0.28603098058E+02  0.35920864300E+02  0.51100000000E-03 0. -1.
        -11    1    3    3    0    0 -0.20223887602E+01  0.17282938441E+01 -0.87857832497E+00  0.28015988370E+01  0.51100000000E-03 0.  1.
         12    1    3    3    0    0 -0.40922171685E+00  0.87700780720E-01 -0.90551377926E+01  0.90648041503E+01  0.00000000000E+00 0. -1.
</event>
<event>
 7    1  0.2685294E-009  0.4778727E+02  0.7816164E-02  0.1312668E+00
        -11   -1    0    0    0    0  0.00000000000E+00  0.00000000000E+00  0.45593999997E+02  0.45594000000E+02  0.51100000000E-03 0.  1.
         11   -1    0    0    0    0 -0.00000000000E+00 -0.00000000000E+00 -0.45593999997E+02  0.45594000000E+02  0.51100000000E-03 0. -1.
    9900012    2    1    2    0    0 -0.21559578027E+01 -0.11316202805E+02 -0.41843980387E+02  0.47787270806E+02  0.19999998911E+02 0.  0.
        -12    1    1    2    0    0  0.21559578027E+01  0.11316202805E+02  0.41843980387E+02  0.43400729194E+02  0.00000000000E+00 0.  1.
         11    1    3    3    0    0  0.64437438879E+00 -0.25572947469E+01 -0.16940493384E+02  0.17144541147E+02  0.51100000000E-03 0. -1.
        -11    1    3    3    0    0  0.17165225413E+01 -0.10709270745E+02 -0.22884557995E+02  0.25324650529E+02  0.51100000000E-03 0.  1.
        -12    1    3    3    0    0 -0.45168547328E+01  0.19503626871E+01 -0.20189290076E+01  0.53180791293E+01  0.00000000000E+00 0.  1.
</event>
<event>
 7    1  0.2685294E-009  0.4778727E+02  0.7816164E-02  0.1312668E+00
        -11   -1    0    0    0    0  0.00000000000E+00  0.00000000000E+00  0.45593999997E+02  0.45594000000E+02  0.51100000000E-03 0. -1.
         11   -1    0    0    0    0 -0.00000000000E+00 -0.00000000000E+00 -0.45593999997E+02  0.45594000000E+02  0.51100000000E-03 0.  1.
    9900012    2    1    2    0    0  0.67980825301E+01  0.36252815346E+02  0.22872322332E+02  0.47787266418E+02  0.19999978905E+02 0.  0.
        -12    1    1    2    0    0 -0.67980825301E+01 -0.36252815346E+02 -0.22872322332E+02  0.43400733582E+02  0.00000000000E+00 0.  1.
         11    1    3    3    0    0 -0.22532296328E+01  0.84654012759E+01  0.92918100291E+00  0.88092814768E+01  0.51100000000E-03 0. -1.
        -11    1    3    3    0    0  0.54115455047E+01  0.50296698134E+01  0.11515641763E+02  0.13681827680E+02  0.51100000000E-03 0.  1.
         12    1    3    3    0    0  0.36397666582E+01  0.22757744257E+02  0.10427499566E+02  0.25296157261E+02  0.00000000000E+00 0. -1.
</event>
<event>
 7    1  0.2685294E-009  0.4778727E+02  0.7816164E-02  0.1312668E+00
        -11   -1    0    0    0    0  0.00000000000E+00  0.00000000000E+00  0.45593999997E+02  0.45594000000E+02  0.51100000000E-03 0. -1.
         11   -1    0    0    0    0 -0.00000000000E+00 -0.00000000000E+00 -0.45593999997E+02  0.45594000000E+02  0.51100000000E-03 0.  1.
    9900012    2    1    2    0    0 -0.40960241655E+02  0.10746624076E+02  0.95074698617E+01  0.47787270644E+02  0.19999998175E+02 0.  0.
        -12    1    1    2    0    0  0.40960241655E+02 -0.10746624076E+02 -0.95074698617E+01  0.43400729356E+02  0.00000000000E+00 0.  1.
         11    1    3    3    0    0 -0.33674696977E+02  0.26625572317E+01  0.59655932096E+01  0.34302517840E+02  0.51100000000E-03 0. -1.
        -11    1    3    3    0    0 -0.80487558918E+01  0.63827447742E+01  0.46927409375E+01  0.11293525580E+02  0.51100000000E-03 0.  1.
         12    1    3    3    0    0  0.76321121454E+00  0.17013220706E+01 -0.11508642855E+01  0.21912272245E+01  0.00000000000E+00 0. -1.
</event>
<event>
 7    1  0.2685294E-009  0.4778727E+02  0.7816164E-02  0.1312668E+00
        -11   -1    0    0    0    0  0.00000000000E+00  0.00000000000E+00  0.45593999997E+02  0.45594000000E+02  0.51100000000E-03 0. -1.
         11   -1    0    0    0    0 -0.00000000000E+00 -0.00000000000E+00 -0.45593999997E+02  0.45594000000E+02  0.51100000000E-03 0.  1.
    9900012    2    1    2    0    0 -0.30369932048E+02 -0.10221869966E+02  0.29271215009E+02  0.47787269288E+02  0.19999991992E+02 0.  0.
        -12    1    1    2    0    0  0.30369932048E+02  0.10221869966E+02 -0.29271215009E+02  0.43400730712E+02  0.00000000000E+00 0.  1.
         11    1    3    3    0    0 -0.55223385228E+01 -0.61249080485E+01  0.13241248172E+02  0.15599403026E+02  0.51100000000E-03 0. -1.
        -11    1    3    3    0    0 -0.14543278815E+02 -0.73594628856E+01  0.57850063659E+01  0.17295518251E+02  0.51100000000E-03 0.  1.
         12    1    3    3    0    0 -0.10304314710E+02  0.32625009682E+01  0.10244960472E+02  0.14892348011E+02  0.00000000000E+00 0. -1.
</event>
<event>
 7    1  0.2685294E-009  0.4778727E+02  0.7816164E-02  0.1312668E+00
        -11   -1    0    0    0    0  0.00000000000E+00  0.00000000000E+00  0.45593999997E+02  0.45594000000E+02  0.51100000000E-03 0. -1.
         11   -1    0    0    0    0 -0.00000000000E+00 -0.00000000000E+00 -0.45593999997E+02  0.45594000000E+02  0.51100000000E-03 0.  1.
    9900012    2    1    2    0    0 -0.85030737101E-01  0.31999067736E+02  0.29320230856E+02  0.47787268397E+02  0.19999987930E+02 0.  0.
        -12    1    1    2    0    0  0.85030737101E-01 -0.31999067736E+02 -0.29320230856E+02  0.43400731603E+02  0.00000000000E+00 0.  1.
         11    1    3    3    0    0  0.22597316465E+01  0.18360835115E+02  0.60964601207E+01  0.19478025555E+02  0.51100000000E-03 0. -1.
        -11    1    3    3    0    0 -0.47634988439E+00 -0.10274682926E+01  0.33722570724E+01  0.35573470913E+01  0.51100000000E-03 0.  1.
         12    1    3    3    0    0 -0.18684124992E+01  0.14665700913E+02  0.19851513663E+02  0.24751895751E+02  0.00000000000E+00 0. -1.
</event>
<event>
 7    1  0.2685294E-009  0.4778727E+02  0.7816164E-02  0.1312668E+00
        -11   -1    0    0    0    0  0.00000000000E+00  0.00000000000E+00  0.45593999997E+02  0.45594000000E+02  0.51100000000E-03 0.  1.
         11   -1    0    0    0    0 -0.00000000000E+00 -0.00000000000E+00 -0.45593999997E+02  0.45594000000E+02  0.51100000000E-03 0. -1.
    9900012    2    1    2    0    0  0.59434343498E+01  0.33201923110E+02 -0.27311738625E+02  0.47787272163E+02  0.20000005099E+02 0.  0.
        -12    1    1    2    0    0 -0.59434343498E+01 -0.33201923110E+02  0.27311738625E+02  0.43400727837E+02  0.00000000000E+00 0.  1.
         11    1    3    3    0    0  0.89183502294E+01  0.26897529488E+02 -0.28923853422E+02  0.40492016008E+02  0.51100000000E-03 0. -1.
        -11    1    3    3    0    0 -0.29785703046E+01  0.62483359114E+01  0.13822492300E+01  0.70586256394E+01  0.51100000000E-03 0.  1.
         12    1    3    3    0    0  0.36544250724E-02  0.56057711149E-01  0.22986556718E+00  0.23663051531E+00  0.00000000000E+00 0. -1.
</event>
<event>
 7    1  0.2685294E-009  0.4778727E+02  0.7816164E-02  0.1312668E+00
        -11   -1    0    0    0    0  0.00000000000E+00  0.00000000000E+00  0.45593999997E+02  0.45594000000E+02  0.51100000000E-03 0.  1.
         11   -1    0    0    0    0 -0.00000000000E+00 -0.00000000000E+00 -0.45593999997E+02  0.45594000000E+02  0.51100000000E-03 0. -1.
    9900012    2    1    2    0    0 -0.40363946382E+02  0.52787987594E+01 -0.15050227480E+02  0.47787271537E+02  0.20000002248E+02 0.  0.
        -12    1    1    2    0    0  0.40363946382E+02 -0.52787987594E+01  0.15050227480E+02  0.43400728463E+02  0.00000000000E+00 0.  1.
         11    1    3    3    0    0 -0.32125081315E+02  0.36380522225E+01 -0.12826872797E+02  0.34781962847E+02  0.51100000000E-03 0. -1.
        -11    1    3    3    0    0 -0.90527130870E+00  0.11461844719E+01  0.34328690444E+01  0.37306628263E+01  0.51100000000E-03 0.  1.
        -12    1    3    3    0    0 -0.73335937584E+01  0.49456206499E+00 -0.56562237281E+01  0.92746458645E+01  0.00000000000E+00 0.  1.
</event>
<event>
 7    1  0.2685294E-009  0.4778727E+02  0.7816164E-02  0.1312668E+00
        -11   -1    0    0    0    0  0.00000000000E+00  0.00000000000E+00  0.45593999997E+02  0.45594000000E+02  0.51100000000E-03 0. -1.
         11   -1    0    0    0    0 -0.00000000000E+00 -0.00000000000E+00 -0.45593999997E+02  0.45594000000E+02  0.51100000000E-03 0.  1.
    9900012    2    1    2    0    0  0.15442900463E+02  0.20781826464E+01  0.40507050034E+02  0.47787272814E+02  0.20000008068E+02 0.  0.
        -12    1    1    2    0    0 -0.15442900463E+02 -0.20781826464E+01 -0.40507050034E+02  0.43400727186E+02  0.00000000000E+00 0.  1.
         11    1    3    3    0    0  0.89393074153E+00  0.33939532358E+01 -0.31493837343E+00  0.35238071993E+01  0.51100000000E-03 0.  1.
        -11    1    3    3    0    0  0.59183689561E+01 -0.18643121952E+01  0.70041954026E+01  0.93574304465E+01  0.51100000000E-03 0. -1.
         12    1    3    3    0    0  0.86306007657E+01  0.54854160579E+00  0.33817793005E+02  0.34906035168E+02  0.00000000000E+00 0. -1.
</event>
<event>
 7    1  0.2685294E-009  0.4778727E+02  0.7816164E-02  0.1312668E+00
        -11   -1    0    0    0    0  0.00000000000E+00  0.00000000000E+00  0.45593999997E+02  0.45594000000E+02  0.51100000000E-03 0.  1.
         11   -1    0    0    0    0 -0.00000000000E+00 -0.00000000000E+00 -0.45593999997E+02  0.45594000000E+02  0.51100000000E-03 0. -1.
    9900012    2    1    2    0    0  0.16887357153E+02 -0.53874808768E+01 -0.39615847784E+02  0.47787272155E+02  0.20000005066E+02 0.  0.
        -12    1    1    2    0    0 -0.16887357153E+02  0.53874808768E+01  0.39615847784E+02  0.43400727845E+02  0.00000000000E+00 0.  1.
         11    1    3    3    0    0 -0.11473965924E+01  0.32369355661E+01 -0.32264930565E+01  0.47121681319E+01  0.51100000000E-03 0.  1.
        -11    1    3    3    0    0 -0.84432127885E+00 -0.11413408282E+01 -0.19784837877E-01  0.14198341484E+01  0.51100000000E-03 0. -1.
         12    1    3    3    0    0  0.18879075025E+02 -0.74830756146E+01 -0.36369569889E+02  0.41655269875E+02  0.00000000000E+00 0. -1.
</event>
<event>
 7    1  0.2685294E-009  0.4778727E+02  0.7816164E-02  0.1312668E+00
        -11   -1    0    0    0    0  0.00000000000E+00  0.00000000000E+00  0.45593999997E+02  0.45594000000E+02  0.51100000000E-03 0. -1.
         11   -1    0    0    0    0 -0.00000000000E+00 -0.00000000000E+00 -0.45593999997E+02  0.45594000000E+02  0.51100000000E-03 0.  1.
    9900012    2    1    2    0    0  0.32851533556E+02 -0.23422722007E+02 -0.15993000939E+02  0.47787271409E+02  0.20000001663E+02 0.  0.
        -12    1    1    2    0    0 -0.32851533556E+02  0.23422722007E+02  0.15993000939E+02  0.43400728591E+02  0.00000000000E+00 0.  1.
         11    1    3    3    0    0  0.18652833158E+02 -0.45743103159E+01 -0.62570714843E+01  0.20199095116E+02  0.51100000000E-03 0. -1.
        -11    1    3    3    0    0  0.10886119846E+02 -0.15407753419E+02 -0.11941652582E+02  0.22327327143E+02  0.51100000000E-03 0.  1.
        -12    1    3    3    0    0  0.33125805509E+01 -0.34406582727E+01  0.22057231278E+01  0.52608491493E+01  0.00000000000E+00 0.  1.
</event>
<event>
 7    1  0.2685294E-009  0.4778727E+02  0.7816164E-02  0.1312668E+00
        -11   -1    0    0    0    0  0.00000000000E+00  0.00000000000E+00  0.45593999997E+02  0.45594000000E+02  0.51100000000E-03 0. -1.
         11   -1    0    0    0    0 -0.00000000000E+00 -0.00000000000E+00 -0.45593999997E+02  0.45594000000E+02  0.51100000000E-03 0.  1.
    9900012    2    1    2    0    0 -0.63444924872E+01 -0.42308935321E+02  0.73023905243E+01  0.47787268436E+02  0.19999988108E+02 0.  0.
        -12    1    1    2    0    0  0.63444924872E+01  0.42308935321E+02 -0.73023905243E+01  0.43400731564E+02  0.00000000000E+00 0.  1.
         11    1    3    3    0    0 -0.94528036418E+01 -0.31565787798E+02  0.11563465336E+02  0.34920884680E+02  0.51100000000E-03 0. -1.
        -11    1    3    3    0    0  0.35038174633E+01 -0.10972828450E+02 -0.44801454743E+01  0.12359263924E+02  0.51100000000E-03 0.  1.
         12    1    3    3    0    0 -0.39550630872E+00  0.22968092761E+00  0.21907066279E+00  0.50711983203E+00  0.00000000000E+00 0. -1.
</event>
<event>
 7    1  0.2685294E-009  0.4778727E+02  0.7816164E-02  0.1312668E+00
        -11   -1    0    0    0    0  0.00000000000E+00  0.00000000000E+00  0.45593999997E+02  0.45594000000E+02  0.51100000000E-03 0. -1.
         11   -1    0    0    0    0 -0.00000000000E+00 -0.00000000000E+00 -0.45593999997E+02  0.45594000000E+02  0.51100000000E-03 0.  1.
    9900012    2    1    2    0    0 -0.43388753575E+02  0.97249695145E+00  0.30599006441E+00  0.47787270547E+02  0.19999997731E+02 0.  0.
        -12    1    1    2    0    0  0.43388753575E+02 -0.97249695145E+00 -0.30599006441E+00  0.43400729453E+02  0.00000000000E+00 0.  1.
         11    1    3    3    0    0 -0.10628147502E+02  0.31256552873E+01  0.13715432975E+01  0.11162811992E+02  0.51100000000E-03 0. -1.
        -11    1    3    3    0    0 -0.15718055436E+02  0.38020566647E+01 -0.69994941642E+01  0.17621175341E+02  0.51100000000E-03 0.  1.
        -12    1    3    3    0    0 -0.17042550637E+02 -0.59552150006E+01  0.59339409311E+01  0.19003283213E+02  0.00000000000E+00 0.  1.
</event>
<event>
 7    1  0.2685294E-009  0.4778727E+02  0.7816164E-02  0.1312668E+00
        -11   -1    0    0    0    0  0.00000000000E+00  0.00000000000E+00  0.45593999997E+02  0.45594000000E+02  0.51100000000E-03 0.  1.
         11   -1    0    0    0    0 -0.00000000000E+00 -0.00000000000E+00 -0.45593999997E+02  0.45594000000E+02  0.51100000000E-03 0. -1.
    9900012    2    1    2    0    0  0.30328216097E+02 -0.27057724387E+02 -0.15221767512E+02  0.47787270204E+02  0.19999996168E+02 0.  0.
        -12    1    1    2    0    0 -0.30328216097E+02  0.27057724387E+02  0.15221767512E+02  0.43400729796E+02  0.00000000000E+00 0.  1.
         11    1    3    3    0    0  0.38200920498E+01 -0.37281219806E+01 -0.83556253472E+00  0.54027920358E+01  0.51100000000E-03 0. -1.
        -11    1    3    3    0    0  0.13281453216E+02 -0.29295020523E+00 -0.54293506505E+01  0.14351329837E+02  0.51100000000E-03 0.  1.
        -12    1    3    3    0    0  0.13226670831E+02 -0.23036652201E+02 -0.89568543270E+01  0.28033148331E+02  0.00000000000E+00 0.  1.
</event>
<event>
 7    1  0.2685294E-009  0.4778727E+02  0.7816164E-02  0.1312668E+00
        -11   -1    0    0    0    0  0.00000000000E+00  0.00000000000E+00  0.45593999997E+02  0.45594000000E+02  0.51100000000E-03 0.  1.
         11   -1    0    0    0    0 -0.00000000000E+00 -0.00000000000E+00 -0.45593999997E+02  0.45594000000E+02  0.51100000000E-03 0. -1.
    9900012    2    1    2    0    0 -0.27124015684E+02  0.14374935637E+02 -0.30680160196E+02  0.47787271538E+02  0.20000002250E+02 0.  0.
        -12    1    1    2    0    0  0.27124015684E+02 -0.14374935637E+02  0.30680160196E+02  0.43400728462E+02  0.00000000000E+00 0.  1.
         11    1    3    3    0    0 -0.58561818922E+01  0.11507894641E+02 -0.76000746953E+01  0.14982911635E+02  0.51100000000E-03 0. -1.
        -11    1    3    3    0    0 -0.20002863321E+02 -0.17324717360E+00 -0.19394799245E+02  0.27862210853E+02  0.51100000000E-03 0.  1.
        -12    1    3    3    0    0 -0.12649704709E+01  0.30402881691E+01 -0.36852862562E+01  0.49421490501E+01  0.00000000000E+00 0.  1.
</event>
<event>
 7    1  0.2685294E-009  0.4778729E+02  0.7816164E-02  0.1312668E+00
        -11   -1    0    0    0    0  0.00000000000E+00  0.00000000000E+00  0.45593999997E+02  0.45594000000E+02  0.51100000000E-03 0.  1.
         11   -1    0    0    0    0 -0.00000000000E+00 -0.00000000000E+00 -0.45593999997E+02  0.45594000000E+02  0.51100000000E-03 0. -1.
    9900012    2    1    2    0    0 -0.29685921693E+02 -0.24301742911E+02 -0.20292680499E+02  0.47787291053E+02  0.20000091226E+02 0.  0.
        -12    1    1    2    0    0  0.29685921693E+02  0.24301742911E+02  0.20292680499E+02  0.43400708947E+02  0.00000000000E+00 0.  1.
         11    1    3    3    0    0 -0.12082579902E+02 -0.28518875779E+01 -0.41645360468E+01  0.13094478248E+02  0.51100000000E-03 0. -1.
        -11    1    3    3    0    0 -0.13916401038E+02 -0.22790555541E+02 -0.13140148840E+02  0.29761370122E+02  0.51100000000E-03 0.  1.
        -12    1    3    3    0    0 -0.36869407525E+01  0.13407002075E+01 -0.29879956124E+01  0.49314426833E+01  0.00000000000E+00 0.  1.
</event>
<event>
 7    1  0.2685294E-009  0.4778727E+02  0.7816164E-02  0.1312668E+00
        -11   -1    0    0    0    0  0.00000000000E+00  0.00000000000E+00  0.45593999997E+02  0.45594000000E+02  0.51100000000E-03 0.  1.
         11   -1    0    0    0    0 -0.00000000000E+00 -0.00000000000E+00 -0.45593999997E+02  0.45594000000E+02  0.51100000000E-03 0. -1.
    9900012    2    1    2    0    0  0.29128305788E+01  0.24857832270E+02 -0.35457396395E+02  0.47787269980E+02  0.19999995147E+02 0.  0.
        -12    1    1    2    0    0 -0.29128305788E+01 -0.24857832270E+02  0.35457396395E+02  0.43400730020E+02  0.00000000000E+00 0.  1.
         11    1    3    3    0    0  0.93928949585E+01  0.19737584092E+02 -0.19892973412E+02  0.29555525590E+02  0.51100000000E-03 0. -1.
        -11    1    3    3    0    0 -0.35398934104E+01  0.22725296460E+01 -0.12290071296E+02  0.12990038071E+02  0.51100000000E-03 0.  1.
        -12    1    3    3    0    0 -0.29401709693E+01  0.28477185323E+01 -0.32743516865E+01  0.52417063190E+01  0.00000000000E+00 0.  1.
</event>
<event>
 7    1  0.2685294E-009  0.4778727E+02  0.7816164E-02  0.1312668E+00
        -11   -1    0    0    0    0  0.00000000000E+00  0.00000000000E+00  0.45593999997E+02  0.45594000000E+02  0.51100000000E-03 0. -1.
         11   -1    0    0    0    0 -0.00000000000E+00 -0.00000000000E+00 -0.45593999997E+02  0.45594000000E+02  0.51100000000E-03 0.  1.
    9900012    2    1    2    0    0 -0.15552304627E+02 -0.37546317157E+02  0.15232301747E+02  0.47787272728E+02  0.20000007675E+02 0.  0.
        -12    1    1    2    0    0  0.15552304627E+02  0.37546317157E+02 -0.15232301747E+02  0.43400727272E+02  0.00000000000E+00 0.  1.
         11    1    3    3    0    0 -0.15848780450E+02 -0.30334116378E+02  0.17960642405E+02  0.38651353587E+02  0.51100000000E-03 0. -1.
        -11    1    3    3    0    0  0.22531725928E+01 -0.45491424231E+01 -0.28636077653E+01  0.58285275339E+01  0.51100000000E-03 0.  1.
        -12    1    3    3    0    0 -0.19566967692E+01 -0.26630583559E+01  0.13526710686E+00  0.33073916072E+01  0.00000000000E+00 0.  1.
</event>
<event>
 7    1  0.2685294E-009  0.4778727E+02  0.7816164E-02  0.1312668E+00
        -11   -1    0    0    0    0  0.00000000000E+00  0.00000000000E+00  0.45593999997E+02  0.45594000000E+02  0.51100000000E-03 0.  1.
         11   -1    0    0    0    0 -0.00000000000E+00 -0.00000000000E+00 -0.45593999997E+02  0.45594000000E+02  0.51100000000E-03 0. -1.
    9900012    2    1    2    0    0 -0.24901242241E+02  0.35500216164E+02  0.18128290363E+01  0.47787267726E+02  0.19999984868E+02 0.  0.
        -12    1    1    2    0    0  0.24901242241E+02 -0.35500216164E+02 -0.18128290363E+01  0.43400732274E+02  0.00000000000E+00 0.  1.
         11    1    3    3    0    0 -0.82183212983E+01  0.22838645841E+02 -0.28960619459E+01  0.24444462029E+02  0.51100000000E-03 0. -1.
        -11    1    3    3    0    0 -0.33463430215E+01  0.70756402050E+01  0.41816318203E+01  0.88740487305E+01  0.51100000000E-03 0.  1.
         12    1    3    3    0    0 -0.13336577921E+02  0.55859301179E+01  0.52725916192E+00  0.14468756966E+02  0.00000000000E+00 0. -1.
</event>
<event>
 7    1  0.2685294E-009  0.4778727E+02  0.7816164E-02  0.1312668E+00
        -11   -1    0    0    0    0  0.00000000000E+00  0.00000000000E+00  0.45593999997E+02  0.45594000000E+02  0.51100000000E-03 0.  1.
         11   -1    0    0    0    0 -0.00000000000E+00 -0.00000000000E+00 -0.45593999997E+02  0.45594000000E+02  0.51100000000E-03 0. -1.
    9900012    2    1    2    0    0 -0.29648229500E+02 -0.13562305898E+02 -0.28647332282E+02  0.47787270736E+02  0.19999998593E+02 0.  0.
        -12    1    1    2    0    0  0.29648229500E+02  0.13562305898E+02  0.28647332282E+02  0.43400729264E+02  0.00000000000E+00 0.  1.
         11    1    3    3    0    0 -0.11267990688E+02 -0.30082355619E+01 -0.13716124759E+02  0.18004143246E+02  0.51100000000E-03 0.  1.
        -11    1    3    3    0    0 -0.13278855588E+02 -0.88004563350E+01 -0.23610314986E+01  0.16104362993E+02  0.51100000000E-03 0. -1.
        -12    1    3    3    0    0 -0.51013832244E+01 -0.17536140014E+01 -0.12570176024E+02  0.13678764497E+02  0.00000000000E+00 0.  1.
</event>
<event>
 7    1  0.2685294E-009  0.4778728E+02  0.7816164E-02  0.1312668E+00
        -11   -1    0    0    0    0  0.00000000000E+00  0.00000000000E+00  0.45593999997E+02  0.45594000000E+02  0.51100000000E-03 0. -1.
         11   -1    0    0    0    0 -0.00000000000E+00 -0.00000000000E+00 -0.45593999997E+02  0.45594000000E+02  0.51100000000E-03 0.  1.
    9900012    2    1    2    0    0  0.23491948430E+02 -0.15662697820E+02  0.32961052629E+02  0.47787277259E+02  0.20000028336E+02 0.  0.
        -12    1    1    2    0    0 -0.23491948430E+02  0.15662697820E+02 -0.32961052629E+02  0.43400722741E+02  0.00000000000E+00 0.  1.
         11    1    3    3    0    0  0.22954896837E+02 -0.17380281751E+02  0.28237657442E+02  0.40328238005E+02  0.51100000000E-03 0. -1.
        -11    1    3    3    0    0  0.59744544528E+00  0.28415817449E+01  0.54103823519E+01  0.61403391867E+01  0.51100000000E-03 0.  1.
         12    1    3    3    0    0 -0.60393852002E-01 -0.11239978137E+01 -0.68698716532E+00  0.13187000674E+01  0.00000000000E+00 0. -1.
</event>
<event>
 7    1  0.2685294E-009  0.4778727E+02  0.7816164E-02  0.1312668E+00
        -11   -1    0    0    0    0  0.00000000000E+00  0.00000000000E+00  0.45593999997E+02  0.45594000000E+02  0.51100000000E-03 0.  1.
         11   -1    0    0    0    0 -0.00000000000E+00 -0.00000000000E+00 -0.45593999997E+02  0.45594000000E+02  0.51100000000E-03 0. -1.
    9900012    2    1    2    0    0 -0.12059781241E+01 -0.40777785901E+02 -0.14810160864E+02  0.47787273381E+02  0.20000010655E+02 0.  0.
        -12    1    1    2    0    0  0.12059781241E+01  0.40777785901E+02  0.14810160864E+02  0.43400726619E+02  0.00000000000E+00 0.  1.
         11    1    3    3    0    0 -0.21243202422E+01 -0.21371963893E+02 -0.11385471487E+02  0.24308486962E+02  0.51100000000E-03 0. -1.
        -11    1    3    3    0    0  0.47553557815E+01 -0.54968983073E+01  0.27678682357E+01  0.77775570998E+01  0.51100000000E-03 0.  1.
        -12    1    3    3    0    0 -0.38370136633E+01 -0.13908923700E+02 -0.61925576127E+01  0.15701229319E+02  0.00000000000E+00 0.  1.
</event>
<event>
 7    1  0.2685294E-009  0.4778727E+02  0.7816164E-02  0.1312668E+00
        -11   -1    0    0    0    0  0.00000000000E+00  0.00000000000E+00  0.45593999997E+02  0.45594000000E+02  0.51100000000E-03 0.  1.
         11   -1    0    0    0    0 -0.00000000000E+00 -0.00000000000E+00 -0.45593999997E+02  0.45594000000E+02  0.51100000000E-03 0. -1.
    9900012    2    1    2    0    0 -0.92995289292E+01  0.97070738215E+01 -0.41266387049E+02  0.47787271659E+02  0.20000002802E+02 0.  0.
        -12    1    1    2    0    0  0.92995289292E+01 -0.97070738215E+01  0.41266387049E+02  0.43400728341E+02  0.00000000000E+00 0.  1.
         11    1    3    3    0    0 -0.30037541784E+01  0.19744457566E+01 -0.68190675735E+01  0.77084796194E+01  0.51100000000E-03 0. -1.
        -11    1    3    3    0    0  0.23688049106E+01  0.10719775943E+02 -0.15085589724E+02  0.18657434190E+02  0.51100000000E-03 0.  1.
        -12    1    3    3    0    0 -0.86645796614E+01 -0.29871478782E+01 -0.19361729751E+02  0.21421357850E+02  0.00000000000E+00 0.  1.
</event>
<event>
 7    1  0.2685294E-009  0.4778727E+02  0.7816164E-02  0.1312668E+00
        -11   -1    0    0    0    0  0.00000000000E+00  0.00000000000E+00  0.45593999997E+02  0.45594000000E+02  0.51100000000E-03 0.  1.
         11   -1    0    0    0    0 -0.00000000000E+00 -0.00000000000E+00 -0.45593999997E+02  0.45594000000E+02  0.51100000000E-03 0. -1.
    9900012    2    1    2    0    0 -0.36033289983E+02  0.24121849987E+02 -0.18333958385E+01  0.47787274498E+02  0.20000015747E+02 0.  0.
        -12    1    1    2    0    0  0.36033289983E+02 -0.24121849987E+02  0.18333958385E+01  0.43400725502E+02  0.00000000000E+00 0.  1.
         11    1    3    3    0    0 -0.13040185071E+02  0.13027290885E+02 -0.49637426946E+00  0.18439173575E+02  0.51100000000E-03 0. -1.
        -11    1    3    3    0    0 -0.10993473450E+02 -0.18299582894E+01  0.22024136632E+01  0.11360274294E+02  0.51100000000E-03 0.  1.
        -12    1    3    3    0    0 -0.11999631462E+02  0.12924517392E+02 -0.35394352322E+01  0.17987826628E+02  0.00000000000E+00 0.  1.
</event>
<event>
 7    1  0.2685294E-009  0.4778727E+02  0.7816164E-02  0.1312668E+00
        -11   -1    0    0    0    0  0.00000000000E+00  0.00000000000E+00  0.45593999997E+02  0.45594000000E+02  0.51100000000E-03 0.  1.
         11   -1    0    0    0    0 -0.00000000000E+00 -0.00000000000E+00 -0.45593999997E+02  0.45594000000E+02  0.51100000000E-03 0. -1.
    9900012    2    1    2    0    0  0.79218480865E+01 -0.41918355712E+02 -0.79824272886E+01  0.47787269959E+02  0.19999995051E+02 0.  0.
        -12    1    1    2    0    0 -0.79218480865E+01  0.41918355712E+02  0.79824272886E+01  0.43400730041E+02  0.00000000000E+00 0.  1.
         11    1    3    3    0    0  0.91075764325E+01 -0.21573900492E+02  0.31738803528E+01  0.23631645048E+02  0.51100000000E-03 0. -1.
        -11    1    3    3    0    0 -0.34657839228E+01 -0.62602820567E+01 -0.38768146396E+01  0.81383340825E+01  0.51100000000E-03 0.  1.
         12    1    3    3    0    0  0.22800555768E+01 -0.14084173163E+02 -0.72794930019E+01  0.16017290829E+02  0.00000000000E+00 0. -1.
</event>
<event>
 7    1  0.2685294E-009  0.4778724E+02  0.7816164E-02  0.1312668E+00
        -11   -1    0    0    0    0  0.00000000000E+00  0.00000000000E+00  0.45593999997E+02  0.45594000000E+02  0.51100000000E-03 0.  1.
         11   -1    0    0    0    0 -0.00000000000E+00 -0.00000000000E+00 -0.45593999997E+02  0.45594000000E+02  0.51100000000E-03 0. -1.
    9900012    2    1    2    0    0 -0.11407773612E+02 -0.13225279893E+02 -0.39731351465E+02  0.47787244058E+02  0.19999876959E+02 0.  0.
        -12    1    1    2    0    0  0.11407773612E+02  0.13225279893E+02  0.39731351465E+02  0.43400755942E+02  0.00000000000E+00 0.  1.
         11    1    3    3    0    0 -0.65299930164E+01 -0.84608016487E+01 -0.24120533636E+02  0.26382306883E+02  0.51100000000E-03 0. -1.
        -11    1    3    3    0    0  0.18429285557E+01  0.30677966337E+01 -0.14021847064E+01  0.38436810558E+01  0.51100000000E-03 0.  1.
        -12    1    3    3    0    0 -0.67207091517E+01 -0.78322748781E+01 -0.14208633123E+02  0.17561256119E+02  0.00000000000E+00 0.  1.
</event>
<event>
 7    1  0.2685294E-009  0.4778727E+02  0.7816164E-02  0.1312668E+00
        -11   -1    0    0    0    0  0.00000000000E+00  0.00000000000E+00  0.45593999997E+02  0.45594000000E+02  0.51100000000E-03 0. -1.
         11   -1    0    0    0    0 -0.00000000000E+00 -0.00000000000E+00 -0.45593999997E+02  0.45594000000E+02  0.51100000000E-03 0.  1.
    9900012    2    1    2    0    0  0.29881057632E+02 -0.31191671607E+02  0.42219994982E+01  0.47787271174E+02  0.20000000592E+02 0.  0.
        -12    1    1    2    0    0 -0.29881057632E+02  0.31191671607E+02 -0.42219994982E+01  0.43400728826E+02  0.00000000000E+00 0.  1.
         11    1    3    3    0    0  0.18132539827E+02 -0.75414703990E+01 -0.30956248121E+01  0.19880786443E+02  0.51100000000E-03 0. -1.
        -11    1    3    3    0    0  0.99702233166E+01 -0.14458575963E+02  0.50292018838E+01  0.18268788786E+02  0.51100000000E-03 0.  1.
         12    1    3    3    0    0  0.17782944885E+01 -0.91916252449E+01  0.22884224265E+01  0.96376959453E+01  0.00000000000E+00 0. -1.
</event>
<event>
 7    1  0.2685294E-009  0.4778727E+02  0.7816164E-02  0.1312668E+00
        -11   -1    0    0    0    0  0.00000000000E+00  0.00000000000E+00  0.45593999997E+02  0.45594000000E+02  0.51100000000E-03 0.  1.
         11   -1    0    0    0    0 -0.00000000000E+00 -0.00000000000E+00 -0.45593999997E+02  0.45594000000E+02  0.51100000000E-03 0. -1.
    9900012    2    1    2    0    0 -0.21479805349E+01 -0.42225147763E+02 -0.98003196515E+01  0.47787272019E+02  0.20000004444E+02 0.  0.
        -12    1    1    2    0    0  0.21479805349E+01  0.42225147763E+02  0.98003196515E+01  0.43400727981E+02  0.00000000000E+00 0.  1.
         11    1    3    3    0    0  0.42247012425E+01 -0.21582806229E+02 -0.49582348016E+01  0.22544394379E+02  0.51100000000E-03 0. -1.
        -11    1    3    3    0    0 -0.54580475457E+01 -0.89669951061E+01  0.32718467458E+01  0.10995556631E+02  0.51100000000E-03 0.  1.
        -12    1    3    3    0    0 -0.91463423172E+00 -0.11675346428E+02 -0.81139315956E+01  0.14247321009E+02  0.00000000000E+00 0.  1.
</event>
<event>
 7    1  0.2685294E-009  0.4778727E+02  0.7816164E-02  0.1312668E+00
        -11   -1    0    0    0    0  0.00000000000E+00  0.00000000000E+00  0.45593999997E+02  0.45594000000E+02  0.51100000000E-03 0. -1.
         11   -1    0    0    0    0 -0.00000000000E+00 -0.00000000000E+00 -0.45593999997E+02  0.45594000000E+02  0.51100000000E-03 0.  1.
    9900012    2    1    2    0    0 -0.28289500090E+02  0.26700822488E+02 -0.19245611425E+02  0.47787270789E+02  0.19999998837E+02 0.  0.
        -12    1    1    2    0    0  0.28289500090E+02 -0.26700822488E+02  0.19245611425E+02  0.43400729211E+02  0.00000000000E+00 0.  1.
         11    1    3    3    0    0 -0.22331406955E+02  0.27626307350E+02 -0.16887231540E+02  0.39332978323E+02  0.51100000000E-03 0. -1.
        -11    1    3    3    0    0  0.26326973783E+00 -0.17603378889E+01 -0.96382704377E+00  0.20241203693E+01  0.51100000000E-03 0.  1.
         12    1    3    3    0    0 -0.62213628733E+01  0.83485302685E+00 -0.13945528413E+01  0.64301720976E+01  0.00000000000E+00 0. -1.
</event>
<event>
 7    1  0.2685294E-009  0.4778727E+02  0.7816164E-02  0.1312668E+00
        -11   -1    0    0    0    0  0.00000000000E+00  0.00000000000E+00  0.45593999997E+02  0.45594000000E+02  0.51100000000E-03 0.  1.
         11   -1    0    0    0    0 -0.00000000000E+00 -0.00000000000E+00 -0.45593999997E+02  0.45594000000E+02  0.51100000000E-03 0. -1.
    9900012    2    1    2    0    0  0.10859109675E+02 -0.35686428609E+02 -0.22185168735E+02  0.47787272338E+02  0.20000005899E+02 0.  0.
        -12    1    1    2    0    0 -0.10859109675E+02  0.35686428609E+02  0.22185168735E+02  0.43400727662E+02  0.00000000000E+00 0.  1.
         11    1    3    3    0    0  0.15915343768E+02 -0.27196266738E+02 -0.17231412531E+02  0.35914574615E+02  0.51100000000E-03 0. -1.
        -11    1    3    3    0    0 -0.42922117596E+01 -0.41892105290E+01 -0.44648701027E+01  0.74771406260E+01  0.51100000000E-03 0.  1.
         12    1    3    3    0    0 -0.76402233411E+00 -0.43009513417E+01 -0.48888610145E+00  0.43955570968E+01  0.00000000000E+00 0. -1.
</event>
<event>
 7    1  0.2685294E-009  0.4778727E+02  0.7816164E-02  0.1312668E+00
        -11   -1    0    0    0    0  0.00000000000E+00  0.00000000000E+00  0.45593999997E+02  0.45594000000E+02  0.51100000000E-03 0. -1.
         11   -1    0    0    0    0 -0.00000000000E+00 -0.00000000000E+00 -0.45593999997E+02  0.45594000000E+02  0.51100000000E-03 0.  1.
    9900012    2    1    2    0    0  0.37907166553E+02 -0.15091585799E+02  0.14795739626E+02  0.47787272482E+02  0.20000006556E+02 0.  0.
        -12    1    1    2    0    0 -0.37907166553E+02  0.15091585799E+02 -0.14795739626E+02  0.43400727518E+02  0.00000000000E+00 0.  1.
         11    1    3    3    0    0  0.16880163142E+02 -0.11676304143E+02  0.13699825598E+02  0.24677139376E+02  0.51100000000E-03 0. -1.
        -11    1    3    3    0    0  0.21838923479E+02 -0.27749521501E+01  0.77774125781E+00  0.22028250495E+02  0.51100000000E-03 0.  1.
         12    1    3    3    0    0 -0.81192006757E+00 -0.64032950626E+00  0.31817277002E+00  0.10818826111E+01  0.00000000000E+00 0. -1.
</event>
<event>
 7    1  0.2685294E-009  0.4778727E+02  0.7816164E-02  0.1312668E+00
        -11   -1    0    0    0    0  0.00000000000E+00  0.00000000000E+00  0.45593999997E+02  0.45594000000E+02  0.51100000000E-03 0.  1.
         11   -1    0    0    0    0 -0.00000000000E+00 -0.00000000000E+00 -0.45593999997E+02  0.45594000000E+02  0.51100000000E-03 0. -1.
    9900012    2    1    2    0    0 -0.14732432998E+01 -0.39682947484E+02  0.17513338214E+02  0.47787265187E+02  0.19999973295E+02 0.  0.
        -12    1    1    2    0    0  0.14732432998E+01  0.39682947484E+02 -0.17513338214E+02  0.43400734813E+02  0.00000000000E+00 0.  1.
         11    1    3    3    0    0  0.40375468916E+01 -0.83560045478E+01  0.75846705167E+01  0.11985483887E+02  0.51100000000E-03 0. -1.
        -11    1    3    3    0    0 -0.58772708380E+01 -0.60600089133E+01 -0.51834238699E+00  0.84578188455E+01  0.51100000000E-03 0.  1.
        -12    1    3    3    0    0  0.36648064656E+00 -0.25266934023E+02  0.10447010085E+02  0.27343962454E+02  0.00000000000E+00 0.  1.
</event>
<event>
 7    1  0.2685294E-009  0.4778727E+02  0.7816164E-02  0.1312668E+00
        -11   -1    0    0    0    0  0.00000000000E+00  0.00000000000E+00  0.45593999997E+02  0.45594000000E+02  0.51100000000E-03 0.  1.
         11   -1    0    0    0    0 -0.00000000000E+00 -0.00000000000E+00 -0.45593999997E+02  0.45594000000E+02  0.51100000000E-03 0. -1.
    9900012    2    1    2    0    0 -0.21047032197E+02  0.88314904769E+01 -0.36914098181E+02  0.47787269213E+02  0.19999991650E+02 0.  0.
        -12    1    1    2    0    0  0.21047032197E+02 -0.88314904769E+01  0.36914098181E+02  0.43400730787E+02  0.00000000000E+00 0.  1.
         11    1    3    3    0    0 -0.30256549159E+01 -0.30739265442E+01 -0.13030750004E+01  0.45057315485E+01  0.51100000000E-03 0. -1.
        -11    1    3    3    0    0 -0.12551120188E+02  0.13302278275E+02 -0.22421684966E+02  0.28934636377E+02  0.51100000000E-03 0.  1.
        -12    1    3    3    0    0 -0.54702570937E+01 -0.13968612542E+01 -0.13189338214E+02  0.14346901288E+02  0.00000000000E+00 0.  1.
</event>
<event>
 7    1  0.2685294E-009  0.4778727E+02  0.7816164E-02  0.1312668E+00
        -11   -1    0    0    0    0  0.00000000000E+00  0.00000000000E+00  0.45593999997E+02  0.45594000000E+02  0.51100000000E-03 0.  1.
         11   -1    0    0    0    0 -0.00000000000E+00 -0.00000000000E+00 -0.45593999997E+02  0.45594000000E+02  0.51100000000E-03 0. -1.
    9900012    2    1    2    0    0 -0.81019487507E+01 -0.31799565547E+02 -0.28403679444E+02  0.47787274793E+02  0.20000017091E+02 0.  0.
        -12    1    1    2    0    0  0.81019487507E+01  0.31799565547E+02  0.28403679444E+02  0.43400725207E+02  0.00000000000E+00 0.  1.
         11    1    3    3    0    0 -0.29507315021E+01 -0.10432272361E+02 -0.13338302940E+02  0.17188643012E+02  0.51100000000E-03 0. -1.
        -11    1    3    3    0    0 -0.25075404634E+01 -0.58604285531E+00  0.22503946511E+01  0.34198657504E+01  0.51100000000E-03 0.  1.
        -12    1    3    3    0    0 -0.26436767852E+01 -0.20781250330E+02 -0.17315771155E+02  0.27178766031E+02  0.00000000000E+00 0.  1.
</event>
<event>
 7    1  0.2685294E-009  0.4778727E+02  0.7816164E-02  0.1312668E+00
        -11   -1    0    0    0    0  0.00000000000E+00  0.00000000000E+00  0.45593999997E+02  0.45594000000E+02  0.51100000000E-03 0.  1.
         11   -1    0    0    0    0 -0.00000000000E+00 -0.00000000000E+00 -0.45593999997E+02  0.45594000000E+02  0.51100000000E-03 0. -1.
    9900012    2    1    2    0    0 -0.21231977330E+02 -0.28130996375E+02 -0.25327334970E+02  0.47787265961E+02  0.19999976824E+02 0.  0.
        -12    1    1    2    0    0  0.21231977330E+02  0.28130996375E+02  0.25327334970E+02  0.43400734039E+02  0.00000000000E+00 0.  1.
         11    1    3    3    0    0 -0.60363905487E+00  0.27459380169E+01 -0.20362524165E+00  0.28188684257E+01  0.51100000000E-03 0.  1.
        -11    1    3    3    0    0 -0.11950506746E+02 -0.20443004115E+02 -0.14902394616E+02  0.27978784718E+02  0.51100000000E-03 0. -1.
        -12    1    3    3    0    0 -0.86778315292E+01 -0.10433930277E+02 -0.10221315113E+02  0.16989612818E+02  0.00000000000E+00 0.  1.
</event>
<event>
 7    1  0.2685294E-009  0.4778725E+02  0.7816164E-02  0.1312668E+00
        -11   -1    0    0    0    0  0.00000000000E+00  0.00000000000E+00  0.45593999997E+02  0.45594000000E+02  0.51100000000E-03 0.  1.
         11   -1    0    0    0    0 -0.00000000000E+00 -0.00000000000E+00 -0.45593999997E+02  0.45594000000E+02  0.51100000000E-03 0. -1.
    9900012    2    1    2    0    0  0.24144910264E+02  0.70995778785E+01 -0.35358798898E+02  0.47787247043E+02  0.19999890566E+02 0.  0.
        -12    1    1    2    0    0 -0.24144910264E+02 -0.70995778785E+01  0.35358798898E+02  0.43400752957E+02  0.00000000000E+00 0.  1.
         11    1    3    3    0    0  0.21612050827E+01 -0.10933765595E+01  0.41151201254E+00  0.24567503145E+01  0.51100000000E-03 0.  1.
        -11    1    3    3    0    0  0.15515489016E+02  0.12297826657E+02 -0.28957649329E+02  0.35078660106E+02  0.51100000000E-03 0. -1.
         12    1    3    3    0    0  0.64682161656E+01 -0.41048722194E+01 -0.68126615818E+01  0.10251836622E+02  0.00000000000E+00 0. -1.
</event>
<event>
 7    1  0.2685294E-009  0.4778728E+02  0.7816164E-02  0.1312668E+00
        -11   -1    0    0    0    0  0.00000000000E+00  0.00000000000E+00  0.45593999997E+02  0.45594000000E+02  0.51100000000E-03 0.  1.
         11   -1    0    0    0    0 -0.00000000000E+00 -0.00000000000E+00 -0.45593999997E+02  0.45594000000E+02  0.51100000000E-03 0. -1.
    9900012    2    1    2    0    0 -0.32547478287E+02  0.28696293091E+02  0.89847357666E+00  0.47787276103E+02  0.20000023064E+02 0.  0.
        -12    1    1    2    0    0  0.32547478287E+02 -0.28696293091E+02 -0.89847357666E+00  0.43400723897E+02  0.00000000000E+00 0.  1.
         11    1    3    3    0    0 -0.17178379724E+02  0.51780188817E+01  0.12981123795E+01  0.17988710501E+02  0.51100000000E-03 0. -1.
        -11    1    3    3    0    0 -0.16379566238E+02  0.23562957820E+02 -0.80717433935E+00  0.28708094713E+02  0.51100000000E-03 0.  1.
        -12    1    3    3    0    0  0.10104676745E+01 -0.44683611465E-01  0.40753553646E+00  0.10904708890E+01  0.00000000000E+00 0.  1.
</event>
<event>
 7    1  0.2685294E-009  0.4778727E+02  0.7816164E-02  0.1312668E+00
        -11   -1    0    0    0    0  0.00000000000E+00  0.00000000000E+00  0.45593999997E+02  0.45594000000E+02  0.51100000000E-03 0.  1.
         11   -1    0    0    0    0 -0.00000000000E+00 -0.00000000000E+00 -0.45593999997E+02  0.45594000000E+02  0.51100000000E-03 0. -1.
    9900012    2    1    2    0    0 -0.79923400828E+01 -0.22929195504E+02 -0.35972181272E+02  0.47787270376E+02  0.19999996952E+02 0.  0.
        -12    1    1    2    0    0  0.79923400828E+01  0.22929195504E+02  0.35972181272E+02  0.43400729624E+02  0.00000000000E+00 0.  1.
         11    1    3    3    0    0  0.24995177690E+00 -0.17333244013E+02 -0.10346968440E+02  0.20188203983E+02  0.51100000000E-03 0. -1.
        -11    1    3    3    0    0 -0.62338900301E+01 -0.39422347056E+01 -0.21417950363E+02  0.22652399374E+02  0.51100000000E-03 0.  1.
         12    1    3    3    0    0 -0.20084018296E+01 -0.16537167849E+01 -0.42072624688E+01  0.49466670188E+01  0.00000000000E+00 0. -1.
</event>
<event>
 7    1  0.2685294E-009  0.4778727E+02  0.7816164E-02  0.1312668E+00
        -11   -1    0    0    0    0  0.00000000000E+00  0.00000000000E+00  0.45593999997E+02  0.45594000000E+02  0.51100000000E-03 0.  1.
         11   -1    0    0    0    0 -0.00000000000E+00 -0.00000000000E+00 -0.45593999997E+02  0.45594000000E+02  0.51100000000E-03 0. -1.
    9900012    2    1    2    0    0 -0.17165094723E+02  0.22204903796E+02 -0.33104761845E+02  0.47787268598E+02  0.19999988844E+02 0.  0.
        -12    1    1    2    0    0  0.17165094723E+02 -0.22204903796E+02  0.33104761845E+02  0.43400731402E+02  0.00000000000E+00 0.  1.
         11    1    3    3    0    0 -0.22943386764E+01 -0.28806664345E+01 -0.59353782635E+00  0.37302166803E+01  0.51100000000E-03 0.  1.
        -11    1    3    3    0    0 -0.12181685421E+02  0.16547134775E+02 -0.25082442404E+02  0.32424220055E+02  0.51100000000E-03 0. -1.
        -12    1    3    3    0    0 -0.26890706251E+01  0.85384354556E+01 -0.74287816145E+01  0.11632831862E+02  0.00000000000E+00 0.  1.
</event>
<event>
 7    1  0.2685294E-009  0.4778727E+02  0.7816164E-02  0.1312668E+00
        -11   -1    0    0    0    0  0.00000000000E+00  0.00000000000E+00  0.45593999997E+02  0.45594000000E+02  0.51100000000E-03 0. -1.
         11   -1    0    0    0    0 -0.00000000000E+00 -0.00000000000E+00 -0.45593999997E+02  0.45594000000E+02  0.51100000000E-03 0.  1.
    9900012    2    1    2    0    0  0.34783306335E+02  0.23612513213E+02 -0.10779359467E+02  0.47787265325E+02  0.19999973921E+02 0.  0.
        -12    1    1    2    0    0 -0.34783306335E+02 -0.23612513213E+02  0.10779359467E+02  0.43400734675E+02  0.00000000000E+00 0.  1.
         11    1    3    3    0    0  0.15491441185E+02  0.13772405415E+01 -0.30366974198E+01  0.15846232138E+02  0.51100000000E-03 0. -1.
        -11    1    3    3    0    0  0.10223958797E+02  0.17455334691E+02 -0.78257513204E+01  0.21690099738E+02  0.51100000000E-03 0.  1.
         12    1    3    3    0    0  0.90679063531E+01  0.47799379805E+01  0.83089273422E-01  0.10250933448E+02  0.00000000000E+00 0. -1.
</event>
<event>
 7    1  0.2685294E-009  0.4778727E+02  0.7816164E-02  0.1312668E+00
        -11   -1    0    0    0    0  0.00000000000E+00  0.00000000000E+00  0.45593999997E+02  0.45594000000E+02  0.51100000000E-03 0.  1.
         11   -1    0    0    0    0 -0.00000000000E+00 -0.00000000000E+00 -0.45593999997E+02  0.45594000000E+02  0.51100000000E-03 0. -1.
    9900012    2    1    2    0    0  0.42298235286E+02 -0.94452096329E+01  0.22957789208E+01  0.47787270811E+02  0.19999998934E+02 0.  0.
        -12    1    1    2    0    0 -0.42298235286E+02  0.94452096329E+01 -0.22957789208E+01  0.43400729189E+02  0.00000000000E+00 0.  1.
         11    1    3    3    0    0  0.28979382167E+02 -0.27733555081E+01  0.49340264145E+01  0.29526948852E+02  0.51100000000E-03 0. -1.
        -11    1    3    3    0    0  0.13496830792E+02 -0.56618302830E+01 -0.51749013520E+01  0.15524186544E+02  0.51100000000E-03 0.  1.
         12    1    3    3    0    0 -0.17797767329E+00 -0.10100238419E+01  0.25366538583E+01  0.27361354152E+01  0.00000000000E+00 0. -1.
</event>
<event>
 7    1  0.2685294E-009  0.4778728E+02  0.7816164E-02  0.1312668E+00
        -11   -1    0    0    0    0  0.00000000000E+00  0.00000000000E+00  0.45593999997E+02  0.45594000000E+02  0.51100000000E-03 0.  1.
         11   -1    0    0    0    0 -0.00000000000E+00 -0.00000000000E+00 -0.45593999997E+02  0.45594000000E+02  0.51100000000E-03 0. -1.
    9900012    2    1    2    0    0  0.22160108917E+02  0.37284548703E+02  0.15539740847E+01  0.47787276105E+02  0.20000023072E+02 0.  0.
        -12    1    1    2    0    0 -0.22160108917E+02 -0.37284548703E+02 -0.15539740847E+01  0.43400723895E+02  0.00000000000E+00 0.  1.
         11    1    3    3    0    0  0.79967848665E+01  0.22553454072E+02  0.65970681405E+01  0.24821929158E+02  0.51100000000E-03 0. -1.
        -11    1    3    3    0    0  0.13044554679E+02  0.15963625213E+02 -0.39970321522E+01  0.20999381014E+02  0.51100000000E-03 0.  1.
         12    1    3    3    0    0  0.11187693714E+01 -0.12325305821E+01 -0.10460619037E+01  0.19659659327E+01  0.00000000000E+00 0. -1.
</event>
<event>
 7    1  0.2685294E-009  0.4778723E+02  0.7816164E-02  0.1312668E+00
        -11   -1    0    0    0    0  0.00000000000E+00  0.00000000000E+00  0.45593999997E+02  0.45594000000E+02  0.51100000000E-03 0. -1.
         11   -1    0    0    0    0 -0.00000000000E+00 -0.00000000000E+00 -0.45593999997E+02  0.45594000000E+02  0.51100000000E-03 0.  1.
    9900012    2    1    2    0    0  0.40837856550E+02 -0.64092647205E+01  0.13221848664E+02  0.47787234063E+02  0.19999831385E+02 0.  0.
        -12    1    1    2    0    0 -0.40837856550E+02  0.64092647205E+01 -0.13221848664E+02  0.43400765937E+02  0.00000000000E+00 0.  1.
         11    1    3    3    0    0  0.13414845413E+02 -0.68277295490E+01  0.43227138253E+00  0.15058646256E+02  0.51100000000E-03 0. -1.
        -11    1    3    3    0    0  0.28441701382E+02  0.10772487732E+01  0.10889225632E+02  0.30474022995E+02  0.51100000000E-03 0.  1.
        -12    1    3    3    0    0 -0.10186902442E+01 -0.65878394466E+00  0.19003516495E+01  0.22545648119E+01  0.00000000000E+00 0.  1.
</event>
<event>
 7    1  0.2685294E-009  0.4778727E+02  0.7816164E-02  0.1312668E+00
        -11   -1    0    0    0    0  0.00000000000E+00  0.00000000000E+00  0.45593999997E+02  0.45594000000E+02  0.51100000000E-03 0.  1.
         11   -1    0    0    0    0 -0.00000000000E+00 -0.00000000000E+00 -0.45593999997E+02  0.45594000000E+02  0.51100000000E-03 0. -1.
    9900012    2    1    2    0    0 -0.23613484652E+02  0.25177110572E+02 -0.26308547547E+02  0.47787271570E+02  0.20000002398E+02 0.  0.
        -12    1    1    2    0    0  0.23613484652E+02 -0.25177110572E+02  0.26308547547E+02  0.43400728430E+02  0.00000000000E+00 0.  1.
         11    1    3    3    0    0 -0.12191121296E+02  0.22412761012E+02 -0.19179592330E+02  0.31918835455E+02  0.51100000000E-03 0. -1.
        -11    1    3    3    0    0 -0.87333633700E+01  0.48945429510E+01 -0.28998792788E+01  0.10422930804E+02  0.51100000000E-03 0.  1.
         12    1    3    3    0    0 -0.26889999862E+01 -0.21301933901E+01 -0.42290759381E+01  0.54455053113E+01  0.00000000000E+00 0. -1.
</event>
<event>
 7    1  0.2685294E-009  0.4778730E+02  0.7816164E-02  0.1312668E+00
        -11   -1    0    0    0    0  0.00000000000E+00  0.00000000000E+00  0.45593999997E+02  0.45594000000E+02  0.51100000000E-03 0.  1.
         11   -1    0    0    0    0 -0.00000000000E+00 -0.00000000000E+00 -0.45593999997E+02  0.45594000000E+02  0.51100000000E-03 0. -1.
    9900012    2    1    2    0    0  0.47925625801E+00  0.24799915802E+02 -0.35613974314E+02  0.47787300964E+02  0.20000136414E+02 0.  0.
        -12    1    1    2    0    0 -0.47925625801E+00 -0.24799915802E+02  0.35613974314E+02  0.43400699036E+02  0.00000000000E+00 0.  1.
         11    1    3    3    0    0  0.31363904398E+01  0.14601722854E+02 -0.33784640752E+02  0.36938451596E+02  0.51100000000E-03 0. -1.
        -11    1    3    3    0    0 -0.12495964257E+01  0.35541964391E+01  0.16361641783E+00  0.37710176542E+01  0.51100000000E-03 0.  1.
         12    1    3    3    0    0 -0.14075377561E+01  0.66439965089E+01 -0.19929499802E+01  0.70778317138E+01  0.00000000000E+00 0. -1.
</event>
<event>
 7    1  0.2685294E-009  0.4778727E+02  0.7816164E-02  0.1312668E+00
        -11   -1    0    0    0    0  0.00000000000E+00  0.00000000000E+00  0.45593999997E+02  0.45594000000E+02  0.51100000000E-03 0. -1.
         11   -1    0    0    0    0 -0.00000000000E+00 -0.00000000000E+00 -0.45593999997E+02  0.45594000000E+02  0.51100000000E-03 0.  1.
    9900012    2    1    2    0    0 -0.25770626622E+02 -0.16388058300E+02  0.30837147403E+02  0.47787270613E+02  0.19999998035E+02 0.  0.
        -12    1    1    2    0    0  0.25770626622E+02  0.16388058300E+02 -0.30837147403E+02  0.43400729387E+02  0.00000000000E+00 0.  1.
         11    1    3    3    0    0 -0.13242137256E+02 -0.33504859480E+00  0.69599480652E+01  0.14963533473E+02  0.51100000000E-03 0. -1.
        -11    1    3    3    0    0 -0.85131426160E+01 -0.38661857801E+01  0.12934602033E+02  0.15960104001E+02  0.51100000000E-03 0.  1.
         12    1    3    3    0    0 -0.40153467498E+01 -0.12186823925E+02  0.10942597304E+02  0.16863633139E+02  0.00000000000E+00 0. -1.
</event>
<event>
 7    1  0.2685294E-009  0.4778727E+02  0.7816164E-02  0.1312668E+00
        -11   -1    0    0    0    0  0.00000000000E+00  0.00000000000E+00  0.45593999997E+02  0.45594000000E+02  0.51100000000E-03 0. -1.
         11   -1    0    0    0    0 -0.00000000000E+00 -0.00000000000E+00 -0.45593999997E+02  0.45594000000E+02  0.51100000000E-03 0.  1.
    9900012    2    1    2    0    0 -0.85187157094E+00 -0.21915281012E+02  0.37451540699E+02  0.47787272728E+02  0.20000007674E+02 0.  0.
        -12    1    1    2    0    0  0.85187157094E+00  0.21915281012E+02 -0.37451540699E+02  0.43400727272E+02  0.00000000000E+00 0.  1.
         11    1    3    3    0    0 -0.39591983937E+01 -0.20362900417E+02  0.38145219369E+02  0.43420971043E+02  0.51100000000E-03 0. -1.
        -11    1    3    3    0    0  0.33192879605E+00  0.12377055822E+00 -0.10465538948E+01  0.11048851490E+01  0.51100000000E-03 0.  1.
         12    1    3    3    0    0  0.27753980267E+01 -0.16761511537E+01  0.35287522481E+00  0.32614165359E+01  0.00000000000E+00 0. -1.
</event>
<event>
 7    1  0.2685294E-009  0.4778728E+02  0.7816164E-02  0.1312668E+00
        -11   -1    0    0    0    0  0.00000000000E+00  0.00000000000E+00  0.45593999997E+02  0.45594000000E+02  0.51100000000E-03 0.  1.
         11   -1    0    0    0    0 -0.00000000000E+00 -0.00000000000E+00 -0.45593999997E+02  0.45594000000E+02  0.51100000000E-03 0. -1.
    9900012    2    1    2    0    0  0.35042334165E+02 -0.21370083971E+01 -0.25516467692E+02  0.47787284429E+02  0.20000061025E+02 0.  0.
        -12    1    1    2    0    0 -0.35042334165E+02  0.21370083971E+01  0.25516467692E+02  0.43400715571E+02  0.00000000000E+00 0.  1.
         11    1    3    3    0    0 -0.90830218018E+00  0.58972680916E+00  0.32521633597E+00  0.11307327210E+01  0.51100000000E-03 0. -1.
        -11    1    3    3    0    0  0.45106082515E+01 -0.20449901158E+00  0.16587378200E+01  0.48102825344E+01  0.51100000000E-03 0.  1.
         12    1    3    3    0    0  0.31440028093E+02 -0.25222361947E+01 -0.27500421848E+02  0.41846269174E+02  0.00000000000E+00 0. -1.
</event>
<event>
 7    1  0.2685294E-009  0.4778728E+02  0.7816164E-02  0.1312668E+00
        -11   -1    0    0    0    0  0.00000000000E+00  0.00000000000E+00  0.45593999997E+02  0.45594000000E+02  0.51100000000E-03 0.  1.
         11   -1    0    0    0    0 -0.00000000000E+00 -0.00000000000E+00 -0.45593999997E+02  0.45594000000E+02  0.51100000000E-03 0. -1.
    9900012    2    1    2    0    0 -0.68588792087E+00 -0.41282315711E+02 -0.13376205702E+02  0.47787275217E+02  0.20000019025E+02 0.  0.
        -12    1    1    2    0    0  0.68588792087E+00  0.41282315711E+02  0.13376205702E+02  0.43400724783E+02  0.00000000000E+00 0.  1.
         11    1    3    3    0    0  0.45407636733E+01 -0.19340335077E+02 -0.12964619846E+02  0.23722319946E+02  0.51100000000E-03 0. -1.
        -11    1    3    3    0    0 -0.24749956888E+01 -0.70664359774E+01  0.37516171490E+01  0.83746494002E+01  0.51100000000E-03 0.  1.
        -12    1    3    3    0    0 -0.27516559054E+01 -0.14875544657E+02 -0.41632030050E+01  0.15690305871E+02  0.00000000000E+00 0.  1.
</event>
<event>
 7    1  0.2685294E-009  0.4778727E+02  0.7816164E-02  0.1312668E+00
        -11   -1    0    0    0    0  0.00000000000E+00  0.00000000000E+00  0.45593999997E+02  0.45594000000E+02  0.51100000000E-03 0. -1.
         11   -1    0    0    0    0 -0.00000000000E+00 -0.00000000000E+00 -0.45593999997E+02  0.45594000000E+02  0.51100000000E-03 0.  1.
    9900012    2    1    2    0    0  0.24551606781E+02  0.10948925214E+02  0.34072903839E+02  0.47787272646E+02  0.20000007301E+02 0.  0.
        -12    1    1    2    0    0 -0.24551606781E+02 -0.10948925214E+02 -0.34072903839E+02  0.43400727354E+02  0.00000000000E+00 0.  1.
         11    1    3    3    0    0  0.65538873214E+01  0.15355866396E+00  0.16920798671E+02  0.18146361818E+02  0.51100000000E-03 0. -1.
        -11    1    3    3    0    0  0.69605035547E+01  0.16215325126E+00  0.45621150936E+00  0.69773227397E+01  0.51100000000E-03 0.  1.
        -12    1    3    3    0    0  0.11037215905E+02  0.10633213299E+02  0.16695893658E+02  0.22663588088E+02  0.00000000000E+00 0.  1.
</event>
<event>
 7    1  0.2685294E-009  0.4778727E+02  0.7816164E-02  0.1312668E+00
        -11   -1    0    0    0    0  0.00000000000E+00  0.00000000000E+00  0.45593999997E+02  0.45594000000E+02  0.51100000000E-03 0. -1.
         11   -1    0    0    0    0 -0.00000000000E+00 -0.00000000000E+00 -0.45593999997E+02  0.45594000000E+02  0.51100000000E-03 0.  1.
    9900012    2    1    2    0    0  0.10152102794E+02 -0.27940658300E+02  0.31620844105E+02  0.47787270060E+02  0.19999995511E+02 0.  0.
        -12    1    1    2    0    0 -0.10152102794E+02  0.27940658300E+02 -0.31620844105E+02  0.43400729940E+02  0.00000000000E+00 0.  1.
         11    1    3    3    0    0  0.62295390535E+00 -0.24912283225E+02  0.17669413180E+02  0.30548618454E+02  0.51100000000E-03 0.  1.
        -11    1    3    3    0    0  0.39975970344E+01 -0.55206117811E+00  0.62296106510E+01  0.74225064983E+01  0.51100000000E-03 0. -1.
         12    1    3    3    0    0  0.55315518543E+01 -0.24763138979E+01  0.77218202740E+01  0.98161451080E+01  0.00000000000E+00 0. -1.
</event>
<event>
 7    1  0.2685294E-009  0.4778727E+02  0.7816164E-02  0.1312668E+00
        -11   -1    0    0    0    0  0.00000000000E+00  0.00000000000E+00  0.45593999997E+02  0.45594000000E+02  0.51100000000E-03 0.  1.
         11   -1    0    0    0    0 -0.00000000000E+00 -0.00000000000E+00 -0.45593999997E+02  0.45594000000E+02  0.51100000000E-03 0. -1.
    9900012    2    1    2    0    0  0.19237322144E+02 -0.32287707670E+01 -0.38770141281E+02  0.47787269835E+02  0.19999994484E+02 0.  0.
        -12    1    1    2    0    0 -0.19237322144E+02  0.32287707670E+01  0.38770141281E+02  0.43400730165E+02  0.00000000000E+00 0.  1.
         11    1    3    3    0    0  0.18844075567E+02 -0.13781937990E+01 -0.30592992204E+02  0.35957332692E+02  0.51100000000E-03 0. -1.
        -11    1    3    3    0    0  0.36393745065E+00  0.18269596952E+01  0.87582805042E+00  0.20584720622E+01  0.51100000000E-03 0.  1.
         12    1    3    3    0    0  0.29309126468E-01 -0.36775366632E+01 -0.90529771279E+01  0.97714650801E+01  0.00000000000E+00 0. -1.
</event>
<event>
 7    1  0.2685294E-009  0.4778727E+02  0.7816164E-02  0.1312668E+00
        -11   -1    0    0    0    0  0.00000000000E+00  0.00000000000E+00  0.45593999997E+02  0.45594000000E+02  0.51100000000E-03 0.  1.
         11   -1    0    0    0    0 -0.00000000000E+00 -0.00000000000E+00 -0.45593999997E+02  0.45594000000E+02  0.51100000000E-03 0. -1.
    9900012    2    1    2    0    0 -0.42449555786E+02  0.76024689911E+01  0.48847817067E+01  0.47787269436E+02  0.19999992666E+02 0.  0.
        -12    1    1    2    0    0  0.42449555786E+02 -0.76024689911E+01 -0.48847817067E+01  0.43400730564E+02  0.00000000000E+00 0.  1.
         11    1    3    3    0    0 -0.31264043281E+02  0.64515604525E+01  0.82924287525E+01  0.32982228691E+02  0.51100000000E-03 0.  1.
        -11    1    3    3    0    0 -0.91593913038E+01 -0.19019466795E+01 -0.52250120821E+01  0.10715064244E+02  0.51100000000E-03 0. -1.
        -12    1    3    3    0    0 -0.20261212012E+01  0.30528552181E+01  0.18173650363E+01  0.40899765012E+01  0.00000000000E+00 0.  1.
</event>
<event>
 7    1  0.2685294E-009  0.4778727E+02  0.7816164E-02  0.1312668E+00
        -11   -1    0    0    0    0  0.00000000000E+00  0.00000000000E+00  0.45593999997E+02  0.45594000000E+02  0.51100000000E-03 0.  1.
         11   -1    0    0    0    0 -0.00000000000E+00 -0.00000000000E+00 -0.45593999997E+02  0.45594000000E+02  0.51100000000E-03 0. -1.
    9900012    2    1    2    0    0  0.73647866166E+01  0.30971053007E+02 -0.29498768281E+02  0.47787268020E+02  0.19999986212E+02 0.  0.
        -12    1    1    2    0    0 -0.73647866166E+01 -0.30971053007E+02  0.29498768281E+02  0.43400731980E+02  0.00000000000E+00 0.  1.
         11    1    3    3    0    0 -0.17216652108E+01  0.21232572872E+02 -0.19107062840E+02  0.28615837093E+02  0.51100000000E-03 0. -1.
        -11    1    3    3    0    0 -0.16920937639E+01  0.17555979238E+00 -0.10602464326E+01  0.20045262047E+01  0.51100000000E-03 0.  1.
         12    1    3    3    0    0  0.10778545591E+02  0.95629203423E+01 -0.93314590084E+01  0.17166904723E+02  0.00000000000E+00 0. -1.
</event>
<event>
 7    1  0.2685294E-009  0.4778727E+02  0.7816164E-02  0.1312668E+00
        -11   -1    0    0    0    0  0.00000000000E+00  0.00000000000E+00  0.45593999997E+02  0.45594000000E+02  0.51100000000E-03 0. -1.
         11   -1    0    0    0    0 -0.00000000000E+00 -0.00000000000E+00 -0.45593999997E+02  0.45594000000E+02  0.51100000000E-03 0.  1.
    9900012    2    1    2    0    0 -0.39219415930E+02  0.41659913536E+01  0.18113665923E+02  0.47787274626E+02  0.20000016330E+02 0.  0.
        -12    1    1    2    0    0  0.39219415930E+02 -0.41659913536E+01 -0.18113665923E+02  0.43400725374E+02  0.00000000000E+00 0.  1.
         11    1    3    3    0    0 -0.68358009535E+01  0.33398475246E+01 -0.14702282532E+01  0.77488274946E+01  0.51100000000E-03 0. -1.
        -11    1    3    3    0    0 -0.12104726921E+02 -0.57771921316E+01  0.95748065830E+01  0.16479602062E+02  0.51100000000E-03 0.  1.
         12    1    3    3    0    0 -0.20278888055E+02  0.66033359606E+01  0.10009087593E+02  0.23558845069E+02  0.00000000000E+00 0. -1.
</event>
<event>
 7    1  0.2685294E-009  0.4778727E+02  0.7816164E-02  0.1312668E+00
        -11   -1    0    0    0    0  0.00000000000E+00  0.00000000000E+00  0.45593999997E+02  0.45594000000E+02  0.51100000000E-03 0. -1.
         11   -1    0    0    0    0 -0.00000000000E+00 -0.00000000000E+00 -0.45593999997E+02  0.45594000000E+02  0.51100000000E-03 0.  1.
    9900012    2    1    2    0    0  0.81419758431E+01 -0.36006765948E+02  0.22822010824E+02  0.47787272556E+02  0.20000006890E+02 0.  0.
        -12    1    1    2    0    0 -0.81419758431E+01  0.36006765948E+02 -0.22822010824E+02  0.43400727444E+02  0.00000000000E+00 0.  1.
         11    1    3    3    0    0  0.71069181846E+01 -0.32922110656E+02  0.18417624090E+02  0.38387270462E+02  0.51100000000E-03 0. -1.
        -11    1    3    3    0    0  0.14687879666E+01  0.20595698759E+01  0.32351953169E+01  0.41067816066E+01  0.51100000000E-03 0.  1.
        -12    1    3    3    0    0 -0.43373030819E+00 -0.51442251679E+01  0.11691914169E+01  0.52932204874E+01  0.00000000000E+00 0.  1.
</event>
<event>
 7    1  0.2685294E-009  0.4778727E+02  0.7816164E-02  0.1312668E+00
        -11   -1    0    0    0    0  0.00000000000E+00  0.00000000000E+00  0.45593999997E+02  0.45594000000E+02  0.51100000000E-03 0.  1.
         11   -1    0    0    0    0 -0.00000000000E+00 -0.00000000000E+00 -0.45593999997E+02  0.45594000000E+02  0.51100000000E-03 0. -1.
    9900012    2    1    2    0    0 -0.31916988448E+02  0.54359567595E+01 -0.28902932290E+02  0.47787271061E+02  0.20000000074E+02 0.  0.
        -12    1    1    2    0    0  0.31916988448E+02 -0.54359567595E+01  0.28902932290E+02  0.43400728939E+02  0.00000000000E+00 0.  1.
         11    1    3    3    0    0 -0.14743767321E+02 -0.52827993399E+01 -0.10986639811E+02  0.19130940863E+02  0.51100000000E-03 0. -1.
        -11    1    3    3    0    0 -0.13054180070E+01 -0.61487832997E+00  0.78120380827E+00  0.16408751278E+01  0.51100000000E-03 0.  1.
         12    1    3    3    0    0 -0.15867803120E+02  0.11333634429E+02 -0.18697496287E+02  0.27015455070E+02  0.00000000000E+00 0. -1.
</event>
<event>
 7    1  0.2685294E-009  0.4778727E+02  0.7816164E-02  0.1312668E+00
        -11   -1    0    0    0    0  0.00000000000E+00  0.00000000000E+00  0.45593999997E+02  0.45594000000E+02  0.51100000000E-03 0. -1.
         11   -1    0    0    0    0 -0.00000000000E+00 -0.00000000000E+00 -0.45593999997E+02  0.45594000000E+02  0.51100000000E-03 0.  1.
    9900012    2    1    2    0    0 -0.12661280066E+02  0.20653569796E+02  0.36010350200E+02  0.47787270976E+02  0.19999999690E+02 0.  0.
        -12    1    1    2    0    0  0.12661280066E+02 -0.20653569796E+02 -0.36010350200E+02  0.43400729024E+02  0.00000000000E+00 0.  1.
         11    1    3    3    0    0 -0.19317099112E+01 -0.30666086475E+01  0.22030609103E+01  0.42413523095E+01  0.51100000000E-03 0. -1.
        -11    1    3    3    0    0 -0.79229873850E+01  0.11473740074E+02  0.12084386224E+02  0.18451363935E+02  0.51100000000E-03 0.  1.
         12    1    3    3    0    0 -0.28065827698E+01  0.12246438370E+02  0.21722903066E+02  0.25094554732E+02  0.00000000000E+00 0. -1.
</event>
<event>
 7    1  0.2685294E-009  0.4778724E+02  0.7816164E-02  0.1312668E+00
        -11   -1    0    0    0    0  0.00000000000E+00  0.00000000000E+00  0.45593999997E+02  0.45594000000E+02  0.51100000000E-03 0. -1.
         11   -1    0    0    0    0 -0.00000000000E+00 -0.00000000000E+00 -0.45593999997E+02  0.45594000000E+02  0.51100000000E-03 0.  1.
    9900012    2    1    2    0    0 -0.31877262451E+02 -0.16866014796E+02 -0.24145463573E+02  0.47787242776E+02  0.19999871111E+02 0.  0.
        -12    1    1    2    0    0  0.31877262451E+02  0.16866014796E+02  0.24145463573E+02  0.43400757224E+02  0.00000000000E+00 0.  1.
         11    1    3    3    0    0 -0.25465363462E+02 -0.90049420719E+01 -0.15010965048E+02  0.30901501418E+02  0.51100000000E-03 0. -1.
        -11    1    3    3    0    0  0.18662552720E+01  0.96180811173E+00 -0.14915746352E+01  0.25754181675E+01  0.51100000000E-03 0.  1.
         12    1    3    3    0    0 -0.82781542613E+01 -0.88228808355E+01 -0.76429238899E+01  0.14310323190E+02  0.00000000000E+00 0. -1.
</event>
<event>
 7    1  0.2685294E-009  0.4778727E+02  0.7816164E-02  0.1312668E+00
        -11   -1    0    0    0    0  0.00000000000E+00  0.00000000000E+00  0.45593999997E+02  0.45594000000E+02  0.51100000000E-03 0.  1.
         11   -1    0    0    0    0 -0.00000000000E+00 -0.00000000000E+00 -0.45593999997E+02  0.45594000000E+02  0.51100000000E-03 0. -1.
    9900012    2    1    2    0    0 -0.15506234529E+02  0.37493226667E+02 -0.15409023222E+02  0.47787270146E+02  0.19999995904E+02 0.  0.
        -12    1    1    2    0    0  0.15506234529E+02 -0.37493226667E+02  0.15409023222E+02  0.43400729854E+02  0.00000000000E+00 0.  1.
         11    1    3    3    0    0 -0.39001973705E+01  0.22251768659E+02 -0.44418522078E+00  0.22595354583E+02  0.51100000000E-03 0. -1.
        -11    1    3    3    0    0 -0.47144515921E+01  0.17477378321E+01 -0.47627386459E+01  0.69256278426E+01  0.51100000000E-03 0.  1.
         12    1    3    3    0    0 -0.68915855662E+01  0.13493720177E+02 -0.10202099355E+02  0.18266287720E+02  0.00000000000E+00 0. -1.
</event>
<event>
 7    1  0.2685294E-009  0.4778727E+02  0.7816164E-02  0.1312668E+00
        -11   -1    0    0    0    0  0.00000000000E+00  0.00000000000E+00  0.45593999997E+02  0.45594000000E+02  0.51100000000E-03 0.  1.
         11   -1    0    0    0    0 -0.00000000000E+00 -0.00000000000E+00 -0.45593999997E+02  0.45594000000E+02  0.51100000000E-03 0. -1.
    9900012    2    1    2    0    0  0.41083518165E+02 -0.13969071155E+02 -0.79560912782E+00  0.47787269503E+02  0.19999992974E+02 0.  0.
        -12    1    1    2    0    0 -0.41083518165E+02  0.13969071155E+02  0.79560912782E+00  0.43400730497E+02  0.00000000000E+00 0.  1.
         11    1    3    3    0    0  0.13710371225E+02 -0.64807197108E+01  0.79348691192E+01  0.17115377743E+02  0.51100000000E-03 0. -1.
        -11    1    3    3    0    0 -0.47024289286E+00  0.17594766367E+00 -0.31104849734E+00  0.59062457404E+00  0.51100000000E-03 0.  1.
         12    1    3    3    0    0  0.27843389833E+02 -0.76642991083E+01 -0.84194297496E+01  0.30081267186E+02  0.00000000000E+00 0. -1.
</event>
<event>
 7    1  0.2686194E-009  0.4778727E+02  0.7816164E-02  0.1312668E+00
        -11   -1    0    0    0    0  0.00000000000E+00  0.00000000000E+00  0.45593999997E+02  0.45594000000E+02  0.51100000000E-03 0. -1.
         11   -1    0    0    0    0 -0.00000000000E+00 -0.00000000000E+00 -0.45593999997E+02  0.45594000000E+02  0.51100000000E-03 0.  1.
    9900012    2    1    2    0    0 -0.10372560731E+02 -0.37893619159E+02  0.18441988810E+02  0.47787270278E+02  0.19999996507E+02 0.  0.
        -12    1    1    2    0    0  0.10372560731E+02  0.37893619159E+02 -0.18441988810E+02  0.43400729722E+02  0.00000000000E+00 0.  1.
         11    1    3    3    0    0 -0.97958688264E+00 -0.24061423830E+02  0.13881032827E+02  0.27795589215E+02  0.51100000000E-03 0. -1.
        -11    1    3    3    0    0 -0.71371179492E+01 -0.25445871529E+01  0.37446051317E+01  0.84519491393E+01  0.51100000000E-03 0.  1.
        -12    1    3    3    0    0 -0.22558558992E+01 -0.11287608176E+02  0.81635085159E+00  0.11539731924E+02  0.00000000000E+00 0.  1.
</event>
<event>
 7    1  0.2685294E-009  0.4778727E+02  0.7816164E-02  0.1312668E+00
        -11   -1    0    0    0    0  0.00000000000E+00  0.00000000000E+00  0.45593999997E+02  0.45594000000E+02  0.51100000000E-03 0.  1.
         11   -1    0    0    0    0 -0.00000000000E+00 -0.00000000000E+00 -0.45593999997E+02  0.45594000000E+02  0.51100000000E-03 0. -1.
    9900012    2    1    2    0    0 -0.81062438419E+01  0.33478919891E+02 -0.26402166426E+02  0.47787266616E+02  0.19999979807E+02 0.  0.
        -12    1    1    2    0    0  0.81062438419E+01 -0.33478919891E+02  0.26402166426E+02  0.43400733384E+02  0.00000000000E+00 0.  1.
         11    1    3    3    0    0 -0.15240062129E+01  0.12820911042E+02 -0.20598007797E+01  0.13074445854E+02  0.51100000000E-03 0. -1.
        -11    1    3    3    0    0 -0.68139870875E+01  0.62955393527E+01 -0.14801904200E+02  0.17468846670E+02  0.51100000000E-03 0.  1.
        -12    1    3    3    0    0  0.23174945855E+00  0.14362469497E+02 -0.95404614469E+01  0.17243974092E+02  0.00000000000E+00 0.  1.
</event>
<event>
 7    1  0.2685294E-009  0.4778727E+02  0.7816164E-02  0.1312668E+00
        -11   -1    0    0    0    0  0.00000000000E+00  0.00000000000E+00  0.45593999997E+02  0.45594000000E+02  0.51100000000E-03 0.  1.
         11   -1    0    0    0    0 -0.00000000000E+00 -0.00000000000E+00 -0.45593999997E+02  0.45594000000E+02  0.51100000000E-03 0. -1.
    9900012    2    1    2    0    0 -0.29172453001E+01  0.16928075437E+02 -0.39856657759E+02  0.47787271598E+02  0.20000002522E+02 0.  0.
        -12    1    1    2    0    0  0.29172453001E+01 -0.16928075437E+02  0.39856657759E+02  0.43400728402E+02  0.00000000000E+00 0.  1.
         11    1    3    3    0    0  0.63384056542E+00  0.87765626666E+01 -0.29139019810E+02  0.30438664258E+02  0.51100000000E-03 0. -1.
        -11    1    3    3    0    0 -0.52969592350E+01  0.19776649591E+00 -0.28171096451E+01  0.60027490150E+01  0.51100000000E-03 0.  1.
        -12    1    3    3    0    0  0.17458733695E+01  0.79537462749E+01 -0.79005283040E+01  0.11345858324E+02  0.00000000000E+00 0.  1.
</event>
<event>
 7    1  0.4049808E-009  0.4778727E+02  0.7816164E-02  0.1312668E+00
        -11   -1    0    0    0    0  0.00000000000E+00  0.00000000000E+00  0.45593999997E+02  0.45594000000E+02  0.51100000000E-03 0.  1.
         11   -1    0    0    0    0 -0.00000000000E+00 -0.00000000000E+00 -0.45593999997E+02  0.45594000000E+02  0.51100000000E-03 0. -1.
    9900012    2    1    2    0    0  0.23463077597E+02  0.36035608465E+02 -0.58772414265E+01  0.47787273572E+02  0.20000011523E+02 0.  0.
        -12    1    1    2    0    0 -0.23463077597E+02 -0.36035608465E+02  0.58772414265E+01  0.43400726428E+02  0.00000000000E+00 0.  1.
         11    1    3    3    0    0  0.65128780124E+01  0.13104075927E+02 -0.30963929051E+01  0.14957340512E+02  0.51100000000E-03 0. -1.
        -11    1    3    3    0    0  0.78415994153E+00  0.11994359118E+02 -0.53247700066E+01  0.13146586376E+02  0.51100000000E-03 0.  1.
        -12    1    3    3    0    0  0.16166039643E+02  0.10937173420E+02  0.25439214852E+01  0.19683346684E+02  0.00000000000E+00 0.  1.
</event>
<event>
 7    1  0.2685294E-009  0.4778726E+02  0.7816164E-02  0.1312668E+00
        -11   -1    0    0    0    0  0.00000000000E+00  0.00000000000E+00  0.45593999997E+02  0.45594000000E+02  0.51100000000E-03 0. -1.
         11   -1    0    0    0    0 -0.00000000000E+00 -0.00000000000E+00 -0.45593999997E+02  0.45594000000E+02  0.51100000000E-03 0.  1.
    9900012    2    1    2    0    0 -0.96419075006E+00  0.43386641306E+02 -0.54179996448E+00  0.47787264352E+02  0.19999969485E+02 0.  0.
        -12    1    1    2    0    0  0.96419075006E+00 -0.43386641306E+02  0.54179996448E+00  0.43400735648E+02  0.00000000000E+00 0.  1.
         11    1    3    3    0    0 -0.33688442098E+01  0.15796531221E+01 -0.22536849563E+01  0.43501162559E+01  0.51100000000E-03 0.  1.
        -11    1    3    3    0    0  0.38834628194E+01  0.32315152405E+02  0.56871182403E+01  0.33040788013E+02  0.51100000000E-03 0. -1.
         12    1    3    3    0    0 -0.14788093597E+01  0.94918357792E+01 -0.39752332486E+01  0.10396360082E+02  0.00000000000E+00 0. -1.
</event>
<event>
 7    1  0.2685294E-009  0.4778727E+02  0.7816164E-02  0.1312668E+00
        -11   -1    0    0    0    0  0.00000000000E+00  0.00000000000E+00  0.45593999997E+02  0.45594000000E+02  0.51100000000E-03 0. -1.
         11   -1    0    0    0    0 -0.00000000000E+00 -0.00000000000E+00 -0.45593999997E+02  0.45594000000E+02  0.51100000000E-03 0.  1.
    9900012    2    1    2    0    0 -0.19654164906E+02 -0.12921217211E+02  0.36474368666E+02  0.47787267035E+02  0.19999981717E+02 0.  0.
        -12    1    1    2    0    0  0.19654164906E+02  0.12921217211E+02 -0.36474368666E+02  0.43400732965E+02  0.00000000000E+00 0.  1.
         11    1    3    3    0    0 -0.11186702299E+02 -0.14766393636E+01  0.10048991059E+02  0.15109764846E+02  0.51100000000E-03 0. -1.
        -11    1    3    3    0    0 -0.61851377137E+01 -0.12688411532E+02  0.13634764538E+02  0.19625455918E+02  0.51100000000E-03 0.  1.
        -12    1    3    3    0    0 -0.22823248932E+01  0.12438336849E+01  0.12790613069E+02  0.13052046270E+02  0.00000000000E+00 0.  1.
</event>
<event>
 7    1  0.2685294E-009  0.4778727E+02  0.7816164E-02  0.1312668E+00
        -11   -1    0    0    0    0  0.00000000000E+00  0.00000000000E+00  0.45593999997E+02  0.45594000000E+02  0.51100000000E-03 0. -1.
         11   -1    0    0    0    0 -0.00000000000E+00 -0.00000000000E+00 -0.45593999997E+02  0.45594000000E+02  0.51100000000E-03 0.  1.
    9900012    2    1    2    0    0  0.63190916921E+01 -0.42892224528E+02 -0.19872743025E+01  0.47787273003E+02  0.20000008928E+02 0.  0.
        -12    1    1    2    0    0 -0.63190916921E+01  0.42892224528E+02  0.19872743025E+01  0.43400726997E+02  0.00000000000E+00 0.  1.
         11    1    3    3    0    0  0.12305308781E+02 -0.29180811315E+02  0.24187746105E+01  0.31761467914E+02  0.51100000000E-03 0. -1.
        -11    1    3    3    0    0 -0.39884576289E+01 -0.11985967325E+02 -0.28094807827E+01  0.12940803279E+02  0.51100000000E-03 0.  1.
        -12    1    3    3    0    0 -0.19977594597E+01 -0.17254458879E+01 -0.15965681304E+01  0.30850018097E+01  0.00000000000E+00 0.  1.
</event>
<event>
 7    1  0.3674307E-009  0.4778727E+02  0.7816164E-02  0.1312668E+00
        -11   -1    0    0    0    0  0.00000000000E+00  0.00000000000E+00  0.45593999997E+02  0.45594000000E+02  0.51100000000E-03 0. -1.
         11   -1    0    0    0    0 -0.00000000000E+00 -0.00000000000E+00 -0.45593999997E+02  0.45594000000E+02  0.51100000000E-03 0.  1.
    9900012    2    1    2    0    0  0.61149490153E+01 -0.19547799719E+02  0.38263750702E+02  0.47787266215E+02  0.19999977981E+02 0.  0.
        -12    1    1    2    0    0 -0.61149490153E+01  0.19547799719E+02 -0.38263750702E+02  0.43400733785E+02  0.00000000000E+00 0.  1.
         11    1    3    3    0    0  0.43483861134E+01 -0.40410363852E+01  0.20619507181E+02  0.21456992182E+02  0.51100000000E-03 0. -1.
        -11    1    3    3    0    0  0.29741852562E+01 -0.29457718651E+01 -0.51435608545E+00  0.42175718445E+01  0.51100000000E-03 0.  1.
        -12    1    3    3    0    0 -0.12076223543E+01 -0.12560991469E+02  0.18158599607E+02  0.22112702189E+02  0.00000000000E+00 0.  1.
</event>
<event>
 7    1  0.3157421E-009  0.4778728E+02  0.7816164E-02  0.1312668E+00
        -11   -1    0    0    0    0  0.00000000000E+00  0.00000000000E+00  0.45593999997E+02  0.45594000000E+02  0.51100000000E-03 0. -1.
         11   -1    0    0    0    0 -0.00000000000E+00 -0.00000000000E+00 -0.45593999997E+02  0.45594000000E+02  0.51100000000E-03 0.  1.
    9900012    2    1    2    0    0 -0.18020002554E+02  0.11377820442E+02  0.37808028279E+02  0.47787282352E+02  0.20000051554E+02 0.  0.
        -12    1    1    2    0    0  0.18020002554E+02 -0.11377820442E+02 -0.37808028279E+02  0.43400717648E+02  0.00000000000E+00 0.  1.
         11    1    3    3    0    0 -0.87555865268E+01  0.98464511334E+01  0.26208945050E+02  0.29334650096E+02  0.51100000000E-03 0. -1.
        -11    1    3    3    0    0 -0.11155775608E+02  0.13772889230E+01  0.64377020099E+01  0.12953465236E+02  0.51100000000E-03 0.  1.
        -12    1    3    3    0    0  0.18913595803E+01  0.15408038542E+00  0.51613812190E+01  0.54991670201E+01  0.00000000000E+00 0.  1.
</event>
<event>
 7    1  0.2685294E-009  0.4778727E+02  0.7816164E-02  0.1312668E+00
        -11   -1    0    0    0    0  0.00000000000E+00  0.00000000000E+00  0.45593999997E+02  0.45594000000E+02  0.51100000000E-03 0. -1.
         11   -1    0    0    0    0 -0.00000000000E+00 -0.00000000000E+00 -0.45593999997E+02  0.45594000000E+02  0.51100000000E-03 0.  1.
    9900012    2    1    2    0    0 -0.66398627820E+01  0.31528939457E+02  0.29076814963E+02  0.47787274552E+02  0.20000015991E+02 0.  0.
        -12    1    1    2    0    0  0.66398627820E+01 -0.31528939457E+02 -0.29076814963E+02  0.43400725448E+02  0.00000000000E+00 0.  1.
         11    1    3    3    0    0  0.31551194836E+01  0.16875115535E+02  0.10035062690E+02  0.19885341001E+02  0.51100000000E-03 0. -1.
        -11    1    3    3    0    0  0.18644358027E+01  0.10355947435E+01  0.67723168770E+00  0.22376819155E+01  0.51100000000E-03 0.  1.
         12    1    3    3    0    0 -0.11659418068E+02  0.13618229178E+02  0.18364520586E+02  0.25664251635E+02  0.00000000000E+00 0. -1.
</event>
<event>
 7    1  0.2685294E-009  0.4778727E+02  0.7816164E-02  0.1312668E+00
        -11   -1    0    0    0    0  0.00000000000E+00  0.00000000000E+00  0.45593999997E+02  0.45594000000E+02  0.51100000000E-03 0.  1.
         11   -1    0    0    0    0 -0.00000000000E+00 -0.00000000000E+00 -0.45593999997E+02  0.45594000000E+02  0.51100000000E-03 0. -1.
    9900012    2    1    2    0    0  0.23134539860E+01 -0.33918424527E+02 -0.26977981164E+02  0.47787273515E+02  0.20000011263E+02 0.  0.
        -12    1    1    2    0    0 -0.23134539860E+01  0.33918424527E+02  0.26977981164E+02  0.43400726485E+02  0.00000000000E+00 0.  1.
         11    1    3    3    0    0  0.70153603844E+01 -0.17407301426E+02 -0.16269112002E+02  0.24837742044E+02  0.51100000000E-03 0. -1.
        -11    1    3    3    0    0 -0.19323199502E+01 -0.14490475866E+02 -0.35974861488E+01  0.15054888178E+02  0.51100000000E-03 0.  1.
        -12    1    3    3    0    0 -0.27695864482E+01 -0.20206472347E+01 -0.71113830139E+01  0.78946432922E+01  0.00000000000E+00 0.  1.
</event>
<event>
 7    1  0.2685294E-009  0.4778727E+02  0.7816164E-02  0.1312668E+00
        -11   -1    0    0    0    0  0.00000000000E+00  0.00000000000E+00  0.45593999997E+02  0.45594000000E+02  0.51100000000E-03 0.  1.
         11   -1    0    0    0    0 -0.00000000000E+00 -0.00000000000E+00 -0.45593999997E+02  0.45594000000E+02  0.51100000000E-03 0. -1.
    9900012    2    1    2    0    0  0.15462335108E+02 -0.86629308033E+01 -0.39616830576E+02  0.47787269108E+02  0.19999991171E+02 0.  0.
        -12    1    1    2    0    0 -0.15462335108E+02  0.86629308033E+01  0.39616830576E+02  0.43400730892E+02  0.00000000000E+00 0.  1.
         11    1    3    3    0    0  0.28858822731E+01  0.75330693975E+00 -0.95784150633E+01  0.10032039834E+02  0.51100000000E-03 0. -1.
        -11    1    3    3    0    0 -0.25813660568E+01  0.20831999084E+01 -0.78768822966E+01  0.85468384536E+01  0.51100000000E-03 0.  1.
        -12    1    3    3    0    0  0.15157818892E+02 -0.11499437651E+02 -0.22161533216E+02  0.29208390821E+02  0.00000000000E+00 0.  1.
</event>
<event>
 7    1  0.2685294E-009  0.4778727E+02  0.7816164E-02  0.1312668E+00
        -11   -1    0    0    0    0  0.00000000000E+00  0.00000000000E+00  0.45593999997E+02  0.45594000000E+02  0.51100000000E-03 0. -1.
         11   -1    0    0    0    0 -0.00000000000E+00 -0.00000000000E+00 -0.45593999997E+02  0.45594000000E+02  0.51100000000E-03 0.  1.
    9900012    2    1    2    0    0  0.37830016373E+02  0.20979416815E+02  0.35181252930E+01  0.47787271040E+02  0.19999999978E+02 0.  0.
        -12    1    1    2    0    0 -0.37830016373E+02 -0.20979416815E+02 -0.35181252930E+01  0.43400728960E+02  0.00000000000E+00 0.  1.
         11    1    3    3    0    0  0.26665137672E+02  0.18185744319E+02  0.10306046527E+02  0.33881638962E+02  0.51100000000E-03 0. -1.
        -11    1    3    3    0    0  0.65899479381E+01  0.27400846157E+00 -0.21972625293E+01  0.69520110290E+01  0.51100000000E-03 0.  1.
         12    1    3    3    0    0  0.45749307636E+01  0.25196640349E+01 -0.45906587051E+01  0.69536210486E+01  0.00000000000E+00 0. -1.
</event>
<event>
 7    1  0.2685294E-009  0.4778727E+02  0.7816164E-02  0.1312668E+00
        -11   -1    0    0    0    0  0.00000000000E+00  0.00000000000E+00  0.45593999997E+02  0.45594000000E+02  0.51100000000E-03 0.  1.
         11   -1    0    0    0    0 -0.00000000000E+00 -0.00000000000E+00 -0.45593999997E+02  0.45594000000E+02  0.51100000000E-03 0. -1.
    9900012    2    1    2    0    0  0.82601701244E+01  0.12164413200E+02 -0.40834053953E+02  0.47787270499E+02  0.19999997512E+02 0.  0.
        -12    1    1    2    0    0 -0.82601701244E+01 -0.12164413200E+02  0.40834053953E+02  0.43400729501E+02  0.00000000000E+00 0.  1.
         11    1    3    3    0    0 -0.37584740849E+00 -0.77025810317E+00 -0.27744282886E+01  0.29037925907E+01  0.51100000000E-03 0. -1.
        -11    1    3    3    0    0 -0.61370898883E-01  0.13049279596E+02 -0.13266347519E+02  0.18608692622E+02  0.51100000000E-03 0.  1.
        -12    1    3    3    0    0  0.86973884317E+01 -0.11460829253E+00 -0.24793278146E+02  0.26274785286E+02  0.00000000000E+00 0.  1.
</event>
<event>
 7    1  0.2685294E-009  0.4778727E+02  0.7816164E-02  0.1312668E+00
        -11   -1    0    0    0    0  0.00000000000E+00  0.00000000000E+00  0.45593999997E+02  0.45594000000E+02  0.51100000000E-03 0.  1.
         11   -1    0    0    0    0 -0.00000000000E+00 -0.00000000000E+00 -0.45593999997E+02  0.45594000000E+02  0.51100000000E-03 0. -1.
    9900012    2    1    2    0    0 -0.10377555139E+02 -0.41776579141E+01 -0.41934195221E+02  0.47787271836E+02  0.20000003611E+02 0.  0.
        -12    1    1    2    0    0  0.10377555139E+02  0.41776579141E+01  0.41934195221E+02  0.43400728164E+02  0.00000000000E+00 0.  1.
         11    1    3    3    0    0 -0.10341708068E+02 -0.63209469992E-01 -0.11640674039E+02  0.15571133984E+02  0.51100000000E-03 0. -1.
        -11    1    3    3    0    0 -0.21917986938E+01 -0.43362954143E+01 -0.29516492935E+02  0.29913722517E+02  0.51100000000E-03 0.  1.
         12    1    3    3    0    0  0.21559516229E+01  0.22184697013E+00 -0.77702824758E+00  0.23024153353E+01  0.00000000000E+00 0. -1.
</event>
<event>
 7    1  0.2685294E-009  0.4778726E+02  0.7816164E-02  0.1312668E+00
        -11   -1    0    0    0    0  0.00000000000E+00  0.00000000000E+00  0.45593999997E+02  0.45594000000E+02  0.51100000000E-03 0. -1.
         11   -1    0    0    0    0 -0.00000000000E+00 -0.00000000000E+00 -0.45593999997E+02  0.45594000000E+02  0.51100000000E-03 0.  1.
    9900012    2    1    2    0    0 -0.11820402373E+02 -0.32216183058E+02  0.26571029034E+02  0.47787263290E+02  0.19999964644E+02 0.  0.
        -12    1    1    2    0    0  0.11820402373E+02  0.32216183058E+02 -0.26571029034E+02  0.43400736710E+02  0.00000000000E+00 0.  1.
         11    1    3    3    0    0 -0.10852866408E+02 -0.14867687838E+02  0.18167373094E+02  0.25862836200E+02  0.51100000000E-03 0. -1.
        -11    1    3    3    0    0  0.35577240981E+01 -0.42204235299E+01  0.53900715444E+01  0.77150662372E+01  0.51100000000E-03 0.  1.
         12    1    3    3    0    0 -0.45252600637E+01 -0.13128071690E+02  0.30135843956E+01  0.14209360853E+02  0.00000000000E+00 0. -1.
</event>
<event>
 7    1  0.2685294E-009  0.4778727E+02  0.7816164E-02  0.1312668E+00
        -11   -1    0    0    0    0  0.00000000000E+00  0.00000000000E+00  0.45593999997E+02  0.45594000000E+02  0.51100000000E-03 0.  1.
         11   -1    0    0    0    0 -0.00000000000E+00 -0.00000000000E+00 -0.45593999997E+02  0.45594000000E+02  0.51100000000E-03 0. -1.
    9900012    2    1    2    0    0  0.44180971517E+01  0.14813303758E+02 -0.40554524243E+02  0.47787274346E+02  0.20000015055E+02 0.  0.
        -12    1    1    2    0    0 -0.44180971517E+01 -0.14813303758E+02  0.40554524243E+02  0.43400725654E+02  0.00000000000E+00 0.  1.
         11    1    3    3    0    0  0.50290407176E+01 -0.46128343358E+00 -0.26508295550E+02  0.26985065613E+02  0.51100000000E-03 0. -1.
        -11    1    3    3    0    0 -0.10200726746E+01  0.96070769795E+01 -0.87580896954E+01  0.13039962106E+02  0.51100000000E-03 0.  1.
         12    1    3    3    0    0  0.40912910859E+00  0.56675102125E+01 -0.52881389979E+01  0.77622466269E+01  0.00000000000E+00 0. -1.
</event>
<event>
 7    1  0.2685294E-009  0.4778727E+02  0.7816164E-02  0.1312668E+00
        -11   -1    0    0    0    0  0.00000000000E+00  0.00000000000E+00  0.45593999997E+02  0.45594000000E+02  0.51100000000E-03 0. -1.
         11   -1    0    0    0    0 -0.00000000000E+00 -0.00000000000E+00 -0.45593999997E+02  0.45594000000E+02  0.51100000000E-03 0.  1.
    9900012    2    1    2    0    0  0.18748458682E+02  0.17195352309E+02  0.35163027291E+02  0.47787270372E+02  0.19999996933E+02 0.  0.
        -12    1    1    2    0    0 -0.18748458682E+02 -0.17195352309E+02 -0.35163027291E+02  0.43400729628E+02  0.00000000000E+00 0.  1.
         11    1    3    3    0    0  0.16700414149E+02  0.18265455726E+02  0.22163479429E+02  0.33222741101E+02  0.51100000000E-03 0. -1.
        -11    1    3    3    0    0  0.11518337225E+00 -0.13714764883E+01  0.12459298561E+02  0.12535084198E+02  0.51100000000E-03 0.  1.
         12    1    3    3    0    0  0.19328611605E+01  0.30137307200E+00  0.54024930159E+00  0.20294450725E+01  0.00000000000E+00 0. -1.
</event>
<event>
 7    1  0.2685294E-009  0.4778727E+02  0.7816164E-02  0.1312668E+00
        -11   -1    0    0    0    0  0.00000000000E+00  0.00000000000E+00  0.45593999997E+02  0.45594000000E+02  0.51100000000E-03 0. -1.
         11   -1    0    0    0    0 -0.00000000000E+00 -0.00000000000E+00 -0.45593999997E+02  0.45594000000E+02  0.51100000000E-03 0.  1.
    9900012    2    1    2    0    0  0.34947767856E+02 -0.50955449704E+01  0.25225228757E+02  0.47787271637E+02  0.20000002700E+02 0.  0.
        -12    1    1    2    0    0 -0.34947767856E+02  0.50955449704E+01 -0.25225228757E+02  0.43400728363E+02  0.00000000000E+00 0.  1.
         11    1    3    3    0    0  0.18332918226E+01 -0.12169893182E+00  0.14521561221E+01  0.23419067447E+01  0.51100000000E-03 0. -1.
        -11    1    3    3    0    0  0.11187498267E+02  0.75337706806E+01  0.82011602151E+01  0.15785336464E+02  0.51100000000E-03 0.  1.
        -12    1    3    3    0    0  0.21926977766E+02 -0.12507616719E+02  0.15571912420E+02  0.29660028428E+02  0.00000000000E+00 0.  1.
</event>
<event>
 7    1  0.2685294E-009  0.4778727E+02  0.7816164E-02  0.1312668E+00
        -11   -1    0    0    0    0  0.00000000000E+00  0.00000000000E+00  0.45593999997E+02  0.45594000000E+02  0.51100000000E-03 0.  1.
         11   -1    0    0    0    0 -0.00000000000E+00 -0.00000000000E+00 -0.45593999997E+02  0.45594000000E+02  0.51100000000E-03 0. -1.
    9900012    2    1    2    0    0 -0.23641622265E+02 -0.19127688168E+02 -0.30964953787E+02  0.47787272806E+02  0.20000008030E+02 0.  0.
        -12    1    1    2    0    0  0.23641622265E+02  0.19127688168E+02  0.30964953787E+02  0.43400727194E+02  0.00000000000E+00 0.  1.
         11    1    3    3    0    0 -0.94320305654E+01 -0.53946076778E+01 -0.16801789414E+02  0.20009125927E+02  0.51100000000E-03 0. -1.
        -11    1    3    3    0    0 -0.83853403547E+01 -0.11810490289E+02 -0.26382954204E+01  0.14722846760E+02  0.51100000000E-03 0.  1.
        -12    1    3    3    0    0 -0.58242513447E+01 -0.19225902004E+01 -0.11524868953E+02  0.13055300119E+02  0.00000000000E+00 0.  1.
</event>
<event>
 7    1  0.2685294E-009  0.4778727E+02  0.7816164E-02  0.1312668E+00
        -11   -1    0    0    0    0  0.00000000000E+00  0.00000000000E+00  0.45593999997E+02  0.45594000000E+02  0.51100000000E-03 0.  1.
         11   -1    0    0    0    0 -0.00000000000E+00 -0.00000000000E+00 -0.45593999997E+02  0.45594000000E+02  0.51100000000E-03 0. -1.
    9900012    2    1    2    0    0  0.39038715589E+01 -0.42850501249E+02  0.56760635134E+01  0.47787269966E+02  0.19999995084E+02 0.  0.
        -12    1    1    2    0    0 -0.39038715589E+01  0.42850501249E+02 -0.56760635134E+01  0.43400730034E+02  0.00000000000E+00 0.  1.
         11    1    3    3    0    0  0.36420870847E+01 -0.14410497995E+02  0.17675455073E+01  0.14968348880E+02  0.51100000000E-03 0. -1.
        -11    1    3    3    0    0 -0.50766885844E+01 -0.26366585204E+02  0.34886980867E+01  0.27076569149E+02  0.51100000000E-03 0.  1.
        -12    1    3    3    0    0  0.53384730586E+01 -0.20734180502E+01  0.41981991950E+00  0.57423519374E+01  0.00000000000E+00 0.  1.
</event>
<event>
 7    1  0.2685294E-009  0.4778727E+02  0.7816164E-02  0.1312668E+00
        -11   -1    0    0    0    0  0.00000000000E+00  0.00000000000E+00  0.45593999997E+02  0.45594000000E+02  0.51100000000E-03 0.  1.
         11   -1    0    0    0    0 -0.00000000000E+00 -0.00000000000E+00 -0.45593999997E+02  0.45594000000E+02  0.51100000000E-03 0. -1.
    9900012    2    1    2    0    0 -0.33427566574E+02  0.12969823209E+02 -0.24454129550E+02  0.47787274509E+02  0.20000015796E+02 0.  0.
        -12    1    1    2    0    0  0.33427566574E+02 -0.12969823209E+02  0.24454129550E+02  0.43400725491E+02  0.00000000000E+00 0.  1.
         11    1    3    3    0    0 -0.10670464669E+02  0.22364916755E+01  0.27824844592E+00  0.10905876110E+02  0.51100000000E-03 0. -1.
        -11    1    3    3    0    0 -0.54243594615E+01  0.74734112979E+01 -0.11937732668E+02  0.15092548278E+02  0.51100000000E-03 0.  1.
        -12    1    3    3    0    0 -0.17332742444E+02  0.32599202351E+01 -0.12794645327E+02  0.21788850121E+02  0.00000000000E+00 0.  1.
</event>
<event>
 7    1  0.2685294E-009  0.4778727E+02  0.7816164E-02  0.1312668E+00
        -11   -1    0    0    0    0  0.00000000000E+00  0.00000000000E+00  0.45593999997E+02  0.45594000000E+02  0.51100000000E-03 0.  1.
         11   -1    0    0    0    0 -0.00000000000E+00 -0.00000000000E+00 -0.45593999997E+02  0.45594000000E+02  0.51100000000E-03 0. -1.
    9900012    2    1    2    0    0 -0.34902441090E+02  0.17670936908E+02 -0.18793104903E+02  0.47787271928E+02  0.20000004031E+02 0.  0.
        -12    1    1    2    0    0  0.34902441090E+02 -0.17670936908E+02  0.18793104903E+02  0.43400728072E+02  0.00000000000E+00 0.  1.
         11    1    3    3    0    0 -0.15410340028E+02  0.16002481766E+00 -0.81617096036E+01  0.17438970487E+02  0.51100000000E-03 0.  1.
        -11    1    3    3    0    0 -0.12911448796E+02  0.17027427683E+02 -0.10350652031E+02  0.23743942412E+02  0.51100000000E-03 0. -1.
         12    1    3    3    0    0 -0.65806522655E+01  0.48348440689E+00 -0.28074326838E+00  0.66043590297E+01  0.00000000000E+00 0. -1.
</event>
<event>
 7    1  0.2685294E-009  0.4778727E+02  0.7816164E-02  0.1312668E+00
        -11   -1    0    0    0    0  0.00000000000E+00  0.00000000000E+00  0.45593999997E+02  0.45594000000E+02  0.51100000000E-03 0.  1.
         11   -1    0    0    0    0 -0.00000000000E+00 -0.00000000000E+00 -0.45593999997E+02  0.45594000000E+02  0.51100000000E-03 0. -1.
    9900012    2    1    2    0    0  0.38031400381E+02 -0.20354601314E+02  0.47881049002E+01  0.47787272378E+02  0.20000006081E+02 0.  0.
        -12    1    1    2    0    0 -0.38031400381E+02  0.20354601314E+02 -0.47881049002E+01  0.43400727622E+02  0.00000000000E+00 0.  1.
         11    1    3    3    0    0  0.14163610882E+02 -0.17354372944E+02  0.10964604132E+01  0.22427312795E+02  0.51100000000E-03 0. -1.
        -11    1    3    3    0    0  0.18062276381E+02 -0.51713418825E+01  0.37640554461E+01  0.19161333946E+02  0.51100000000E-03 0.  1.
         12    1    3    3    0    0  0.58055131175E+01  0.21711135126E+01 -0.72410959113E-01  0.61986256371E+01  0.00000000000E+00 0. -1.
</event>
<event>
 7    1  0.2685294E-009  0.4778727E+02  0.7816164E-02  0.1312668E+00
        -11   -1    0    0    0    0  0.00000000000E+00  0.00000000000E+00  0.45593999997E+02  0.45594000000E+02  0.51100000000E-03 0.  1.
         11   -1    0    0    0    0 -0.00000000000E+00 -0.00000000000E+00 -0.45593999997E+02  0.45594000000E+02  0.51100000000E-03 0. -1.
    9900012    2    1    2    0    0 -0.30058327455E+02  0.11261087871E+02 -0.29211441225E+02  0.47787269040E+02  0.19999990861E+02 0.  0.
        -12    1    1    2    0    0  0.30058327455E+02 -0.11261087871E+02  0.29211441225E+02  0.43400730960E+02  0.00000000000E+00 0.  1.
         11    1    3    3    0    0  0.98827851525E+00  0.69849120117E+00 -0.78263521315E+01  0.79193669147E+01  0.51100000000E-03 0. -1.
        -11    1    3    3    0    0 -0.15642942164E+02  0.86191523308E+01 -0.89566257410E+01  0.19980304587E+02  0.51100000000E-03 0.  1.
         12    1    3    3    0    0 -0.15403663807E+02  0.19434443389E+01 -0.12428463352E+02  0.19887597539E+02  0.00000000000E+00 0. -1.
</event>
<event>
 7    1  0.2685294E-009  0.4778727E+02  0.7816164E-02  0.1312668E+00
        -11   -1    0    0    0    0  0.00000000000E+00  0.00000000000E+00  0.45593999997E+02  0.45594000000E+02  0.51100000000E-03 0. -1.
         11   -1    0    0    0    0 -0.00000000000E+00 -0.00000000000E+00 -0.45593999997E+02  0.45594000000E+02  0.51100000000E-03 0.  1.
    9900012    2    1    2    0    0 -0.39957424812E+02 -0.16391943015E+02  0.42815282838E+01  0.47787273302E+02  0.20000010294E+02 0.  0.
        -12    1    1    2    0    0  0.39957424812E+02  0.16391943015E+02 -0.42815282838E+01  0.43400726698E+02  0.00000000000E+00 0.  1.
         11    1    3    3    0    0 -0.16940129308E+02 -0.82587087853E+01  0.55332586290E+01  0.19641568244E+02  0.51100000000E-03 0. -1.
        -11    1    3    3    0    0  0.88925508236E+00 -0.25915042765E+01 -0.23081985921E+01  0.35825200653E+01  0.51100000000E-03 0.  1.
        -12    1    3    3    0    0 -0.23906550587E+02 -0.55417299531E+01  0.10564682469E+01  0.24563184993E+02  0.00000000000E+00 0.  1.
</event>
<event>
 7    1  0.2685294E-009  0.4778727E+02  0.7816164E-02  0.1312668E+00
        -11   -1    0    0    0    0  0.00000000000E+00  0.00000000000E+00  0.45593999997E+02  0.45594000000E+02  0.51100000000E-03 0. -1.
         11   -1    0    0    0    0 -0.00000000000E+00 -0.00000000000E+00 -0.45593999997E+02  0.45594000000E+02  0.51100000000E-03 0.  1.
    9900012    2    1    2    0    0 -0.11996691758E+02  0.27045077473E+02  0.31753211285E+02  0.47787271255E+02  0.20000000962E+02 0.  0.
        -12    1    1    2    0    0  0.11996691758E+02 -0.27045077473E+02 -0.31753211285E+02  0.43400728745E+02  0.00000000000E+00 0.  1.
         11    1    3    3    0    0 -0.34876045345E+01  0.12976409220E+02  0.11176263991E+02  0.17477398511E+02  0.51100000000E-03 0. -1.
        -11    1    3    3    0    0  0.14928950638E+01  0.55183625527E+01 -0.19587264366E+00  0.57200897972E+01  0.51100000000E-03 0.  1.
        -12    1    3    3    0    0 -0.10001982287E+02  0.85503056997E+01  0.20772819938E+02  0.24589782947E+02  0.00000000000E+00 0.  1.
</event>
<event>
 7    1  0.2685294E-009  0.4778727E+02  0.7816164E-02  0.1312668E+00
        -11   -1    0    0    0    0  0.00000000000E+00  0.00000000000E+00  0.45593999997E+02  0.45594000000E+02  0.51100000000E-03 0.  1.
         11   -1    0    0    0    0 -0.00000000000E+00 -0.00000000000E+00 -0.45593999997E+02  0.45594000000E+02  0.51100000000E-03 0. -1.
    9900012    2    1    2    0    0  0.33153186449E+02 -0.19427566074E+02 -0.20175701931E+02  0.47787273696E+02  0.20000012091E+02 0.  0.
        -12    1    1    2    0    0 -0.33153186449E+02  0.19427566074E+02  0.20175701931E+02  0.43400726304E+02  0.00000000000E+00 0.  1.
         11    1    3    3    0    0  0.12414098484E+02 -0.35032288792E+01 -0.15613650614E+02  0.20252618090E+02  0.51100000000E-03 0. -1.
        -11    1    3    3    0    0  0.14834240420E+02 -0.12520742133E+02 -0.64619763396E+01  0.20459247564E+02  0.51100000000E-03 0.  1.
         12    1    3    3    0    0  0.59048475456E+01 -0.34035950616E+01  0.18999250225E+01  0.70754080427E+01  0.00000000000E+00 0. -1.
</event>
<event>
 7    1 -0.5608099E-009  0.4778727E+02  0.7816164E-02  0.1312668E+00
        -11   -1    0    0    0    0  0.00000000000E+00  0.00000000000E+00  0.45593999997E+02  0.45594000000E+02  0.51100000000E-03 0. -1.
         11   -1    0    0    0    0 -0.00000000000E+00 -0.00000000000E+00 -0.45593999997E+02  0.45594000000E+02  0.51100000000E-03 0.  1.
    9900012    2    1    2    0    0  0.19920845560E+02  0.36623947443E+02  0.12061078880E+02  0.47787271459E+02  0.20000001888E+02 0.  0.
        -12    1    1    2    0    0 -0.19920845560E+02 -0.36623947443E+02 -0.12061078880E+02  0.43400728541E+02  0.00000000000E+00 0.  1.
         11    1    3    3    0    0  0.10346154748E+02  0.18911937398E+02  0.51869859873E+01  0.22172260104E+02  0.51100000000E-03 0. -1.
        -11    1    3    3    0    0 -0.72876677966E+00  0.10243191407E+02  0.77408083072E+01  0.12859789451E+02  0.51100000000E-03 0.  1.
        -12    1    3    3    0    0  0.10303457592E+02  0.74688186384E+01 -0.86671541410E+00  0.12755221904E+02  0.00000000000E+00 0.  1.
</event>
<event>
 7    1  0.2685294E-009  0.4778727E+02  0.7816164E-02  0.1312668E+00
        -11   -1    0    0    0    0  0.00000000000E+00  0.00000000000E+00  0.45593999997E+02  0.45594000000E+02  0.51100000000E-03 0.  1.
         11   -1    0    0    0    0 -0.00000000000E+00 -0.00000000000E+00 -0.45593999997E+02  0.45594000000E+02  0.51100000000E-03 0. -1.
    9900012    2    1    2    0    0 -0.16243516334E+02 -0.39805825238E+02 -0.59386407862E+01  0.47787274198E+02  0.20000014376E+02 0.  0.
        -12    1    1    2    0    0  0.16243516334E+02  0.39805825238E+02  0.59386407862E+01  0.43400725802E+02  0.00000000000E+00 0.  1.
         11    1    3    3    0    0 -0.48873762551E+01 -0.32633320000E+02 -0.17873965525E+01  0.33045647332E+02  0.51100000000E-03 0.  1.
        -11    1    3    3    0    0 -0.83835867920E+01 -0.28294160958E+01 -0.30941837229E+01  0.93735850193E+01  0.51100000000E-03 0. -1.
        -12    1    3    3    0    0 -0.29725532867E+01 -0.43430891429E+01 -0.10570605107E+01  0.53680418467E+01  0.00000000000E+00 0.  1.
</event>
<event>
 7    1  0.2685294E-009  0.4778727E+02  0.7816164E-02  0.1312668E+00
        -11   -1    0    0    0    0  0.00000000000E+00  0.00000000000E+00  0.45593999997E+02  0.45594000000E+02  0.51100000000E-03 0. -1.
         11   -1    0    0    0    0 -0.00000000000E+00 -0.00000000000E+00 -0.45593999997E+02  0.45594000000E+02  0.51100000000E-03 0.  1.
    9900012    2    1    2    0    0 -0.37734430534E+01 -0.34425134524E+02  0.26159023200E+02  0.47787271271E+02  0.20000001031E+02 0.  0.
        -12    1    1    2    0    0  0.37734430534E+01  0.34425134524E+02 -0.26159023200E+02  0.43400728729E+02  0.00000000000E+00 0.  1.
         11    1    3    3    0    0 -0.45193993400E+01 -0.13393676844E+02  0.50726407546E+01  0.15018230065E+02  0.51100000000E-03 0. -1.
        -11    1    3    3    0    0  0.12564986841E+01 -0.43534473540E+01  0.13866756699E+02  0.14588291004E+02  0.51100000000E-03 0.  1.
        -12    1    3    3    0    0 -0.51054239757E+00 -0.16678010326E+02  0.72196257459E+01  0.18180750201E+02  0.00000000000E+00 0.  1.
</event>
<event>
 7    1  0.2685294E-009  0.4778727E+02  0.7816164E-02  0.1312668E+00
        -11   -1    0    0    0    0  0.00000000000E+00  0.00000000000E+00  0.45593999997E+02  0.45594000000E+02  0.51100000000E-03 0.  1.
         11   -1    0    0    0    0 -0.00000000000E+00 -0.00000000000E+00 -0.45593999997E+02  0.45594000000E+02  0.51100000000E-03 0. -1.
    9900012    2    1    2    0    0  0.27633710492E+02  0.20142103446E+01 -0.33405752767E+02  0.47787270550E+02  0.19999997744E+02 0.  0.
        -12    1    1    2    0    0 -0.27633710492E+02 -0.20142103446E+01  0.33405752767E+02  0.43400729450E+02  0.00000000000E+00 0.  1.
         11    1    3    3    0    0  0.24909750294E+02  0.12815985500E+00 -0.30250474022E+02  0.39186774088E+02  0.51100000000E-03 0. -1.
        -11    1    3    3    0    0 -0.98377925417E+00 -0.19624475170E+01  0.33075214674E+00  0.22200043067E+01  0.51100000000E-03 0.  1.
         12    1    3    3    0    0  0.37077394529E+01  0.38484980066E+01 -0.34860308918E+01  0.63804921547E+01  0.00000000000E+00 0. -1.
</event>
<event>
 7    1  0.2773018E-009  0.4778728E+02  0.7816164E-02  0.1312668E+00
        -11   -1    0    0    0    0  0.00000000000E+00  0.00000000000E+00  0.45593999997E+02  0.45594000000E+02  0.51100000000E-03 0.  1.
         11   -1    0    0    0    0 -0.00000000000E+00 -0.00000000000E+00 -0.45593999997E+02  0.45594000000E+02  0.51100000000E-03 0. -1.
    9900012    2    1    2    0    0  0.83542194231E+01  0.35435840461E+02 -0.23624788695E+02  0.47787280971E+02  0.20000045257E+02 0.  0.
        -12    1    1    2    0    0 -0.83542194231E+01 -0.35435840461E+02  0.23624788695E+02  0.43400719029E+02  0.00000000000E+00 0.  1.
         11    1    3    3    0    0  0.10690618498E+02  0.29790064284E+02 -0.20785783815E+02  0.37865367593E+02  0.51100000000E-03 0. -1.
        -11    1    3    3    0    0 -0.97821124510E+00 -0.15917163204E+01 -0.15892443974E+01  0.24527853760E+01  0.51100000000E-03 0.  1.
        -12    1    3    3    0    0 -0.13581878300E+01  0.72374924980E+01 -0.12497604834E+01  0.74691280017E+01  0.00000000000E+00 0.  1.
</event>
<event>
 7    1  0.2685294E-009  0.4778727E+02  0.7816164E-02  0.1312668E+00
        -11   -1    0    0    0    0  0.00000000000E+00  0.00000000000E+00  0.45593999997E+02  0.45594000000E+02  0.51100000000E-03 0.  1.
         11   -1    0    0    0    0 -0.00000000000E+00 -0.00000000000E+00 -0.45593999997E+02  0.45594000000E+02  0.51100000000E-03 0. -1.
    9900012    2    1    2    0    0 -0.29567730590E+02 -0.12785707129E+02 -0.29084339073E+02  0.47787265232E+02  0.19999973501E+02 0.  0.
        -12    1    1    2    0    0  0.29567730590E+02  0.12785707129E+02  0.29084339073E+02  0.43400734768E+02  0.00000000000E+00 0.  1.
         11    1    3    3    0    0 -0.20870807299E+02 -0.12442598679E+02 -0.13064984662E+02  0.27588089525E+02  0.51100000000E-03 0. -1.
        -11    1    3    3    0    0 -0.48322610436E+01  0.16302819063E+01 -0.19235465093E+01  0.54505593586E+01  0.51100000000E-03 0.  1.
         12    1    3    3    0    0 -0.38646622481E+01 -0.19733903565E+01 -0.14095807902E+02  0.14748616348E+02  0.00000000000E+00 0. -1.
</event>
<event>
 7    1  0.2685294E-009  0.4778727E+02  0.7816164E-02  0.1312668E+00
        -11   -1    0    0    0    0  0.00000000000E+00  0.00000000000E+00  0.45593999997E+02  0.45594000000E+02  0.51100000000E-03 0. -1.
         11   -1    0    0    0    0 -0.00000000000E+00 -0.00000000000E+00 -0.45593999997E+02  0.45594000000E+02  0.51100000000E-03 0.  1.
    9900012    2    1    2    0    0  0.18654276603E+02  0.39158884243E+02 -0.14909399412E+01  0.47787272441E+02  0.20000006367E+02 0.  0.
        -12    1    1    2    0    0 -0.18654276603E+02 -0.39158884243E+02  0.14909399412E+01  0.43400727559E+02  0.00000000000E+00 0.  1.
         11    1    3    3    0    0  0.11351408608E+02  0.14654930294E+02 -0.54876717485E+01  0.19332252863E+02  0.51100000000E-03 0. -1.
        -11    1    3    3    0    0  0.85118667463E+00  0.15963051440E+02  0.68283208163E+01  0.17383023196E+02  0.51100000000E-03 0.  1.
        -12    1    3    3    0    0  0.64516813206E+01  0.85409025100E+01 -0.28315890091E+01  0.11071996381E+02  0.00000000000E+00 0.  1.
</event>
<event>
 7    1  0.2685294E-009  0.4778727E+02  0.7816164E-02  0.1312668E+00
        -11   -1    0    0    0    0  0.00000000000E+00  0.00000000000E+00  0.45593999997E+02  0.45594000000E+02  0.51100000000E-03 0. -1.
         11   -1    0    0    0    0 -0.00000000000E+00 -0.00000000000E+00 -0.45593999997E+02  0.45594000000E+02  0.51100000000E-03 0.  1.
    9900012    2    1    2    0    0  0.13692220430E+02 -0.39448842514E+02  0.11829415322E+02  0.47787272554E+02  0.20000006881E+02 0.  0.
        -12    1    1    2    0    0 -0.13692220430E+02  0.39448842514E+02 -0.11829415322E+02  0.43400727446E+02  0.00000000000E+00 0.  1.
         11    1    3    3    0    0  0.52334846269E+01 -0.19190637852E+02  0.46833798226E+01  0.20435361248E+02  0.51100000000E-03 0. -1.
        -11    1    3    3    0    0  0.58261565499E+01 -0.36525932285E+01 -0.32275261912E+01  0.75962137287E+01  0.51100000000E-03 0.  1.
        -12    1    3    3    0    0  0.26325792534E+01 -0.16605611434E+02  0.10373561690E+02  0.19755697577E+02  0.00000000000E+00 0.  1.
</event>
<event>
 7    1  0.2685294E-009  0.4778727E+02  0.7816164E-02  0.1312668E+00
        -11   -1    0    0    0    0  0.00000000000E+00  0.00000000000E+00  0.45593999997E+02  0.45594000000E+02  0.51100000000E-03 0.  1.
         11   -1    0    0    0    0 -0.00000000000E+00 -0.00000000000E+00 -0.45593999997E+02  0.45594000000E+02  0.51100000000E-03 0. -1.
    9900012    2    1    2    0    0  0.34787747439E+02  0.51409604957E+01 -0.25436320840E+02  0.47787271151E+02  0.20000000488E+02 0.  0.
        -12    1    1    2    0    0 -0.34787747439E+02 -0.51409604957E+01  0.25436320840E+02  0.43400728849E+02  0.00000000000E+00 0.  1.
         11    1    3    3    0    0  0.16493238746E+02  0.80031382903E+01 -0.20831624080E+02  0.27749481237E+02  0.51100000000E-03 0. -1.
        -11    1    3    3    0    0  0.16204210052E+02 -0.67719669684E+00 -0.50385772520E+01  0.16982999728E+02  0.51100000000E-03 0.  1.
         12    1    3    3    0    0  0.20902986414E+01 -0.21849810978E+01  0.43388049174E+00  0.30547901874E+01  0.00000000000E+00 0. -1.
</event>
<event>
 7    1  0.2685294E-009  0.4778728E+02  0.7816164E-02  0.1312668E+00
        -11   -1    0    0    0    0  0.00000000000E+00  0.00000000000E+00  0.45593999997E+02  0.45594000000E+02  0.51100000000E-03 0. -1.
         11   -1    0    0    0    0 -0.00000000000E+00 -0.00000000000E+00 -0.45593999997E+02  0.45594000000E+02  0.51100000000E-03 0.  1.
    9900012    2    1    2    0    0 -0.17534108205E+02 -0.27137063515E+02  0.28978574136E+02  0.47787275055E+02  0.20000018287E+02 0.  0.
        -12    1    1    2    0    0  0.17534108205E+02  0.27137063515E+02 -0.28978574136E+02  0.43400724945E+02  0.00000000000E+00 0.  1.
         11    1    3    3    0    0 -0.16371634938E+02 -0.98254637118E+01  0.15295163206E+02  0.24464508690E+02  0.51100000000E-03 0. -1.
        -11    1    3    3    0    0 -0.20545793531E+01 -0.17231152246E+02  0.14076469659E+02  0.22344594478E+02  0.51100000000E-03 0.  1.
        -12    1    3    3    0    0  0.89210608566E+00 -0.80447557040E-01 -0.39305872893E+00  0.97817188771E+00  0.00000000000E+00 0.  1.
</event>
<event>
 7    1  0.3578985E-009  0.4778727E+02  0.7816164E-02  0.1312668E+00
        -11   -1    0    0    0    0  0.00000000000E+00  0.00000000000E+00  0.45593999997E+02  0.45594000000E+02  0.51100000000E-03 0. -1.
         11   -1    0    0    0    0 -0.00000000000E+00 -0.00000000000E+00 -0.45593999997E+02  0.45594000000E+02  0.51100000000E-03 0.  1.
    9900012    2    1    2    0    0 -0.19658311196E+02 -0.14766697623E+01  0.38665142981E+02  0.47787273803E+02  0.20000012576E+02 0.  0.
        -12    1    1    2    0    0  0.19658311196E+02  0.14766697623E+01 -0.38665142981E+02  0.43400726197E+02  0.00000000000E+00 0.  1.
         11    1    3    3    0    0 -0.45806136287E+01 -0.54195306657E-01  0.22743660243E+02  0.23200410338E+02  0.51100000000E-03 0.  1.
        -11    1    3    3    0    0 -0.13891788356E+02  0.29400138810E+01  0.11645399650E+02  0.18364117148E+02  0.51100000000E-03 0. -1.
        -12    1    3    3    0    0 -0.11859092114E+01 -0.43624883367E+01  0.42760830884E+01  0.62227463169E+01  0.00000000000E+00 0.  1.
</event>
<event>
 7    1  0.2685294E-009  0.4778727E+02  0.7816164E-02  0.1312668E+00
        -11   -1    0    0    0    0  0.00000000000E+00  0.00000000000E+00  0.45593999997E+02  0.45594000000E+02  0.51100000000E-03 0.  1.
         11   -1    0    0    0    0 -0.00000000000E+00 -0.00000000000E+00 -0.45593999997E+02  0.45594000000E+02  0.51100000000E-03 0. -1.
    9900012    2    1    2    0    0 -0.25450707079E+02  0.17638355793E+02 -0.30410085426E+02  0.47787269805E+02  0.19999994347E+02 0.  0.
        -12    1    1    2    0    0  0.25450707079E+02 -0.17638355793E+02  0.30410085426E+02  0.43400730195E+02  0.00000000000E+00 0.  1.
         11    1    3    3    0    0 -0.15954779188E+02  0.10843201889E+02 -0.16448111242E+02  0.25350944160E+02  0.51100000000E-03 0. -1.
        -11    1    3    3    0    0  0.31246547267E+01  0.30012359756E+01 -0.42186934716E+01  0.60471695371E+01  0.51100000000E-03 0.  1.
         12    1    3    3    0    0 -0.12620582618E+02  0.37939179282E+01 -0.97432807125E+01  0.16389156107E+02  0.00000000000E+00 0. -1.
</event>
<event>
 7    1  0.2685294E-009  0.4778727E+02  0.7816164E-02  0.1312668E+00
        -11   -1    0    0    0    0  0.00000000000E+00  0.00000000000E+00  0.45593999997E+02  0.45594000000E+02  0.51100000000E-03 0. -1.
         11   -1    0    0    0    0 -0.00000000000E+00 -0.00000000000E+00 -0.45593999997E+02  0.45594000000E+02  0.51100000000E-03 0.  1.
    9900012    2    1    2    0    0  0.18924879814E+02 -0.81869197576E+01  0.38189610527E+02  0.47787273240E+02  0.20000010011E+02 0.  0.
        -12    1    1    2    0    0 -0.18924879814E+02  0.81869197576E+01 -0.38189610527E+02  0.43400726760E+02  0.00000000000E+00 0.  1.
         11    1    3    3    0    0 -0.52443947815E+00  0.55157013889E+00  0.55412151207E+01  0.55932398178E+01  0.51100000000E-03 0.  1.
        -11    1    3    3    0    0  0.73555615538E+00  0.38303971553E+01  0.72632287414E+01  0.82442390332E+01  0.51100000000E-03 0. -1.
        -12    1    3    3    0    0  0.18713763136E+02 -0.12568887052E+02  0.25385166665E+02  0.33949794389E+02  0.00000000000E+00 0.  1.
</event>
<event>
 7    1  0.2685294E-009  0.4778727E+02  0.7816164E-02  0.1312668E+00
        -11   -1    0    0    0    0  0.00000000000E+00  0.00000000000E+00  0.45593999997E+02  0.45594000000E+02  0.51100000000E-03 0. -1.
         11   -1    0    0    0    0 -0.00000000000E+00 -0.00000000000E+00 -0.45593999997E+02  0.45594000000E+02  0.51100000000E-03 0.  1.
    9900012    2    1    2    0    0  0.15730183706E+02 -0.21550332715E+02  0.34231092116E+02  0.47787272045E+02  0.20000004561E+02 0.  0.
        -12    1    1    2    0    0 -0.15730183706E+02  0.21550332715E+02 -0.34231092116E+02  0.43400727955E+02  0.00000000000E+00 0.  1.
         11    1    3    3    0    0  0.65657902288E+01 -0.74529525926E+01  0.23394593938E+02  0.25415804718E+02  0.51100000000E-03 0. -1.
        -11    1    3    3    0    0  0.22402746078E+01 -0.10785714583E+02  0.30328087958E+01  0.11425777822E+02  0.51100000000E-03 0.  1.
        -12    1    3    3    0    0  0.69241188698E+01 -0.33116655395E+01  0.78036893827E+01  0.10945689506E+02  0.00000000000E+00 0.  1.
</event>
<event>
 7    1  0.2685294E-009  0.4778727E+02  0.7816164E-02  0.1312668E+00
        -11   -1    0    0    0    0  0.00000000000E+00  0.00000000000E+00  0.45593999997E+02  0.45594000000E+02  0.51100000000E-03 0.  1.
         11   -1    0    0    0    0 -0.00000000000E+00 -0.00000000000E+00 -0.45593999997E+02  0.45594000000E+02  0.51100000000E-03 0. -1.
    9900012    2    1    2    0    0 -0.28319921459E+02 -0.72063026934E+01 -0.32088541700E+02  0.47787271223E+02  0.20000000814E+02 0.  0.
        -12    1    1    2    0    0  0.28319921459E+02  0.72063026934E+01  0.32088541700E+02  0.43400728777E+02  0.00000000000E+00 0.  1.
         11    1    3    3    0    0 -0.11251100065E+02 -0.10878795514E+02 -0.18660829290E+02  0.24354917256E+02  0.51100000000E-03 0. -1.
        -11    1    3    3    0    0 -0.17257815983E+02  0.19896548914E+01 -0.12965277057E+02  0.21676931252E+02  0.51100000000E-03 0.  1.
         12    1    3    3    0    0  0.18899458888E+00  0.16828379293E+01 -0.46243535277E+00  0.17554227144E+01  0.00000000000E+00 0. -1.
</event>
<event>
 7    1  0.2685294E-009  0.4778729E+02  0.7816164E-02  0.1312668E+00
        -11   -1    0    0    0    0  0.00000000000E+00  0.00000000000E+00  0.45593999997E+02  0.45594000000E+02  0.51100000000E-03 0.  1.
         11   -1    0    0    0    0 -0.00000000000E+00 -0.00000000000E+00 -0.45593999997E+02  0.45594000000E+02  0.51100000000E-03 0. -1.
    9900012    2    1    2    0    0  0.23409955149E+02  0.36537636929E+02  0.77237201068E+00  0.47787291815E+02  0.20000094700E+02 0.  0.
        -12    1    1    2    0    0 -0.23409955149E+02 -0.36537636929E+02 -0.77237201068E+00  0.43400708185E+02  0.00000000000E+00 0.  1.
         11    1    3    3    0    0  0.17445703539E+02  0.11765517747E+02  0.16728185650E+01  0.21108725732E+02  0.51100000000E-03 0. -1.
        -11    1    3    3    0    0  0.15018554333E+01  0.13118401855E+02  0.31206222488E+01  0.13567841408E+02  0.51100000000E-03 0.  1.
         12    1    3    3    0    0  0.44623961764E+01  0.11653717328E+02 -0.40210688031E+01  0.13110724675E+02  0.00000000000E+00 0. -1.
</event>
<event>
 7    1  0.2685294E-009  0.4778727E+02  0.7816164E-02  0.1312668E+00
        -11   -1    0    0    0    0  0.00000000000E+00  0.00000000000E+00  0.45593999997E+02  0.45594000000E+02  0.51100000000E-03 0. -1.
         11   -1    0    0    0    0 -0.00000000000E+00 -0.00000000000E+00 -0.45593999997E+02  0.45594000000E+02  0.51100000000E-03 0.  1.
    9900012    2    1    2    0    0  0.33429098433E+02  0.28704180929E+01  0.27529606756E+02  0.47787272239E+02  0.20000005448E+02 0.  0.
        -12    1    1    2    0    0 -0.33429098433E+02 -0.28704180929E+01 -0.27529606756E+02  0.43400727761E+02  0.00000000000E+00 0.  1.
         11    1    3    3    0    0  0.17708738458E+02  0.87746140422E+00  0.21920533064E+02  0.28193600806E+02  0.51100000000E-03 0. -1.
        -11    1    3    3    0    0  0.39725435173E+01  0.37045078038E+01  0.54874928182E+01  0.77212083093E+01  0.51100000000E-03 0.  1.
         12    1    3    3    0    0  0.11747816457E+02 -0.17115511151E+01  0.12158087299E+00  0.11872463124E+02  0.00000000000E+00 0. -1.
</event>
<event>
 7    1  0.2685294E-009  0.4778727E+02  0.7816164E-02  0.1312668E+00
        -11   -1    0    0    0    0  0.00000000000E+00  0.00000000000E+00  0.45593999997E+02  0.45594000000E+02  0.51100000000E-03 0.  1.
         11   -1    0    0    0    0 -0.00000000000E+00 -0.00000000000E+00 -0.45593999997E+02  0.45594000000E+02  0.51100000000E-03 0. -1.
    9900012    2    1    2    0    0  0.30518303780E+02  0.21261463403E+02 -0.22365295182E+02  0.47787272815E+02  0.20000008071E+02 0.  0.
        -12    1    1    2    0    0 -0.30518303780E+02 -0.21261463403E+02  0.22365295182E+02  0.43400727185E+02  0.00000000000E+00 0.  1.
         11    1    3    3    0    0  0.12742806268E+02  0.11684875796E+02 -0.17892965727E+02  0.24881190822E+02  0.51100000000E-03 0. -1.
        -11    1    3    3    0    0  0.13523438467E+02  0.18980396993E+01 -0.21245797887E+01  0.13820267082E+02  0.51100000000E-03 0.  1.
         12    1    3    3    0    0  0.42520590447E+01  0.76785479081E+01 -0.23477496657E+01  0.90858149106E+01  0.00000000000E+00 0. -1.
</event>
<event>
 7    1  0.2685294E-009  0.4778729E+02  0.7816164E-02  0.1312668E+00
        -11   -1    0    0    0    0  0.00000000000E+00  0.00000000000E+00  0.45593999997E+02  0.45594000000E+02  0.51100000000E-03 0. -1.
         11   -1    0    0    0    0 -0.00000000000E+00 -0.00000000000E+00 -0.45593999997E+02  0.45594000000E+02  0.51100000000E-03 0.  1.
    9900012    2    1    2    0    0 -0.24006722083E+02 -0.29930744720E+02  0.20284224277E+02  0.47787286421E+02  0.20000070108E+02 0.  0.
        -12    1    1    2    0    0  0.24006722083E+02  0.29930744720E+02 -0.20284224277E+02  0.43400713579E+02  0.00000000000E+00 0.  1.
         11    1    3    3    0    0 -0.14746480385E+02 -0.61764981199E+01  0.10776425129E+02  0.19280538156E+02  0.51100000000E-03 0. -1.
        -11    1    3    3    0    0  0.69786544457E+00 -0.11437432506E+01  0.24826511931E+01  0.28211207010E+01  0.51100000000E-03 0.  1.
         12    1    3    3    0    0 -0.99581071430E+01 -0.22610503349E+02  0.70251479546E+01  0.25685627564E+02  0.00000000000E+00 0. -1.
</event>
<event>
 7    1  0.2685294E-009  0.4778728E+02  0.7816164E-02  0.1312668E+00
        -11   -1    0    0    0    0  0.00000000000E+00  0.00000000000E+00  0.45593999997E+02  0.45594000000E+02  0.51100000000E-03 0. -1.
         11   -1    0    0    0    0 -0.00000000000E+00 -0.00000000000E+00 -0.45593999997E+02  0.45594000000E+02  0.51100000000E-03 0.  1.
    9900012    2    1    2    0    0 -0.31228089582E+01  0.42592481844E+02  0.77298641061E+01  0.47787282903E+02  0.20000054068E+02 0.  0.
        -12    1    1    2    0    0  0.31228089582E+01 -0.42592481844E+02 -0.77298641061E+01  0.43400717097E+02  0.00000000000E+00 0.  1.
         11    1    3    3    0    0 -0.83639563520E+01  0.30142254250E+02  0.80984556962E+01  0.32312478117E+02  0.51100000000E-03 0. -1.
        -11    1    3    3    0    0  0.87415898021E+00  0.10334200919E+02 -0.15346296835E+01  0.10484033149E+02  0.51100000000E-03 0.  1.
         12    1    3    3    0    0  0.43669884136E+01  0.21160266755E+01  0.11660380934E+01  0.49907716369E+01  0.00000000000E+00 0. -1.
</event>
<event>
 7    1  0.2685294E-009  0.4778725E+02  0.7816164E-02  0.1312668E+00
        -11   -1    0    0    0    0  0.00000000000E+00  0.00000000000E+00  0.45593999997E+02  0.45594000000E+02  0.51100000000E-03 0.  1.
         11   -1    0    0    0    0 -0.00000000000E+00 -0.00000000000E+00 -0.45593999997E+02  0.45594000000E+02  0.51100000000E-03 0. -1.
    9900012    2    1    2    0    0 -0.31946301253E+02 -0.19030129077E+02 -0.22381093421E+02  0.47787247482E+02  0.19999892567E+02 0.  0.
        -12    1    1    2    0    0  0.31946301253E+02  0.19030129077E+02  0.22381093421E+02  0.43400752518E+02  0.00000000000E+00 0.  1.
         11    1    3    3    0    0 -0.66458349140E+01 -0.60448884757E+01 -0.13868357896E+01  0.90901656836E+01  0.51100000000E-03 0. -1.
        -11    1    3    3    0    0  0.11787026527E+01  0.16192873030E+01 -0.23279811100E+00  0.20163398857E+01  0.51100000000E-03 0.  1.
         12    1    3    3    0    0 -0.26479168992E+02 -0.14604527904E+02 -0.20761459520E+02  0.36680741912E+02  0.00000000000E+00 0. -1.
</event>
<event>
 7    1  0.2685294E-009  0.4778727E+02  0.7816164E-02  0.1312668E+00
        -11   -1    0    0    0    0  0.00000000000E+00  0.00000000000E+00  0.45593999997E+02  0.45594000000E+02  0.51100000000E-03 0.  1.
         11   -1    0    0    0    0 -0.00000000000E+00 -0.00000000000E+00 -0.45593999997E+02  0.45594000000E+02  0.51100000000E-03 0. -1.
    9900012    2    1    2    0    0 -0.32086651334E+02  0.19580337579E+02 -0.21695175783E+02  0.47787268834E+02  0.19999989920E+02 0.  0.
        -12    1    1    2    0    0  0.32086651334E+02 -0.19580337579E+02  0.21695175783E+02  0.43400731166E+02  0.00000000000E+00 0.  1.
         11    1    3    3    0    0 -0.21745495785E+02  0.20039079770E+02 -0.13269117140E+02  0.32411429695E+02  0.51100000000E-03 0. -1.
        -11    1    3    3    0    0 -0.10321475712E+02 -0.18698712705E+01 -0.90298932818E+01  0.13840818342E+02  0.51100000000E-03 0.  1.
         12    1    3    3    0    0 -0.19679837183E-01  0.14111290790E+01  0.60383463859E+00  0.15350207961E+01  0.00000000000E+00 0. -1.
</event>
<event>
 7    1  0.2685294E-009  0.4778728E+02  0.7816164E-02  0.1312668E+00
        -11   -1    0    0    0    0  0.00000000000E+00  0.00000000000E+00  0.45593999997E+02  0.45594000000E+02  0.51100000000E-03 0.  1.
         11   -1    0    0    0    0 -0.00000000000E+00 -0.00000000000E+00 -0.45593999997E+02  0.45594000000E+02  0.51100000000E-03 0. -1.
    9900012    2    1    2    0    0  0.77589117365E+01 -0.11799237303E+02 -0.41039004702E+02  0.47787278587E+02  0.20000034388E+02 0.  0.
        -12    1    1    2    0    0 -0.77589117365E+01  0.11799237303E+02  0.41039004702E+02  0.43400721413E+02  0.00000000000E+00 0.  1.
         11    1    3    3    0    0  0.73240273585E+00  0.37978825060E+01 -0.15009686430E+02  0.15500032655E+02  0.51100000000E-03 0. -1.
        -11    1    3    3    0    0  0.22544334260E+01 -0.18514444649E+01 -0.58349542139E+00  0.29750266968E+01  0.51100000000E-03 0.  1.
         12    1    3    3    0    0  0.47720755746E+01 -0.13745675345E+02 -0.25445822850E+02  0.29312219235E+02  0.00000000000E+00 0. -1.
</event>
<event>
 7    1  0.2685294E-009  0.4778726E+02  0.7816164E-02  0.1312668E+00
        -11   -1    0    0    0    0  0.00000000000E+00  0.00000000000E+00  0.45593999997E+02  0.45594000000E+02  0.51100000000E-03 0.  1.
         11   -1    0    0    0    0 -0.00000000000E+00 -0.00000000000E+00 -0.45593999997E+02  0.45594000000E+02  0.51100000000E-03 0. -1.
    9900012    2    1    2    0    0  0.42576802878E+02 -0.83003454105E+01  0.13942835343E+01  0.47787263787E+02  0.19999966913E+02 0.  0.
        -12    1    1    2    0    0 -0.42576802878E+02  0.83003454105E+01 -0.13942835343E+01  0.43400736213E+02  0.00000000000E+00 0.  1.
         11    1    3    3    0    0  0.33033965124E+02 -0.10471334651E+02  0.65195361172E+01  0.35261821459E+02  0.51100000000E-03 0. -1.
        -11    1    3    3    0    0  0.95407013478E+00  0.26539991800E+01 -0.14451889925E+01  0.31689955751E+01  0.51100000000E-03 0.  1.
         12    1    3    3    0    0  0.85887676193E+01 -0.48300993937E+00 -0.36800635904E+01  0.93564467534E+01  0.00000000000E+00 0. -1.
</event>
<event>
 7    1  0.2685294E-009  0.4778727E+02  0.7816164E-02  0.1312668E+00
        -11   -1    0    0    0    0  0.00000000000E+00  0.00000000000E+00  0.45593999997E+02  0.45594000000E+02  0.51100000000E-03 0.  1.
         11   -1    0    0    0    0 -0.00000000000E+00 -0.00000000000E+00 -0.45593999997E+02  0.45594000000E+02  0.51100000000E-03 0. -1.
    9900012    2    1    2    0    0 -0.22770004792E+02 -0.93939525225E+01 -0.35733792619E+02  0.47787269624E+02  0.19999993523E+02 0.  0.
        -12    1    1    2    0    0  0.22770004792E+02  0.93939525225E+01  0.35733792619E+02  0.43400730376E+02  0.00000000000E+00 0.  1.
         11    1    3    3    0    0 -0.18593184266E+02 -0.95402928466E+01 -0.24250729943E+02  0.32012834798E+02  0.51100000000E-03 0. -1.
        -11    1    3    3    0    0 -0.43052394695E+01  0.31298858880E+01 -0.17647423211E+01  0.56076366040E+01  0.51100000000E-03 0.  1.
        -12    1    3    3    0    0  0.12841894364E+00 -0.29835455640E+01 -0.97183203556E+01  0.10166798222E+02  0.00000000000E+00 0.  1.
</event>
<event>
 7    1  0.2685294E-009  0.4778727E+02  0.7816164E-02  0.1312668E+00
        -11   -1    0    0    0    0  0.00000000000E+00  0.00000000000E+00  0.45593999997E+02  0.45594000000E+02  0.51100000000E-03 0. -1.
         11   -1    0    0    0    0 -0.00000000000E+00 -0.00000000000E+00 -0.45593999997E+02  0.45594000000E+02  0.51100000000E-03 0.  1.
    9900012    2    1    2    0    0 -0.36590848113E+02 -0.19293170449E+02  0.13134170606E+02  0.47787273864E+02  0.20000012855E+02 0.  0.
        -12    1    1    2    0    0  0.36590848113E+02  0.19293170449E+02 -0.13134170606E+02  0.43400726136E+02  0.00000000000E+00 0.  1.
         11    1    3    3    0    0 -0.49845942244E+01 -0.52166912563E+01  0.12296861829E+01  0.73193015797E+01  0.51100000000E-03 0. -1.
        -11    1    3    3    0    0 -0.23686749397E+02 -0.16943025230E+02  0.13150289829E+02  0.31954003252E+02  0.51100000000E-03 0.  1.
        -12    1    3    3    0    0 -0.79195044918E+01  0.28665460371E+01 -0.12458054058E+01  0.85139690326E+01  0.00000000000E+00 0.  1.
</event>
<event>
 7    1  0.2685294E-009  0.4778727E+02  0.7816164E-02  0.1312668E+00
        -11   -1    0    0    0    0  0.00000000000E+00  0.00000000000E+00  0.45593999997E+02  0.45594000000E+02  0.51100000000E-03 0.  1.
         11   -1    0    0    0    0 -0.00000000000E+00 -0.00000000000E+00 -0.45593999997E+02  0.45594000000E+02  0.51100000000E-03 0. -1.
    9900012    2    1    2    0    0 -0.29508559369E+02 -0.39156136268E+01 -0.31583793687E+02  0.47787272704E+02  0.20000007569E+02 0.  0.
        -12    1    1    2    0    0  0.29508559369E+02  0.39156136268E+01  0.31583793687E+02  0.43400727296E+02  0.00000000000E+00 0.  1.
         11    1    3    3    0    0 -0.13127752630E+02 -0.47867443354E+01 -0.10259919422E+02  0.17335419155E+02  0.51100000000E-03 0. -1.
        -11    1    3    3    0    0 -0.31935270059E+01  0.66165096801E+01 -0.68171247401E+01  0.10022474997E+02  0.51100000000E-03 0.  1.
        -12    1    3    3    0    0 -0.13187279733E+02 -0.57453789715E+01 -0.14506749524E+02  0.20429378552E+02  0.00000000000E+00 0.  1.
</event>
<event>
 7    1  0.2685294E-009  0.4778728E+02  0.7816164E-02  0.1312668E+00
        -11   -1    0    0    0    0  0.00000000000E+00  0.00000000000E+00  0.45593999997E+02  0.45594000000E+02  0.51100000000E-03 0.  1.
         11   -1    0    0    0    0 -0.00000000000E+00 -0.00000000000E+00 -0.45593999997E+02  0.45594000000E+02  0.51100000000E-03 0. -1.
    9900012    2    1    2    0    0  0.26435493348E+02 -0.50124935466E+01 -0.34053818110E+02  0.47787275029E+02  0.20000018168E+02 0.  0.
        -12    1    1    2    0    0 -0.26435493348E+02  0.50124935466E+01  0.34053818110E+02  0.43400724971E+02  0.00000000000E+00 0.  1.
         11    1    3    3    0    0  0.69076397156E+01  0.13689796873E+01 -0.19534538608E+02  0.20765061780E+02  0.51100000000E-03 0. -1.
        -11    1    3    3    0    0  0.97365841238E+01 -0.18105561316E+01 -0.13623928295E+01  0.99967643959E+01  0.51100000000E-03 0.  1.
        -12    1    3    3    0    0  0.97912695084E+01 -0.45709171023E+01 -0.13156886673E+02  0.17025448853E+02  0.00000000000E+00 0.  1.
</event>
<event>
 7    1  0.2685294E-009  0.4778727E+02  0.7816164E-02  0.1312668E+00
        -11   -1    0    0    0    0  0.00000000000E+00  0.00000000000E+00  0.45593999997E+02  0.45594000000E+02  0.51100000000E-03 0. -1.
         11   -1    0    0    0    0 -0.00000000000E+00 -0.00000000000E+00 -0.45593999997E+02  0.45594000000E+02  0.51100000000E-03 0.  1.
    9900012    2    1    2    0    0  0.71283955994E+01 -0.41691277516E+02  0.97286547440E+01  0.47787269961E+02  0.19999995061E+02 0.  0.
        -12    1    1    2    0    0 -0.71283955994E+01  0.41691277516E+02 -0.97286547440E+01  0.43400730039E+02  0.00000000000E+00 0.  1.
         11    1    3    3    0    0  0.29506528502E+01  0.61532073213E+00  0.85265224910E+00  0.31324092907E+01  0.51100000000E-03 0. -1.
        -11    1    3    3    0    0  0.47510661037E+01 -0.24978919137E+02  0.57583101844E+00  0.25433257990E+02  0.51100000000E-03 0.  1.
         12    1    3    3    0    0 -0.57332335447E+00 -0.17327679112E+02  0.83001714765E+01  0.19221602680E+02  0.00000000000E+00 0. -1.
</event>
<event>
 7    1  0.2685294E-009  0.4778727E+02  0.7816164E-02  0.1312668E+00
        -11   -1    0    0    0    0  0.00000000000E+00  0.00000000000E+00  0.45593999997E+02  0.45594000000E+02  0.51100000000E-03 0.  1.
         11   -1    0    0    0    0 -0.00000000000E+00 -0.00000000000E+00 -0.45593999997E+02  0.45594000000E+02  0.51100000000E-03 0. -1.
    9900012    2    1    2    0    0 -0.26486071812E+02 -0.34056785407E+02 -0.47166368996E+01  0.47787270791E+02  0.19999998842E+02 0.  0.
        -12    1    1    2    0    0  0.26486071812E+02  0.34056785407E+02  0.47166368996E+01  0.43400729209E+02  0.00000000000E+00 0.  1.
         11    1    3    3    0    0 -0.23830824869E+02 -0.29230839092E+02  0.77672104627E+00  0.37722055403E+02  0.51100000000E-03 0. -1.
        -11    1    3    3    0    0 -0.45432102076E+00 -0.15849327387E+01  0.13824322498E+01  0.21516362523E+01  0.51100000000E-03 0.  1.
         12    1    3    3    0    0 -0.22009259221E+01 -0.32410135758E+01 -0.68757901957E+01  0.79135791352E+01  0.00000000000E+00 0. -1.
</event>
<event>
 7    1  0.2685294E-009  0.4778727E+02  0.7816164E-02  0.1312668E+00
        -11   -1    0    0    0    0  0.00000000000E+00  0.00000000000E+00  0.45593999997E+02  0.45594000000E+02  0.51100000000E-03 0.  1.
         11   -1    0    0    0    0 -0.00000000000E+00 -0.00000000000E+00 -0.45593999997E+02  0.45594000000E+02  0.51100000000E-03 0. -1.
    9900012    2    1    2    0    0  0.20497936084E+02 -0.33217156893E+02 -0.18975737889E+02  0.47787268161E+02  0.19999986851E+02 0.  0.
        -12    1    1    2    0    0 -0.20497936084E+02  0.33217156893E+02  0.18975737889E+02  0.43400731839E+02  0.00000000000E+00 0.  1.
         11    1    3    3    0    0  0.99452238417E+01 -0.96841997422E+01 -0.86820627564E+01  0.16372825531E+02  0.51100000000E-03 0. -1.
        -11    1    3    3    0    0 -0.21392863353E+01 -0.12720398399E+02 -0.58211946867E+01  0.14151727431E+02  0.51100000000E-03 0.  1.
         12    1    3    3    0    0  0.12691998578E+02 -0.10812558752E+02 -0.44724804454E+01  0.17262715198E+02  0.00000000000E+00 0. -1.
</event>
<event>
 7    1  0.2685294E-009  0.4778727E+02  0.7816164E-02  0.1312668E+00
        -11   -1    0    0    0    0  0.00000000000E+00  0.00000000000E+00  0.45593999997E+02  0.45594000000E+02  0.51100000000E-03 0.  1.
         11   -1    0    0    0    0 -0.00000000000E+00 -0.00000000000E+00 -0.45593999997E+02  0.45594000000E+02  0.51100000000E-03 0. -1.
    9900012    2    1    2    0    0  0.22042316211E+02  0.23093733864E+02 -0.29401348220E+02  0.47787268152E+02  0.19999986814E+02 0.  0.
        -12    1    1    2    0    0 -0.22042316211E+02 -0.23093733864E+02  0.29401348220E+02  0.43400731848E+02  0.00000000000E+00 0.  1.
         11    1    3    3    0    0  0.14363185092E+02  0.14573660128E+02 -0.28575647760E+02  0.35146270082E+02  0.51100000000E-03 0. -1.
        -11    1    3    3    0    0  0.63668696865E+01  0.47606809469E+01  0.14106921074E+01  0.80741046046E+01  0.51100000000E-03 0.  1.
        -12    1    3    3    0    0  0.13122614331E+01  0.37593927891E+01 -0.22363925670E+01  0.45668934655E+01  0.00000000000E+00 0.  1.
</event>
<event>
 7    1  0.2685294E-009  0.4778727E+02  0.7816164E-02  0.1312668E+00
        -11   -1    0    0    0    0  0.00000000000E+00  0.00000000000E+00  0.45593999997E+02  0.45594000000E+02  0.51100000000E-03 0.  1.
         11   -1    0    0    0    0 -0.00000000000E+00 -0.00000000000E+00 -0.45593999997E+02  0.45594000000E+02  0.51100000000E-03 0. -1.
    9900012    2    1    2    0    0  0.26382464678E+02 -0.18075438860E+02 -0.29340540000E+02  0.47787271666E+02  0.20000002832E+02 0.  0.
        -12    1    1    2    0    0 -0.26382464678E+02  0.18075438860E+02  0.29340540000E+02  0.43400728334E+02  0.00000000000E+00 0.  1.
         11    1    3    3    0    0  0.50901070245E+01  0.43166850286E+01 -0.56864826272E+01  0.87680695759E+01  0.51100000000E-03 0. -1.
        -11    1    3    3    0    0  0.12942572946E+02 -0.14309630585E+02 -0.13103289077E+02  0.23323205330E+02  0.51100000000E-03 0.  1.
         12    1    3    3    0    0  0.83497847080E+01 -0.80824933032E+01 -0.10550768295E+02  0.15695996760E+02  0.00000000000E+00 0. -1.
</event>
<event>
 7    1  0.2685294E-009  0.4778727E+02  0.7816164E-02  0.1312668E+00
        -11   -1    0    0    0    0  0.00000000000E+00  0.00000000000E+00  0.45593999997E+02  0.45594000000E+02  0.51100000000E-03 0.  1.
         11   -1    0    0    0    0 -0.00000000000E+00 -0.00000000000E+00 -0.45593999997E+02  0.45594000000E+02  0.51100000000E-03 0. -1.
    9900012    2    1    2    0    0  0.32248796838E+02 -0.10720807941E+02 -0.26994492823E+02  0.47787271168E+02  0.20000000564E+02 0.  0.
        -12    1    1    2    0    0 -0.32248796838E+02  0.10720807941E+02  0.26994492823E+02  0.43400728832E+02  0.00000000000E+00 0.  1.
         11    1    3    3    0    0  0.21424392539E+02 -0.11228367867E+01 -0.22798943062E+02  0.31305864676E+02  0.51100000000E-03 0. -1.
        -11    1    3    3    0    0  0.10812416922E+02 -0.63772634858E+01 -0.23554309767E+01  0.12772075188E+02  0.51100000000E-03 0.  1.
         12    1    3    3    0    0  0.11987376147E-01 -0.32207076682E+01 -0.18401187841E+01  0.37093313037E+01  0.00000000000E+00 0. -1.
</event>
<event>
 7    1  0.2685294E-009  0.4778727E+02  0.7816164E-02  0.1312668E+00
        -11   -1    0    0    0    0  0.00000000000E+00  0.00000000000E+00  0.45593999997E+02  0.45594000000E+02  0.51100000000E-03 0.  1.
         11   -1    0    0    0    0 -0.00000000000E+00 -0.00000000000E+00 -0.45593999997E+02  0.45594000000E+02  0.51100000000E-03 0. -1.
    9900012    2    1    2    0    0 -0.38202653127E+02 -0.25370112991E+01 -0.20438795554E+02  0.47787268486E+02  0.19999988333E+02 0.  0.
        -12    1    1    2    0    0  0.38202653127E+02  0.25370112991E+01  0.20438795554E+02  0.43400731514E+02  0.00000000000E+00 0.  1.
         11    1    3    3    0    0 -0.26193480643E+02  0.50411038140E+00 -0.59092816939E+01  0.26856510679E+02  0.51100000000E-03 0.  1.
        -11    1    3    3    0    0  0.13266189272E+01 -0.69903028030E+00 -0.18441626484E+01  0.23768671073E+01  0.51100000000E-03 0. -1.
         12    1    3    3    0    0 -0.13335791412E+02 -0.23420914002E+01 -0.12685351212E+02  0.18553890699E+02  0.00000000000E+00 0. -1.
</event>
<event>
 7    1  0.2685294E-009  0.4778727E+02  0.7816164E-02  0.1312668E+00
        -11   -1    0    0    0    0  0.00000000000E+00  0.00000000000E+00  0.45593999997E+02  0.45594000000E+02  0.51100000000E-03 0.  1.
         11   -1    0    0    0    0 -0.00000000000E+00 -0.00000000000E+00 -0.45593999997E+02  0.45594000000E+02  0.51100000000E-03 0. -1.
    9900012    2    1    2    0    0 -0.11909635752E+02  0.21573523974E+02 -0.35726276761E+02  0.47787271761E+02  0.20000003269E+02 0.  0.
        -12    1    1    2    0    0  0.11909635752E+02 -0.21573523974E+02  0.35726276761E+02  0.43400728239E+02  0.00000000000E+00 0.  1.
         11    1    3    3    0    0  0.34853074080E+01  0.41904392627E+00 -0.57485697597E+01  0.67356529070E+01  0.51100000000E-03 0.  1.
        -11    1    3    3    0    0 -0.90420812749E+01  0.17521016868E+02 -0.26274300990E+02  0.32849416413E+02  0.51100000000E-03 0. -1.
         12    1    3    3    0    0 -0.63528618849E+01  0.36334631801E+01 -0.37034060112E+01  0.82022024416E+01  0.00000000000E+00 0. -1.
</event>
<event>
 7    1  0.2685294E-009  0.4778727E+02  0.7816164E-02  0.1312668E+00
        -11   -1    0    0    0    0  0.00000000000E+00  0.00000000000E+00  0.45593999997E+02  0.45594000000E+02  0.51100000000E-03 0.  1.
         11   -1    0    0    0    0 -0.00000000000E+00 -0.00000000000E+00 -0.45593999997E+02  0.45594000000E+02  0.51100000000E-03 0. -1.
    9900012    2    1    2    0    0 -0.12337247219E+02  0.21161584905E+02 -0.35827409730E+02  0.47787266912E+02  0.19999981156E+02 0.  0.
        -12    1    1    2    0    0  0.12337247219E+02 -0.21161584905E+02  0.35827409730E+02  0.43400733088E+02  0.00000000000E+00 0.  1.
         11    1    3    3    0    0 -0.94478037713E+01  0.60180351080E+01 -0.13520485812E+02  0.17557940640E+02  0.51100000000E-03 0. -1.
        -11    1    3    3    0    0  0.31923545583E+01  0.46585538078E+01 -0.10279792902E+01  0.57402084360E+01  0.51100000000E-03 0.  1.
        -12    1    3    3    0    0 -0.60817980064E+01  0.10484995989E+02 -0.21278944628E+02  0.24489117836E+02  0.00000000000E+00 0.  1.
</event>
<event>
 7    1  0.2685294E-009  0.4778727E+02  0.7816164E-02  0.1312668E+00
        -11   -1    0    0    0    0  0.00000000000E+00  0.00000000000E+00  0.45593999997E+02  0.45594000000E+02  0.51100000000E-03 0.  1.
         11   -1    0    0    0    0 -0.00000000000E+00 -0.00000000000E+00 -0.45593999997E+02  0.45594000000E+02  0.51100000000E-03 0. -1.
    9900012    2    1    2    0    0  0.14244331394E+02 -0.36102408056E+02 -0.19425201046E+02  0.47787270974E+02  0.19999999680E+02 0.  0.
        -12    1    1    2    0    0 -0.14244331394E+02  0.36102408056E+02  0.19425201046E+02  0.43400729026E+02  0.00000000000E+00 0.  1.
         11    1    3    3    0    0  0.76478002514E+01 -0.26460494128E+02 -0.10258069641E+02  0.29391743589E+02  0.51100000000E-03 0. -1.
        -11    1    3    3    0    0  0.27391053881E+01 -0.35404597910E+01 -0.10166294474E+02  0.11108154548E+02  0.51100000000E-03 0.  1.
        -12    1    3    3    0    0  0.38574257542E+01 -0.61014541367E+01  0.99916306898E+00  0.72873728373E+01  0.00000000000E+00 0.  1.
</event>
<event>
 7    1  0.2818315E-009  0.4778728E+02  0.7816164E-02  0.1312668E+00
        -11   -1    0    0    0    0  0.00000000000E+00  0.00000000000E+00  0.45593999997E+02  0.45594000000E+02  0.51100000000E-03 0. -1.
         11   -1    0    0    0    0 -0.00000000000E+00 -0.00000000000E+00 -0.45593999997E+02  0.45594000000E+02  0.51100000000E-03 0.  1.
    9900012    2    1    2    0    0 -0.47359841409E+01  0.14090862905E+01  0.43118522724E+02  0.47787284893E+02  0.20000063139E+02 0.  0.
        -12    1    1    2    0    0  0.47359841409E+01 -0.14090862905E+01 -0.43118522724E+02  0.43400715107E+02  0.00000000000E+00 0.  1.
         11    1    3    3    0    0  0.32558629855E+01  0.10552353926E+01  0.28497075369E+02  0.28701872244E+02  0.51100000000E-03 0. -1.
        -11    1    3    3    0    0 -0.94942571259E+01 -0.11634500767E+01  0.13814313947E+02  0.16802672542E+02  0.51100000000E-03 0.  1.
        -12    1    3    3    0    0  0.15024099994E+01  0.15173009746E+01  0.80713340784E+00  0.22827401061E+01  0.00000000000E+00 0.  1.
</event>
<event>
 7    1  0.2685294E-009  0.4778727E+02  0.7816164E-02  0.1312668E+00
        -11   -1    0    0    0    0  0.00000000000E+00  0.00000000000E+00  0.45593999997E+02  0.45594000000E+02  0.51100000000E-03 0. -1.
         11   -1    0    0    0    0 -0.00000000000E+00 -0.00000000000E+00 -0.45593999997E+02  0.45594000000E+02  0.51100000000E-03 0.  1.
    9900012    2    1    2    0    0 -0.27918356916E+02  0.13140996599E+02  0.30520534111E+02  0.47787269051E+02  0.19999990912E+02 0.  0.
        -12    1    1    2    0    0  0.27918356916E+02 -0.13140996599E+02 -0.30520534111E+02  0.43400730949E+02  0.00000000000E+00 0.  1.
         11    1    3    3    0    0 -0.20402905605E+02  0.12650533067E+02  0.20642480738E+02  0.31661120563E+02  0.51100000000E-03 0. -1.
        -11    1    3    3    0    0 -0.27849121734E+01 -0.31497731133E+01  0.92044572761E+01  0.10119231220E+02  0.51100000000E-03 0.  1.
         12    1    3    3    0    0 -0.47305391380E+01  0.36402366450E+01  0.67359609592E+00  0.60069172683E+01  0.00000000000E+00 0. -1.
</event>
<event>
 7    1  0.2685294E-009  0.4778727E+02  0.7816164E-02  0.1312668E+00
        -11   -1    0    0    0    0  0.00000000000E+00  0.00000000000E+00  0.45593999997E+02  0.45594000000E+02  0.51100000000E-03 0.  1.
         11   -1    0    0    0    0 -0.00000000000E+00 -0.00000000000E+00 -0.45593999997E+02  0.45594000000E+02  0.51100000000E-03 0. -1.
    9900012    2    1    2    0    0 -0.59789465251E+01  0.42317388994E+02 -0.75574122261E+01  0.47787266223E+02  0.19999978017E+02 0.  0.
        -12    1    1    2    0    0  0.59789465251E+01 -0.42317388994E+02  0.75574122261E+01  0.43400733777E+02  0.00000000000E+00 0.  1.
         11    1    3    3    0    0  0.41581959589E+01  0.12649582054E+02 -0.90013090611E+01  0.16072525777E+02  0.51100000000E-03 0. -1.
        -11    1    3    3    0    0 -0.69668148942E+01  0.14796143332E+02 -0.63989907542E+00  0.16366790717E+02  0.51100000000E-03 0.  1.
         12    1    3    3    0    0 -0.31703275898E+01  0.14871663609E+02  0.20837959105E+01  0.15347949730E+02  0.00000000000E+00 0. -1.
</event>
<event>
 7    1  0.2685294E-009  0.4778725E+02  0.7816164E-02  0.1312668E+00
        -11   -1    0    0    0    0  0.00000000000E+00  0.00000000000E+00  0.45593999997E+02  0.45594000000E+02  0.51100000000E-03 0.  1.
         11   -1    0    0    0    0 -0.00000000000E+00 -0.00000000000E+00 -0.45593999997E+02  0.45594000000E+02  0.51100000000E-03 0. -1.
    9900012    2    1    2    0    0 -0.25072114537E+02  0.23900596073E+02 -0.26149110319E+02  0.47787246660E+02  0.19999888820E+02 0.  0.
        -12    1    1    2    0    0  0.25072114537E+02 -0.23900596073E+02  0.26149110319E+02  0.43400753340E+02  0.00000000000E+00 0.  1.
         11    1    3    3    0    0 -0.12269405761E+02  0.18748232605E+02 -0.20537953047E+02  0.30394770260E+02  0.51100000000E-03 0. -1.
        -11    1    3    3    0    0 -0.66258450986E+01  0.62281594210E+01 -0.17668427791E+00  0.90952191089E+01  0.51100000000E-03 0.  1.
         12    1    3    3    0    0 -0.61768636773E+01 -0.10757959527E+01 -0.54344729941E+01  0.82972572904E+01  0.00000000000E+00 0. -1.
</event>
<event>
 7    1  0.2685294E-009  0.4778727E+02  0.7816164E-02  0.1312668E+00
        -11   -1    0    0    0    0  0.00000000000E+00  0.00000000000E+00  0.45593999997E+02  0.45594000000E+02  0.51100000000E-03 0. -1.
         11   -1    0    0    0    0 -0.00000000000E+00 -0.00000000000E+00 -0.45593999997E+02  0.45594000000E+02  0.51100000000E-03 0.  1.
    9900012    2    1    2    0    0 -0.45745178036E+01  0.32131741188E+02  0.28814027039E+02  0.47787272367E+02  0.20000006028E+02 0.  0.
        -12    1    1    2    0    0  0.45745178036E+01 -0.32131741188E+02 -0.28814027039E+02  0.43400727633E+02  0.00000000000E+00 0.  1.
         11    1    3    3    0    0  0.33806258006E+01  0.15319296484E+02  0.15016039766E+02  0.21716144365E+02  0.51100000000E-03 0. -1.
        -11    1    3    3    0    0 -0.36239446429E+01  0.35925625768E+01 -0.15728789507E+01  0.53397967281E+01  0.51100000000E-03 0.  1.
         12    1    3    3    0    0 -0.43311989613E+01  0.13219882127E+02  0.15370866223E+02  0.20731331273E+02  0.00000000000E+00 0. -1.
</event>
<event>
 7    1  0.2685294E-009  0.4778728E+02  0.7816164E-02  0.1312668E+00
        -11   -1    0    0    0    0  0.00000000000E+00  0.00000000000E+00  0.45593999997E+02  0.45594000000E+02  0.51100000000E-03 0.  1.
         11   -1    0    0    0    0 -0.00000000000E+00 -0.00000000000E+00 -0.45593999997E+02  0.45594000000E+02  0.51100000000E-03 0. -1.
    9900012    2    1    2    0    0  0.39086568754E+02  0.18196922321E+02  0.49734259285E+01  0.47787276454E+02  0.20000024662E+02 0.  0.
        -12    1    1    2    0    0 -0.39086568754E+02 -0.18196922321E+02 -0.49734259285E+01  0.43400723546E+02  0.00000000000E+00 0.  1.
         11    1    3    3    0    0  0.13746090031E+02  0.16216853842E+02  0.49745850568E+01  0.21833182004E+02  0.51100000000E-03 0. -1.
        -11    1    3    3    0    0  0.20046110674E+02  0.67885324868E+00  0.19760613584E+01  0.20154706984E+02  0.51100000000E-03 0.  1.
         12    1    3    3    0    0  0.52943680494E+01  0.13012152295E+01 -0.19772204867E+01  0.57993874650E+01  0.00000000000E+00 0. -1.
</event>
<event>
 7    1  0.2685294E-009  0.4778727E+02  0.7816164E-02  0.1312668E+00
        -11   -1    0    0    0    0  0.00000000000E+00  0.00000000000E+00  0.45593999997E+02  0.45594000000E+02  0.51100000000E-03 0.  1.
         11   -1    0    0    0    0 -0.00000000000E+00 -0.00000000000E+00 -0.45593999997E+02  0.45594000000E+02  0.51100000000E-03 0. -1.
    9900012    2    1    2    0    0 -0.18170321249E+02  0.46209610103E+01 -0.39142167592E+02  0.47787272601E+02  0.20000007098E+02 0.  0.
        -12    1    1    2    0    0  0.18170321249E+02 -0.46209610103E+01  0.39142167592E+02  0.43400727399E+02  0.00000000000E+00 0.  1.
         11    1    3    3    0    0 -0.13013417980E+02  0.87810424173E+01 -0.21018978810E+02  0.26234580689E+02  0.51100000000E-03 0. -1.
        -11    1    3    3    0    0 -0.89322573166E+00 -0.40985034068E+00 -0.15076818594E+02  0.15108814934E+02  0.51100000000E-03 0.  1.
         12    1    3    3    0    0 -0.42636775377E+01 -0.37502310663E+01 -0.30463701874E+01  0.64438769786E+01  0.00000000000E+00 0. -1.
</event>
<event>
 7    1  0.2685294E-009  0.4778727E+02  0.7816164E-02  0.1312668E+00
        -11   -1    0    0    0    0  0.00000000000E+00  0.00000000000E+00  0.45593999997E+02  0.45594000000E+02  0.51100000000E-03 0.  1.
         11   -1    0    0    0    0 -0.00000000000E+00 -0.00000000000E+00 -0.45593999997E+02  0.45594000000E+02  0.51100000000E-03 0. -1.
    9900012    2    1    2    0    0  0.20918115986E+02 -0.12488301671E+01 -0.38006528725E+02  0.47787269834E+02  0.19999994481E+02 0.  0.
        -12    1    1    2    0    0 -0.20918115986E+02  0.12488301671E+01  0.38006528725E+02  0.43400730166E+02  0.00000000000E+00 0.  1.
         11    1    3    3    0    0  0.96217013522E+01 -0.62918765195E+01 -0.10173829052E+02  0.15351600727E+02  0.51100000000E-03 0. -1.
        -11    1    3    3    0    0  0.10614902970E+02  0.78556644539E+01 -0.18980662356E+02  0.23122568474E+02  0.51100000000E-03 0.  1.
        -12    1    3    3    0    0  0.68151166369E+00 -0.28126181015E+01 -0.88520373176E+01  0.93131006332E+01  0.00000000000E+00 0.  1.
</event>
<event>
 7    1  0.2685294E-009  0.4778727E+02  0.7816164E-02  0.1312668E+00
        -11   -1    0    0    0    0  0.00000000000E+00  0.00000000000E+00  0.45593999997E+02  0.45594000000E+02  0.51100000000E-03 0.  1.
         11   -1    0    0    0    0 -0.00000000000E+00 -0.00000000000E+00 -0.45593999997E+02  0.45594000000E+02  0.51100000000E-03 0. -1.
    9900012    2    1    2    0    0 -0.24686933444E+02 -0.82878440782E+01 -0.34720173605E+02  0.47787268469E+02  0.19999988256E+02 0.  0.
        -12    1    1    2    0    0  0.24686933444E+02  0.82878440782E+01  0.34720173605E+02  0.43400731531E+02  0.00000000000E+00 0.  1.
         11    1    3    3    0    0 -0.74919403580E+01 -0.11703834003E+02 -0.15947105115E+02  0.21152282678E+02  0.51100000000E-03 0. -1.
        -11    1    3    3    0    0 -0.34409602599E+01  0.38084608373E+01 -0.49302713950E+01  0.71170329316E+01  0.51100000000E-03 0.  1.
        -12    1    3    3    0    0 -0.13754032826E+02 -0.39247091254E+00 -0.13842797095E+02  0.19517952859E+02  0.00000000000E+00 0.  1.
</event>
<event>
 7    1  0.2685294E-009  0.4778727E+02  0.7816164E-02  0.1312668E+00
        -11   -1    0    0    0    0  0.00000000000E+00  0.00000000000E+00  0.45593999997E+02  0.45594000000E+02  0.51100000000E-03 0. -1.
         11   -1    0    0    0    0 -0.00000000000E+00 -0.00000000000E+00 -0.45593999997E+02  0.45594000000E+02  0.51100000000E-03 0.  1.
    9900012    2    1    2    0    0  0.19433811301E+01 -0.25601169250E+02  0.34991814755E+02  0.47787266169E+02  0.19999977773E+02 0.  0.
        -12    1    1    2    0    0 -0.19433811301E+01  0.25601169250E+02 -0.34991814755E+02  0.43400733831E+02  0.00000000000E+00 0.  1.
         11    1    3    3    0    0 -0.33714056279E+01 -0.26113122068E+01  0.13408940757E+02  0.14070714972E+02  0.51100000000E-03 0. -1.
        -11    1    3    3    0    0  0.54319714282E+00 -0.75990917103E+01  0.11661735939E+01  0.77072186338E+01  0.51100000000E-03 0.  1.
         12    1    3    3    0    0  0.47715896151E+01 -0.15390765333E+02  0.20416700404E+02  0.26009332563E+02  0.00000000000E+00 0. -1.
</event>
<event>
 7    1  0.2685294E-009  0.4778727E+02  0.7816164E-02  0.1312668E+00
        -11   -1    0    0    0    0  0.00000000000E+00  0.00000000000E+00  0.45593999997E+02  0.45594000000E+02  0.51100000000E-03 0.  1.
         11   -1    0    0    0    0 -0.00000000000E+00 -0.00000000000E+00 -0.45593999997E+02  0.45594000000E+02  0.51100000000E-03 0. -1.
    9900012    2    1    2    0    0  0.20348397643E+02  0.38207345761E+02 -0.31248875742E+01  0.47787268680E+02  0.19999989222E+02 0.  0.
        -12    1    1    2    0    0 -0.20348397643E+02 -0.38207345761E+02  0.31248875742E+01  0.43400731320E+02  0.00000000000E+00 0.  1.
         11    1    3    3    0    0 -0.11450998026E+01 -0.10212466352E+01  0.14523270666E+01  0.21126884336E+01  0.51100000000E-03 0. -1.
        -11    1    3    3    0    0  0.95873547756E+01  0.25654540141E+02 -0.29350173937E+01  0.27544275790E+02  0.51100000000E-03 0.  1.
         12    1    3    3    0    0  0.11906142670E+02  0.13574052255E+02 -0.16421972470E+01  0.18130304457E+02  0.00000000000E+00 0. -1.
</event>
<event>
 7    1  0.2685294E-009  0.4778727E+02  0.7816164E-02  0.1312668E+00
        -11   -1    0    0    0    0  0.00000000000E+00  0.00000000000E+00  0.45593999997E+02  0.45594000000E+02  0.51100000000E-03 0. -1.
         11   -1    0    0    0    0 -0.00000000000E+00 -0.00000000000E+00 -0.45593999997E+02  0.45594000000E+02  0.51100000000E-03 0.  1.
    9900012    2    1    2    0    0  0.21191531467E+02 -0.20938590376E+02  0.31561331056E+02  0.47787272000E+02  0.20000004358E+02 0.  0.
        -12    1    1    2    0    0 -0.21191531467E+02  0.20938590376E+02 -0.31561331056E+02  0.43400728000E+02  0.00000000000E+00 0.  1.
         11    1    3    3    0    0  0.11430037596E+02 -0.10663948949E+02  0.12676145852E+02  0.20125859995E+02  0.51100000000E-03 0. -1.
        -11    1    3    3    0    0 -0.20650952198E+01  0.81295644729E+00  0.75782650663E+01  0.78965573593E+01  0.51100000000E-03 0.  1.
        -12    1    3    3    0    0  0.11826589091E+02 -0.11087597875E+02  0.11306920138E+02  0.19764854646E+02  0.00000000000E+00 0.  1.
</event>
<event>
 7    1  0.5853919E-009  0.4778727E+02  0.7816164E-02  0.1312668E+00
        -11   -1    0    0    0    0  0.00000000000E+00  0.00000000000E+00  0.45593999997E+02  0.45594000000E+02  0.51100000000E-03 0. -1.
         11   -1    0    0    0    0 -0.00000000000E+00 -0.00000000000E+00 -0.45593999997E+02  0.45594000000E+02  0.51100000000E-03 0.  1.
    9900012    2    1    2    0    0  0.10447741947E+02  0.27894694720E+02  0.31565074814E+02  0.47787271281E+02  0.20000001079E+02 0.  0.
        -12    1    1    2    0    0 -0.10447741947E+02 -0.27894694720E+02 -0.31565074814E+02  0.43400728719E+02  0.00000000000E+00 0.  1.
         11    1    3    3    0    0  0.49238973369E+01  0.48851076242E+01  0.16229726936E+02  0.17649733090E+02  0.51100000000E-03 0. -1.
        -11    1    3    3    0    0  0.26050604014E+01  0.21132461001E+02  0.15961981456E+02  0.26611127371E+02  0.51100000000E-03 0.  1.
        -12    1    3    3    0    0  0.29187842087E+01  0.18771260948E+01 -0.62663357814E+00  0.35264108204E+01  0.00000000000E+00 0.  1.
</event>
<event>
 7    1  0.2685294E-009  0.4778728E+02  0.7816164E-02  0.1312668E+00
        -11   -1    0    0    0    0  0.00000000000E+00  0.00000000000E+00  0.45593999997E+02  0.45594000000E+02  0.51100000000E-03 0. -1.
         11   -1    0    0    0    0 -0.00000000000E+00 -0.00000000000E+00 -0.45593999997E+02  0.45594000000E+02  0.51100000000E-03 0.  1.
    9900012    2    1    2    0    0 -0.57340925388E+01 -0.58637910957E+01  0.42618761519E+02  0.47787277694E+02  0.20000030318E+02 0.  0.
        -12    1    1    2    0    0  0.57340925388E+01  0.58637910957E+01 -0.42618761519E+02  0.43400722306E+02  0.00000000000E+00 0.  1.
         11    1    3    3    0    0 -0.23005035588E+01  0.24381955649E+01  0.52046797624E+01  0.61907839510E+01  0.51100000000E-03 0. -1.
        -11    1    3    3    0    0 -0.58640011352E+00 -0.12816798303E+02  0.27060238453E+02  0.29947799406E+02  0.51100000000E-03 0.  1.
        -12    1    3    3    0    0 -0.28471888665E+01  0.45148116427E+01  0.10353843303E+02  0.11648694337E+02  0.00000000000E+00 0.  1.
</event>
<event>
 7    1  0.2685294E-009  0.4778727E+02  0.7816164E-02  0.1312668E+00
        -11   -1    0    0    0    0  0.00000000000E+00  0.00000000000E+00  0.45593999997E+02  0.45594000000E+02  0.51100000000E-03 0.  1.
         11   -1    0    0    0    0 -0.00000000000E+00 -0.00000000000E+00 -0.45593999997E+02  0.45594000000E+02  0.51100000000E-03 0. -1.
    9900012    2    1    2    0    0 -0.74935470010E+01  0.60329454061E+01 -0.42321079216E+02  0.47787269327E+02  0.19999992169E+02 0.  0.
        -12    1    1    2    0    0  0.74935470010E+01 -0.60329454061E+01  0.42321079216E+02  0.43400730673E+02  0.00000000000E+00 0.  1.
         11    1    3    3    0    0  0.37012472033E+01 -0.44196636203E+01 -0.75097603724E+01  0.94672677414E+01  0.51100000000E-03 0.  1.
        -11    1    3    3    0    0 -0.52497284146E+01  0.76482883189E+01 -0.23045410709E+02  0.24842441862E+02  0.51100000000E-03 0. -1.
         12    1    3    3    0    0 -0.59450657896E+01  0.28043207075E+01 -0.11765908134E+02  0.13477559724E+02  0.00000000000E+00 0. -1.
</event>
<event>
 7    1  0.2685294E-009  0.4778727E+02  0.7816164E-02  0.1312668E+00
        -11   -1    0    0    0    0  0.00000000000E+00  0.00000000000E+00  0.45593999997E+02  0.45594000000E+02  0.51100000000E-03 0.  1.
         11   -1    0    0    0    0 -0.00000000000E+00 -0.00000000000E+00 -0.45593999997E+02  0.45594000000E+02  0.51100000000E-03 0. -1.
    9900012    2    1    2    0    0 -0.15466534282E+02  0.25533012105E+02 -0.31503574489E+02  0.47787267340E+02  0.19999983112E+02 0.  0.
        -12    1    1    2    0    0  0.15466534282E+02 -0.25533012105E+02  0.31503574489E+02  0.43400732660E+02  0.00000000000E+00 0.  1.
         11    1    3    3    0    0 -0.73173253904E+01  0.22682752868E+02 -0.20844587306E+02  0.31663028105E+02  0.51100000000E-03 0. -1.
        -11    1    3    3    0    0 -0.97532351346E+01  0.12670589018E+01 -0.84150788866E+01  0.12943901529E+02  0.51100000000E-03 0.  1.
        -12    1    3    3    0    0  0.16040262432E+01  0.15832003344E+01 -0.22439082960E+01  0.31803377067E+01  0.00000000000E+00 0.  1.
</event>
<event>
 7    1  0.2685294E-009  0.4778728E+02  0.7816164E-02  0.1312668E+00
        -11   -1    0    0    0    0  0.00000000000E+00  0.00000000000E+00  0.45593999997E+02  0.45594000000E+02  0.51100000000E-03 0. -1.
         11   -1    0    0    0    0 -0.00000000000E+00 -0.00000000000E+00 -0.45593999997E+02  0.45594000000E+02  0.51100000000E-03 0.  1.
    9900012    2    1    2    0    0  0.32895640734E+01  0.32816215896E+02  0.28211652363E+02  0.47787278962E+02  0.20000036099E+02 0.  0.
        -12    1    1    2    0    0 -0.32895640734E+01 -0.32816215896E+02 -0.28211652363E+02  0.43400721038E+02  0.00000000000E+00 0.  1.
         11    1    3    3    0    0  0.63755244232E+01  0.16766612967E+02  0.13630033864E+02  0.22528747090E+02  0.51100000000E-03 0. -1.
        -11    1    3    3    0    0 -0.48062733690E+01  0.50344399088E+01  0.72378941410E-01  0.69606815661E+01  0.51100000000E-03 0.  1.
        -12    1    3    3    0    0  0.17203130191E+01  0.11015163020E+02  0.14509239558E+02  0.18297850306E+02  0.00000000000E+00 0.  1.
</event>
<event>
 7    1  0.2685294E-009  0.4778727E+02  0.7816164E-02  0.1312668E+00
        -11   -1    0    0    0    0  0.00000000000E+00  0.00000000000E+00  0.45593999997E+02  0.45594000000E+02  0.51100000000E-03 0.  1.
         11   -1    0    0    0    0 -0.00000000000E+00 -0.00000000000E+00 -0.45593999997E+02  0.45594000000E+02  0.51100000000E-03 0. -1.
    9900012    2    1    2    0    0 -0.25395843284E+02 -0.10477770061E+02 -0.33598969971E+02  0.47787270690E+02  0.19999998383E+02 0.  0.
        -12    1    1    2    0    0  0.25395843284E+02  0.10477770061E+02  0.33598969971E+02  0.43400729310E+02  0.00000000000E+00 0.  1.
         11    1    3    3    0    0  0.59653673318E+00  0.21305824714E+01 -0.60508258005E+01  0.64426493674E+01  0.51100000000E-03 0. -1.
        -11    1    3    3    0    0 -0.19846018782E+01 -0.31518609423E+01 -0.17760010852E+00  0.37288623030E+01  0.51100000000E-03 0.  1.
         12    1    3    3    0    0 -0.24007778139E+02 -0.94564915903E+01 -0.27370544062E+02  0.37615759019E+02  0.00000000000E+00 0. -1.
</event>
<event>
 7    1  0.2685294E-009  0.4778727E+02  0.7816164E-02  0.1312668E+00
        -11   -1    0    0    0    0  0.00000000000E+00  0.00000000000E+00  0.45593999997E+02  0.45594000000E+02  0.51100000000E-03 0.  1.
         11   -1    0    0    0    0 -0.00000000000E+00 -0.00000000000E+00 -0.45593999997E+02  0.45594000000E+02  0.51100000000E-03 0. -1.
    9900012    2    1    2    0    0  0.26492927025E+02 -0.30346761684E+02 -0.16149985641E+02  0.47787272319E+02  0.20000005811E+02 0.  0.
        -12    1    1    2    0    0 -0.26492927025E+02  0.30346761684E+02  0.16149985641E+02  0.43400727681E+02  0.00000000000E+00 0.  1.
         11    1    3    3    0    0  0.16264038261E+02 -0.18029159042E+02 -0.16462030041E+02  0.29335438460E+02  0.51100000000E-03 0. -1.
        -11    1    3    3    0    0  0.16617203558E+01  0.46173553396E+00  0.23682809086E+01  0.29297216535E+01  0.51100000000E-03 0.  1.
        -12    1    3    3    0    0  0.85671684084E+01 -0.12779338175E+02 -0.20562365087E+01  0.15522112205E+02  0.00000000000E+00 0.  1.
</event>
<event>
 7    1  0.2685294E-009  0.4778728E+02  0.7816164E-02  0.1312668E+00
        -11   -1    0    0    0    0  0.00000000000E+00  0.00000000000E+00  0.45593999997E+02  0.45594000000E+02  0.51100000000E-03 0. -1.
         11   -1    0    0    0    0 -0.00000000000E+00 -0.00000000000E+00 -0.45593999997E+02  0.45594000000E+02  0.51100000000E-03 0.  1.
    9900012    2    1    2    0    0  0.20276898630E+02 -0.12070637718E+02  0.36424854035E+02  0.47787275301E+02  0.20000019405E+02 0.  0.
        -12    1    1    2    0    0 -0.20276898630E+02  0.12070637718E+02 -0.36424854035E+02  0.43400724699E+02  0.00000000000E+00 0.  1.
         11    1    3    3    0    0  0.22877093580E+02 -0.68335640414E+01  0.31147885855E+02  0.39246016380E+02  0.51100000000E-03 0. -1.
        -11    1    3    3    0    0 -0.24916647017E+01 -0.31421932007E+01  0.16193775167E+01  0.43248300428E+01  0.51100000000E-03 0.  1.
         12    1    3    3    0    0 -0.10853024847E+00 -0.20948804762E+01  0.36575906634E+01  0.42164288783E+01  0.00000000000E+00 0. -1.
</event>
<event>
 7    1  0.2685294E-009  0.4778727E+02  0.7816164E-02  0.1312668E+00
        -11   -1    0    0    0    0  0.00000000000E+00  0.00000000000E+00  0.45593999997E+02  0.45594000000E+02  0.51100000000E-03 0.  1.
         11   -1    0    0    0    0 -0.00000000000E+00 -0.00000000000E+00 -0.45593999997E+02  0.45594000000E+02  0.51100000000E-03 0. -1.
    9900012    2    1    2    0    0  0.62875876273E+01 -0.19355226244E+02 -0.38333600972E+02  0.47787268387E+02  0.19999987882E+02 0.  0.
        -12    1    1    2    0    0 -0.62875876273E+01  0.19355226244E+02  0.38333600972E+02  0.43400731613E+02  0.00000000000E+00 0.  1.
         11    1    3    3    0    0  0.78115695500E+01 -0.91402469086E+01 -0.33506707376E+02  0.35598654073E+02  0.51100000000E-03 0.  1.
        -11    1    3    3    0    0 -0.13613750145E+01 -0.10434855560E+02 -0.51904178012E+01  0.11733711676E+02  0.51100000000E-03 0. -1.
        -12    1    3    3    0    0 -0.16260690819E+00  0.21987622475E+00  0.36352420578E+00  0.45490263683E+00  0.00000000000E+00 0.  1.
</event>
<event>
 7    1  0.2685294E-009  0.4778727E+02  0.7816164E-02  0.1312668E+00
        -11   -1    0    0    0    0  0.00000000000E+00  0.00000000000E+00  0.45593999997E+02  0.45594000000E+02  0.51100000000E-03 0. -1.
         11   -1    0    0    0    0 -0.00000000000E+00 -0.00000000000E+00 -0.45593999997E+02  0.45594000000E+02  0.51100000000E-03 0.  1.
    9900012    2    1    2    0    0 -0.31807224830E+02 -0.29523735066E+02  0.52274703720E+00  0.47787265581E+02  0.19999975090E+02 0.  0.
        -12    1    1    2    0    0  0.31807224830E+02  0.29523735066E+02 -0.52274703720E+00  0.43400734419E+02  0.00000000000E+00 0.  1.
         11    1    3    3    0    0 -0.42640299192E+01 -0.75960859988E+01  0.10184467620E+01  0.87703881169E+01  0.51100000000E-03 0.  1.
        -11    1    3    3    0    0 -0.25734647049E+02 -0.20705547997E+02  0.47173282229E+01  0.33365325750E+02  0.51100000000E-03 0. -1.
        -12    1    3    3    0    0 -0.18085478625E+01 -0.12221010702E+01 -0.52130279478E+01  0.56515517144E+01  0.00000000000E+00 0.  1.
</event>
<event>
 7    1  0.2685294E-009  0.4778726E+02  0.7816164E-02  0.1312668E+00
        -11   -1    0    0    0    0  0.00000000000E+00  0.00000000000E+00  0.45593999997E+02  0.45594000000E+02  0.51100000000E-03 0.  1.
         11   -1    0    0    0    0 -0.00000000000E+00 -0.00000000000E+00 -0.45593999997E+02  0.45594000000E+02  0.51100000000E-03 0. -1.
    9900012    2    1    2    0    0 -0.26962263581E+02 -0.32619646200E+02 -0.96238705470E+01  0.47787264292E+02  0.19999969214E+02 0.  0.
        -12    1    1    2    0    0  0.26962263581E+02  0.32619646200E+02  0.96238705470E+01  0.43400735708E+02  0.00000000000E+00 0.  1.
         11    1    3    3    0    0 -0.85089782688E+01 -0.39700293822E+01 -0.92856147605E+01  0.13205547555E+02  0.51100000000E-03 0. -1.
        -11    1    3    3    0    0 -0.10480807692E+02 -0.13662636072E+02  0.24022194289E+01  0.17386362839E+02  0.51100000000E-03 0.  1.
         12    1    3    3    0    0 -0.79724776204E+01 -0.14986980746E+02 -0.27404752154E+01  0.17195353899E+02  0.00000000000E+00 0. -1.
</event>
<event>
 7    1  0.3412322E-009  0.4778727E+02  0.7816164E-02  0.1312668E+00
        -11   -1    0    0    0    0  0.00000000000E+00  0.00000000000E+00  0.45593999997E+02  0.45594000000E+02  0.51100000000E-03 0.  1.
         11   -1    0    0    0    0 -0.00000000000E+00 -0.00000000000E+00 -0.45593999997E+02  0.45594000000E+02  0.51100000000E-03 0. -1.
    9900012    2    1    2    0    0  0.57199199847E+01 -0.41210065311E+02  0.12354614843E+02  0.47787268722E+02  0.19999989411E+02 0.  0.
        -12    1    1    2    0    0 -0.57199199847E+01  0.41210065311E+02 -0.12354614843E+02  0.43400731278E+02  0.00000000000E+00 0.  1.
         11    1    3    3    0    0  0.15538444751E+01 -0.28910650964E+02  0.68457987598E+01  0.29750716508E+02  0.51100000000E-03 0. -1.
        -11    1    3    3    0    0  0.10127539685E+01 -0.16994333626E+01 -0.33340277562E+01  0.38767880642E+01  0.51100000000E-03 0.  1.
        -12    1    3    3    0    0  0.31533215411E+01 -0.10599980984E+02  0.88428438395E+01  0.14159764150E+02  0.00000000000E+00 0.  1.
</event>
<event>
 7    1  0.2685294E-009  0.4778727E+02  0.7816164E-02  0.1312668E+00
        -11   -1    0    0    0    0  0.00000000000E+00  0.00000000000E+00  0.45593999997E+02  0.45594000000E+02  0.51100000000E-03 0. -1.
         11   -1    0    0    0    0 -0.00000000000E+00 -0.00000000000E+00 -0.45593999997E+02  0.45594000000E+02  0.51100000000E-03 0.  1.
    9900012    2    1    2    0    0  0.20852913834E+02  0.34015847726E+02  0.17079266301E+02  0.47787271328E+02  0.20000001291E+02 0.  0.
        -12    1    1    2    0    0 -0.20852913834E+02 -0.34015847726E+02 -0.17079266301E+02  0.43400728672E+02  0.00000000000E+00 0.  1.
         11    1    3    3    0    0  0.21550475556E+01  0.17528264428E+02  0.33336774471E+01  0.17972136473E+02  0.51100000000E-03 0. -1.
        -11    1    3    3    0    0  0.22808409511E+01  0.45809934211E+01 -0.33145538683E+00  0.51281184760E+01  0.51100000000E-03 0.  1.
         12    1    3    3    0    0  0.16417025327E+02  0.11906589877E+02  0.14077044241E+02  0.24687016378E+02  0.00000000000E+00 0. -1.
</event>
<event>
 7    1  0.2685294E-009  0.4778727E+02  0.7816164E-02  0.1312668E+00
        -11   -1    0    0    0    0  0.00000000000E+00  0.00000000000E+00  0.45593999997E+02  0.45594000000E+02  0.51100000000E-03 0. -1.
         11   -1    0    0    0    0 -0.00000000000E+00 -0.00000000000E+00 -0.45593999997E+02  0.45594000000E+02  0.51100000000E-03 0.  1.
    9900012    2    1    2    0    0  0.43101721654E+02  0.50843701161E+01 -0.11944474268E+00  0.47787268485E+02  0.19999988329E+02 0.  0.
        -12    1    1    2    0    0 -0.43101721654E+02 -0.50843701161E+01  0.11944474268E+00  0.43400731515E+02  0.00000000000E+00 0.  1.
         11    1    3    3    0    0  0.26691329141E+02 -0.60321936623E-01 -0.15183191601E+01  0.26734546627E+02  0.51100000000E-03 0. -1.
        -11    1    3    3    0    0 -0.16439864718E+01  0.16140283856E+01 -0.97914172739E+00  0.25032974119E+01  0.51100000000E-03 0.  1.
        -12    1    3    3    0    0  0.18054378985E+02  0.35306636671E+01  0.23780161448E+01  0.18549424445E+02  0.00000000000E+00 0.  1.
</event>
<event>
 7    1  0.2685294E-009  0.4778727E+02  0.7816164E-02  0.1312668E+00
        -11   -1    0    0    0    0  0.00000000000E+00  0.00000000000E+00  0.45593999997E+02  0.45594000000E+02  0.51100000000E-03 0. -1.
         11   -1    0    0    0    0 -0.00000000000E+00 -0.00000000000E+00 -0.45593999997E+02  0.45594000000E+02  0.51100000000E-03 0.  1.
    9900012    2    1    2    0    0 -0.39406144860E+02 -0.17360079750E+01  0.18104293122E+02  0.47787269524E+02  0.19999993069E+02 0.  0.
        -12    1    1    2    0    0  0.39406144860E+02  0.17360079750E+01 -0.18104293122E+02  0.43400730476E+02  0.00000000000E+00 0.  1.
         11    1    3    3    0    0 -0.23839869080E+02  0.40879299713E+01  0.16767888088E+02  0.29431489945E+02  0.51100000000E-03 0. -1.
        -11    1    3    3    0    0 -0.10401021797E+02 -0.35425163017E+00 -0.10582956784E+01  0.10460723619E+02  0.51100000000E-03 0.  1.
         12    1    3    3    0    0 -0.51652539824E+01 -0.54696863161E+01  0.23947007126E+01  0.78950559594E+01  0.00000000000E+00 0. -1.
</event>
<event>
 7    1  0.2685294E-009  0.4778734E+02  0.7816164E-02  0.1312667E+00
        -11   -1    0    0    0    0  0.00000000000E+00  0.00000000000E+00  0.45593999997E+02  0.45594000000E+02  0.51100000000E-03 0.  1.
         11   -1    0    0    0    0 -0.00000000000E+00 -0.00000000000E+00 -0.45593999997E+02  0.45594000000E+02  0.51100000000E-03 0. -1.
    9900012    2    1    2    0    0 -0.37882881056E+02  0.19474008209E+02 -0.83227336903E+01  0.47787336769E+02  0.20000299662E+02 0.  0.
        -12    1    1    2    0    0  0.37882881056E+02 -0.19474008209E+02  0.83227336903E+01  0.43400663231E+02  0.00000000000E+00 0.  1.
         11    1    3    3    0    0 -0.25053398677E+02  0.17594975559E+02 -0.31804528919E+00  0.30616288202E+02  0.51100000000E-03 0. -1.
        -11    1    3    3    0    0 -0.12577236040E+02  0.21620997068E+00 -0.46366192576E+01  0.13406410838E+02  0.51100000000E-03 0.  1.
         12    1    3    3    0    0 -0.25224633921E+00  0.16628226797E+01 -0.33680691435E+01  0.37646377296E+01  0.00000000000E+00 0. -1.
</event>
<event>
 7    1  0.2685294E-009  0.4778727E+02  0.7816164E-02  0.1312668E+00
        -11   -1    0    0    0    0  0.00000000000E+00  0.00000000000E+00  0.45593999997E+02  0.45594000000E+02  0.51100000000E-03 0.  1.
         11   -1    0    0    0    0 -0.00000000000E+00 -0.00000000000E+00 -0.45593999997E+02  0.45594000000E+02  0.51100000000E-03 0. -1.
    9900012    2    1    2    0    0 -0.32446110341E+02  0.11000454682E+02 -0.26643256711E+02  0.47787271808E+02  0.20000003481E+02 0.  0.
        -12    1    1    2    0    0  0.32446110341E+02 -0.11000454682E+02  0.26643256711E+02  0.43400728192E+02  0.00000000000E+00 0.  1.
         11    1    3    3    0    0 -0.20555582410E+02  0.37126887258E+01 -0.96436921165E+01  0.23006886440E+02  0.51100000000E-03 0. -1.
        -11    1    3    3    0    0 -0.14998726542E+01  0.60439796559E+01 -0.20977573851E+01  0.65711410248E+01  0.51100000000E-03 0.  1.
         12    1    3    3    0    0 -0.10390655277E+02  0.12437863007E+01 -0.14901807209E+02  0.18209244343E+02  0.00000000000E+00 0. -1.
</event>
<event>
 7    1  0.2685294E-009  0.4778727E+02  0.7816164E-02  0.1312668E+00
        -11   -1    0    0    0    0  0.00000000000E+00  0.00000000000E+00  0.45593999997E+02  0.45594000000E+02  0.51100000000E-03 0.  1.
         11   -1    0    0    0    0 -0.00000000000E+00 -0.00000000000E+00 -0.45593999997E+02  0.45594000000E+02  0.51100000000E-03 0. -1.
    9900012    2    1    2    0    0 -0.38085557381E+02  0.12389673221E+02 -0.16721534645E+02  0.47787269540E+02  0.19999993141E+02 0.  0.
        -12    1    1    2    0    0  0.38085557381E+02 -0.12389673221E+02  0.16721534645E+02  0.43400730460E+02  0.00000000000E+00 0.  1.
         11    1    3    3    0    0 -0.23703182218E+02  0.99027269045E+01 -0.18606467065E+02  0.31719165568E+02  0.51100000000E-03 0. -1.
        -11    1    3    3    0    0 -0.13748108130E+02  0.33422139586E+01  0.30670426514E+01  0.14477141368E+02  0.51100000000E-03 0.  1.
        -12    1    3    3    0    0 -0.63426703314E+00 -0.85526764242E+00 -0.11821102314E+01  0.15909626044E+01  0.00000000000E+00 0.  1.
</event>
<event>
 7    1  0.2685294E-009  0.4778727E+02  0.7816164E-02  0.1312668E+00
        -11   -1    0    0    0    0  0.00000000000E+00  0.00000000000E+00  0.45593999997E+02  0.45594000000E+02  0.51100000000E-03 0.  1.
         11   -1    0    0    0    0 -0.00000000000E+00 -0.00000000000E+00 -0.45593999997E+02  0.45594000000E+02  0.51100000000E-03 0. -1.
    9900012    2    1    2    0    0  0.24333633943E+01 -0.19642279241E+00 -0.43332014557E+02  0.47787270456E+02  0.19999997318E+02 0.  0.
        -12    1    1    2    0    0 -0.24333633943E+01  0.19642279241E+00  0.43332014557E+02  0.43400729544E+02  0.00000000000E+00 0.  1.
         11    1    3    3    0    0  0.73962996023E+01 -0.23505790241E+01 -0.29017332024E+02  0.30037244009E+02  0.51100000000E-03 0. -1.
        -11    1    3    3    0    0 -0.67221312231E+01  0.35977515671E+01 -0.80627049171E+01  0.11096759678E+02  0.51100000000E-03 0.  1.
        -12    1    3    3    0    0  0.17591950151E+01 -0.14435953354E+01 -0.62519776159E+01  0.66532667693E+01  0.00000000000E+00 0.  1.
</event>
<event>
 7    1  0.2685294E-009  0.4778727E+02  0.7816164E-02  0.1312668E+00
        -11   -1    0    0    0    0  0.00000000000E+00  0.00000000000E+00  0.45593999997E+02  0.45594000000E+02  0.51100000000E-03 0.  1.
         11   -1    0    0    0    0 -0.00000000000E+00 -0.00000000000E+00 -0.45593999997E+02  0.45594000000E+02  0.51100000000E-03 0. -1.
    9900012    2    1    2    0    0 -0.37311126079E+02  0.17290115439E+01 -0.22102350926E+02  0.47787268132E+02  0.19999986722E+02 0.  0.
        -12    1    1    2    0    0  0.37311126079E+02 -0.17290115439E+01  0.22102350926E+02  0.43400731868E+02  0.00000000000E+00 0.  1.
         11    1    3    3    0    0 -0.21210938193E+02  0.87899385468E+00 -0.19229031872E+02  0.28643187605E+02  0.51100000000E-03 0. -1.
        -11    1    3    3    0    0 -0.16635290423E+02  0.15947403803E+01 -0.63322276148E+00  0.16723547939E+02  0.51100000000E-03 0.  1.
         12    1    3    3    0    0  0.53510253604E+00 -0.74472269109E+00 -0.22400962928E+01  0.24205325884E+01  0.00000000000E+00 0. -1.
</event>
<event>
 7    1  0.2685294E-009  0.4778727E+02  0.7816164E-02  0.1312668E+00
        -11   -1    0    0    0    0  0.00000000000E+00  0.00000000000E+00  0.45593999997E+02  0.45594000000E+02  0.51100000000E-03 0. -1.
         11   -1    0    0    0    0 -0.00000000000E+00 -0.00000000000E+00 -0.45593999997E+02  0.45594000000E+02  0.51100000000E-03 0.  1.
    9900012    2    1    2    0    0 -0.21263729536E+02 -0.37626500034E+02  0.39652838576E+01  0.47787272187E+02  0.20000005211E+02 0.  0.
        -12    1    1    2    0    0  0.21263729536E+02  0.37626500034E+02 -0.39652838576E+01  0.43400727813E+02  0.00000000000E+00 0.  1.
         11    1    3    3    0    0 -0.12116195420E+02 -0.24170684987E+02  0.81559936611E+01  0.28240829255E+02  0.51100000000E-03 0. -1.
        -11    1    3    3    0    0 -0.46396406028E+01 -0.13642839864E+02 -0.42846903917E+01  0.15033692710E+02  0.51100000000E-03 0.  1.
         12    1    3    3    0    0 -0.45078935136E+01  0.18702481714E+00  0.93980588191E-01  0.45127502216E+01  0.00000000000E+00 0. -1.
</event>
<event>
 7    1  0.2685294E-009  0.4778727E+02  0.7816164E-02  0.1312668E+00
        -11   -1    0    0    0    0  0.00000000000E+00  0.00000000000E+00  0.45593999997E+02  0.45594000000E+02  0.51100000000E-03 0.  1.
         11   -1    0    0    0    0 -0.00000000000E+00 -0.00000000000E+00 -0.45593999997E+02  0.45594000000E+02  0.51100000000E-03 0. -1.
    9900012    2    1    2    0    0  0.83492329603E+01  0.15725863589E+02 -0.39580434249E+02  0.47787271296E+02  0.20000001149E+02 0.  0.
        -12    1    1    2    0    0 -0.83492329603E+01 -0.15725863589E+02  0.39580434249E+02  0.43400728704E+02  0.00000000000E+00 0.  1.
         11    1    3    3    0    0  0.48420517089E+01 -0.11656268871E+01 -0.14689571849E+02  0.15510888825E+02  0.51100000000E-03 0. -1.
        -11    1    3    3    0    0  0.35785659106E+01  0.82248315679E+00 -0.16606082028E+01  0.40299171684E+01  0.51100000000E-03 0.  1.
         12    1    3    3    0    0 -0.71384659203E-01  0.16069007320E+02 -0.23230254197E+02  0.28246465303E+02  0.00000000000E+00 0. -1.
</event>
<event>
 7    1  0.2685294E-009  0.4778727E+02  0.7816164E-02  0.1312668E+00
        -11   -1    0    0    0    0  0.00000000000E+00  0.00000000000E+00  0.45593999997E+02  0.45594000000E+02  0.51100000000E-03 0.  1.
         11   -1    0    0    0    0 -0.00000000000E+00 -0.00000000000E+00 -0.45593999997E+02  0.45594000000E+02  0.51100000000E-03 0. -1.
    9900012    2    1    2    0    0 -0.94854383908E+01  0.20226805552E+02 -0.37209220089E+02  0.47787271159E+02  0.20000000524E+02 0.  0.
        -12    1    1    2    0    0  0.94854383908E+01 -0.20226805552E+02  0.37209220089E+02  0.43400728841E+02  0.00000000000E+00 0.  1.
         11    1    3    3    0    0 -0.13625690254E+01 -0.23981784570E+01 -0.36918978896E+01  0.46084666158E+01  0.51100000000E-03 0.  1.
        -11    1    3    3    0    0 -0.10724521682E+02  0.17826428196E+02 -0.21181452767E+02  0.29689237934E+02  0.51100000000E-03 0. -1.
        -12    1    3    3    0    0  0.26016523162E+01  0.47985558129E+01 -0.12335869432E+02  0.13489566610E+02  0.00000000000E+00 0.  1.
</event>
<event>
 7    1  0.2685294E-009  0.4778727E+02  0.7816164E-02  0.1312668E+00
        -11   -1    0    0    0    0  0.00000000000E+00  0.00000000000E+00  0.45593999997E+02  0.45594000000E+02  0.51100000000E-03 0.  1.
         11   -1    0    0    0    0 -0.00000000000E+00 -0.00000000000E+00 -0.45593999997E+02  0.45594000000E+02  0.51100000000E-03 0. -1.
    9900012    2    1    2    0    0  0.87824627572E+01  0.28582584780E+02 -0.31456754088E+02  0.47787272097E+02  0.20000004800E+02 0.  0.
        -12    1    1    2    0    0 -0.87824627572E+01 -0.28582584780E+02  0.31456754088E+02  0.43400727903E+02  0.00000000000E+00 0.  1.
         11    1    3    3    0    0  0.70986538111E+00 -0.10255053538E+01 -0.10307554251E+02  0.10382737837E+02  0.51100000000E-03 0. -1.
        -11    1    3    3    0    0  0.21976090833E+01  0.12873703869E+02 -0.78635493312E+01  0.15244577572E+02  0.51100000000E-03 0.  1.
         12    1    3    3    0    0  0.58749882928E+01  0.16734386264E+02 -0.13285650505E+02  0.22159956688E+02  0.00000000000E+00 0. -1.
</event>
<event>
 7    1  0.2685294E-009  0.4778728E+02  0.7816164E-02  0.1312668E+00
        -11   -1    0    0    0    0  0.00000000000E+00  0.00000000000E+00  0.45593999997E+02  0.45594000000E+02  0.51100000000E-03 0.  1.
         11   -1    0    0    0    0 -0.00000000000E+00 -0.00000000000E+00 -0.45593999997E+02  0.45594000000E+02  0.51100000000E-03 0. -1.
    9900012    2    1    2    0    0 -0.13302213872E+02 -0.41306663228E+02  0.65830114806E+00  0.47787277871E+02  0.20000031123E+02 0.  0.
        -12    1    1    2    0    0  0.13302213872E+02  0.41306663228E+02 -0.65830114806E+00  0.43400722129E+02  0.00000000000E+00 0.  1.
         11    1    3    3    0    0 -0.51688236823E+01 -0.68737184192E+01 -0.69418617036E+01  0.11052338546E+02  0.51100000000E-03 0. -1.
        -11    1    3    3    0    0 -0.22871456172E+01 -0.10085315041E+02  0.52149885840E+01  0.11581913518E+02  0.51100000000E-03 0.  1.
         12    1    3    3    0    0 -0.58462445724E+01 -0.24347629768E+02  0.23851742677E+01  0.25153025806E+02  0.00000000000E+00 0. -1.
</event>
<event>
 7    1  0.2685294E-009  0.4778727E+02  0.7816164E-02  0.1312668E+00
        -11   -1    0    0    0    0  0.00000000000E+00  0.00000000000E+00  0.45593999997E+02  0.45594000000E+02  0.51100000000E-03 0.  1.
         11   -1    0    0    0    0 -0.00000000000E+00 -0.00000000000E+00 -0.45593999997E+02  0.45594000000E+02  0.51100000000E-03 0. -1.
    9900012    2    1    2    0    0 -0.13918185608E+02  0.39203813369E+02 -0.12368037213E+02  0.47787271691E+02  0.20000002947E+02 0.  0.
        -12    1    1    2    0    0  0.13918185608E+02 -0.39203813369E+02  0.12368037213E+02  0.43400728309E+02  0.00000000000E+00 0.  1.
         11    1    3    3    0    0 -0.27626446965E+01  0.15051264037E+02 -0.67563598262E+01  0.16727855607E+02  0.51100000000E-03 0. -1.
        -11    1    3    3    0    0 -0.32852821552E+01  0.15254906241E+02  0.36152487082E+01  0.16017966998E+02  0.51100000000E-03 0.  1.
        -12    1    3    3    0    0 -0.78702587559E+01  0.88976430907E+01 -0.92269260948E+01  0.15041449086E+02  0.00000000000E+00 0.  1.
</event>
<event>
 7    1  0.2685294E-009  0.4778727E+02  0.7816164E-02  0.1312668E+00
        -11   -1    0    0    0    0  0.00000000000E+00  0.00000000000E+00  0.45593999997E+02  0.45594000000E+02  0.51100000000E-03 0. -1.
         11   -1    0    0    0    0 -0.00000000000E+00 -0.00000000000E+00 -0.45593999997E+02  0.45594000000E+02  0.51100000000E-03 0.  1.
    9900012    2    1    2    0    0  0.64809085702E-01  0.43286742127E+02  0.31427639546E+01  0.47787271786E+02  0.20000003383E+02 0.  0.
        -12    1    1    2    0    0 -0.64809085702E-01 -0.43286742127E+02 -0.31427639546E+01  0.43400728214E+02  0.00000000000E+00 0.  1.
         11    1    3    3    0    0 -0.32257992812E+01  0.82005305316E+01  0.48145314857E+01  0.10041623160E+02  0.51100000000E-03 0. -1.
        -11    1    3    3    0    0  0.74000379204E+01  0.24497910663E+02  0.23452450655E+01  0.25698411678E+02  0.51100000000E-03 0.  1.
        -12    1    3    3    0    0 -0.41094295535E+01  0.10588300932E+02 -0.40170125966E+01  0.12047236948E+02  0.00000000000E+00 0.  1.
</event>
<event>
 7    1  0.2685294E-009  0.4778728E+02  0.7816164E-02  0.1312668E+00
        -11   -1    0    0    0    0  0.00000000000E+00  0.00000000000E+00  0.45593999997E+02  0.45594000000E+02  0.51100000000E-03 0.  1.
         11   -1    0    0    0    0 -0.00000000000E+00 -0.00000000000E+00 -0.45593999997E+02  0.45594000000E+02  0.51100000000E-03 0. -1.
    9900012    2    1    2    0    0 -0.48020056878E+01  0.87851226964E+01 -0.42230144982E+02  0.47787276681E+02  0.20000025698E+02 0.  0.
        -12    1    1    2    0    0  0.48020056878E+01 -0.87851226964E+01  0.42230144982E+02  0.43400723319E+02  0.00000000000E+00 0.  1.
         11    1    3    3    0    0 -0.62225891119E+01  0.25164188968E+01 -0.47420153689E+01  0.82182534239E+01  0.51100000000E-03 0. -1.
        -11    1    3    3    0    0  0.53547359799E+01  0.15385092418E+01 -0.25416666834E+02  0.26020129925E+02  0.51100000000E-03 0.  1.
        -12    1    3    3    0    0 -0.39341525558E+01  0.47301945578E+01 -0.12071462779E+02  0.13548893332E+02  0.00000000000E+00 0.  1.
</event>
<event>
 7    1  0.2685294E-009  0.4778727E+02  0.7816164E-02  0.1312668E+00
        -11   -1    0    0    0    0  0.00000000000E+00  0.00000000000E+00  0.45593999997E+02  0.45594000000E+02  0.51100000000E-03 0.  1.
         11   -1    0    0    0    0 -0.00000000000E+00 -0.00000000000E+00 -0.45593999997E+02  0.45594000000E+02  0.51100000000E-03 0. -1.
    9900012    2    1    2    0    0 -0.31312941410E+01  0.31379926664E+02 -0.29818094840E+02  0.47787267514E+02  0.19999983904E+02 0.  0.
        -12    1    1    2    0    0  0.31312941410E+01 -0.31379926664E+02  0.29818094840E+02  0.43400732486E+02  0.00000000000E+00 0.  1.
         11    1    3    3    0    0  0.56340524072E-01 -0.12510622583E+01  0.84387775880E+00  0.15101195190E+01  0.51100000000E-03 0. -1.
        -11    1    3    3    0    0 -0.71077365673E+01  0.25811081400E+02 -0.22975682838E+02  0.35279085083E+02  0.51100000000E-03 0.  1.
         12    1    3    3    0    0  0.39201019023E+01  0.68199075222E+01 -0.76862897602E+01  0.10998062912E+02  0.00000000000E+00 0. -1.
</event>
<event>
 7    1  0.2685294E-009  0.4778727E+02  0.7816164E-02  0.1312668E+00
        -11   -1    0    0    0    0  0.00000000000E+00  0.00000000000E+00  0.45593999997E+02  0.45594000000E+02  0.51100000000E-03 0.  1.
         11   -1    0    0    0    0 -0.00000000000E+00 -0.00000000000E+00 -0.45593999997E+02  0.45594000000E+02  0.51100000000E-03 0. -1.
    9900012    2    1    2    0    0 -0.10106232608E+02  0.28855637140E+02  0.30803235256E+02  0.47787273802E+02  0.20000012574E+02 0.  0.
        -12    1    1    2    0    0  0.10106232608E+02 -0.28855637140E+02 -0.30803235256E+02  0.43400726198E+02  0.00000000000E+00 0.  1.
         11    1    3    3    0    0 -0.18286999574E+01 -0.12979068287E+00  0.10607704029E+02  0.10764960482E+02  0.51100000000E-03 0. -1.
        -11    1    3    3    0    0 -0.15724693883E+01  0.32307114995E+01 -0.34153006234E-01  0.35932330093E+01  0.51100000000E-03 0.  1.
         12    1    3    3    0    0 -0.67050632621E+01  0.25754716323E+02  0.20229684233E+02  0.33429080310E+02  0.00000000000E+00 0. -1.
</event>
<event>
 7    1  0.2685294E-009  0.4778727E+02  0.7816164E-02  0.1312668E+00
        -11   -1    0    0    0    0  0.00000000000E+00  0.00000000000E+00  0.45593999997E+02  0.45594000000E+02  0.51100000000E-03 0.  1.
         11   -1    0    0    0    0 -0.00000000000E+00 -0.00000000000E+00 -0.45593999997E+02  0.45594000000E+02  0.51100000000E-03 0. -1.
    9900012    2    1    2    0    0 -0.10387301238E+02 -0.32102671445E+02 -0.27297356121E+02  0.47787271986E+02  0.20000004294E+02 0.  0.
        -12    1    1    2    0    0  0.10387301238E+02  0.32102671445E+02  0.27297356121E+02  0.43400728014E+02  0.00000000000E+00 0.  1.
         11    1    3    3    0    0  0.42956868108E+01 -0.13774004328E+02 -0.64928461923E+01  0.15821920628E+02  0.51100000000E-03 0. -1.
        -11    1    3    3    0    0 -0.13544410870E+02 -0.15331869246E+02 -0.20106804447E+02  0.28684505673E+02  0.51100000000E-03 0.  1.
         12    1    3    3    0    0 -0.11385771785E+01 -0.29967978709E+01 -0.69770548179E+00  0.32808456851E+01  0.00000000000E+00 0. -1.
</event>
<event>
 7    1  0.2685294E-009  0.4778727E+02  0.7816164E-02  0.1312668E+00
        -11   -1    0    0    0    0  0.00000000000E+00  0.00000000000E+00  0.45593999997E+02  0.45594000000E+02  0.51100000000E-03 0. -1.
         11   -1    0    0    0    0 -0.00000000000E+00 -0.00000000000E+00 -0.45593999997E+02  0.45594000000E+02  0.51100000000E-03 0.  1.
    9900012    2    1    2    0    0  0.12841391585E+02  0.97265107360E+00  0.41446061414E+02  0.47787269653E+02  0.19999993654E+02 0.  0.
        -12    1    1    2    0    0 -0.12841391585E+02 -0.97265107360E+00 -0.41446061414E+02  0.43400730347E+02  0.00000000000E+00 0.  1.
         11    1    3    3    0    0  0.76847472374E+01 -0.35688870628E-01  0.33424971917E+01  0.83802685837E+01  0.51100000000E-03 0. -1.
        -11    1    3    3    0    0  0.30550133790E+01 -0.33036774921E+01  0.26018461771E+02  0.26404691722E+02  0.51100000000E-03 0.  1.
        -12    1    3    3    0    0  0.21016309682E+01  0.43120174364E+01  0.12085102451E+02  0.13002309347E+02  0.00000000000E+00 0.  1.
</event>
<event>
 7    1  0.2685294E-009  0.4778729E+02  0.7816164E-02  0.1312668E+00
        -11   -1    0    0    0    0  0.00000000000E+00  0.00000000000E+00  0.45593999997E+02  0.45594000000E+02  0.51100000000E-03 0.  1.
         11   -1    0    0    0    0 -0.00000000000E+00 -0.00000000000E+00 -0.45593999997E+02  0.45594000000E+02  0.51100000000E-03 0. -1.
    9900012    2    1    2    0    0 -0.37366287096E+02 -0.91668551986E+01 -0.20083592679E+02  0.47787293318E+02  0.20000101555E+02 0.  0.
        -12    1    1    2    0    0  0.37366287096E+02  0.91668551986E+01  0.20083592679E+02  0.43400706682E+02  0.00000000000E+00 0.  1.
         11    1    3    3    0    0 -0.13818006379E+02 -0.73037629859E+00 -0.16694947400E+02  0.21683911519E+02  0.51100000000E-03 0. -1.
        -11    1    3    3    0    0 -0.23886543384E+02 -0.85812722794E+01 -0.36633391307E+01  0.25644204854E+02  0.51100000000E-03 0.  1.
         12    1    3    3    0    0  0.33826266668E+00  0.14479337943E+00  0.27469385168E+00  0.45917694471E+00  0.00000000000E+00 0. -1.
</event>
<event>
 7    1  0.2685294E-009  0.4778728E+02  0.7816164E-02  0.1312668E+00
        -11   -1    0    0    0    0  0.00000000000E+00  0.00000000000E+00  0.45593999997E+02  0.45594000000E+02  0.51100000000E-03 0. -1.
         11   -1    0    0    0    0 -0.00000000000E+00 -0.00000000000E+00 -0.45593999997E+02  0.45594000000E+02  0.51100000000E-03 0.  1.
    9900012    2    1    2    0    0  0.35321657121E+02 -0.17724175422E+02  0.17940370382E+02  0.47787277130E+02  0.20000027746E+02 0.  0.
        -12    1    1    2    0    0 -0.35321657121E+02  0.17724175422E+02 -0.17940370382E+02  0.43400722870E+02  0.00000000000E+00 0.  1.
         11    1    3    3    0    0  0.44485428558E+01 -0.35152796531E+01  0.26229650913E+01  0.62471329993E+01  0.51100000000E-03 0. -1.
        -11    1    3    3    0    0  0.89316136013E+01 -0.83917685994E+01  0.14278614440E+02  0.18816862978E+02  0.51100000000E-03 0.  1.
        -12    1    3    3    0    0  0.21941500664E+02 -0.58171271695E+01  0.10387908512E+01  0.22723281153E+02  0.00000000000E+00 0.  1.
</event>
<event>
 7    1  0.2685294E-009  0.4778727E+02  0.7816164E-02  0.1312668E+00
        -11   -1    0    0    0    0  0.00000000000E+00  0.00000000000E+00  0.45593999997E+02  0.45594000000E+02  0.51100000000E-03 0.  1.
         11   -1    0    0    0    0 -0.00000000000E+00 -0.00000000000E+00 -0.45593999997E+02  0.45594000000E+02  0.51100000000E-03 0. -1.
    9900012    2    1    2    0    0  0.30523056868E+02 -0.23479058416E+02 -0.20017501079E+02  0.47787268047E+02  0.19999986332E+02 0.  0.
        -12    1    1    2    0    0 -0.30523056868E+02  0.23479058416E+02  0.20017501079E+02  0.43400731953E+02  0.00000000000E+00 0.  1.
         11    1    3    3    0    0  0.25050494604E+02 -0.21490474720E+02 -0.11122475123E+02  0.34829258343E+02  0.51100000000E-03 0. -1.
        -11    1    3    3    0    0 -0.84315742382E-01  0.23627799358E+01 -0.22973683193E+01  0.32966254906E+01  0.51100000000E-03 0.  1.
        -12    1    3    3    0    0  0.55568780058E+01 -0.43513636313E+01 -0.65976576361E+01  0.96613842127E+01  0.00000000000E+00 0.  1.
</event>
<event>
 7    1  0.2685294E-009  0.4778727E+02  0.7816164E-02  0.1312668E+00
        -11   -1    0    0    0    0  0.00000000000E+00  0.00000000000E+00  0.45593999997E+02  0.45594000000E+02  0.51100000000E-03 0.  1.
         11   -1    0    0    0    0 -0.00000000000E+00 -0.00000000000E+00 -0.45593999997E+02  0.45594000000E+02  0.51100000000E-03 0. -1.
    9900012    2    1    2    0    0 -0.51560777106E+01  0.22941264507E+02 -0.36479262897E+02  0.47787269868E+02  0.19999994635E+02 0.  0.
        -12    1    1    2    0    0  0.51560777106E+01 -0.22941264507E+02  0.36479262897E+02  0.43400730132E+02  0.00000000000E+00 0.  1.
         11    1    3    3    0    0  0.67735619545E+01  0.83127885896E+01 -0.10088351228E+02  0.14722718039E+02  0.51100000000E-03 0.  1.
        -11    1    3    3    0    0  0.18555356014E+00 -0.47270058779E+00 -0.11216664805E+01  0.12312643599E+01  0.51100000000E-03 0. -1.
         12    1    3    3    0    0 -0.12115193225E+02  0.15101176505E+02 -0.25269245188E+02  0.31833287469E+02  0.00000000000E+00 0. -1.
</event>
<event>
 7    1  0.2685294E-009  0.4778727E+02  0.7816164E-02  0.1312668E+00
        -11   -1    0    0    0    0  0.00000000000E+00  0.00000000000E+00  0.45593999997E+02  0.45594000000E+02  0.51100000000E-03 0.  1.
         11   -1    0    0    0    0 -0.00000000000E+00 -0.00000000000E+00 -0.45593999997E+02  0.45594000000E+02  0.51100000000E-03 0. -1.
    9900012    2    1    2    0    0 -0.23236502070E+02 -0.20901615149E+02 -0.30113305179E+02  0.47787266215E+02  0.19999977982E+02 0.  0.
        -12    1    1    2    0    0  0.23236502070E+02  0.20901615149E+02  0.30113305179E+02  0.43400733785E+02  0.00000000000E+00 0.  1.
         11    1    3    3    0    0 -0.71229636977E+01 -0.53467046181E+00  0.98121881117E+00  0.72100814806E+01  0.51100000000E-03 0. -1.
        -11    1    3    3    0    0 -0.95752307188E+01 -0.10309637934E+02 -0.16439917246E+02  0.21638959239E+02  0.51100000000E-03 0.  1.
         12    1    3    3    0    0 -0.65383076531E+01 -0.10057306752E+02 -0.14654606744E+02  0.18938225495E+02  0.00000000000E+00 0. -1.
</event>
<event>
 7    1  0.2685294E-009  0.4778727E+02  0.7816164E-02  0.1312668E+00
        -11   -1    0    0    0    0  0.00000000000E+00  0.00000000000E+00  0.45593999997E+02  0.45594000000E+02  0.51100000000E-03 0.  1.
         11   -1    0    0    0    0 -0.00000000000E+00 -0.00000000000E+00 -0.45593999997E+02  0.45594000000E+02  0.51100000000E-03 0. -1.
    9900012    2    1    2    0    0 -0.30109631942E+02 -0.53438991229E+01 -0.30797340457E+02  0.47787269906E+02  0.19999994808E+02 0.  0.
        -12    1    1    2    0    0  0.30109631942E+02  0.53438991229E+01  0.30797340457E+02  0.43400730094E+02  0.00000000000E+00 0.  1.
         11    1    3    3    0    0 -0.14602814909E+02 -0.66591376747E+01 -0.68931341394E+01  0.17467158222E+02  0.51100000000E-03 0. -1.
        -11    1    3    3    0    0 -0.27754512304E+01 -0.13127700242E+00 -0.13590500562E+02  0.13871628201E+02  0.51100000000E-03 0.  1.
         12    1    3    3    0    0 -0.12731365802E+02  0.14465155543E+01 -0.10313705756E+02  0.16448483482E+02  0.00000000000E+00 0. -1.
</event>
<event>
 7    1  0.2685294E-009  0.4778727E+02  0.7816164E-02  0.1312668E+00
        -11   -1    0    0    0    0  0.00000000000E+00  0.00000000000E+00  0.45593999997E+02  0.45594000000E+02  0.51100000000E-03 0.  1.
         11   -1    0    0    0    0 -0.00000000000E+00 -0.00000000000E+00 -0.45593999997E+02  0.45594000000E+02  0.51100000000E-03 0. -1.
    9900012    2    1    2    0    0 -0.81848944430E+01 -0.59645631334E+01 -0.42202550641E+02  0.47787265086E+02  0.19999972834E+02 0.  0.
        -12    1    1    2    0    0  0.81848944430E+01  0.59645631334E+01  0.42202550641E+02  0.43400734914E+02  0.00000000000E+00 0.  1.
         11    1    3    3    0    0 -0.13934814713E+01  0.31358744613E+01 -0.41851083197E+01  0.54120819614E+01  0.51100000000E-03 0. -1.
        -11    1    3    3    0    0 -0.75813036058E+01  0.12122718665E+01 -0.22070706766E+02  0.23367966639E+02  0.51100000000E-03 0.  1.
        -12    1    3    3    0    0  0.78989063417E+00 -0.10312709461E+02 -0.15946735556E+02  0.19007216486E+02  0.00000000000E+00 0.  1.
</event>
<event>
 7    1  0.2685294E-009  0.4778727E+02  0.7816164E-02  0.1312668E+00
        -11   -1    0    0    0    0  0.00000000000E+00  0.00000000000E+00  0.45593999997E+02  0.45594000000E+02  0.51100000000E-03 0. -1.
         11   -1    0    0    0    0 -0.00000000000E+00 -0.00000000000E+00 -0.45593999997E+02  0.45594000000E+02  0.51100000000E-03 0.  1.
    9900012    2    1    2    0    0  0.32938273683E+02 -0.12105397701E+02  0.25537279282E+02  0.47787272359E+02  0.20000005992E+02 0.  0.
        -12    1    1    2    0    0 -0.32938273683E+02  0.12105397701E+02 -0.25537279282E+02  0.43400727641E+02  0.00000000000E+00 0.  1.
         11    1    3    3    0    0  0.94876733238E+00  0.30342790804E+01 -0.27405390317E+00  0.31909426181E+01  0.51100000000E-03 0. -1.
        -11    1    3    3    0    0  0.45477097993E+01 -0.53079004650E+01  0.31138947318E+01  0.76519156051E+01  0.51100000000E-03 0.  1.
         12    1    3    3    0    0  0.27441796551E+02 -0.98317763163E+01  0.22697438453E+02  0.36944414135E+02  0.00000000000E+00 0. -1.
</event>
<event>
 7    1  0.2685294E-009  0.4778727E+02  0.7816164E-02  0.1312668E+00
        -11   -1    0    0    0    0  0.00000000000E+00  0.00000000000E+00  0.45593999997E+02  0.45594000000E+02  0.51100000000E-03 0.  1.
         11   -1    0    0    0    0 -0.00000000000E+00 -0.00000000000E+00 -0.45593999997E+02  0.45594000000E+02  0.51100000000E-03 0. -1.
    9900012    2    1    2    0    0  0.32649516284E+02 -0.86781948421E+00 -0.28581106933E+02  0.47787266162E+02  0.19999977737E+02 0.  0.
        -12    1    1    2    0    0 -0.32649516284E+02  0.86781948421E+00  0.28581106933E+02  0.43400733838E+02  0.00000000000E+00 0.  1.
         11    1    3    3    0    0  0.45968337074E+01 -0.59299525371E+01 -0.43460113559E+01  0.86708149670E+01  0.51100000000E-03 0. -1.
        -11    1    3    3    0    0  0.12356710860E+02  0.38920469245E+01 -0.18021474956E+02  0.22194816791E+02  0.51100000000E-03 0.  1.
         12    1    3    3    0    0  0.15695971716E+02  0.11700861284E+01 -0.62136206212E+01  0.16921634404E+02  0.00000000000E+00 0. -1.
</event>
<event>
 7    1  0.2685294E-009  0.4778725E+02  0.7816164E-02  0.1312668E+00
        -11   -1    0    0    0    0  0.00000000000E+00  0.00000000000E+00  0.45593999997E+02  0.45594000000E+02  0.51100000000E-03 0.  1.
         11   -1    0    0    0    0 -0.00000000000E+00 -0.00000000000E+00 -0.45593999997E+02  0.45594000000E+02  0.51100000000E-03 0. -1.
    9900012    2    1    2    0    0 -0.21756948734E+02 -0.22184878989E+02 -0.30300016466E+02  0.47787254939E+02  0.19999926570E+02 0.  0.
        -12    1    1    2    0    0  0.21756948734E+02  0.22184878989E+02  0.30300016466E+02  0.43400745061E+02  0.00000000000E+00 0.  1.
         11    1    3    3    0    0 -0.71385451570E+01 -0.17675904350E+02 -0.15956514950E+02  0.24859742379E+02  0.51100000000E-03 0. -1.
        -11    1    3    3    0    0 -0.76877585941E+00  0.84919177557E+00  0.10390702958E+01  0.15465478766E+01  0.51100000000E-03 0.  1.
         12    1    3    3    0    0 -0.13849627718E+02 -0.53581664147E+01 -0.15382571812E+02  0.21380964683E+02  0.00000000000E+00 0. -1.
</event>
<event>
 7    1  0.2685294E-009  0.4778727E+02  0.7816164E-02  0.1312668E+00
        -11   -1    0    0    0    0  0.00000000000E+00  0.00000000000E+00  0.45593999997E+02  0.45594000000E+02  0.51100000000E-03 0.  1.
         11   -1    0    0    0    0 -0.00000000000E+00 -0.00000000000E+00 -0.45593999997E+02  0.45594000000E+02  0.51100000000E-03 0. -1.
    9900012    2    1    2    0    0  0.18216533944E+02  0.22650805027E+02 -0.32229213639E+02  0.47787270869E+02  0.19999999200E+02 0.  0.
        -12    1    1    2    0    0 -0.18216533944E+02 -0.22650805027E+02  0.32229213639E+02  0.43400729131E+02  0.00000000000E+00 0.  1.
         11    1    3    3    0    0  0.65734053865E+01  0.11220136085E+02 -0.17147634718E+02  0.21520745545E+02  0.51100000000E-03 0. -1.
        -11    1    3    3    0    0  0.58043731444E+01  0.59022586679E+01  0.94902510026E+00  0.83323498417E+01  0.51100000000E-03 0.  1.
        -12    1    3    3    0    0  0.58387554135E+01  0.55284102745E+01 -0.16030604021E+02  0.17934175482E+02  0.00000000000E+00 0.  1.
</event>
<event>
 7    1  0.3121397E-009  0.4778727E+02  0.7816164E-02  0.1312668E+00
        -11   -1    0    0    0    0  0.00000000000E+00  0.00000000000E+00  0.45593999997E+02  0.45594000000E+02  0.51100000000E-03 0. -1.
         11   -1    0    0    0    0 -0.00000000000E+00 -0.00000000000E+00 -0.45593999997E+02  0.45594000000E+02  0.51100000000E-03 0.  1.
    9900012    2    1    2    0    0  0.15303902667E+02 -0.25412753438E+02  0.31679739618E+02  0.47787269863E+02  0.19999994613E+02 0.  0.
        -12    1    1    2    0    0 -0.15303902667E+02  0.25412753438E+02 -0.31679739618E+02  0.43400730137E+02  0.00000000000E+00 0.  1.
         11    1    3    3    0    0  0.14469777721E+02 -0.13029999310E+02  0.24599241343E+02  0.31373205514E+02  0.51100000000E-03 0. -1.
        -11    1    3    3    0    0 -0.24231986207E+01 -0.91032472766E+01  0.70926147840E+01  0.11791784736E+02  0.51100000000E-03 0.  1.
        -12    1    3    3    0    0  0.32573235666E+01 -0.32795068511E+01 -0.12116508721E-01  0.46222796123E+01  0.00000000000E+00 0.  1.
</event>
<event>
 7    1  0.2685294E-009  0.4778726E+02  0.7816164E-02  0.1312668E+00
        -11   -1    0    0    0    0  0.00000000000E+00  0.00000000000E+00  0.45593999997E+02  0.45594000000E+02  0.51100000000E-03 0. -1.
         11   -1    0    0    0    0 -0.00000000000E+00 -0.00000000000E+00 -0.45593999997E+02  0.45594000000E+02  0.51100000000E-03 0.  1.
    9900012    2    1    2    0    0 -0.12699901908E+02  0.31564109237E+02  0.26945191171E+02  0.47787264665E+02  0.19999970913E+02 0.  0.
        -12    1    1    2    0    0  0.12699901908E+02 -0.31564109237E+02 -0.26945191171E+02  0.43400735335E+02  0.00000000000E+00 0.  1.
         11    1    3    3    0    0 -0.11713536942E+02  0.10695456147E+02  0.88327944809E+01  0.18155384559E+02  0.51100000000E-03 0.  1.
        -11    1    3    3    0    0 -0.32748589137E+01  0.19573666148E+02  0.18300624788E+02  0.26995665861E+02  0.51100000000E-03 0. -1.
         12    1    3    3    0    0  0.22884939479E+01  0.12949869418E+01 -0.18822809747E+00  0.26362142451E+01  0.00000000000E+00 0. -1.
</event>
<event>
 7    1  0.2685294E-009  0.4778727E+02  0.7816164E-02  0.1312668E+00
        -11   -1    0    0    0    0  0.00000000000E+00  0.00000000000E+00  0.45593999997E+02  0.45594000000E+02  0.51100000000E-03 0.  1.
         11   -1    0    0    0    0 -0.00000000000E+00 -0.00000000000E+00 -0.45593999997E+02  0.45594000000E+02  0.51100000000E-03 0. -1.
    9900012    2    1    2    0    0 -0.26342552479E+02 -0.31122860013E+02 -0.14868102359E+02  0.47787274727E+02  0.20000016789E+02 0.  0.
        -12    1    1    2    0    0  0.26342552479E+02  0.31122860013E+02  0.14868102359E+02  0.43400725273E+02  0.00000000000E+00 0.  1.
         11    1    3    3    0    0 -0.16918302643E+02 -0.10955104700E+02 -0.24372579283E+01  0.20302303066E+02  0.51100000000E-03 0. -1.
        -11    1    3    3    0    0 -0.36756005481E+01 -0.21294267950E+01 -0.62740558070E+01  0.75768248228E+01  0.51100000000E-03 0.  1.
         12    1    3    3    0    0 -0.57486492877E+01 -0.18038328518E+02 -0.61567886233E+01  0.19908146838E+02  0.00000000000E+00 0. -1.
</event>
<event>
 7    1  0.2685294E-009  0.4778727E+02  0.7816164E-02  0.1312668E+00
        -11   -1    0    0    0    0  0.00000000000E+00  0.00000000000E+00  0.45593999997E+02  0.45594000000E+02  0.51100000000E-03 0. -1.
         11   -1    0    0    0    0 -0.00000000000E+00 -0.00000000000E+00 -0.45593999997E+02  0.45594000000E+02  0.51100000000E-03 0.  1.
    9900012    2    1    2    0    0  0.39401453422E+02 -0.17654460361E+02 -0.44123305755E+01  0.47787272316E+02  0.20000005796E+02 0.  0.
        -12    1    1    2    0    0 -0.39401453422E+02  0.17654460361E+02  0.44123305755E+01  0.43400727684E+02  0.00000000000E+00 0.  1.
         11    1    3    3    0    0  0.21235344890E+02  0.10085816348E+00  0.18121246657E+01  0.21312762398E+02  0.51100000000E-03 0. -1.
        -11    1    3    3    0    0  0.15198988903E+02 -0.12700128405E+02 -0.40096989473E+01  0.20208419312E+02  0.51100000000E-03 0.  1.
         12    1    3    3    0    0  0.29671196296E+01 -0.50551901194E+01 -0.22147562939E+01  0.62660906058E+01  0.00000000000E+00 0. -1.
</event>
<event>
 7    1  0.2685294E-009  0.4778727E+02  0.7816164E-02  0.1312668E+00
        -11   -1    0    0    0    0  0.00000000000E+00  0.00000000000E+00  0.45593999997E+02  0.45594000000E+02  0.51100000000E-03 0.  1.
         11   -1    0    0    0    0 -0.00000000000E+00 -0.00000000000E+00 -0.45593999997E+02  0.45594000000E+02  0.51100000000E-03 0. -1.
    9900012    2    1    2    0    0 -0.31539235425E+02  0.21459784192E+02 -0.20697281938E+02  0.47787272029E+02  0.20000004489E+02 0.  0.
        -12    1    1    2    0    0  0.31539235425E+02 -0.21459784192E+02  0.20697281938E+02  0.43400727971E+02  0.00000000000E+00 0.  1.
         11    1    3    3    0    0 -0.27763794179E+02  0.13767652248E+02 -0.15073943327E+02  0.34461576913E+02  0.51100000000E-03 0. -1.
        -11    1    3    3    0    0  0.23026273723E-01  0.73042725729E+01 -0.60489702573E+01  0.94838267310E+01  0.51100000000E-03 0.  1.
         12    1    3    3    0    0 -0.37984675199E+01  0.38785937202E+00  0.42563164613E+00  0.38418683854E+01  0.00000000000E+00 0. -1.
</event>
<event>
 7    1  0.2685294E-009  0.4778727E+02  0.7816164E-02  0.1312668E+00
        -11   -1    0    0    0    0  0.00000000000E+00  0.00000000000E+00  0.45593999997E+02  0.45594000000E+02  0.51100000000E-03 0.  1.
         11   -1    0    0    0    0 -0.00000000000E+00 -0.00000000000E+00 -0.45593999997E+02  0.45594000000E+02  0.51100000000E-03 0. -1.
    9900012    2    1    2    0    0  0.34914421553E+02 -0.27333436942E+01 -0.25634650396E+02  0.47787270731E+02  0.19999998570E+02 0.  0.
        -12    1    1    2    0    0 -0.34914421553E+02  0.27333436942E+01  0.25634650396E+02  0.43400729269E+02  0.00000000000E+00 0.  1.
         11    1    3    3    0    0  0.15742741357E+02  0.29643646221E+01 -0.33612594143E+01  0.16368244505E+02  0.51100000000E-03 0. -1.
        -11    1    3    3    0    0  0.93114428196E-01  0.11059766369E+01  0.23921917590E+00  0.11353768948E+01  0.51100000000E-03 0.  1.
         12    1    3    3    0    0  0.19078565768E+02 -0.68036849532E+01 -0.22512610158E+02  0.30283649331E+02  0.00000000000E+00 0. -1.
</event>
<event>
 7    1  0.2685294E-009  0.4778727E+02  0.7816164E-02  0.1312668E+00
        -11   -1    0    0    0    0  0.00000000000E+00  0.00000000000E+00  0.45593999997E+02  0.45594000000E+02  0.51100000000E-03 0.  1.
         11   -1    0    0    0    0 -0.00000000000E+00 -0.00000000000E+00 -0.45593999997E+02  0.45594000000E+02  0.51100000000E-03 0. -1.
    9900012    2    1    2    0    0 -0.28214490589E+02  0.12286736201E+02 -0.30603950709E+02  0.47787272303E+02  0.20000005738E+02 0.  0.
        -12    1    1    2    0    0  0.28214490589E+02 -0.12286736201E+02  0.30603950709E+02  0.43400727697E+02  0.00000000000E+00 0.  1.
         11    1    3    3    0    0 -0.18148034148E+02  0.41103552210E+01 -0.17000822847E+02  0.25204645231E+02  0.51100000000E-03 0. -1.
        -11    1    3    3    0    0  0.77692293249E+00 -0.25346862083E+01 -0.30662863774E+01  0.40534375321E+01  0.51100000000E-03 0.  1.
        -12    1    3    3    0    0 -0.10843379373E+02  0.10711067188E+02 -0.10536841485E+02  0.18529189540E+02  0.00000000000E+00 0.  1.
</event>
<event>
 7    1  0.2685294E-009  0.4778727E+02  0.7816164E-02  0.1312668E+00
        -11   -1    0    0    0    0  0.00000000000E+00  0.00000000000E+00  0.45593999997E+02  0.45594000000E+02  0.51100000000E-03 0.  1.
         11   -1    0    0    0    0 -0.00000000000E+00 -0.00000000000E+00 -0.45593999997E+02  0.45594000000E+02  0.51100000000E-03 0. -1.
    9900012    2    1    2    0    0  0.33408523887E+02  0.11236958766E+02  0.25322419782E+02  0.47787266663E+02  0.19999980023E+02 0.  0.
        -12    1    1    2    0    0 -0.33408523887E+02 -0.11236958766E+02 -0.25322419782E+02  0.43400733337E+02  0.00000000000E+00 0.  1.
         11    1    3    3    0    0  0.12149714426E+02 -0.84215907577E+00  0.15211994120E+02  0.19486650762E+02  0.51100000000E-03 0. -1.
        -11    1    3    3    0    0  0.16211462012E+01 -0.16167029029E+01  0.19464663505E+01  0.30050914789E+01  0.51100000000E-03 0.  1.
         12    1    3    3    0    0  0.19637663259E+02  0.13695820744E+02  0.81639593112E+01  0.25295524422E+02  0.00000000000E+00 0. -1.
</event>
<event>
 7    1  0.2685294E-009  0.4778727E+02  0.7816164E-02  0.1312668E+00
        -11   -1    0    0    0    0  0.00000000000E+00  0.00000000000E+00  0.45593999997E+02  0.45594000000E+02  0.51100000000E-03 0.  1.
         11   -1    0    0    0    0 -0.00000000000E+00 -0.00000000000E+00 -0.45593999997E+02  0.45594000000E+02  0.51100000000E-03 0. -1.
    9900012    2    1    2    0    0  0.37135165746E+02  0.22074860370E+02  0.41597344176E+01  0.47787269756E+02  0.19999994124E+02 0.  0.
        -12    1    1    2    0    0 -0.37135165746E+02 -0.22074860370E+02 -0.41597344176E+01  0.43400730244E+02  0.00000000000E+00 0.  1.
         11    1    3    3    0    0  0.52768533738E+01  0.25330527023E+01 -0.59533400145E+01  0.83488798716E+01  0.51100000000E-03 0. -1.
        -11    1    3    3    0    0  0.11360761648E+02  0.93740518765E+01  0.71300925889E+01  0.16363922952E+02  0.51100000000E-03 0.  1.
         12    1    3    3    0    0  0.20497550724E+02  0.10167755791E+02  0.29829818432E+01  0.23074466932E+02  0.00000000000E+00 0. -1.
</event>
<event>
 7    1  0.2685294E-009  0.4778727E+02  0.7816164E-02  0.1312668E+00
        -11   -1    0    0    0    0  0.00000000000E+00  0.00000000000E+00  0.45593999997E+02  0.45594000000E+02  0.51100000000E-03 0.  1.
         11   -1    0    0    0    0 -0.00000000000E+00 -0.00000000000E+00 -0.45593999997E+02  0.45594000000E+02  0.51100000000E-03 0. -1.
    9900012    2    1    2    0    0  0.38543367695E+02  0.44314808961E+01 -0.19452362306E+02  0.47787267109E+02  0.19999982056E+02 0.  0.
        -12    1    1    2    0    0 -0.38543367695E+02 -0.44314808961E+01  0.19452362306E+02  0.43400732891E+02  0.00000000000E+00 0.  1.
         11    1    3    3    0    0  0.32651518880E+02 -0.28243709992E+01 -0.11275838987E+02  0.34658957022E+02  0.51100000000E-03 0. -1.
        -11    1    3    3    0    0 -0.27033005644E+00  0.24279391070E+01 -0.19460026541E+01  0.31232824460E+01  0.51100000000E-03 0.  1.
         12    1    3    3    0    0  0.61621788711E+01  0.48279127883E+01 -0.62305206652E+01  0.10005027641E+02  0.00000000000E+00 0. -1.
</event>
<event>
 7    1  0.2685294E-009  0.4778727E+02  0.7816164E-02  0.1312668E+00
        -11   -1    0    0    0    0  0.00000000000E+00  0.00000000000E+00  0.45593999997E+02  0.45594000000E+02  0.51100000000E-03 0.  1.
         11   -1    0    0    0    0 -0.00000000000E+00 -0.00000000000E+00 -0.45593999997E+02  0.45594000000E+02  0.51100000000E-03 0. -1.
    9900012    2    1    2    0    0 -0.37096113037E+02  0.92354143344E+01 -0.20547724489E+02  0.47787268876E+02  0.19999990114E+02 0.  0.
        -12    1    1    2    0    0  0.37096113037E+02 -0.92354143344E+01  0.20547724489E+02  0.43400731124E+02  0.00000000000E+00 0.  1.
         11    1    3    3    0    0 -0.10309098089E+02  0.15074540963E+01  0.22416166505E+00  0.10421140531E+02  0.51100000000E-03 0. -1.
        -11    1    3    3    0    0 -0.14959549620E+02 -0.65188929913E-01 -0.17127282668E+02  0.22740628537E+02  0.51100000000E-03 0.  1.
        -12    1    3    3    0    0 -0.11827465329E+02  0.77931491680E+01 -0.36446034867E+01  0.14625499808E+02  0.00000000000E+00 0.  1.
</event>
<event>
 7    1  0.2685294E-009  0.4778728E+02  0.7816164E-02  0.1312668E+00
        -11   -1    0    0    0    0  0.00000000000E+00  0.00000000000E+00  0.45593999997E+02  0.45594000000E+02  0.51100000000E-03 0. -1.
         11   -1    0    0    0    0 -0.00000000000E+00 -0.00000000000E+00 -0.45593999997E+02  0.45594000000E+02  0.51100000000E-03 0.  1.
    9900012    2    1    2    0    0  0.36499691932E+02 -0.21487648030E+01  0.23383286065E+02  0.47787276866E+02  0.20000026545E+02 0.  0.
        -12    1    1    2    0    0 -0.36499691932E+02  0.21487648030E+01 -0.23383286065E+02  0.43400723134E+02  0.00000000000E+00 0.  1.
         11    1    3    3    0    0  0.12083622669E+02  0.51390332242E+01  0.25495117303E+01  0.13376233012E+02  0.51100000000E-03 0. -1.
        -11    1    3    3    0    0  0.44671429719E+01 -0.33986228522E+01  0.97770147690E+01  0.11273687138E+02  0.51100000000E-03 0.  1.
         12    1    3    3    0    0  0.19948926292E+02 -0.38891751750E+01  0.11056759565E+02  0.23137356716E+02  0.00000000000E+00 0. -1.
</event>
<event>
 7    1  0.2685294E-009  0.4778728E+02  0.7816164E-02  0.1312668E+00
        -11   -1    0    0    0    0  0.00000000000E+00  0.00000000000E+00  0.45593999997E+02  0.45594000000E+02  0.51100000000E-03 0.  1.
         11   -1    0    0    0    0 -0.00000000000E+00 -0.00000000000E+00 -0.45593999997E+02  0.45594000000E+02  0.51100000000E-03 0. -1.
    9900012    2    1    2    0    0 -0.28739689442E+02  0.31002716153E+02 -0.98226321352E+01  0.47787282723E+02  0.20000053248E+02 0.  0.
        -12    1    1    2    0    0  0.28739689442E+02 -0.31002716153E+02  0.98226321352E+01  0.43400717277E+02  0.00000000000E+00 0.  1.
         11    1    3    3    0    0 -0.27696503245E+02  0.24696904620E+02 -0.76264029428E+01  0.37883973022E+02  0.51100000000E-03 0. -1.
        -11    1    3    3    0    0 -0.28466784413E+01  0.66784362035E+01 -0.30893659039E+00  0.72663973433E+01  0.51100000000E-03 0.  1.
         12    1    3    3    0    0  0.18034922437E+01 -0.37262467088E+00 -0.18872926021E+01  0.26369123581E+01  0.00000000000E+00 0. -1.
</event>
<event>
 7    1  0.2685294E-009  0.4778728E+02  0.7816164E-02  0.1312668E+00
        -11   -1    0    0    0    0  0.00000000000E+00  0.00000000000E+00  0.45593999997E+02  0.45594000000E+02  0.51100000000E-03 0.  1.
         11   -1    0    0    0    0 -0.00000000000E+00 -0.00000000000E+00 -0.45593999997E+02  0.45594000000E+02  0.51100000000E-03 0. -1.
    9900012    2    1    2    0    0  0.75381111729E+01 -0.36791944380E+02 -0.21752066294E+02  0.47787277894E+02  0.20000031230E+02 0.  0.
        -12    1    1    2    0    0 -0.75381111729E+01  0.36791944380E+02  0.21752066294E+02  0.43400722106E+02  0.00000000000E+00 0.  1.
         11    1    3    3    0    0  0.37370189622E+01 -0.14222522313E+02 -0.12735715914E+00  0.14705838017E+02  0.51100000000E-03 0. -1.
        -11    1    3    3    0    0 -0.21511215338E+01 -0.47222729102E+01 -0.12269167604E+01  0.53322143889E+01  0.51100000000E-03 0.  1.
         12    1    3    3    0    0  0.59522137445E+01 -0.17847149156E+02 -0.20397792374E+02  0.27749225488E+02  0.00000000000E+00 0. -1.
</event>
<event>
 7    1  0.2685294E-009  0.4778729E+02  0.7816164E-02  0.1312668E+00
        -11   -1    0    0    0    0  0.00000000000E+00  0.00000000000E+00  0.45593999997E+02  0.45594000000E+02  0.51100000000E-03 0. -1.
         11   -1    0    0    0    0 -0.00000000000E+00 -0.00000000000E+00 -0.45593999997E+02  0.45594000000E+02  0.51100000000E-03 0.  1.
    9900012    2    1    2    0    0  0.40029772488E+02  0.69631446302E+01  0.15256263161E+02  0.47787289934E+02  0.20000086126E+02 0.  0.
        -12    1    1    2    0    0 -0.40029772488E+02 -0.69631446302E+01 -0.15256263161E+02  0.43400710066E+02  0.00000000000E+00 0.  1.
         11    1    3    3    0    0  0.34874205960E+01 -0.75673281730E-01 -0.35765895565E+01  0.49959805820E+01  0.51100000000E-03 0. -1.
        -11    1    3    3    0    0  0.31722344377E+00  0.14667779110E+01 -0.16377803316E+00  0.15095998340E+01  0.51100000000E-03 0.  1.
         12    1    3    3    0    0  0.36225128448E+02  0.55720400009E+01  0.18996630751E+02  0.41281709518E+02  0.00000000000E+00 0. -1.
</event>
<event>
 7    1  0.2685294E-009  0.4778727E+02  0.7816164E-02  0.1312668E+00
        -11   -1    0    0    0    0  0.00000000000E+00  0.00000000000E+00  0.45593999997E+02  0.45594000000E+02  0.51100000000E-03 0.  1.
         11   -1    0    0    0    0 -0.00000000000E+00 -0.00000000000E+00 -0.45593999997E+02  0.45594000000E+02  0.51100000000E-03 0. -1.
    9900012    2    1    2    0    0 -0.80402793520E+01  0.41710500470E+02 -0.89000590753E+01  0.47787274280E+02  0.20000014753E+02 0.  0.
        -12    1    1    2    0    0  0.80402793520E+01 -0.41710500470E+02  0.89000590753E+01  0.43400725720E+02  0.00000000000E+00 0.  1.
         11    1    3    3    0    0 -0.33969291297E+01  0.18718634914E+02 -0.48010621790E+01  0.19620821055E+02  0.51100000000E-03 0. -1.
        -11    1    3    3    0    0  0.18677909556E+01  0.12555870689E+02  0.41508829355E+01  0.13355461849E+02  0.51100000000E-03 0.  1.
        -12    1    3    3    0    0 -0.65111411779E+01  0.10435994867E+02 -0.82498798318E+01  0.14810991376E+02  0.00000000000E+00 0.  1.
</event>
<event>
 7    1  0.2685294E-009  0.4778727E+02  0.7816164E-02  0.1312668E+00
        -11   -1    0    0    0    0  0.00000000000E+00  0.00000000000E+00  0.45593999997E+02  0.45594000000E+02  0.51100000000E-03 0.  1.
         11   -1    0    0    0    0 -0.00000000000E+00 -0.00000000000E+00 -0.45593999997E+02  0.45594000000E+02  0.51100000000E-03 0. -1.
    9900012    2    1    2    0    0  0.71813310455E-01 -0.74608547022E+01 -0.42754578423E+02  0.47787268599E+02  0.19999988849E+02 0.  0.
        -12    1    1    2    0    0 -0.71813310455E-01  0.74608547022E+01  0.42754578423E+02  0.43400731401E+02  0.00000000000E+00 0.  1.
         11    1    3    3    0    0 -0.43277167877E+01 -0.25014206966E+00 -0.78832935122E+01  0.89965560361E+01  0.51100000000E-03 0. -1.
        -11    1    3    3    0    0  0.91399389958E+01 -0.80471183413E+01 -0.25094817569E+02  0.27893448470E+02  0.51100000000E-03 0.  1.
        -12    1    3    3    0    0 -0.47404088977E+01  0.83640570882E+00 -0.97764673419E+01  0.10897264093E+02  0.00000000000E+00 0.  1.
</event>
<event>
 7    1  0.2685294E-009  0.4778728E+02  0.7816164E-02  0.1312668E+00
        -11   -1    0    0    0    0  0.00000000000E+00  0.00000000000E+00  0.45593999997E+02  0.45594000000E+02  0.51100000000E-03 0.  1.
         11   -1    0    0    0    0 -0.00000000000E+00 -0.00000000000E+00 -0.45593999997E+02  0.45594000000E+02  0.51100000000E-03 0. -1.
    9900012    2    1    2    0    0 -0.42842519526E+02 -0.16252286359E+01 -0.67453688229E+01  0.47787275951E+02  0.20000022371E+02 0.  0.
        -12    1    1    2    0    0  0.42842519526E+02  0.16252286359E+01  0.67453688229E+01  0.43400724049E+02  0.00000000000E+00 0.  1.
         11    1    3    3    0    0 -0.34622857162E+02 -0.28597565362E+01 -0.10493760828E+01  0.34756605645E+02  0.51100000000E-03 0. -1.
        -11    1    3    3    0    0 -0.63870337122E+01  0.44259689734E+01 -0.51196987140E+01  0.93056281990E+01  0.51100000000E-03 0.  1.
         12    1    3    3    0    0 -0.18326286510E+01 -0.31914410730E+01 -0.57629402608E+00  0.37250421071E+01  0.00000000000E+00 0. -1.
</event>
<event>
 7    1  0.2685294E-009  0.4778727E+02  0.7816164E-02  0.1312668E+00
        -11   -1    0    0    0    0  0.00000000000E+00  0.00000000000E+00  0.45593999997E+02  0.45594000000E+02  0.51100000000E-03 0.  1.
         11   -1    0    0    0    0 -0.00000000000E+00 -0.00000000000E+00 -0.45593999997E+02  0.45594000000E+02  0.51100000000E-03 0. -1.
    9900012    2    1    2    0    0  0.69506103145E+00 -0.80997085809E+01 -0.42632555945E+02  0.47787271719E+02  0.20000003077E+02 0.  0.
        -12    1    1    2    0    0 -0.69506103145E+00  0.80997085809E+01  0.42632555945E+02  0.43400728281E+02  0.00000000000E+00 0.  1.
         11    1    3    3    0    0  0.19173004073E+01 -0.11136081179E+02 -0.17300061009E+02  0.20663505416E+02  0.51100000000E-03 0. -1.
        -11    1    3    3    0    0 -0.24153849858E+01  0.59748752363E+01 -0.15299648755E+02  0.16601580377E+02  0.51100000000E-03 0.  1.
         12    1    3    3    0    0  0.11931456099E+01 -0.29385026382E+01 -0.10032846180E+02  0.10522185927E+02  0.00000000000E+00 0. -1.
</event>
<event>
 7    1  0.2685294E-009  0.4778727E+02  0.7816164E-02  0.1312668E+00
        -11   -1    0    0    0    0  0.00000000000E+00  0.00000000000E+00  0.45593999997E+02  0.45594000000E+02  0.51100000000E-03 0. -1.
         11   -1    0    0    0    0 -0.00000000000E+00 -0.00000000000E+00 -0.45593999997E+02  0.45594000000E+02  0.51100000000E-03 0.  1.
    9900012    2    1    2    0    0 -0.32425247239E+01  0.36122234418E+02 -0.23838917297E+02  0.47787265400E+02  0.19999974264E+02 0.  0.
        -12    1    1    2    0    0  0.32425247239E+01 -0.36122234418E+02  0.23838917297E+02  0.43400734600E+02  0.00000000000E+00 0.  1.
         11    1    3    3    0    0  0.64983296980E+01  0.17409264797E+02 -0.12078434212E+02  0.22163017911E+02  0.51100000000E-03 0.  1.
        -11    1    3    3    0    0  0.38758359003E+00  0.48738318549E+01 -0.10779400741E+00  0.48904067110E+01  0.51100000000E-03 0. -1.
         12    1    3    3    0    0 -0.10128438012E+02  0.13839137767E+02 -0.11652689077E+02  0.20733840778E+02  0.00000000000E+00 0. -1.
</event>
<event>
 7    1  0.2685294E-009  0.4778727E+02  0.7816164E-02  0.1312668E+00
        -11   -1    0    0    0    0  0.00000000000E+00  0.00000000000E+00  0.45593999997E+02  0.45594000000E+02  0.51100000000E-03 0.  1.
         11   -1    0    0    0    0 -0.00000000000E+00 -0.00000000000E+00 -0.45593999997E+02  0.45594000000E+02  0.51100000000E-03 0. -1.
    9900012    2    1    2    0    0 -0.15359665934E+02 -0.38011711870E+01 -0.40413549415E+02  0.47787271707E+02  0.20000003022E+02 0.  0.
        -12    1    1    2    0    0  0.15359665934E+02  0.38011711870E+01  0.40413549415E+02  0.43400728293E+02  0.00000000000E+00 0.  1.
         11    1    3    3    0    0 -0.11604801548E+02 -0.96780564465E+01 -0.29711906635E+02  0.33333670540E+02  0.51100000000E-03 0. -1.
        -11    1    3    3    0    0 -0.47301403215E+01  0.66472637460E+01 -0.10316232132E+02  0.13152375771E+02  0.51100000000E-03 0.  1.
        -12    1    3    3    0    0  0.97527593525E+00 -0.77037848652E+00 -0.38541064826E+00  0.13012253956E+01  0.00000000000E+00 0.  1.
</event>
<event>
 7    1  0.2685294E-009  0.4778728E+02  0.7816164E-02  0.1312668E+00
        -11   -1    0    0    0    0  0.00000000000E+00  0.00000000000E+00  0.45593999997E+02  0.45594000000E+02  0.51100000000E-03 0.  1.
         11   -1    0    0    0    0 -0.00000000000E+00 -0.00000000000E+00 -0.45593999997E+02  0.45594000000E+02  0.51100000000E-03 0. -1.
    9900012    2    1    2    0    0  0.42631528212E+01  0.26244277756E+02 -0.34302856481E+02  0.47787279388E+02  0.20000038039E+02 0.  0.
        -12    1    1    2    0    0 -0.42631528212E+01 -0.26244277756E+02  0.34302856481E+02  0.43400720612E+02  0.00000000000E+00 0.  1.
         11    1    3    3    0    0  0.76952411788E+01  0.18554504259E+02 -0.25808218273E+02  0.32703982874E+02  0.51100000000E-03 0. -1.
        -11    1    3    3    0    0 -0.36583987901E+01 -0.77173965425E+00 -0.12516261752E+01  0.39428456913E+01  0.51100000000E-03 0.  1.
         12    1    3    3    0    0  0.22631043246E+00  0.84615131517E+01 -0.72430120322E+01  0.11140450822E+02  0.00000000000E+00 0. -1.
</event>
<event>
 7    1  0.2685294E-009  0.4778726E+02  0.7816164E-02  0.1312668E+00
        -11   -1    0    0    0    0  0.00000000000E+00  0.00000000000E+00  0.45593999997E+02  0.45594000000E+02  0.51100000000E-03 0. -1.
         11   -1    0    0    0    0 -0.00000000000E+00 -0.00000000000E+00 -0.45593999997E+02  0.45594000000E+02  0.51100000000E-03 0.  1.
    9900012    2    1    2    0    0 -0.89813789923E+01 -0.39467533865E+02  0.15661177368E+02  0.47787264124E+02  0.19999968448E+02 0.  0.
        -12    1    1    2    0    0  0.89813789923E+01  0.39467533865E+02 -0.15661177368E+02  0.43400735876E+02  0.00000000000E+00 0.  1.
         11    1    3    3    0    0 -0.38599835344E+01 -0.19055376718E+02  0.16527854740E+02  0.25518166809E+02  0.51100000000E-03 0. -1.
        -11    1    3    3    0    0  0.20937792241E+00 -0.11402518919E+02 -0.24963190951E+01  0.11674454424E+02  0.51100000000E-03 0.  1.
         12    1    3    3    0    0 -0.53307733803E+01 -0.90096382285E+01  0.16296417232E+01  0.10594642891E+02  0.00000000000E+00 0. -1.
</event>
<event>
 7    1  0.2685294E-009  0.4778727E+02  0.7816164E-02  0.1312668E+00
        -11   -1    0    0    0    0  0.00000000000E+00  0.00000000000E+00  0.45593999997E+02  0.45594000000E+02  0.51100000000E-03 0.  1.
         11   -1    0    0    0    0 -0.00000000000E+00 -0.00000000000E+00 -0.45593999997E+02  0.45594000000E+02  0.51100000000E-03 0. -1.
    9900012    2    1    2    0    0 -0.25799947479E+02 -0.49947114510E+01 -0.34540394122E+02  0.47787271222E+02  0.20000000810E+02 0.  0.
        -12    1    1    2    0    0  0.25799947479E+02  0.49947114510E+01  0.34540394122E+02  0.43400728778E+02  0.00000000000E+00 0.  1.
         11    1    3    3    0    0 -0.20744508601E+01  0.44151739458E+00 -0.19513454012E+01  0.28820189306E+01  0.51100000000E-03 0. -1.
        -11    1    3    3    0    0 -0.57651280553E+01 -0.99214169064E+01 -0.74327499003E+01  0.13671758711E+02  0.51100000000E-03 0.  1.
        -12    1    3    3    0    0 -0.17960368563E+02  0.44851880608E+01 -0.25156298820E+02  0.31233493580E+02  0.00000000000E+00 0.  1.
</event>
<event>
 7    1  0.2685294E-009  0.4778727E+02  0.7816164E-02  0.1312668E+00
        -11   -1    0    0    0    0  0.00000000000E+00  0.00000000000E+00  0.45593999997E+02  0.45594000000E+02  0.51100000000E-03 0. -1.
         11   -1    0    0    0    0 -0.00000000000E+00 -0.00000000000E+00 -0.45593999997E+02  0.45594000000E+02  0.51100000000E-03 0.  1.
    9900012    2    1    2    0    0 -0.40951201020E+02  0.14358231519E+02 -0.68103927885E+00  0.47787268533E+02  0.19999988551E+02 0.  0.
        -12    1    1    2    0    0  0.40951201020E+02 -0.14358231519E+02  0.68103927885E+00  0.43400731467E+02  0.00000000000E+00 0.  1.
         11    1    3    3    0    0 -0.65410508146E+01 -0.17724007553E+01 -0.39597182485E+00  0.67884861452E+01  0.51100000000E-03 0. -1.
        -11    1    3    3    0    0 -0.97328490564E+01 -0.19813077167E+01  0.25574683977E+01  0.10256440703E+02  0.51100000000E-03 0.  1.
        -12    1    3    3    0    0 -0.24677301149E+02  0.18111939991E+02 -0.28425358517E+01  0.30742341685E+02  0.00000000000E+00 0.  1.
</event>
<event>
 7    1  0.2685294E-009  0.4778727E+02  0.7816164E-02  0.1312668E+00
        -11   -1    0    0    0    0  0.00000000000E+00  0.00000000000E+00  0.45593999997E+02  0.45594000000E+02  0.51100000000E-03 0.  1.
         11   -1    0    0    0    0 -0.00000000000E+00 -0.00000000000E+00 -0.45593999997E+02  0.45594000000E+02  0.51100000000E-03 0. -1.
    9900012    2    1    2    0    0 -0.69737969619E+00  0.99568834284E+01 -0.42237396749E+02  0.47787267861E+02  0.19999985487E+02 0.  0.
        -12    1    1    2    0    0  0.69737969619E+00 -0.99568834284E+01  0.42237396749E+02  0.43400732139E+02  0.00000000000E+00 0.  1.
         11    1    3    3    0    0  0.10334631644E+01 -0.34628732999E+01 -0.17598625616E+02  0.17965833169E+02  0.51100000000E-03 0. -1.
        -11    1    3    3    0    0 -0.56419080784E+00  0.71424100474E+00 -0.11395845456E+02  0.11432136520E+02  0.51100000000E-03 0.  1.
         12    1    3    3    0    0 -0.11666520527E+01  0.12705515724E+02 -0.13242925676E+02  0.18389298173E+02  0.00000000000E+00 0. -1.
</event>
<event>
 7    1  0.2685294E-009  0.4778727E+02  0.7816164E-02  0.1312668E+00
        -11   -1    0    0    0    0  0.00000000000E+00  0.00000000000E+00  0.45593999997E+02  0.45594000000E+02  0.51100000000E-03 0.  1.
         11   -1    0    0    0    0 -0.00000000000E+00 -0.00000000000E+00 -0.45593999997E+02  0.45594000000E+02  0.51100000000E-03 0. -1.
    9900012    2    1    2    0    0  0.12778246309E+02 -0.39087986232E+02  0.13873318409E+02  0.47787271779E+02  0.20000003350E+02 0.  0.
        -12    1    1    2    0    0 -0.12778246309E+02  0.39087986232E+02 -0.13873318409E+02  0.43400728221E+02  0.00000000000E+00 0.  1.
         11    1    3    3    0    0 -0.71906979477E+00 -0.16208205981E+02  0.78217492648E+01  0.18011184423E+02  0.51100000000E-03 0. -1.
        -11    1    3    3    0    0  0.10401254728E+02 -0.67275347767E+01  0.42731558557E+00  0.12394693339E+02  0.51100000000E-03 0.  1.
        -12    1    3    3    0    0  0.30960613759E+01 -0.16152245474E+02  0.56242535586E+01  0.17381394018E+02  0.00000000000E+00 0.  1.
</event>
<event>
 7    1  0.2685294E-009  0.4778727E+02  0.7816164E-02  0.1312668E+00
        -11   -1    0    0    0    0  0.00000000000E+00  0.00000000000E+00  0.45593999997E+02  0.45594000000E+02  0.51100000000E-03 0. -1.
         11   -1    0    0    0    0 -0.00000000000E+00 -0.00000000000E+00 -0.45593999997E+02  0.45594000000E+02  0.51100000000E-03 0.  1.
    9900012    2    1    2    0    0  0.12256337637E+02  0.31685947821E+02  0.27007520755E+02  0.47787270986E+02  0.19999999735E+02 0.  0.
        -12    1    1    2    0    0 -0.12256337637E+02 -0.31685947821E+02 -0.27007520755E+02  0.43400729014E+02  0.00000000000E+00 0.  1.
         11    1    3    3    0    0  0.31039106521E+01  0.88517996282E+01  0.10218007326E+02  0.13870699044E+02  0.51100000000E-03 0. -1.
        -11    1    3    3    0    0  0.75353532172E+01  0.70383506482E+01  0.14620508715E+02  0.17890757483E+02  0.51100000000E-03 0.  1.
        -12    1    3    3    0    0  0.16170737679E+01  0.15795797545E+02  0.21690047139E+01  0.16025814460E+02  0.00000000000E+00 0.  1.
</event>
<event>
 7    1  0.2685294E-009  0.4778727E+02  0.7816164E-02  0.1312668E+00
        -11   -1    0    0    0    0  0.00000000000E+00  0.00000000000E+00  0.45593999997E+02  0.45594000000E+02  0.51100000000E-03 0. -1.
         11   -1    0    0    0    0 -0.00000000000E+00 -0.00000000000E+00 -0.45593999997E+02  0.45594000000E+02  0.51100000000E-03 0.  1.
    9900012    2    1    2    0    0  0.20159754429E+02 -0.36919892810E+02 -0.10683138227E+02  0.47787266987E+02  0.19999981498E+02 0.  0.
        -12    1    1    2    0    0 -0.20159754429E+02  0.36919892810E+02  0.10683138227E+02  0.43400733013E+02  0.00000000000E+00 0.  1.
         11    1    3    3    0    0  0.36708628957E+01 -0.90103316987E+01 -0.45508731826E+01  0.10741124648E+02  0.51100000000E-03 0. -1.
        -11    1    3    3    0    0  0.87653747307E+01 -0.27267910945E+02 -0.34701968290E+01  0.28851568896E+02  0.51100000000E-03 0.  1.
        -12    1    3    3    0    0  0.77235168021E+01 -0.64165016710E+00 -0.26620682149E+01  0.81945734429E+01  0.00000000000E+00 0.  1.
</event>
<event>
 7    1  0.2685294E-009  0.4778727E+02  0.7816164E-02  0.1312668E+00
        -11   -1    0    0    0    0  0.00000000000E+00  0.00000000000E+00  0.45593999997E+02  0.45594000000E+02  0.51100000000E-03 0. -1.
         11   -1    0    0    0    0 -0.00000000000E+00 -0.00000000000E+00 -0.45593999997E+02  0.45594000000E+02  0.51100000000E-03 0.  1.
    9900012    2    1    2    0    0 -0.20157385182E+01 -0.41266897228E+02 -0.13289214186E+02  0.47787271639E+02  0.20000002711E+02 0.  0.
        -12    1    1    2    0    0  0.20157385182E+01  0.41266897228E+02  0.13289214186E+02  0.43400728361E+02  0.00000000000E+00 0.  1.
         11    1    3    3    0    0  0.26301414957E+01 -0.25528436669E+01 -0.65989867361E+00  0.37242612148E+01  0.51100000000E-03 0. -1.
        -11    1    3    3    0    0 -0.33167977871E+00  0.16073681812E+01 -0.77004445529E+00  0.18129017265E+01  0.51100000000E-03 0.  1.
        -12    1    3    3    0    0 -0.43142002352E+01 -0.40321421742E+02 -0.11859271057E+02  0.42250108698E+02  0.00000000000E+00 0.  1.
</event>
<event>
 7    1  0.2685294E-009  0.4778729E+02  0.7816164E-02  0.1312668E+00
        -11   -1    0    0    0    0  0.00000000000E+00  0.00000000000E+00  0.45593999997E+02  0.45594000000E+02  0.51100000000E-03 0.  1.
         11   -1    0    0    0    0 -0.00000000000E+00 -0.00000000000E+00 -0.45593999997E+02  0.45594000000E+02  0.51100000000E-03 0. -1.
    9900012    2    1    2    0    0  0.33639557104E+01 -0.41418535041E+02 -0.12522403599E+02  0.47787287622E+02  0.20000075585E+02 0.  0.
        -12    1    1    2    0    0 -0.33639557104E+01  0.41418535041E+02  0.12522403599E+02  0.43400712378E+02  0.00000000000E+00 0.  1.
         11    1    3    3    0    0 -0.62221907895E+00 -0.26070516431E+02 -0.16644953153E+02  0.30937250189E+02  0.51100000000E-03 0. -1.
        -11    1    3    3    0    0  0.22691439456E+01 -0.13899855866E+02  0.33735484459E+01  0.14482259379E+02  0.51100000000E-03 0.  1.
         12    1    3    3    0    0  0.17170308437E+01 -0.14481627443E+01  0.74900110803E+00  0.23677780539E+01  0.00000000000E+00 0. -1.
</event>
<event>
 7    1  0.2685294E-009  0.4778727E+02  0.7816164E-02  0.1312668E+00
        -11   -1    0    0    0    0  0.00000000000E+00  0.00000000000E+00  0.45593999997E+02  0.45594000000E+02  0.51100000000E-03 0.  1.
         11   -1    0    0    0    0 -0.00000000000E+00 -0.00000000000E+00 -0.45593999997E+02  0.45594000000E+02  0.51100000000E-03 0. -1.
    9900012    2    1    2    0    0  0.34558795571E+02  0.20431269037E+01 -0.26175154782E+02  0.47787269052E+02  0.19999990918E+02 0.  0.
        -12    1    1    2    0    0 -0.34558795571E+02 -0.20431269037E+01  0.26175154782E+02  0.43400730948E+02  0.00000000000E+00 0.  1.
         11    1    3    3    0    0  0.13086843700E+02  0.56276370551E+01 -0.15614847968E+02  0.21136680302E+02  0.51100000000E-03 0. -1.
        -11    1    3    3    0    0  0.10759210884E+02 -0.65231847761E+01 -0.89161050307E+01  0.15421072844E+02  0.51100000000E-03 0.  1.
        -12    1    3    3    0    0  0.10712740987E+02  0.29386746247E+01 -0.16442017842E+01  0.11229515907E+02  0.00000000000E+00 0.  1.
</event>
<event>
 7    1  0.2685294E-009  0.4778727E+02  0.7816164E-02  0.1312668E+00
        -11   -1    0    0    0    0  0.00000000000E+00  0.00000000000E+00  0.45593999997E+02  0.45594000000E+02  0.51100000000E-03 0.  1.
         11   -1    0    0    0    0 -0.00000000000E+00 -0.00000000000E+00 -0.45593999997E+02  0.45594000000E+02  0.51100000000E-03 0. -1.
    9900012    2    1    2    0    0  0.29139326344E+02  0.31688864972E+02  0.55080570933E+01  0.47787271942E+02  0.20000004092E+02 0.  0.
        -12    1    1    2    0    0 -0.29139326344E+02 -0.31688864972E+02 -0.55080570933E+01  0.43400728058E+02  0.00000000000E+00 0.  1.
         11    1    3    3    0    0  0.15690710396E+02  0.13736065658E+02 -0.18229861622E+00  0.20854522904E+02  0.51100000000E-03 0. -1.
        -11    1    3    3    0    0  0.10928386832E+01  0.11641196799E+02  0.58130981741E+01  0.13057713044E+02  0.51100000000E-03 0.  1.
        -12    1    3    3    0    0  0.12355777265E+02  0.63116025157E+01 -0.12274246460E+00  0.13875035994E+02  0.00000000000E+00 0.  1.
</event>
<event>
 7    1  0.2685294E-009  0.4778727E+02  0.7816164E-02  0.1312668E+00
        -11   -1    0    0    0    0  0.00000000000E+00  0.00000000000E+00  0.45593999997E+02  0.45594000000E+02  0.51100000000E-03 0.  1.
         11   -1    0    0    0    0 -0.00000000000E+00 -0.00000000000E+00 -0.45593999997E+02  0.45594000000E+02  0.51100000000E-03 0. -1.
    9900012    2    1    2    0    0  0.16074110516E+02  0.25475458556E+02 -0.31244953379E+02  0.47787272711E+02  0.20000007600E+02 0.  0.
        -12    1    1    2    0    0 -0.16074110516E+02 -0.25475458556E+02  0.31244953379E+02  0.43400727289E+02  0.00000000000E+00 0.  1.
         11    1    3    3    0    0  0.20132414474E+01  0.70463856698E+01 -0.12075735656E+02  0.14125441021E+02  0.51100000000E-03 0. -1.
        -11    1    3    3    0    0 -0.11399575562E+01  0.43706850242E+01  0.11404237622E+01  0.46586433035E+01  0.51100000000E-03 0.  1.
        -12    1    3    3    0    0  0.15200826625E+02  0.14058387862E+02 -0.20309641485E+02  0.29003188387E+02  0.00000000000E+00 0.  1.
</event>
<event>
 7    1  0.3191428E-009  0.4778727E+02  0.7816164E-02  0.1312668E+00
        -11   -1    0    0    0    0  0.00000000000E+00  0.00000000000E+00  0.45593999997E+02  0.45594000000E+02  0.51100000000E-03 0.  1.
         11   -1    0    0    0    0 -0.00000000000E+00 -0.00000000000E+00 -0.45593999997E+02  0.45594000000E+02  0.51100000000E-03 0. -1.
    9900012    2    1    2    0    0  0.11559224484E+02  0.38479627381E+02 -0.16411148845E+02  0.47787271890E+02  0.20000003857E+02 0.  0.
        -12    1    1    2    0    0 -0.11559224484E+02 -0.38479627381E+02  0.16411148845E+02  0.43400728110E+02  0.00000000000E+00 0.  1.
         11    1    3    3    0    0  0.84498104229E+01  0.19532265621E+02 -0.90149752687E+01  0.23112301396E+02  0.51100000000E-03 0. -1.
        -11    1    3    3    0    0  0.99508301583E+00  0.11133646397E+02  0.29286090411E+01  0.11555302829E+02  0.51100000000E-03 0.  1.
        -12    1    3    3    0    0  0.21143310451E+01  0.78137153632E+01 -0.10324782618E+02  0.13119667665E+02  0.00000000000E+00 0.  1.
</event>
<event>
 7    1  0.2685294E-009  0.4778727E+02  0.7816164E-02  0.1312668E+00
        -11   -1    0    0    0    0  0.00000000000E+00  0.00000000000E+00  0.45593999997E+02  0.45594000000E+02  0.51100000000E-03 0.  1.
         11   -1    0    0    0    0 -0.00000000000E+00 -0.00000000000E+00 -0.45593999997E+02  0.45594000000E+02  0.51100000000E-03 0. -1.
    9900012    2    1    2    0    0 -0.25497654779E+01  0.50816883631E+01 -0.43026719152E+02  0.47787269342E+02  0.19999992240E+02 0.  0.
        -12    1    1    2    0    0  0.25497654779E+01 -0.50816883631E+01  0.43026719152E+02  0.43400730658E+02  0.00000000000E+00 0.  1.
         11    1    3    3    0    0 -0.75190772103E+01  0.89288837093E+00 -0.86159587939E+01  0.11470332076E+02  0.51100000000E-03 0. -1.
        -11    1    3    3    0    0 -0.28440065520E+01  0.49536684845E+00 -0.68656552979E+01  0.74478845663E+01  0.51100000000E-03 0.  1.
         12    1    3    3    0    0  0.78133182844E+01  0.36934331437E+01 -0.27545105060E+02  0.28869052700E+02  0.00000000000E+00 0. -1.
</event>
<event>
 7    1  0.2685294E-009  0.4778727E+02  0.7816164E-02  0.1312668E+00
        -11   -1    0    0    0    0  0.00000000000E+00  0.00000000000E+00  0.45593999997E+02  0.45594000000E+02  0.51100000000E-03 0.  1.
         11   -1    0    0    0    0 -0.00000000000E+00 -0.00000000000E+00 -0.45593999997E+02  0.45594000000E+02  0.51100000000E-03 0. -1.
    9900012    2    1    2    0    0  0.32553481960E+02 -0.82177786404E+01 -0.27502036821E+02  0.47787273015E+02  0.20000008985E+02 0.  0.
        -12    1    1    2    0    0 -0.32553481960E+02  0.82177786404E+01  0.27502036821E+02  0.43400726985E+02  0.00000000000E+00 0.  1.
         11    1    3    3    0    0  0.15917642751E+02  0.24928960191E+01 -0.71419690683E+01  0.17623666013E+02  0.51100000000E-03 0. -1.
        -11    1    3    3    0    0  0.49227604379E+01  0.54201617713E+00 -0.12975463636E+01  0.51196658770E+01  0.51100000000E-03 0.  1.
         12    1    3    3    0    0  0.11713078771E+02 -0.11252690837E+02 -0.19062521389E+02  0.25043941125E+02  0.00000000000E+00 0. -1.
</event>
<event>
 7    1  0.2685294E-009  0.4778728E+02  0.7816164E-02  0.1312668E+00
        -11   -1    0    0    0    0  0.00000000000E+00  0.00000000000E+00  0.45593999997E+02  0.45594000000E+02  0.51100000000E-03 0.  1.
         11   -1    0    0    0    0 -0.00000000000E+00 -0.00000000000E+00 -0.45593999997E+02  0.45594000000E+02  0.51100000000E-03 0. -1.
    9900012    2    1    2    0    0 -0.37132263760E+02 -0.57906744908E+01 -0.21709121481E+02  0.47787275600E+02  0.20000020770E+02 0.  0.
        -12    1    1    2    0    0  0.37132263760E+02  0.57906744908E+01  0.21709121481E+02  0.43400724400E+02  0.00000000000E+00 0.  1.
         11    1    3    3    0    0 -0.43947716496E+01 -0.56800670498E+01 -0.25116970977E+01  0.76082719532E+01  0.51100000000E-03 0. -1.
        -11    1    3    3    0    0 -0.25825382696E+01 -0.39294092769E+01 -0.41080501810E+01  0.62438640064E+01  0.51100000000E-03 0.  1.
         12    1    3    3    0    0 -0.30154953840E+02  0.38188018358E+01 -0.15089374203E+02  0.33935139640E+02  0.00000000000E+00 0. -1.
</event>
<event>
 7    1  0.2685294E-009  0.4778724E+02  0.7816164E-02  0.1312668E+00
        -11   -1    0    0    0    0  0.00000000000E+00  0.00000000000E+00  0.45593999997E+02  0.45594000000E+02  0.51100000000E-03 0.  1.
         11   -1    0    0    0    0 -0.00000000000E+00 -0.00000000000E+00 -0.45593999997E+02  0.45594000000E+02  0.51100000000E-03 0. -1.
    9900012    2    1    2    0    0  0.33276151708E+02  0.24458094618E+02 -0.13346362737E+02  0.47787238911E+02  0.19999853490E+02 0.  0.
        -12    1    1    2    0    0 -0.33276151708E+02 -0.24458094618E+02  0.13346362737E+02  0.43400761089E+02  0.00000000000E+00 0.  1.
         11    1    3    3    0    0  0.28731664748E+01 -0.12622499308E+01  0.21883164121E+01  0.38258449341E+01  0.51100000000E-03 0. -1.
        -11    1    3    3    0    0  0.53695591140E+00  0.22222120693E+01 -0.33464533201E+01  0.40528136173E+01  0.51100000000E-03 0.  1.
         12    1    3    3    0    0  0.29866029321E+02  0.23498132479E+02 -0.12188225829E+02  0.39908580359E+02  0.00000000000E+00 0. -1.
</event>
<event>
 7    1  0.2685294E-009  0.4778727E+02  0.7816164E-02  0.1312668E+00
        -11   -1    0    0    0    0  0.00000000000E+00  0.00000000000E+00  0.45593999997E+02  0.45594000000E+02  0.51100000000E-03 0. -1.
         11   -1    0    0    0    0 -0.00000000000E+00 -0.00000000000E+00 -0.45593999997E+02  0.45594000000E+02  0.51100000000E-03 0.  1.
    9900012    2    1    2    0    0  0.27370097225E+02  0.32210699172E+02  0.98474243722E+01  0.47787272702E+02  0.20000007556E+02 0.  0.
        -12    1    1    2    0    0 -0.27370097225E+02 -0.32210699172E+02 -0.98474243722E+01  0.43400727298E+02  0.00000000000E+00 0.  1.
         11    1    3    3    0    0  0.67754898447E+01  0.11216864608E+02 -0.42132475707E+01  0.13765056107E+02  0.51100000000E-03 0. -1.
        -11    1    3    3    0    0  0.61575942602E+01  0.11230653767E+02  0.23416416103E+01  0.13020247186E+02  0.51100000000E-03 0.  1.
         12    1    3    3    0    0  0.14437013120E+02  0.97631807980E+01  0.11719030333E+02  0.21001969409E+02  0.00000000000E+00 0. -1.
</event>
<event>
 7    1  0.3370031E-009  0.4778728E+02  0.7816164E-02  0.1312668E+00
        -11   -1    0    0    0    0  0.00000000000E+00  0.00000000000E+00  0.45593999997E+02  0.45594000000E+02  0.51100000000E-03 0.  1.
         11   -1    0    0    0    0 -0.00000000000E+00 -0.00000000000E+00 -0.45593999997E+02  0.45594000000E+02  0.51100000000E-03 0. -1.
    9900012    2    1    2    0    0  0.34216999122E+02  0.26233409885E+02 -0.49626642112E+01  0.47787275822E+02  0.20000021784E+02 0.  0.
        -12    1    1    2    0    0 -0.34216999122E+02 -0.26233409885E+02  0.49626642112E+01  0.43400724178E+02  0.00000000000E+00 0.  1.
         11    1    3    3    0    0  0.62420196797E+01  0.76259778867E+01 -0.68444107297E+00  0.98786035579E+01  0.51100000000E-03 0. -1.
        -11    1    3    3    0    0  0.19915256221E+02  0.20601015597E+02 -0.18991373060E+00  0.28654063263E+02  0.51100000000E-03 0.  1.
        -12    1    3    3    0    0  0.80597232205E+01 -0.19935835990E+01 -0.40883094077E+01  0.92546090015E+01  0.00000000000E+00 0.  1.
</event>
<event>
 7    1  0.2685294E-009  0.4778728E+02  0.7816164E-02  0.1312668E+00
        -11   -1    0    0    0    0  0.00000000000E+00  0.00000000000E+00  0.45593999997E+02  0.45594000000E+02  0.51100000000E-03 0.  1.
         11   -1    0    0    0    0 -0.00000000000E+00 -0.00000000000E+00 -0.45593999997E+02  0.45594000000E+02  0.51100000000E-03 0. -1.
    9900012    2    1    2    0    0  0.32273196391E-01  0.22584042487E+02 -0.37061874582E+02  0.47787279221E+02  0.20000037280E+02 0.  0.
        -12    1    1    2    0    0 -0.32273196391E-01 -0.22584042487E+02  0.37061874582E+02  0.43400720779E+02  0.00000000000E+00 0.  1.
         11    1    3    3    0    0  0.54966359414E+01  0.18375145990E+02 -0.17786209343E+02  0.26157374484E+02  0.51100000000E-03 0. -1.
        -11    1    3    3    0    0 -0.34014088406E+01  0.16446517194E+00 -0.24308952116E+01  0.41840031889E+01  0.51100000000E-03 0.  1.
         12    1    3    3    0    0 -0.20629539044E+01  0.40444313251E+01 -0.16844770028E+02  0.17445901548E+02  0.00000000000E+00 0. -1.
</event>
<event>
 7    1  0.2685294E-009  0.4778727E+02  0.7816164E-02  0.1312668E+00
        -11   -1    0    0    0    0  0.00000000000E+00  0.00000000000E+00  0.45593999997E+02  0.45594000000E+02  0.51100000000E-03 0.  1.
         11   -1    0    0    0    0 -0.00000000000E+00 -0.00000000000E+00 -0.45593999997E+02  0.45594000000E+02  0.51100000000E-03 0. -1.
    9900012    2    1    2    0    0  0.33133276621E+02 -0.67832392651E+01 -0.27199207847E+02  0.47787271181E+02  0.20000000621E+02 0.  0.
        -12    1    1    2    0    0 -0.33133276621E+02  0.67832392651E+01  0.27199207847E+02  0.43400728819E+02  0.00000000000E+00 0.  1.
         11    1    3    3    0    0  0.19461023052E+02 -0.10373732868E+02 -0.13259181114E+02  0.25732307240E+02  0.51100000000E-03 0. -1.
        -11    1    3    3    0    0  0.20999616099E+01  0.38198820295E+01 -0.78424910903E+01  0.89725138197E+01  0.51100000000E-03 0.  1.
         12    1    3    3    0    0  0.11572291959E+02 -0.22938842620E+00 -0.60975356427E+01  0.13082450120E+02  0.00000000000E+00 0. -1.
</event>
<event>
 7    1  0.2685294E-009  0.4778727E+02  0.7816164E-02  0.1312668E+00
        -11   -1    0    0    0    0  0.00000000000E+00  0.00000000000E+00  0.45593999997E+02  0.45594000000E+02  0.51100000000E-03 0. -1.
         11   -1    0    0    0    0 -0.00000000000E+00 -0.00000000000E+00 -0.45593999997E+02  0.45594000000E+02  0.51100000000E-03 0.  1.
    9900012    2    1    2    0    0  0.33458241751E+02  0.14219178247E+02  0.23706216896E+02  0.47787266244E+02  0.19999978111E+02 0.  0.
        -12    1    1    2    0    0 -0.33458241751E+02 -0.14219178247E+02 -0.23706216896E+02  0.43400733756E+02  0.00000000000E+00 0.  1.
         11    1    3    3    0    0  0.17058938239E+02  0.12075091168E+01  0.15985024797E+02  0.23409110836E+02  0.51100000000E-03 0. -1.
        -11    1    3    3    0    0  0.32518371573E+01  0.30086246391E+01 -0.23654304760E+01  0.50221040127E+01  0.51100000000E-03 0.  1.
         12    1    3    3    0    0  0.13147466354E+02  0.10003044491E+02  0.10086622576E+02  0.19356051395E+02  0.00000000000E+00 0. -1.
</event>
<event>
 7    1  0.2685294E-009  0.4778722E+02  0.7816164E-02  0.1312668E+00
        -11   -1    0    0    0    0  0.00000000000E+00  0.00000000000E+00  0.45593999997E+02  0.45594000000E+02  0.51100000000E-03 0.  1.
         11   -1    0    0    0    0 -0.00000000000E+00 -0.00000000000E+00 -0.45593999997E+02  0.45594000000E+02  0.51100000000E-03 0. -1.
    9900012    2    1    2    0    0  0.24466831535E+02  0.34643894663E+02  0.92088450658E+01  0.47787215327E+02  0.19999745961E+02 0.  0.
        -12    1    1    2    0    0 -0.24466831535E+02 -0.34643894663E+02 -0.92088450658E+01  0.43400784673E+02  0.00000000000E+00 0.  1.
         11    1    3    3    0    0  0.92113013736E+01  0.22087329391E+02  0.10934888790E+02  0.26311024034E+02  0.51100000000E-03 0.  1.
        -11    1    3    3    0    0  0.28635713813E+01  0.62307830687E+01  0.18662994039E+01  0.71067413370E+01  0.51100000000E-03 0. -1.
         12    1    3    3    0    0  0.12391958780E+02  0.63257822028E+01 -0.35923431278E+01  0.14369449956E+02  0.00000000000E+00 0. -1.
</event>
<event>
 7    1  0.2685294E-009  0.4778727E+02  0.7816164E-02  0.1312668E+00
        -11   -1    0    0    0    0  0.00000000000E+00  0.00000000000E+00  0.45593999997E+02  0.45594000000E+02  0.51100000000E-03 0. -1.
         11   -1    0    0    0    0 -0.00000000000E+00 -0.00000000000E+00 -0.45593999997E+02  0.45594000000E+02  0.51100000000E-03 0.  1.
    9900012    2    1    2    0    0 -0.27259688400E+02 -0.86888191032E+01  0.32634913439E+02  0.47787265395E+02  0.19999974244E+02 0.  0.
        -12    1    1    2    0    0  0.27259688400E+02  0.86888191032E+01 -0.32634913439E+02  0.43400734605E+02  0.00000000000E+00 0.  1.
         11    1    3    3    0    0 -0.20752995163E+02 -0.11069726550E+02  0.22400616501E+02  0.32480967874E+02  0.51100000000E-03 0. -1.
        -11    1    3    3    0    0 -0.34377570556E+00  0.39874059523E+01  0.10638198143E+01  0.41411714312E+01  0.51100000000E-03 0.  1.
         12    1    3    3    0    0 -0.61629175313E+01 -0.16064985058E+01  0.91704771231E+01  0.11165126090E+02  0.00000000000E+00 0. -1.
</event>
<event>
 7    1  0.2685294E-009  0.4778727E+02  0.7816164E-02  0.1312668E+00
        -11   -1    0    0    0    0  0.00000000000E+00  0.00000000000E+00  0.45593999997E+02  0.45594000000E+02  0.51100000000E-03 0.  1.
         11   -1    0    0    0    0 -0.00000000000E+00 -0.00000000000E+00 -0.45593999997E+02  0.45594000000E+02  0.51100000000E-03 0. -1.
    9900012    2    1    2    0    0  0.34193701186E+02 -0.20812000208E+02  0.16771250074E+02  0.47787269793E+02  0.19999994292E+02 0.  0.
        -12    1    1    2    0    0 -0.34193701186E+02  0.20812000208E+02 -0.16771250074E+02  0.43400730207E+02  0.00000000000E+00 0.  1.
         11    1    3    3    0    0  0.16195730729E+02 -0.13332721354E+02  0.14854460039E+02  0.25704438058E+02  0.51100000000E-03 0. -1.
        -11    1    3    3    0    0  0.37234927816E+01  0.23890783386E+01  0.16664563215E+01  0.47274909556E+01  0.51100000000E-03 0.  1.
         12    1    3    3    0    0  0.14274477675E+02 -0.98683571935E+01  0.25033371363E+00  0.17355340779E+02  0.00000000000E+00 0. -1.
</event>
<event>
 7    1  0.2685294E-009  0.4778727E+02  0.7816164E-02  0.1312668E+00
        -11   -1    0    0    0    0  0.00000000000E+00  0.00000000000E+00  0.45593999997E+02  0.45594000000E+02  0.51100000000E-03 0. -1.
         11   -1    0    0    0    0 -0.00000000000E+00 -0.00000000000E+00 -0.45593999997E+02  0.45594000000E+02  0.51100000000E-03 0.  1.
    9900012    2    1    2    0    0 -0.19424259818E+01  0.32304058836E+02  0.28918826569E+02  0.47787265373E+02  0.19999974143E+02 0.  0.
        -12    1    1    2    0    0  0.19424259818E+01 -0.32304058836E+02 -0.28918826569E+02  0.43400734627E+02  0.00000000000E+00 0.  1.
         11    1    3    3    0    0 -0.51912689797E+01  0.10357609285E+01  0.71615571533E+01  0.89056148267E+01  0.51100000000E-03 0. -1.
        -11    1    3    3    0    0  0.14227996652E+01  0.24053493323E+02  0.19797854596E+02  0.31185733065E+02  0.51100000000E-03 0.  1.
        -12    1    3    3    0    0  0.18260433326E+01  0.72148045845E+01  0.19594148202E+01  0.76959174815E+01  0.00000000000E+00 0.  1.
</event>
<event>
 7    1  0.2685294E-009  0.4778727E+02  0.7816164E-02  0.1312668E+00
        -11   -1    0    0    0    0  0.00000000000E+00  0.00000000000E+00  0.45593999997E+02  0.45594000000E+02  0.51100000000E-03 0.  1.
         11   -1    0    0    0    0 -0.00000000000E+00 -0.00000000000E+00 -0.45593999997E+02  0.45594000000E+02  0.51100000000E-03 0. -1.
    9900012    2    1    2    0    0  0.12143027920E+02  0.40186677395E+02 -0.11009142555E+02  0.47787269742E+02  0.19999994062E+02 0.  0.
        -12    1    1    2    0    0 -0.12143027920E+02 -0.40186677395E+02  0.11009142555E+02  0.43400730258E+02  0.00000000000E+00 0.  1.
         11    1    3    3    0    0  0.28918686548E+01  0.16822503911E+02  0.40885463079E+00  0.17074153113E+02  0.51100000000E-03 0. -1.
        -11    1    3    3    0    0  0.89519609430E+01  0.85410942107E+01 -0.98295863549E+01  0.15802172737E+02  0.51100000000E-03 0.  1.
        -12    1    3    3    0    0  0.29919832181E+00  0.14823079273E+02 -0.15884108313E+01  0.14910943892E+02  0.00000000000E+00 0.  1.
</event>
<event>
 7    1  0.2685294E-009  0.4778727E+02  0.7816164E-02  0.1312668E+00
        -11   -1    0    0    0    0  0.00000000000E+00  0.00000000000E+00  0.45593999997E+02  0.45594000000E+02  0.51100000000E-03 0. -1.
         11   -1    0    0    0    0 -0.00000000000E+00 -0.00000000000E+00 -0.45593999997E+02  0.45594000000E+02  0.51100000000E-03 0.  1.
    9900012    2    1    2    0    0  0.34518684273E+02 -0.23358288798E+02  0.12102647500E+02  0.47787270790E+02  0.19999998838E+02 0.  0.
        -12    1    1    2    0    0 -0.34518684273E+02  0.23358288798E+02 -0.12102647500E+02  0.43400729210E+02  0.00000000000E+00 0.  1.
         11    1    3    3    0    0  0.18093541478E+02 -0.19351157735E+02  0.18314828399E+01  0.26555562102E+02  0.51100000000E-03 0. -1.
        -11    1    3    3    0    0  0.11187580413E+02 -0.44257897542E+01  0.10505349779E+02  0.15972224162E+02  0.51100000000E-03 0.  1.
         12    1    3    3    0    0  0.52375623820E+01  0.41865869111E+00 -0.23418511924E+00  0.52594845256E+01  0.00000000000E+00 0. -1.
</event>
<event>
 7    1  0.2685294E-009  0.4778727E+02  0.7816164E-02  0.1312668E+00
        -11   -1    0    0    0    0  0.00000000000E+00  0.00000000000E+00  0.45593999997E+02  0.45594000000E+02  0.51100000000E-03 0.  1.
         11   -1    0    0    0    0 -0.00000000000E+00 -0.00000000000E+00 -0.45593999997E+02  0.45594000000E+02  0.51100000000E-03 0. -1.
    9900012    2    1    2    0    0 -0.39620505363E+02 -0.17115151785E+02 -0.45728048066E+01  0.47787269480E+02  0.19999992867E+02 0.  0.
        -12    1    1    2    0    0  0.39620505363E+02  0.17115151785E+02  0.45728048066E+01  0.43400730520E+02  0.00000000000E+00 0.  1.
         11    1    3    3    0    0 -0.10437438910E+02 -0.11573666523E+02  0.16623226645E+01  0.15673327812E+02  0.51100000000E-03 0. -1.
        -11    1    3    3    0    0 -0.71736792348E+01 -0.20314688706E+00  0.28369475852E+01  0.77169433252E+01  0.51100000000E-03 0.  1.
         12    1    3    3    0    0 -0.22009387218E+02 -0.53383383748E+01 -0.90720750562E+01  0.24396998343E+02  0.00000000000E+00 0. -1.
</event>
<event>
 7    1  0.2685294E-009  0.4778730E+02  0.7816164E-02  0.1312668E+00
        -11   -1    0    0    0    0  0.00000000000E+00  0.00000000000E+00  0.45593999997E+02  0.45594000000E+02  0.51100000000E-03 0.  1.
         11   -1    0    0    0    0 -0.00000000000E+00 -0.00000000000E+00 -0.45593999997E+02  0.45594000000E+02  0.51100000000E-03 0. -1.
    9900012    2    1    2    0    0  0.36040194494E+02 -0.11709419159E+02 -0.21156912346E+02  0.47787296593E+02  0.20000116486E+02 0.  0.
        -12    1    1    2    0    0 -0.36040194494E+02  0.11709419159E+02  0.21156912346E+02  0.43400703407E+02  0.00000000000E+00 0.  1.
         11    1    3    3    0    0  0.17885592229E+02 -0.12272743471E+02 -0.17367175788E+02  0.27787289123E+02  0.51100000000E-03 0. -1.
        -11    1    3    3    0    0  0.13908454998E+02  0.34558956550E+01 -0.16192027029E+01  0.14422557085E+02  0.51100000000E-03 0.  1.
        -12    1    3    3    0    0  0.42461472663E+01 -0.28925713430E+01 -0.21705338551E+01  0.55774503850E+01  0.00000000000E+00 0.  1.
</event>
<event>
 7    1  0.2685294E-009  0.4778727E+02  0.7816164E-02  0.1312668E+00
        -11   -1    0    0    0    0  0.00000000000E+00  0.00000000000E+00  0.45593999997E+02  0.45594000000E+02  0.51100000000E-03 0.  1.
         11   -1    0    0    0    0 -0.00000000000E+00 -0.00000000000E+00 -0.45593999997E+02  0.45594000000E+02  0.51100000000E-03 0. -1.
    9900012    2    1    2    0    0  0.33472565139E+02  0.25452605923E+02 -0.10741299559E+02  0.47787270957E+02  0.19999999602E+02 0.  0.
        -12    1    1    2    0    0 -0.33472565139E+02 -0.25452605923E+02  0.10741299559E+02  0.43400729043E+02  0.00000000000E+00 0.  1.
         11    1    3    3    0    0  0.17687627455E+02  0.47565435573E+01  0.11179900628E+01  0.18350116447E+02  0.51100000000E-03 0. -1.
        -11    1    3    3    0    0  0.23813269549E+01  0.84744366798E+01 -0.39871780762E+01  0.96635596122E+01  0.51100000000E-03 0.  1.
         12    1    3    3    0    0  0.13403610729E+02  0.12221625686E+02 -0.78721115461E+01  0.19773594898E+02  0.00000000000E+00 0. -1.
</event>
<event>
 7    1  0.2685294E-009  0.4778728E+02  0.7816164E-02  0.1312668E+00
        -11   -1    0    0    0    0  0.00000000000E+00  0.00000000000E+00  0.45593999997E+02  0.45594000000E+02  0.51100000000E-03 0.  1.
         11   -1    0    0    0    0 -0.00000000000E+00 -0.00000000000E+00 -0.45593999997E+02  0.45594000000E+02  0.51100000000E-03 0. -1.
    9900012    2    1    2    0    0 -0.43054937078E+02 -0.16094721383E+01 -0.52254102308E+01  0.47787275127E+02  0.20000018616E+02 0.  0.
        -12    1    1    2    0    0  0.43054937078E+02  0.16094721383E+01  0.52254102308E+01  0.43400724873E+02  0.00000000000E+00 0.  1.
         11    1    3    3    0    0 -0.27139695607E+02 -0.65652456698E+00 -0.86120344163E+01  0.28480892528E+02  0.51100000000E-03 0. -1.
        -11    1    3    3    0    0 -0.69859100770E+01 -0.33737660533E+01 -0.27201611498E+01  0.82209801075E+01  0.51100000000E-03 0.  1.
         12    1    3    3    0    0 -0.89293313947E+01  0.24208184819E+01  0.61067853352E+01  0.11085402492E+02  0.00000000000E+00 0. -1.
</event>
<event>
 7    1  0.2685294E-009  0.4778727E+02  0.7816164E-02  0.1312668E+00
        -11   -1    0    0    0    0  0.00000000000E+00  0.00000000000E+00  0.45593999997E+02  0.45594000000E+02  0.51100000000E-03 0. -1.
         11   -1    0    0    0    0 -0.00000000000E+00 -0.00000000000E+00 -0.45593999997E+02  0.45594000000E+02  0.51100000000E-03 0.  1.
    9900012    2    1    2    0    0  0.56413608639E+01  0.61628896713E+00  0.43028113933E+02  0.47787270132E+02  0.19999995838E+02 0.  0.
        -12    1    1    2    0    0 -0.56413608639E+01 -0.61628896713E+00 -0.43028113933E+02  0.43400729868E+02  0.00000000000E+00 0.  1.
         11    1    3    3    0    0  0.10474526980E+02  0.14251885219E+01  0.37449243370E+02  0.38912629145E+02  0.51100000000E-03 0. -1.
        -11    1    3    3    0    0 -0.18994381625E+01  0.41283075024E+00 -0.50714966090E+00  0.20088543006E+01  0.51100000000E-03 0.  1.
         12    1    3    3    0    0 -0.29337279537E+01 -0.12217303050E+01  0.60860202241E+01  0.68657866856E+01  0.00000000000E+00 0. -1.
</event>
<event>
 7    1  0.3433180E-009  0.4778727E+02  0.7816164E-02  0.1312668E+00
        -11   -1    0    0    0    0  0.00000000000E+00  0.00000000000E+00  0.45593999997E+02  0.45594000000E+02  0.51100000000E-03 0. -1.
         11   -1    0    0    0    0 -0.00000000000E+00 -0.00000000000E+00 -0.45593999997E+02  0.45594000000E+02  0.51100000000E-03 0.  1.
    9900012    2    1    2    0    0  0.41434211251E+02  0.12906468288E+02 -0.50239132141E+00  0.47787272095E+02  0.20000004789E+02 0.  0.
        -12    1    1    2    0    0 -0.41434211251E+02 -0.12906468288E+02  0.50239132141E+00  0.43400727905E+02  0.00000000000E+00 0.  1.
         11    1    3    3    0    0  0.24113055736E+02  0.84185078988E+01  0.10592092075E+01  0.25562328857E+02  0.51100000000E-03 0. -1.
        -11    1    3    3    0    0  0.21621574314E+00  0.28788076713E+01 -0.39359503534E+01  0.48811871815E+01  0.51100000000E-03 0.  1.
        -12    1    3    3    0    0  0.17104939772E+02  0.16091527178E+01  0.23743498244E+01  0.17343756057E+02  0.00000000000E+00 0.  1.
</event>
<event>
 7    1  0.2685294E-009  0.4778725E+02  0.7816164E-02  0.1312668E+00
        -11   -1    0    0    0    0  0.00000000000E+00  0.00000000000E+00  0.45593999997E+02  0.45594000000E+02  0.51100000000E-03 0.  1.
         11   -1    0    0    0    0 -0.00000000000E+00 -0.00000000000E+00 -0.45593999997E+02  0.45594000000E+02  0.51100000000E-03 0. -1.
    9900012    2    1    2    0    0  0.31485480669E+02  0.81289031852E+01 -0.28743883128E+02  0.47787246813E+02  0.19999889518E+02 0.  0.
        -12    1    1    2    0    0 -0.31485480669E+02 -0.81289031852E+01  0.28743883128E+02  0.43400753187E+02  0.00000000000E+00 0.  1.
         11    1    3    3    0    0  0.55669096505E+01  0.10177434147E+02 -0.84909777705E+01  0.14375929627E+02  0.51100000000E-03 0. -1.
        -11    1    3    3    0    0  0.18949405629E+02 -0.38347779398E+01 -0.13877663063E+02  0.23798635000E+02  0.51100000000E-03 0.  1.
         12    1    3    3    0    0  0.69691653893E+01  0.17862469782E+01 -0.63752422948E+01  0.96126821860E+01  0.00000000000E+00 0. -1.
</event>
<event>
 7    1  0.2685294E-009  0.4778727E+02  0.7816164E-02  0.1312668E+00
        -11   -1    0    0    0    0  0.00000000000E+00  0.00000000000E+00  0.45593999997E+02  0.45594000000E+02  0.51100000000E-03 0. -1.
         11   -1    0    0    0    0 -0.00000000000E+00 -0.00000000000E+00 -0.45593999997E+02  0.45594000000E+02  0.51100000000E-03 0.  1.
    9900012    2    1    2    0    0 -0.30356820966E+02 -0.19419745003E+02  0.24185950948E+02  0.47787270762E+02  0.19999998713E+02 0.  0.
        -12    1    1    2    0    0  0.30356820966E+02  0.19419745003E+02 -0.24185950948E+02  0.43400729238E+02  0.00000000000E+00 0.  1.
         11    1    3    3    0    0 -0.16271445791E+02 -0.17758551213E+02  0.14206713182E+02  0.27963490287E+02  0.51100000000E-03 0. -1.
        -11    1    3    3    0    0 -0.15411423699E+02 -0.10928083147E+01  0.99574493512E+01  0.18380887038E+02  0.51100000000E-03 0.  1.
         12    1    3    3    0    0  0.13260485244E+01 -0.56838547488E+00  0.21788414619E-01  0.14428934375E+01  0.00000000000E+00 0. -1.
</event>
<event>
 7    1  0.2685294E-009  0.4778727E+02  0.7816164E-02  0.1312668E+00
        -11   -1    0    0    0    0  0.00000000000E+00  0.00000000000E+00  0.45593999997E+02  0.45594000000E+02  0.51100000000E-03 0.  1.
         11   -1    0    0    0    0 -0.00000000000E+00 -0.00000000000E+00 -0.45593999997E+02  0.45594000000E+02  0.51100000000E-03 0. -1.
    9900012    2    1    2    0    0 -0.75153203086E+01 -0.42743628952E+02  0.35422524421E+00  0.47787270388E+02  0.19999997005E+02 0.  0.
        -12    1    1    2    0    0  0.75153203086E+01  0.42743628952E+02 -0.35422524421E+00  0.43400729612E+02  0.00000000000E+00 0.  1.
         11    1    3    3    0    0 -0.18843841946E+01 -0.11626758173E+02  0.16589731212E+01  0.11894729988E+02  0.51100000000E-03 0. -1.
        -11    1    3    3    0    0  0.58091775369E+01 -0.11156100418E+02  0.16928648583E+01  0.12691371552E+02  0.51100000000E-03 0.  1.
        -12    1    3    3    0    0 -0.11440113651E+02 -0.19960770361E+02 -0.29976127353E+01  0.23201168847E+02  0.00000000000E+00 0.  1.
</event>
<event>
 7    1  0.2685294E-009  0.4778728E+02  0.7816164E-02  0.1312668E+00
        -11   -1    0    0    0    0  0.00000000000E+00  0.00000000000E+00  0.45593999997E+02  0.45594000000E+02  0.51100000000E-03 0.  1.
         11   -1    0    0    0    0 -0.00000000000E+00 -0.00000000000E+00 -0.45593999997E+02  0.45594000000E+02  0.51100000000E-03 0. -1.
    9900012    2    1    2    0    0  0.12210347508E+02  0.30451881702E+02 -0.28411491725E+02  0.47787279412E+02  0.20000038152E+02 0.  0.
        -12    1    1    2    0    0 -0.12210347508E+02 -0.30451881702E+02  0.28411491725E+02  0.43400720588E+02  0.00000000000E+00 0.  1.
         11    1    3    3    0    0  0.92034910732E+01  0.22346625230E+02 -0.11000454377E+02  0.26553453708E+02  0.51100000000E-03 0.  1.
        -11    1    3    3    0    0  0.43864563529E+01  0.16306734726E+01 -0.11274570656E+02  0.12207212583E+02  0.51100000000E-03 0. -1.
         12    1    3    3    0    0 -0.13795999181E+01  0.64745830003E+01 -0.61364666918E+01  0.90266131202E+01  0.00000000000E+00 0. -1.
</event>
<event>
 7    1  0.2685294E-009  0.4778727E+02  0.7816164E-02  0.1312668E+00
        -11   -1    0    0    0    0  0.00000000000E+00  0.00000000000E+00  0.45593999997E+02  0.45594000000E+02  0.51100000000E-03 0.  1.
         11   -1    0    0    0    0 -0.00000000000E+00 -0.00000000000E+00 -0.45593999997E+02  0.45594000000E+02  0.51100000000E-03 0. -1.
    9900012    2    1    2    0    0  0.23568467639E+02  0.23305853307E+02 -0.28017636177E+02  0.47787269566E+02  0.19999993261E+02 0.  0.
        -12    1    1    2    0    0 -0.23568467639E+02 -0.23305853307E+02  0.28017636177E+02  0.43400730434E+02  0.00000000000E+00 0.  1.
         11    1    3    3    0    0  0.72286637403E+01  0.60318435491E+00 -0.61145598254E+01  0.94871098316E+01  0.51100000000E-03 0. -1.
        -11    1    3    3    0    0  0.42787033558E+01 -0.12852896993E+01 -0.42576826895E+01  0.61714774701E+01  0.51100000000E-03 0.  1.
        -12    1    3    3    0    0  0.12061100543E+02  0.23987958652E+02 -0.17645393662E+02  0.32128682265E+02  0.00000000000E+00 0.  1.
</event>
<event>
 7    1  0.2685294E-009  0.4778727E+02  0.7816164E-02  0.1312668E+00
        -11   -1    0    0    0    0  0.00000000000E+00  0.00000000000E+00  0.45593999997E+02  0.45594000000E+02  0.51100000000E-03 0. -1.
         11   -1    0    0    0    0 -0.00000000000E+00 -0.00000000000E+00 -0.45593999997E+02  0.45594000000E+02  0.51100000000E-03 0.  1.
    9900012    2    1    2    0    0 -0.22813620808E+02  0.13702614703E+01  0.36895587408E+02  0.47787270962E+02  0.19999999625E+02 0.  0.
        -12    1    1    2    0    0  0.22813620808E+02 -0.13702614703E+01 -0.36895587408E+02  0.43400729038E+02  0.00000000000E+00 0.  1.
         11    1    3    3    0    0 -0.17416362231E+02 -0.58119250678E+00  0.29197342111E+02  0.34002238819E+02  0.51100000000E-03 0. -1.
        -11    1    3    3    0    0 -0.58473667781E+00 -0.37190827504E+01  0.13270987753E+01  0.39918272642E+01  0.51100000000E-03 0.  1.
        -12    1    3    3    0    0 -0.48125218991E+01  0.56705367275E+01  0.63711465209E+01  0.97932048788E+01  0.00000000000E+00 0.  1.
</event>
<event>
 7    1  0.2685294E-009  0.4778727E+02  0.7816164E-02  0.1312668E+00
        -11   -1    0    0    0    0  0.00000000000E+00  0.00000000000E+00  0.45593999997E+02  0.45594000000E+02  0.51100000000E-03 0.  1.
         11   -1    0    0    0    0 -0.00000000000E+00 -0.00000000000E+00 -0.45593999997E+02  0.45594000000E+02  0.51100000000E-03 0. -1.
    9900012    2    1    2    0    0 -0.27699209670E+02 -0.34153790370E+01 -0.33237213140E+02  0.47787269964E+02  0.19999995074E+02 0.  0.
        -12    1    1    2    0    0  0.27699209670E+02  0.34153790370E+01  0.33237213140E+02  0.43400730036E+02  0.00000000000E+00 0.  1.
         11    1    3    3    0    0 -0.29311417025E+02 -0.24315940604E+01 -0.23979398776E+02  0.37948430582E+02  0.51100000000E-03 0. -1.
        -11    1    3    3    0    0  0.10371569842E+01  0.64993958885E+00 -0.62437480105E+01  0.63625863891E+01  0.51100000000E-03 0.  1.
         12    1    3    3    0    0  0.57505037113E+00 -0.16337245655E+01 -0.30140663536E+01  0.34762529927E+01  0.00000000000E+00 0. -1.
</event>
<event>
 7    1  0.2685294E-009  0.4778728E+02  0.7816164E-02  0.1312668E+00
        -11   -1    0    0    0    0  0.00000000000E+00  0.00000000000E+00  0.45593999997E+02  0.45594000000E+02  0.51100000000E-03 0. -1.
         11   -1    0    0    0    0 -0.00000000000E+00 -0.00000000000E+00 -0.45593999997E+02  0.45594000000E+02  0.51100000000E-03 0.  1.
    9900012    2    1    2    0    0 -0.34963711871E+01  0.31178358712E+02  0.29988464135E+02  0.47787278294E+02  0.20000033052E+02 0.  0.
        -12    1    1    2    0    0  0.34963711871E+01 -0.31178358712E+02 -0.29988464135E+02  0.43400721706E+02  0.00000000000E+00 0.  1.
         11    1    3    3    0    0 -0.27498971420E+01  0.29293077466E+02  0.29962145482E+02  0.41992576533E+02  0.51100000000E-03 0. -1.
        -11    1    3    3    0    0  0.76493602131E+00  0.22523976395E+01 -0.20912553921E+01  0.31672972104E+01  0.51100000000E-03 0.  1.
        -12    1    3    3    0    0 -0.15114100664E+01 -0.36711639332E+00  0.21175740454E+01  0.26274045506E+01  0.00000000000E+00 0.  1.
</event>
<event>
 7    1  0.2685294E-009  0.4778727E+02  0.7816164E-02  0.1312668E+00
        -11   -1    0    0    0    0  0.00000000000E+00  0.00000000000E+00  0.45593999997E+02  0.45594000000E+02  0.51100000000E-03 0. -1.
         11   -1    0    0    0    0 -0.00000000000E+00 -0.00000000000E+00 -0.45593999997E+02  0.45594000000E+02  0.51100000000E-03 0.  1.
    9900012    2    1    2    0    0  0.30986668841E+02 -0.26869414082E+02  0.14194519917E+02  0.47787268962E+02  0.19999990504E+02 0.  0.
        -12    1    1    2    0    0 -0.30986668841E+02  0.26869414082E+02 -0.14194519917E+02  0.43400731038E+02  0.00000000000E+00 0.  1.
         11    1    3    3    0    0  0.14290552938E+02 -0.77056768819E+01  0.11894325745E+02  0.20126409135E+02  0.51100000000E-03 0. -1.
        -11    1    3    3    0    0  0.19805554708E+01 -0.69949806643E+01 -0.29676803937E+01  0.78523551657E+01  0.51100000000E-03 0.  1.
         12    1    3    3    0    0  0.14715560432E+02 -0.12168756536E+02  0.52678745660E+01  0.19808504661E+02  0.00000000000E+00 0. -1.
</event>
<event>
 7    1  0.2685294E-009  0.4778727E+02  0.7816164E-02  0.1312668E+00
        -11   -1    0    0    0    0  0.00000000000E+00  0.00000000000E+00  0.45593999997E+02  0.45594000000E+02  0.51100000000E-03 0. -1.
         11   -1    0    0    0    0 -0.00000000000E+00 -0.00000000000E+00 -0.45593999997E+02  0.45594000000E+02  0.51100000000E-03 0.  1.
    9900012    2    1    2    0    0 -0.24605524424E+02 -0.16254900692E+02  0.31842890614E+02  0.47787270613E+02  0.19999998032E+02 0.  0.
        -12    1    1    2    0    0  0.24605524424E+02  0.16254900692E+02 -0.31842890614E+02  0.43400729387E+02  0.00000000000E+00 0.  1.
         11    1    3    3    0    0 -0.18886204742E+01 -0.11990633712E+01  0.95658406535E+01  0.98239476756E+01  0.51100000000E-03 0. -1.
        -11    1    3    3    0    0 -0.18379528912E+02 -0.16660889760E+02  0.14008162145E+02  0.28488961679E+02  0.51100000000E-03 0.  1.
        -12    1    3    3    0    0 -0.43373750380E+01  0.16050524386E+01  0.82688878157E+01  0.94743612586E+01  0.00000000000E+00 0.  1.
</event>
<event>
 7    1  0.2685294E-009  0.4778727E+02  0.7816164E-02  0.1312668E+00
        -11   -1    0    0    0    0  0.00000000000E+00  0.00000000000E+00  0.45593999997E+02  0.45594000000E+02  0.51100000000E-03 0.  1.
         11   -1    0    0    0    0 -0.00000000000E+00 -0.00000000000E+00 -0.45593999997E+02  0.45594000000E+02  0.51100000000E-03 0. -1.
    9900012    2    1    2    0    0  0.11210042114E+02  0.10613536896E+02 -0.40562431928E+02  0.47787273122E+02  0.20000009472E+02 0.  0.
        -12    1    1    2    0    0 -0.11210042114E+02 -0.10613536896E+02  0.40562431928E+02  0.43400726878E+02  0.00000000000E+00 0.  1.
         11    1    3    3    0    0  0.18002719191E+01  0.11257311856E+02 -0.27357353726E+02  0.29637693101E+02  0.51100000000E-03 0. -1.
        -11    1    3    3    0    0 -0.84244812462E+00 -0.37746842723E+00 -0.48050013578E+01  0.48928764102E+01  0.51100000000E-03 0.  1.
         12    1    3    3    0    0  0.10252218319E+02 -0.26630653287E+00 -0.84000768442E+01  0.13256703611E+02  0.00000000000E+00 0. -1.
</event>
<event>
 7    1  0.2685294E-009  0.4778727E+02  0.7816164E-02  0.1312668E+00
        -11   -1    0    0    0    0  0.00000000000E+00  0.00000000000E+00  0.45593999997E+02  0.45594000000E+02  0.51100000000E-03 0.  1.
         11   -1    0    0    0    0 -0.00000000000E+00 -0.00000000000E+00 -0.45593999997E+02  0.45594000000E+02  0.51100000000E-03 0. -1.
    9900012    2    1    2    0    0  0.26711817550E+02 -0.23242464746E+02 -0.25097615149E+02  0.47787266706E+02  0.19999980220E+02 0.  0.
        -12    1    1    2    0    0 -0.26711817550E+02  0.23242464746E+02  0.25097615149E+02  0.43400733294E+02  0.00000000000E+00 0.  1.
         11    1    3    3    0    0  0.16135636162E+02 -0.20605993822E+02 -0.23977547669E+02  0.35494908483E+02  0.51100000000E-03 0. -1.
        -11    1    3    3    0    0  0.11873197515E+00  0.11157535391E+01 -0.23909879943E+00  0.11472452828E+01  0.51100000000E-03 0.  1.
         12    1    3    3    0    0  0.10457449412E+02 -0.37522244633E+01 -0.88096868035E+00  0.11145112940E+02  0.00000000000E+00 0. -1.
</event>
<event>
 7    1  0.2685294E-009  0.4778727E+02  0.7816164E-02  0.1312668E+00
        -11   -1    0    0    0    0  0.00000000000E+00  0.00000000000E+00  0.45593999997E+02  0.45594000000E+02  0.51100000000E-03 0.  1.
         11   -1    0    0    0    0 -0.00000000000E+00 -0.00000000000E+00 -0.45593999997E+02  0.45594000000E+02  0.51100000000E-03 0. -1.
    9900012    2    1    2    0    0  0.27466580441E+02  0.31778505517E+02 -0.10924143026E+02  0.47787270112E+02  0.19999995746E+02 0.  0.
        -12    1    1    2    0    0 -0.27466580441E+02 -0.31778505517E+02  0.10924143026E+02  0.43400729888E+02  0.00000000000E+00 0.  1.
         11    1    3    3    0    0 -0.21266769134E+00  0.96093216297E+01 -0.45800607131E+01  0.10647123843E+02  0.51100000000E-03 0. -1.
        -11    1    3    3    0    0  0.44400947217E+01  0.22016560473E+01 -0.40765364488E+01  0.64171551460E+01  0.51100000000E-03 0.  1.
         12    1    3    3    0    0  0.23239153410E+02  0.19967527840E+02 -0.22675458637E+01  0.30722991123E+02  0.00000000000E+00 0. -1.
</event>
<event>
 7    1  0.4284472E-009  0.4778726E+02  0.7816164E-02  0.1312668E+00
        -11   -1    0    0    0    0  0.00000000000E+00  0.00000000000E+00  0.45593999997E+02  0.45594000000E+02  0.51100000000E-03 0. -1.
         11   -1    0    0    0    0 -0.00000000000E+00 -0.00000000000E+00 -0.45593999997E+02  0.45594000000E+02  0.51100000000E-03 0.  1.
    9900012    2    1    2    0    0 -0.10476030855E+02  0.17346272416E+02  0.38379474293E+02  0.47787257654E+02  0.19999938947E+02 0.  0.
        -12    1    1    2    0    0  0.10476030855E+02 -0.17346272416E+02 -0.38379474293E+02  0.43400742346E+02  0.00000000000E+00 0.  1.
         11    1    3    3    0    0 -0.40834566141E+00  0.27321154544E+01  0.19300269495E+02  0.19496963966E+02  0.51100000000E-03 0. -1.
        -11    1    3    3    0    0 -0.23587596804E+01  0.42748317722E+01 -0.43246507715E+00  0.49015263148E+01  0.51100000000E-03 0.  1.
        -12    1    3    3    0    0 -0.77089255130E+01  0.10339325190E+02  0.19511669875E+02  0.23388767373E+02  0.00000000000E+00 0.  1.
</event>
<event>
 7    1  0.2685294E-009  0.4778727E+02  0.7816164E-02  0.1312668E+00
        -11   -1    0    0    0    0  0.00000000000E+00  0.00000000000E+00  0.45593999997E+02  0.45594000000E+02  0.51100000000E-03 0.  1.
         11   -1    0    0    0    0 -0.00000000000E+00 -0.00000000000E+00 -0.45593999997E+02  0.45594000000E+02  0.51100000000E-03 0. -1.
    9900012    2    1    2    0    0  0.12978840637E+01 -0.17362365082E+02 -0.39755339627E+02  0.47787271283E+02  0.20000001089E+02 0.  0.
        -12    1    1    2    0    0 -0.12978840637E+01  0.17362365082E+02  0.39755339627E+02  0.43400728717E+02  0.00000000000E+00 0.  1.
         11    1    3    3    0    0  0.87665972175E+00 -0.83515466415E+01 -0.14311967382E+02  0.16593651623E+02  0.51100000000E-03 0.  1.
        -11    1    3    3    0    0  0.20495759866E+01 -0.12154354483E+02 -0.24658274232E+02  0.27567364454E+02  0.51100000000E-03 0. -1.
        -12    1    3    3    0    0 -0.16283516447E+01  0.31435360422E+01 -0.78509801282E+00  0.36262552057E+01  0.00000000000E+00 0.  1.
</event>
<event>
 7    1  0.2685294E-009  0.4778728E+02  0.7816164E-02  0.1312668E+00
        -11   -1    0    0    0    0  0.00000000000E+00  0.00000000000E+00  0.45593999997E+02  0.45594000000E+02  0.51100000000E-03 0.  1.
         11   -1    0    0    0    0 -0.00000000000E+00 -0.00000000000E+00 -0.45593999997E+02  0.45594000000E+02  0.51100000000E-03 0. -1.
    9900012    2    1    2    0    0 -0.35155991952E+02 -0.20126663054E+02  0.15575510715E+02  0.47787275699E+02  0.20000021221E+02 0.  0.
        -12    1    1    2    0    0  0.35155991952E+02  0.20126663054E+02 -0.15575510715E+02  0.43400724301E+02  0.00000000000E+00 0.  1.
         11    1    3    3    0    0 -0.12049180154E+02 -0.14335831665E+02  0.10354979348E+02  0.21399168429E+02  0.51100000000E-03 0. -1.
        -11    1    3    3    0    0 -0.24062507903E+02 -0.60376189233E+01  0.46265681664E+01  0.25236130093E+02  0.51100000000E-03 0.  1.
        -12    1    3    3    0    0  0.95569610419E+00  0.24678753445E+00  0.59396320058E+00  0.11519771761E+01  0.00000000000E+00 0.  1.
</event>
<event>
 7    1  0.2685294E-009  0.4778727E+02  0.7816164E-02  0.1312668E+00
        -11   -1    0    0    0    0  0.00000000000E+00  0.00000000000E+00  0.45593999997E+02  0.45594000000E+02  0.51100000000E-03 0. -1.
         11   -1    0    0    0    0 -0.00000000000E+00 -0.00000000000E+00 -0.45593999997E+02  0.45594000000E+02  0.51100000000E-03 0.  1.
    9900012    2    1    2    0    0 -0.35179522593E+02 -0.25394590641E+02  0.10675120695E+01  0.47787266991E+02  0.19999981519E+02 0.  0.
        -12    1    1    2    0    0  0.35179522593E+02  0.25394590641E+02 -0.10675120695E+01  0.43400733009E+02  0.00000000000E+00 0.  1.
         11    1    3    3    0    0 -0.54533565032E+01 -0.12507865201E+01  0.56886348619E+01  0.79789805691E+01  0.51100000000E-03 0. -1.
        -11    1    3    3    0    0 -0.24152660986E+02 -0.13872576221E+02 -0.32487274837E+01  0.28041997686E+02  0.51100000000E-03 0.  1.
         12    1    3    3    0    0 -0.55735051036E+01 -0.10271227901E+02 -0.13723953088E+01  0.11766288736E+02  0.00000000000E+00 0. -1.
</event>
<event>
 7    1  0.2685294E-009  0.4778725E+02  0.7816164E-02  0.1312668E+00
        -11   -1    0    0    0    0  0.00000000000E+00  0.00000000000E+00  0.45593999997E+02  0.45594000000E+02  0.51100000000E-03 0.  1.
         11   -1    0    0    0    0 -0.00000000000E+00 -0.00000000000E+00 -0.45593999997E+02  0.45594000000E+02  0.51100000000E-03 0. -1.
    9900012    2    1    2    0    0 -0.41875969171E+01  0.25809849730E+02 -0.34640157315E+02  0.47787253349E+02  0.19999919321E+02 0.  0.
        -12    1    1    2    0    0  0.41875969171E+01 -0.25809849730E+02  0.34640157315E+02  0.43400746651E+02  0.00000000000E+00 0.  1.
         11    1    3    3    0    0 -0.57222334598E+01  0.66263619743E+01 -0.57150282345E+01  0.10455342020E+02  0.51100000000E-03 0. -1.
        -11    1    3    3    0    0  0.51914747800E+01  0.18242541398E+02 -0.19615674897E+02  0.27285828355E+02  0.51100000000E-03 0.  1.
        -12    1    3    3    0    0 -0.36568382373E+01  0.94094635786E+00 -0.93094541827E+01  0.10046082974E+02  0.00000000000E+00 0.  1.
</event>
<event>
 7    1  0.2685294E-009  0.4778727E+02  0.7816164E-02  0.1312668E+00
        -11   -1    0    0    0    0  0.00000000000E+00  0.00000000000E+00  0.45593999997E+02  0.45594000000E+02  0.51100000000E-03 0.  1.
         11   -1    0    0    0    0 -0.00000000000E+00 -0.00000000000E+00 -0.45593999997E+02  0.45594000000E+02  0.51100000000E-03 0. -1.
    9900012    2    1    2    0    0  0.20230536808E+02 -0.23054546634E+02 -0.30705642166E+02  0.47787271886E+02  0.20000003835E+02 0.  0.
        -12    1    1    2    0    0 -0.20230536808E+02  0.23054546634E+02  0.30705642166E+02  0.43400728114E+02  0.00000000000E+00 0.  1.
         11    1    3    3    0    0  0.15223252360E+02 -0.14137580967E+02 -0.21470395216E+02  0.29876353174E+02  0.51100000000E-03 0. -1.
        -11    1    3    3    0    0 -0.34503066745E+01 -0.37967160494E+01 -0.49716683963E+01  0.71440293821E+01  0.51100000000E-03 0.  1.
        -12    1    3    3    0    0  0.84575911226E+01 -0.51202496180E+01 -0.42635785536E+01  0.10766889329E+02  0.00000000000E+00 0.  1.
</event>
<event>
 7    1  0.2685294E-009  0.4778727E+02  0.7816164E-02  0.1312668E+00
        -11   -1    0    0    0    0  0.00000000000E+00  0.00000000000E+00  0.45593999997E+02  0.45594000000E+02  0.51100000000E-03 0.  1.
         11   -1    0    0    0    0 -0.00000000000E+00 -0.00000000000E+00 -0.45593999997E+02  0.45594000000E+02  0.51100000000E-03 0. -1.
    9900012    2    1    2    0    0 -0.83746471890E+01  0.25737632059E+02 -0.33927322702E+02  0.47787266766E+02  0.19999980493E+02 0.  0.
        -12    1    1    2    0    0  0.83746471890E+01 -0.25737632059E+02  0.33927322702E+02  0.43400733234E+02  0.00000000000E+00 0.  1.
         11    1    3    3    0    0  0.17117062707E+01  0.26445498696E+01  0.36284216069E+00  0.31709993794E+01  0.51100000000E-03 0. -1.
        -11    1    3    3    0    0  0.12312415743E+01  0.32865116096E+01 -0.95649947007E-01  0.35108778885E+01  0.51100000000E-03 0.  1.
         12    1    3    3    0    0 -0.11317595034E+02  0.19806570580E+02 -0.34194514915E+02  0.41105389498E+02  0.00000000000E+00 0. -1.
</event>
<event>
 7    1  0.3209334E-009  0.4778728E+02  0.7816164E-02  0.1312668E+00
        -11   -1    0    0    0    0  0.00000000000E+00  0.00000000000E+00  0.45593999997E+02  0.45594000000E+02  0.51100000000E-03 0.  1.
         11   -1    0    0    0    0 -0.00000000000E+00 -0.00000000000E+00 -0.45593999997E+02  0.45594000000E+02  0.51100000000E-03 0. -1.
    9900012    2    1    2    0    0  0.40258132962E+02  0.69430108101E+01  0.14652643141E+02  0.47787278580E+02  0.20000034360E+02 0.  0.
        -12    1    1    2    0    0 -0.40258132962E+02 -0.69430108101E+01 -0.14652643141E+02  0.43400721420E+02  0.00000000000E+00 0.  1.
         11    1    3    3    0    0  0.14804944343E+02  0.81397512623E+01  0.10136364232E+02  0.19702482273E+02  0.51100000000E-03 0. -1.
        -11    1    3    3    0    0  0.13773565907E+02 -0.47888136303E+01  0.60141166356E+01  0.15773821761E+02  0.51100000000E-03 0.  1.
        -12    1    3    3    0    0  0.11679622713E+02  0.35920731781E+01 -0.14978377274E+01  0.12310974546E+02  0.00000000000E+00 0.  1.
</event>
<event>
 7    1  0.2685294E-009  0.4778727E+02  0.7816164E-02  0.1312668E+00
        -11   -1    0    0    0    0  0.00000000000E+00  0.00000000000E+00  0.45593999997E+02  0.45594000000E+02  0.51100000000E-03 0.  1.
         11   -1    0    0    0    0 -0.00000000000E+00 -0.00000000000E+00 -0.45593999997E+02  0.45594000000E+02  0.51100000000E-03 0. -1.
    9900012    2    1    2    0    0 -0.33223398318E+01  0.10250333704E+01 -0.43261236536E+02  0.47787271642E+02  0.20000002724E+02 0.  0.
        -12    1    1    2    0    0  0.33223398318E+01 -0.10250333704E+01  0.43261236536E+02  0.43400728358E+02  0.00000000000E+00 0.  1.
         11    1    3    3    0    0 -0.68193748135E+01 -0.52425066058E+01 -0.18310157165E+02  0.20229918537E+02  0.51100000000E-03 0. -1.
        -11    1    3    3    0    0 -0.11646735922E+01 -0.18590767228E+01 -0.32591535859E+01  0.39287037551E+01  0.51100000000E-03 0.  1.
         12    1    3    3    0    0  0.46617085738E+01  0.81266166990E+01 -0.21691925785E+02  0.23628649349E+02  0.00000000000E+00 0. -1.
</event>
<event>
 7    1  0.2685294E-009  0.4778727E+02  0.7816164E-02  0.1312668E+00
        -11   -1    0    0    0    0  0.00000000000E+00  0.00000000000E+00  0.45593999997E+02  0.45594000000E+02  0.51100000000E-03 0.  1.
         11   -1    0    0    0    0 -0.00000000000E+00 -0.00000000000E+00 -0.45593999997E+02  0.45594000000E+02  0.51100000000E-03 0. -1.
    9900012    2    1    2    0    0 -0.20785044248E+02 -0.21396940184E+02 -0.31524213784E+02  0.47787272261E+02  0.20000005546E+02 0.  0.
        -12    1    1    2    0    0  0.20785044248E+02  0.21396940184E+02  0.31524213784E+02  0.43400727739E+02  0.00000000000E+00 0.  1.
         11    1    3    3    0    0 -0.88505640126E+00 -0.58008014661E+01 -0.13010808684E+02  0.14272833123E+02  0.51100000000E-03 0. -1.
        -11    1    3    3    0    0 -0.47598070733E+01 -0.85412425850E+00  0.78196665317E+00  0.48986491742E+01  0.51100000000E-03 0.  1.
        -12    1    3    3    0    0 -0.15140180773E+02 -0.14742014459E+02 -0.19295371753E+02  0.28615789964E+02  0.00000000000E+00 0.  1.
</event>
<event>
 7    1  0.2685294E-009  0.4778727E+02  0.7816164E-02  0.1312668E+00
        -11   -1    0    0    0    0  0.00000000000E+00  0.00000000000E+00  0.45593999997E+02  0.45594000000E+02  0.51100000000E-03 0.  1.
         11   -1    0    0    0    0 -0.00000000000E+00 -0.00000000000E+00 -0.45593999997E+02  0.45594000000E+02  0.51100000000E-03 0. -1.
    9900012    2    1    2    0    0 -0.32524066288E+02  0.19523323783E+02 -0.21086684070E+02  0.47787270691E+02  0.19999998388E+02 0.  0.
        -12    1    1    2    0    0  0.32524066288E+02 -0.19523323783E+02  0.21086684070E+02  0.43400729309E+02  0.00000000000E+00 0.  1.
         11    1    3    3    0    0 -0.96076695147E+01  0.75446372679E+01 -0.12816906716E+02  0.17705986644E+02  0.51100000000E-03 0. -1.
        -11    1    3    3    0    0 -0.24241829624E+02  0.96245260695E+01 -0.83256035121E+01  0.27379070102E+02  0.51100000000E-03 0.  1.
        -12    1    3    3    0    0  0.13254328497E+01  0.23541604458E+01  0.55826157801E-01  0.27022139448E+01  0.00000000000E+00 0.  1.
</event>
<event>
 7    1  0.2685294E-009  0.4778727E+02  0.7816164E-02  0.1312668E+00
        -11   -1    0    0    0    0  0.00000000000E+00  0.00000000000E+00  0.45593999997E+02  0.45594000000E+02  0.51100000000E-03 0.  1.
         11   -1    0    0    0    0 -0.00000000000E+00 -0.00000000000E+00 -0.45593999997E+02  0.45594000000E+02  0.51100000000E-03 0. -1.
    9900012    2    1    2    0    0 -0.76704309429E+01  0.39102642707E+02 -0.17197997174E+02  0.47787270924E+02  0.19999999450E+02 0.  0.
        -12    1    1    2    0    0  0.76704309429E+01 -0.39102642707E+02  0.17197997174E+02  0.43400729076E+02  0.00000000000E+00 0.  1.
         11    1    3    3    0    0 -0.73815853607E+01  0.29329722706E+02 -0.16343448991E+02  0.34377736424E+02  0.51100000000E-03 0. -1.
        -11    1    3    3    0    0 -0.26296710223E+01  0.10823715215E+01 -0.30244368263E+01  0.41513752148E+01  0.51100000000E-03 0.  1.
         12    1    3    3    0    0  0.23408254402E+01  0.86905484802E+01  0.21698886432E+01  0.92581592853E+01  0.00000000000E+00 0. -1.
</event>
<event>
 7    1  0.2685294E-009  0.4778727E+02  0.7816164E-02  0.1312668E+00
        -11   -1    0    0    0    0  0.00000000000E+00  0.00000000000E+00  0.45593999997E+02  0.45594000000E+02  0.51100000000E-03 0.  1.
         11   -1    0    0    0    0 -0.00000000000E+00 -0.00000000000E+00 -0.45593999997E+02  0.45594000000E+02  0.51100000000E-03 0. -1.
    9900012    2    1    2    0    0  0.30728606321E+02 -0.22971032318E+02 -0.20290579556E+02  0.47787272000E+02  0.20000004358E+02 0.  0.
        -12    1    1    2    0    0 -0.30728606321E+02  0.22971032318E+02  0.20290579556E+02  0.43400728000E+02  0.00000000000E+00 0.  1.
         11    1    3    3    0    0  0.24561051747E+02 -0.75302987060E+01 -0.12642395510E+02  0.28631814927E+02  0.51100000000E-03 0. -1.
        -11    1    3    3    0    0 -0.91128444499E+00 -0.35969909516E+01 -0.10213739042E+01  0.38486345837E+01  0.51100000000E-03 0.  1.
         12    1    3    3    0    0  0.70788390187E+01 -0.11843742661E+02 -0.66268101420E+01  0.15306822490E+02  0.00000000000E+00 0. -1.
</event>
<event>
 7    1  0.2685294E-009  0.4778727E+02  0.7816164E-02  0.1312668E+00
        -11   -1    0    0    0    0  0.00000000000E+00  0.00000000000E+00  0.45593999997E+02  0.45594000000E+02  0.51100000000E-03 0.  1.
         11   -1    0    0    0    0 -0.00000000000E+00 -0.00000000000E+00 -0.45593999997E+02  0.45594000000E+02  0.51100000000E-03 0. -1.
    9900012    2    1    2    0    0 -0.39268264346E+01 -0.26858168038E+02 -0.33865064258E+02  0.47787265750E+02  0.19999975862E+02 0.  0.
        -12    1    1    2    0    0  0.39268264346E+01  0.26858168038E+02  0.33865064258E+02  0.43400734250E+02  0.00000000000E+00 0.  1.
         11    1    3    3    0    0  0.14070338413E+01 -0.33424633209E+01 -0.14423190057E+02  0.14872128865E+02  0.51100000000E-03 0. -1.
        -11    1    3    3    0    0  0.30753730440E+01 -0.55901547286E+01 -0.72715992273E+01  0.96738774456E+01  0.51100000000E-03 0.  1.
         12    1    3    3    0    0 -0.84092333199E+01 -0.17925549989E+02 -0.12170274974E+02  0.23241259440E+02  0.00000000000E+00 0. -1.
</event>
<event>
 7    1  0.3097805E-009  0.4778727E+02  0.7816164E-02  0.1312668E+00
        -11   -1    0    0    0    0  0.00000000000E+00  0.00000000000E+00  0.45593999997E+02  0.45594000000E+02  0.51100000000E-03 0. -1.
         11   -1    0    0    0    0 -0.00000000000E+00 -0.00000000000E+00 -0.45593999997E+02  0.45594000000E+02  0.51100000000E-03 0.  1.
    9900012    2    1    2    0    0  0.34632859872E+02 -0.24389671944E+02 -0.94515793857E+01  0.47787269207E+02  0.19999991624E+02 0.  0.
        -12    1    1    2    0    0 -0.34632859872E+02  0.24389671944E+02  0.94515793857E+01  0.43400730793E+02  0.00000000000E+00 0.  1.
         11    1    3    3    0    0  0.19808403958E+02 -0.18644300830E+02 -0.69387633624E+01  0.28073639915E+02  0.51100000000E-03 0. -1.
        -11    1    3    3    0    0  0.14399695125E+02 -0.70198065741E+00 -0.10990002208E+01  0.14458623665E+02  0.51100000000E-03 0.  1.
        -12    1    3    3    0    0  0.42476078927E+00 -0.50433904561E+01 -0.14138158024E+01  0.52550056274E+01  0.00000000000E+00 0.  1.
</event>
<event>
 7    1  0.2685294E-009  0.4778727E+02  0.7816164E-02  0.1312668E+00
        -11   -1    0    0    0    0  0.00000000000E+00  0.00000000000E+00  0.45593999997E+02  0.45594000000E+02  0.51100000000E-03 0.  1.
         11   -1    0    0    0    0 -0.00000000000E+00 -0.00000000000E+00 -0.45593999997E+02  0.45594000000E+02  0.51100000000E-03 0. -1.
    9900012    2    1    2    0    0 -0.94613302339E+01 -0.21697595560E+02 -0.36377474090E+02  0.47787273692E+02  0.20000012071E+02 0.  0.
        -12    1    1    2    0    0  0.94613302339E+01  0.21697595560E+02  0.36377474090E+02  0.43400726308E+02  0.00000000000E+00 0.  1.
         11    1    3    3    0    0  0.68840537359E+00 -0.13456850345E+02 -0.24641154722E+02  0.28084644016E+02  0.51100000000E-03 0. -1.
        -11    1    3    3    0    0 -0.20933710522E+01  0.26643786553E+00 -0.65646084329E+01  0.68954532583E+01  0.51100000000E-03 0.  1.
         12    1    3    3    0    0 -0.80563645553E+01 -0.85071830800E+01 -0.51717109353E+01  0.12807176418E+02  0.00000000000E+00 0. -1.
</event>
<event>
 7    1  0.2685294E-009  0.4778726E+02  0.7816164E-02  0.1312668E+00
        -11   -1    0    0    0    0  0.00000000000E+00  0.00000000000E+00  0.45593999997E+02  0.45594000000E+02  0.51100000000E-03 0.  1.
         11   -1    0    0    0    0 -0.00000000000E+00 -0.00000000000E+00 -0.45593999997E+02  0.45594000000E+02  0.51100000000E-03 0. -1.
    9900012    2    1    2    0    0  0.26726499311E+02 -0.20644912006E+02 -0.27259966345E+02  0.47787263575E+02  0.19999965942E+02 0.  0.
        -12    1    1    2    0    0 -0.26726499311E+02  0.20644912006E+02  0.27259966345E+02  0.43400736425E+02  0.00000000000E+00 0.  1.
         11    1    3    3    0    0  0.11627269982E+02 -0.54357339820E+01 -0.73762569027E+01  0.14803708228E+02  0.51100000000E-03 0. -1.
        -11    1    3    3    0    0  0.87658849248E+01 -0.10351165159E+02 -0.24148190457E+01  0.13777471102E+02  0.51100000000E-03 0.  1.
        -12    1    3    3    0    0  0.63333444043E+01 -0.48580128644E+01 -0.17468890396E+02  0.19206084245E+02  0.00000000000E+00 0.  1.
</event>
<event>
 7    1  0.2685294E-009  0.4778727E+02  0.7816164E-02  0.1312668E+00
        -11   -1    0    0    0    0  0.00000000000E+00  0.00000000000E+00  0.45593999997E+02  0.45594000000E+02  0.51100000000E-03 0.  1.
         11   -1    0    0    0    0 -0.00000000000E+00 -0.00000000000E+00 -0.45593999997E+02  0.45594000000E+02  0.51100000000E-03 0. -1.
    9900012    2    1    2    0    0  0.31583671682E+02 -0.16523761690E+02 -0.24760055043E+02  0.47787270248E+02  0.19999996369E+02 0.  0.
        -12    1    1    2    0    0 -0.31583671682E+02  0.16523761690E+02  0.24760055043E+02  0.43400729752E+02  0.00000000000E+00 0.  1.
         11    1    3    3    0    0  0.11097521300E+02 -0.45507126298E+01 -0.16656840638E+02  0.20525942238E+02  0.51100000000E-03 0. -1.
        -11    1    3    3    0    0  0.88157831369E+00 -0.23451530887E+01  0.19912226419E+01  0.32002954869E+01  0.51100000000E-03 0.  1.
        -12    1    3    3    0    0  0.19604572068E+02 -0.96278959715E+01 -0.10094437047E+02  0.24061032524E+02  0.00000000000E+00 0.  1.
</event>
<event>
 7    1  0.2685294E-009  0.4778727E+02  0.7816164E-02  0.1312668E+00
        -11   -1    0    0    0    0  0.00000000000E+00  0.00000000000E+00  0.45593999997E+02  0.45594000000E+02  0.51100000000E-03 0.  1.
         11   -1    0    0    0    0 -0.00000000000E+00 -0.00000000000E+00 -0.45593999997E+02  0.45594000000E+02  0.51100000000E-03 0. -1.
    9900012    2    1    2    0    0  0.80673172489E+01  0.36297101261E+02 -0.22384416252E+02  0.47787271222E+02  0.20000000809E+02 0.  0.
        -12    1    1    2    0    0 -0.80673172489E+01 -0.36297101261E+02  0.22384416252E+02  0.43400728778E+02  0.00000000000E+00 0.  1.
         11    1    3    3    0    0  0.36065360665E+01  0.23035373823E+02 -0.21551481015E+02  0.31750620211E+02  0.51100000000E-03 0. -1.
        -11    1    3    3    0    0  0.32687219456E+01  0.17647187895E+01 -0.23247285058E+01  0.43821385704E+01  0.51100000000E-03 0.  1.
         12    1    3    3    0    0  0.11920592368E+01  0.11497008648E+02  0.14917932683E+01  0.11654512441E+02  0.00000000000E+00 0. -1.
</event>
<event>
 7    1  0.2685294E-009  0.4778727E+02  0.7816164E-02  0.1312668E+00
        -11   -1    0    0    0    0  0.00000000000E+00  0.00000000000E+00  0.45593999997E+02  0.45594000000E+02  0.51100000000E-03 0.  1.
         11   -1    0    0    0    0 -0.00000000000E+00 -0.00000000000E+00 -0.45593999997E+02  0.45594000000E+02  0.51100000000E-03 0. -1.
    9900012    2    1    2    0    0  0.17171563665E+02  0.36692880443E+02 -0.15568993260E+02  0.47787266999E+02  0.19999981554E+02 0.  0.
        -12    1    1    2    0    0 -0.17171563665E+02 -0.36692880443E+02  0.15568993260E+02  0.43400733001E+02  0.00000000000E+00 0.  1.
         11    1    3    3    0    0  0.70789901417E+01  0.39354030917E+01 -0.85213868883E+01  0.11756425208E+02  0.51100000000E-03 0. -1.
        -11    1    3    3    0    0  0.82427530459E+01  0.32382618617E+02 -0.70124078297E+01  0.34143093447E+02  0.51100000000E-03 0.  1.
        -12    1    3    3    0    0  0.18498204778E+01  0.37485873347E+00 -0.35198542463E-01  0.18877483433E+01  0.00000000000E+00 0.  1.
</event>
<event>
 7    1  0.2685294E-009  0.4778727E+02  0.7816164E-02  0.1312668E+00
        -11   -1    0    0    0    0  0.00000000000E+00  0.00000000000E+00  0.45593999997E+02  0.45594000000E+02  0.51100000000E-03 0.  1.
         11   -1    0    0    0    0 -0.00000000000E+00 -0.00000000000E+00 -0.45593999997E+02  0.45594000000E+02  0.51100000000E-03 0. -1.
    9900012    2    1    2    0    0 -0.14743666684E+01 -0.82608471388E+01 -0.42581778581E+02  0.47787271669E+02  0.20000002849E+02 0.  0.
        -12    1    1    2    0    0  0.14743666684E+01  0.82608471388E+01  0.42581778581E+02  0.43400728331E+02  0.00000000000E+00 0.  1.
         11    1    3    3    0    0  0.22971949179E+01 -0.46537710380E+01 -0.79896411867E+01  0.95272795655E+01  0.51100000000E-03 0. -1.
        -11    1    3    3    0    0 -0.87389093337E+01 -0.55855079578E+01 -0.27406680609E+02  0.29303456754E+02  0.51100000000E-03 0.  1.
        -12    1    3    3    0    0  0.49673477474E+01  0.19784318570E+01 -0.71854567853E+01  0.89565353497E+01  0.00000000000E+00 0.  1.
</event>
<event>
 7    1  0.2685294E-009  0.4778727E+02  0.7816164E-02  0.1312668E+00
        -11   -1    0    0    0    0  0.00000000000E+00  0.00000000000E+00  0.45593999997E+02  0.45594000000E+02  0.51100000000E-03 0.  1.
         11   -1    0    0    0    0 -0.00000000000E+00 -0.00000000000E+00 -0.45593999997E+02  0.45594000000E+02  0.51100000000E-03 0. -1.
    9900012    2    1    2    0    0  0.97278847053E+01  0.41867213051E+01 -0.42088747534E+02  0.47787273680E+02  0.20000012016E+02 0.  0.
        -12    1    1    2    0    0 -0.97278847053E+01 -0.41867213051E+01  0.42088747534E+02  0.43400726320E+02  0.00000000000E+00 0.  1.
         11    1    3    3    0    0 -0.25150031869E+01  0.14148719889E+01 -0.49628903798E+01  0.57408522850E+01  0.51100000000E-03 0. -1.
        -11    1    3    3    0    0  0.11427658666E+02  0.75803034373E+01 -0.20074308270E+02  0.24311113417E+02  0.51100000000E-03 0.  1.
        -12    1    3    3    0    0  0.81522922587E+00 -0.48084541211E+01 -0.17051548884E+02  0.17735307978E+02  0.00000000000E+00 0.  1.
</event>
<event>
 7    1  0.2685294E-009  0.4778727E+02  0.7816164E-02  0.1312668E+00
        -11   -1    0    0    0    0  0.00000000000E+00  0.00000000000E+00  0.45593999997E+02  0.45594000000E+02  0.51100000000E-03 0. -1.
         11   -1    0    0    0    0 -0.00000000000E+00 -0.00000000000E+00 -0.45593999997E+02  0.45594000000E+02  0.51100000000E-03 0.  1.
    9900012    2    1    2    0    0  0.23501433076E+02  0.67112489360E+00  0.36480888343E+02  0.47787274435E+02  0.20000015459E+02 0.  0.
        -12    1    1    2    0    0 -0.23501433076E+02 -0.67112489360E+00 -0.36480888343E+02  0.43400725565E+02  0.00000000000E+00 0.  1.
         11    1    3    3    0    0  0.28850870855E+01 -0.18599627832E+01  0.74625813835E+01  0.82142139132E+01  0.51100000000E-03 0. -1.
        -11    1    3    3    0    0  0.14039170891E+02  0.57076111839E+01  0.76207624392E+01  0.16963229797E+02  0.51100000000E-03 0.  1.
        -12    1    3    3    0    0  0.65771750993E+01 -0.31765235071E+01  0.21397544521E+02  0.22609830724E+02  0.00000000000E+00 0.  1.
</event>
<event>
 7    1  0.2685294E-009  0.4778727E+02  0.7816164E-02  0.1312668E+00
        -11   -1    0    0    0    0  0.00000000000E+00  0.00000000000E+00  0.45593999997E+02  0.45594000000E+02  0.51100000000E-03 0.  1.
         11   -1    0    0    0    0 -0.00000000000E+00 -0.00000000000E+00 -0.45593999997E+02  0.45594000000E+02  0.51100000000E-03 0. -1.
    9900012    2    1    2    0    0 -0.33715325542E+02 -0.24802013115E+02 -0.11478693685E+02  0.47787269134E+02  0.19999991289E+02 0.  0.
        -12    1    1    2    0    0  0.33715325542E+02  0.24802013115E+02  0.11478693685E+02  0.43400730866E+02  0.00000000000E+00 0.  1.
         11    1    3    3    0    0 -0.68504108069E+01 -0.15042540112E+02 -0.51198579733E+01  0.17303730441E+02  0.51100000000E-03 0.  1.
        -11    1    3    3    0    0 -0.18146287266E+02 -0.10313831289E+02 -0.28383407929E+01  0.21064639472E+02  0.51100000000E-03 0. -1.
         12    1    3    3    0    0 -0.87186274698E+01  0.55435828506E+00 -0.35204949183E+01  0.94188992210E+01  0.00000000000E+00 0. -1.
</event>
<event>
 7    1  0.2685294E-009  0.4778727E+02  0.7816164E-02  0.1312668E+00
        -11   -1    0    0    0    0  0.00000000000E+00  0.00000000000E+00  0.45593999997E+02  0.45594000000E+02  0.51100000000E-03 0.  1.
         11   -1    0    0    0    0 -0.00000000000E+00 -0.00000000000E+00 -0.45593999997E+02  0.45594000000E+02  0.51100000000E-03 0. -1.
    9900012    2    1    2    0    0  0.39431938286E+02 -0.18055429136E+02 -0.16574330109E+01  0.47787270023E+02  0.19999995345E+02 0.  0.
        -12    1    1    2    0    0 -0.39431938286E+02  0.18055429136E+02  0.16574330109E+01  0.43400729977E+02  0.00000000000E+00 0.  1.
         11    1    3    3    0    0 -0.84026683660E+00  0.36465618954E-01 -0.91552864008E+00  0.12432099782E+01  0.51100000000E-03 0. -1.
        -11    1    3    3    0    0  0.41378338672E+02 -0.17577668069E+02  0.27192748324E+00  0.44957927786E+02  0.51100000000E-03 0.  1.
        -12    1    3    3    0    0 -0.11061335495E+01 -0.51422668681E+00 -0.10138318540E+01  0.15861322590E+01  0.00000000000E+00 0.  1.
</event>
<event>
 7    1  0.2685294E-009  0.4778727E+02  0.7816164E-02  0.1312668E+00
        -11   -1    0    0    0    0  0.00000000000E+00  0.00000000000E+00  0.45593999997E+02  0.45594000000E+02  0.51100000000E-03 0.  1.
         11   -1    0    0    0    0 -0.00000000000E+00 -0.00000000000E+00 -0.45593999997E+02  0.45594000000E+02  0.51100000000E-03 0. -1.
    9900012    2    1    2    0    0 -0.19602008774E+02 -0.17091500323E+02 -0.34745723031E+02  0.47787269589E+02  0.19999993366E+02 0.  0.
        -12    1    1    2    0    0  0.19602008774E+02  0.17091500323E+02  0.34745723031E+02  0.43400730411E+02  0.00000000000E+00 0.  1.
         11    1    3    3    0    0 -0.92681200269E+01 -0.12213449810E+02 -0.17628272646E+02  0.23362842332E+02  0.51100000000E-03 0. -1.
        -11    1    3    3    0    0 -0.11083284688E+02 -0.47081785714E+01 -0.18941467261E+02  0.22445162668E+02  0.51100000000E-03 0.  1.
        -12    1    3    3    0    0  0.74939594081E+00 -0.16987194121E+00  0.18240168759E+01  0.19792645897E+01  0.00000000000E+00 0.  1.
</event>
<event>
 7    1  0.2685294E-009  0.4778727E+02  0.7816164E-02  0.1312668E+00
        -11   -1    0    0    0    0  0.00000000000E+00  0.00000000000E+00  0.45593999997E+02  0.45594000000E+02  0.51100000000E-03 0. -1.
         11   -1    0    0    0    0 -0.00000000000E+00 -0.00000000000E+00 -0.45593999997E+02  0.45594000000E+02  0.51100000000E-03 0.  1.
    9900012    2    1    2    0    0  0.32008832481E+02 -0.28933135105E+02 -0.46831443356E+01  0.47787268386E+02  0.19999987877E+02 0.  0.
        -12    1    1    2    0    0 -0.32008832481E+02  0.28933135105E+02  0.46831443356E+01  0.43400731614E+02  0.00000000000E+00 0.  1.
         11    1    3    3    0    0  0.13332393717E+02 -0.12962584797E+02  0.27269778934E+01  0.18794087782E+02  0.51100000000E-03 0. -1.
        -11    1    3    3    0    0  0.18652947224E+02 -0.11376962284E+02 -0.96471524791E+01  0.23883786596E+02  0.51100000000E-03 0.  1.
        -12    1    3    3    0    0  0.23491539418E-01 -0.45935880233E+01  0.22370302501E+01  0.51093940071E+01  0.00000000000E+00 0.  1.
</event>
<event>
 7    1  0.2685294E-009  0.4778727E+02  0.7816164E-02  0.1312668E+00
        -11   -1    0    0    0    0  0.00000000000E+00  0.00000000000E+00  0.45593999997E+02  0.45594000000E+02  0.51100000000E-03 0. -1.
         11   -1    0    0    0    0 -0.00000000000E+00 -0.00000000000E+00 -0.45593999997E+02  0.45594000000E+02  0.51100000000E-03 0.  1.
    9900012    2    1    2    0    0  0.10346040582E+02 -0.42069110192E+02 -0.26023858291E+01  0.47787274199E+02  0.20000014383E+02 0.  0.
        -12    1    1    2    0    0 -0.10346040582E+02  0.42069110192E+02  0.26023858291E+01  0.43400725801E+02  0.00000000000E+00 0.  1.
         11    1    3    3    0    0  0.30665301053E+01 -0.13750354528E+02 -0.86181875454E+01  0.16515114694E+02  0.51100000000E-03 0. -1.
        -11    1    3    3    0    0  0.83167979964E+00 -0.20283482045E+02  0.50854235962E+01  0.20927801332E+02  0.51100000000E-03 0.  1.
        -12    1    3    3    0    0  0.64478306774E+01 -0.80352736180E+01  0.93037812014E+00  0.10344358173E+02  0.00000000000E+00 0.  1.
</event>
<event>
 7    1  0.2685294E-009  0.4778727E+02  0.7816164E-02  0.1312668E+00
        -11   -1    0    0    0    0  0.00000000000E+00  0.00000000000E+00  0.45593999997E+02  0.45594000000E+02  0.51100000000E-03 0.  1.
         11   -1    0    0    0    0 -0.00000000000E+00 -0.00000000000E+00 -0.45593999997E+02  0.45594000000E+02  0.51100000000E-03 0. -1.
    9900012    2    1    2    0    0 -0.12856670888E+02 -0.11089708576E+02 -0.39941800758E+02  0.47787273389E+02  0.20000010689E+02 0.  0.
        -12    1    1    2    0    0  0.12856670888E+02  0.11089708576E+02  0.39941800758E+02  0.43400726611E+02  0.00000000000E+00 0.  1.
         11    1    3    3    0    0 -0.29061201369E+01 -0.10017408968E+02 -0.20408286922E+02  0.22919253741E+02  0.51100000000E-03 0. -1.
        -11    1    3    3    0    0 -0.45401613417E+01  0.37825104961E+01 -0.15424733559E+02  0.16517955573E+02  0.51100000000E-03 0.  1.
         12    1    3    3    0    0 -0.54103894091E+01 -0.48548101041E+01 -0.41087802764E+01  0.83500640755E+01  0.00000000000E+00 0. -1.
</event>
<event>
 7    1  0.2685294E-009  0.4778727E+02  0.7816164E-02  0.1312668E+00
        -11   -1    0    0    0    0  0.00000000000E+00  0.00000000000E+00  0.45593999997E+02  0.45594000000E+02  0.51100000000E-03 0. -1.
         11   -1    0    0    0    0 -0.00000000000E+00 -0.00000000000E+00 -0.45593999997E+02  0.45594000000E+02  0.51100000000E-03 0.  1.
    9900012    2    1    2    0    0  0.34404780387E+02 -0.26326848840E+02 -0.26136990522E+01  0.47787270674E+02  0.19999998311E+02 0.  0.
        -12    1    1    2    0    0 -0.34404780387E+02  0.26326848840E+02  0.26136990522E+01  0.43400729326E+02  0.00000000000E+00 0.  1.
         11    1    3    3    0    0  0.29796737013E+02 -0.27327748905E+02 -0.57103608778E+01  0.40832090548E+02  0.51100000000E-03 0. -1.
        -11    1    3    3    0    0  0.42392093821E+01  0.23227998872E+01  0.26460457756E+01  0.55107035856E+01  0.51100000000E-03 0.  1.
         12    1    3    3    0    0  0.36883399116E+00 -0.13218998220E+01  0.45061605004E+00  0.14444765408E+01  0.00000000000E+00 0. -1.
</event>
<event>
 7    1  0.2685294E-009  0.4778729E+02  0.7816164E-02  0.1312668E+00
        -11   -1    0    0    0    0  0.00000000000E+00  0.00000000000E+00  0.45593999997E+02  0.45594000000E+02  0.51100000000E-03 0.  1.
         11   -1    0    0    0    0 -0.00000000000E+00 -0.00000000000E+00 -0.45593999997E+02  0.45594000000E+02  0.51100000000E-03 0. -1.
    9900012    2    1    2    0    0  0.34889864815E+02  0.90433075913E+01 -0.24177212225E+02  0.47787289522E+02  0.20000084248E+02 0.  0.
        -12    1    1    2    0    0 -0.34889864815E+02 -0.90433075913E+01  0.24177212225E+02  0.43400710478E+02  0.00000000000E+00 0.  1.
         11    1    3    3    0    0  0.10436104595E+02  0.43599906223E+01 -0.19088172036E+02  0.22187386265E+02  0.51100000000E-03 0. -1.
        -11    1    3    3    0    0  0.19191657262E+02  0.25201910233E+01 -0.45578268798E+01  0.19885795367E+02  0.51100000000E-03 0.  1.
         12    1    3    3    0    0  0.52621029581E+01  0.21631259456E+01 -0.53121330894E+00  0.57141078900E+01  0.00000000000E+00 0. -1.
</event>
<event>
 7    1  0.2685294E-009  0.4778727E+02  0.7816164E-02  0.1312668E+00
        -11   -1    0    0    0    0  0.00000000000E+00  0.00000000000E+00  0.45593999997E+02  0.45594000000E+02  0.51100000000E-03 0.  1.
         11   -1    0    0    0    0 -0.00000000000E+00 -0.00000000000E+00 -0.45593999997E+02  0.45594000000E+02  0.51100000000E-03 0. -1.
    9900012    2    1    2    0    0 -0.28764114714E+02 -0.11116744461E+02 -0.30539594212E+02  0.47787272848E+02  0.20000008221E+02 0.  0.
        -12    1    1    2    0    0  0.28764114714E+02  0.11116744461E+02  0.30539594212E+02  0.43400727152E+02  0.00000000000E+00 0.  1.
         11    1    3    3    0    0 -0.12061658565E+02 -0.28806499934E+01 -0.99172507696E+01  0.15878715780E+02  0.51100000000E-03 0. -1.
        -11    1    3    3    0    0 -0.13532910987E+02 -0.12173718516E+02 -0.19604865031E+02  0.26752379996E+02  0.51100000000E-03 0.  1.
        -12    1    3    3    0    0 -0.31695451617E+01  0.39376240485E+01 -0.10174784120E+01  0.51561770721E+01  0.00000000000E+00 0.  1.
</event>
<event>
 7    1  0.2685294E-009  0.4778727E+02  0.7816164E-02  0.1312668E+00
        -11   -1    0    0    0    0  0.00000000000E+00  0.00000000000E+00  0.45593999997E+02  0.45594000000E+02  0.51100000000E-03 0.  1.
         11   -1    0    0    0    0 -0.00000000000E+00 -0.00000000000E+00 -0.45593999997E+02  0.45594000000E+02  0.51100000000E-03 0. -1.
    9900012    2    1    2    0    0  0.32454722187E+00  0.60029605504E+01 -0.42982346698E+02  0.47787274269E+02  0.20000014702E+02 0.  0.
        -12    1    1    2    0    0 -0.32454722187E+00 -0.60029605504E+01  0.42982346698E+02  0.43400725731E+02  0.00000000000E+00 0.  1.
         11    1    3    3    0    0  0.62005257758E+01  0.66565655742E+01 -0.23153100374E+02  0.24876142030E+02  0.51100000000E-03 0. -1.
        -11    1    3    3    0    0  0.13999906841E+01  0.13817400226E+01 -0.32371576632E+00  0.19934822708E+01  0.51100000000E-03 0.  1.
         12    1    3    3    0    0 -0.72759692380E+01 -0.20353450463E+01 -0.19505530559E+02  0.20917649968E+02  0.00000000000E+00 0. -1.
</event>
<event>
 7    1  0.2685294E-009  0.4778727E+02  0.7816164E-02  0.1312668E+00
        -11   -1    0    0    0    0  0.00000000000E+00  0.00000000000E+00  0.45593999997E+02  0.45594000000E+02  0.51100000000E-03 0.  1.
         11   -1    0    0    0    0 -0.00000000000E+00 -0.00000000000E+00 -0.45593999997E+02  0.45594000000E+02  0.51100000000E-03 0. -1.
    9900012    2    1    2    0    0 -0.34565633643E+02 -0.20510039324E+02  0.16376149928E+02  0.47787273869E+02  0.20000012878E+02 0.  0.
        -12    1    1    2    0    0  0.34565633643E+02  0.20510039324E+02 -0.16376149928E+02  0.43400726131E+02  0.00000000000E+00 0.  1.
         11    1    3    3    0    0 -0.30073833869E+01  0.24676642232E+01 -0.15185639303E+00  0.38931712240E+01  0.51100000000E-03 0. -1.
        -11    1    3    3    0    0 -0.29278330728E+02 -0.17123515289E+02  0.16238789402E+02  0.37604969187E+02  0.51100000000E-03 0.  1.
        -12    1    3    3    0    0 -0.22799195281E+01 -0.58541882588E+01  0.28921691983E+00  0.62891334579E+01  0.00000000000E+00 0.  1.
</event>
<event>
 7    1  0.2685294E-009  0.4778727E+02  0.7816164E-02  0.1312668E+00
        -11   -1    0    0    0    0  0.00000000000E+00  0.00000000000E+00  0.45593999997E+02  0.45594000000E+02  0.51100000000E-03 0.  1.
         11   -1    0    0    0    0 -0.00000000000E+00 -0.00000000000E+00 -0.45593999997E+02  0.45594000000E+02  0.51100000000E-03 0. -1.
    9900012    2    1    2    0    0 -0.20671103417E+02  0.22630189040E+02 -0.30727891795E+02  0.47787270667E+02  0.19999998280E+02 0.  0.
        -12    1    1    2    0    0  0.20671103417E+02 -0.22630189040E+02  0.30727891795E+02  0.43400729333E+02  0.00000000000E+00 0.  1.
         11    1    3    3    0    0 -0.64919243568E+01 -0.13595463045E+01 -0.12048906640E+02  0.13753893976E+02  0.51100000000E-03 0. -1.
        -11    1    3    3    0    0 -0.60275637638E+01  0.15439941258E+02 -0.12002265987E+02  0.20464058739E+02  0.51100000000E-03 0.  1.
         12    1    3    3    0    0 -0.81516152964E+01  0.85497940862E+01 -0.66767191682E+01  0.13569317953E+02  0.00000000000E+00 0. -1.
</event>
<event>
 7    1  0.2685294E-009  0.4778726E+02  0.7816164E-02  0.1312668E+00
        -11   -1    0    0    0    0  0.00000000000E+00  0.00000000000E+00  0.45593999997E+02  0.45594000000E+02  0.51100000000E-03 0. -1.
         11   -1    0    0    0    0 -0.00000000000E+00 -0.00000000000E+00 -0.45593999997E+02  0.45594000000E+02  0.51100000000E-03 0.  1.
    9900012    2    1    2    0    0 -0.34462629295E+02 -0.19836897206E+02  0.17391047677E+02  0.47787264430E+02  0.19999969842E+02 0.  0.
        -12    1    1    2    0    0  0.34462629295E+02  0.19836897206E+02 -0.17391047677E+02  0.43400735570E+02  0.00000000000E+00 0.  1.
         11    1    3    3    0    0 -0.19747255122E+02 -0.12372365932E+01  0.52054093026E+01  0.20459255253E+02  0.51100000000E-03 0. -1.
        -11    1    3    3    0    0 -0.32531141029E+01 -0.85738088453E+01  0.36436709950E+01  0.98675877530E+01  0.51100000000E-03 0.  1.
         12    1    3    3    0    0 -0.11462260070E+02 -0.10025851768E+02  0.85419673796E+01  0.17460421424E+02  0.00000000000E+00 0. -1.
</event>
<event>
 7    1  0.2685294E-009  0.4778727E+02  0.7816164E-02  0.1312668E+00
        -11   -1    0    0    0    0  0.00000000000E+00  0.00000000000E+00  0.45593999997E+02  0.45594000000E+02  0.51100000000E-03 0.  1.
         11   -1    0    0    0    0 -0.00000000000E+00 -0.00000000000E+00 -0.45593999997E+02  0.45594000000E+02  0.51100000000E-03 0. -1.
    9900012    2    1    2    0    0 -0.58266168136E+01 -0.67183400378E+01 -0.42479853049E+02  0.47787268768E+02  0.19999989622E+02 0.  0.
        -12    1    1    2    0    0  0.58266168136E+01  0.67183400378E+01  0.42479853049E+02  0.43400731232E+02  0.00000000000E+00 0.  1.
         11    1    3    3    0    0 -0.29177901907E+01  0.11595581005E+01 -0.19023851310E+02  0.19281208300E+02  0.51100000000E-03 0. -1.
        -11    1    3    3    0    0  0.19829329293E+01  0.20567347085E+01 -0.34330934048E+00  0.28775062516E+01  0.51100000000E-03 0.  1.
        -12    1    3    3    0    0 -0.48917595523E+01 -0.99346328468E+01 -0.23112692399E+02  0.25628554217E+02  0.00000000000E+00 0.  1.
</event>
<event>
 7    1  0.2685294E-009  0.4778727E+02  0.7816164E-02  0.1312668E+00
        -11   -1    0    0    0    0  0.00000000000E+00  0.00000000000E+00  0.45593999997E+02  0.45594000000E+02  0.51100000000E-03 0.  1.
         11   -1    0    0    0    0 -0.00000000000E+00 -0.00000000000E+00 -0.45593999997E+02  0.45594000000E+02  0.51100000000E-03 0. -1.
    9900012    2    1    2    0    0 -0.14123967144E+02  0.74647762679E+01 -0.40353612976E+02  0.47787269444E+02  0.19999992702E+02 0.  0.
        -12    1    1    2    0    0  0.14123967144E+02 -0.74647762679E+01  0.40353612976E+02  0.43400730556E+02  0.00000000000E+00 0.  1.
         11    1    3    3    0    0 -0.10996486333E+02  0.40649522030E+01 -0.16329226169E+02  0.20101994319E+02  0.51100000000E-03 0. -1.
        -11    1    3    3    0    0 -0.49693796345E+01  0.12092226361E+00 -0.20262304246E+01  0.53679573527E+01  0.51100000000E-03 0.  1.
         12    1    3    3    0    0  0.18418988236E+01  0.32789018013E+01 -0.21998156383E+02  0.22317317772E+02  0.00000000000E+00 0. -1.
</event>
<event>
 7    1  0.2685294E-009  0.4778727E+02  0.7816164E-02  0.1312668E+00
        -11   -1    0    0    0    0  0.00000000000E+00  0.00000000000E+00  0.45593999997E+02  0.45594000000E+02  0.51100000000E-03 0.  1.
         11   -1    0    0    0    0 -0.00000000000E+00 -0.00000000000E+00 -0.45593999997E+02  0.45594000000E+02  0.51100000000E-03 0. -1.
    9900012    2    1    2    0    0 -0.16273890457E+02  0.30397456492E+02 -0.26358648816E+02  0.47787271444E+02  0.20000001820E+02 0.  0.
        -12    1    1    2    0    0  0.16273890457E+02 -0.30397456492E+02  0.26358648816E+02  0.43400728556E+02  0.00000000000E+00 0.  1.
         11    1    3    3    0    0 -0.99846961319E+01  0.10610262634E+02 -0.19919663222E+02  0.24679238504E+02  0.51100000000E-03 0. -1.
        -11    1    3    3    0    0 -0.81638998797E+01  0.16395829923E+02 -0.54280189835E+01  0.19103295277E+02  0.51100000000E-03 0.  1.
        -12    1    3    3    0    0  0.18747055542E+01  0.33913639358E+01 -0.10109666113E+01  0.40047376630E+01  0.00000000000E+00 0.  1.
</event>
<event>
 7    1  0.2685294E-009  0.4778727E+02  0.7816164E-02  0.1312668E+00
        -11   -1    0    0    0    0  0.00000000000E+00  0.00000000000E+00  0.45593999997E+02  0.45594000000E+02  0.51100000000E-03 0. -1.
         11   -1    0    0    0    0 -0.00000000000E+00 -0.00000000000E+00 -0.45593999997E+02  0.45594000000E+02  0.51100000000E-03 0.  1.
    9900012    2    1    2    0    0 -0.20142896063E+02 -0.37042758325E+02  0.10282080596E+02  0.47787269736E+02  0.19999994032E+02 0.  0.
        -12    1    1    2    0    0  0.20142896063E+02  0.37042758325E+02 -0.10282080596E+02  0.43400730264E+02  0.00000000000E+00 0.  1.
         11    1    3    3    0    0 -0.61558749717E+01 -0.95685898858E+01  0.24633510836E+01  0.11641340468E+02  0.51100000000E-03 0. -1.
        -11    1    3    3    0    0 -0.12771583255E+02 -0.66846235546E+01  0.41454150210E+01  0.14999399884E+02  0.51100000000E-03 0.  1.
        -12    1    3    3    0    0 -0.12154378360E+01 -0.20789544884E+02  0.36733144916E+01  0.21146529384E+02  0.00000000000E+00 0.  1.
</event>
<event>
 7    1  0.2685294E-009  0.4778726E+02  0.7816164E-02  0.1312668E+00
        -11   -1    0    0    0    0  0.00000000000E+00  0.00000000000E+00  0.45593999997E+02  0.45594000000E+02  0.51100000000E-03 0.  1.
         11   -1    0    0    0    0 -0.00000000000E+00 -0.00000000000E+00 -0.45593999997E+02  0.45594000000E+02  0.51100000000E-03 0. -1.
    9900012    2    1    2    0    0  0.38279031718E+01 -0.24997464301E+02 -0.35271779958E+02  0.47787256624E+02  0.19999934250E+02 0.  0.
        -12    1    1    2    0    0 -0.38279031718E+01  0.24997464301E+02  0.35271779958E+02  0.43400743376E+02  0.00000000000E+00 0.  1.
         11    1    3    3    0    0  0.40840104152E+01 -0.63421085963E+01 -0.23640788932E+02  0.24815083802E+02  0.51100000000E-03 0. -1.
        -11    1    3    3    0    0  0.18870450948E+01 -0.12496936678E+01 -0.15624899935E+01  0.27502815663E+01  0.51100000000E-03 0.  1.
         12    1    3    3    0    0 -0.21431523382E+01 -0.17405662037E+02 -0.10068501033E+02  0.20221891256E+02  0.00000000000E+00 0. -1.
</event>
<event>
 7    1  0.2685294E-009  0.4778727E+02  0.7816164E-02  0.1312668E+00
        -11   -1    0    0    0    0  0.00000000000E+00  0.00000000000E+00  0.45593999997E+02  0.45594000000E+02  0.51100000000E-03 0.  1.
         11   -1    0    0    0    0 -0.00000000000E+00 -0.00000000000E+00 -0.45593999997E+02  0.45594000000E+02  0.51100000000E-03 0. -1.
    9900012    2    1    2    0    0  0.33446759355E+02 -0.34234681208E+01 -0.27444809289E+02  0.47787269565E+02  0.19999993257E+02 0.  0.
        -12    1    1    2    0    0 -0.33446759355E+02  0.34234681208E+01  0.27444809289E+02  0.43400730435E+02  0.00000000000E+00 0.  1.
         11    1    3    3    0    0  0.19735933730E+02 -0.91263039630E+01 -0.22780260715E+02  0.31491852640E+02  0.51100000000E-03 0. -1.
        -11    1    3    3    0    0  0.13177850883E+02  0.42898636284E+01 -0.50274932624E+01  0.14742264840E+02  0.51100000000E-03 0.  1.
        -12    1    3    3    0    0  0.53297474220E+00  0.14129722138E+01  0.36294468838E+00  0.15531520851E+01  0.00000000000E+00 0.  1.
</event>
<event>
 7    1  0.2685294E-009  0.4778728E+02  0.7816164E-02  0.1312668E+00
        -11   -1    0    0    0    0  0.00000000000E+00  0.00000000000E+00  0.45593999997E+02  0.45594000000E+02  0.51100000000E-03 0. -1.
         11   -1    0    0    0    0 -0.00000000000E+00 -0.00000000000E+00 -0.45593999997E+02  0.45594000000E+02  0.51100000000E-03 0.  1.
    9900012    2    1    2    0    0 -0.32438268318E+02  0.28796794342E+02 -0.14579591231E+01  0.47787282717E+02  0.20000053220E+02 0.  0.
        -12    1    1    2    0    0  0.32438268318E+02 -0.28796794342E+02  0.14579591231E+01  0.43400717283E+02  0.00000000000E+00 0.  1.
         11    1    3    3    0    0 -0.17092328840E+02  0.67916611866E+01  0.54643935825E+01  0.19186817462E+02  0.51100000000E-03 0. -1.
        -11    1    3    3    0    0 -0.86440457808E+01  0.17934183966E+02 -0.49774368275E+01  0.20521436587E+02  0.51100000000E-03 0.  1.
         12    1    3    3    0    0 -0.67018936975E+01  0.40709491900E+01 -0.19449158780E+01  0.80790286676E+01  0.00000000000E+00 0. -1.
</event>
<event>
 7    1  0.2685294E-009  0.4778727E+02  0.7816164E-02  0.1312668E+00
        -11   -1    0    0    0    0  0.00000000000E+00  0.00000000000E+00  0.45593999997E+02  0.45594000000E+02  0.51100000000E-03 0.  1.
         11   -1    0    0    0    0 -0.00000000000E+00 -0.00000000000E+00 -0.45593999997E+02  0.45594000000E+02  0.51100000000E-03 0. -1.
    9900012    2    1    2    0    0 -0.37624717698E+02  0.10486595721E+02 -0.18921816775E+02  0.47787271645E+02  0.20000002738E+02 0.  0.
        -12    1    1    2    0    0  0.37624717698E+02 -0.10486595721E+02  0.18921816775E+02  0.43400728355E+02  0.00000000000E+00 0.  1.
         11    1    3    3    0    0 -0.17770838140E+02  0.26242801909E+01 -0.11285148134E+02  0.21214242937E+02  0.51100000000E-03 0. -1.
        -11    1    3    3    0    0 -0.18147930451E+01  0.65730103642E+01 -0.46235536783E+01  0.82386399316E+01  0.51100000000E-03 0.  1.
        -12    1    3    3    0    0 -0.18039086513E+02  0.12893051655E+01 -0.30131149631E+01  0.18334388777E+02  0.00000000000E+00 0.  1.
</event>
<event>
 7    1  0.2685294E-009  0.4778727E+02  0.7816164E-02  0.1312668E+00
        -11   -1    0    0    0    0  0.00000000000E+00  0.00000000000E+00  0.45593999997E+02  0.45594000000E+02  0.51100000000E-03 0. -1.
         11   -1    0    0    0    0 -0.00000000000E+00 -0.00000000000E+00 -0.45593999997E+02  0.45594000000E+02  0.51100000000E-03 0.  1.
    9900012    2    1    2    0    0  0.28685955636E+02 -0.25918349267E+02  0.19722528829E+02  0.47787273936E+02  0.20000013184E+02 0.  0.
        -12    1    1    2    0    0 -0.28685955636E+02  0.25918349267E+02 -0.19722528829E+02  0.43400726064E+02  0.00000000000E+00 0.  1.
         11    1    3    3    0    0  0.24806805990E+02 -0.26428638180E+02  0.11712872009E+02  0.38092544026E+02  0.51100000000E-03 0. -1.
        -11    1    3    3    0    0  0.69747683387E+00  0.18026731185E+01  0.20580283105E+01  0.28233995633E+01  0.51100000000E-03 0.  1.
         12    1    3    3    0    0  0.31816728124E+01 -0.12923842059E+01  0.59516285091E+01  0.68713303466E+01  0.00000000000E+00 0. -1.
</event>
<event>
 7    1  0.2685294E-009  0.4778727E+02  0.7816164E-02  0.1312668E+00
        -11   -1    0    0    0    0  0.00000000000E+00  0.00000000000E+00  0.45593999997E+02  0.45594000000E+02  0.51100000000E-03 0. -1.
         11   -1    0    0    0    0 -0.00000000000E+00 -0.00000000000E+00 -0.45593999997E+02  0.45594000000E+02  0.51100000000E-03 0.  1.
    9900012    2    1    2    0    0 -0.29827166003E+02 -0.21168356328E+02 -0.23363739962E+02  0.47787268596E+02  0.19999988837E+02 0.  0.
        -12    1    1    2    0    0  0.29827166003E+02  0.21168356328E+02  0.23363739962E+02  0.43400731404E+02  0.00000000000E+00 0.  1.
         11    1    3    3    0    0 -0.21675550916E+02 -0.91434253289E+01 -0.85599712415E+01  0.25034073623E+02  0.51100000000E-03 0. -1.
        -11    1    3    3    0    0 -0.29863047387E+01 -0.52274855711E+01 -0.12556337373E+02  0.13925021719E+02  0.51100000000E-03 0.  1.
         12    1    3    3    0    0 -0.51653103482E+01 -0.67974454279E+01 -0.22474313469E+01  0.88281732537E+01  0.00000000000E+00 0. -1.
</event>
<event>
 7    1  0.2685294E-009  0.4778727E+02  0.7816164E-02  0.1312668E+00
        -11   -1    0    0    0    0  0.00000000000E+00  0.00000000000E+00  0.45593999997E+02  0.45594000000E+02  0.51100000000E-03 0. -1.
         11   -1    0    0    0    0 -0.00000000000E+00 -0.00000000000E+00 -0.45593999997E+02  0.45594000000E+02  0.51100000000E-03 0.  1.
    9900012    2    1    2    0    0 -0.13762074295E+01  0.26225348164E+02  0.34553732737E+02  0.47787270982E+02  0.19999999715E+02 0.  0.
        -12    1    1    2    0    0  0.13762074295E+01 -0.26225348164E+02 -0.34553732737E+02  0.43400729018E+02  0.00000000000E+00 0.  1.
         11    1    3    3    0    0 -0.59499981811E+01  0.23254635664E+02  0.30058312838E+02  0.38466644371E+02  0.51100000000E-03 0. -1.
        -11    1    3    3    0    0  0.46452739427E+01  0.18979979164E+00  0.45954065872E+01  0.65369990001E+01  0.51100000000E-03 0.  1.
         12    1    3    3    0    0 -0.71483191207E-01  0.27809127084E+01 -0.99986688183E-01  0.27836276109E+01  0.00000000000E+00 0. -1.
</event>
<event>
 7    1  0.2685294E-009  0.4778727E+02  0.7816164E-02  0.1312668E+00
        -11   -1    0    0    0    0  0.00000000000E+00  0.00000000000E+00  0.45593999997E+02  0.45594000000E+02  0.51100000000E-03 0.  1.
         11   -1    0    0    0    0 -0.00000000000E+00 -0.00000000000E+00 -0.45593999997E+02  0.45594000000E+02  0.51100000000E-03 0. -1.
    9900012    2    1    2    0    0  0.50034882454E+01  0.14522513668E+02 -0.40591687574E+02  0.47787269615E+02  0.19999993482E+02 0.  0.
        -12    1    1    2    0    0 -0.50034882454E+01 -0.14522513668E+02  0.40591687574E+02  0.43400730385E+02  0.00000000000E+00 0.  1.
         11    1    3    3    0    0  0.42111380472E+01  0.18379943565E+01 -0.26926043523E+02  0.27315265457E+02  0.51100000000E-03 0. -1.
        -11    1    3    3    0    0  0.12471646289E+01  0.13876261471E+02 -0.12881379023E+02  0.18974614037E+02  0.51100000000E-03 0.  1.
        -12    1    3    3    0    0 -0.45481443070E+00 -0.11917421601E+01 -0.78426502801E+00  0.14973901217E+01  0.00000000000E+00 0.  1.
</event>
<event>
 7    1  0.2685294E-009  0.4778727E+02  0.7816164E-02  0.1312668E+00
        -11   -1    0    0    0    0  0.00000000000E+00  0.00000000000E+00  0.45593999997E+02  0.45594000000E+02  0.51100000000E-03 0. -1.
         11   -1    0    0    0    0 -0.00000000000E+00 -0.00000000000E+00 -0.45593999997E+02  0.45594000000E+02  0.51100000000E-03 0.  1.
    9900012    2    1    2    0    0  0.52059527225E+01 -0.30313375310E+02  0.30620590173E+02  0.47787271792E+02  0.20000003409E+02 0.  0.
        -12    1    1    2    0    0 -0.52059527225E+01  0.30313375310E+02 -0.30620590173E+02  0.43400728208E+02  0.00000000000E+00 0.  1.
         11    1    3    3    0    0  0.49616772985E+01 -0.32081056698E+02  0.31621109439E+02  0.45317844199E+02  0.51100000000E-03 0. -1.
        -11    1    3    3    0    0  0.79705837805E+00  0.78451295011E+00 -0.37438356298E+00  0.11793752330E+01  0.51100000000E-03 0.  1.
         12    1    3    3    0    0 -0.55278295409E+00  0.98316843857E+00 -0.62613570223E+00  0.12900523596E+01  0.00000000000E+00 0. -1.
</event>
<event>
 7    1  0.2685294E-009  0.4778726E+02  0.7816164E-02  0.1312668E+00
        -11   -1    0    0    0    0  0.00000000000E+00  0.00000000000E+00  0.45593999997E+02  0.45594000000E+02  0.51100000000E-03 0. -1.
         11   -1    0    0    0    0 -0.00000000000E+00 -0.00000000000E+00 -0.45593999997E+02  0.45594000000E+02  0.51100000000E-03 0.  1.
    9900012    2    1    2    0    0  0.42797765547E+02 -0.62552843577E+01  0.35841992844E+01  0.47787264952E+02  0.19999972220E+02 0.  0.
        -12    1    1    2    0    0 -0.42797765547E+02  0.62552843577E+01 -0.35841992844E+01  0.43400735048E+02  0.00000000000E+00 0.  1.
         11    1    3    3    0    0  0.32200534139E+02 -0.29733011624E+01 -0.21819996364E+01  0.32411048137E+02  0.51100000000E-03 0. -1.
        -11    1    3    3    0    0  0.88376509940E+01  0.13039901904E+01  0.19193804191E+01  0.91372034542E+01  0.51100000000E-03 0.  1.
         12    1    3    3    0    0  0.17595804139E+01 -0.45859733857E+01  0.38468185017E+01  0.62390133605E+01  0.00000000000E+00 0. -1.
</event>
<event>
 7    1  0.2685294E-009  0.4778727E+02  0.7816164E-02  0.1312668E+00
        -11   -1    0    0    0    0  0.00000000000E+00  0.00000000000E+00  0.45593999997E+02  0.45594000000E+02  0.51100000000E-03 0.  1.
         11   -1    0    0    0    0 -0.00000000000E+00 -0.00000000000E+00 -0.45593999997E+02  0.45594000000E+02  0.51100000000E-03 0. -1.
    9900012    2    1    2    0    0  0.90367439548E+01 -0.37496191101E+02 -0.19899656553E+02  0.47787269369E+02  0.19999992360E+02 0.  0.
        -12    1    1    2    0    0 -0.90367439548E+01  0.37496191101E+02  0.19899656553E+02  0.43400730631E+02  0.00000000000E+00 0.  1.
         11    1    3    3    0    0  0.71174555757E+01 -0.21303933448E+02 -0.41787594727E+01  0.22846833155E+02  0.51100000000E-03 0. -1.
        -11    1    3    3    0    0  0.27013620595E+01 -0.60313524225E+01 -0.50614543444E+00  0.66280277974E+01  0.51100000000E-03 0.  1.
         12    1    3    3    0    0 -0.78207368045E+00 -0.10160905230E+02 -0.15214751646E+02  0.18312408416E+02  0.00000000000E+00 0. -1.
</event>
<event>
 7    1  0.2685294E-009  0.4778727E+02  0.7816164E-02  0.1312668E+00
        -11   -1    0    0    0    0  0.00000000000E+00  0.00000000000E+00  0.45593999997E+02  0.45594000000E+02  0.51100000000E-03 0.  1.
         11   -1    0    0    0    0 -0.00000000000E+00 -0.00000000000E+00 -0.45593999997E+02  0.45594000000E+02  0.51100000000E-03 0. -1.
    9900012    2    1    2    0    0 -0.26194980954E+02  0.34600151329E+02  0.52515068216E+00  0.47787270946E+02  0.19999999553E+02 0.  0.
        -12    1    1    2    0    0  0.26194980954E+02 -0.34600151329E+02 -0.52515068216E+00  0.43400729054E+02  0.00000000000E+00 0.  1.
         11    1    3    3    0    0 -0.14276346251E+02  0.18448719242E+02 -0.62508646805E+01  0.24150416425E+02  0.51100000000E-03 0. -1.
        -11    1    3    3    0    0 -0.28523877819E+01 -0.87505566933E-01  0.38767730128E+01  0.48138490355E+01  0.51100000000E-03 0.  1.
        -12    1    3    3    0    0 -0.90662469203E+01  0.16238937653E+02  0.28992423499E+01  0.18823005486E+02  0.00000000000E+00 0.  1.
</event>
<event>
 7    1  0.2685294E-009  0.4778727E+02  0.7816164E-02  0.1312668E+00
        -11   -1    0    0    0    0  0.00000000000E+00  0.00000000000E+00  0.45593999997E+02  0.45594000000E+02  0.51100000000E-03 0. -1.
         11   -1    0    0    0    0 -0.00000000000E+00 -0.00000000000E+00 -0.45593999997E+02  0.45594000000E+02  0.51100000000E-03 0.  1.
    9900012    2    1    2    0    0  0.10871798845E+02  0.13667574637E+02  0.39731906214E+02  0.47787274453E+02  0.20000015541E+02 0.  0.
        -12    1    1    2    0    0 -0.10871798845E+02 -0.13667574637E+02 -0.39731906214E+02  0.43400725547E+02  0.00000000000E+00 0.  1.
         11    1    3    3    0    0  0.93734417375E+01  0.12922927413E+02  0.20423668047E+02  0.25922763736E+02  0.51100000000E-03 0. -1.
        -11    1    3    3    0    0  0.41354896594E+01 -0.33174762845E+01  0.84550048982E+01  0.99797310440E+01  0.51100000000E-03 0.  1.
         12    1    3    3    0    0 -0.26371325522E+01  0.40621235082E+01  0.10853233269E+02  0.11884779673E+02  0.00000000000E+00 0. -1.
</event>
<event>
 7    1  0.2685294E-009  0.4778726E+02  0.7816164E-02  0.1312668E+00
        -11   -1    0    0    0    0  0.00000000000E+00  0.00000000000E+00  0.45593999997E+02  0.45594000000E+02  0.51100000000E-03 0.  1.
         11   -1    0    0    0    0 -0.00000000000E+00 -0.00000000000E+00 -0.45593999997E+02  0.45594000000E+02  0.51100000000E-03 0. -1.
    9900012    2    1    2    0    0  0.16827858254E+02  0.23569106675E+02 -0.32325598228E+02  0.47787263789E+02  0.19999966919E+02 0.  0.
        -12    1    1    2    0    0 -0.16827858254E+02 -0.23569106675E+02  0.32325598228E+02  0.43400736211E+02  0.00000000000E+00 0.  1.
         11    1    3    3    0    0 -0.20019873550E+01  0.24846913944E+01 -0.99746574905E+01  0.10472604118E+02  0.51100000000E-03 0. -1.
        -11    1    3    3    0    0  0.27476823086E+01  0.64212298953E+01 -0.10278995071E+02  0.12427376689E+02  0.51100000000E-03 0.  1.
         12    1    3    3    0    0  0.16082163300E+02  0.14663185385E+02 -0.12071945666E+02  0.24887282982E+02  0.00000000000E+00 0. -1.
</event>
<event>
 7    1  0.2685294E-009  0.4778727E+02  0.7816164E-02  0.1312668E+00
        -11   -1    0    0    0    0  0.00000000000E+00  0.00000000000E+00  0.45593999997E+02  0.45594000000E+02  0.51100000000E-03 0.  1.
         11   -1    0    0    0    0 -0.00000000000E+00 -0.00000000000E+00 -0.45593999997E+02  0.45594000000E+02  0.51100000000E-03 0. -1.
    9900012    2    1    2    0    0 -0.39523388234E+02 -0.84483637856E+01 -0.15816141736E+02  0.47787269505E+02  0.19999992979E+02 0.  0.
        -12    1    1    2    0    0  0.39523388234E+02  0.84483637856E+01  0.15816141736E+02  0.43400730495E+02  0.00000000000E+00 0.  1.
         11    1    3    3    0    0 -0.11523630258E+02 -0.70837083763E+01 -0.51859865661E+01  0.14486802118E+02  0.51100000000E-03 0. -1.
        -11    1    3    3    0    0 -0.22637901986E+00 -0.19777367298E+01 -0.44013403628E+01  0.48305783591E+01  0.51100000000E-03 0.  1.
        -12    1    3    3    0    0 -0.27773378956E+02  0.61308132050E+00 -0.62288148068E+01  0.28469889028E+02  0.00000000000E+00 0.  1.
</event>
<event>
 7    1  0.2685294E-009  0.4778727E+02  0.7816164E-02  0.1312668E+00
        -11   -1    0    0    0    0  0.00000000000E+00  0.00000000000E+00  0.45593999997E+02  0.45594000000E+02  0.51100000000E-03 0.  1.
         11   -1    0    0    0    0 -0.00000000000E+00 -0.00000000000E+00 -0.45593999997E+02  0.45594000000E+02  0.51100000000E-03 0. -1.
    9900012    2    1    2    0    0 -0.31719026897E+02 -0.17087828459E+02 -0.24197782067E+02  0.47787271830E+02  0.20000003580E+02 0.  0.
        -12    1    1    2    0    0  0.31719026897E+02  0.17087828459E+02  0.24197782067E+02  0.43400728170E+02  0.00000000000E+00 0.  1.
         11    1    3    3    0    0 -0.46597166778E+01 -0.21111276986E+01 -0.61058336792E+01  0.79656151587E+01  0.51100000000E-03 0. -1.
        -11    1    3    3    0    0 -0.13538235172E+02 -0.82402401860E+00 -0.14620216467E+02  0.19942757004E+02  0.51100000000E-03 0.  1.
        -12    1    3    3    0    0 -0.13521075048E+02 -0.14152676742E+02 -0.34717319211E+01  0.19878899667E+02  0.00000000000E+00 0.  1.
</event>
<event>
 7    1  0.2685294E-009  0.4778727E+02  0.7816164E-02  0.1312668E+00
        -11   -1    0    0    0    0  0.00000000000E+00  0.00000000000E+00  0.45593999997E+02  0.45594000000E+02  0.51100000000E-03 0.  1.
         11   -1    0    0    0    0 -0.00000000000E+00 -0.00000000000E+00 -0.45593999997E+02  0.45594000000E+02  0.51100000000E-03 0. -1.
    9900012    2    1    2    0    0 -0.27557222749E+02 -0.30357535477E+02 -0.14235260624E+02  0.47787272691E+02  0.20000007509E+02 0.  0.
        -12    1    1    2    0    0  0.27557222749E+02  0.30357535477E+02  0.14235260624E+02  0.43400727309E+02  0.00000000000E+00 0.  1.
         11    1    3    3    0    0 -0.12886043801E+02 -0.16273530698E+02 -0.14517648884E+02  0.25330614987E+02  0.51100000000E-03 0. -1.
        -11    1    3    3    0    0 -0.62244186527E+01 -0.74413016563E+01  0.47709627309E+01  0.10811033417E+02  0.51100000000E-03 0.  1.
        -12    1    3    3    0    0 -0.84467602953E+01 -0.66427031226E+01 -0.44885744707E+01  0.11645624287E+02  0.00000000000E+00 0.  1.
</event>
<event>
 7    1  0.2685294E-009  0.4778727E+02  0.7816164E-02  0.1312668E+00
        -11   -1    0    0    0    0  0.00000000000E+00  0.00000000000E+00  0.45593999997E+02  0.45594000000E+02  0.51100000000E-03 0.  1.
         11   -1    0    0    0    0 -0.00000000000E+00 -0.00000000000E+00 -0.45593999997E+02  0.45594000000E+02  0.51100000000E-03 0. -1.
    9900012    2    1    2    0    0 -0.18883162459E+02 -0.21356934135E+01 -0.39019076581E+02  0.47787270190E+02  0.19999996104E+02 0.  0.
        -12    1    1    2    0    0  0.18883162459E+02  0.21356934135E+01  0.39019076581E+02  0.43400729810E+02  0.00000000000E+00 0.  1.
         11    1    3    3    0    0 -0.10514385063E+02 -0.74699921522E+01 -0.28042154493E+02  0.30866089886E+02  0.51100000000E-03 0.  1.
        -11    1    3    3    0    0 -0.27936042992E+01  0.51720344882E+01 -0.94658959949E+01  0.11142591843E+02  0.51100000000E-03 0. -1.
         12    1    3    3    0    0 -0.55751730967E+01  0.16226425047E+00 -0.15110260932E+01  0.57785884609E+01  0.00000000000E+00 0. -1.
</event>
<event>
 7    1  0.2685294E-009  0.4778727E+02  0.7816164E-02  0.1312668E+00
        -11   -1    0    0    0    0  0.00000000000E+00  0.00000000000E+00  0.45593999997E+02  0.45594000000E+02  0.51100000000E-03 0.  1.
         11   -1    0    0    0    0 -0.00000000000E+00 -0.00000000000E+00 -0.45593999997E+02  0.45594000000E+02  0.51100000000E-03 0. -1.
    9900012    2    1    2    0    0  0.21218189067E+02  0.36194325813E+02  0.11107753539E+02  0.47787274694E+02  0.20000016640E+02 0.  0.
        -12    1    1    2    0    0 -0.21218189067E+02 -0.36194325813E+02 -0.11107753539E+02  0.43400725306E+02  0.00000000000E+00 0.  1.
         11    1    3    3    0    0  0.11210125690E+02  0.16106613470E+02 -0.38163613748E+01  0.19991361381E+02  0.51100000000E-03 0. -1.
        -11    1    3    3    0    0  0.10045818998E+02  0.17462404373E+02  0.15081584204E+02  0.25165615991E+02  0.51100000000E-03 0.  1.
        -12    1    3    3    0    0 -0.37755621291E-01  0.26253079700E+01 -0.15746928986E+00  0.26302973219E+01  0.00000000000E+00 0.  1.
</event>
<event>
 7    1  0.2685294E-009  0.4778727E+02  0.7816164E-02  0.1312668E+00
        -11   -1    0    0    0    0  0.00000000000E+00  0.00000000000E+00  0.45593999997E+02  0.45594000000E+02  0.51100000000E-03 0.  1.
         11   -1    0    0    0    0 -0.00000000000E+00 -0.00000000000E+00 -0.45593999997E+02  0.45594000000E+02  0.51100000000E-03 0. -1.
    9900012    2    1    2    0    0  0.12707554202E+02  0.27213093089E+02 -0.31330319178E+02  0.47787271100E+02  0.20000000253E+02 0.  0.
        -12    1    1    2    0    0 -0.12707554202E+02 -0.27213093089E+02  0.31330319178E+02  0.43400728900E+02  0.00000000000E+00 0.  1.
         11    1    3    3    0    0  0.46450604916E+01  0.11283940273E+02 -0.23892886315E+02  0.26828602493E+02  0.51100000000E-03 0. -1.
        -11    1    3    3    0    0  0.76098021931E+01  0.69806274374E+01 -0.21274703686E+01  0.10543451962E+02  0.51100000000E-03 0.  1.
        -12    1    3    3    0    0  0.45269151692E+00  0.89485253786E+01 -0.53099624950E+01  0.10415216645E+02  0.00000000000E+00 0.  1.
</event>
<event>
 7    1  0.2685294E-009  0.4778727E+02  0.7816164E-02  0.1312668E+00
        -11   -1    0    0    0    0  0.00000000000E+00  0.00000000000E+00  0.45593999997E+02  0.45594000000E+02  0.51100000000E-03 0.  1.
         11   -1    0    0    0    0 -0.00000000000E+00 -0.00000000000E+00 -0.45593999997E+02  0.45594000000E+02  0.51100000000E-03 0. -1.
    9900012    2    1    2    0    0 -0.11664587923E+01 -0.26459964569E+02 -0.34382161389E+02  0.47787269903E+02  0.19999994797E+02 0.  0.
        -12    1    1    2    0    0  0.11664587923E+01  0.26459964569E+02  0.34382161389E+02  0.43400730097E+02  0.00000000000E+00 0.  1.
         11    1    3    3    0    0  0.11545583775E+01 -0.32270308292E+01 -0.32662467112E+01  0.47344588771E+01  0.51100000000E-03 0. -1.
        -11    1    3    3    0    0  0.10765136627E+01 -0.24738047617E+02 -0.30500407480E+02  0.39286190173E+02  0.51100000000E-03 0.  1.
        -12    1    3    3    0    0 -0.33975308324E+01  0.15051138772E+01 -0.61550719796E+00  0.37666208531E+01  0.00000000000E+00 0.  1.
</event>
<event>
 7    1  0.2685294E-009  0.4778727E+02  0.7816164E-02  0.1312668E+00
        -11   -1    0    0    0    0  0.00000000000E+00  0.00000000000E+00  0.45593999997E+02  0.45594000000E+02  0.51100000000E-03 0.  1.
         11   -1    0    0    0    0 -0.00000000000E+00 -0.00000000000E+00 -0.45593999997E+02  0.45594000000E+02  0.51100000000E-03 0. -1.
    9900012    2    1    2    0    0  0.34138213162E+02 -0.23749299937E+02  0.12416781965E+02  0.47787270516E+02  0.19999997589E+02 0.  0.
        -12    1    1    2    0    0 -0.34138213162E+02  0.23749299937E+02 -0.12416781965E+02  0.43400729484E+02  0.00000000000E+00 0.  1.
         11    1    3    3    0    0  0.11897170725E+02 -0.40598850240E+01  0.31192022428E+01  0.12952017625E+02  0.51100000000E-03 0. -1.
        -11    1    3    3    0    0  0.21218309962E+02 -0.21749205072E+02  0.62562632385E+01  0.31022337580E+02  0.51100000000E-03 0.  1.
        -12    1    3    3    0    0  0.10227324747E+01  0.20597901587E+01  0.30413164841E+01  0.38129153110E+01  0.00000000000E+00 0.  1.
</event>
<event>
 7    1  0.2685294E-009  0.4778725E+02  0.7816164E-02  0.1312668E+00
        -11   -1    0    0    0    0  0.00000000000E+00  0.00000000000E+00  0.45593999997E+02  0.45594000000E+02  0.51100000000E-03 0. -1.
         11   -1    0    0    0    0 -0.00000000000E+00 -0.00000000000E+00 -0.45593999997E+02  0.45594000000E+02  0.51100000000E-03 0.  1.
    9900012    2    1    2    0    0  0.31137995529E+02  0.45621724996E+01 -0.29887067110E+02  0.47787251575E+02  0.19999911229E+02 0.  0.
        -12    1    1    2    0    0 -0.31137995529E+02 -0.45621724996E+01  0.29887067110E+02  0.43400748425E+02  0.00000000000E+00 0.  1.
         11    1    3    3    0    0  0.13910743244E+01 -0.57594238313E-01  0.85043812967E+00  0.16314564492E+01  0.51100000000E-03 0. -1.
        -11    1    3    3    0    0  0.75261596001E+01 -0.56744606588E+01 -0.51635648687E+01  0.10747324528E+02  0.51100000000E-03 0.  1.
        -12    1    3    3    0    0  0.22220761604E+02  0.10294227397E+02 -0.25573940371E+02  0.35408470597E+02  0.00000000000E+00 0.  1.
</event>
<event>
 7    1  0.2685294E-009  0.4778727E+02  0.7816164E-02  0.1312668E+00
        -11   -1    0    0    0    0  0.00000000000E+00  0.00000000000E+00  0.45593999997E+02  0.45594000000E+02  0.51100000000E-03 0.  1.
         11   -1    0    0    0    0 -0.00000000000E+00 -0.00000000000E+00 -0.45593999997E+02  0.45594000000E+02  0.51100000000E-03 0. -1.
    9900012    2    1    2    0    0  0.34718775873E+02  0.11099562489E+02 -0.23559064715E+02  0.47787271713E+02  0.20000003050E+02 0.  0.
        -12    1    1    2    0    0 -0.34718775873E+02 -0.11099562489E+02  0.23559064715E+02  0.43400728287E+02  0.00000000000E+00 0.  1.
         11    1    3    3    0    0  0.12511658230E+02  0.14285165153E+02 -0.99480941116E+01  0.21437633074E+02  0.51100000000E-03 0. -1.
        -11    1    3    3    0    0  0.10353994679E+02 -0.20088509527E+01 -0.51372822178E+01  0.11731681755E+02  0.51100000000E-03 0.  1.
         12    1    3    3    0    0  0.11853122964E+02 -0.11767517116E+01 -0.84736883856E+01  0.14617956884E+02  0.00000000000E+00 0. -1.
</event>
<event>
 7    1  0.2965717E-009  0.4778727E+02  0.7816164E-02  0.1312668E+00
        -11   -1    0    0    0    0  0.00000000000E+00  0.00000000000E+00  0.45593999997E+02  0.45594000000E+02  0.51100000000E-03 0.  1.
         11   -1    0    0    0    0 -0.00000000000E+00 -0.00000000000E+00 -0.45593999997E+02  0.45594000000E+02  0.51100000000E-03 0. -1.
    9900012    2    1    2    0    0 -0.14670514176E+02  0.35462146887E+02 -0.20269078813E+02  0.47787269546E+02  0.19999993169E+02 0.  0.
        -12    1    1    2    0    0  0.14670514176E+02 -0.35462146887E+02  0.20269078813E+02  0.43400730454E+02  0.00000000000E+00 0.  1.
         11    1    3    3    0    0 -0.10295643723E+02  0.25393747365E+02 -0.10633637277E+02  0.29392463778E+02  0.51100000000E-03 0. -1.
        -11    1    3    3    0    0 -0.57448787225E+01  0.19206237535E+01 -0.78954692963E+01  0.99514251647E+01  0.51100000000E-03 0.  1.
        -12    1    3    3    0    0  0.13700082694E+01  0.81477757684E+01 -0.17399722390E+01  0.84433806039E+01  0.00000000000E+00 0.  1.
</event>
<event>
 7    1  0.2685294E-009  0.4778727E+02  0.7816164E-02  0.1312668E+00
        -11   -1    0    0    0    0  0.00000000000E+00  0.00000000000E+00  0.45593999997E+02  0.45594000000E+02  0.51100000000E-03 0.  1.
         11   -1    0    0    0    0 -0.00000000000E+00 -0.00000000000E+00 -0.45593999997E+02  0.45594000000E+02  0.51100000000E-03 0. -1.
    9900012    2    1    2    0    0 -0.20293515875E+02  0.90607140448E+01 -0.37278679000E+02  0.47787271509E+02  0.20000002118E+02 0.  0.
        -12    1    1    2    0    0  0.20293515875E+02 -0.90607140448E+01  0.37278679000E+02  0.43400728491E+02  0.00000000000E+00 0.  1.
         11    1    3    3    0    0 -0.47266061987E+01  0.10294898245E+02 -0.23954562128E+02  0.26498052439E+02  0.51100000000E-03 0. -1.
        -11    1    3    3    0    0 -0.77825668810E-01 -0.18171073918E+00  0.47733854701E+00  0.51665073023E+00  0.51100000000E-03 0.  1.
         12    1    3    3    0    0 -0.15489084007E+02 -0.10524734606E+01 -0.13801455419E+02  0.20772568340E+02  0.00000000000E+00 0. -1.
</event>
<event>
 7    1  0.2685294E-009  0.4778727E+02  0.7816164E-02  0.1312668E+00
        -11   -1    0    0    0    0  0.00000000000E+00  0.00000000000E+00  0.45593999997E+02  0.45594000000E+02  0.51100000000E-03 0.  1.
         11   -1    0    0    0    0 -0.00000000000E+00 -0.00000000000E+00 -0.45593999997E+02  0.45594000000E+02  0.51100000000E-03 0. -1.
    9900012    2    1    2    0    0 -0.10388831756E+02  0.30259871830E+02 -0.29326363965E+02  0.47787270838E+02  0.19999999058E+02 0.  0.
        -12    1    1    2    0    0  0.10388831756E+02 -0.30259871830E+02  0.29326363965E+02  0.43400729162E+02  0.00000000000E+00 0.  1.
         11    1    3    3    0    0 -0.74728796052E+01  0.22975028343E+02 -0.25616942310E+02  0.35212548765E+02  0.51100000000E-03 0. -1.
        -11    1    3    3    0    0  0.20030341504E+01 -0.59818242100E+00 -0.24134697534E+01  0.31929303983E+01  0.51100000000E-03 0.  1.
        -12    1    3    3    0    0 -0.49189863012E+01  0.78830259079E+01 -0.12959519017E+01  0.93817916747E+01  0.00000000000E+00 0.  1.
</event>
<event>
 7    1  0.2685294E-009  0.4778727E+02  0.7816164E-02  0.1312668E+00
        -11   -1    0    0    0    0  0.00000000000E+00  0.00000000000E+00  0.45593999997E+02  0.45594000000E+02  0.51100000000E-03 0.  1.
         11   -1    0    0    0    0 -0.00000000000E+00 -0.00000000000E+00 -0.45593999997E+02  0.45594000000E+02  0.51100000000E-03 0. -1.
    9900012    2    1    2    0    0  0.33815660758E+02  0.26511297083E+02  0.61053562266E+01  0.47787272354E+02  0.20000005973E+02 0.  0.
        -12    1    1    2    0    0 -0.33815660758E+02 -0.26511297083E+02 -0.61053562266E+01  0.43400727646E+02  0.00000000000E+00 0.  1.
         11    1    3    3    0    0  0.73950018744E+01  0.10250072531E+02  0.89668058114E+01  0.15496891505E+02  0.51100000000E-03 0. -1.
        -11    1    3    3    0    0  0.27625710876E+01 -0.10679842220E+00  0.15752730654E+01  0.31819318674E+01  0.51100000000E-03 0.  1.
         12    1    3    3    0    0  0.23658087796E+02  0.16368022974E+02 -0.44367226502E+01  0.29108448982E+02  0.00000000000E+00 0. -1.
</event>
<event>
 7    1  0.2685294E-009  0.4778727E+02  0.7816164E-02  0.1312668E+00
        -11   -1    0    0    0    0  0.00000000000E+00  0.00000000000E+00  0.45593999997E+02  0.45594000000E+02  0.51100000000E-03 0. -1.
         11   -1    0    0    0    0 -0.00000000000E+00 -0.00000000000E+00 -0.45593999997E+02  0.45594000000E+02  0.51100000000E-03 0.  1.
    9900012    2    1    2    0    0  0.29952987343E+02 -0.31268353288E+02 -0.29549402009E+01  0.47787273742E+02  0.20000012299E+02 0.  0.
        -12    1    1    2    0    0 -0.29952987343E+02  0.31268353288E+02  0.29549402009E+01  0.43400726258E+02  0.00000000000E+00 0.  1.
         11    1    3    3    0    0  0.20212190655E+02 -0.26601845943E+02 -0.18990205485E+01  0.33463370093E+02  0.51100000000E-03 0. -1.
        -11    1    3    3    0    0  0.37843910188E+00 -0.66199671732E+00  0.31984389259E+01  0.32880796267E+01  0.51100000000E-03 0.  1.
         12    1    3    3    0    0  0.93623575863E+01 -0.40045106281E+01 -0.42543585784E+01  0.11035824023E+02  0.00000000000E+00 0. -1.
</event>
<event>
 7    1  0.2685294E-009  0.4778727E+02  0.7816164E-02  0.1312668E+00
        -11   -1    0    0    0    0  0.00000000000E+00  0.00000000000E+00  0.45593999997E+02  0.45594000000E+02  0.51100000000E-03 0.  1.
         11   -1    0    0    0    0 -0.00000000000E+00 -0.00000000000E+00 -0.45593999997E+02  0.45594000000E+02  0.51100000000E-03 0. -1.
    9900012    2    1    2    0    0  0.28118407377E+02 -0.27362792767E+02 -0.18554134309E+02  0.47787272340E+02  0.20000005908E+02 0.  0.
        -12    1    1    2    0    0 -0.28118407377E+02  0.27362792767E+02  0.18554134309E+02  0.43400727660E+02  0.00000000000E+00 0.  1.
         11    1    3    3    0    0  0.12240344181E+02 -0.20329863217E+02 -0.11533100789E+02  0.26384498823E+02  0.51100000000E-03 0. -1.
        -11    1    3    3    0    0  0.10946191073E+02 -0.51627800291E+01  0.61948910452E+00  0.12118463750E+02  0.51100000000E-03 0.  1.
         12    1    3    3    0    0  0.49318721231E+01 -0.18701495207E+01 -0.76405226252E+01  0.92843097673E+01  0.00000000000E+00 0. -1.
</event>
<event>
 7    1  0.2685294E-009  0.4778727E+02  0.7816164E-02  0.1312668E+00
        -11   -1    0    0    0    0  0.00000000000E+00  0.00000000000E+00  0.45593999997E+02  0.45594000000E+02  0.51100000000E-03 0.  1.
         11   -1    0    0    0    0 -0.00000000000E+00 -0.00000000000E+00 -0.45593999997E+02  0.45594000000E+02  0.51100000000E-03 0. -1.
    9900012    2    1    2    0    0  0.34589647915E+02 -0.25845114018E+02  0.43829036416E+01  0.47787268372E+02  0.19999987817E+02 0.  0.
        -12    1    1    2    0    0 -0.34589647915E+02  0.25845114018E+02 -0.43829036416E+01  0.43400731628E+02  0.00000000000E+00 0.  1.
         11    1    3    3    0    0  0.23341212795E+02 -0.16801710060E+02  0.84711362474E+00  0.28771987721E+02  0.51100000000E-03 0. -1.
        -11    1    3    3    0    0 -0.11485196993E+00  0.17891847510E+01  0.27670755008E+01  0.32971321078E+01  0.51100000000E-03 0.  1.
        -12    1    3    3    0    0  0.11363287090E+02 -0.10832588708E+02  0.76871451608E+00  0.15718148543E+02  0.00000000000E+00 0.  1.
</event>
<event>
 7    1  0.2685294E-009  0.4778727E+02  0.7816164E-02  0.1312668E+00
        -11   -1    0    0    0    0  0.00000000000E+00  0.00000000000E+00  0.45593999997E+02  0.45594000000E+02  0.51100000000E-03 0.  1.
         11   -1    0    0    0    0 -0.00000000000E+00 -0.00000000000E+00 -0.45593999997E+02  0.45594000000E+02  0.51100000000E-03 0. -1.
    9900012    2    1    2    0    0  0.19163855047E+02 -0.74760699292E+01 -0.38216201711E+02  0.47787273796E+02  0.20000012545E+02 0.  0.
        -12    1    1    2    0    0 -0.19163855047E+02  0.74760699292E+01  0.38216201711E+02  0.43400726204E+02  0.00000000000E+00 0.  1.
         11    1    3    3    0    0 -0.23066883838E+01  0.56817535098E+00 -0.81030586258E+01  0.84441218539E+01  0.51100000000E-03 0.  1.
        -11    1    3    3    0    0  0.14752777816E+02 -0.10292624554E+02 -0.23952280987E+02  0.29954871694E+02  0.51100000000E-03 0. -1.
         12    1    3    3    0    0  0.67177656155E+01  0.22483792735E+01 -0.61608620983E+01  0.93882802480E+01  0.00000000000E+00 0. -1.
</event>
<event>
 7    1  0.2685294E-009  0.4778727E+02  0.7816164E-02  0.1312668E+00
        -11   -1    0    0    0    0  0.00000000000E+00  0.00000000000E+00  0.45593999997E+02  0.45594000000E+02  0.51100000000E-03 0. -1.
         11   -1    0    0    0    0 -0.00000000000E+00 -0.00000000000E+00 -0.45593999997E+02  0.45594000000E+02  0.51100000000E-03 0.  1.
    9900012    2    1    2    0    0  0.27132910546E+02 -0.31274830578E+02  0.13012042917E+02  0.47787272779E+02  0.20000007910E+02 0.  0.
        -12    1    1    2    0    0 -0.27132910546E+02  0.31274830578E+02 -0.13012042917E+02  0.43400727221E+02  0.00000000000E+00 0.  1.
         11    1    3    3    0    0  0.76424951218E+01 -0.20726717074E+02  0.56019663874E+01  0.22790053972E+02  0.51100000000E-03 0. -1.
        -11    1    3    3    0    0  0.17207359588E+02 -0.11060568138E+02  0.88083143343E+01  0.22271412016E+02  0.51100000000E-03 0.  1.
         12    1    3    3    0    0  0.22830558368E+01  0.51245463418E+00 -0.13982378046E+01  0.27258067914E+01  0.00000000000E+00 0. -1.
</event>
<event>
 7    1  0.2685294E-009  0.4778727E+02  0.7816164E-02  0.1312668E+00
        -11   -1    0    0    0    0  0.00000000000E+00  0.00000000000E+00  0.45593999997E+02  0.45594000000E+02  0.51100000000E-03 0. -1.
         11   -1    0    0    0    0 -0.00000000000E+00 -0.00000000000E+00 -0.45593999997E+02  0.45594000000E+02  0.51100000000E-03 0.  1.
    9900012    2    1    2    0    0 -0.31294626017E+02 -0.62945565514E+01  0.29404901175E+02  0.47787271056E+02  0.20000000055E+02 0.  0.
        -12    1    1    2    0    0  0.31294626017E+02  0.62945565514E+01 -0.29404901175E+02  0.43400728944E+02  0.00000000000E+00 0.  1.
         11    1    3    3    0    0 -0.19799812673E+02 -0.10935137838E+02  0.22037094882E+02  0.31579160415E+02  0.51100000000E-03 0. -1.
        -11    1    3    3    0    0 -0.34525439008E+01  0.49262177063E+01  0.49926998079E+01  0.78175911833E+01  0.51100000000E-03 0.  1.
        -12    1    3    3    0    0 -0.80422694435E+01 -0.28563641964E+00  0.23751064853E+01  0.83905194584E+01  0.00000000000E+00 0.  1.
</event>
<event>
 7    1  0.2685294E-009  0.4778727E+02  0.7816164E-02  0.1312668E+00
        -11   -1    0    0    0    0  0.00000000000E+00  0.00000000000E+00  0.45593999997E+02  0.45594000000E+02  0.51100000000E-03 0.  1.
         11   -1    0    0    0    0 -0.00000000000E+00 -0.00000000000E+00 -0.45593999997E+02  0.45594000000E+02  0.51100000000E-03 0. -1.
    9900012    2    1    2    0    0  0.35105485675E+02 -0.12065098551E+02 -0.22486919122E+02  0.47787271215E+02  0.20000000776E+02 0.  0.
        -12    1    1    2    0    0 -0.35105485675E+02  0.12065098551E+02  0.22486919122E+02  0.43400728785E+02  0.00000000000E+00 0.  1.
         11    1    3    3    0    0  0.15864729028E+02 -0.78036471217E+01 -0.16888535880E+02  0.24450136605E+02  0.51100000000E-03 0. -1.
        -11    1    3    3    0    0  0.26213181426E+01 -0.35014402866E+01  0.22762578162E+01  0.49307953509E+01  0.51100000000E-03 0.  1.
        -12    1    3    3    0    0  0.16619438504E+02 -0.76001114227E+00 -0.78746410575E+01  0.18406339259E+02  0.00000000000E+00 0.  1.
</event>
<event>
 7    1  0.2685294E-009  0.4778727E+02  0.7816164E-02  0.1312668E+00
        -11   -1    0    0    0    0  0.00000000000E+00  0.00000000000E+00  0.45593999997E+02  0.45594000000E+02  0.51100000000E-03 0.  1.
         11   -1    0    0    0    0 -0.00000000000E+00 -0.00000000000E+00 -0.45593999997E+02  0.45594000000E+02  0.51100000000E-03 0. -1.
    9900012    2    1    2    0    0 -0.21951225925E+01 -0.21835624762E+02 -0.37443428543E+02  0.47787269442E+02  0.19999992694E+02 0.  0.
        -12    1    1    2    0    0  0.21951225925E+01  0.21835624762E+02  0.37443428543E+02  0.43400730558E+02  0.00000000000E+00 0.  1.
         11    1    3    3    0    0  0.40371877664E+01 -0.78249246482E+00 -0.10663131794E+01  0.42483177349E+01  0.51100000000E-03 0. -1.
        -11    1    3    3    0    0 -0.10567198085E+01 -0.15804149393E+00  0.20996780213E+00  0.10889079881E+01  0.51100000000E-03 0.  1.
         12    1    3    3    0    0 -0.51755905504E+01 -0.20895090803E+02 -0.36587083165E+02  0.42450043719E+02  0.00000000000E+00 0. -1.
</event>
<event>
 7    1  0.2685294E-009  0.4778729E+02  0.7816164E-02  0.1312668E+00
        -11   -1    0    0    0    0  0.00000000000E+00  0.00000000000E+00  0.45593999997E+02  0.45594000000E+02  0.51100000000E-03 0. -1.
         11   -1    0    0    0    0 -0.00000000000E+00 -0.00000000000E+00 -0.45593999997E+02  0.45594000000E+02  0.51100000000E-03 0.  1.
    9900012    2    1    2    0    0  0.17071427064E+02 -0.25422320807E+02  0.30755385514E+02  0.47787288539E+02  0.20000079764E+02 0.  0.
        -12    1    1    2    0    0 -0.17071427064E+02  0.25422320807E+02 -0.30755385514E+02  0.43400711461E+02  0.00000000000E+00 0.  1.
         11    1    3    3    0    0  0.11781185564E+02 -0.95527336703E+01  0.98901685537E+01  0.18107083921E+02  0.51100000000E-03 0. -1.
        -11    1    3    3    0    0  0.34391995560E+01 -0.10874031296E+02  0.21477359864E+02  0.24317681575E+02  0.51100000000E-03 0.  1.
        -12    1    3    3    0    0  0.18510419446E+01 -0.49955558413E+01 -0.61214290387E+00  0.53625230423E+01  0.00000000000E+00 0.  1.
</event>
<event>
 7    1  0.2685294E-009  0.4778728E+02  0.7816164E-02  0.1312668E+00
        -11   -1    0    0    0    0  0.00000000000E+00  0.00000000000E+00  0.45593999997E+02  0.45594000000E+02  0.51100000000E-03 0.  1.
         11   -1    0    0    0    0 -0.00000000000E+00 -0.00000000000E+00 -0.45593999997E+02  0.45594000000E+02  0.51100000000E-03 0. -1.
    9900012    2    1    2    0    0 -0.89447829674E+01 -0.37603636510E+02 -0.19737788393E+02  0.47787275216E+02  0.20000019020E+02 0.  0.
        -12    1    1    2    0    0  0.89447829674E+01  0.37603636510E+02  0.19737788393E+02  0.43400724784E+02  0.00000000000E+00 0.  1.
         11    1    3    3    0    0 -0.12653810785E+02 -0.20210234277E+02 -0.74075976940E+01  0.24968880648E+02  0.51100000000E-03 0. -1.
        -11    1    3    3    0    0  0.39230916671E+01 -0.18064321844E+02 -0.12013731830E+02  0.22046317712E+02  0.51100000000E-03 0.  1.
        -12    1    3    3    0    0 -0.21406384938E+00  0.67091961138E+00 -0.31645886928E+00  0.77207685660E+00  0.00000000000E+00 0.  1.
</event>
<event>
 7    1  0.2685294E-009  0.4778727E+02  0.7816164E-02  0.1312668E+00
        -11   -1    0    0    0    0  0.00000000000E+00  0.00000000000E+00  0.45593999997E+02  0.45594000000E+02  0.51100000000E-03 0. -1.
         11   -1    0    0    0    0 -0.00000000000E+00 -0.00000000000E+00 -0.45593999997E+02  0.45594000000E+02  0.51100000000E-03 0.  1.
    9900012    2    1    2    0    0 -0.11799924646E+02  0.39281991540E+02  0.14188390065E+02  0.47787268513E+02  0.19999988456E+02 0.  0.
        -12    1    1    2    0    0  0.11799924646E+02 -0.39281991540E+02 -0.14188390065E+02  0.43400731487E+02  0.00000000000E+00 0.  1.
         11    1    3    3    0    0 -0.72633495151E+01  0.14118231386E+02  0.81104811789E+01  0.17828645738E+02  0.51100000000E-03 0. -1.
        -11    1    3    3    0    0 -0.10972485794E+01 -0.48877349064E+00 -0.24328044336E+01  0.27131884644E+01  0.51100000000E-03 0.  1.
        -12    1    3    3    0    0 -0.34393265511E+01  0.25652533645E+02  0.85107133198E+01  0.27245434310E+02  0.00000000000E+00 0.  1.
</event>
<event>
 7    1  0.2685294E-009  0.4778725E+02  0.7816164E-02  0.1312668E+00
        -11   -1    0    0    0    0  0.00000000000E+00  0.00000000000E+00  0.45593999997E+02  0.45594000000E+02  0.51100000000E-03 0.  1.
         11   -1    0    0    0    0 -0.00000000000E+00 -0.00000000000E+00 -0.45593999997E+02  0.45594000000E+02  0.51100000000E-03 0. -1.
    9900012    2    1    2    0    0 -0.54891914875E+00  0.41951571334E+02  0.11108071184E+02  0.47787252368E+02  0.19999914845E+02 0.  0.
        -12    1    1    2    0    0  0.54891914875E+00 -0.41951571334E+02 -0.11108071184E+02  0.43400747632E+02  0.00000000000E+00 0.  1.
         11    1    3    3    0    0  0.35999144265E+01  0.18208734207E+02 -0.43079045612E+01  0.19054538233E+02  0.51100000000E-03 0. -1.
        -11    1    3    3    0    0 -0.30103513906E+01  0.19194058720E+02  0.11192585325E+02  0.22422044335E+02  0.51100000000E-03 0.  1.
         12    1    3    3    0    0 -0.11384821847E+01  0.45487784061E+01  0.42233904197E+01  0.63106697989E+01  0.00000000000E+00 0. -1.
</event>
<event>
 7    1  0.3825045E-009  0.4778727E+02  0.7816164E-02  0.1312668E+00
        -11   -1    0    0    0    0  0.00000000000E+00  0.00000000000E+00  0.45593999997E+02  0.45594000000E+02  0.51100000000E-03 0. -1.
         11   -1    0    0    0    0 -0.00000000000E+00 -0.00000000000E+00 -0.45593999997E+02  0.45594000000E+02  0.51100000000E-03 0.  1.
    9900012    2    1    2    0    0 -0.35531416586E+02  0.24717309607E+02  0.31931415810E+01  0.47787272910E+02  0.20000008504E+02 0.  0.
        -12    1    1    2    0    0  0.35531416586E+02 -0.24717309607E+02 -0.31931415810E+01  0.43400727090E+02  0.00000000000E+00 0.  1.
         11    1    3    3    0    0 -0.17729232677E+02  0.10086106082E+02  0.21353184004E+01  0.20508895927E+02  0.51100000000E-03 0. -1.
        -11    1    3    3    0    0 -0.10608776010E+02  0.14173993910E+02 -0.43931513723E+01  0.18241381829E+02  0.51100000000E-03 0.  1.
        -12    1    3    3    0    0 -0.71934078986E+01  0.45720961536E+00  0.54509745529E+01  0.90369951535E+01  0.00000000000E+00 0.  1.
</event>
<event>
 7    1  0.2685294E-009  0.4778727E+02  0.7816164E-02  0.1312668E+00
        -11   -1    0    0    0    0  0.00000000000E+00  0.00000000000E+00  0.45593999997E+02  0.45594000000E+02  0.51100000000E-03 0.  1.
         11   -1    0    0    0    0 -0.00000000000E+00 -0.00000000000E+00 -0.45593999997E+02  0.45594000000E+02  0.51100000000E-03 0. -1.
    9900012    2    1    2    0    0  0.36591851063E+02  0.22635909838E+02 -0.56811503326E+01  0.47787269044E+02  0.19999990880E+02 0.  0.
        -12    1    1    2    0    0 -0.36591851063E+02 -0.22635909838E+02  0.56811503326E+01  0.43400730956E+02  0.00000000000E+00 0.  1.
         11    1    3    3    0    0  0.17492270190E+02  0.99901256717E+01 -0.10081987566E+01  0.20169248681E+02  0.51100000000E-03 0. -1.
        -11    1    3    3    0    0 -0.15504828837E+01  0.18006385417E+01 -0.35428799589E+01  0.42659459672E+01  0.51100000000E-03 0.  1.
        -12    1    3    3    0    0  0.20650063756E+02  0.10845145625E+02 -0.11300716171E+01  0.23352074396E+02  0.00000000000E+00 0.  1.
</event>
<event>
 7    1  0.2685294E-009  0.4778727E+02  0.7816164E-02  0.1312668E+00
        -11   -1    0    0    0    0  0.00000000000E+00  0.00000000000E+00  0.45593999997E+02  0.45594000000E+02  0.51100000000E-03 0. -1.
         11   -1    0    0    0    0 -0.00000000000E+00 -0.00000000000E+00 -0.45593999997E+02  0.45594000000E+02  0.51100000000E-03 0.  1.
    9900012    2    1    2    0    0  0.17747461136E+02  0.33239493051E+02  0.21535712940E+02  0.47787271816E+02  0.20000003519E+02 0.  0.
        -12    1    1    2    0    0 -0.17747461136E+02 -0.33239493051E+02 -0.21535712940E+02  0.43400728184E+02  0.00000000000E+00 0.  1.
         11    1    3    3    0    0  0.28715254987E+01  0.55505549939E+01 -0.82993579297E+00  0.63042139171E+01  0.51100000000E-03 0. -1.
        -11    1    3    3    0    0  0.16352212755E+01  0.12782632830E+02  0.21050368733E+01  0.13057596685E+02  0.51100000000E-03 0.  1.
         12    1    3    3    0    0  0.13240714361E+02  0.14906305227E+02  0.20260611859E+02  0.28425461214E+02  0.00000000000E+00 0. -1.
</event>
<event>
 7    1  0.2685294E-009  0.4778727E+02  0.7816164E-02  0.1312668E+00
        -11   -1    0    0    0    0  0.00000000000E+00  0.00000000000E+00  0.45593999997E+02  0.45594000000E+02  0.51100000000E-03 0.  1.
         11   -1    0    0    0    0 -0.00000000000E+00 -0.00000000000E+00 -0.45593999997E+02  0.45594000000E+02  0.51100000000E-03 0. -1.
    9900012    2    1    2    0    0  0.11157295791E+02 -0.28923554371E+02 -0.30373779253E+02  0.47787265986E+02  0.19999976935E+02 0.  0.
        -12    1    1    2    0    0 -0.11157295791E+02  0.28923554371E+02  0.30373779253E+02  0.43400734014E+02  0.00000000000E+00 0.  1.
         11    1    3    3    0    0  0.65905993319E+01 -0.15247843400E+02 -0.15763085672E+02  0.22899947556E+02  0.51100000000E-03 0. -1.
        -11    1    3    3    0    0 -0.52417732906E+00 -0.39075945558E+01  0.24044355120E+01  0.46179397438E+01  0.51100000000E-03 0.  1.
        -12    1    3    3    0    0  0.50908737884E+01 -0.97681164160E+01 -0.17015129094E+02  0.20269378686E+02  0.00000000000E+00 0.  1.
</event>
<event>
 7    1  0.2685294E-009  0.4778727E+02  0.7816164E-02  0.1312668E+00
        -11   -1    0    0    0    0  0.00000000000E+00  0.00000000000E+00  0.45593999997E+02  0.45594000000E+02  0.51100000000E-03 0. -1.
         11   -1    0    0    0    0 -0.00000000000E+00 -0.00000000000E+00 -0.45593999997E+02  0.45594000000E+02  0.51100000000E-03 0.  1.
    9900012    2    1    2    0    0 -0.62279986596E+01 -0.42926999728E+02 -0.14518482658E+01  0.47787272629E+02  0.20000007224E+02 0.  0.
        -12    1    1    2    0    0  0.62279986596E+01  0.42926999728E+02  0.14518482658E+01  0.43400727371E+02  0.00000000000E+00 0.  1.
         11    1    3    3    0    0 -0.15676951266E+01 -0.60369378996E+01  0.31974857550E+01  0.70090086766E+01  0.51100000000E-03 0. -1.
        -11    1    3    3    0    0  0.37985590741E+01 -0.15154560183E+01 -0.10909804391E+01  0.42327173969E+01  0.51100000000E-03 0.  1.
        -12    1    3    3    0    0 -0.84588626070E+01 -0.35374605810E+02 -0.35583535817E+01  0.36545546555E+02  0.00000000000E+00 0.  1.
</event>
<event>
 7    1  0.2685294E-009  0.4778726E+02  0.7816164E-02  0.1312668E+00
        -11   -1    0    0    0    0  0.00000000000E+00  0.00000000000E+00  0.45593999997E+02  0.45594000000E+02  0.51100000000E-03 0.  1.
         11   -1    0    0    0    0 -0.00000000000E+00 -0.00000000000E+00 -0.45593999997E+02  0.45594000000E+02  0.51100000000E-03 0. -1.
    9900012    2    1    2    0    0 -0.14870922894E+02  0.39400559868E+02 -0.10491713359E+02  0.47787256748E+02  0.19999934815E+02 0.  0.
        -12    1    1    2    0    0  0.14870922894E+02 -0.39400559868E+02  0.10491713359E+02  0.43400743252E+02  0.00000000000E+00 0.  1.
         11    1    3    3    0    0  0.27009451249E+01  0.79512118612E+01 -0.70241398496E+01  0.10947849813E+02  0.51100000000E-03 0.  1.
        -11    1    3    3    0    0 -0.17213143058E+02  0.29706087712E+02 -0.17677788520E+01  0.34378321417E+02  0.51100000000E-03 0. -1.
        -12    1    3    3    0    0 -0.35872496077E+00  0.17432602949E+01 -0.16997946568E+01  0.24610855183E+01  0.00000000000E+00 0.  1.
</event>
<event>
 7    1  0.2685294E-009  0.4778727E+02  0.7816164E-02  0.1312668E+00
        -11   -1    0    0    0    0  0.00000000000E+00  0.00000000000E+00  0.45593999997E+02  0.45594000000E+02  0.51100000000E-03 0.  1.
         11   -1    0    0    0    0 -0.00000000000E+00 -0.00000000000E+00 -0.45593999997E+02  0.45594000000E+02  0.51100000000E-03 0. -1.
    9900012    2    1    2    0    0 -0.13228349760E+02 -0.58545642914E+01 -0.40918917062E+02  0.47787274961E+02  0.20000017856E+02 0.  0.
        -12    1    1    2    0    0  0.13228349760E+02  0.58545642914E+01  0.40918917062E+02  0.43400725039E+02  0.00000000000E+00 0.  1.
         11    1    3    3    0    0 -0.27574218643E+01 -0.39062103114E+01 -0.53338939570E+01  0.71632589888E+01  0.51100000000E-03 0. -1.
        -11    1    3    3    0    0 -0.84959448184E+01 -0.23827906476E+00 -0.48651091190E+01  0.97932191986E+01  0.51100000000E-03 0.  1.
        -12    1    3    3    0    0 -0.19749830770E+01 -0.17100749153E+01 -0.30719913986E+02  0.30830796773E+02  0.00000000000E+00 0.  1.
</event>
<event>
 7    1  0.2685294E-009  0.4778726E+02  0.7816164E-02  0.1312668E+00
        -11   -1    0    0    0    0  0.00000000000E+00  0.00000000000E+00  0.45593999997E+02  0.45594000000E+02  0.51100000000E-03 0.  1.
         11   -1    0    0    0    0 -0.00000000000E+00 -0.00000000000E+00 -0.45593999997E+02  0.45594000000E+02  0.51100000000E-03 0. -1.
    9900012    2    1    2    0    0 -0.16627532620E+02 -0.27308446277E+02 -0.29349585682E+02  0.47787259698E+02  0.19999948265E+02 0.  0.
        -12    1    1    2    0    0  0.16627532620E+02  0.27308446277E+02  0.29349585682E+02  0.43400740302E+02  0.00000000000E+00 0.  1.
         11    1    3    3    0    0  0.67629105358E+00 -0.11680793015E+02 -0.37855635995E+01  0.12297511418E+02  0.51100000000E-03 0.  1.
        -11    1    3    3    0    0 -0.15540981197E+02 -0.10183676899E+02 -0.16961982338E+02  0.25158263390E+02  0.51100000000E-03 0. -1.
         12    1    3    3    0    0 -0.17628424772E+01 -0.54439763630E+01 -0.86020397448E+01  0.10331484889E+02  0.00000000000E+00 0. -1.
</event>
<event>
 7    1  0.2685294E-009  0.4778727E+02  0.7816164E-02  0.1312668E+00
        -11   -1    0    0    0    0  0.00000000000E+00  0.00000000000E+00  0.45593999997E+02  0.45594000000E+02  0.51100000000E-03 0.  1.
         11   -1    0    0    0    0 -0.00000000000E+00 -0.00000000000E+00 -0.45593999997E+02  0.45594000000E+02  0.51100000000E-03 0. -1.
    9900012    2    1    2    0    0 -0.14619849094E+02 -0.31183701794E+02 -0.26409474673E+02  0.47787267314E+02  0.19999982993E+02 0.  0.
        -12    1    1    2    0    0  0.14619849094E+02  0.31183701794E+02  0.26409474673E+02  0.43400732686E+02  0.00000000000E+00 0.  1.
         11    1    3    3    0    0 -0.15623611180E+02 -0.24099026417E+02 -0.13763244217E+02  0.31847875787E+02  0.51100000000E-03 0. -1.
        -11    1    3    3    0    0  0.28032426817E+01 -0.19601423812E+01 -0.19353002878E+01  0.39301037075E+01  0.51100000000E-03 0.  1.
         12    1    3    3    0    0 -0.17994805962E+01 -0.51245329958E+01 -0.10710930169E+02  0.12009287819E+02  0.00000000000E+00 0. -1.
</event>
<event>
 7    1  0.2685294E-009  0.4778727E+02  0.7816164E-02  0.1312668E+00
        -11   -1    0    0    0    0  0.00000000000E+00  0.00000000000E+00  0.45593999997E+02  0.45594000000E+02  0.51100000000E-03 0.  1.
         11   -1    0    0    0    0 -0.00000000000E+00 -0.00000000000E+00 -0.45593999997E+02  0.45594000000E+02  0.51100000000E-03 0. -1.
    9900012    2    1    2    0    0 -0.20158016796E+02  0.13275627827E+02 -0.36069863365E+02  0.47787274447E+02  0.20000015514E+02 0.  0.
        -12    1    1    2    0    0  0.20158016796E+02 -0.13275627827E+02  0.36069863365E+02  0.43400725553E+02  0.00000000000E+00 0.  1.
         11    1    3    3    0    0 -0.90209358971E+01  0.14779787075E+02 -0.16240552839E+02  0.23739733512E+02  0.51100000000E-03 0. -1.
        -11    1    3    3    0    0 -0.11596308017E+02 -0.25324535746E+01 -0.15212060978E+02  0.19294934055E+02  0.51100000000E-03 0.  1.
         12    1    3    3    0    0  0.45922711801E+00  0.10282943262E+01 -0.46172495478E+01  0.47526068798E+01  0.00000000000E+00 0. -1.
</event>
<event>
 7    1  0.2685294E-009  0.4778727E+02  0.7816164E-02  0.1312668E+00
        -11   -1    0    0    0    0  0.00000000000E+00  0.00000000000E+00  0.45593999997E+02  0.45594000000E+02  0.51100000000E-03 0. -1.
         11   -1    0    0    0    0 -0.00000000000E+00 -0.00000000000E+00 -0.45593999997E+02  0.45594000000E+02  0.51100000000E-03 0.  1.
    9900012    2    1    2    0    0  0.37993836747E+02  0.10888833239E+02  0.17931117694E+02  0.47787270722E+02  0.19999998532E+02 0.  0.
        -12    1    1    2    0    0 -0.37993836747E+02 -0.10888833239E+02 -0.17931117694E+02  0.43400729278E+02  0.00000000000E+00 0.  1.
         11    1    3    3    0    0  0.25961296805E+02  0.29418282256E+01  0.66257534499E+01  0.26954478184E+02  0.51100000000E-03 0. -1.
        -11    1    3    3    0    0  0.65254396400E+01  0.75787843917E+01  0.22864182689E+01  0.10258998202E+02  0.51100000000E-03 0.  1.
         12    1    3    3    0    0  0.55071003016E+01  0.36822062163E+00  0.90189459753E+01  0.10573794336E+02  0.00000000000E+00 0. -1.
</event>
<event>
 7    1  0.2685294E-009  0.4778727E+02  0.7816164E-02  0.1312668E+00
        -11   -1    0    0    0    0  0.00000000000E+00  0.00000000000E+00  0.45593999997E+02  0.45594000000E+02  0.51100000000E-03 0.  1.
         11   -1    0    0    0    0 -0.00000000000E+00 -0.00000000000E+00 -0.45593999997E+02  0.45594000000E+02  0.51100000000E-03 0. -1.
    9900012    2    1    2    0    0  0.27370403065E+02  0.86997000254E+01 -0.32539199922E+02  0.47787271019E+02  0.19999999886E+02 0.  0.
        -12    1    1    2    0    0 -0.27370403065E+02 -0.86997000254E+01  0.32539199922E+02  0.43400728981E+02  0.00000000000E+00 0.  1.
         11    1    3    3    0    0 -0.97307102552E+00  0.18936567948E+01  0.79871528606E+00  0.22739282413E+01  0.51100000000E-03 0.  1.
        -11    1    3    3    0    0  0.19498855005E+02  0.46754689361E+01 -0.29430573885E+02  0.35612133266E+02  0.51100000000E-03 0. -1.
         12    1    3    3    0    0  0.88446190856E+01  0.21305742945E+01 -0.39073413233E+01  0.99012095125E+01  0.00000000000E+00 0. -1.
</event>
<event>
 7    1  0.2685294E-009  0.4778727E+02  0.7816164E-02  0.1312668E+00
        -11   -1    0    0    0    0  0.00000000000E+00  0.00000000000E+00  0.45593999997E+02  0.45594000000E+02  0.51100000000E-03 0.  1.
         11   -1    0    0    0    0 -0.00000000000E+00 -0.00000000000E+00 -0.45593999997E+02  0.45594000000E+02  0.51100000000E-03 0. -1.
    9900012    2    1    2    0    0 -0.17770533841E+02  0.36116341198E+02  0.16230873338E+02  0.47787271621E+02  0.20000002628E+02 0.  0.
        -12    1    1    2    0    0  0.17770533841E+02 -0.36116341198E+02 -0.16230873338E+02  0.43400728379E+02  0.00000000000E+00 0.  1.
         11    1    3    3    0    0 -0.14421340624E+02  0.30823616696E+02  0.62933429532E+01  0.34607464186E+02  0.51100000000E-03 0. -1.
        -11    1    3    3    0    0 -0.49981751482E+01  0.33803313686E+01  0.60537376626E+01  0.85472881619E+01  0.51100000000E-03 0.  1.
         12    1    3    3    0    0  0.16489819307E+01  0.19123931336E+01  0.38837927221E+01  0.46325192729E+01  0.00000000000E+00 0. -1.
</event>
<event>
 7    1  0.2685294E-009  0.4778727E+02  0.7816164E-02  0.1312668E+00
        -11   -1    0    0    0    0  0.00000000000E+00  0.00000000000E+00  0.45593999997E+02  0.45594000000E+02  0.51100000000E-03 0. -1.
         11   -1    0    0    0    0 -0.00000000000E+00 -0.00000000000E+00 -0.45593999997E+02  0.45594000000E+02  0.51100000000E-03 0.  1.
    9900012    2    1    2    0    0 -0.36178485806E+02  0.81081745287E+01 -0.22560984854E+02  0.47787269972E+02  0.19999995110E+02 0.  0.
        -12    1    1    2    0    0  0.36178485806E+02 -0.81081745287E+01  0.22560984854E+02  0.43400730028E+02  0.00000000000E+00 0.  1.
         11    1    3    3    0    0 -0.11789923928E+02 -0.41078001082E+01 -0.38768715752E+01  0.13073119805E+02  0.51100000000E-03 0. -1.
        -11    1    3    3    0    0 -0.25293373751E+02  0.11831875117E+02 -0.18885613394E+02  0.33710746328E+02  0.51100000000E-03 0.  1.
        -12    1    3    3    0    0  0.90481187337E+00  0.38409952013E+00  0.20150011480E+00  0.10034038389E+01  0.00000000000E+00 0.  1.
</event>
<event>
 7    1  0.2685294E-009  0.4778727E+02  0.7816164E-02  0.1312668E+00
        -11   -1    0    0    0    0  0.00000000000E+00  0.00000000000E+00  0.45593999997E+02  0.45594000000E+02  0.51100000000E-03 0.  1.
         11   -1    0    0    0    0 -0.00000000000E+00 -0.00000000000E+00 -0.45593999997E+02  0.45594000000E+02  0.51100000000E-03 0. -1.
    9900012    2    1    2    0    0  0.43019699859E+01 -0.22024436397E+02 -0.37148895392E+02  0.47787272204E+02  0.20000005289E+02 0.  0.
        -12    1    1    2    0    0 -0.43019699859E+01  0.22024436397E+02  0.37148895392E+02  0.43400727796E+02  0.00000000000E+00 0.  1.
         11    1    3    3    0    0  0.19053358193E+01 -0.10963797363E+02 -0.19332410414E+02  0.22306439650E+02  0.51100000000E-03 0. -1.
        -11    1    3    3    0    0  0.43743258465E+01 -0.18284146164E+01  0.60613627193E+00  0.47796681958E+01  0.51100000000E-03 0.  1.
        -12    1    3    3    0    0 -0.19776916798E+01 -0.92322244176E+01 -0.18422621250E+02  0.20701164359E+02  0.00000000000E+00 0.  1.
</event>
<event>
 7    1  0.2685294E-009  0.4778727E+02  0.7816164E-02  0.1312668E+00
        -11   -1    0    0    0    0  0.00000000000E+00  0.00000000000E+00  0.45593999997E+02  0.45594000000E+02  0.51100000000E-03 0. -1.
         11   -1    0    0    0    0 -0.00000000000E+00 -0.00000000000E+00 -0.45593999997E+02  0.45594000000E+02  0.51100000000E-03 0.  1.
    9900012    2    1    2    0    0 -0.41570590721E+02  0.24314220855E+01 -0.12231007379E+02  0.47787269963E+02  0.19999995069E+02 0.  0.
        -12    1    1    2    0    0  0.41570590721E+02 -0.24314220855E+01  0.12231007379E+02  0.43400730037E+02  0.00000000000E+00 0.  1.
         11    1    3    3    0    0 -0.14476353416E+02  0.18466825930E+01 -0.44433869680E+01  0.15255121528E+02  0.51100000000E-03 0. -1.
        -11    1    3    3    0    0 -0.22696648745E+02  0.33800071870E+01  0.25579172135E+00  0.22948371238E+02  0.51100000000E-03 0.  1.
        -12    1    3    3    0    0 -0.43975885600E+01 -0.27952676945E+01 -0.80434121320E+01  0.95837771965E+01  0.00000000000E+00 0.  1.
</event>
<event>
 7    1  0.2685294E-009  0.4778727E+02  0.7816164E-02  0.1312668E+00
        -11   -1    0    0    0    0  0.00000000000E+00  0.00000000000E+00  0.45593999997E+02  0.45594000000E+02  0.51100000000E-03 0. -1.
         11   -1    0    0    0    0 -0.00000000000E+00 -0.00000000000E+00 -0.45593999997E+02  0.45594000000E+02  0.51100000000E-03 0.  1.
    9900012    2    1    2    0    0  0.53277743401E+01  0.14892815480E+02  0.40415862986E+02  0.47787272895E+02  0.20000008436E+02 0.  0.
        -12    1    1    2    0    0 -0.53277743401E+01 -0.14892815480E+02 -0.40415862986E+02  0.43400727105E+02  0.00000000000E+00 0.  1.
         11    1    3    3    0    0  0.71277465029E+01  0.11464148652E+02  0.12391050365E+02  0.18324017134E+02  0.51100000000E-03 0. -1.
        -11    1    3    3    0    0  0.87912038937E+00  0.36993425696E+01  0.50001915688E+01  0.62817118759E+01  0.51100000000E-03 0.  1.
         12    1    3    3    0    0 -0.26790925522E+01 -0.27067574145E+00  0.23024621052E+02  0.23181543884E+02  0.00000000000E+00 0. -1.
</event>
<event>
 7    1  0.2685294E-009  0.4778729E+02  0.7816164E-02  0.1312668E+00
        -11   -1    0    0    0    0  0.00000000000E+00  0.00000000000E+00  0.45593999997E+02  0.45594000000E+02  0.51100000000E-03 0.  1.
         11   -1    0    0    0    0 -0.00000000000E+00 -0.00000000000E+00 -0.45593999997E+02  0.45594000000E+02  0.51100000000E-03 0. -1.
    9900012    2    1    2    0    0 -0.30702001231E+02 -0.36752995676E+01 -0.30454902641E+02  0.47787288009E+02  0.20000077347E+02 0.  0.
        -12    1    1    2    0    0  0.30702001231E+02  0.36752995676E+01  0.30454902641E+02  0.43400711991E+02  0.00000000000E+00 0.  1.
         11    1    3    3    0    0 -0.24155223211E+02  0.41705398814E+00 -0.27801309594E+02  0.36831529398E+02  0.51100000000E-03 0. -1.
        -11    1    3    3    0    0 -0.69565475320E+01 -0.92000271578E+00 -0.37248899650E+00  0.70269984258E+01  0.51100000000E-03 0.  1.
         12    1    3    3    0    0  0.40976951171E+00 -0.31723508400E+01 -0.22811040500E+01  0.39287601851E+01  0.00000000000E+00 0. -1.
</event>
<event>
 7    1  0.2685294E-009  0.4778727E+02  0.7816164E-02  0.1312668E+00
        -11   -1    0    0    0    0  0.00000000000E+00  0.00000000000E+00  0.45593999997E+02  0.45594000000E+02  0.51100000000E-03 0. -1.
         11   -1    0    0    0    0 -0.00000000000E+00 -0.00000000000E+00 -0.45593999997E+02  0.45594000000E+02  0.51100000000E-03 0.  1.
    9900012    2    1    2    0    0  0.15600345369E+02  0.38436416096E+02  0.12763004731E+02  0.47787272498E+02  0.20000006625E+02 0.  0.
        -12    1    1    2    0    0 -0.15600345369E+02 -0.38436416096E+02 -0.12763004731E+02  0.43400727502E+02  0.00000000000E+00 0.  1.
         11    1    3    3    0    0  0.29872191882E+01  0.28587624741E+02  0.48883845401E+01  0.29155995446E+02  0.51100000000E-03 0. -1.
        -11    1    3    3    0    0  0.10970372633E+02  0.80134429782E+01  0.42231896734E+01  0.14226723985E+02  0.51100000000E-03 0.  1.
        -12    1    3    3    0    0  0.16427535487E+01  0.18353483774E+01  0.36514305179E+01  0.44045530665E+01  0.00000000000E+00 0.  1.
</event>
<event>
 7    1  0.2685294E-009  0.4778728E+02  0.7816164E-02  0.1312668E+00
        -11   -1    0    0    0    0  0.00000000000E+00  0.00000000000E+00  0.45593999997E+02  0.45594000000E+02  0.51100000000E-03 0.  1.
         11   -1    0    0    0    0 -0.00000000000E+00 -0.00000000000E+00 -0.45593999997E+02  0.45594000000E+02  0.51100000000E-03 0. -1.
    9900012    2    1    2    0    0 -0.24693569272E+02  0.34851538643E+02 -0.76954872958E+01  0.47787278418E+02  0.20000033618E+02 0.  0.
        -12    1    1    2    0    0  0.24693569272E+02 -0.34851538643E+02  0.76954872958E+01  0.43400721582E+02  0.00000000000E+00 0.  1.
         11    1    3    3    0    0 -0.19702569307E+02  0.16712102626E+02 -0.15588985752E+01  0.25882731242E+02  0.51100000000E-03 0. -1.
        -11    1    3    3    0    0 -0.18430266986E+00 -0.89362015389E+00 -0.14646898546E+01  0.17256422239E+01  0.51100000000E-03 0.  1.
         12    1    3    3    0    0 -0.48066972952E+01  0.19033056170E+02 -0.46718988660E+01  0.20178904952E+02  0.00000000000E+00 0. -1.
</event>
<event>
 7    1  0.2685294E-009  0.4778727E+02  0.7816164E-02  0.1312668E+00
        -11   -1    0    0    0    0  0.00000000000E+00  0.00000000000E+00  0.45593999997E+02  0.45594000000E+02  0.51100000000E-03 0.  1.
         11   -1    0    0    0    0 -0.00000000000E+00 -0.00000000000E+00 -0.45593999997E+02  0.45594000000E+02  0.51100000000E-03 0. -1.
    9900012    2    1    2    0    0 -0.17423389210E+02 -0.37449452337E+02 -0.13326190354E+02  0.47787270499E+02  0.19999997512E+02 0.  0.
        -12    1    1    2    0    0  0.17423389210E+02  0.37449452337E+02  0.13326190354E+02  0.43400729501E+02  0.00000000000E+00 0.  1.
         11    1    3    3    0    0 -0.50323102191E+01 -0.88838758271E+01 -0.55366838060E+01  0.11614743376E+02  0.51100000000E-03 0. -1.
        -11    1    3    3    0    0 -0.13648001901E+02 -0.11511833790E+02 -0.13697246432E+01  0.17907161108E+02  0.51100000000E-03 0.  1.
        -12    1    3    3    0    0  0.12569229104E+01 -0.17053742720E+02 -0.64197819047E+01  0.18265366015E+02  0.00000000000E+00 0.  1.
</event>
<event>
 7    1  0.2982576E-009  0.4778727E+02  0.7816164E-02  0.1312668E+00
        -11   -1    0    0    0    0  0.00000000000E+00  0.00000000000E+00  0.45593999997E+02  0.45594000000E+02  0.51100000000E-03 0. -1.
         11   -1    0    0    0    0 -0.00000000000E+00 -0.00000000000E+00 -0.45593999997E+02  0.45594000000E+02  0.51100000000E-03 0.  1.
    9900012    2    1    2    0    0 -0.32558202407E+02 -0.75661675728E+01  0.27682846945E+02  0.47787269007E+02  0.19999990712E+02 0.  0.
        -12    1    1    2    0    0  0.32558202407E+02  0.75661675728E+01 -0.27682846945E+02  0.43400730993E+02  0.00000000000E+00 0.  1.
         11    1    3    3    0    0 -0.12983494680E+02 -0.59878025661E+01  0.19022995220E+02  0.23797043117E+02  0.51100000000E-03 0. -1.
        -11    1    3    3    0    0 -0.19722986724E+02  0.71508349461E+00  0.89560373389E+01  0.21672982139E+02  0.51100000000E-03 0.  1.
        -12    1    3    3    0    0  0.14827899700E+00 -0.22934485013E+01 -0.29618561373E+00  0.23172437521E+01  0.00000000000E+00 0.  1.
</event>
<event>
 7    1  0.2685294E-009  0.4778727E+02  0.7816164E-02  0.1312668E+00
        -11   -1    0    0    0    0  0.00000000000E+00  0.00000000000E+00  0.45593999997E+02  0.45594000000E+02  0.51100000000E-03 0.  1.
         11   -1    0    0    0    0 -0.00000000000E+00 -0.00000000000E+00 -0.45593999997E+02  0.45594000000E+02  0.51100000000E-03 0. -1.
    9900012    2    1    2    0    0  0.41993758389E+01 -0.19824550883E+02 -0.38379362507E+02  0.47787273720E+02  0.20000012200E+02 0.  0.
        -12    1    1    2    0    0 -0.41993758389E+01  0.19824550883E+02  0.38379362507E+02  0.43400726280E+02  0.00000000000E+00 0.  1.
         11    1    3    3    0    0  0.69778635424E+01 -0.15985737748E+02 -0.29609983148E+02  0.34365469490E+02  0.51100000000E-03 0. -1.
        -11    1    3    3    0    0 -0.16999922127E+01 -0.28078308646E+01  0.10835243000E+01  0.34565753076E+01  0.51100000000E-03 0.  1.
         12    1    3    3    0    0 -0.10784954908E+01 -0.10309822696E+01 -0.98529036591E+01  0.99652289226E+01  0.00000000000E+00 0. -1.
</event>
<event>
 7    1  0.2685294E-009  0.4778728E+02  0.7816164E-02  0.1312668E+00
        -11   -1    0    0    0    0  0.00000000000E+00  0.00000000000E+00  0.45593999997E+02  0.45594000000E+02  0.51100000000E-03 0.  1.
         11   -1    0    0    0    0 -0.00000000000E+00 -0.00000000000E+00 -0.45593999997E+02  0.45594000000E+02  0.51100000000E-03 0. -1.
    9900012    2    1    2    0    0  0.26765069174E+01  0.14185628658E+02 -0.40929533462E+02  0.47787280431E+02  0.20000042798E+02 0.  0.
        -12    1    1    2    0    0 -0.26765069174E+01 -0.14185628658E+02  0.40929533462E+02  0.43400719569E+02  0.00000000000E+00 0.  1.
         11    1    3    3    0    0 -0.26185169275E+01  0.24490867770E+00 -0.25853204719E+02  0.25986627439E+02  0.51100000000E-03 0. -1.
        -11    1    3    3    0    0  0.41257725585E+01  0.40574848051E+01 -0.52028317151E+01  0.77816862096E+01  0.51100000000E-03 0.  1.
         12    1    3    3    0    0  0.11692512864E+01  0.98832351749E+01 -0.98734970278E+01  0.14018966783E+02  0.00000000000E+00 0. -1.
</event>
<event>
 7    1  0.2685294E-009  0.4778727E+02  0.7816164E-02  0.1312668E+00
        -11   -1    0    0    0    0  0.00000000000E+00  0.00000000000E+00  0.45593999997E+02  0.45594000000E+02  0.51100000000E-03 0.  1.
         11   -1    0    0    0    0 -0.00000000000E+00 -0.00000000000E+00 -0.45593999997E+02  0.45594000000E+02  0.51100000000E-03 0. -1.
    9900012    2    1    2    0    0 -0.14408508148E+02 -0.16928301865E+02 -0.37275341912E+02  0.47787266991E+02  0.19999981517E+02 0.  0.
        -12    1    1    2    0    0  0.14408508148E+02  0.16928301865E+02  0.37275341912E+02  0.43400733009E+02  0.00000000000E+00 0.  1.
         11    1    3    3    0    0 -0.50807816763E+01 -0.95445091242E+01 -0.14559732768E+02  0.18135540118E+02  0.51100000000E-03 0. -1.
        -11    1    3    3    0    0  0.11767031325E+01  0.16608268089E+01  0.93369111679E+00  0.22393649354E+01  0.51100000000E-03 0.  1.
        -12    1    3    3    0    0 -0.10504429604E+02 -0.90446195497E+01 -0.23649300261E+02  0.27412361937E+02  0.00000000000E+00 0.  1.
</event>
<event>
 7    1  0.2685294E-009  0.4778727E+02  0.7816164E-02  0.1312668E+00
        -11   -1    0    0    0    0  0.00000000000E+00  0.00000000000E+00  0.45593999997E+02  0.45594000000E+02  0.51100000000E-03 0.  1.
         11   -1    0    0    0    0 -0.00000000000E+00 -0.00000000000E+00 -0.45593999997E+02  0.45594000000E+02  0.51100000000E-03 0. -1.
    9900012    2    1    2    0    0  0.96880929430E+01 -0.44547686335E+01 -0.42070405338E+02  0.47787272889E+02  0.20000008409E+02 0.  0.
        -12    1    1    2    0    0 -0.96880929430E+01  0.44547686335E+01  0.42070405338E+02  0.43400727111E+02  0.00000000000E+00 0.  1.
         11    1    3    3    0    0  0.10658241809E+02 -0.33098116050E+01 -0.83932610667E+01  0.13964232987E+02  0.51100000000E-03 0. -1.
        -11    1    3    3    0    0 -0.14929455541E+01  0.21669824939E+00 -0.22597818901E+02  0.22648118331E+02  0.51100000000E-03 0.  1.
         12    1    3    3    0    0  0.52279668857E+00 -0.13616552779E+01 -0.11079325370E+02  0.11174921572E+02  0.00000000000E+00 0. -1.
</event>
<event>
 7    1  0.2685294E-009  0.4778729E+02  0.7816164E-02  0.1312668E+00
        -11   -1    0    0    0    0  0.00000000000E+00  0.00000000000E+00  0.45593999997E+02  0.45594000000E+02  0.51100000000E-03 0.  1.
         11   -1    0    0    0    0 -0.00000000000E+00 -0.00000000000E+00 -0.45593999997E+02  0.45594000000E+02  0.51100000000E-03 0. -1.
    9900012    2    1    2    0    0  0.25332993321E+02 -0.33653384783E+02  0.10455183007E+02  0.47787289065E+02  0.20000082162E+02 0.  0.
        -12    1    1    2    0    0 -0.25332993321E+02  0.33653384783E+02 -0.10455183007E+02  0.43400710935E+02  0.00000000000E+00 0.  1.
         11    1    3    3    0    0  0.13028035642E+02 -0.24609044653E+02 -0.47189379321E+00  0.27848832568E+02  0.51100000000E-03 0. -1.
        -11    1    3    3    0    0  0.55203980710E+00  0.49882656606E-01  0.30874254205E+01  0.31367869256E+01  0.51100000000E-03 0.  1.
         12    1    3    3    0    0  0.11752917872E+02 -0.90942227870E+01  0.78396513800E+01  0.16801669571E+02  0.00000000000E+00 0. -1.
</event>
<event>
 7    1  0.2685294E-009  0.4778727E+02  0.7816164E-02  0.1312668E+00
        -11   -1    0    0    0    0  0.00000000000E+00  0.00000000000E+00  0.45593999997E+02  0.45594000000E+02  0.51100000000E-03 0. -1.
         11   -1    0    0    0    0 -0.00000000000E+00 -0.00000000000E+00 -0.45593999997E+02  0.45594000000E+02  0.51100000000E-03 0.  1.
    9900012    2    1    2    0    0  0.37656096798E+02  0.39506441813E+01 -0.21214003736E+02  0.47787272241E+02  0.20000005457E+02 0.  0.
        -12    1    1    2    0    0 -0.37656096798E+02 -0.39506441813E+01  0.21214003736E+02  0.43400727759E+02  0.00000000000E+00 0.  1.
         11    1    3    3    0    0  0.14197456081E+01 -0.24113970985E+01  0.21631018075E+01  0.35368804403E+01  0.51100000000E-03 0. -1.
        -11    1    3    3    0    0  0.25364663851E+02  0.89632935551E+00 -0.16514317325E+02  0.30280228790E+02  0.51100000000E-03 0.  1.
         12    1    3    3    0    0  0.10871687339E+02  0.54657119242E+01 -0.68627882185E+01  0.13970163011E+02  0.00000000000E+00 0. -1.
</event>
<event>
 7    1  0.2685294E-009  0.4778727E+02  0.7816164E-02  0.1312668E+00
        -11   -1    0    0    0    0  0.00000000000E+00  0.00000000000E+00  0.45593999997E+02  0.45594000000E+02  0.51100000000E-03 0.  1.
         11   -1    0    0    0    0 -0.00000000000E+00 -0.00000000000E+00 -0.45593999997E+02  0.45594000000E+02  0.51100000000E-03 0. -1.
    9900012    2    1    2    0    0  0.24294550808E+02 -0.15225700090E+02 -0.32581836939E+02  0.47787271429E+02  0.20000001753E+02 0.  0.
        -12    1    1    2    0    0 -0.24294550808E+02  0.15225700090E+02  0.32581836939E+02  0.43400728571E+02  0.00000000000E+00 0.  1.
         11    1    3    3    0    0  0.11113010489E+02 -0.10193573184E+02 -0.15941163910E+02  0.21943760923E+02  0.51100000000E-03 0. -1.
        -11    1    3    3    0    0 -0.16619240025E+01  0.22129992354E+01 -0.62655392236E+00  0.28375917755E+01  0.51100000000E-03 0.  1.
        -12    1    3    3    0    0  0.14843464321E+02 -0.72451261413E+01 -0.16014119106E+02  0.23005918730E+02  0.00000000000E+00 0.  1.
</event>
<event>
 7    1  0.2685294E-009  0.4778727E+02  0.7816164E-02  0.1312668E+00
        -11   -1    0    0    0    0  0.00000000000E+00  0.00000000000E+00  0.45593999997E+02  0.45594000000E+02  0.51100000000E-03 0.  1.
         11   -1    0    0    0    0 -0.00000000000E+00 -0.00000000000E+00 -0.45593999997E+02  0.45594000000E+02  0.51100000000E-03 0. -1.
    9900012    2    1    2    0    0 -0.25824996429E+02 -0.45556441065E+01 -0.34582345752E+02  0.47787274528E+02  0.20000015884E+02 0.  0.
        -12    1    1    2    0    0  0.25824996429E+02  0.45556441065E+01  0.34582345752E+02  0.43400725472E+02  0.00000000000E+00 0.  1.
         11    1    3    3    0    0 -0.23004093083E+02 -0.67847712716E+01 -0.16019284835E+02  0.28841617616E+02  0.51100000000E-03 0. -1.
        -11    1    3    3    0    0 -0.61133690843E+00  0.36904167771E+00 -0.66159988205E+01  0.66544244852E+01  0.51100000000E-03 0.  1.
         12    1    3    3    0    0 -0.22095664374E+01  0.18600854874E+01 -0.11947062096E+02  0.12291232427E+02  0.00000000000E+00 0. -1.
</event>
<event>
 7    1  0.2685294E-009  0.4778727E+02  0.7816164E-02  0.1312668E+00
        -11   -1    0    0    0    0  0.00000000000E+00  0.00000000000E+00  0.45593999997E+02  0.45594000000E+02  0.51100000000E-03 0.  1.
         11   -1    0    0    0    0 -0.00000000000E+00 -0.00000000000E+00 -0.45593999997E+02  0.45594000000E+02  0.51100000000E-03 0. -1.
    9900012    2    1    2    0    0 -0.39469005773E+02 -0.16827963420E+02 -0.65299752808E+01  0.47787270205E+02  0.19999996171E+02 0.  0.
        -12    1    1    2    0    0  0.39469005773E+02  0.16827963420E+02  0.65299752808E+01  0.43400729795E+02  0.00000000000E+00 0.  1.
         11    1    3    3    0    0 -0.89750781266E+01 -0.32328194563E+01 -0.65329119325E+01  0.11562097024E+02  0.51100000000E-03 0. -1.
        -11    1    3    3    0    0 -0.92648950923E+01  0.85402613958E+00  0.41938377790E+01  0.10205680639E+02  0.51100000000E-03 0.  1.
        -12    1    3    3    0    0 -0.21229032554E+02 -0.14449170104E+02 -0.41909011273E+01  0.26019492542E+02  0.00000000000E+00 0.  1.
</event>
<event>
 7    1  0.2685294E-009  0.4778727E+02  0.7816164E-02  0.1312668E+00
        -11   -1    0    0    0    0  0.00000000000E+00  0.00000000000E+00  0.45593999997E+02  0.45594000000E+02  0.51100000000E-03 0.  1.
         11   -1    0    0    0    0 -0.00000000000E+00 -0.00000000000E+00 -0.45593999997E+02  0.45594000000E+02  0.51100000000E-03 0. -1.
    9900012    2    1    2    0    0 -0.40661815417E+01  0.31425698713E+02 -0.29656616291E+02  0.47787271184E+02  0.20000000635E+02 0.  0.
        -12    1    1    2    0    0  0.40661815417E+01 -0.31425698713E+02  0.29656616291E+02  0.43400728816E+02  0.00000000000E+00 0.  1.
         11    1    3    3    0    0  0.54238618948E+01  0.13634969609E+02 -0.67459206284E+01  0.16150483568E+02  0.51100000000E-03 0. -1.
        -11    1    3    3    0    0 -0.95502155776E+01  0.16858455459E+02 -0.23556419545E+02  0.30501131784E+02  0.51100000000E-03 0.  1.
        -12    1    3    3    0    0  0.60172141163E-01  0.93227364561E+00  0.64572388251E+00  0.11356558322E+01  0.00000000000E+00 0.  1.
</event>
<event>
 7    1  0.2685294E-009  0.4778727E+02  0.7816164E-02  0.1312668E+00
        -11   -1    0    0    0    0  0.00000000000E+00  0.00000000000E+00  0.45593999997E+02  0.45594000000E+02  0.51100000000E-03 0.  1.
         11   -1    0    0    0    0 -0.00000000000E+00 -0.00000000000E+00 -0.45593999997E+02  0.45594000000E+02  0.51100000000E-03 0. -1.
    9900012    2    1    2    0    0 -0.27497848014E+02  0.26817221672E+02 -0.20207132839E+02  0.47787271421E+02  0.20000001719E+02 0.  0.
        -12    1    1    2    0    0  0.27497848014E+02 -0.26817221672E+02  0.20207132839E+02  0.43400728579E+02  0.00000000000E+00 0.  1.
         11    1    3    3    0    0 -0.27923350040E+01  0.13894059619E+02 -0.10175131847E+02  0.17446355948E+02  0.51100000000E-03 0. -1.
        -11    1    3    3    0    0 -0.53366763345E+01  0.24313971897E+01  0.57438235186E+00  0.58925140594E+01  0.51100000000E-03 0.  1.
         12    1    3    3    0    0 -0.19368836675E+02  0.10491764863E+02 -0.10606383343E+02  0.24448401414E+02  0.00000000000E+00 0. -1.
</event>
<event>
 7    1  0.2685294E-009  0.4778721E+02  0.7816164E-02  0.1312668E+00
        -11   -1    0    0    0    0  0.00000000000E+00  0.00000000000E+00  0.45593999997E+02  0.45594000000E+02  0.51100000000E-03 0.  1.
         11   -1    0    0    0    0 -0.00000000000E+00 -0.00000000000E+00 -0.45593999997E+02  0.45594000000E+02  0.51100000000E-03 0. -1.
    9900012    2    1    2    0    0 -0.11993767665E+02 -0.37031257067E+02 -0.19195412442E+02  0.47787212892E+02  0.19999734857E+02 0.  0.
        -12    1    1    2    0    0  0.11993767665E+02  0.37031257067E+02  0.19195412442E+02  0.43400787108E+02  0.00000000000E+00 0.  1.
         11    1    3    3    0    0 -0.89128444565E+01 -0.17307619760E+02 -0.64613839202E+00  0.19478449455E+02  0.51100000000E-03 0. -1.
        -11    1    3    3    0    0 -0.26838578679E+01 -0.30584472013E+01 -0.67640065939E+01  0.78936036005E+01  0.51100000000E-03 0.  1.
         12    1    3    3    0    0 -0.39706534045E+00 -0.16665190105E+02 -0.11785267456E+02  0.20415159837E+02  0.00000000000E+00 0. -1.
</event>
<event>
 7    1  0.2685294E-009  0.4778728E+02  0.7816164E-02  0.1312668E+00
        -11   -1    0    0    0    0  0.00000000000E+00  0.00000000000E+00  0.45593999997E+02  0.45594000000E+02  0.51100000000E-03 0.  1.
         11   -1    0    0    0    0 -0.00000000000E+00 -0.00000000000E+00 -0.45593999997E+02  0.45594000000E+02  0.51100000000E-03 0. -1.
    9900012    2    1    2    0    0  0.24207695960E+02  0.10682411454E+02 -0.34401981757E+02  0.47787276424E+02  0.20000024525E+02 0.  0.
        -12    1    1    2    0    0 -0.24207695960E+02 -0.10682411454E+02  0.34401981757E+02  0.43400723576E+02  0.00000000000E+00 0.  1.
         11    1    3    3    0    0  0.20992712730E+02  0.11401829297E+02 -0.25274068584E+02  0.34777496203E+02  0.51100000000E-03 0. -1.
        -11    1    3    3    0    0 -0.27101661172E+01  0.12779192181E+01 -0.33746884495E+01  0.45129369930E+01  0.51100000000E-03 0.  1.
         12    1    3    3    0    0  0.59251493471E+01 -0.19973370607E+01 -0.57532247236E+01  0.84968432279E+01  0.00000000000E+00 0. -1.
</event>
<event>
 7    1  0.2685294E-009  0.4778727E+02  0.7816164E-02  0.1312668E+00
        -11   -1    0    0    0    0  0.00000000000E+00  0.00000000000E+00  0.45593999997E+02  0.45594000000E+02  0.51100000000E-03 0. -1.
         11   -1    0    0    0    0 -0.00000000000E+00 -0.00000000000E+00 -0.45593999997E+02  0.45594000000E+02  0.51100000000E-03 0.  1.
    9900012    2    1    2    0    0 -0.19530414123E+02 -0.33172300779E+02  0.20044567307E+02  0.47787270820E+02  0.19999998977E+02 0.  0.
        -12    1    1    2    0    0  0.19530414123E+02  0.33172300779E+02 -0.20044567307E+02  0.43400729180E+02  0.00000000000E+00 0.  1.
         11    1    3    3    0    0 -0.32151373567E+00 -0.17977158520E+02  0.11115205694E+02  0.21138339514E+02  0.51100000000E-03 0. -1.
        -11    1    3    3    0    0 -0.17268075147E+02 -0.10989703890E+02  0.75441524671E+01  0.21814542112E+02  0.51100000000E-03 0.  1.
        -12    1    3    3    0    0 -0.19408252412E+01 -0.42054383702E+01  0.13852091453E+01  0.48343891940E+01  0.00000000000E+00 0.  1.
</event>
<event>
 7    1  0.2685294E-009  0.4778727E+02  0.7816164E-02  0.1312668E+00
        -11   -1    0    0    0    0  0.00000000000E+00  0.00000000000E+00  0.45593999997E+02  0.45594000000E+02  0.51100000000E-03 0.  1.
         11   -1    0    0    0    0 -0.00000000000E+00 -0.00000000000E+00 -0.45593999997E+02  0.45594000000E+02  0.51100000000E-03 0. -1.
    9900012    2    1    2    0    0  0.39767779096E+02  0.47388138733E+01 -0.16723969316E+02  0.47787265434E+02  0.19999974420E+02 0.  0.
        -12    1    1    2    0    0 -0.39767779096E+02 -0.47388138733E+01  0.16723969316E+02  0.43400734566E+02  0.00000000000E+00 0.  1.
         11    1    3    3    0    0  0.25607918285E+02 -0.12021842513E+01 -0.81376797209E+01  0.26896701608E+02  0.51100000000E-03 0. -1.
        -11    1    3    3    0    0  0.67172367122E+00 -0.39408213756E+00 -0.56485307218E+01  0.57019657135E+01  0.51100000000E-03 0.  1.
         12    1    3    3    0    0  0.13488137140E+02  0.63350802622E+01 -0.29377588730E+01  0.15188598113E+02  0.00000000000E+00 0. -1.
</event>
<event>
 7    1  0.2685294E-009  0.4778727E+02  0.7816164E-02  0.1312668E+00
        -11   -1    0    0    0    0  0.00000000000E+00  0.00000000000E+00  0.45593999997E+02  0.45594000000E+02  0.51100000000E-03 0.  1.
         11   -1    0    0    0    0 -0.00000000000E+00 -0.00000000000E+00 -0.45593999997E+02  0.45594000000E+02  0.51100000000E-03 0. -1.
    9900012    2    1    2    0    0 -0.41226074602E+02  0.32189133155E+01 -0.13178483099E+02  0.47787273660E+02  0.20000011925E+02 0.  0.
        -12    1    1    2    0    0  0.41226074602E+02 -0.32189133155E+01  0.13178483099E+02  0.43400726340E+02  0.00000000000E+00 0.  1.
         11    1    3    3    0    0 -0.24589780609E+02  0.56568453113E+01 -0.13486618932E+02  0.28610244665E+02  0.51100000000E-03 0. -1.
        -11    1    3    3    0    0 -0.61624060607E+01 -0.51999982673E+01  0.17459359477E+01  0.82500620017E+01  0.51100000000E-03 0.  1.
         12    1    3    3    0    0 -0.10473887932E+02  0.27620662715E+01 -0.14378001144E+01  0.10926966993E+02  0.00000000000E+00 0. -1.
</event>
<event>
 7    1  0.2685294E-009  0.4778727E+02  0.7816164E-02  0.1312668E+00
        -11   -1    0    0    0    0  0.00000000000E+00  0.00000000000E+00  0.45593999997E+02  0.45594000000E+02  0.51100000000E-03 0.  1.
         11   -1    0    0    0    0 -0.00000000000E+00 -0.00000000000E+00 -0.45593999997E+02  0.45594000000E+02  0.51100000000E-03 0. -1.
    9900012    2    1    2    0    0  0.92305768921E+01  0.69201292392E+01 -0.41839358106E+02  0.47787266997E+02  0.19999981546E+02 0.  0.
        -12    1    1    2    0    0 -0.92305768921E+01 -0.69201292392E+01  0.41839358106E+02  0.43400733003E+02  0.00000000000E+00 0.  1.
         11    1    3    3    0    0 -0.46744920139E+01 -0.19868238789E+01 -0.15842826216E+02  0.16637111753E+02  0.51100000000E-03 0. -1.
        -11    1    3    3    0    0  0.17121636792E+00  0.12136970269E+01 -0.88262357628E+00  0.15104304540E+01  0.51100000000E-03 0.  1.
         12    1    3    3    0    0  0.13733852538E+02  0.76932560913E+01 -0.25113908314E+02  0.29639724790E+02  0.00000000000E+00 0. -1.
</event>
<event>
 7    1  0.2685294E-009  0.4778727E+02  0.7816164E-02  0.1312668E+00
        -11   -1    0    0    0    0  0.00000000000E+00  0.00000000000E+00  0.45593999997E+02  0.45594000000E+02  0.51100000000E-03 0.  1.
         11   -1    0    0    0    0 -0.00000000000E+00 -0.00000000000E+00 -0.45593999997E+02  0.45594000000E+02  0.51100000000E-03 0. -1.
    9900012    2    1    2    0    0 -0.30958218441E+02 -0.29513874084E+02 -0.73582181583E+01  0.47787269281E+02  0.19999991958E+02 0.  0.
        -12    1    1    2    0    0  0.30958218441E+02  0.29513874084E+02  0.73582181583E+01  0.43400730719E+02  0.00000000000E+00 0.  1.
         11    1    3    3    0    0 -0.23348638046E+02 -0.31298544666E+02 -0.47649526094E+01  0.39337800783E+02  0.51100000000E-03 0. -1.
        -11    1    3    3    0    0 -0.25214193915E+01  0.14615919645E+01 -0.60164506492E+00  0.29758669096E+01  0.51100000000E-03 0.  1.
         12    1    3    3    0    0 -0.50881610040E+01  0.32307861730E+00 -0.19916204840E+01  0.54736015884E+01  0.00000000000E+00 0. -1.
</event>
<event>
 7    1  0.3536962E-009  0.4778726E+02  0.7816164E-02  0.1312668E+00
        -11   -1    0    0    0    0  0.00000000000E+00  0.00000000000E+00  0.45593999997E+02  0.45594000000E+02  0.51100000000E-03 0. -1.
         11   -1    0    0    0    0 -0.00000000000E+00 -0.00000000000E+00 -0.45593999997E+02  0.45594000000E+02  0.51100000000E-03 0.  1.
    9900012    2    1    2    0    0 -0.36701744473E+02  0.18014234810E+02  0.14563427740E+02  0.47787261174E+02  0.19999954995E+02 0.  0.
        -12    1    1    2    0    0  0.36701744473E+02 -0.18014234810E+02 -0.14563427740E+02  0.43400738826E+02  0.00000000000E+00 0.  1.
         11    1    3    3    0    0 -0.13807978080E+02  0.10007996315E+02  0.93154583647E+01  0.19431881373E+02  0.51100000000E-03 0. -1.
        -11    1    3    3    0    0 -0.19993564836E+02  0.49096411584E+01 -0.12160045217E+01  0.20623430326E+02  0.51100000000E-03 0.  1.
        -12    1    3    3    0    0 -0.29002015569E+01  0.30965973368E+01  0.64639738970E+01  0.77319494746E+01  0.00000000000E+00 0.  1.
</event>
<event>
 7    1  0.2685294E-009  0.4778727E+02  0.7816164E-02  0.1312668E+00
        -11   -1    0    0    0    0  0.00000000000E+00  0.00000000000E+00  0.45593999997E+02  0.45594000000E+02  0.51100000000E-03 0.  1.
         11   -1    0    0    0    0 -0.00000000000E+00 -0.00000000000E+00 -0.45593999997E+02  0.45594000000E+02  0.51100000000E-03 0. -1.
    9900012    2    1    2    0    0  0.27927678042E+02  0.26797089268E+02 -0.19636303797E+02  0.47787267047E+02  0.19999981775E+02 0.  0.
        -12    1    1    2    0    0 -0.27927678042E+02 -0.26797089268E+02  0.19636303797E+02  0.43400732953E+02  0.00000000000E+00 0.  1.
         11    1    3    3    0    0  0.22781036418E+02  0.10682081235E+02 -0.13349070911E+02  0.28482980431E+02  0.51100000000E-03 0. -1.
        -11    1    3    3    0    0  0.36971608894E+01  0.15831271687E+02 -0.42781874606E+01  0.16810742104E+02  0.51100000000E-03 0.  1.
        -12    1    3    3    0    0  0.14494807341E+01  0.28373634589E+00 -0.20090454251E+01  0.24935445119E+01  0.00000000000E+00 0.  1.
</event>
<event>
 7    1  0.2685294E-009  0.4778727E+02  0.7816164E-02  0.1312668E+00
        -11   -1    0    0    0    0  0.00000000000E+00  0.00000000000E+00  0.45593999997E+02  0.45594000000E+02  0.51100000000E-03 0.  1.
         11   -1    0    0    0    0 -0.00000000000E+00 -0.00000000000E+00 -0.45593999997E+02  0.45594000000E+02  0.51100000000E-03 0. -1.
    9900012    2    1    2    0    0  0.19686589659E+01  0.41877659461E+02 -0.11225376468E+02  0.47787273544E+02  0.20000011395E+02 0.  0.
        -12    1    1    2    0    0 -0.19686589659E+01 -0.41877659461E+02  0.11225376468E+02  0.43400726456E+02  0.00000000000E+00 0.  1.
         11    1    3    3    0    0  0.98733257312E+00  0.11250871015E+02 -0.90787583443E+01  0.14490713493E+02  0.51100000000E-03 0. -1.
        -11    1    3    3    0    0 -0.33848597930E+01  0.26056386452E+02  0.87670924636E+00  0.26289944278E+02  0.51100000000E-03 0.  1.
        -12    1    3    3    0    0  0.43661861859E+01  0.45704019946E+01 -0.30233273703E+01  0.70066157730E+01  0.00000000000E+00 0.  1.
</event>
<event>
 7    1  0.2685294E-009  0.4778727E+02  0.7816164E-02  0.1312668E+00
        -11   -1    0    0    0    0  0.00000000000E+00  0.00000000000E+00  0.45593999997E+02  0.45594000000E+02  0.51100000000E-03 0.  1.
         11   -1    0    0    0    0 -0.00000000000E+00 -0.00000000000E+00 -0.45593999997E+02  0.45594000000E+02  0.51100000000E-03 0. -1.
    9900012    2    1    2    0    0  0.28379858037E+02  0.26119496722E+02  0.19899218175E+02  0.47787270338E+02  0.19999996781E+02 0.  0.
        -12    1    1    2    0    0 -0.28379858037E+02 -0.26119496722E+02 -0.19899218175E+02  0.43400729662E+02  0.00000000000E+00 0.  1.
         11    1    3    3    0    0  0.16285130466E+01  0.12026559511E+02  0.28220528438E+01  0.12460103167E+02  0.51100000000E-03 0. -1.
        -11    1    3    3    0    0  0.23316007410E+02  0.94943658169E+01  0.14258075314E+02  0.28932194797E+02  0.51100000000E-03 0.  1.
        -12    1    3    3    0    0  0.34353375796E+01  0.45985713946E+01  0.28190900166E+01  0.63949723752E+01  0.00000000000E+00 0.  1.
</event>
<event>
 7    1  0.2685294E-009  0.4778727E+02  0.7816164E-02  0.1312668E+00
        -11   -1    0    0    0    0  0.00000000000E+00  0.00000000000E+00  0.45593999997E+02  0.45594000000E+02  0.51100000000E-03 0.  1.
         11   -1    0    0    0    0 -0.00000000000E+00 -0.00000000000E+00 -0.45593999997E+02  0.45594000000E+02  0.51100000000E-03 0. -1.
    9900012    2    1    2    0    0  0.33832361928E+01 -0.43259409509E+02  0.89461188009E+00  0.47787272718E+02  0.20000007629E+02 0.  0.
        -12    1    1    2    0    0 -0.33832361928E+01  0.43259409509E+02 -0.89461188009E+00  0.43400727282E+02  0.00000000000E+00 0.  1.
         11    1    3    3    0    0  0.45478830640E+01 -0.20427428095E+02 -0.51299486008E+01  0.21547144401E+02  0.51100000000E-03 0. -1.
        -11    1    3    3    0    0  0.14949996671E+01 -0.22585336028E+02  0.64490219129E+01  0.23535554198E+02  0.51100000000E-03 0.  1.
        -12    1    3    3    0    0 -0.26596465384E+01 -0.24664538617E+00 -0.42446143205E+00  0.27045741186E+01  0.00000000000E+00 0.  1.
</event>
<event>
 7    1  0.2685294E-009  0.4778727E+02  0.7816164E-02  0.1312668E+00
        -11   -1    0    0    0    0  0.00000000000E+00  0.00000000000E+00  0.45593999997E+02  0.45594000000E+02  0.51100000000E-03 0.  1.
         11   -1    0    0    0    0 -0.00000000000E+00 -0.00000000000E+00 -0.45593999997E+02  0.45594000000E+02  0.51100000000E-03 0. -1.
    9900012    2    1    2    0    0 -0.33818513794E+02 -0.25920512228E+02 -0.82497854848E+01  0.47787265099E+02  0.19999972894E+02 0.  0.
        -12    1    1    2    0    0  0.33818513794E+02  0.25920512228E+02  0.82497854848E+01  0.43400734901E+02  0.00000000000E+00 0.  1.
         11    1    3    3    0    0 -0.45920366391E+01 -0.11195649779E+02 -0.22651492049E+01  0.12310981913E+02  0.51100000000E-03 0. -1.
        -11    1    3    3    0    0 -0.25461200390E+02 -0.72464327137E+01 -0.32653452448E+01  0.26672944948E+02  0.51100000000E-03 0.  1.
        -12    1    3    3    0    0 -0.37652767652E+01 -0.74784297346E+01 -0.27192910351E+01  0.88033382388E+01  0.00000000000E+00 0.  1.
</event>
<event>
 7    1  0.2685294E-009  0.4778727E+02  0.7816164E-02  0.1312668E+00
        -11   -1    0    0    0    0  0.00000000000E+00  0.00000000000E+00  0.45593999997E+02  0.45594000000E+02  0.51100000000E-03 0.  1.
         11   -1    0    0    0    0 -0.00000000000E+00 -0.00000000000E+00 -0.45593999997E+02  0.45594000000E+02  0.51100000000E-03 0. -1.
    9900012    2    1    2    0    0  0.27631797757E+02 -0.12384855204E+02 -0.31092161976E+02  0.47787269337E+02  0.19999992216E+02 0.  0.
        -12    1    1    2    0    0 -0.27631797757E+02  0.12384855204E+02  0.31092161976E+02  0.43400730663E+02  0.00000000000E+00 0.  1.
         11    1    3    3    0    0  0.11974962402E+01 -0.70422015696E+01 -0.35599156985E+01  0.79812029314E+01  0.51100000000E-03 0. -1.
        -11    1    3    3    0    0 -0.84497474579E+00 -0.37496949547E-01 -0.15285567087E+01  0.17469614234E+01  0.51100000000E-03 0.  1.
         12    1    3    3    0    0  0.27279276262E+02 -0.53051566847E+01 -0.26003689569E+02  0.38059104982E+02  0.00000000000E+00 0. -1.
</event>
<event>
 7    1  0.2685294E-009  0.4778727E+02  0.7816164E-02  0.1312668E+00
        -11   -1    0    0    0    0  0.00000000000E+00  0.00000000000E+00  0.45593999997E+02  0.45594000000E+02  0.51100000000E-03 0.  1.
         11   -1    0    0    0    0 -0.00000000000E+00 -0.00000000000E+00 -0.45593999997E+02  0.45594000000E+02  0.51100000000E-03 0. -1.
    9900012    2    1    2    0    0 -0.70206525348E+01  0.12276402863E+02 -0.41031988191E+02  0.47787266318E+02  0.19999978450E+02 0.  0.
        -12    1    1    2    0    0  0.70206525348E+01 -0.12276402863E+02  0.41031988191E+02  0.43400733682E+02  0.00000000000E+00 0.  1.
         11    1    3    3    0    0 -0.48743615856E+01  0.30223911555E+01 -0.28149099849E+01  0.63888940864E+01  0.51100000000E-03 0. -1.
        -11    1    3    3    0    0 -0.24434992781E+01  0.20155826701E+01 -0.31038094025E+02  0.31199303569E+02  0.51100000000E-03 0.  1.
        -12    1    3    3    0    0  0.29720832883E+00  0.72384290373E+01 -0.71789841807E+01  0.10199068663E+02  0.00000000000E+00 0.  1.
</event>
<event>
 7    1  0.2685294E-009  0.4778726E+02  0.7816164E-02  0.1312668E+00
        -11   -1    0    0    0    0  0.00000000000E+00  0.00000000000E+00  0.45593999997E+02  0.45594000000E+02  0.51100000000E-03 0.  1.
         11   -1    0    0    0    0 -0.00000000000E+00 -0.00000000000E+00 -0.45593999997E+02  0.45594000000E+02  0.51100000000E-03 0. -1.
    9900012    2    1    2    0    0  0.41961838193E+01 -0.22873881667E+02 -0.36644254847E+02  0.47787264587E+02  0.19999970557E+02 0.  0.
        -12    1    1    2    0    0 -0.41961838193E+01  0.22873881667E+02  0.36644254847E+02  0.43400735413E+02  0.00000000000E+00 0.  1.
         11    1    3    3    0    0  0.73970871425E+01 -0.13874774438E+02 -0.13848487997E+02  0.20952491115E+02  0.51100000000E-03 0. -1.
        -11    1    3    3    0    0  0.10432966583E+01 -0.18290456241E+01  0.43924060020E+00  0.21510017151E+01  0.51100000000E-03 0.  1.
         12    1    3    3    0    0 -0.42441999815E+01 -0.71700616052E+01 -0.23235007450E+02  0.24683771756E+02  0.00000000000E+00 0. -1.
</event>
<event>
 7    1  0.2685294E-009  0.4778726E+02  0.7816164E-02  0.1312668E+00
        -11   -1    0    0    0    0  0.00000000000E+00  0.00000000000E+00  0.45593999997E+02  0.45594000000E+02  0.51100000000E-03 0.  1.
         11   -1    0    0    0    0 -0.00000000000E+00 -0.00000000000E+00 -0.45593999997E+02  0.45594000000E+02  0.51100000000E-03 0. -1.
    9900012    2    1    2    0    0  0.34838758644E+02  0.70458343018E+00 -0.25872552335E+02  0.47787256850E+02  0.19999935281E+02 0.  0.
        -12    1    1    2    0    0 -0.34838758644E+02 -0.70458343018E+00  0.25872552335E+02  0.43400743150E+02  0.00000000000E+00 0.  1.
         11    1    3    3    0    0  0.29475611158E+02  0.99663338864E+00 -0.20619106328E+02  0.35985448132E+02  0.51100000000E-03 0. -1.
        -11    1    3    3    0    0  0.38246805215E+01 -0.27081461246E+01  0.11164515507E+01  0.48175409546E+01  0.51100000000E-03 0.  1.
         12    1    3    3    0    0  0.15384669642E+01  0.24160961661E+01 -0.63698975583E+01  0.69842677631E+01  0.00000000000E+00 0. -1.
</event>
<event>
 7    1  0.2685294E-009  0.4778727E+02  0.7816164E-02  0.1312668E+00
        -11   -1    0    0    0    0  0.00000000000E+00  0.00000000000E+00  0.45593999997E+02  0.45594000000E+02  0.51100000000E-03 0.  1.
         11   -1    0    0    0    0 -0.00000000000E+00 -0.00000000000E+00 -0.45593999997E+02  0.45594000000E+02  0.51100000000E-03 0. -1.
    9900012    2    1    2    0    0  0.10070055745E+02 -0.29239300546E+02 -0.30451280677E+02  0.47787271734E+02  0.20000003145E+02 0.  0.
        -12    1    1    2    0    0 -0.10070055745E+02  0.29239300546E+02  0.30451280677E+02  0.43400728266E+02  0.00000000000E+00 0.  1.
         11    1    3    3    0    0 -0.26909006172E+00 -0.19982335694E+02 -0.90846658613E+01  0.21952159423E+02  0.51100000000E-03 0. -1.
        -11    1    3    3    0    0  0.80674753342E+01 -0.63133375528E+01 -0.12122821164E+02  0.15871521116E+02  0.51100000000E-03 0.  1.
         12    1    3    3    0    0  0.22716704723E+01 -0.29436272992E+01 -0.92437936525E+01  0.99635911950E+01  0.00000000000E+00 0. -1.
</event>
<event>
 7    1  0.2685294E-009  0.4778727E+02  0.7816164E-02  0.1312668E+00
        -11   -1    0    0    0    0  0.00000000000E+00  0.00000000000E+00  0.45593999997E+02  0.45594000000E+02  0.51100000000E-03 0.  1.
         11   -1    0    0    0    0 -0.00000000000E+00 -0.00000000000E+00 -0.45593999997E+02  0.45594000000E+02  0.51100000000E-03 0. -1.
    9900012    2    1    2    0    0 -0.19745559514E+02 -0.91319757053E+00 -0.38638091518E+02  0.47787272282E+02  0.20000005641E+02 0.  0.
        -12    1    1    2    0    0  0.19745559514E+02  0.91319757053E+00  0.38638091518E+02  0.43400727718E+02  0.00000000000E+00 0.  1.
         11    1    3    3    0    0 -0.34330247837E+01  0.75489607991E+01 -0.69757772059E+01  0.10836693970E+02  0.51100000000E-03 0.  1.
        -11    1    3    3    0    0 -0.12744549306E+02 -0.85052873291E+01 -0.27388445675E+02  0.31382963632E+02  0.51100000000E-03 0. -1.
         12    1    3    3    0    0 -0.35679854244E+01  0.43128959481E-01 -0.42738686368E+01  0.55676146796E+01  0.00000000000E+00 0. -1.
</event>
<event>
 7    1  0.2685294E-009  0.4778727E+02  0.7816164E-02  0.1312668E+00
        -11   -1    0    0    0    0  0.00000000000E+00  0.00000000000E+00  0.45593999997E+02  0.45594000000E+02  0.51100000000E-03 0. -1.
         11   -1    0    0    0    0 -0.00000000000E+00 -0.00000000000E+00 -0.45593999997E+02  0.45594000000E+02  0.51100000000E-03 0.  1.
    9900012    2    1    2    0    0  0.39378525368E+02  0.16683433263E+02  0.73903815444E+01  0.47787274833E+02  0.20000017275E+02 0.  0.
        -12    1    1    2    0    0 -0.39378525368E+02 -0.16683433263E+02 -0.73903815444E+01  0.43400725167E+02  0.00000000000E+00 0.  1.
         11    1    3    3    0    0  0.28002276651E+01  0.45074101588E+00  0.34599664538E+01  0.44739032804E+01  0.51100000000E-03 0. -1.
        -11    1    3    3    0    0  0.60569522096E+01  0.95606104234E+01  0.41948174206E+01  0.12070146444E+02  0.51100000000E-03 0.  1.
        -12    1    3    3    0    0  0.30521345493E+02  0.66720818240E+01 -0.26440232998E+00  0.31243225109E+02  0.00000000000E+00 0.  1.
</event>
<event>
 7    1  0.2685294E-009  0.4778727E+02  0.7816164E-02  0.1312668E+00
        -11   -1    0    0    0    0  0.00000000000E+00  0.00000000000E+00  0.45593999997E+02  0.45594000000E+02  0.51100000000E-03 0. -1.
         11   -1    0    0    0    0 -0.00000000000E+00 -0.00000000000E+00 -0.45593999997E+02  0.45594000000E+02  0.51100000000E-03 0.  1.
    9900012    2    1    2    0    0 -0.24443897695E+02 -0.33768757581E+02  0.12074359887E+02  0.47787270861E+02  0.19999999165E+02 0.  0.
        -12    1    1    2    0    0  0.24443897695E+02  0.33768757581E+02 -0.12074359887E+02  0.43400729139E+02  0.00000000000E+00 0.  1.
         11    1    3    3    0    0 -0.32127287907E+01 -0.11929549322E+02 -0.38345627934E+00  0.12360534467E+02  0.51100000000E-03 0. -1.
        -11    1    3    3    0    0 -0.15563628836E+02 -0.16484334504E+02  0.15048320751E+02  0.27210508711E+02  0.51100000000E-03 0.  1.
        -12    1    3    3    0    0 -0.56675400683E+01 -0.53548737542E+01 -0.25905045852E+01  0.82162276841E+01  0.00000000000E+00 0.  1.
</event>
<event>
 7    1  0.2685294E-009  0.4778727E+02  0.7816164E-02  0.1312668E+00
        -11   -1    0    0    0    0  0.00000000000E+00  0.00000000000E+00  0.45593999997E+02  0.45594000000E+02  0.51100000000E-03 0.  1.
         11   -1    0    0    0    0 -0.00000000000E+00 -0.00000000000E+00 -0.45593999997E+02  0.45594000000E+02  0.51100000000E-03 0. -1.
    9900012    2    1    2    0    0 -0.14453805395E+02  0.27244225070E+02 -0.30536259437E+02  0.47787269241E+02  0.19999991775E+02 0.  0.
        -12    1    1    2    0    0  0.14453805395E+02 -0.27244225070E+02  0.30536259437E+02  0.43400730759E+02  0.00000000000E+00 0.  1.
         11    1    3    3    0    0 -0.15851536997E+02  0.16179563625E+02 -0.20967390260E+02  0.30865530269E+02  0.51100000000E-03 0. -1.
        -11    1    3    3    0    0 -0.46764365743E+00  0.15343051031E+01  0.15004199567E+01  0.21963704258E+01  0.51100000000E-03 0.  1.
         12    1    3    3    0    0  0.18653752594E+01  0.95303563416E+01 -0.11069289134E+02  0.14725368545E+02  0.00000000000E+00 0. -1.
</event>
<event>
 7    1  0.2685294E-009  0.4778728E+02  0.7816164E-02  0.1312668E+00
        -11   -1    0    0    0    0  0.00000000000E+00  0.00000000000E+00  0.45593999997E+02  0.45594000000E+02  0.51100000000E-03 0.  1.
         11   -1    0    0    0    0 -0.00000000000E+00 -0.00000000000E+00 -0.45593999997E+02  0.45594000000E+02  0.51100000000E-03 0. -1.
    9900012    2    1    2    0    0 -0.74024120943E+01 -0.29069014176E+02 -0.31365897946E+02  0.47787275998E+02  0.20000022584E+02 0.  0.
        -12    1    1    2    0    0  0.74024120943E+01  0.29069014176E+02  0.31365897946E+02  0.43400724002E+02  0.00000000000E+00 0.  1.
         11    1    3    3    0    0 -0.57251821645E+01 -0.38362001539E+01 -0.15386312847E+01  0.70612696400E+01  0.51100000000E-03 0. -1.
        -11    1    3    3    0    0 -0.15821226543E+01 -0.23427227454E+02 -0.30755018119E+02  0.38693788107E+02  0.51100000000E-03 0.  1.
        -12    1    3    3    0    0 -0.95107275454E-01 -0.18055865682E+01  0.92775145852E+00  0.20322182505E+01  0.00000000000E+00 0.  1.
</event>
<event>
 7    1  0.2685294E-009  0.4778727E+02  0.7816164E-02  0.1312668E+00
        -11   -1    0    0    0    0  0.00000000000E+00  0.00000000000E+00  0.45593999997E+02  0.45594000000E+02  0.51100000000E-03 0.  1.
         11   -1    0    0    0    0 -0.00000000000E+00 -0.00000000000E+00 -0.45593999997E+02  0.45594000000E+02  0.51100000000E-03 0. -1.
    9900012    2    1    2    0    0 -0.33324556636E+02 -0.25350232543E+02  0.11422052149E+02  0.47787266823E+02  0.19999980755E+02 0.  0.
        -12    1    1    2    0    0  0.33324556636E+02  0.25350232543E+02 -0.11422052149E+02  0.43400733177E+02  0.00000000000E+00 0.  1.
         11    1    3    3    0    0 -0.41114608651E+01 -0.60237419374E+01  0.12124155301E+01  0.73932083057E+01  0.51100000000E-03 0. -1.
        -11    1    3    3    0    0 -0.33319546739E+01 -0.11031144824E+02  0.56580708794E+01  0.12837517066E+02  0.51100000000E-03 0.  1.
        -12    1    3    3    0    0 -0.25881141097E+02 -0.82953457821E+01  0.45515657392E+01  0.27556541452E+02  0.00000000000E+00 0.  1.
</event>
<event>
 7    1  0.2685294E-009  0.4778727E+02  0.7816164E-02  0.1312668E+00
        -11   -1    0    0    0    0  0.00000000000E+00  0.00000000000E+00  0.45593999997E+02  0.45594000000E+02  0.51100000000E-03 0. -1.
         11   -1    0    0    0    0 -0.00000000000E+00 -0.00000000000E+00 -0.45593999997E+02  0.45594000000E+02  0.51100000000E-03 0.  1.
    9900012    2    1    2    0    0  0.33468407416E+02 -0.79361667072E+01  0.26467079065E+02  0.47787270614E+02  0.19999998039E+02 0.  0.
        -12    1    1    2    0    0 -0.33468407416E+02  0.79361667072E+01 -0.26467079065E+02  0.43400729386E+02  0.00000000000E+00 0.  1.
         11    1    3    3    0    0  0.49821724201E+01 -0.10954546248E+00  0.34910671427E+01  0.60845371466E+01  0.51100000000E-03 0.  1.
        -11    1    3    3    0    0  0.24330782819E+02 -0.10853654053E+02  0.11289016190E+02  0.28934938840E+02  0.51100000000E-03 0. -1.
        -12    1    3    3    0    0  0.41554521770E+01  0.30270328082E+01  0.11686995732E+02  0.12767794627E+02  0.00000000000E+00 0.  1.
</event>
<event>
 7    1  0.2685294E-009  0.4778727E+02  0.7816164E-02  0.1312668E+00
        -11   -1    0    0    0    0  0.00000000000E+00  0.00000000000E+00  0.45593999997E+02  0.45594000000E+02  0.51100000000E-03 0.  1.
         11   -1    0    0    0    0 -0.00000000000E+00 -0.00000000000E+00 -0.45593999997E+02  0.45594000000E+02  0.51100000000E-03 0. -1.
    9900012    2    1    2    0    0 -0.34991121703E+02  0.11781135126E+02 -0.22813361509E+02  0.47787271824E+02  0.20000003554E+02 0.  0.
        -12    1    1    2    0    0  0.34991121703E+02 -0.11781135126E+02  0.22813361509E+02  0.43400728176E+02  0.00000000000E+00 0.  1.
         11    1    3    3    0    0 -0.90156194979E+01  0.23153073517E+01 -0.15688184886E+02  0.18241743018E+02  0.51100000000E-03 0. -1.
        -11    1    3    3    0    0 -0.71191142504E+01  0.60155367327E+01 -0.77862412795E+00  0.93527924004E+01  0.51100000000E-03 0.  1.
         12    1    3    3    0    0 -0.18856387955E+02  0.34502910415E+01 -0.63465524952E+01  0.20192736406E+02  0.00000000000E+00 0. -1.
</event>
<event>
 7    1  0.2685294E-009  0.4778728E+02  0.7816164E-02  0.1312668E+00
        -11   -1    0    0    0    0  0.00000000000E+00  0.00000000000E+00  0.45593999997E+02  0.45594000000E+02  0.51100000000E-03 0.  1.
         11   -1    0    0    0    0 -0.00000000000E+00 -0.00000000000E+00 -0.45593999997E+02  0.45594000000E+02  0.51100000000E-03 0. -1.
    9900012    2    1    2    0    0  0.28827087624E+02  0.12928899439E+01 -0.32418363305E+02  0.47787276219E+02  0.20000023595E+02 0.  0.
        -12    1    1    2    0    0 -0.28827087624E+02 -0.12928899439E+01  0.32418363305E+02  0.43400723781E+02  0.00000000000E+00 0.  1.
         11    1    3    3    0    0  0.28829473019E+02  0.55846260963E+01 -0.23930156897E+02  0.37881116306E+02  0.51100000000E-03 0. -1.
        -11    1    3    3    0    0 -0.12719870588E+01 -0.15653635898E+01 -0.25639674034E+01  0.32622451399E+01  0.51100000000E-03 0.  1.
         12    1    3    3    0    0  0.12696016635E+01 -0.27263725626E+01 -0.59242390049E+01  0.66439147738E+01  0.00000000000E+00 0. -1.
</event>
<event>
 7    1  0.2685294E-009  0.4778727E+02  0.7816164E-02  0.1312668E+00
        -11   -1    0    0    0    0  0.00000000000E+00  0.00000000000E+00  0.45593999997E+02  0.45594000000E+02  0.51100000000E-03 0. -1.
         11   -1    0    0    0    0 -0.00000000000E+00 -0.00000000000E+00 -0.45593999997E+02  0.45594000000E+02  0.51100000000E-03 0.  1.
    9900012    2    1    2    0    0 -0.38843723713E+02 -0.18758638537E+02 -0.47855674166E+01  0.47787273657E+02  0.20000011910E+02 0.  0.
        -12    1    1    2    0    0  0.38843723713E+02  0.18758638537E+02  0.47855674166E+01  0.43400726343E+02  0.00000000000E+00 0.  1.
         11    1    3    3    0    0 -0.19307543256E+02 -0.27947921259E-01 -0.13120775156E+01  0.19352094340E+02  0.51100000000E-03 0. -1.
        -11    1    3    3    0    0 -0.68216129375E+00  0.37999092179E+00 -0.12808112457E+01  0.15000716115E+01  0.51100000000E-03 0.  1.
         12    1    3    3    0    0 -0.18854019163E+02 -0.19110681537E+02 -0.21926786553E+01  0.26935107705E+02  0.00000000000E+00 0. -1.
</event>
<event>
 7    1  0.2685294E-009  0.4778727E+02  0.7816164E-02  0.1312668E+00
        -11   -1    0    0    0    0  0.00000000000E+00  0.00000000000E+00  0.45593999997E+02  0.45594000000E+02  0.51100000000E-03 0.  1.
         11   -1    0    0    0    0 -0.00000000000E+00 -0.00000000000E+00 -0.45593999997E+02  0.45594000000E+02  0.51100000000E-03 0. -1.
    9900012    2    1    2    0    0 -0.24422964961E+02  0.23654397523E+02 -0.26974276139E+02  0.47787270595E+02  0.19999997952E+02 0.  0.
        -12    1    1    2    0    0  0.24422964961E+02 -0.23654397523E+02  0.26974276139E+02  0.43400729405E+02  0.00000000000E+00 0.  1.
         11    1    3    3    0    0 -0.57808299355E+01  0.12203771370E+02 -0.12627460700E+02  0.18487909411E+02  0.51100000000E-03 0. -1.
        -11    1    3    3    0    0 -0.18992561093E+02  0.61312205457E+01 -0.12941256590E+02  0.23786243181E+02  0.51100000000E-03 0.  1.
        -12    1    3    3    0    0  0.35042606819E+00  0.53194056071E+01 -0.14055588492E+01  0.55131180035E+01  0.00000000000E+00 0.  1.
</event>
<event>
 7    1  0.2685294E-009  0.4778727E+02  0.7816164E-02  0.1312668E+00
        -11   -1    0    0    0    0  0.00000000000E+00  0.00000000000E+00  0.45593999997E+02  0.45594000000E+02  0.51100000000E-03 0. -1.
         11   -1    0    0    0    0 -0.00000000000E+00 -0.00000000000E+00 -0.45593999997E+02  0.45594000000E+02  0.51100000000E-03 0.  1.
    9900012    2    1    2    0    0 -0.35821475507E+02  0.19057038631E+02  0.15403724229E+02  0.47787267874E+02  0.19999985546E+02 0.  0.
        -12    1    1    2    0    0  0.35821475507E+02 -0.19057038631E+02 -0.15403724229E+02  0.43400732126E+02  0.00000000000E+00 0.  1.
         11    1    3    3    0    0 -0.44471744163E+01  0.73715241653E+01  0.49635979618E+01  0.99375064174E+01  0.51100000000E-03 0. -1.
        -11    1    3    3    0    0 -0.27533042903E+02  0.44883722695E+01  0.59004758585E+01  0.28513673084E+02  0.51100000000E-03 0.  1.
        -12    1    3    3    0    0 -0.38412581877E+01  0.71971421966E+01  0.45396504091E+01  0.93360883725E+01  0.00000000000E+00 0.  1.
</event>
<event>
 7    1  0.2685294E-009  0.4778728E+02  0.7816164E-02  0.1312668E+00
        -11   -1    0    0    0    0  0.00000000000E+00  0.00000000000E+00  0.45593999997E+02  0.45594000000E+02  0.51100000000E-03 0. -1.
         11   -1    0    0    0    0 -0.00000000000E+00 -0.00000000000E+00 -0.45593999997E+02  0.45594000000E+02  0.51100000000E-03 0.  1.
    9900012    2    1    2    0    0 -0.41326431842E+02  0.12340447054E+02  0.48437464850E+01  0.47787280164E+02  0.20000041578E+02 0.  0.
        -12    1    1    2    0    0  0.41326431842E+02 -0.12340447054E+02 -0.48437464850E+01  0.43400719836E+02  0.00000000000E+00 0.  1.
         11    1    3    3    0    0 -0.23333145145E+02  0.11122971886E+02  0.48764929479E+01  0.26304683037E+02  0.51100000000E-03 0. -1.
        -11    1    3    3    0    0 -0.64038417329E+01 -0.33895613580E+01 -0.41488706464E+01  0.83493378805E+01  0.51100000000E-03 0.  1.
         12    1    3    3    0    0 -0.11589444964E+02  0.46070365266E+01  0.41161241835E+01  0.13133259246E+02  0.00000000000E+00 0. -1.
</event>
<event>
 7    1  0.2685294E-009  0.4778728E+02  0.7816164E-02  0.1312668E+00
        -11   -1    0    0    0    0  0.00000000000E+00  0.00000000000E+00  0.45593999997E+02  0.45594000000E+02  0.51100000000E-03 0.  1.
         11   -1    0    0    0    0 -0.00000000000E+00 -0.00000000000E+00 -0.45593999997E+02  0.45594000000E+02  0.51100000000E-03 0. -1.
    9900012    2    1    2    0    0  0.74978257914E+01 -0.32095931573E+02 -0.28235731660E+02  0.47787276993E+02  0.20000027120E+02 0.  0.
        -12    1    1    2    0    0 -0.74978257914E+01  0.32095931573E+02  0.28235731660E+02  0.43400723007E+02  0.00000000000E+00 0.  1.
         11    1    3    3    0    0  0.85407498278E+01 -0.47982245822E+01 -0.13474172297E+02  0.16658952131E+02  0.51100000000E-03 0. -1.
        -11    1    3    3    0    0 -0.90125029748E+00 -0.13747230370E+02 -0.62703611146E+01  0.15136578997E+02  0.51100000000E-03 0.  1.
         12    1    3    3    0    0 -0.14167373892E+00 -0.13550476621E+02 -0.84911982490E+01  0.15991745865E+02  0.00000000000E+00 0. -1.
</event>
<event>
 7    1  0.2685294E-009  0.4778727E+02  0.7816164E-02  0.1312668E+00
        -11   -1    0    0    0    0  0.00000000000E+00  0.00000000000E+00  0.45593999997E+02  0.45594000000E+02  0.51100000000E-03 0.  1.
         11   -1    0    0    0    0 -0.00000000000E+00 -0.00000000000E+00 -0.45593999997E+02  0.45594000000E+02  0.51100000000E-03 0. -1.
    9900012    2    1    2    0    0  0.57302046930E+01 -0.33843009457E+02 -0.26560096792E+02  0.47787271014E+02  0.19999999859E+02 0.  0.
        -12    1    1    2    0    0 -0.57302046930E+01  0.33843009457E+02  0.26560096792E+02  0.43400728986E+02  0.00000000000E+00 0.  1.
         11    1    3    3    0    0  0.10637936730E+02 -0.20654750259E+02 -0.11982466532E+02  0.26141230089E+02  0.51100000000E-03 0. -1.
        -11    1    3    3    0    0 -0.49846326530E+01 -0.13163075029E+02 -0.10481757386E+02  0.17549368794E+02  0.51100000000E-03 0.  1.
         12    1    3    3    0    0  0.76900616505E-01 -0.25184169433E-01 -0.40958728736E+01  0.40966721304E+01  0.00000000000E+00 0. -1.
</event>
<event>
 7    1  0.2685294E-009  0.4778727E+02  0.7816164E-02  0.1312668E+00
        -11   -1    0    0    0    0  0.00000000000E+00  0.00000000000E+00  0.45593999997E+02  0.45594000000E+02  0.51100000000E-03 0.  1.
         11   -1    0    0    0    0 -0.00000000000E+00 -0.00000000000E+00 -0.45593999997E+02  0.45594000000E+02  0.51100000000E-03 0. -1.
    9900012    2    1    2    0    0 -0.33021427905E+02 -0.28116617598E+02 -0.16323335383E+01  0.47787269605E+02  0.19999993439E+02 0.  0.
        -12    1    1    2    0    0  0.33021427905E+02  0.28116617598E+02  0.16323335383E+01  0.43400730395E+02  0.00000000000E+00 0.  1.
         11    1    3    3    0    0 -0.28092123662E+02 -0.20617164807E+02  0.44793291696E+01  0.35132595785E+02  0.51100000000E-03 0. -1.
        -11    1    3    3    0    0  0.94957294996E+00 -0.42602920516E+01 -0.25743752722E+01  0.50674634143E+01  0.51100000000E-03 0.  1.
         12    1    3    3    0    0 -0.58788771928E+01 -0.32391607387E+01 -0.35372874357E+01  0.75872104058E+01  0.00000000000E+00 0. -1.
</event>
<event>
 7    1  0.2685294E-009  0.4778727E+02  0.7816164E-02  0.1312668E+00
        -11   -1    0    0    0    0  0.00000000000E+00  0.00000000000E+00  0.45593999997E+02  0.45594000000E+02  0.51100000000E-03 0.  1.
         11   -1    0    0    0    0 -0.00000000000E+00 -0.00000000000E+00 -0.45593999997E+02  0.45594000000E+02  0.51100000000E-03 0. -1.
    9900012    2    1    2    0    0 -0.32211451785E+02 -0.26527579339E+02 -0.11930336329E+02  0.47787274008E+02  0.20000013512E+02 0.  0.
        -12    1    1    2    0    0  0.32211451785E+02  0.26527579339E+02  0.11930336329E+02  0.43400725992E+02  0.00000000000E+00 0.  1.
         11    1    3    3    0    0 -0.71912339508E+01 -0.11809304071E+01 -0.43832172288E+01  0.85041775556E+01  0.51100000000E-03 0. -1.
        -11    1    3    3    0    0 -0.36305146201E+01 -0.11386271680E+02  0.17966373323E+01  0.12085351677E+02  0.51100000000E-03 0.  1.
        -12    1    3    3    0    0 -0.21389703214E+02 -0.13960377252E+02 -0.93437564324E+01  0.27197744776E+02  0.00000000000E+00 0.  1.
</event>
<event>
 7    1  0.2685294E-009  0.4778727E+02  0.7816164E-02  0.1312668E+00
        -11   -1    0    0    0    0  0.00000000000E+00  0.00000000000E+00  0.45593999997E+02  0.45594000000E+02  0.51100000000E-03 0.  1.
         11   -1    0    0    0    0 -0.00000000000E+00 -0.00000000000E+00 -0.45593999997E+02  0.45594000000E+02  0.51100000000E-03 0. -1.
    9900012    2    1    2    0    0 -0.23077774040E+02  0.32848328583E+02 -0.16493231406E+02  0.47787273883E+02  0.20000012940E+02 0.  0.
        -12    1    1    2    0    0  0.23077774040E+02 -0.32848328583E+02  0.16493231406E+02  0.43400726117E+02  0.00000000000E+00 0.  1.
         11    1    3    3    0    0 -0.17726016986E+02  0.22092141101E+02 -0.14862522354E+02  0.31987012171E+02  0.51100000000E-03 0. -1.
        -11    1    3    3    0    0 -0.41726216781E+01  0.67862948697E+00  0.24247745102E+01  0.48734834909E+01  0.51100000000E-03 0.  1.
        -12    1    3    3    0    0 -0.11791353757E+01  0.10077557995E+02 -0.40554835620E+01  0.10926778221E+02  0.00000000000E+00 0.  1.
</event>
<event>
 7    1  0.2685294E-009  0.4778727E+02  0.7816164E-02  0.1312668E+00
        -11   -1    0    0    0    0  0.00000000000E+00  0.00000000000E+00  0.45593999997E+02  0.45594000000E+02  0.51100000000E-03 0.  1.
         11   -1    0    0    0    0 -0.00000000000E+00 -0.00000000000E+00 -0.45593999997E+02  0.45594000000E+02  0.51100000000E-03 0. -1.
    9900012    2    1    2    0    0 -0.83910057130E+01  0.67213065208E+01 -0.42048049561E+02  0.47787269475E+02  0.19999992844E+02 0.  0.
        -12    1    1    2    0    0  0.83910057130E+01 -0.67213065208E+01  0.42048049561E+02  0.43400730525E+02  0.00000000000E+00 0.  1.
         11    1    3    3    0    0 -0.48635004605E+01  0.90998482511E+01 -0.20994736250E+02  0.23393157662E+02  0.51100000000E-03 0. -1.
        -11    1    3    3    0    0 -0.90947482252E+00 -0.66265701608E+01 -0.80497610029E+01  0.10466003488E+02  0.51100000000E-03 0.  1.
        -12    1    3    3    0    0 -0.26180304300E+01  0.42480284305E+01 -0.13003552308E+02  0.13928108325E+02  0.00000000000E+00 0.  1.
</event>
<event>
 7    1  0.2685294E-009  0.4778727E+02  0.7816164E-02  0.1312668E+00
        -11   -1    0    0    0    0  0.00000000000E+00  0.00000000000E+00  0.45593999997E+02  0.45594000000E+02  0.51100000000E-03 0. -1.
         11   -1    0    0    0    0 -0.00000000000E+00 -0.00000000000E+00 -0.45593999997E+02  0.45594000000E+02  0.51100000000E-03 0.  1.
    9900012    2    1    2    0    0  0.22059620915E+02  0.36704776845E+02  0.70537833127E+01  0.47787269854E+02  0.19999994573E+02 0.  0.
        -12    1    1    2    0    0 -0.22059620915E+02 -0.36704776845E+02 -0.70537833127E+01  0.43400730146E+02  0.00000000000E+00 0.  1.
         11    1    3    3    0    0  0.10245917473E+02  0.19040343486E+02 -0.21089209000E+01  0.21724664613E+02  0.51100000000E-03 0. -1.
        -11    1    3    3    0    0  0.11366863125E+01  0.73297788635E+01  0.83676004744E+01  0.11181880518E+02  0.51100000000E-03 0.  1.
        -12    1    3    3    0    0  0.10677017129E+02  0.10334654496E+02  0.79510373835E+00  0.14880724723E+02  0.00000000000E+00 0.  1.
</event>
<event>
 7    1  0.2685294E-009  0.4778727E+02  0.7816164E-02  0.1312668E+00
        -11   -1    0    0    0    0  0.00000000000E+00  0.00000000000E+00  0.45593999997E+02  0.45594000000E+02  0.51100000000E-03 0.  1.
         11   -1    0    0    0    0 -0.00000000000E+00 -0.00000000000E+00 -0.45593999997E+02  0.45594000000E+02  0.51100000000E-03 0. -1.
    9900012    2    1    2    0    0 -0.41386742427E+02  0.28047248106E+01 -0.12763005424E+02  0.47787271465E+02  0.20000001916E+02 0.  0.
        -12    1    1    2    0    0  0.41386742427E+02 -0.28047248106E+01  0.12763005424E+02  0.43400728535E+02  0.00000000000E+00 0.  1.
         11    1    3    3    0    0 -0.12951151664E+02  0.55169604665E+01 -0.10353023319E+02  0.17474389097E+02  0.51100000000E-03 0. -1.
        -11    1    3    3    0    0 -0.59177931359E+01 -0.41327798450E+01  0.16089255263E+01  0.73951867087E+01  0.51100000000E-03 0.  1.
        -12    1    3    3    0    0 -0.22517797627E+02  0.14205441891E+01 -0.40189076315E+01  0.22917695659E+02  0.00000000000E+00 0.  1.
</event>
<event>
 7    1  0.2685294E-009  0.4778727E+02  0.7816164E-02  0.1312668E+00
        -11   -1    0    0    0    0  0.00000000000E+00  0.00000000000E+00  0.45593999997E+02  0.45594000000E+02  0.51100000000E-03 0.  1.
         11   -1    0    0    0    0 -0.00000000000E+00 -0.00000000000E+00 -0.45593999997E+02  0.45594000000E+02  0.51100000000E-03 0. -1.
    9900012    2    1    2    0    0 -0.38370220203E+01  0.42218678323E+02  0.92996610250E+01  0.47787271521E+02  0.20000002171E+02 0.  0.
        -12    1    1    2    0    0  0.38370220203E+01 -0.42218678323E+02 -0.92996610250E+01  0.43400728479E+02  0.00000000000E+00 0.  1.
         11    1    3    3    0    0  0.17421014881E+01  0.91442702591E+01 -0.41245210861E+01  0.10181565234E+02  0.51100000000E-03 0. -1.
        -11    1    3    3    0    0 -0.97473060991E+00  0.28325522831E+02  0.12300422561E+02  0.30896370965E+02  0.51100000000E-03 0.  1.
        -12    1    3    3    0    0 -0.46043928984E+01  0.47488852335E+01  0.11237595505E+01  0.67093353211E+01  0.00000000000E+00 0.  1.
</event>
<event>
 7    1  0.2685294E-009  0.4778727E+02  0.7816164E-02  0.1312668E+00
        -11   -1    0    0    0    0  0.00000000000E+00  0.00000000000E+00  0.45593999997E+02  0.45594000000E+02  0.51100000000E-03 0. -1.
         11   -1    0    0    0    0 -0.00000000000E+00 -0.00000000000E+00 -0.45593999997E+02  0.45594000000E+02  0.51100000000E-03 0.  1.
    9900012    2    1    2    0    0  0.35007171153E+02 -0.12197938933E+02  0.22568370620E+02  0.47787273062E+02  0.20000009197E+02 0.  0.
        -12    1    1    2    0    0 -0.35007171153E+02  0.12197938933E+02 -0.22568370620E+02  0.43400726938E+02  0.00000000000E+00 0.  1.
         11    1    3    3    0    0  0.37783641934E+01 -0.97231992053E+01  0.54810812306E+01  0.11783840226E+02  0.51100000000E-03 0.  1.
        -11    1    3    3    0    0  0.24495654068E+02 -0.80667364944E+00  0.11386777253E+02  0.27024923442E+02  0.51100000000E-03 0. -1.
        -12    1    3    3    0    0  0.67331528919E+01 -0.16680660784E+01  0.57005121363E+01  0.89785093932E+01  0.00000000000E+00 0.  1.
</event>
<event>
 7    1  0.2685294E-009  0.4778727E+02  0.7816164E-02  0.1312668E+00
        -11   -1    0    0    0    0  0.00000000000E+00  0.00000000000E+00  0.45593999997E+02  0.45594000000E+02  0.51100000000E-03 0.  1.
         11   -1    0    0    0    0 -0.00000000000E+00 -0.00000000000E+00 -0.45593999997E+02  0.45594000000E+02  0.51100000000E-03 0. -1.
    9900012    2    1    2    0    0  0.41772718896E+01 -0.31900655727E+02 -0.29129395703E+02  0.47787272699E+02  0.20000007543E+02 0.  0.
        -12    1    1    2    0    0 -0.41772718896E+01  0.31900655727E+02  0.29129395703E+02  0.43400727301E+02  0.00000000000E+00 0.  1.
         11    1    3    3    0    0 -0.17275811770E+00 -0.21895825693E+02 -0.15535007464E+02  0.26847597384E+02  0.51100000000E-03 0. -1.
        -11    1    3    3    0    0  0.60060611271E+01 -0.27518876914E+01 -0.15548245851E+01  0.67869828260E+01  0.51100000000E-03 0.  1.
         12    1    3    3    0    0 -0.16560311198E+01 -0.72529423423E+01 -0.12039563654E+02  0.14152692488E+02  0.00000000000E+00 0. -1.
</event>
<event>
 7    1  0.2685294E-009  0.4778727E+02  0.7816164E-02  0.1312668E+00
        -11   -1    0    0    0    0  0.00000000000E+00  0.00000000000E+00  0.45593999997E+02  0.45594000000E+02  0.51100000000E-03 0.  1.
         11   -1    0    0    0    0 -0.00000000000E+00 -0.00000000000E+00 -0.45593999997E+02  0.45594000000E+02  0.51100000000E-03 0. -1.
    9900012    2    1    2    0    0  0.25479988217E+02 -0.30807327369E+02 -0.16890884886E+02  0.47787271764E+02  0.20000003282E+02 0.  0.
        -12    1    1    2    0    0 -0.25479988217E+02  0.30807327369E+02  0.16890884886E+02  0.43400728236E+02  0.00000000000E+00 0.  1.
         11    1    3    3    0    0  0.14817150553E+02 -0.63307329872E+01 -0.45761382467E+01  0.16750139468E+02  0.51100000000E-03 0. -1.
        -11    1    3    3    0    0  0.21948309025E+01 -0.18393093791E+01 -0.50400938624E+01  0.57967998142E+01  0.51100000000E-03 0.  1.
         12    1    3    3    0    0  0.84680067616E+01 -0.22637285002E+02 -0.72746527768E+01  0.25240332482E+02  0.00000000000E+00 0. -1.
</event>
<event>
 7    1  0.2685294E-009  0.4778727E+02  0.7816164E-02  0.1312668E+00
        -11   -1    0    0    0    0  0.00000000000E+00  0.00000000000E+00  0.45593999997E+02  0.45594000000E+02  0.51100000000E-03 0.  1.
         11   -1    0    0    0    0 -0.00000000000E+00 -0.00000000000E+00 -0.45593999997E+02  0.45594000000E+02  0.51100000000E-03 0. -1.
    9900012    2    1    2    0    0  0.36026487132E+02  0.10817563684E+02 -0.21649381683E+02  0.47787272053E+02  0.20000004598E+02 0.  0.
        -12    1    1    2    0    0 -0.36026487132E+02 -0.10817563684E+02  0.21649381683E+02  0.43400727947E+02  0.00000000000E+00 0.  1.
         11    1    3    3    0    0  0.24745680207E+02  0.63315516446E+01 -0.21856461850E+02  0.33617587064E+02  0.51100000000E-03 0. -1.
        -11    1    3    3    0    0  0.32878650219E+01 -0.34528196829E+00  0.29551029230E+01  0.44341751867E+01  0.51100000000E-03 0.  1.
         12    1    3    3    0    0  0.79929419025E+01  0.48312940076E+01 -0.27480227554E+01  0.97355098022E+01  0.00000000000E+00 0. -1.
</event>
<event>
 7    1  0.2685294E-009  0.4778727E+02  0.7816164E-02  0.1312668E+00
        -11   -1    0    0    0    0  0.00000000000E+00  0.00000000000E+00  0.45593999997E+02  0.45594000000E+02  0.51100000000E-03 0.  1.
         11   -1    0    0    0    0 -0.00000000000E+00 -0.00000000000E+00 -0.45593999997E+02  0.45594000000E+02  0.51100000000E-03 0. -1.
    9900012    2    1    2    0    0  0.13930732749E+02  0.39086340013E+02 -0.12720700449E+02  0.47787268319E+02  0.19999987574E+02 0.  0.
        -12    1    1    2    0    0 -0.13930732749E+02 -0.39086340013E+02  0.12720700449E+02  0.43400731681E+02  0.00000000000E+00 0.  1.
         11    1    3    3    0    0 -0.95324881624E+00  0.11396233947E+02 -0.94432523142E-01  0.11436422047E+02  0.51100000000E-03 0. -1.
        -11    1    3    3    0    0  0.13591604941E+02  0.11630104681E+02 -0.53427651757E+01  0.18669124237E+02  0.51100000000E-03 0.  1.
        -12    1    3    3    0    0  0.12923766240E+01  0.16060001385E+02 -0.72835027500E+01  0.17681722035E+02  0.00000000000E+00 0.  1.
</event>
<event>
 7    1  0.2685294E-009  0.4778727E+02  0.7816164E-02  0.1312668E+00
        -11   -1    0    0    0    0  0.00000000000E+00  0.00000000000E+00  0.45593999997E+02  0.45594000000E+02  0.51100000000E-03 0. -1.
         11   -1    0    0    0    0 -0.00000000000E+00 -0.00000000000E+00 -0.45593999997E+02  0.45594000000E+02  0.51100000000E-03 0.  1.
    9900012    2    1    2    0    0  0.35729934903E+02  0.10012517768E+02  0.22510985283E+02  0.47787271681E+02  0.20000002902E+02 0.  0.
        -12    1    1    2    0    0 -0.35729934903E+02 -0.10012517768E+02 -0.22510985283E+02  0.43400728319E+02  0.00000000000E+00 0.  1.
         11    1    3    3    0    0  0.22714049599E+02  0.12113144097E+02  0.12797471876E+02  0.28747723315E+02  0.51100000000E-03 0. -1.
        -11    1    3    3    0    0  0.11190899970E+02  0.10767158622E+01  0.34098495655E+01  0.11748303431E+02  0.51100000000E-03 0.  1.
         12    1    3    3    0    0  0.18249853336E+01 -0.31773421915E+01  0.63036638421E+01  0.72912449351E+01  0.00000000000E+00 0. -1.
</event>
<event>
 7    1  0.2685294E-009  0.4778727E+02  0.7816164E-02  0.1312668E+00
        -11   -1    0    0    0    0  0.00000000000E+00  0.00000000000E+00  0.45593999997E+02  0.45594000000E+02  0.51100000000E-03 0.  1.
         11   -1    0    0    0    0 -0.00000000000E+00 -0.00000000000E+00 -0.45593999997E+02  0.45594000000E+02  0.51100000000E-03 0. -1.
    9900012    2    1    2    0    0 -0.39844082699E+02 -0.16022918009E+02 -0.62720480930E+01  0.47787269419E+02  0.19999992590E+02 0.  0.
        -12    1    1    2    0    0  0.39844082699E+02  0.16022918009E+02  0.62720480930E+01  0.43400730581E+02  0.00000000000E+00 0.  1.
         11    1    3    3    0    0 -0.47267924409E+01 -0.61408764335E+01 -0.60537223075E+00  0.77729920847E+01  0.51100000000E-03 0. -1.
        -11    1    3    3    0    0 -0.20116465421E+02 -0.12319093235E+02  0.54804379780E+00  0.23595181530E+02  0.51100000000E-03 0.  1.
        -12    1    3    3    0    0 -0.15000824837E+02  0.24370516593E+01 -0.62147196600E+01  0.16419095805E+02  0.00000000000E+00 0.  1.
</event>
<event>
 7    1  0.2685294E-009  0.4778727E+02  0.7816164E-02  0.1312668E+00
        -11   -1    0    0    0    0  0.00000000000E+00  0.00000000000E+00  0.45593999997E+02  0.45594000000E+02  0.51100000000E-03 0. -1.
         11   -1    0    0    0    0 -0.00000000000E+00 -0.00000000000E+00 -0.45593999997E+02  0.45594000000E+02  0.51100000000E-03 0.  1.
    9900012    2    1    2    0    0  0.13729314479E+01  0.37408386823E+02 -0.21962490037E+02  0.47787270581E+02  0.19999997885E+02 0.  0.
        -12    1    1    2    0    0 -0.13729314479E+01 -0.37408386823E+02  0.21962490037E+02  0.43400729419E+02  0.00000000000E+00 0.  1.
         11    1    3    3    0    0  0.22957891196E+01  0.88673984153E+01 -0.11874687559E+02  0.14996986605E+02  0.51100000000E-03 0. -1.
        -11    1    3    3    0    0 -0.44547634715E+01  0.63619369122E+01  0.84445514942E+00  0.78123148696E+01  0.51100000000E-03 0.  1.
        -12    1    3    3    0    0  0.35319057998E+01  0.22179051496E+02 -0.10932257628E+02  0.24977969106E+02  0.00000000000E+00 0.  1.
</event>
<event>
 7    1  0.2685294E-009  0.4778726E+02  0.7816164E-02  0.1312668E+00
        -11   -1    0    0    0    0  0.00000000000E+00  0.00000000000E+00  0.45593999997E+02  0.45594000000E+02  0.51100000000E-03 0.  1.
         11   -1    0    0    0    0 -0.00000000000E+00 -0.00000000000E+00 -0.45593999997E+02  0.45594000000E+02  0.51100000000E-03 0. -1.
    9900012    2    1    2    0    0 -0.38653092358E+02 -0.53540342172E+01 -0.18997284954E+02  0.47787261909E+02  0.19999958348E+02 0.  0.
        -12    1    1    2    0    0  0.38653092358E+02  0.53540342172E+01  0.18997284954E+02  0.43400738091E+02  0.00000000000E+00 0.  1.
         11    1    3    3    0    0 -0.30761625692E+02 -0.99956913711E+01 -0.13238793432E+02  0.34949350680E+02  0.51100000000E-03 0. -1.
        -11    1    3    3    0    0 -0.21902735317E+01  0.30901261374E+01  0.94340510694E+00  0.39033563949E+01  0.51100000000E-03 0.  1.
         12    1    3    3    0    0 -0.57011931344E+01  0.15515310166E+01 -0.67018966289E+01  0.89345548337E+01  0.00000000000E+00 0. -1.
</event>
<event>
 7    1  0.2685294E-009  0.4778727E+02  0.7816164E-02  0.1312668E+00
        -11   -1    0    0    0    0  0.00000000000E+00  0.00000000000E+00  0.45593999997E+02  0.45594000000E+02  0.51100000000E-03 0.  1.
         11   -1    0    0    0    0 -0.00000000000E+00 -0.00000000000E+00 -0.45593999997E+02  0.45594000000E+02  0.51100000000E-03 0. -1.
    9900012    2    1    2    0    0 -0.18246054576E+02  0.25024329370E+01 -0.39299395414E+02  0.47787272378E+02  0.20000006082E+02 0.  0.
        -12    1    1    2    0    0  0.18246054576E+02 -0.25024329370E+01  0.39299395414E+02  0.43400727622E+02  0.00000000000E+00 0.  1.
         11    1    3    3    0    0 -0.14030821729E+02  0.20992677812E+01 -0.26486899797E+02  0.30047075477E+02  0.51100000000E-03 0. -1.
        -11    1    3    3    0    0 -0.77381790191E-01  0.46231657664E+01 -0.13061855422E+01  0.48047654029E+01  0.51100000000E-03 0.  1.
        -12    1    3    3    0    0 -0.41378510569E+01 -0.42200006106E+01 -0.11506310074E+02  0.12935431498E+02  0.00000000000E+00 0.  1.
</event>
<event>
 7    1  0.2685294E-009  0.4778727E+02  0.7816164E-02  0.1312668E+00
        -11   -1    0    0    0    0  0.00000000000E+00  0.00000000000E+00  0.45593999997E+02  0.45594000000E+02  0.51100000000E-03 0.  1.
         11   -1    0    0    0    0 -0.00000000000E+00 -0.00000000000E+00 -0.45593999997E+02  0.45594000000E+02  0.51100000000E-03 0. -1.
    9900012    2    1    2    0    0  0.13041225755E+02 -0.33735094140E+02 -0.23989437410E+02  0.47787271284E+02  0.20000001091E+02 0.  0.
        -12    1    1    2    0    0 -0.13041225755E+02  0.33735094140E+02  0.23989437410E+02  0.43400728716E+02  0.00000000000E+00 0.  1.
         11    1    3    3    0    0  0.32850355199E+01 -0.11366501653E+01 -0.55113381837E+01  0.65160019031E+01  0.51100000000E-03 0. -1.
        -11    1    3    3    0    0  0.53819515705E+01 -0.12395476649E+02  0.47510758799E-01  0.13513530315E+02  0.51100000000E-03 0.  1.
        -12    1    3    3    0    0  0.43742386642E+01 -0.20202967327E+02 -0.18525609985E+02  0.27757739065E+02  0.00000000000E+00 0.  1.
</event>
<event>
 7    1  0.2685294E-009  0.4778721E+02  0.7816164E-02  0.1312668E+00
        -11   -1    0    0    0    0  0.00000000000E+00  0.00000000000E+00  0.45593999997E+02  0.45594000000E+02  0.51100000000E-03 0. -1.
         11   -1    0    0    0    0 -0.00000000000E+00 -0.00000000000E+00 -0.45593999997E+02  0.45594000000E+02  0.51100000000E-03 0.  1.
    9900012    2    1    2    0    0 -0.19644337739E+02  0.33296184667E+02  0.19725428737E+02  0.47787211327E+02  0.19999727722E+02 0.  0.
        -12    1    1    2    0    0  0.19644337739E+02 -0.33296184667E+02 -0.19725428737E+02  0.43400788673E+02  0.00000000000E+00 0.  1.
         11    1    3    3    0    0 -0.46864281512E+01  0.14335628933E+02  0.14667318864E+02  0.21038134629E+02  0.51100000000E-03 0. -1.
        -11    1    3    3    0    0 -0.15173886731E+02  0.12182826765E+02  0.32282525405E+01  0.19725357315E+02  0.51100000000E-03 0.  1.
         12    1    3    3    0    0  0.21597714298E+00  0.67777289696E+01  0.18298573321E+01  0.70237193828E+01  0.00000000000E+00 0. -1.
</event>
<event>
 7    1  0.2685294E-009  0.4778727E+02  0.7816164E-02  0.1312668E+00
        -11   -1    0    0    0    0  0.00000000000E+00  0.00000000000E+00  0.45593999997E+02  0.45594000000E+02  0.51100000000E-03 0.  1.
         11   -1    0    0    0    0 -0.00000000000E+00 -0.00000000000E+00 -0.45593999997E+02  0.45594000000E+02  0.51100000000E-03 0. -1.
    9900012    2    1    2    0    0  0.80939652560E+01  0.23177060827E+02 -0.35790149046E+02  0.47787272001E+02  0.20000004361E+02 0.  0.
        -12    1    1    2    0    0 -0.80939652560E+01 -0.23177060827E+02  0.35790149046E+02  0.43400727999E+02  0.00000000000E+00 0.  1.
         11    1    3    3    0    0 -0.34563931029E+01  0.41948227575E+01 -0.78191179351E+01  0.95226990288E+01  0.51100000000E-03 0.  1.
        -11    1    3    3    0    0  0.14224524115E+02  0.15464616014E+02 -0.25992711342E+02  0.33423232607E+02  0.51100000000E-03 0. -1.
         12    1    3    3    0    0 -0.26741657565E+01  0.35176220555E+01 -0.19783197688E+01  0.48413403646E+01  0.00000000000E+00 0. -1.
</event>
<event>
 7    1  0.2685294E-009  0.4778727E+02  0.7816164E-02  0.1312668E+00
        -11   -1    0    0    0    0  0.00000000000E+00  0.00000000000E+00  0.45593999997E+02  0.45594000000E+02  0.51100000000E-03 0.  1.
         11   -1    0    0    0    0 -0.00000000000E+00 -0.00000000000E+00 -0.45593999997E+02  0.45594000000E+02  0.51100000000E-03 0. -1.
    9900012    2    1    2    0    0  0.38826856756E+02  0.11394952517E+02 -0.15692468510E+02  0.47787270555E+02  0.19999997770E+02 0.  0.
        -12    1    1    2    0    0 -0.38826856756E+02 -0.11394952517E+02  0.15692468510E+02  0.43400729445E+02  0.00000000000E+00 0.  1.
         11    1    3    3    0    0  0.11787419456E+02  0.53492054472E+01 -0.35068499778E+01  0.13411012392E+02  0.51100000000E-03 0. -1.
        -11    1    3    3    0    0  0.55043797375E+01  0.69417968523E+01 -0.89283265825E+01  0.12577827939E+02  0.51100000000E-03 0.  1.
        -12    1    3    3    0    0  0.21535057562E+02 -0.89604978264E+00 -0.32572919499E+01  0.21798430225E+02  0.00000000000E+00 0.  1.
</event>
<event>
 7    1  0.2685294E-009  0.4778727E+02  0.7816164E-02  0.1312668E+00
        -11   -1    0    0    0    0  0.00000000000E+00  0.00000000000E+00  0.45593999997E+02  0.45594000000E+02  0.51100000000E-03 0.  1.
         11   -1    0    0    0    0 -0.00000000000E+00 -0.00000000000E+00 -0.45593999997E+02  0.45594000000E+02  0.51100000000E-03 0. -1.
    9900012    2    1    2    0    0 -0.14290181069E+02 -0.29380441113E+02 -0.28569277532E+02  0.47787271738E+02  0.20000003163E+02 0.  0.
        -12    1    1    2    0    0  0.14290181069E+02  0.29380441113E+02  0.28569277532E+02  0.43400728262E+02  0.00000000000E+00 0.  1.
         11    1    3    3    0    0 -0.10421615034E+02 -0.16158351732E+02 -0.16642183380E+02  0.25429602013E+02  0.51100000000E-03 0. -1.
        -11    1    3    3    0    0  0.19919675309E+01  0.13825126150E+01 -0.41447480944E+01  0.48018967921E+01  0.51100000000E-03 0.  1.
        -12    1    3    3    0    0 -0.58605335657E+01 -0.14604601995E+02 -0.77823460577E+01  0.17555772933E+02  0.00000000000E+00 0.  1.
</event>
<event>
 7    1  0.2685294E-009  0.4778727E+02  0.7816164E-02  0.1312668E+00
        -11   -1    0    0    0    0  0.00000000000E+00  0.00000000000E+00  0.45593999997E+02  0.45594000000E+02  0.51100000000E-03 0.  1.
         11   -1    0    0    0    0 -0.00000000000E+00 -0.00000000000E+00 -0.45593999997E+02  0.45594000000E+02  0.51100000000E-03 0. -1.
    9900012    2    1    2    0    0  0.11297883530E+02  0.26264357608E+02 -0.32652182856E+02  0.47787266157E+02  0.19999977717E+02 0.  0.
        -12    1    1    2    0    0 -0.11297883530E+02 -0.26264357608E+02  0.32652182856E+02  0.43400733843E+02  0.00000000000E+00 0.  1.
         11    1    3    3    0    0  0.26059396999E+01  0.16836193635E+02 -0.60242916929E+01  0.18070429671E+02  0.51100000000E-03 0. -1.
        -11    1    3    3    0    0  0.16111644146E+01  0.29797119208E+00 -0.33271646646E+01  0.37087278909E+01  0.51100000000E-03 0.  1.
         12    1    3    3    0    0  0.70807794151E+01  0.91301927814E+01 -0.23300726499E+02  0.26008108595E+02  0.00000000000E+00 0. -1.
</event>
<event>
 7    1  0.2685294E-009  0.4778727E+02  0.7816164E-02  0.1312668E+00
        -11   -1    0    0    0    0  0.00000000000E+00  0.00000000000E+00  0.45593999997E+02  0.45594000000E+02  0.51100000000E-03 0. -1.
         11   -1    0    0    0    0 -0.00000000000E+00 -0.00000000000E+00 -0.45593999997E+02  0.45594000000E+02  0.51100000000E-03 0.  1.
    9900012    2    1    2    0    0 -0.16593765772E+02  0.19257929961E+02  0.35176727542E+02  0.47787273169E+02  0.20000009686E+02 0.  0.
        -12    1    1    2    0    0  0.16593765772E+02 -0.19257929961E+02 -0.35176727542E+02  0.43400726831E+02  0.00000000000E+00 0.  1.
         11    1    3    3    0    0 -0.41264026873E+01 -0.13737250375E+01  0.20055884263E-01  0.43491058984E+01  0.51100000000E-03 0. -1.
        -11    1    3    3    0    0 -0.45890514332E+01  0.15350874911E+01  0.60905610031E+01  0.77788701143E+01  0.51100000000E-03 0.  1.
         12    1    3    3    0    0 -0.78783116516E+01  0.19096567508E+02  0.29066110655E+02  0.35659297156E+02  0.00000000000E+00 0. -1.
</event>
<event>
 7    1  0.2685294E-009  0.4778727E+02  0.7816164E-02  0.1312668E+00
        -11   -1    0    0    0    0  0.00000000000E+00  0.00000000000E+00  0.45593999997E+02  0.45594000000E+02  0.51100000000E-03 0. -1.
         11   -1    0    0    0    0 -0.00000000000E+00 -0.00000000000E+00 -0.45593999997E+02  0.45594000000E+02  0.51100000000E-03 0.  1.
    9900012    2    1    2    0    0  0.29552383085E+02  0.79523468309E+00  0.31774952849E+02  0.47787269906E+02  0.19999994808E+02 0.  0.
        -12    1    1    2    0    0 -0.29552383085E+02 -0.79523468309E+00 -0.31774952849E+02  0.43400730094E+02  0.00000000000E+00 0.  1.
         11    1    3    3    0    0  0.18842702042E+01  0.35507527448E+00  0.54324419724E+01  0.57609008582E+01  0.51100000000E-03 0. -1.
        -11    1    3    3    0    0  0.30039478489E+02  0.67086621138E+00  0.25750000883E+02  0.39571237978E+02  0.51100000000E-03 0.  1.
        -12    1    3    3    0    0 -0.23713656084E+01 -0.23070680277E+00  0.59250999326E+00  0.24551310698E+01  0.00000000000E+00 0.  1.
</event>
<event>
 7    1  0.2685294E-009  0.4778727E+02  0.7816164E-02  0.1312668E+00
        -11   -1    0    0    0    0  0.00000000000E+00  0.00000000000E+00  0.45593999997E+02  0.45594000000E+02  0.51100000000E-03 0.  1.
         11   -1    0    0    0    0 -0.00000000000E+00 -0.00000000000E+00 -0.45593999997E+02  0.45594000000E+02  0.51100000000E-03 0. -1.
    9900012    2    1    2    0    0 -0.19143651661E+02 -0.26284549395E+02 -0.28744850816E+02  0.47787269773E+02  0.19999994202E+02 0.  0.
        -12    1    1    2    0    0  0.19143651661E+02  0.26284549395E+02  0.28744850816E+02  0.43400730227E+02  0.00000000000E+00 0.  1.
         11    1    3    3    0    0 -0.15816969621E+02 -0.16878454168E+02 -0.19990418838E+02  0.30572464551E+02  0.51100000000E-03 0. -1.
        -11    1    3    3    0    0  0.13673974073E+00  0.23442483100E+01 -0.26072254457E+01  0.35088206967E+01  0.51100000000E-03 0.  1.
         12    1    3    3    0    0 -0.34634217801E+01 -0.11750343537E+02 -0.61472065320E+01  0.13705984525E+02  0.00000000000E+00 0. -1.
</event>
<event>
 7    1  0.2685294E-009  0.4778727E+02  0.7816164E-02  0.1312668E+00
        -11   -1    0    0    0    0  0.00000000000E+00  0.00000000000E+00  0.45593999997E+02  0.45594000000E+02  0.51100000000E-03 0.  1.
         11   -1    0    0    0    0 -0.00000000000E+00 -0.00000000000E+00 -0.45593999997E+02  0.45594000000E+02  0.51100000000E-03 0. -1.
    9900012    2    1    2    0    0 -0.31759934874E+02  0.96714167654E+00 -0.29563394412E+02  0.47787272870E+02  0.20000008325E+02 0.  0.
        -12    1    1    2    0    0  0.31759934874E+02 -0.96714167654E+00  0.29563394412E+02  0.43400727130E+02  0.00000000000E+00 0.  1.
         11    1    3    3    0    0 -0.12548374570E+02  0.24314358634E+01 -0.13603330561E+02  0.18666124057E+02  0.51100000000E-03 0. -1.
        -11    1    3    3    0    0 -0.11903512954E+02 -0.72256227073E+01 -0.51244288840E+01  0.14837891218E+02  0.51100000000E-03 0.  1.
        -12    1    3    3    0    0 -0.73080473500E+01  0.57613285205E+01 -0.10835634967E+02  0.14283257595E+02  0.00000000000E+00 0.  1.
</event>
<event>
 7    1  0.2685294E-009  0.4778727E+02  0.7816164E-02  0.1312668E+00
        -11   -1    0    0    0    0  0.00000000000E+00  0.00000000000E+00  0.45593999997E+02  0.45594000000E+02  0.51100000000E-03 0. -1.
         11   -1    0    0    0    0 -0.00000000000E+00 -0.00000000000E+00 -0.45593999997E+02  0.45594000000E+02  0.51100000000E-03 0.  1.
    9900012    2    1    2    0    0  0.15608116640E+02  0.24355645887E+02  0.32354481884E+02  0.47787270863E+02  0.19999999173E+02 0.  0.
        -12    1    1    2    0    0 -0.15608116640E+02 -0.24355645887E+02 -0.32354481884E+02  0.43400729137E+02  0.00000000000E+00 0.  1.
         11    1    3    3    0    0  0.70898865254E+01  0.29038389174E+01  0.11399970706E+02  0.13735286810E+02  0.51100000000E-03 0. -1.
        -11    1    3    3    0    0 -0.19721191771E+01  0.13301280125E+02  0.90010262317E+01  0.16181216904E+02  0.51100000000E-03 0.  1.
        -12    1    3    3    0    0  0.10490349292E+02  0.81505268438E+01  0.11953484947E+02  0.17870767149E+02  0.00000000000E+00 0.  1.
</event>
<event>
 7    1  0.2685294E-009  0.4778727E+02  0.7816164E-02  0.1312668E+00
        -11   -1    0    0    0    0  0.00000000000E+00  0.00000000000E+00  0.45593999997E+02  0.45594000000E+02  0.51100000000E-03 0. -1.
         11   -1    0    0    0    0 -0.00000000000E+00 -0.00000000000E+00 -0.45593999997E+02  0.45594000000E+02  0.51100000000E-03 0.  1.
    9900012    2    1    2    0    0  0.16162543048E+02  0.35525199931E+02  0.18983043450E+02  0.47787267673E+02  0.19999984628E+02 0.  0.
        -12    1    1    2    0    0 -0.16162543048E+02 -0.35525199931E+02 -0.18983043450E+02  0.43400732327E+02  0.00000000000E+00 0.  1.
         11    1    3    3    0    0  0.14633306102E+02  0.23172470336E+02  0.17351695412E+02  0.32437298946E+02  0.51100000000E-03 0. -1.
        -11    1    3    3    0    0 -0.48834948611E+00  0.12638781576E+02 -0.14142746122E+00  0.12649003396E+02  0.51100000000E-03 0.  1.
        -12    1    3    3    0    0  0.20175864319E+01 -0.28605198131E+00  0.17727754998E+01  0.27009653309E+01  0.00000000000E+00 0.  1.
</event>
<event>
 7    1  0.2685294E-009  0.4778728E+02  0.7816164E-02  0.1312668E+00
        -11   -1    0    0    0    0  0.00000000000E+00  0.00000000000E+00  0.45593999997E+02  0.45594000000E+02  0.51100000000E-03 0.  1.
         11   -1    0    0    0    0 -0.00000000000E+00 -0.00000000000E+00 -0.45593999997E+02  0.45594000000E+02  0.51100000000E-03 0. -1.
    9900012    2    1    2    0    0  0.24536929650E+02 -0.70285470793E+01 -0.35102154757E+02  0.47787278125E+02  0.20000032282E+02 0.  0.
        -12    1    1    2    0    0 -0.24536929650E+02  0.70285470793E+01  0.35102154757E+02  0.43400721875E+02  0.00000000000E+00 0.  1.
         11    1    3    3    0    0  0.17658075171E+02  0.43786565318E+00 -0.14858898021E+02  0.23082161851E+02  0.51100000000E-03 0. -1.
        -11    1    3    3    0    0  0.88320395698E+01 -0.81153396887E+01 -0.18259386494E+02  0.21846483850E+02  0.51100000000E-03 0.  1.
        -12    1    3    3    0    0 -0.19531850906E+01  0.64892695622E+00 -0.19838702433E+01  0.28586324239E+01  0.00000000000E+00 0.  1.
</event>
<event>
 7    1  0.2685294E-009  0.4778727E+02  0.7816164E-02  0.1312668E+00
        -11   -1    0    0    0    0  0.00000000000E+00  0.00000000000E+00  0.45593999997E+02  0.45594000000E+02  0.51100000000E-03 0.  1.
         11   -1    0    0    0    0 -0.00000000000E+00 -0.00000000000E+00 -0.45593999997E+02  0.45594000000E+02  0.51100000000E-03 0. -1.
    9900012    2    1    2    0    0  0.12706809795E+02  0.17274545361E+02 -0.37732616174E+02  0.47787271251E+02  0.20000000943E+02 0.  0.
        -12    1    1    2    0    0 -0.12706809795E+02 -0.17274545361E+02  0.37732616174E+02  0.43400728749E+02  0.00000000000E+00 0.  1.
         11    1    3    3    0    0  0.17175211736E+01  0.36098388876E+00 -0.36374986161E+01  0.40387603039E+01  0.51100000000E-03 0. -1.
        -11    1    3    3    0    0  0.15848611537E+01  0.16337102764E+02 -0.14075517006E+02  0.21622508893E+02  0.51100000000E-03 0.  1.
        -12    1    3    3    0    0  0.94044274673E+01  0.57645870830E+00 -0.20019600552E+02  0.22126002054E+02  0.00000000000E+00 0.  1.
</event>
<event>
 7    1  0.2685294E-009  0.4778728E+02  0.7816164E-02  0.1312668E+00
        -11   -1    0    0    0    0  0.00000000000E+00  0.00000000000E+00  0.45593999997E+02  0.45594000000E+02  0.51100000000E-03 0.  1.
         11   -1    0    0    0    0 -0.00000000000E+00 -0.00000000000E+00 -0.45593999997E+02  0.45594000000E+02  0.51100000000E-03 0. -1.
    9900012    2    1    2    0    0 -0.20971467516E+02  0.34660200631E+02 -0.15572117102E+02  0.47787276635E+02  0.20000025492E+02 0.  0.
        -12    1    1    2    0    0  0.20971467516E+02 -0.34660200631E+02  0.15572117102E+02  0.43400723365E+02  0.00000000000E+00 0.  1.
         11    1    3    3    0    0 -0.75699510514E-01  0.80937042622E+01 -0.75958858542E+01  0.11100056814E+02  0.51100000000E-03 0. -1.
        -11    1    3    3    0    0 -0.16431964153E+02  0.21897866602E+02 -0.13157198118E+01  0.27409070150E+02  0.51100000000E-03 0.  1.
        -12    1    3    3    0    0 -0.44638038525E+01  0.46686297670E+01 -0.66605114361E+01  0.92781496714E+01  0.00000000000E+00 0.  1.
</event>
<event>
 7    1  0.2685294E-009  0.4778727E+02  0.7816164E-02  0.1312668E+00
        -11   -1    0    0    0    0  0.00000000000E+00  0.00000000000E+00  0.45593999997E+02  0.45594000000E+02  0.51100000000E-03 0. -1.
         11   -1    0    0    0    0 -0.00000000000E+00 -0.00000000000E+00 -0.45593999997E+02  0.45594000000E+02  0.51100000000E-03 0.  1.
    9900012    2    1    2    0    0  0.41571390097E+02  0.76931527289E+01  0.98111477698E+01  0.47787266203E+02  0.19999977927E+02 0.  0.
        -12    1    1    2    0    0 -0.41571390097E+02 -0.76931527289E+01 -0.98111477698E+01  0.43400733797E+02  0.00000000000E+00 0.  1.
         11    1    3    3    0    0  0.24455811073E+01  0.27845335132E+01  0.42187605876E+01  0.56153748758E+01  0.51100000000E-03 0.  1.
        -11    1    3    3    0    0  0.28643916533E+02 -0.24176520327E+01  0.16648763212E+01  0.28793937021E+02  0.51100000000E-03 0. -1.
        -12    1    3    3    0    0  0.10481892457E+02  0.73262712483E+01  0.39275108610E+01  0.13377954307E+02  0.00000000000E+00 0.  1.
</event>
<event>
 7    1  0.2685294E-009  0.4778727E+02  0.7816164E-02  0.1312668E+00
        -11   -1    0    0    0    0  0.00000000000E+00  0.00000000000E+00  0.45593999997E+02  0.45594000000E+02  0.51100000000E-03 0.  1.
         11   -1    0    0    0    0 -0.00000000000E+00 -0.00000000000E+00 -0.45593999997E+02  0.45594000000E+02  0.51100000000E-03 0. -1.
    9900012    2    1    2    0    0  0.14576642588E+01  0.56573660707E+01 -0.43005729566E+02  0.47787270151E+02  0.19999995925E+02 0.  0.
        -12    1    1    2    0    0 -0.14576642588E+01 -0.56573660707E+01  0.43005729566E+02  0.43400729849E+02  0.00000000000E+00 0.  1.
         11    1    3    3    0    0  0.70509272678E+01 -0.91939717898E+00 -0.23315867876E+02  0.24376024318E+02  0.51100000000E-03 0. -1.
        -11    1    3    3    0    0 -0.38247493833E+01  0.17279552456E+01 -0.14267620749E+01  0.44328531958E+01  0.51100000000E-03 0.  1.
         12    1    3    3    0    0 -0.17685136256E+01  0.48488080040E+01 -0.18263099615E+02  0.18978392636E+02  0.00000000000E+00 0. -1.
</event>
<event>
 7    1  0.2685294E-009  0.4778727E+02  0.7816164E-02  0.1312668E+00
        -11   -1    0    0    0    0  0.00000000000E+00  0.00000000000E+00  0.45593999997E+02  0.45594000000E+02  0.51100000000E-03 0.  1.
         11   -1    0    0    0    0 -0.00000000000E+00 -0.00000000000E+00 -0.45593999997E+02  0.45594000000E+02  0.51100000000E-03 0. -1.
    9900012    2    1    2    0    0  0.30651238351E+02 -0.27542609417E+02  0.13620922563E+02  0.47787271004E+02  0.19999999814E+02 0.  0.
        -12    1    1    2    0    0 -0.30651238351E+02  0.27542609417E+02 -0.13620922563E+02  0.43400728996E+02  0.00000000000E+00 0.  1.
         11    1    3    3    0    0  0.10236554018E+02 -0.97829044177E+01  0.12137828458E+02  0.18649909838E+02  0.51100000000E-03 0. -1.
        -11    1    3    3    0    0  0.38378570551E+01 -0.51892393592E-01  0.29441041688E+01  0.48373121890E+01  0.51100000000E-03 0.  1.
         12    1    3    3    0    0  0.16576827278E+02 -0.17707812605E+02 -0.14610100646E+01  0.24300048977E+02  0.00000000000E+00 0. -1.
</event>
<event>
 7    1  0.2685294E-009  0.4778727E+02  0.7816164E-02  0.1312668E+00
        -11   -1    0    0    0    0  0.00000000000E+00  0.00000000000E+00  0.45593999997E+02  0.45594000000E+02  0.51100000000E-03 0.  1.
         11   -1    0    0    0    0 -0.00000000000E+00 -0.00000000000E+00 -0.45593999997E+02  0.45594000000E+02  0.51100000000E-03 0. -1.
    9900012    2    1    2    0    0  0.25007927418E+02 -0.32364676260E+02 -0.14517396209E+02  0.47787268487E+02  0.19999988339E+02 0.  0.
        -12    1    1    2    0    0 -0.25007927418E+02  0.32364676260E+02  0.14517396209E+02  0.43400731513E+02  0.00000000000E+00 0.  1.
         11    1    3    3    0    0  0.10858459639E+02 -0.97565025328E+01 -0.98923059916E+01  0.17633865302E+02  0.51100000000E-03 0. -1.
        -11    1    3    3    0    0  0.13866831663E+02 -0.16674351865E+02  0.13484807009E+01  0.21728815683E+02  0.51100000000E-03 0.  1.
        -12    1    3    3    0    0  0.28263611614E+00 -0.59338218623E+01 -0.59735709182E+01  0.84245875022E+01  0.00000000000E+00 0.  1.
</event>
<event>
 7    1  0.2685294E-009  0.4778727E+02  0.7816164E-02  0.1312668E+00
        -11   -1    0    0    0    0  0.00000000000E+00  0.00000000000E+00  0.45593999997E+02  0.45594000000E+02  0.51100000000E-03 0. -1.
         11   -1    0    0    0    0 -0.00000000000E+00 -0.00000000000E+00 -0.45593999997E+02  0.45594000000E+02  0.51100000000E-03 0.  1.
    9900012    2    1    2    0    0  0.29363649309E+02  0.18875797841E+02  0.25789603609E+02  0.47787270753E+02  0.19999998673E+02 0.  0.
        -12    1    1    2    0    0 -0.29363649309E+02 -0.18875797841E+02 -0.25789603609E+02  0.43400729247E+02  0.00000000000E+00 0.  1.
         11    1    3    3    0    0  0.82626131547E+01  0.96549118049E+01  0.70613413314E+01  0.14537903555E+02  0.51100000000E-03 0. -1.
        -11    1    3    3    0    0  0.53343350944E+01  0.63355158485E+01 -0.40186086437E+00  0.82918866599E+01  0.51100000000E-03 0.  1.
         12    1    3    3    0    0  0.15766701060E+02  0.28853701872E+01  0.19130123142E+02  0.24957480539E+02  0.00000000000E+00 0. -1.
</event>
<event>
 7    1  0.2685294E-009  0.4778726E+02  0.7816164E-02  0.1312668E+00
        -11   -1    0    0    0    0  0.00000000000E+00  0.00000000000E+00  0.45593999997E+02  0.45594000000E+02  0.51100000000E-03 0.  1.
         11   -1    0    0    0    0 -0.00000000000E+00 -0.00000000000E+00 -0.45593999997E+02  0.45594000000E+02  0.51100000000E-03 0. -1.
    9900012    2    1    2    0    0 -0.90923641424E+01  0.37388861285E+02  0.20075504751E+02  0.47787263545E+02  0.19999965805E+02 0.  0.
        -12    1    1    2    0    0  0.90923641424E+01 -0.37388861285E+02 -0.20075504751E+02  0.43400736455E+02  0.00000000000E+00 0.  1.
         11    1    3    3    0    0 -0.11375738717E+02  0.21995176090E+02  0.10265277681E+02  0.26806177062E+02  0.51100000000E-03 0. -1.
        -11    1    3    3    0    0 -0.39345400387E+01  0.71091716485E+01  0.51715794788E+01  0.96315191642E+01  0.51100000000E-03 0.  1.
         12    1    3    3    0    0  0.62179146129E+01  0.82845135464E+01  0.46386475910E+01  0.11349567318E+02  0.00000000000E+00 0. -1.
</event>
<event>
 7    1  0.2685294E-009  0.4778727E+02  0.7816164E-02  0.1312668E+00
        -11   -1    0    0    0    0  0.00000000000E+00  0.00000000000E+00  0.45593999997E+02  0.45594000000E+02  0.51100000000E-03 0. -1.
         11   -1    0    0    0    0 -0.00000000000E+00 -0.00000000000E+00 -0.45593999997E+02  0.45594000000E+02  0.51100000000E-03 0.  1.
    9900012    2    1    2    0    0  0.21404863814E+02  0.22446379034E+02  0.30358115925E+02  0.47787270408E+02  0.19999997098E+02 0.  0.
        -12    1    1    2    0    0 -0.21404863814E+02 -0.22446379034E+02 -0.30358115925E+02  0.43400729592E+02  0.00000000000E+00 0.  1.
         11    1    3    3    0    0  0.18741333533E+02  0.69526297503E+01  0.13145252535E+02  0.23924345498E+02  0.51100000000E-03 0.  1.
        -11    1    3    3    0    0  0.38327005245E+01  0.14164989406E+02  0.16039448152E+02  0.21739374772E+02  0.51100000000E-03 0. -1.
        -12    1    3    3    0    0 -0.11691702435E+01  0.13287598769E+01  0.11734152374E+01  0.21235501379E+01  0.00000000000E+00 0.  1.
</event>
<event>
 7    1  0.2685294E-009  0.4778726E+02  0.7816164E-02  0.1312668E+00
        -11   -1    0    0    0    0  0.00000000000E+00  0.00000000000E+00  0.45593999997E+02  0.45594000000E+02  0.51100000000E-03 0. -1.
         11   -1    0    0    0    0 -0.00000000000E+00 -0.00000000000E+00 -0.45593999997E+02  0.45594000000E+02  0.51100000000E-03 0.  1.
    9900012    2    1    2    0    0  0.41342499718E+02  0.94452020379E+01  0.92309263066E+01  0.47787261240E+02  0.19999955295E+02 0.  0.
        -12    1    1    2    0    0 -0.41342499718E+02 -0.94452020379E+01 -0.92309263066E+01  0.43400738760E+02  0.00000000000E+00 0.  1.
         11    1    3    3    0    0  0.28562878804E+02  0.10522630721E+02  0.30267348017E+00  0.30441015330E+02  0.51100000000E-03 0. -1.
        -11    1    3    3    0    0  0.10470969989E+02 -0.37696731467E+01  0.79193458871E+01  0.13658978281E+02  0.51100000000E-03 0.  1.
        -12    1    3    3    0    0  0.23086509248E+01  0.26922444640E+01  0.10089069393E+01  0.36872676278E+01  0.00000000000E+00 0.  1.
</event>
<event>
 7    1  0.2685294E-009  0.4778726E+02  0.7816164E-02  0.1312668E+00
        -11   -1    0    0    0    0  0.00000000000E+00  0.00000000000E+00  0.45593999997E+02  0.45594000000E+02  0.51100000000E-03 0.  1.
         11   -1    0    0    0    0 -0.00000000000E+00 -0.00000000000E+00 -0.45593999997E+02  0.45594000000E+02  0.51100000000E-03 0. -1.
    9900012    2    1    2    0    0 -0.37869144602E+02 -0.29016676727E+01 -0.21003145856E+02  0.47787263554E+02  0.19999965850E+02 0.  0.
        -12    1    1    2    0    0  0.37869144602E+02  0.29016676727E+01  0.21003145856E+02  0.43400736446E+02  0.00000000000E+00 0.  1.
         11    1    3    3    0    0 -0.33397963795E+02  0.58838075050E+00 -0.15356833372E+02  0.36764147060E+02  0.51100000000E-03 0. -1.
        -11    1    3    3    0    0  0.14486009106E+01 -0.14875775710E+01  0.62629980954E+00  0.21687746172E+01  0.51100000000E-03 0.  1.
         12    1    3    3    0    0 -0.59197817174E+01 -0.20024708522E+01 -0.62726122932E+01  0.88543418771E+01  0.00000000000E+00 0. -1.
</event>
<event>
 7    1  0.2685294E-009  0.4778727E+02  0.7816164E-02  0.1312668E+00
        -11   -1    0    0    0    0  0.00000000000E+00  0.00000000000E+00  0.45593999997E+02  0.45594000000E+02  0.51100000000E-03 0.  1.
         11   -1    0    0    0    0 -0.00000000000E+00 -0.00000000000E+00 -0.45593999997E+02  0.45594000000E+02  0.51100000000E-03 0. -1.
    9900012    2    1    2    0    0 -0.14280256050E+02  0.37112921399E+02  0.17387606709E+02  0.47787268270E+02  0.19999987351E+02 0.  0.
        -12    1    1    2    0    0  0.14280256050E+02 -0.37112921399E+02 -0.17387606709E+02  0.43400731730E+02  0.00000000000E+00 0.  1.
         11    1    3    3    0    0 -0.57620457203E+01  0.29779062015E+02  0.95189072454E+01  0.31789987430E+02  0.51100000000E-03 0. -1.
        -11    1    3    3    0    0 -0.69666919402E+01  0.63951910034E+01  0.96103222930E+01  0.13483010027E+02  0.51100000000E-03 0.  1.
         12    1    3    3    0    0 -0.15515183892E+01  0.93866838026E+00 -0.17416228294E+01  0.25142708127E+01  0.00000000000E+00 0. -1.
</event>
<event>
 7    1  0.2685294E-009  0.4778727E+02  0.7816164E-02  0.1312668E+00
        -11   -1    0    0    0    0  0.00000000000E+00  0.00000000000E+00  0.45593999997E+02  0.45594000000E+02  0.51100000000E-03 0.  1.
         11   -1    0    0    0    0 -0.00000000000E+00 -0.00000000000E+00 -0.45593999997E+02  0.45594000000E+02  0.51100000000E-03 0. -1.
    9900012    2    1    2    0    0 -0.35686996387E+02  0.47548115021E+01 -0.24237444727E+02  0.47787266476E+02  0.19999979170E+02 0.  0.
        -12    1    1    2    0    0  0.35686996387E+02 -0.47548115021E+01  0.24237444727E+02  0.43400733524E+02  0.00000000000E+00 0.  1.
         11    1    3    3    0    0 -0.28968800240E+02  0.50337862571E+01 -0.19727510164E+02  0.35407697594E+02  0.51100000000E-03 0. -1.
        -11    1    3    3    0    0 -0.19599073230E+01  0.17841585497E+01  0.25108882859E+01  0.36508928621E+01  0.51100000000E-03 0.  1.
        -12    1    3    3    0    0 -0.47582888240E+01 -0.20631333047E+01 -0.70208228494E+01  0.87286760193E+01  0.00000000000E+00 0.  1.
</event>
<event>
 7    1  0.2685294E-009  0.4778727E+02  0.7816164E-02  0.1312668E+00
        -11   -1    0    0    0    0  0.00000000000E+00  0.00000000000E+00  0.45593999997E+02  0.45594000000E+02  0.51100000000E-03 0.  1.
         11   -1    0    0    0    0 -0.00000000000E+00 -0.00000000000E+00 -0.45593999997E+02  0.45594000000E+02  0.51100000000E-03 0. -1.
    9900012    2    1    2    0    0 -0.22387404725E+02 -0.25311978259E+01 -0.37094750705E+02  0.47787269791E+02  0.19999994286E+02 0.  0.
        -12    1    1    2    0    0  0.22387404725E+02  0.25311978259E+01  0.37094750705E+02  0.43400730209E+02  0.00000000000E+00 0.  1.
         11    1    3    3    0    0 -0.90173671715E+01 -0.87282422132E+01 -0.12536061038E+02  0.17738318676E+02  0.51100000000E-03 0. -1.
        -11    1    3    3    0    0 -0.31564694969E+01  0.41991768485E+01 -0.28546033440E+01  0.59787244796E+01  0.51100000000E-03 0.  1.
         12    1    3    3    0    0 -0.10213568057E+02  0.19978675387E+01 -0.21704086323E+02  0.24070226636E+02  0.00000000000E+00 0. -1.
</event>
<event>
 7    1  0.2685294E-009  0.4778727E+02  0.7816164E-02  0.1312668E+00
        -11   -1    0    0    0    0  0.00000000000E+00  0.00000000000E+00  0.45593999997E+02  0.45594000000E+02  0.51100000000E-03 0. -1.
         11   -1    0    0    0    0 -0.00000000000E+00 -0.00000000000E+00 -0.45593999997E+02  0.45594000000E+02  0.51100000000E-03 0.  1.
    9900012    2    1    2    0    0  0.36979299110E+02 -0.22508749336E+02 -0.30839744553E+01  0.47787271230E+02  0.20000000846E+02 0.  0.
        -12    1    1    2    0    0 -0.36979299110E+02  0.22508749336E+02  0.30839744553E+01  0.43400728770E+02  0.00000000000E+00 0.  1.
         11    1    3    3    0    0  0.18127536955E+02 -0.16924908757E+02 -0.77980047283E+01  0.25997480849E+02  0.51100000000E-03 0. -1.
        -11    1    3    3    0    0  0.13275411936E+02 -0.20940161968E-01  0.18262118438E+01  0.13400449638E+02  0.51100000000E-03 0.  1.
         12    1    3    3    0    0  0.55763502190E+01 -0.55629004168E+01  0.28878184292E+01  0.83893407424E+01  0.00000000000E+00 0. -1.
</event>
<event>
 7    1  0.2685294E-009  0.4778727E+02  0.7816164E-02  0.1312668E+00
        -11   -1    0    0    0    0  0.00000000000E+00  0.00000000000E+00  0.45593999997E+02  0.45594000000E+02  0.51100000000E-03 0.  1.
         11   -1    0    0    0    0 -0.00000000000E+00 -0.00000000000E+00 -0.45593999997E+02  0.45594000000E+02  0.51100000000E-03 0. -1.
    9900012    2    1    2    0    0 -0.27876962553E+02  0.27061188450E+02 -0.19344002916E+02  0.47787269472E+02  0.19999992832E+02 0.  0.
        -12    1    1    2    0    0  0.27876962553E+02 -0.27061188450E+02  0.19344002916E+02  0.43400730528E+02  0.00000000000E+00 0.  1.
         11    1    3    3    0    0 -0.23170817689E+02  0.18154652110E+02 -0.15166473381E+02  0.33113442899E+02  0.51100000000E-03 0. -1.
        -11    1    3    3    0    0  0.28928635797E+01  0.90656817984E+00 -0.98052672723E+00  0.31862138157E+01  0.51100000000E-03 0.  1.
         12    1    3    3    0    0 -0.75990084443E+01  0.79999681604E+01 -0.31970028085E+01  0.11487612757E+02  0.00000000000E+00 0. -1.
</event>
<event>
 7    1  0.2685294E-009  0.4778727E+02  0.7816164E-02  0.1312668E+00
        -11   -1    0    0    0    0  0.00000000000E+00  0.00000000000E+00  0.45593999997E+02  0.45594000000E+02  0.51100000000E-03 0.  1.
         11   -1    0    0    0    0 -0.00000000000E+00 -0.00000000000E+00 -0.45593999997E+02  0.45594000000E+02  0.51100000000E-03 0. -1.
    9900012    2    1    2    0    0 -0.34294795148E+02 -0.24830690440E+02 -0.95355654979E+01  0.47787272225E+02  0.20000005385E+02 0.  0.
        -12    1    1    2    0    0  0.34294795148E+02  0.24830690440E+02  0.95355654979E+01  0.43400727775E+02  0.00000000000E+00 0.  1.
         11    1    3    3    0    0 -0.89484677487E+01 -0.16341226496E+02 -0.48633220334E+00  0.18637255102E+02  0.51100000000E-03 0.  1.
        -11    1    3    3    0    0 -0.18622348480E+02 -0.87733198891E+01 -0.88767395695E+01  0.22417839111E+02  0.51100000000E-03 0. -1.
         12    1    3    3    0    0 -0.67239789194E+01  0.28385594474E+00 -0.17249372511E+00  0.67321780125E+01  0.00000000000E+00 0. -1.
</event>
<event>
 7    1  0.2685294E-009  0.4778727E+02  0.7816164E-02  0.1312668E+00
        -11   -1    0    0    0    0  0.00000000000E+00  0.00000000000E+00  0.45593999997E+02  0.45594000000E+02  0.51100000000E-03 0. -1.
         11   -1    0    0    0    0 -0.00000000000E+00 -0.00000000000E+00 -0.45593999997E+02  0.45594000000E+02  0.51100000000E-03 0.  1.
    9900012    2    1    2    0    0 -0.58515409891E+00 -0.36274824505E+02  0.23820536121E+02  0.47787271443E+02  0.20000001817E+02 0.  0.
        -12    1    1    2    0    0  0.58515409891E+00  0.36274824505E+02 -0.23820536121E+02  0.43400728557E+02  0.00000000000E+00 0.  1.
         11    1    3    3    0    0  0.58233046686E+01 -0.67088929848E+01  0.33056931384E+00  0.88898480683E+01  0.51100000000E-03 0. -1.
        -11    1    3    3    0    0  0.79016431507E+00 -0.27770441525E+00  0.51215691977E+00  0.98172519508E+00  0.51100000000E-03 0.  1.
         12    1    3    3    0    0 -0.71986230826E+01 -0.29288227105E+02  0.22977809888E+02  0.37915698180E+02  0.00000000000E+00 0. -1.
</event>
<event>
 7    1  0.2685294E-009  0.4778727E+02  0.7816164E-02  0.1312668E+00
        -11   -1    0    0    0    0  0.00000000000E+00  0.00000000000E+00  0.45593999997E+02  0.45594000000E+02  0.51100000000E-03 0.  1.
         11   -1    0    0    0    0 -0.00000000000E+00 -0.00000000000E+00 -0.45593999997E+02  0.45594000000E+02  0.51100000000E-03 0. -1.
    9900012    2    1    2    0    0 -0.18262186754E+02  0.15162265055E+02 -0.36334852874E+02  0.47787270974E+02  0.19999999678E+02 0.  0.
        -12    1    1    2    0    0  0.18262186754E+02 -0.15162265055E+02  0.36334852874E+02  0.43400729026E+02  0.00000000000E+00 0.  1.
         11    1    3    3    0    0 -0.12186635581E+02 -0.20673520824E+01 -0.16091869931E+02  0.20291286543E+02  0.51100000000E-03 0. -1.
        -11    1    3    3    0    0 -0.38317804096E+00  0.59617075195E+01 -0.69199491812E+01  0.91419078365E+01  0.51100000000E-03 0.  1.
         12    1    3    3    0    0 -0.56923731319E+01  0.11267909618E+02 -0.13323033762E+02  0.18354076595E+02  0.00000000000E+00 0. -1.
</event>
<event>
 7    1  0.2685294E-009  0.4778727E+02  0.7816164E-02  0.1312668E+00
        -11   -1    0    0    0    0  0.00000000000E+00  0.00000000000E+00  0.45593999997E+02  0.45594000000E+02  0.51100000000E-03 0. -1.
         11   -1    0    0    0    0 -0.00000000000E+00 -0.00000000000E+00 -0.45593999997E+02  0.45594000000E+02  0.51100000000E-03 0.  1.
    9900012    2    1    2    0    0 -0.40693891764E+02 -0.37094281718E+01  0.14624310594E+02  0.47787272533E+02  0.20000006788E+02 0.  0.
        -12    1    1    2    0    0  0.40693891764E+02  0.37094281718E+01 -0.14624310594E+02  0.43400727467E+02  0.00000000000E+00 0.  1.
         11    1    3    3    0    0 -0.19301188166E+02 -0.47970757949E+01  0.15604186764E+02  0.25279209751E+02  0.51100000000E-03 0. -1.
        -11    1    3    3    0    0 -0.18283476556E+02  0.22140444012E+00  0.16299140895E+01  0.18357318843E+02  0.51100000000E-03 0.  1.
         12    1    3    3    0    0 -0.31092270429E+01  0.86624318294E+00 -0.26097902593E+01  0.41507439398E+01  0.00000000000E+00 0. -1.
</event>
<event>
 7    1  0.2685294E-009  0.4778727E+02  0.7816164E-02  0.1312668E+00
        -11   -1    0    0    0    0  0.00000000000E+00  0.00000000000E+00  0.45593999997E+02  0.45594000000E+02  0.51100000000E-03 0.  1.
         11   -1    0    0    0    0 -0.00000000000E+00 -0.00000000000E+00 -0.45593999997E+02  0.45594000000E+02  0.51100000000E-03 0. -1.
    9900012    2    1    2    0    0  0.37854539836E+02  0.18989417172E+02 -0.94899454491E+01  0.47787271718E+02  0.20000003072E+02 0.  0.
        -12    1    1    2    0    0 -0.37854539836E+02 -0.18989417172E+02  0.94899454491E+01  0.43400728282E+02  0.00000000000E+00 0.  1.
         11    1    3    3    0    0  0.30579494073E+02  0.16395919268E+02 -0.98069687375E+01  0.36057014054E+02  0.51100000000E-03 0. -1.
        -11    1    3    3    0    0  0.30014144946E+01  0.53488276642E+01 -0.15282760190E+01  0.63209235244E+01  0.51100000000E-03 0.  1.
         12    1    3    3    0    0  0.42736312686E+01 -0.27553297598E+01  0.18452993074E+01  0.54093341401E+01  0.00000000000E+00 0. -1.
</event>
<event>
 7    1  0.3623610E-009  0.4778728E+02  0.7816164E-02  0.1312668E+00
        -11   -1    0    0    0    0  0.00000000000E+00  0.00000000000E+00  0.45593999997E+02  0.45594000000E+02  0.51100000000E-03 0.  1.
         11   -1    0    0    0    0 -0.00000000000E+00 -0.00000000000E+00 -0.45593999997E+02  0.45594000000E+02  0.51100000000E-03 0. -1.
    9900012    2    1    2    0    0  0.36680475380E+02  0.11323604067E+02 -0.20247007497E+02  0.47787278857E+02  0.20000035622E+02 0.  0.
        -12    1    1    2    0    0 -0.36680475380E+02 -0.11323604067E+02  0.20247007497E+02  0.43400721143E+02  0.00000000000E+00 0.  1.
         11    1    3    3    0    0  0.23354245536E+02  0.47968624492E+01 -0.14571572320E+02  0.27942107902E+02  0.51100000000E-03 0. -1.
        -11    1    3    3    0    0  0.77302856707E+01  0.27324324990E+01  0.31015788121E+01  0.87660307609E+01  0.51100000000E-03 0.  1.
        -12    1    3    3    0    0  0.55959441734E+01  0.37943091184E+01 -0.87770139891E+01  0.11079140194E+02  0.00000000000E+00 0.  1.
</event>
<event>
 7    1  0.2685294E-009  0.4778727E+02  0.7816164E-02  0.1312668E+00
        -11   -1    0    0    0    0  0.00000000000E+00  0.00000000000E+00  0.45593999997E+02  0.45594000000E+02  0.51100000000E-03 0.  1.
         11   -1    0    0    0    0 -0.00000000000E+00 -0.00000000000E+00 -0.45593999997E+02  0.45594000000E+02  0.51100000000E-03 0. -1.
    9900012    2    1    2    0    0  0.22524722405E+02  0.98766541414E+01 -0.35759080299E+02  0.47787271431E+02  0.20000001764E+02 0.  0.
        -12    1    1    2    0    0 -0.22524722405E+02 -0.98766541414E+01  0.35759080299E+02  0.43400728569E+02  0.00000000000E+00 0.  1.
         11    1    3    3    0    0  0.14411769431E+02  0.43954624020E+01 -0.25784401177E+02  0.29863933635E+02  0.51100000000E-03 0. -1.
        -11    1    3    3    0    0  0.40061109296E+01 -0.27688583686E+01 -0.82925920663E+00  0.49399567344E+01  0.51100000000E-03 0.  1.
        -12    1    3    3    0    0  0.41068420448E+01  0.82500501080E+01 -0.91454199156E+01  0.12983381062E+02  0.00000000000E+00 0.  1.
</event>
<event>
 7    1  0.2685294E-009  0.4778727E+02  0.7816164E-02  0.1312668E+00
        -11   -1    0    0    0    0  0.00000000000E+00  0.00000000000E+00  0.45593999997E+02  0.45594000000E+02  0.51100000000E-03 0.  1.
         11   -1    0    0    0    0 -0.00000000000E+00 -0.00000000000E+00 -0.45593999997E+02  0.45594000000E+02  0.51100000000E-03 0. -1.
    9900012    2    1    2    0    0  0.11979540919E+02 -0.29032674216E+02 -0.29953593670E+02  0.47787270208E+02  0.19999996186E+02 0.  0.
        -12    1    1    2    0    0 -0.11979540919E+02  0.29032674216E+02  0.29953593670E+02  0.43400729792E+02  0.00000000000E+00 0.  1.
         11    1    3    3    0    0  0.11796638773E+02 -0.18656424011E+02 -0.99566116887E+01  0.24214808688E+02  0.51100000000E-03 0. -1.
        -11    1    3    3    0    0 -0.12029013674E+01 -0.18253383077E+01 -0.10471132099E+02  0.10696889237E+02  0.51100000000E-03 0.  1.
         12    1    3    3    0    0  0.13858035133E+01 -0.85509118972E+01 -0.95258498814E+01  0.12875572283E+02  0.00000000000E+00 0. -1.
</event>
<event>
 7    1  0.2685294E-009  0.4778727E+02  0.7816164E-02  0.1312668E+00
        -11   -1    0    0    0    0  0.00000000000E+00  0.00000000000E+00  0.45593999997E+02  0.45594000000E+02  0.51100000000E-03 0.  1.
         11   -1    0    0    0    0 -0.00000000000E+00 -0.00000000000E+00 -0.45593999997E+02  0.45594000000E+02  0.51100000000E-03 0. -1.
    9900012    2    1    2    0    0 -0.63426057326E+01  0.24116176656E+02 -0.35521889086E+02  0.47787271571E+02  0.20000002399E+02 0.  0.
        -12    1    1    2    0    0  0.63426057326E+01 -0.24116176656E+02  0.35521889086E+02  0.43400728429E+02  0.00000000000E+00 0.  1.
         11    1    3    3    0    0  0.27214762100E+01  0.11524189659E+02 -0.27964840834E+02  0.30368498534E+02  0.51100000000E-03 0. -1.
        -11    1    3    3    0    0 -0.44951875823E+01  0.78233706516E+01 -0.51533745820E+01  0.10390818524E+02  0.51100000000E-03 0.  1.
         12    1    3    3    0    0 -0.45688943602E+01  0.47686163452E+01 -0.24036736694E+01  0.70279545126E+01  0.00000000000E+00 0. -1.
</event>
<event>
 7    1  0.2685294E-009  0.4778726E+02  0.7816164E-02  0.1312668E+00
        -11   -1    0    0    0    0  0.00000000000E+00  0.00000000000E+00  0.45593999997E+02  0.45594000000E+02  0.51100000000E-03 0.  1.
         11   -1    0    0    0    0 -0.00000000000E+00 -0.00000000000E+00 -0.45593999997E+02  0.45594000000E+02  0.51100000000E-03 0. -1.
    9900012    2    1    2    0    0  0.12646320741E+02 -0.41239425474E+02 -0.47963364350E+01  0.47787257093E+02  0.19999936389E+02 0.  0.
        -12    1    1    2    0    0 -0.12646320741E+02  0.41239425474E+02  0.47963364350E+01  0.43400742907E+02  0.00000000000E+00 0.  1.
         11    1    3    3    0    0  0.32129138755E+01 -0.10577301250E+02  0.62477802781E+01  0.12697908331E+02  0.51100000000E-03 0. -1.
        -11    1    3    3    0    0  0.59335931358E+01 -0.63830101903E+01 -0.19707549321E+01  0.89349998239E+01  0.51100000000E-03 0.  1.
         12    1    3    3    0    0  0.34998137300E+01 -0.24279114033E+02 -0.90733617810E+01  0.26154348938E+02  0.00000000000E+00 0. -1.
</event>
<event>
 7    1  0.2685294E-009  0.4778727E+02  0.7816164E-02  0.1312668E+00
        -11   -1    0    0    0    0  0.00000000000E+00  0.00000000000E+00  0.45593999997E+02  0.45594000000E+02  0.51100000000E-03 0.  1.
         11   -1    0    0    0    0 -0.00000000000E+00 -0.00000000000E+00 -0.45593999997E+02  0.45594000000E+02  0.51100000000E-03 0. -1.
    9900012    2    1    2    0    0 -0.44926477934E+01  0.26921036562E+02 -0.33744589851E+02  0.47787269154E+02  0.19999991379E+02 0.  0.
        -12    1    1    2    0    0  0.44926477934E+01 -0.26921036562E+02  0.33744589851E+02  0.43400730846E+02  0.00000000000E+00 0.  1.
         11    1    3    3    0    0 -0.66998164260E+01  0.12214619202E+02 -0.18254978950E+02  0.22963639065E+02  0.51100000000E-03 0. -1.
        -11    1    3    3    0    0  0.73248595664E+01  0.10236588491E+02 -0.10534330465E+02  0.16413818270E+02  0.51100000000E-03 0.  1.
        -12    1    3    3    0    0 -0.51176909338E+01  0.44698288690E+01 -0.49552804367E+01  0.84098118182E+01  0.00000000000E+00 0.  1.
</event>
<event>
 7    1  0.2685294E-009  0.4778727E+02  0.7816164E-02  0.1312668E+00
        -11   -1    0    0    0    0  0.00000000000E+00  0.00000000000E+00  0.45593999997E+02  0.45594000000E+02  0.51100000000E-03 0.  1.
         11   -1    0    0    0    0 -0.00000000000E+00 -0.00000000000E+00 -0.45593999997E+02  0.45594000000E+02  0.51100000000E-03 0. -1.
    9900012    2    1    2    0    0 -0.19612875480E+02  0.89152649756E+01 -0.37675935313E+02  0.47787274939E+02  0.20000017755E+02 0.  0.
        -12    1    1    2    0    0  0.19612875480E+02 -0.89152649756E+01  0.37675935313E+02  0.43400725061E+02  0.00000000000E+00 0.  1.
         11    1    3    3    0    0 -0.13683428972E+02  0.92865039239E+01 -0.28059678140E+02  0.32570245949E+02  0.51100000000E-03 0. -1.
        -11    1    3    3    0    0 -0.51365802052E+01 -0.47793700506E+01 -0.41555185437E+01  0.81544569968E+01  0.51100000000E-03 0.  1.
        -12    1    3    3    0    0 -0.79286630315E+00  0.44081311023E+01 -0.54607386285E+01  0.70625719931E+01  0.00000000000E+00 0.  1.
</event>
<event>
 7    1  0.2685294E-009  0.4778726E+02  0.7816164E-02  0.1312668E+00
        -11   -1    0    0    0    0  0.00000000000E+00  0.00000000000E+00  0.45593999997E+02  0.45594000000E+02  0.51100000000E-03 0.  1.
         11   -1    0    0    0    0 -0.00000000000E+00 -0.00000000000E+00 -0.45593999997E+02  0.45594000000E+02  0.51100000000E-03 0. -1.
    9900012    2    1    2    0    0  0.25701132143E+02 -0.20483034394E+02 -0.28346444940E+02  0.47787264613E+02  0.19999970675E+02 0.  0.
        -12    1    1    2    0    0 -0.25701132143E+02  0.20483034394E+02  0.28346444940E+02  0.43400735387E+02  0.00000000000E+00 0.  1.
         11    1    3    3    0    0  0.48526967569E+01 -0.30303518048E+01 -0.39605992711E+01  0.69583076048E+01  0.51100000000E-03 0. -1.
        -11    1    3    3    0    0  0.68085493058E+01  0.33474871528E+01 -0.46051001740E+01  0.88751879845E+01  0.51100000000E-03 0.  1.
        -12    1    3    3    0    0  0.14039886080E+02 -0.20800169742E+02 -0.19780745495E+02  0.31953769023E+02  0.00000000000E+00 0.  1.
</event>
<event>
 7    1  0.2685294E-009  0.4778727E+02  0.7816164E-02  0.1312668E+00
        -11   -1    0    0    0    0  0.00000000000E+00  0.00000000000E+00  0.45593999997E+02  0.45594000000E+02  0.51100000000E-03 0. -1.
         11   -1    0    0    0    0 -0.00000000000E+00 -0.00000000000E+00 -0.45593999997E+02  0.45594000000E+02  0.51100000000E-03 0.  1.
    9900012    2    1    2    0    0 -0.30777996589E+02 -0.30244136528E+02 -0.46508423202E+01  0.47787271865E+02  0.20000003740E+02 0.  0.
        -12    1    1    2    0    0  0.30777996589E+02  0.30244136528E+02  0.46508423202E+01  0.43400728135E+02  0.00000000000E+00 0.  1.
         11    1    3    3    0    0 -0.16078762970E+02 -0.20367016120E+02 -0.24572136001E+01  0.26064916329E+02  0.51100000000E-03 0. -1.
        -11    1    3    3    0    0 -0.15515207166E+02 -0.44982883906E+01 -0.12683046429E+01  0.16203852899E+02  0.51100000000E-03 0.  1.
        -12    1    3    3    0    0  0.81597354709E+00 -0.53788320176E+01 -0.92532407716E+00  0.55185026367E+01  0.00000000000E+00 0.  1.
</event>
<event>
 7    1  0.2685294E-009  0.4778727E+02  0.7816164E-02  0.1312668E+00
        -11   -1    0    0    0    0  0.00000000000E+00  0.00000000000E+00  0.45593999997E+02  0.45594000000E+02  0.51100000000E-03 0. -1.
         11   -1    0    0    0    0 -0.00000000000E+00 -0.00000000000E+00 -0.45593999997E+02  0.45594000000E+02  0.51100000000E-03 0.  1.
    9900012    2    1    2    0    0  0.10586535617E+02 -0.31481698011E+02  0.27936555772E+02  0.47787271960E+02  0.20000004174E+02 0.  0.
        -12    1    1    2    0    0 -0.10586535617E+02  0.31481698011E+02 -0.27936555772E+02  0.43400728040E+02  0.00000000000E+00 0.  1.
         11    1    3    3    0    0  0.74387727904E+01 -0.19601072656E+02  0.91212557893E+01  0.22863392079E+02  0.51100000000E-03 0. -1.
        -11    1    3    3    0    0  0.23145712669E+01 -0.74679629765E+01  0.18877818342E+02  0.20432810300E+02  0.51100000000E-03 0.  1.
        -12    1    3    3    0    0  0.83319155922E+00 -0.44126623781E+01 -0.62518358920E-01  0.44910695811E+01  0.00000000000E+00 0.  1.
</event>
<event>
 7    1  0.2685294E-009  0.4778728E+02  0.7816164E-02  0.1312668E+00
        -11   -1    0    0    0    0  0.00000000000E+00  0.00000000000E+00  0.45593999997E+02  0.45594000000E+02  0.51100000000E-03 0. -1.
         11   -1    0    0    0    0 -0.00000000000E+00 -0.00000000000E+00 -0.45593999997E+02  0.45594000000E+02  0.51100000000E-03 0.  1.
    9900012    2    1    2    0    0  0.26367115338E+02 -0.25811014158E+02  0.22851462719E+02  0.47787279136E+02  0.20000036891E+02 0.  0.
        -12    1    1    2    0    0 -0.26367115338E+02  0.25811014158E+02 -0.22851462719E+02  0.43400720864E+02  0.00000000000E+00 0.  1.
         11    1    3    3    0    0  0.21593822648E+02 -0.17358017735E+02  0.13628316161E+02  0.30875960842E+02  0.51100000000E-03 0. -1.
        -11    1    3    3    0    0  0.73450755843E+01 -0.28423207123E+01  0.62820371927E+01  0.10074369158E+02  0.51100000000E-03 0.  1.
         12    1    3    3    0    0 -0.25717828947E+01 -0.56106757112E+01  0.29411093660E+01  0.68369491366E+01  0.00000000000E+00 0. -1.
</event>
<event>
 7    1  0.2685294E-009  0.4778727E+02  0.7816164E-02  0.1312668E+00
        -11   -1    0    0    0    0  0.00000000000E+00  0.00000000000E+00  0.45593999997E+02  0.45594000000E+02  0.51100000000E-03 0.  1.
         11   -1    0    0    0    0 -0.00000000000E+00 -0.00000000000E+00 -0.45593999997E+02  0.45594000000E+02  0.51100000000E-03 0. -1.
    9900012    2    1    2    0    0  0.37826983226E+02  0.21149958995E+02 -0.23285139041E+01  0.47787269563E+02  0.19999993244E+02 0.  0.
        -12    1    1    2    0    0 -0.37826983226E+02 -0.21149958995E+02  0.23285139041E+01  0.43400730437E+02  0.00000000000E+00 0.  1.
         11    1    3    3    0    0  0.16715890640E+02  0.36715579000E+01 -0.45924633271E+01  0.17719821020E+02  0.51100000000E-03 0.  1.
        -11    1    3    3    0    0  0.12500308094E+02  0.14819515198E+02  0.60250541152E+01  0.20302143003E+02  0.51100000000E-03 0. -1.
         12    1    3    3    0    0  0.86107844922E+01  0.26588858964E+01 -0.37611046922E+01  0.97653055398E+01  0.00000000000E+00 0. -1.
</event>
<event>
 7    1  0.2685294E-009  0.4778727E+02  0.7816164E-02  0.1312668E+00
        -11   -1    0    0    0    0  0.00000000000E+00  0.00000000000E+00  0.45593999997E+02  0.45594000000E+02  0.51100000000E-03 0.  1.
         11   -1    0    0    0    0 -0.00000000000E+00 -0.00000000000E+00 -0.45593999997E+02  0.45594000000E+02  0.51100000000E-03 0. -1.
    9900012    2    1    2    0    0  0.80192684464E+01  0.37353818294E+02 -0.20591429628E+02  0.47787269802E+02  0.19999994336E+02 0.  0.
        -12    1    1    2    0    0 -0.80192684464E+01 -0.37353818294E+02  0.20591429628E+02  0.43400730198E+02  0.00000000000E+00 0.  1.
         11    1    3    3    0    0  0.38128029429E+00  0.33787332760E+02 -0.16110772387E+02  0.37433757717E+02  0.51100000000E-03 0. -1.
        -11    1    3    3    0    0  0.63822224001E+01  0.15414070575E+01 -0.18871289990E+01  0.68315411586E+01  0.51100000000E-03 0.  1.
         12    1    3    3    0    0  0.12557657520E+01  0.20250784771E+01 -0.25935282420E+01  0.35219709261E+01  0.00000000000E+00 0. -1.
</event>
<event>
 7    1  0.2685294E-009  0.4778727E+02  0.7816164E-02  0.1312668E+00
        -11   -1    0    0    0    0  0.00000000000E+00  0.00000000000E+00  0.45593999997E+02  0.45594000000E+02  0.51100000000E-03 0.  1.
         11   -1    0    0    0    0 -0.00000000000E+00 -0.00000000000E+00 -0.45593999997E+02  0.45594000000E+02  0.51100000000E-03 0. -1.
    9900012    2    1    2    0    0  0.39851451744E+01  0.24758164147E+01 -0.43146407313E+02  0.47787268290E+02  0.19999987440E+02 0.  0.
        -12    1    1    2    0    0 -0.39851451744E+01 -0.24758164147E+01  0.43146407313E+02  0.43400731710E+02  0.00000000000E+00 0.  1.
         11    1    3    3    0    0 -0.11292103897E+01  0.97565543913E+00 -0.14652163676E+02  0.14727963888E+02  0.51100000000E-03 0. -1.
        -11    1    3    3    0    0  0.20596878905E+01  0.86090232105E+01 -0.12817336121E+02  0.15576960562E+02  0.51100000000E-03 0.  1.
        -12    1    3    3    0    0  0.30546676735E+01 -0.71088622350E+01 -0.15676907516E+02  0.17482343840E+02  0.00000000000E+00 0.  1.
</event>
<event>
 7    1  0.2685294E-009  0.4778727E+02  0.7816164E-02  0.1312668E+00
        -11   -1    0    0    0    0  0.00000000000E+00  0.00000000000E+00  0.45593999997E+02  0.45594000000E+02  0.51100000000E-03 0.  1.
         11   -1    0    0    0    0 -0.00000000000E+00 -0.00000000000E+00 -0.45593999997E+02  0.45594000000E+02  0.51100000000E-03 0. -1.
    9900012    2    1    2    0    0  0.24163086151E+02 -0.10265341296E+02 -0.34559964090E+02  0.47787273253E+02  0.20000010070E+02 0.  0.
        -12    1    1    2    0    0 -0.24163086151E+02  0.10265341296E+02  0.34559964090E+02  0.43400726747E+02  0.00000000000E+00 0.  1.
         11    1    3    3    0    0  0.23627774882E+02 -0.12057830314E+02 -0.35987483725E+02  0.44707516179E+02  0.51100000000E-03 0. -1.
        -11    1    3    3    0    0  0.88360168676E+00  0.14437982445E+00  0.99921298494E+00  0.13416498518E+01  0.51100000000E-03 0.  1.
         12    1    3    3    0    0 -0.34829041808E+00  0.16481091937E+01  0.42830665013E+00  0.17381072223E+01  0.00000000000E+00 0. -1.
</event>
<event>
 7    1  0.2685294E-009  0.4778727E+02  0.7816164E-02  0.1312668E+00
        -11   -1    0    0    0    0  0.00000000000E+00  0.00000000000E+00  0.45593999997E+02  0.45594000000E+02  0.51100000000E-03 0.  1.
         11   -1    0    0    0    0 -0.00000000000E+00 -0.00000000000E+00 -0.45593999997E+02  0.45594000000E+02  0.51100000000E-03 0. -1.
    9900012    2    1    2    0    0 -0.95619524498E+01 -0.28848987929E+02 -0.30982712467E+02  0.47787268313E+02  0.19999987545E+02 0.  0.
        -12    1    1    2    0    0  0.95619524498E+01  0.28848987929E+02  0.30982712467E+02  0.43400731687E+02  0.00000000000E+00 0.  1.
         11    1    3    3    0    0 -0.30859235171E+01  0.11123215813E+01 -0.56182099068E+01  0.65057256376E+01  0.51100000000E-03 0. -1.
        -11    1    3    3    0    0  0.22278069954E+01 -0.22453914711E+01 -0.86417857895E+00  0.32789802904E+01  0.51100000000E-03 0.  1.
         12    1    3    3    0    0 -0.87038359281E+01 -0.27715918039E+02 -0.24500323981E+02  0.38002562385E+02  0.00000000000E+00 0. -1.
</event>
<event>
 7    1  0.2685294E-009  0.4778727E+02  0.7816164E-02  0.1312668E+00
        -11   -1    0    0    0    0  0.00000000000E+00  0.00000000000E+00  0.45593999997E+02  0.45594000000E+02  0.51100000000E-03 0.  1.
         11   -1    0    0    0    0 -0.00000000000E+00 -0.00000000000E+00 -0.45593999997E+02  0.45594000000E+02  0.51100000000E-03 0. -1.
    9900012    2    1    2    0    0  0.11655225365E+02 -0.36129916790E+02 -0.21033509276E+02  0.47787266388E+02  0.19999978770E+02 0.  0.
        -12    1    1    2    0    0 -0.11655225365E+02  0.36129916790E+02  0.21033509276E+02  0.43400733612E+02  0.00000000000E+00 0.  1.
         11    1    3    3    0    0  0.23720983586E+01 -0.86089707736E+01 -0.34402467501E+01  0.95695624961E+01  0.51100000000E-03 0. -1.
        -11    1    3    3    0    0 -0.24293990692E+01 -0.18421223748E+02 -0.13049401137E+02  0.22705293095E+02  0.51100000000E-03 0.  1.
        -12    1    3    3    0    0  0.11712526075E+02 -0.90997222684E+01 -0.45438613893E+01  0.15512410798E+02  0.00000000000E+00 0.  1.
</event>
<event>
 7    1  0.2685294E-009  0.4778727E+02  0.7816164E-02  0.1312668E+00
        -11   -1    0    0    0    0  0.00000000000E+00  0.00000000000E+00  0.45593999997E+02  0.45594000000E+02  0.51100000000E-03 0.  1.
         11   -1    0    0    0    0 -0.00000000000E+00 -0.00000000000E+00 -0.45593999997E+02  0.45594000000E+02  0.51100000000E-03 0. -1.
    9900012    2    1    2    0    0  0.99299216243E+01  0.59809197080E+01 -0.41824020215E+02  0.47787269465E+02  0.19999992800E+02 0.  0.
        -12    1    1    2    0    0 -0.99299216243E+01 -0.59809197080E+01  0.41824020215E+02  0.43400730535E+02  0.00000000000E+00 0.  1.
         11    1    3    3    0    0  0.11092895609E+02  0.86656794149E+01 -0.37734559996E+02  0.40274599328E+02  0.51100000000E-03 0. -1.
        -11    1    3    3    0    0 -0.84697969444E+00 -0.37344527376E+00  0.13254217649E+01  0.16166567636E+01  0.51100000000E-03 0.  1.
         12    1    3    3    0    0 -0.31599429073E+00 -0.23113144331E+01 -0.54148819838E+01  0.58960133733E+01  0.00000000000E+00 0. -1.
</event>
<event>
 7    1  0.2685294E-009  0.4778727E+02  0.7816164E-02  0.1312668E+00
        -11   -1    0    0    0    0  0.00000000000E+00  0.00000000000E+00  0.45593999997E+02  0.45594000000E+02  0.51100000000E-03 0.  1.
         11   -1    0    0    0    0 -0.00000000000E+00 -0.00000000000E+00 -0.45593999997E+02  0.45594000000E+02  0.51100000000E-03 0. -1.
    9900012    2    1    2    0    0 -0.18940159272E+02  0.17050148184E+02 -0.35130990653E+02  0.47787266243E+02  0.19999978110E+02 0.  0.
        -12    1    1    2    0    0  0.18940159272E+02 -0.17050148184E+02  0.35130990653E+02  0.43400733757E+02  0.00000000000E+00 0.  1.
         11    1    3    3    0    0  0.26000277716E+01 -0.69750708580E+00 -0.78193894360E+01  0.82697951584E+01  0.51100000000E-03 0. -1.
        -11    1    3    3    0    0 -0.10664286674E+02  0.10191540717E+02 -0.10452519566E+02  0.18078984429E+02  0.51100000000E-03 0.  1.
         12    1    3    3    0    0 -0.10875900370E+02  0.75561145529E+01 -0.16859081651E+02  0.21438486656E+02  0.00000000000E+00 0. -1.
</event>
<event>
 7    1  0.2685294E-009  0.4778727E+02  0.7816164E-02  0.1312668E+00
        -11   -1    0    0    0    0  0.00000000000E+00  0.00000000000E+00  0.45593999997E+02  0.45594000000E+02  0.51100000000E-03 0.  1.
         11   -1    0    0    0    0 -0.00000000000E+00 -0.00000000000E+00 -0.45593999997E+02  0.45594000000E+02  0.51100000000E-03 0. -1.
    9900012    2    1    2    0    0  0.30001305243E+02 -0.21350666989E+02 -0.22971594713E+02  0.47787268891E+02  0.19999990179E+02 0.  0.
        -12    1    1    2    0    0 -0.30001305243E+02  0.21350666989E+02  0.22971594713E+02  0.43400731109E+02  0.00000000000E+00 0.  1.
         11    1    3    3    0    0  0.96085679340E+01 -0.32966693190E+01  0.25080428772E+00  0.10161471812E+02  0.51100000000E-03 0. -1.
        -11    1    3    3    0    0  0.62331458598E+01 -0.69804232564E+01 -0.15403339978E+02  0.18023354263E+02  0.51100000000E-03 0.  1.
         12    1    3    3    0    0  0.14159591450E+02 -0.11073574414E+02 -0.78190590219E+01  0.19602442815E+02  0.00000000000E+00 0. -1.
</event>
<event>
 7    1  0.2917883E-009  0.4778727E+02  0.7816164E-02  0.1312668E+00
        -11   -1    0    0    0    0  0.00000000000E+00  0.00000000000E+00  0.45593999997E+02  0.45594000000E+02  0.51100000000E-03 0.  1.
         11   -1    0    0    0    0 -0.00000000000E+00 -0.00000000000E+00 -0.45593999997E+02  0.45594000000E+02  0.51100000000E-03 0. -1.
    9900012    2    1    2    0    0 -0.15800321915E+02 -0.35793072898E+02 -0.18783743496E+02  0.47787271207E+02  0.20000000740E+02 0.  0.
        -12    1    1    2    0    0  0.15800321915E+02  0.35793072898E+02  0.18783743496E+02  0.43400728793E+02  0.00000000000E+00 0.  1.
         11    1    3    3    0    0 -0.11517440747E+02 -0.16235293219E+02 -0.97479120462E+01  0.22164340207E+02  0.51100000000E-03 0. -1.
        -11    1    3    3    0    0  0.20922362615E+01 -0.78175789691E+00 -0.48749886993E+01  0.53622861787E+01  0.51100000000E-03 0.  1.
        -12    1    3    3    0    0 -0.63751174293E+01 -0.18776021782E+02 -0.41608427505E+01  0.20260644821E+02  0.00000000000E+00 0.  1.
</event>
<event>
 7    1  0.2685294E-009  0.4778727E+02  0.7816164E-02  0.1312668E+00
        -11   -1    0    0    0    0  0.00000000000E+00  0.00000000000E+00  0.45593999997E+02  0.45594000000E+02  0.51100000000E-03 0.  1.
         11   -1    0    0    0    0 -0.00000000000E+00 -0.00000000000E+00 -0.45593999997E+02  0.45594000000E+02  0.51100000000E-03 0. -1.
    9900012    2    1    2    0    0  0.30519109289E+02  0.29187642042E+02 -0.10014427535E+02  0.47787271451E+02  0.20000001853E+02 0.  0.
        -12    1    1    2    0    0 -0.30519109289E+02 -0.29187642042E+02  0.10014427535E+02  0.43400728549E+02  0.00000000000E+00 0.  1.
         11    1    3    3    0    0  0.25870081065E+02  0.21927460676E+02  0.22399463557E+00  0.33913489939E+02  0.51100000000E-03 0. -1.
        -11    1    3    3    0    0  0.25761812027E+01  0.15966169572E+01 -0.51834940089E+01  0.60045404236E+01  0.51100000000E-03 0.  1.
         12    1    3    3    0    0  0.20728470216E+01  0.56635644088E+01 -0.50549281614E+01  0.78692410883E+01  0.00000000000E+00 0. -1.
</event>
<event>
 7    1  0.2685294E-009  0.4778727E+02  0.7816164E-02  0.1312668E+00
        -11   -1    0    0    0    0  0.00000000000E+00  0.00000000000E+00  0.45593999997E+02  0.45594000000E+02  0.51100000000E-03 0.  1.
         11   -1    0    0    0    0 -0.00000000000E+00 -0.00000000000E+00 -0.45593999997E+02  0.45594000000E+02  0.51100000000E-03 0. -1.
    9900012    2    1    2    0    0  0.30626501495E+02 -0.28399243636E+01 -0.30619857126E+02  0.47787269423E+02  0.19999992605E+02 0.  0.
        -12    1    1    2    0    0 -0.30626501495E+02  0.28399243636E+01  0.30619857126E+02  0.43400730577E+02  0.00000000000E+00 0.  1.
         11    1    3    3    0    0 -0.10732116066E+01  0.87490565291E+00 -0.65191861267E+01  0.66646103464E+01  0.51100000000E-03 0. -1.
        -11    1    3    3    0    0  0.18375927648E+02  0.10641470801E+01 -0.92265104556E+01  0.20589696971E+02  0.51100000000E-03 0.  1.
        -12    1    3    3    0    0  0.13323785454E+02 -0.47789770966E+01 -0.14874160544E+02  0.20532962105E+02  0.00000000000E+00 0.  1.
</event>
<event>
 7    1  0.2685294E-009  0.4778727E+02  0.7816164E-02  0.1312668E+00
        -11   -1    0    0    0    0  0.00000000000E+00  0.00000000000E+00  0.45593999997E+02  0.45594000000E+02  0.51100000000E-03 0.  1.
         11   -1    0    0    0    0 -0.00000000000E+00 -0.00000000000E+00 -0.45593999997E+02  0.45594000000E+02  0.51100000000E-03 0. -1.
    9900012    2    1    2    0    0 -0.43239995927E+02 -0.28862604715E+01 -0.23654191474E+01  0.47787274718E+02  0.20000016747E+02 0.  0.
        -12    1    1    2    0    0  0.43239995927E+02  0.28862604715E+01  0.23654191474E+01  0.43400725282E+02  0.00000000000E+00 0.  1.
         11    1    3    3    0    0 -0.14281604773E+02  0.18782717957E+01  0.58727001043E+01  0.15555730346E+02  0.51100000000E-03 0. -1.
        -11    1    3    3    0    0 -0.27082223657E+02 -0.12186323244E+01 -0.77141444823E+01  0.28185810761E+02  0.51100000000E-03 0.  1.
        -12    1    3    3    0    0 -0.18761674982E+01 -0.35458999428E+01 -0.52397476946E+00  0.40457336101E+01  0.00000000000E+00 0.  1.
</event>
<event>
 7    1  0.2685294E-009  0.4778727E+02  0.7816164E-02  0.1312668E+00
        -11   -1    0    0    0    0  0.00000000000E+00  0.00000000000E+00  0.45593999997E+02  0.45594000000E+02  0.51100000000E-03 0.  1.
         11   -1    0    0    0    0 -0.00000000000E+00 -0.00000000000E+00 -0.45593999997E+02  0.45594000000E+02  0.51100000000E-03 0. -1.
    9900012    2    1    2    0    0  0.16011939567E+02 -0.17963943592E+02 -0.36118388298E+02  0.47787269000E+02  0.19999990679E+02 0.  0.
        -12    1    1    2    0    0 -0.16011939567E+02  0.17963943592E+02  0.36118388298E+02  0.43400731000E+02  0.00000000000E+00 0.  1.
         11    1    3    3    0    0  0.41987650760E+00 -0.52238188879E+01 -0.84155506613E+01  0.99139332885E+01  0.51100000000E-03 0. -1.
        -11    1    3    3    0    0 -0.15335094008E+01  0.77422908365E+00  0.86898218096E+00  0.19251524740E+01  0.51100000000E-03 0.  1.
        -12    1    3    3    0    0  0.17125572460E+02 -0.13514353788E+02 -0.28571819818E+02  0.35948183238E+02  0.00000000000E+00 0.  1.
</event>
<event>
 7    1  0.2685294E-009  0.4778727E+02  0.7816164E-02  0.1312668E+00
        -11   -1    0    0    0    0  0.00000000000E+00  0.00000000000E+00  0.45593999997E+02  0.45594000000E+02  0.51100000000E-03 0.  1.
         11   -1    0    0    0    0 -0.00000000000E+00 -0.00000000000E+00 -0.45593999997E+02  0.45594000000E+02  0.51100000000E-03 0. -1.
    9900012    2    1    2    0    0 -0.35067911936E+02 -0.29079471795E+01 -0.25404901460E+02  0.47787267028E+02  0.19999981685E+02 0.  0.
        -12    1    1    2    0    0  0.35067911936E+02  0.29079471795E+01  0.25404901460E+02  0.43400732972E+02  0.00000000000E+00 0.  1.
         11    1    3    3    0    0 -0.25399183520E+02 -0.39764880672E+01 -0.24455677211E+02  0.35482546821E+02  0.51100000000E-03 0. -1.
        -11    1    3    3    0    0 -0.89651673985E+01  0.26919202396E+01  0.12919585650E+01  0.94493289843E+01  0.51100000000E-03 0.  1.
        -12    1    3    3    0    0 -0.70356101821E+00 -0.16233793519E+01 -0.22411828135E+01  0.28553912219E+01  0.00000000000E+00 0.  1.
</event>
<event>
 7    1  0.2685294E-009  0.4778727E+02  0.7816164E-02  0.1312668E+00
        -11   -1    0    0    0    0  0.00000000000E+00  0.00000000000E+00  0.45593999997E+02  0.45594000000E+02  0.51100000000E-03 0.  1.
         11   -1    0    0    0    0 -0.00000000000E+00 -0.00000000000E+00 -0.45593999997E+02  0.45594000000E+02  0.51100000000E-03 0. -1.
    9900012    2    1    2    0    0  0.62211990366E+01  0.11432997503E+02 -0.41402980095E+02  0.47787268323E+02  0.19999987593E+02 0.  0.
        -12    1    1    2    0    0 -0.62211990366E+01 -0.11432997503E+02  0.41402980095E+02  0.43400731677E+02  0.00000000000E+00 0.  1.
         11    1    3    3    0    0  0.48379154271E+00 -0.27896087205E+01 -0.15385550163E+02  0.15643884593E+02  0.51100000000E-03 0. -1.
        -11    1    3    3    0    0 -0.14807202853E+01  0.10580556475E+02 -0.16482712509E+02  0.19642314523E+02  0.51100000000E-03 0.  1.
        -12    1    3    3    0    0  0.72181277793E+01  0.36420497484E+01 -0.95347174224E+01  0.12501069208E+02  0.00000000000E+00 0.  1.
</event>
<event>
 7    1  0.2685294E-009  0.4778726E+02  0.7816164E-02  0.1312668E+00
        -11   -1    0    0    0    0  0.00000000000E+00  0.00000000000E+00  0.45593999997E+02  0.45594000000E+02  0.51100000000E-03 0.  1.
         11   -1    0    0    0    0 -0.00000000000E+00 -0.00000000000E+00 -0.45593999997E+02  0.45594000000E+02  0.51100000000E-03 0. -1.
    9900012    2    1    2    0    0  0.17793906521E+02  0.29261010220E+02 -0.26660722690E+02  0.47787263109E+02  0.19999963819E+02 0.  0.
        -12    1    1    2    0    0 -0.17793906521E+02 -0.29261010220E+02  0.26660722690E+02  0.43400736891E+02  0.00000000000E+00 0.  1.
         11    1    3    3    0    0  0.12515367797E+02  0.10047437097E+02 -0.30590419524E+01  0.16338395308E+02  0.51100000000E-03 0. -1.
        -11    1    3    3    0    0 -0.42752902393E+00  0.77027397438E+01 -0.66950201503E+01  0.10214610893E+02  0.51100000000E-03 0.  1.
         12    1    3    3    0    0  0.57060677481E+01  0.11510833379E+02 -0.16906660587E+02  0.21234256908E+02  0.00000000000E+00 0. -1.
</event>
<event>
 7    1  0.2685294E-009  0.4778728E+02  0.7816164E-02  0.1312668E+00
        -11   -1    0    0    0    0  0.00000000000E+00  0.00000000000E+00  0.45593999997E+02  0.45594000000E+02  0.51100000000E-03 0. -1.
         11   -1    0    0    0    0 -0.00000000000E+00 -0.00000000000E+00 -0.45593999997E+02  0.45594000000E+02  0.51100000000E-03 0.  1.
    9900012    2    1    2    0    0  0.38975680563E+02  0.27495181870E+01  0.18893367623E+02  0.47787275747E+02  0.20000021440E+02 0.  0.
        -12    1    1    2    0    0 -0.38975680563E+02 -0.27495181870E+01 -0.18893367623E+02  0.43400724253E+02  0.00000000000E+00 0.  1.
         11    1    3    3    0    0  0.11830097989E+02  0.33975935478E+01  0.13732874986E+02  0.18441440182E+02  0.51100000000E-03 0. -1.
        -11    1    3    3    0    0  0.89506033757E+01 -0.30959417322E+01 -0.19294931785E+01  0.96654591296E+01  0.51100000000E-03 0.  1.
         12    1    3    3    0    0  0.18194979198E+02  0.24478663714E+01  0.70899858155E+01  0.19680376436E+02  0.00000000000E+00 0. -1.
</event>
<event>
 7    1  0.2685294E-009  0.4778727E+02  0.7816164E-02  0.1312668E+00
        -11   -1    0    0    0    0  0.00000000000E+00  0.00000000000E+00  0.45593999997E+02  0.45594000000E+02  0.51100000000E-03 0. -1.
         11   -1    0    0    0    0 -0.00000000000E+00 -0.00000000000E+00 -0.45593999997E+02  0.45594000000E+02  0.51100000000E-03 0.  1.
    9900012    2    1    2    0    0 -0.40451454184E+02 -0.13473258048E+02  0.81101505434E+01  0.47787269939E+02  0.19999994959E+02 0.  0.
        -12    1    1    2    0    0  0.40451454184E+02  0.13473258048E+02 -0.81101505434E+01  0.43400730061E+02  0.00000000000E+00 0.  1.
         11    1    3    3    0    0 -0.20767809888E+02 -0.13628496106E+01 -0.25704025622E+01  0.20970604574E+02  0.51100000000E-03 0. -1.
        -11    1    3    3    0    0 -0.13896101806E+01 -0.46185451432E+01  0.18566637274E+01  0.51680921191E+01  0.51100000000E-03 0.  1.
         12    1    3    3    0    0 -0.18294034115E+02 -0.74918632946E+01  0.88238893782E+01  0.21648573246E+02  0.00000000000E+00 0. -1.
</event>
<event>
 7    1  0.2685294E-009  0.4778727E+02  0.7816164E-02  0.1312668E+00
        -11   -1    0    0    0    0  0.00000000000E+00  0.00000000000E+00  0.45593999997E+02  0.45594000000E+02  0.51100000000E-03 0.  1.
         11   -1    0    0    0    0 -0.00000000000E+00 -0.00000000000E+00 -0.45593999997E+02  0.45594000000E+02  0.51100000000E-03 0. -1.
    9900012    2    1    2    0    0  0.21561397027E+02  0.34317808793E+02 -0.15524732262E+02  0.47787272426E+02  0.20000006301E+02 0.  0.
        -12    1    1    2    0    0 -0.21561397027E+02 -0.34317808793E+02  0.15524732262E+02  0.43400727574E+02  0.00000000000E+00 0.  1.
         11    1    3    3    0    0  0.14769419821E+02  0.15923318570E+02 -0.13929019408E+02  0.25801267761E+02  0.51100000000E-03 0. -1.
        -11    1    3    3    0    0  0.75456249726E+01  0.13513690835E+02  0.23625263224E+01  0.15656877948E+02  0.51100000000E-03 0.  1.
        -12    1    3    3    0    0 -0.75364776678E+00  0.48807993884E+01 -0.39582391758E+01  0.63291267170E+01  0.00000000000E+00 0.  1.
</event>
<event>
 7    1  0.2685294E-009  0.4778728E+02  0.7816164E-02  0.1312668E+00
        -11   -1    0    0    0    0  0.00000000000E+00  0.00000000000E+00  0.45593999997E+02  0.45594000000E+02  0.51100000000E-03 0.  1.
         11   -1    0    0    0    0 -0.00000000000E+00 -0.00000000000E+00 -0.45593999997E+02  0.45594000000E+02  0.51100000000E-03 0. -1.
    9900012    2    1    2    0    0 -0.15142382577E+02 -0.29703857661E+02 -0.27785099235E+02  0.47787278237E+02  0.20000032792E+02 0.  0.
        -12    1    1    2    0    0  0.15142382577E+02  0.29703857661E+02  0.27785099235E+02  0.43400721763E+02  0.00000000000E+00 0.  1.
         11    1    3    3    0    0  0.38053855128E+01 -0.46050757269E+01 -0.22076540853E+01  0.63687846700E+01  0.51100000000E-03 0. -1.
        -11    1    3    3    0    0 -0.29516342751E+01 -0.98739501853E+01 -0.10265614914E+02  0.14546129622E+02  0.51100000000E-03 0.  1.
         12    1    3    3    0    0 -0.15996133814E+02 -0.15224831749E+02 -0.15311830236E+02  0.26872363945E+02  0.00000000000E+00 0. -1.
</event>
<event>
 7    1  0.2685294E-009  0.4778726E+02  0.7816164E-02  0.1312668E+00
        -11   -1    0    0    0    0  0.00000000000E+00  0.00000000000E+00  0.45593999997E+02  0.45594000000E+02  0.51100000000E-03 0. -1.
         11   -1    0    0    0    0 -0.00000000000E+00 -0.00000000000E+00 -0.45593999997E+02  0.45594000000E+02  0.51100000000E-03 0.  1.
    9900012    2    1    2    0    0 -0.11193882653E+02  0.40486976026E+02 -0.10914469084E+02  0.47787264155E+02  0.19999968586E+02 0.  0.
        -12    1    1    2    0    0  0.11193882653E+02 -0.40486976026E+02  0.10914469084E+02  0.43400735845E+02  0.00000000000E+00 0.  1.
         11    1    3    3    0    0 -0.19446561084E+01  0.49993572634E+01 -0.47694053662E+01  0.71779167058E+01  0.51100000000E-03 0. -1.
        -11    1    3    3    0    0 -0.97061202065E+01  0.84747872413E+01 -0.40712587551E+01  0.13513176398E+02  0.51100000000E-03 0.  1.
         12    1    3    3    0    0  0.45689366159E+00  0.27012831521E+02 -0.20738049624E+01  0.27096171051E+02  0.00000000000E+00 0. -1.
</event>
<event>
 7    1  0.2685294E-009  0.4778727E+02  0.7816164E-02  0.1312668E+00
        -11   -1    0    0    0    0  0.00000000000E+00  0.00000000000E+00  0.45593999997E+02  0.45594000000E+02  0.51100000000E-03 0.  1.
         11   -1    0    0    0    0 -0.00000000000E+00 -0.00000000000E+00 -0.45593999997E+02  0.45594000000E+02  0.51100000000E-03 0. -1.
    9900012    2    1    2    0    0 -0.37477490244E+01  0.26479367766E+02 -0.34182166129E+02  0.47787273954E+02  0.20000013265E+02 0.  0.
        -12    1    1    2    0    0  0.37477490244E+01 -0.26479367766E+02  0.34182166129E+02  0.43400726046E+02  0.00000000000E+00 0.  1.
         11    1    3    3    0    0  0.68604886067E+01  0.10918447350E+02 -0.74003214239E+01  0.14867533552E+02  0.51100000000E-03 0. -1.
        -11    1    3    3    0    0 -0.63119619910E+01  0.62318239336E+01 -0.12181829916E+02  0.15068957299E+02  0.51100000000E-03 0.  1.
         12    1    3    3    0    0 -0.42962756401E+01  0.93290964823E+01 -0.14600014789E+02  0.17850783103E+02  0.00000000000E+00 0. -1.
</event>
<event>
 7    1  0.2685294E-009  0.4778727E+02  0.7816164E-02  0.1312668E+00
        -11   -1    0    0    0    0  0.00000000000E+00  0.00000000000E+00  0.45593999997E+02  0.45594000000E+02  0.51100000000E-03 0. -1.
         11   -1    0    0    0    0 -0.00000000000E+00 -0.00000000000E+00 -0.45593999997E+02  0.45594000000E+02  0.51100000000E-03 0.  1.
    9900012    2    1    2    0    0  0.42163545462E+02 -0.90980506469E+01  0.48046150177E+01  0.47787269396E+02  0.19999992485E+02 0.  0.
        -12    1    1    2    0    0 -0.42163545462E+02  0.90980506469E+01 -0.48046150177E+01  0.43400730604E+02  0.00000000000E+00 0.  1.
         11    1    3    3    0    0  0.30294172893E+02 -0.58324388928E+01  0.13962822982E+01  0.30882096095E+02  0.51100000000E-03 0. -1.
        -11    1    3    3    0    0 -0.87215804017E+00  0.24097062765E+00 -0.23287350124E+01  0.24983461549E+01  0.51100000000E-03 0.  1.
         12    1    3    3    0    0  0.12741530609E+02 -0.35065823818E+01  0.57370677320E+01  0.14406827146E+02  0.00000000000E+00 0. -1.
</event>
<event>
 7    1  0.2685294E-009  0.4778727E+02  0.7816164E-02  0.1312668E+00
        -11   -1    0    0    0    0  0.00000000000E+00  0.00000000000E+00  0.45593999997E+02  0.45594000000E+02  0.51100000000E-03 0.  1.
         11   -1    0    0    0    0 -0.00000000000E+00 -0.00000000000E+00 -0.45593999997E+02  0.45594000000E+02  0.51100000000E-03 0. -1.
    9900012    2    1    2    0    0 -0.12177632783E+02  0.65246083540E+01 -0.41143139162E+02  0.47787272420E+02  0.20000006271E+02 0.  0.
        -12    1    1    2    0    0  0.12177632783E+02 -0.65246083540E+01  0.41143139162E+02  0.43400727580E+02  0.00000000000E+00 0.  1.
         11    1    3    3    0    0 -0.26574344125E+01 -0.38153438970E+00 -0.23332645064E+02  0.23486588770E+02  0.51100000000E-03 0. -1.
        -11    1    3    3    0    0 -0.11606208228E+02  0.29377034250E+01 -0.13961824153E+02  0.18392028295E+02  0.51100000000E-03 0.  1.
        -12    1    3    3    0    0  0.20860098578E+01  0.39684393187E+01 -0.38486699454E+01  0.59086553547E+01  0.00000000000E+00 0.  1.
</event>
<event>
 7    1  0.2685294E-009  0.4778727E+02  0.7816164E-02  0.1312668E+00
        -11   -1    0    0    0    0  0.00000000000E+00  0.00000000000E+00  0.45593999997E+02  0.45594000000E+02  0.51100000000E-03 0.  1.
         11   -1    0    0    0    0 -0.00000000000E+00 -0.00000000000E+00 -0.45593999997E+02  0.45594000000E+02  0.51100000000E-03 0. -1.
    9900012    2    1    2    0    0 -0.26069887519E+02 -0.13389511206E+02 -0.32011015215E+02  0.47787272579E+02  0.20000006996E+02 0.  0.
        -12    1    1    2    0    0  0.26069887519E+02  0.13389511206E+02  0.32011015215E+02  0.43400727421E+02  0.00000000000E+00 0.  1.
         11    1    3    3    0    0 -0.47642723545E+01 -0.22677173630E+01 -0.41262462162E+01  0.66982640441E+01  0.51100000000E-03 0. -1.
        -11    1    3    3    0    0 -0.18109607505E+02 -0.11233964708E+02 -0.30326409599E+02  0.37065495632E+02  0.51100000000E-03 0.  1.
        -12    1    3    3    0    0 -0.31960076592E+01  0.11217086557E+00  0.24416405993E+01  0.40235129025E+01  0.00000000000E+00 0.  1.
</event>
<event>
 7    1  0.2685294E-009  0.4778727E+02  0.7816164E-02  0.1312668E+00
        -11   -1    0    0    0    0  0.00000000000E+00  0.00000000000E+00  0.45593999997E+02  0.45594000000E+02  0.51100000000E-03 0.  1.
         11   -1    0    0    0    0 -0.00000000000E+00 -0.00000000000E+00 -0.45593999997E+02  0.45594000000E+02  0.51100000000E-03 0. -1.
    9900012    2    1    2    0    0  0.60261547938E+01  0.21320922740E+02 -0.37319256867E+02  0.47787271652E+02  0.20000002768E+02 0.  0.
        -12    1    1    2    0    0 -0.60261547938E+01 -0.21320922740E+02  0.37319256867E+02  0.43400728348E+02  0.00000000000E+00 0.  1.
         11    1    3    3    0    0  0.36153913773E-02  0.67974151569E+01 -0.11344210545E+02  0.13224824348E+02  0.51100000000E-03 0.  1.
        -11    1    3    3    0    0  0.30599924942E+01  0.57670167212E+01 -0.24307774147E+02  0.25169225657E+02  0.51100000000E-03 0. -1.
        -12    1    3    3    0    0  0.29625469082E+01  0.87564908616E+01 -0.16672721748E+01  0.93932216464E+01  0.00000000000E+00 0.  1.
</event>
<event>
 7    1  0.2685294E-009  0.4778727E+02  0.7816164E-02  0.1312668E+00
        -11   -1    0    0    0    0  0.00000000000E+00  0.00000000000E+00  0.45593999997E+02  0.45594000000E+02  0.51100000000E-03 0.  1.
         11   -1    0    0    0    0 -0.00000000000E+00 -0.00000000000E+00 -0.45593999997E+02  0.45594000000E+02  0.51100000000E-03 0. -1.
    9900012    2    1    2    0    0 -0.21539454443E+02 -0.26145180051E+02 -0.27131256903E+02  0.47787266841E+02  0.19999980833E+02 0.  0.
        -12    1    1    2    0    0  0.21539454443E+02  0.26145180051E+02  0.27131256903E+02  0.43400733159E+02  0.00000000000E+00 0.  1.
         11    1    3    3    0    0  0.12454803020E+01 -0.37952179165E+01 -0.30060124563E+01  0.49991010557E+01  0.51100000000E-03 0. -1.
        -11    1    3    3    0    0 -0.14728047209E+02 -0.22673963146E+02 -0.20584842289E+02  0.33981755570E+02  0.51100000000E-03 0.  1.
        -12    1    3    3    0    0 -0.80568875365E+01  0.32400101084E+00 -0.35404021578E+01  0.88064102147E+01  0.00000000000E+00 0.  1.
</event>
<event>
 7    1  0.2685294E-009  0.4778729E+02  0.7816164E-02  0.1312668E+00
        -11   -1    0    0    0    0  0.00000000000E+00  0.00000000000E+00  0.45593999997E+02  0.45594000000E+02  0.51100000000E-03 0.  1.
         11   -1    0    0    0    0 -0.00000000000E+00 -0.00000000000E+00 -0.45593999997E+02  0.45594000000E+02  0.51100000000E-03 0. -1.
    9900012    2    1    2    0    0 -0.34486000824E+02  0.21924415482E+02 -0.14617019499E+02  0.47787291410E+02  0.20000092854E+02 0.  0.
        -12    1    1    2    0    0  0.34486000824E+02 -0.21924415482E+02  0.14617019499E+02  0.43400708590E+02  0.00000000000E+00 0.  1.
         11    1    3    3    0    0  0.14315966424E+01  0.10295975322E+01 -0.17077335159E+01  0.24547696526E+01  0.51100000000E-03 0. -1.
        -11    1    3    3    0    0 -0.33996658986E+02  0.18819107736E+02 -0.15167770493E+02  0.41713222127E+02  0.51100000000E-03 0.  1.
        -12    1    3    3    0    0 -0.19209384806E+01  0.20757102132E+01  0.22584845094E+01  0.36192996304E+01  0.00000000000E+00 0.  1.
</event>
<event>
 7    1  0.2685294E-009  0.4778727E+02  0.7816164E-02  0.1312668E+00
        -11   -1    0    0    0    0  0.00000000000E+00  0.00000000000E+00  0.45593999997E+02  0.45594000000E+02  0.51100000000E-03 0.  1.
         11   -1    0    0    0    0 -0.00000000000E+00 -0.00000000000E+00 -0.45593999997E+02  0.45594000000E+02  0.51100000000E-03 0. -1.
    9900012    2    1    2    0    0  0.37270372253E+02 -0.20777482670E+02  0.79270907783E+01  0.47787271870E+02  0.20000003763E+02 0.  0.
        -12    1    1    2    0    0 -0.37270372253E+02  0.20777482670E+02 -0.79270907783E+01  0.43400728130E+02  0.00000000000E+00 0.  1.
         11    1    3    3    0    0  0.21805915540E+02 -0.58189911081E+01 -0.11693561130E+01  0.22599247864E+02  0.51100000000E-03 0. -1.
        -11    1    3    3    0    0  0.14536560596E+01 -0.56860459701E+01  0.54210563707E+01  0.79894985543E+01  0.51100000000E-03 0.  1.
        -12    1    3    3    0    0  0.14010800654E+02 -0.92724455921E+01  0.36753905206E+01  0.17198525452E+02  0.00000000000E+00 0.  1.
</event>
<event>
 7    1  0.2685294E-009  0.4778728E+02  0.7816164E-02  0.1312668E+00
        -11   -1    0    0    0    0  0.00000000000E+00  0.00000000000E+00  0.45593999997E+02  0.45594000000E+02  0.51100000000E-03 0.  1.
         11   -1    0    0    0    0 -0.00000000000E+00 -0.00000000000E+00 -0.45593999997E+02  0.45594000000E+02  0.51100000000E-03 0. -1.
    9900012    2    1    2    0    0 -0.14862227231E+02 -0.38182616576E+02  0.14311697319E+02  0.47787277806E+02  0.20000030826E+02 0.  0.
        -12    1    1    2    0    0  0.14862227231E+02  0.38182616576E+02 -0.14311697319E+02  0.43400722194E+02  0.00000000000E+00 0.  1.
         11    1    3    3    0    0 -0.65140580651E+01 -0.22143607031E+02 -0.42641280737E+00  0.23085798945E+02  0.51100000000E-03 0.  1.
        -11    1    3    3    0    0 -0.67426357270E+01 -0.10676716956E+02  0.14314137376E+02  0.19087953023E+02  0.51100000000E-03 0. -1.
         12    1    3    3    0    0 -0.16055334386E+01 -0.53622925892E+01  0.42397275048E+00  0.56135258375E+01  0.00000000000E+00 0. -1.
</event>
<event>
 7    1  0.2685294E-009  0.4778727E+02  0.7816164E-02  0.1312668E+00
        -11   -1    0    0    0    0  0.00000000000E+00  0.00000000000E+00  0.45593999997E+02  0.45594000000E+02  0.51100000000E-03 0.  1.
         11   -1    0    0    0    0 -0.00000000000E+00 -0.00000000000E+00 -0.45593999997E+02  0.45594000000E+02  0.51100000000E-03 0. -1.
    9900012    2    1    2    0    0 -0.17719313583E+02 -0.35640854291E+02 -0.17302574250E+02  0.47787266779E+02  0.19999980553E+02 0.  0.
        -12    1    1    2    0    0  0.17719313583E+02  0.35640854291E+02  0.17302574250E+02  0.43400733221E+02  0.00000000000E+00 0.  1.
         11    1    3    3    0    0 -0.63496750205E+01 -0.20151424556E+01 -0.27908339588E+01  0.72227367686E+01  0.51100000000E-03 0. -1.
        -11    1    3    3    0    0 -0.50882278506E+01 -0.24415254704E+02 -0.40317828922E+01  0.25263610163E+02  0.51100000000E-03 0.  1.
        -12    1    3    3    0    0 -0.62814107116E+01 -0.92104571311E+01 -0.10479957399E+02  0.15300919847E+02  0.00000000000E+00 0.  1.
</event>
<event>
 7    1  0.2685294E-009  0.4778727E+02  0.7816164E-02  0.1312668E+00
        -11   -1    0    0    0    0  0.00000000000E+00  0.00000000000E+00  0.45593999997E+02  0.45594000000E+02  0.51100000000E-03 0. -1.
         11   -1    0    0    0    0 -0.00000000000E+00 -0.00000000000E+00 -0.45593999997E+02  0.45594000000E+02  0.51100000000E-03 0.  1.
    9900012    2    1    2    0    0 -0.20194767209E+02 -0.30547013920E+02  0.23295385679E+02  0.47787266411E+02  0.19999978876E+02 0.  0.
        -12    1    1    2    0    0  0.20194767209E+02  0.30547013920E+02 -0.23295385679E+02  0.43400733589E+02  0.00000000000E+00 0.  1.
         11    1    3    3    0    0 -0.13803037738E+02 -0.82859492999E+01  0.74540793483E+01  0.17741028882E+02  0.51100000000E-03 0. -1.
        -11    1    3    3    0    0 -0.54285208099E+01 -0.17227984691E+02  0.16986480969E+02  0.24795419551E+02  0.51100000000E-03 0.  1.
        -12    1    3    3    0    0 -0.96320866162E+00 -0.50330799291E+01 -0.11451746385E+01  0.52508179792E+01  0.00000000000E+00 0.  1.
</event>
<event>
 7    1  0.2685294E-009  0.4778727E+02  0.7816164E-02  0.1312668E+00
        -11   -1    0    0    0    0  0.00000000000E+00  0.00000000000E+00  0.45593999997E+02  0.45594000000E+02  0.51100000000E-03 0. -1.
         11   -1    0    0    0    0 -0.00000000000E+00 -0.00000000000E+00 -0.45593999997E+02  0.45594000000E+02  0.51100000000E-03 0.  1.
    9900012    2    1    2    0    0 -0.35210173670E+02 -0.19399072694E+02 -0.16356737066E+02  0.47787271911E+02  0.20000003949E+02 0.  0.
        -12    1    1    2    0    0  0.35210173670E+02  0.19399072694E+02  0.16356737066E+02  0.43400728089E+02  0.00000000000E+00 0.  1.
         11    1    3    3    0    0 -0.61133421573E+01 -0.27966417486E+01  0.17294507427E+01  0.69415529628E+01  0.51100000000E-03 0. -1.
        -11    1    3    3    0    0 -0.24637359403E+02 -0.14979670870E+02 -0.20636975002E+02  0.35458070382E+02  0.51100000000E-03 0.  1.
        -12    1    3    3    0    0 -0.44594721099E+01 -0.16227600750E+01  0.25507871935E+01  0.53876485656E+01  0.00000000000E+00 0.  1.
</event>
<event>
 7    1  0.2685294E-009  0.4778727E+02  0.7816164E-02  0.1312668E+00
        -11   -1    0    0    0    0  0.00000000000E+00  0.00000000000E+00  0.45593999997E+02  0.45594000000E+02  0.51100000000E-03 0. -1.
         11   -1    0    0    0    0 -0.00000000000E+00 -0.00000000000E+00 -0.45593999997E+02  0.45594000000E+02  0.51100000000E-03 0.  1.
    9900012    2    1    2    0    0 -0.15441597643E+02 -0.38754083706E+02  0.11970853439E+02  0.47787271047E+02  0.20000000010E+02 0.  0.
        -12    1    1    2    0    0  0.15441597643E+02  0.38754083706E+02 -0.11970853439E+02  0.43400728953E+02  0.00000000000E+00 0.  1.
         11    1    3    3    0    0 -0.28803778531E+01 -0.24341897239E+01  0.65959414884E+00  0.38284358283E+01  0.51100000000E-03 0.  1.
        -11    1    3    3    0    0 -0.17208699053E+02 -0.28617180239E+02  0.77287323880E+01  0.34275583620E+02  0.51100000000E-03 0. -1.
        -12    1    3    3    0    0  0.46474792635E+01 -0.77027137429E+01  0.35825269021E+01  0.96832515982E+01  0.00000000000E+00 0.  1.
</event>
<event>
 7    1  0.2685294E-009  0.4778727E+02  0.7816164E-02  0.1312668E+00
        -11   -1    0    0    0    0  0.00000000000E+00  0.00000000000E+00  0.45593999997E+02  0.45594000000E+02  0.51100000000E-03 0.  1.
         11   -1    0    0    0    0 -0.00000000000E+00 -0.00000000000E+00 -0.45593999997E+02  0.45594000000E+02  0.51100000000E-03 0. -1.
    9900012    2    1    2    0    0 -0.62484960083E+01 -0.24742569160E+02 -0.35105336597E+02  0.47787273179E+02  0.20000009734E+02 0.  0.
        -12    1    1    2    0    0  0.62484960083E+01  0.24742569160E+02  0.35105336597E+02  0.43400726821E+02  0.00000000000E+00 0.  1.
         11    1    3    3    0    0 -0.15055988831E+00 -0.25386048616E+02 -0.30554756901E+02  0.39724895244E+02  0.51100000000E-03 0. -1.
        -11    1    3    3    0    0 -0.48060993864E+01 -0.62077725512E+00 -0.32297932695E+01  0.58237033353E+01  0.51100000000E-03 0.  1.
         12    1    3    3    0    0 -0.12918367335E+01  0.12642567119E+01 -0.13207864262E+01  0.22386745997E+01  0.00000000000E+00 0. -1.
</event>
<event>
 7    1  0.2685294E-009  0.4778727E+02  0.7816164E-02  0.1312668E+00
        -11   -1    0    0    0    0  0.00000000000E+00  0.00000000000E+00  0.45593999997E+02  0.45594000000E+02  0.51100000000E-03 0.  1.
         11   -1    0    0    0    0 -0.00000000000E+00 -0.00000000000E+00 -0.45593999997E+02  0.45594000000E+02  0.51100000000E-03 0. -1.
    9900012    2    1    2    0    0  0.15894883805E+01  0.38382338261E+02 -0.20196358920E+02  0.47787271004E+02  0.19999999817E+02 0.  0.
        -12    1    1    2    0    0 -0.15894883805E+01 -0.38382338261E+02  0.20196358920E+02  0.43400728996E+02  0.00000000000E+00 0.  1.
         11    1    3    3    0    0 -0.30795983697E+01  0.16407127848E+02 -0.12267920259E+02  0.20716651227E+02  0.51100000000E-03 0. -1.
        -11    1    3    3    0    0  0.30982058082E+01  0.16425640696E+02  0.65648795595E+00  0.16728165716E+02  0.51100000000E-03 0.  1.
        -12    1    3    3    0    0  0.15708809420E+01  0.55495697168E+01 -0.85849266175E+01  0.10342454061E+02  0.00000000000E+00 0.  1.
</event>
<event>
 7    1  0.2685294E-009  0.4778726E+02  0.7816164E-02  0.1312668E+00
        -11   -1    0    0    0    0  0.00000000000E+00  0.00000000000E+00  0.45593999997E+02  0.45594000000E+02  0.51100000000E-03 0. -1.
         11   -1    0    0    0    0 -0.00000000000E+00 -0.00000000000E+00 -0.45593999997E+02  0.45594000000E+02  0.51100000000E-03 0.  1.
    9900012    2    1    2    0    0 -0.12029530295E+02  0.34856437045E+02  0.22889802023E+02  0.47787264531E+02  0.19999970303E+02 0.  0.
        -12    1    1    2    0    0  0.12029530295E+02 -0.34856437045E+02 -0.22889802023E+02  0.43400735469E+02  0.00000000000E+00 0.  1.
         11    1    3    3    0    0 -0.13830853649E+02  0.14261031143E+02  0.12168818245E+02  0.23296988210E+02  0.51100000000E-03 0. -1.
        -11    1    3    3    0    0 -0.30625852599E+00  0.17565765691E+02  0.61464245736E+01  0.18612588586E+02  0.51100000000E-03 0.  1.
         12    1    3    3    0    0  0.21075818801E+01  0.30296402112E+01  0.45745592046E+01  0.58776877348E+01  0.00000000000E+00 0. -1.
</event>
<event>
 7    1  0.2685294E-009  0.4778727E+02  0.7816164E-02  0.1312668E+00
        -11   -1    0    0    0    0  0.00000000000E+00  0.00000000000E+00  0.45593999997E+02  0.45594000000E+02  0.51100000000E-03 0.  1.
         11   -1    0    0    0    0 -0.00000000000E+00 -0.00000000000E+00 -0.45593999997E+02  0.45594000000E+02  0.51100000000E-03 0. -1.
    9900012    2    1    2    0    0 -0.16244279798E+02 -0.27391935026E+02 -0.29486070279E+02  0.47787273380E+02  0.20000010649E+02 0.  0.
        -12    1    1    2    0    0  0.16244279798E+02  0.27391935026E+02  0.29486070279E+02  0.43400726620E+02  0.00000000000E+00 0.  1.
         11    1    3    3    0    0 -0.45466922592E+01 -0.73960634166E+01 -0.66762392547E+01  0.10952001434E+02  0.51100000000E-03 0.  1.
        -11    1    3    3    0    0 -0.73948906718E+01 -0.16233231715E+02 -0.55930795482E+01  0.18694511469E+02  0.51100000000E-03 0. -1.
        -12    1    3    3    0    0 -0.43026968674E+01 -0.37626398944E+01 -0.17216751476E+02  0.18140760477E+02  0.00000000000E+00 0.  1.
</event>
<event>
 7    1  0.2685294E-009  0.4778727E+02  0.7816164E-02  0.1312668E+00
        -11   -1    0    0    0    0  0.00000000000E+00  0.00000000000E+00  0.45593999997E+02  0.45594000000E+02  0.51100000000E-03 0. -1.
         11   -1    0    0    0    0 -0.00000000000E+00 -0.00000000000E+00 -0.45593999997E+02  0.45594000000E+02  0.51100000000E-03 0.  1.
    9900012    2    1    2    0    0 -0.40544470003E+02  0.15423292360E+02  0.13752965940E+01  0.47787269179E+02  0.19999991495E+02 0.  0.
        -12    1    1    2    0    0  0.40544470003E+02 -0.15423292360E+02 -0.13752965940E+01  0.43400730821E+02  0.00000000000E+00 0.  1.
         11    1    3    3    0    0 -0.24410573810E+02  0.13895036872E+02  0.31903291723E+01  0.28268823178E+02  0.51100000000E-03 0. -1.
        -11    1    3    3    0    0 -0.97513813556E+01 -0.44036464668E+01 -0.55077858543E+00  0.10713771412E+02  0.51100000000E-03 0.  1.
         12    1    3    3    0    0 -0.63825148377E+01  0.59319019555E+01 -0.12642539929E+01  0.88046745892E+01  0.00000000000E+00 0. -1.
</event>
<event>
 7    1  0.2685294E-009  0.4778725E+02  0.7816164E-02  0.1312668E+00
        -11   -1    0    0    0    0  0.00000000000E+00  0.00000000000E+00  0.45593999997E+02  0.45594000000E+02  0.51100000000E-03 0. -1.
         11   -1    0    0    0    0 -0.00000000000E+00 -0.00000000000E+00 -0.45593999997E+02  0.45594000000E+02  0.51100000000E-03 0.  1.
    9900012    2    1    2    0    0  0.35094795431E+02 -0.15713572993E+02 -0.20126212154E+02  0.47787245879E+02  0.19999885262E+02 0.  0.
        -12    1    1    2    0    0 -0.35094795431E+02  0.15713572993E+02  0.20126212154E+02  0.43400754121E+02  0.00000000000E+00 0.  1.
         11    1    3    3    0    0 -0.12111666502E+01 -0.50907056751E+01 -0.15100475865E+01  0.54463247149E+01  0.51100000000E-03 0. -1.
        -11    1    3    3    0    0  0.23706201458E+02 -0.64332239497E+01 -0.10053467303E+02  0.26541336873E+02  0.51100000000E-03 0.  1.
         12    1    3    3    0    0  0.12599760623E+02 -0.41896433685E+01 -0.85626972650E+01  0.15799584291E+02  0.00000000000E+00 0. -1.
</event>
<event>
 7    1  0.2685294E-009  0.4778727E+02  0.7816164E-02  0.1312668E+00
        -11   -1    0    0    0    0  0.00000000000E+00  0.00000000000E+00  0.45593999997E+02  0.45594000000E+02  0.51100000000E-03 0.  1.
         11   -1    0    0    0    0 -0.00000000000E+00 -0.00000000000E+00 -0.45593999997E+02  0.45594000000E+02  0.51100000000E-03 0. -1.
    9900012    2    1    2    0    0  0.65015735363E+01 -0.41412011074E+02 -0.11242693604E+02  0.47787270984E+02  0.19999999725E+02 0.  0.
        -12    1    1    2    0    0 -0.65015735363E+01  0.41412011074E+02  0.11242693604E+02  0.43400729016E+02  0.00000000000E+00 0.  1.
         11    1    3    3    0    0 -0.24278396771E+01 -0.10464807521E+02 -0.91299591514E+00  0.10781473171E+02  0.51100000000E-03 0. -1.
        -11    1    3    3    0    0  0.10925769685E+02 -0.19196612932E+02 -0.11722053743E+02  0.25005778042E+02  0.51100000000E-03 0.  1.
        -12    1    3    3    0    0 -0.19963564719E+01 -0.11750590622E+02  0.13923560541E+01  0.12000019771E+02  0.00000000000E+00 0.  1.
</event>
<event>
 7    1  0.2685294E-009  0.4778727E+02  0.7816164E-02  0.1312668E+00
        -11   -1    0    0    0    0  0.00000000000E+00  0.00000000000E+00  0.45593999997E+02  0.45594000000E+02  0.51100000000E-03 0. -1.
         11   -1    0    0    0    0 -0.00000000000E+00 -0.00000000000E+00 -0.45593999997E+02  0.45594000000E+02  0.51100000000E-03 0.  1.
    9900012    2    1    2    0    0 -0.19759076424E+02 -0.34760915636E+02  0.16878411230E+02  0.47787272787E+02  0.20000007945E+02 0.  0.
        -12    1    1    2    0    0  0.19759076424E+02  0.34760915636E+02 -0.16878411230E+02  0.43400727213E+02  0.00000000000E+00 0.  1.
         11    1    3    3    0    0 -0.77498240670E+01 -0.23894640597E+02  0.17807876378E+01  0.25183026570E+02  0.51100000000E-03 0.  1.
        -11    1    3    3    0    0 -0.54808348266E+01 -0.67535691667E+01  0.10452743753E+02  0.13598165284E+02  0.51100000000E-03 0. -1.
         12    1    3    3    0    0 -0.65284175302E+01 -0.41127058719E+01  0.46448798400E+01  0.90060809327E+01  0.00000000000E+00 0. -1.
</event>
<event>
 7    1  0.2685294E-009  0.4778726E+02  0.7816164E-02  0.1312668E+00
        -11   -1    0    0    0    0  0.00000000000E+00  0.00000000000E+00  0.45593999997E+02  0.45594000000E+02  0.51100000000E-03 0. -1.
         11   -1    0    0    0    0 -0.00000000000E+00 -0.00000000000E+00 -0.45593999997E+02  0.45594000000E+02  0.51100000000E-03 0.  1.
    9900012    2    1    2    0    0  0.33537917964E+02 -0.27319227877E+02  0.35344198504E+01  0.47787259490E+02  0.19999947318E+02 0.  0.
        -12    1    1    2    0    0 -0.33537917964E+02  0.27319227877E+02 -0.35344198504E+01  0.43400740510E+02  0.00000000000E+00 0.  1.
         11    1    3    3    0    0  0.26649137640E+02 -0.26564774234E+02  0.92493765387E+01  0.38748093291E+02  0.51100000000E-03 0. -1.
        -11    1    3    3    0    0  0.63970527657E+01 -0.91707688761E+00 -0.50819909393E+01  0.82213104961E+01  0.51100000000E-03 0.  1.
         12    1    3    3    0    0  0.49172755858E+00  0.16262324470E+00 -0.63296574897E+00  0.81785570301E+00  0.00000000000E+00 0. -1.
</event>
<event>
 7    1  0.2685294E-009  0.4778726E+02  0.7816164E-02  0.1312668E+00
        -11   -1    0    0    0    0  0.00000000000E+00  0.00000000000E+00  0.45593999997E+02  0.45594000000E+02  0.51100000000E-03 0.  1.
         11   -1    0    0    0    0 -0.00000000000E+00 -0.00000000000E+00 -0.45593999997E+02  0.45594000000E+02  0.51100000000E-03 0. -1.
    9900012    2    1    2    0    0 -0.37890329572E+02 -0.13252532502E+02 -0.16502033996E+02  0.47787264766E+02  0.19999971376E+02 0.  0.
        -12    1    1    2    0    0  0.37890329572E+02  0.13252532502E+02  0.16502033996E+02  0.43400735234E+02  0.00000000000E+00 0.  1.
         11    1    3    3    0    0 -0.31053884877E+02 -0.16418057878E+02 -0.78367786151E+01  0.35990436088E+02  0.51100000000E-03 0. -1.
        -11    1    3    3    0    0 -0.58578556120E+01  0.25282674019E+01 -0.84836015961E+01  0.10614994335E+02  0.51100000000E-03 0.  1.
         12    1    3    3    0    0 -0.97858908261E+00  0.63725797425E+00 -0.18165378512E+00  0.11818343437E+01  0.00000000000E+00 0. -1.
</event>
<event>
 7    1  0.2685294E-009  0.4778727E+02  0.7816164E-02  0.1312668E+00
        -11   -1    0    0    0    0  0.00000000000E+00  0.00000000000E+00  0.45593999997E+02  0.45594000000E+02  0.51100000000E-03 0.  1.
         11   -1    0    0    0    0 -0.00000000000E+00 -0.00000000000E+00 -0.45593999997E+02  0.45594000000E+02  0.51100000000E-03 0. -1.
    9900012    2    1    2    0    0 -0.24000439779E+02 -0.27835398590E+01 -0.36053489637E+02  0.47787270527E+02  0.19999997643E+02 0.  0.
        -12    1    1    2    0    0  0.24000439779E+02  0.27835398590E+01  0.36053489637E+02  0.43400729473E+02  0.00000000000E+00 0.  1.
         11    1    3    3    0    0 -0.25605883590E+02 -0.24477087393E+01 -0.37446239640E+02  0.45429873607E+02  0.51100000000E-03 0. -1.
        -11    1    3    3    0    0  0.12735862407E+01 -0.65526283266E+00  0.95137959406E+00  0.17194518561E+01  0.51100000000E-03 0.  1.
         12    1    3    3    0    0  0.33185757047E+00  0.31943171303E+00  0.44137040920E+00  0.63794506385E+00  0.00000000000E+00 0. -1.
</event>
<event>
 7    1  0.2685294E-009  0.4778729E+02  0.7816164E-02  0.1312668E+00
        -11   -1    0    0    0    0  0.00000000000E+00  0.00000000000E+00  0.45593999997E+02  0.45594000000E+02  0.51100000000E-03 0.  1.
         11   -1    0    0    0    0 -0.00000000000E+00 -0.00000000000E+00 -0.45593999997E+02  0.45594000000E+02  0.51100000000E-03 0. -1.
    9900012    2    1    2    0    0 -0.25742262923E+02  0.34082828280E+02 -0.77018637421E+01  0.47787285846E+02  0.20000067486E+02 0.  0.
        -12    1    1    2    0    0  0.25742262923E+02 -0.34082828280E+02  0.77018637421E+01  0.43400714154E+02  0.00000000000E+00 0.  1.
         11    1    3    3    0    0 -0.24145602456E+02  0.25264230580E+02  0.51961319725E+00  0.34950843522E+02  0.51100000000E-03 0. -1.
        -11    1    3    3    0    0  0.11140070314E+01  0.35887570630E+01 -0.45261694644E+01  0.58827203915E+01  0.51100000000E-03 0.  1.
         12    1    3    3    0    0 -0.27106674980E+01  0.52298406378E+01 -0.36953074750E+01  0.69537219326E+01  0.00000000000E+00 0. -1.
</event>
<event>
 7    1  0.2685294E-009  0.4778727E+02  0.7816164E-02  0.1312668E+00
        -11   -1    0    0    0    0  0.00000000000E+00  0.00000000000E+00  0.45593999997E+02  0.45594000000E+02  0.51100000000E-03 0. -1.
         11   -1    0    0    0    0 -0.00000000000E+00 -0.00000000000E+00 -0.45593999997E+02  0.45594000000E+02  0.51100000000E-03 0.  1.
    9900012    2    1    2    0    0 -0.33895244164E+02 -0.23524624444E+02  0.13465807243E+02  0.47787268476E+02  0.19999988287E+02 0.  0.
        -12    1    1    2    0    0  0.33895244164E+02  0.23524624444E+02 -0.13465807243E+02  0.43400731524E+02  0.00000000000E+00 0.  1.
         11    1    3    3    0    0 -0.49866515389E+01 -0.57659495292E+01  0.86371807563E+01  0.11520145799E+02  0.51100000000E-03 0. -1.
        -11    1    3    3    0    0 -0.10051611931E+02 -0.10561433587E+01 -0.16890848333E+01  0.10247114181E+02  0.51100000000E-03 0.  1.
        -12    1    3    3    0    0 -0.18856980694E+02 -0.16702531556E+02  0.65177113201E+01  0.26020008496E+02  0.00000000000E+00 0.  1.
</event>
<event>
 7    1  0.2685294E-009  0.4778727E+02  0.7816164E-02  0.1312668E+00
        -11   -1    0    0    0    0  0.00000000000E+00  0.00000000000E+00  0.45593999997E+02  0.45594000000E+02  0.51100000000E-03 0.  1.
         11   -1    0    0    0    0 -0.00000000000E+00 -0.00000000000E+00 -0.45593999997E+02  0.45594000000E+02  0.51100000000E-03 0. -1.
    9900012    2    1    2    0    0  0.51696076617E+00  0.14243207979E+02 -0.40993748599E+02  0.47787266755E+02  0.19999980444E+02 0.  0.
        -12    1    1    2    0    0 -0.51696076617E+00 -0.14243207979E+02  0.40993748599E+02  0.43400733245E+02  0.00000000000E+00 0.  1.
         11    1    3    3    0    0 -0.13310947932E+00 -0.13000742814E+01  0.12218100441E+01  0.17890587792E+01  0.51100000000E-03 0.  1.
        -11    1    3    3    0    0  0.76870869028E+00  0.10039829057E+02 -0.37242716210E+02  0.38579903985E+02  0.51100000000E-03 0. -1.
         12    1    3    3    0    0 -0.11863844479E+00  0.55034532026E+01 -0.49728424337E+01  0.74183039911E+01  0.00000000000E+00 0. -1.
</event>
<event>
 7    1  0.2685294E-009  0.4778727E+02  0.7816164E-02  0.1312668E+00
        -11   -1    0    0    0    0  0.00000000000E+00  0.00000000000E+00  0.45593999997E+02  0.45594000000E+02  0.51100000000E-03 0. -1.
         11   -1    0    0    0    0 -0.00000000000E+00 -0.00000000000E+00 -0.45593999997E+02  0.45594000000E+02  0.51100000000E-03 0.  1.
    9900012    2    1    2    0    0 -0.30324837950E+02 -0.13771822265E+02  0.27827404865E+02  0.47787270205E+02  0.19999996172E+02 0.  0.
        -12    1    1    2    0    0  0.30324837950E+02  0.13771822265E+02 -0.27827404865E+02  0.43400729795E+02  0.00000000000E+00 0.  1.
         11    1    3    3    0    0 -0.28404510921E+02 -0.14067743749E+02  0.20939822807E+02  0.37989391076E+02  0.51100000000E-03 0. -1.
        -11    1    3    3    0    0 -0.32374931221E+01  0.26916424254E+01  0.45701482788E+01  0.62139002417E+01  0.51100000000E-03 0.  1.
         12    1    3    3    0    0  0.13171660927E+01 -0.23957209420E+01  0.23174337789E+01  0.35839788876E+01  0.00000000000E+00 0. -1.
</event>
<event>
 7    1  0.2685294E-009  0.4778726E+02  0.7816164E-02  0.1312668E+00
        -11   -1    0    0    0    0  0.00000000000E+00  0.00000000000E+00  0.45593999997E+02  0.45594000000E+02  0.51100000000E-03 0.  1.
         11   -1    0    0    0    0 -0.00000000000E+00 -0.00000000000E+00 -0.45593999997E+02  0.45594000000E+02  0.51100000000E-03 0. -1.
    9900012    2    1    2    0    0 -0.72849813567E+01  0.78201931240E+01 -0.42064214140E+02  0.47787257091E+02  0.19999936380E+02 0.  0.
        -12    1    1    2    0    0  0.72849813567E+01 -0.78201931240E+01  0.42064214140E+02  0.43400742909E+02  0.00000000000E+00 0.  1.
         11    1    3    3    0    0 -0.83258519583E+01 -0.19910317496E+01 -0.17904643975E+02  0.19845913796E+02  0.51100000000E-03 0. -1.
        -11    1    3    3    0    0 -0.57925829914E+00  0.93281605639E+01 -0.24495281556E+02  0.26217721840E+02  0.51100000000E-03 0.  1.
        -12    1    3    3    0    0  0.16201289007E+01  0.48306430964E+00  0.33571139185E+00  0.17236214551E+01  0.00000000000E+00 0.  1.
</event>
<event>
 7    1  0.2685294E-009  0.4778726E+02  0.7816164E-02  0.1312668E+00
        -11   -1    0    0    0    0  0.00000000000E+00  0.00000000000E+00  0.45593999997E+02  0.45594000000E+02  0.51100000000E-03 0.  1.
         11   -1    0    0    0    0 -0.00000000000E+00 -0.00000000000E+00 -0.45593999997E+02  0.45594000000E+02  0.51100000000E-03 0. -1.
    9900012    2    1    2    0    0  0.29175736965E+02  0.30569891691E+01 -0.31985231992E+02  0.47787264110E+02  0.19999968382E+02 0.  0.
        -12    1    1    2    0    0 -0.29175736965E+02 -0.30569891691E+01  0.31985231992E+02  0.43400735890E+02  0.00000000000E+00 0.  1.
         11    1    3    3    0    0  0.15214510564E+02  0.92255684072E+01 -0.13230331154E+02  0.22172823610E+02  0.51100000000E-03 0.  1.
        -11    1    3    3    0    0  0.14009152539E+02 -0.65911469090E+01 -0.14101448073E+02  0.20941595223E+02  0.51100000000E-03 0. -1.
        -12    1    3    3    0    0 -0.47926138206E-01  0.42256767086E+00 -0.46534527643E+01  0.46728452768E+01  0.00000000000E+00 0.  1.
</event>
<event>
 7    1  0.2685294E-009  0.4778727E+02  0.7816164E-02  0.1312668E+00
        -11   -1    0    0    0    0  0.00000000000E+00  0.00000000000E+00  0.45593999997E+02  0.45594000000E+02  0.51100000000E-03 0. -1.
         11   -1    0    0    0    0 -0.00000000000E+00 -0.00000000000E+00 -0.45593999997E+02  0.45594000000E+02  0.51100000000E-03 0.  1.
    9900012    2    1    2    0    0  0.36399130505E+02  0.17120433257E+02  0.16297772337E+02  0.47787270518E+02  0.19999997598E+02 0.  0.
        -12    1    1    2    0    0 -0.36399130505E+02 -0.17120433257E+02 -0.16297772337E+02  0.43400729482E+02  0.00000000000E+00 0.  1.
         11    1    3    3    0    0  0.28680940454E+02  0.13301817143E+02  0.11683628201E+02  0.33705219964E+02  0.51100000000E-03 0. -1.
        -11    1    3    3    0    0  0.21848316920E+01  0.49472773692E+01 -0.16439711880E+01  0.56525821018E+01  0.51100000000E-03 0.  1.
         12    1    3    3    0    0  0.55333583595E+01 -0.11286612556E+01  0.62581153248E+01  0.84294684520E+01  0.00000000000E+00 0. -1.
</event>
<event>
 7    1  0.2689176E-009  0.4778727E+02  0.7816164E-02  0.1312668E+00
        -11   -1    0    0    0    0  0.00000000000E+00  0.00000000000E+00  0.45593999997E+02  0.45594000000E+02  0.51100000000E-03 0.  1.
         11   -1    0    0    0    0 -0.00000000000E+00 -0.00000000000E+00 -0.45593999997E+02  0.45594000000E+02  0.51100000000E-03 0. -1.
    9900012    2    1    2    0    0 -0.83903304710E-01 -0.31240796813E+02 -0.30126876150E+02  0.47787273141E+02  0.20000009560E+02 0.  0.
        -12    1    1    2    0    0  0.83903304710E-01  0.31240796813E+02  0.30126876150E+02  0.43400726859E+02  0.00000000000E+00 0.  1.
         11    1    3    3    0    0 -0.19359649222E+01 -0.16291675230E+02 -0.18403599531E+02  0.24654799086E+02  0.51100000000E-03 0. -1.
        -11    1    3    3    0    0  0.74929362441E+01 -0.94058988289E+01 -0.73830496830E+01  0.14111146276E+02  0.51100000000E-03 0.  1.
        -12    1    3    3    0    0 -0.56408746266E+01 -0.55432227539E+01 -0.43402269364E+01  0.90213277799E+01  0.00000000000E+00 0.  1.
</event>
<event>
 7    1  0.2685294E-009  0.4778726E+02  0.7816164E-02  0.1312668E+00
        -11   -1    0    0    0    0  0.00000000000E+00  0.00000000000E+00  0.45593999997E+02  0.45594000000E+02  0.51100000000E-03 0.  1.
         11   -1    0    0    0    0 -0.00000000000E+00 -0.00000000000E+00 -0.45593999997E+02  0.45594000000E+02  0.51100000000E-03 0. -1.
    9900012    2    1    2    0    0  0.14699821565E+02 -0.18000129205E+02 -0.36654259384E+02  0.47787261107E+02  0.19999954693E+02 0.  0.
        -12    1    1    2    0    0 -0.14699821565E+02  0.18000129205E+02  0.36654259384E+02  0.43400738893E+02  0.00000000000E+00 0.  1.
         11    1    3    3    0    0  0.49919540311E+01 -0.11609453034E+01 -0.20252410653E+02  0.20890848153E+02  0.51100000000E-03 0.  1.
        -11    1    3    3    0    0  0.21205066985E+01 -0.16354622838E+01  0.72125665818E+00  0.27733548219E+01  0.51100000000E-03 0. -1.
         12    1    3    3    0    0  0.75873608351E+01 -0.15203721618E+02 -0.17123105389E+02  0.24123058132E+02  0.00000000000E+00 0. -1.
</event>
<event>
 7    1  0.2685294E-009  0.4778727E+02  0.7816164E-02  0.1312668E+00
        -11   -1    0    0    0    0  0.00000000000E+00  0.00000000000E+00  0.45593999997E+02  0.45594000000E+02  0.51100000000E-03 0. -1.
         11   -1    0    0    0    0 -0.00000000000E+00 -0.00000000000E+00 -0.45593999997E+02  0.45594000000E+02  0.51100000000E-03 0.  1.
    9900012    2    1    2    0    0 -0.87059863882E+01  0.22844412161E+02  0.35860310865E+02  0.47787271189E+02  0.20000000661E+02 0.  0.
        -12    1    1    2    0    0  0.87059863882E+01 -0.22844412161E+02 -0.35860310865E+02  0.43400728811E+02  0.00000000000E+00 0.  1.
         11    1    3    3    0    0 -0.71819045564E+01  0.28771208110E+01  0.21623592486E+02  0.22966003776E+02  0.51100000000E-03 0. -1.
        -11    1    3    3    0    0 -0.18059986315E+01  0.10683245698E+02  0.58829265918E+01  0.12328917034E+02  0.51100000000E-03 0.  1.
         12    1    3    3    0    0  0.28191679965E+00  0.92840456519E+01  0.83537917877E+01  0.12492350379E+02  0.00000000000E+00 0. -1.
</event>
<event>
 7    1  0.2685294E-009  0.4778727E+02  0.7816164E-02  0.1312668E+00
        -11   -1    0    0    0    0  0.00000000000E+00  0.00000000000E+00  0.45593999997E+02  0.45594000000E+02  0.51100000000E-03 0.  1.
         11   -1    0    0    0    0 -0.00000000000E+00 -0.00000000000E+00 -0.45593999997E+02  0.45594000000E+02  0.51100000000E-03 0. -1.
    9900012    2    1    2    0    0 -0.33716471304E+02 -0.21858396286E+02 -0.16402238407E+02  0.47787270166E+02  0.19999995994E+02 0.  0.
        -12    1    1    2    0    0  0.33716471304E+02  0.21858396286E+02  0.16402238407E+02  0.43400729834E+02  0.00000000000E+00 0.  1.
         11    1    3    3    0    0 -0.26437604927E+02 -0.14894209650E+02 -0.97904733799E+01  0.31884758187E+02  0.51100000000E-03 0. -1.
        -11    1    3    3    0    0  0.20833795290E+01 -0.28578154203E+01  0.31970365326E+00  0.35510266016E+01  0.51100000000E-03 0.  1.
         12    1    3    3    0    0 -0.93622459056E+01 -0.41063712161E+01 -0.69314686804E+01  0.12351485377E+02  0.00000000000E+00 0. -1.
</event>
<event>
 7    1  0.2685294E-009  0.4778727E+02  0.7816164E-02  0.1312668E+00
        -11   -1    0    0    0    0  0.00000000000E+00  0.00000000000E+00  0.45593999997E+02  0.45594000000E+02  0.51100000000E-03 0.  1.
         11   -1    0    0    0    0 -0.00000000000E+00 -0.00000000000E+00 -0.45593999997E+02  0.45594000000E+02  0.51100000000E-03 0. -1.
    9900012    2    1    2    0    0 -0.40970768446E+02 -0.71150296202E+01 -0.12425609041E+02  0.47787271048E+02  0.20000000015E+02 0.  0.
        -12    1    1    2    0    0  0.40970768446E+02  0.71150296202E+01  0.12425609041E+02  0.43400728952E+02  0.00000000000E+00 0.  1.
         11    1    3    3    0    0 -0.20650560505E+02 -0.23727077704E+01 -0.51637790892E+01  0.21418216688E+02  0.51100000000E-03 0. -1.
        -11    1    3    3    0    0 -0.13381601845E+02  0.41577992417E+01 -0.31854316179E+01  0.14370161354E+02  0.51100000000E-03 0.  1.
        -12    1    3    3    0    0 -0.69386060955E+01 -0.89001210915E+01 -0.40763983336E+01  0.11998893006E+02  0.00000000000E+00 0.  1.
</event>
<event>
 7    1  0.2685294E-009  0.4778732E+02  0.7816164E-02  0.1312668E+00
        -11   -1    0    0    0    0  0.00000000000E+00  0.00000000000E+00  0.45593999997E+02  0.45594000000E+02  0.51100000000E-03 0.  1.
         11   -1    0    0    0    0 -0.00000000000E+00 -0.00000000000E+00 -0.45593999997E+02  0.45594000000E+02  0.51100000000E-03 0. -1.
    9900012    2    1    2    0    0  0.10103095854E+02 -0.18104489487E+01 -0.42169520007E+02  0.47787323866E+02  0.20000240834E+02 0.  0.
        -12    1    1    2    0    0 -0.10103095854E+02  0.18104489487E+01  0.42169520007E+02  0.43400676134E+02  0.00000000000E+00 0.  1.
         11    1    3    3    0    0  0.57571751673E+01 -0.66821828174E+00 -0.12226298301E+02  0.13530482327E+02  0.51100000000E-03 0. -1.
        -11    1    3    3    0    0 -0.21888636346E+01  0.63057489288E+01 -0.13475903149E+02  0.15038402824E+02  0.51100000000E-03 0.  1.
        -12    1    3    3    0    0  0.65347843216E+01 -0.74479795958E+01 -0.16467318557E+02  0.19218438715E+02  0.00000000000E+00 0.  1.
</event>
<event>
 7    1  0.2685294E-009  0.4778727E+02  0.7816164E-02  0.1312668E+00
        -11   -1    0    0    0    0  0.00000000000E+00  0.00000000000E+00  0.45593999997E+02  0.45594000000E+02  0.51100000000E-03 0.  1.
         11   -1    0    0    0    0 -0.00000000000E+00 -0.00000000000E+00 -0.45593999997E+02  0.45594000000E+02  0.51100000000E-03 0. -1.
    9900012    2    1    2    0    0 -0.10339461218E+01  0.11662159702E+02 -0.41791726118E+02  0.47787269760E+02  0.19999994143E+02 0.  0.
        -12    1    1    2    0    0  0.10339461218E+01 -0.11662159702E+02  0.41791726118E+02  0.43400730240E+02  0.00000000000E+00 0.  1.
         11    1    3    3    0    0 -0.72740334549E+00  0.13336180387E+02 -0.26583030431E+02  0.29749627394E+02  0.51100000000E-03 0. -1.
        -11    1    3    3    0    0  0.30147882676E+01 -0.43086211837E+01 -0.10199303204E+02  0.11475144919E+02  0.51100000000E-03 0.  1.
         12    1    3    3    0    0 -0.33213310439E+01  0.26346004988E+01 -0.50093924826E+01  0.65624974466E+01  0.00000000000E+00 0. -1.
</event>
<event>
 7    1  0.2685294E-009  0.4778727E+02  0.7816164E-02  0.1312668E+00
        -11   -1    0    0    0    0  0.00000000000E+00  0.00000000000E+00  0.45593999997E+02  0.45594000000E+02  0.51100000000E-03 0.  1.
         11   -1    0    0    0    0 -0.00000000000E+00 -0.00000000000E+00 -0.45593999997E+02  0.45594000000E+02  0.51100000000E-03 0. -1.
    9900012    2    1    2    0    0  0.38753710343E+02  0.85280077062E+00 -0.19520397734E+02  0.47787271179E+02  0.20000000614E+02 0.  0.
        -12    1    1    2    0    0 -0.38753710343E+02 -0.85280077062E+00  0.19520397734E+02  0.43400728821E+02  0.00000000000E+00 0.  1.
         11    1    3    3    0    0  0.71726695900E+01  0.40282528154E+01 -0.38057793743E+01  0.90641031933E+01  0.51100000000E-03 0. -1.
        -11    1    3    3    0    0  0.14048658047E+02  0.66937815277E+00  0.11274428790E+01  0.14109712533E+02  0.51100000000E-03 0.  1.
        -12    1    3    3    0    0  0.17532382706E+02 -0.38448301976E+01 -0.16842061238E+02  0.24613455453E+02  0.00000000000E+00 0.  1.
</event>
<event>
 7    1  0.2685294E-009  0.4778727E+02  0.7816164E-02  0.1312668E+00
        -11   -1    0    0    0    0  0.00000000000E+00  0.00000000000E+00  0.45593999997E+02  0.45594000000E+02  0.51100000000E-03 0.  1.
         11   -1    0    0    0    0 -0.00000000000E+00 -0.00000000000E+00 -0.45593999997E+02  0.45594000000E+02  0.51100000000E-03 0. -1.
    9900012    2    1    2    0    0 -0.41443147732E+02 -0.10466077194E+02 -0.75199762003E+01  0.47787270653E+02  0.19999998217E+02 0.  0.
        -12    1    1    2    0    0  0.41443147732E+02  0.10466077194E+02  0.75199762003E+01  0.43400729347E+02  0.00000000000E+00 0.  1.
         11    1    3    3    0    0  0.53009547868E+00  0.20050391902E+01 -0.28749578595E+01  0.35449353063E+01  0.51100000000E-03 0.  1.
        -11    1    3    3    0    0 -0.24176137158E+02 -0.81937707778E+01 -0.80290196305E+00  0.25539540702E+02  0.51100000000E-03 0. -1.
         12    1    3    3    0    0 -0.17797106053E+02 -0.42773456068E+01 -0.38421163778E+01  0.18702794645E+02  0.00000000000E+00 0. -1.
</event>
<event>
 7    1  0.2685294E-009  0.4778727E+02  0.7816164E-02  0.1312668E+00
        -11   -1    0    0    0    0  0.00000000000E+00  0.00000000000E+00  0.45593999997E+02  0.45594000000E+02  0.51100000000E-03 0.  1.
         11   -1    0    0    0    0 -0.00000000000E+00 -0.00000000000E+00 -0.45593999997E+02  0.45594000000E+02  0.51100000000E-03 0. -1.
    9900012    2    1    2    0    0  0.26044290565E+02 -0.25053197058E+02 -0.24034464192E+02  0.47787271632E+02  0.20000002680E+02 0.  0.
        -12    1    1    2    0    0 -0.26044290565E+02  0.25053197058E+02  0.24034464192E+02  0.43400728368E+02  0.00000000000E+00 0.  1.
         11    1    3    3    0    0  0.19109206989E+01 -0.19470236486E+01  0.91718188137E+00  0.28781490355E+01  0.51100000000E-03 0. -1.
        -11    1    3    3    0    0  0.91825973303E+01 -0.16938786211E+02 -0.64117483364E+01  0.20306478991E+02  0.51100000000E-03 0.  1.
        -12    1    3    3    0    0  0.14950772536E+02 -0.61673871980E+01 -0.18539897737E+02  0.24602643605E+02  0.00000000000E+00 0.  1.
</event>
<event>
 7    1  0.2685294E-009  0.4778727E+02  0.7816164E-02  0.1312668E+00
        -11   -1    0    0    0    0  0.00000000000E+00  0.00000000000E+00  0.45593999997E+02  0.45594000000E+02  0.51100000000E-03 0.  1.
         11   -1    0    0    0    0 -0.00000000000E+00 -0.00000000000E+00 -0.45593999997E+02  0.45594000000E+02  0.51100000000E-03 0. -1.
    9900012    2    1    2    0    0  0.12931337297E+02 -0.10433102440E+02 -0.40094315972E+02  0.47787270927E+02  0.19999999463E+02 0.  0.
        -12    1    1    2    0    0 -0.12931337297E+02  0.10433102440E+02  0.40094315972E+02  0.43400729073E+02  0.00000000000E+00 0.  1.
         11    1    3    3    0    0  0.44353464490E+01 -0.17997055104E+01 -0.13600131933E+02  0.14417864852E+02  0.51100000000E-03 0. -1.
        -11    1    3    3    0    0  0.42206907974E+00 -0.12046842596E+01 -0.21108951079E+02  0.21147511021E+02  0.51100000000E-03 0.  1.
        -12    1    3    3    0    0  0.80739217685E+01 -0.74287126698E+01 -0.53852329607E+01  0.12221895053E+02  0.00000000000E+00 0.  1.
</event>
<event>
 7    1  0.2685294E-009  0.4778728E+02  0.7816164E-02  0.1312668E+00
        -11   -1    0    0    0    0  0.00000000000E+00  0.00000000000E+00  0.45593999997E+02  0.45594000000E+02  0.51100000000E-03 0.  1.
         11   -1    0    0    0    0 -0.00000000000E+00 -0.00000000000E+00 -0.45593999997E+02  0.45594000000E+02  0.51100000000E-03 0. -1.
    9900012    2    1    2    0    0 -0.90034281318E+01 -0.75681180932E+01 -0.41776605428E+02  0.47787275459E+02  0.20000020129E+02 0.  0.
        -12    1    1    2    0    0  0.90034281318E+01  0.75681180932E+01  0.41776605428E+02  0.43400724541E+02  0.00000000000E+00 0.  1.
         11    1    3    3    0    0 -0.12048361963E+02 -0.28851425118E+01 -0.31728892942E+02  0.34061851401E+02  0.51100000000E-03 0. -1.
        -11    1    3    3    0    0  0.23129728059E+01 -0.47101383745E+00  0.43887484820E+00  0.24008974633E+01  0.51100000000E-03 0.  1.
        -12    1    3    3    0    0  0.73196102563E+00 -0.42119617440E+01 -0.10486587334E+02  0.11324526595E+02  0.00000000000E+00 0.  1.
</event>
<event>
 7    1  0.2685294E-009  0.4778727E+02  0.7816164E-02  0.1312668E+00
        -11   -1    0    0    0    0  0.00000000000E+00  0.00000000000E+00  0.45593999997E+02  0.45594000000E+02  0.51100000000E-03 0.  1.
         11   -1    0    0    0    0 -0.00000000000E+00 -0.00000000000E+00 -0.45593999997E+02  0.45594000000E+02  0.51100000000E-03 0. -1.
    9900012    2    1    2    0    0  0.73466308478E+01 -0.21193685299E+02 -0.37154784177E+02  0.47787271106E+02  0.20000000279E+02 0.  0.
        -12    1    1    2    0    0 -0.73466308478E+01  0.21193685299E+02  0.37154784177E+02  0.43400728894E+02  0.00000000000E+00 0.  1.
         11    1    3    3    0    0  0.91152074934E+01 -0.19200299724E+02 -0.37152306403E+02  0.42802247470E+02  0.51100000000E-03 0. -1.
        -11    1    3    3    0    0 -0.11720840862E+01  0.12303914161E+01 -0.12803330652E+00  0.17041235080E+01  0.51100000000E-03 0.  1.
         12    1    3    3    0    0 -0.59649255944E+00 -0.32237769906E+01  0.12555553282E+00  0.32809001281E+01  0.00000000000E+00 0. -1.
</event>
<event>
 7    1  0.2685294E-009  0.4778727E+02  0.7816164E-02  0.1312668E+00
        -11   -1    0    0    0    0  0.00000000000E+00  0.00000000000E+00  0.45593999997E+02  0.45594000000E+02  0.51100000000E-03 0. -1.
         11   -1    0    0    0    0 -0.00000000000E+00 -0.00000000000E+00 -0.45593999997E+02  0.45594000000E+02  0.51100000000E-03 0.  1.
    9900012    2    1    2    0    0 -0.27532386668E+01  0.43147400238E+02 -0.37874456518E+01  0.47787271722E+02  0.20000003091E+02 0.  0.
        -12    1    1    2    0    0  0.27532386668E+01 -0.43147400238E+02  0.37874456518E+01  0.43400728278E+02  0.00000000000E+00 0.  1.
         11    1    3    3    0    0 -0.26113741284E+01  0.22278708351E+02  0.22520958486E+01  0.22544002674E+02  0.51100000000E-03 0. -1.
        -11    1    3    3    0    0  0.56775727191E+01  0.48550114590E+01 -0.19690855655E+01  0.77254945779E+01  0.51100000000E-03 0.  1.
        -12    1    3    3    0    0 -0.58194372576E+01  0.16013680429E+02 -0.40704559350E+01  0.17517774470E+02  0.00000000000E+00 0.  1.
</event>
<event>
 7    1  0.2685294E-009  0.4778727E+02  0.7816164E-02  0.1312668E+00
        -11   -1    0    0    0    0  0.00000000000E+00  0.00000000000E+00  0.45593999997E+02  0.45594000000E+02  0.51100000000E-03 0. -1.
         11   -1    0    0    0    0 -0.00000000000E+00 -0.00000000000E+00 -0.45593999997E+02  0.45594000000E+02  0.51100000000E-03 0.  1.
    9900012    2    1    2    0    0  0.23603348668E+01  0.30112086337E+02  0.31165916028E+02  0.47787271364E+02  0.20000001457E+02 0.  0.
        -12    1    1    2    0    0 -0.23603348668E+01 -0.30112086337E+02 -0.31165916028E+02  0.43400728636E+02  0.00000000000E+00 0.  1.
         11    1    3    3    0    0 -0.21251227625E+01  0.53299689610E+01  0.52901881166E+01  0.78045375552E+01  0.51100000000E-03 0. -1.
        -11    1    3    3    0    0  0.10578162171E+01  0.10382650509E+02  0.22497493667E+02  0.24800315085E+02  0.51100000000E-03 0.  1.
        -12    1    3    3    0    0  0.34276414122E+01  0.14399466867E+02  0.33782342445E+01  0.15182418724E+02  0.00000000000E+00 0.  1.
</event>
<event>
 7    1  0.2685294E-009  0.4778727E+02  0.7816164E-02  0.1312668E+00
        -11   -1    0    0    0    0  0.00000000000E+00  0.00000000000E+00  0.45593999997E+02  0.45594000000E+02  0.51100000000E-03 0.  1.
         11   -1    0    0    0    0 -0.00000000000E+00 -0.00000000000E+00 -0.45593999997E+02  0.45594000000E+02  0.51100000000E-03 0. -1.
    9900012    2    1    2    0    0  0.34690436612E+02  0.12171057904E+02 -0.23066472298E+02  0.47787272044E+02  0.20000004560E+02 0.  0.
        -12    1    1    2    0    0 -0.34690436612E+02 -0.12171057904E+02  0.23066472298E+02  0.43400727956E+02  0.00000000000E+00 0.  1.
         11    1    3    3    0    0  0.32107608619E+02  0.11959563778E+02 -0.20863059909E+02  0.40114797345E+02  0.51100000000E-03 0. -1.
        -11    1    3    3    0    0  0.78458723975E+00  0.19019351209E+01  0.19541501256E+01  0.28375407161E+01  0.51100000000E-03 0.  1.
         12    1    3    3    0    0  0.17982407526E+01 -0.16904409951E+01 -0.41575625140E+01  0.48349339830E+01  0.00000000000E+00 0. -1.
</event>
<event>
 7    1  0.2685294E-009  0.4778727E+02  0.7816164E-02  0.1312668E+00
        -11   -1    0    0    0    0  0.00000000000E+00  0.00000000000E+00  0.45593999997E+02  0.45594000000E+02  0.51100000000E-03 0. -1.
         11   -1    0    0    0    0 -0.00000000000E+00 -0.00000000000E+00 -0.45593999997E+02  0.45594000000E+02  0.51100000000E-03 0.  1.
    9900012    2    1    2    0    0 -0.36696256244E+02 -0.23157840118E+02 -0.84988874250E+00  0.47787273138E+02  0.20000009547E+02 0.  0.
        -12    1    1    2    0    0  0.36696256244E+02  0.23157840118E+02  0.84988874250E+00  0.43400726862E+02  0.00000000000E+00 0.  1.
         11    1    3    3    0    0 -0.12952882636E+02 -0.13350976928E+02  0.76580525969E+01  0.20116449074E+02  0.51100000000E-03 0. -1.
        -11    1    3    3    0    0 -0.21747645494E+02 -0.10527961135E+02 -0.73589515939E+01  0.25257716030E+02  0.51100000000E-03 0.  1.
         12    1    3    3    0    0 -0.19957281142E+01  0.72109794559E+00 -0.11489897455E+01  0.24131080349E+01  0.00000000000E+00 0. -1.
</event>
<event>
 7    1  0.2685294E-009  0.4778727E+02  0.7816164E-02  0.1312668E+00
        -11   -1    0    0    0    0  0.00000000000E+00  0.00000000000E+00  0.45593999997E+02  0.45594000000E+02  0.51100000000E-03 0. -1.
         11   -1    0    0    0    0 -0.00000000000E+00 -0.00000000000E+00 -0.45593999997E+02  0.45594000000E+02  0.51100000000E-03 0.  1.
    9900012    2    1    2    0    0 -0.27181486310E+02  0.23176654364E+02 -0.24650211086E+02  0.47787269452E+02  0.19999992740E+02 0.  0.
        -12    1    1    2    0    0  0.27181486310E+02 -0.23176654364E+02  0.24650211086E+02  0.43400730548E+02  0.00000000000E+00 0.  1.
         11    1    3    3    0    0 -0.71589462223E+01  0.23113777860E+01  0.95164149650E+00  0.75827831356E+01  0.51100000000E-03 0.  1.
        -11    1    3    3    0    0 -0.14757719709E+02  0.97051817661E+01 -0.19909465495E+02  0.26615177262E+02  0.51100000000E-03 0. -1.
        -12    1    3    3    0    0 -0.52648203781E+01  0.11160094812E+02 -0.56923870867E+01  0.13589309054E+02  0.00000000000E+00 0.  1.
</event>
<event>
 7    1  0.2685294E-009  0.4778727E+02  0.7816164E-02  0.1312668E+00
        -11   -1    0    0    0    0  0.00000000000E+00  0.00000000000E+00  0.45593999997E+02  0.45594000000E+02  0.51100000000E-03 0.  1.
         11   -1    0    0    0    0 -0.00000000000E+00 -0.00000000000E+00 -0.45593999997E+02  0.45594000000E+02  0.51100000000E-03 0. -1.
    9900012    2    1    2    0    0  0.31385005859E+02 -0.28664589396E+02 -0.87718804905E+01  0.47787272294E+02  0.20000005699E+02 0.  0.
        -12    1    1    2    0    0 -0.31385005859E+02  0.28664589396E+02  0.87718804905E+01  0.43400727706E+02  0.00000000000E+00 0.  1.
         11    1    3    3    0    0  0.16509889489E+02 -0.44902077895E+01 -0.50418749444E+01  0.17837009844E+02  0.51100000000E-03 0. -1.
        -11    1    3    3    0    0 -0.10913862216E+01 -0.60793421553E+00 -0.88715676937E-01  0.12524290908E+01  0.51100000000E-03 0.  1.
         12    1    3    3    0    0  0.15966502591E+02 -0.23566447391E+02 -0.36412898691E+01  0.28697833360E+02  0.00000000000E+00 0. -1.
</event>
<event>
 7    1  0.2685294E-009  0.4778727E+02  0.7816164E-02  0.1312668E+00
        -11   -1    0    0    0    0  0.00000000000E+00  0.00000000000E+00  0.45593999997E+02  0.45594000000E+02  0.51100000000E-03 0.  1.
         11   -1    0    0    0    0 -0.00000000000E+00 -0.00000000000E+00 -0.45593999997E+02  0.45594000000E+02  0.51100000000E-03 0. -1.
    9900012    2    1    2    0    0 -0.24317346478E+02 -0.35046457134E+02 -0.80022338190E+01  0.47787271395E+02  0.20000001596E+02 0.  0.
        -12    1    1    2    0    0  0.24317346478E+02  0.35046457134E+02  0.80022338190E+01  0.43400728605E+02  0.00000000000E+00 0.  1.
         11    1    3    3    0    0 -0.85046662150E+01 -0.73544993423E+01 -0.23200904852E+01  0.11480454178E+02  0.51100000000E-03 0. -1.
        -11    1    3    3    0    0 -0.37931612304E+01 -0.40814756798E+01 -0.79587284259E+01  0.97153422103E+01  0.51100000000E-03 0.  1.
        -12    1    3    3    0    0 -0.12019519032E+02 -0.23610482112E+02  0.22765850922E+01  0.26591475007E+02  0.00000000000E+00 0.  1.
</event>
<event>
 7    1  0.2685294E-009  0.4778726E+02  0.7816164E-02  0.1312668E+00
        -11   -1    0    0    0    0  0.00000000000E+00  0.00000000000E+00  0.45593999997E+02  0.45594000000E+02  0.51100000000E-03 0.  1.
         11   -1    0    0    0    0 -0.00000000000E+00 -0.00000000000E+00 -0.45593999997E+02  0.45594000000E+02  0.51100000000E-03 0. -1.
    9900012    2    1    2    0    0  0.64528633159E+00 -0.51779613349E+01 -0.43085916854E+02  0.47787263725E+02  0.19999966627E+02 0.  0.
        -12    1    1    2    0    0 -0.64528633159E+00  0.51779613349E+01  0.43085916854E+02  0.43400736275E+02  0.00000000000E+00 0.  1.
         11    1    3    3    0    0 -0.46281715407E+00 -0.76437544813E+00 -0.26580571483E+02  0.26595587043E+02  0.51100000000E-03 0. -1.
        -11    1    3    3    0    0  0.10636031685E+01 -0.28772652733E+01  0.12916750274E+01  0.33284128035E+01  0.51100000000E-03 0.  1.
        -12    1    3    3    0    0  0.44500317176E-01 -0.15363206134E+01 -0.17797020399E+02  0.17863263879E+02  0.00000000000E+00 0.  1.
</event>
<event>
 7    1  0.2685294E-009  0.4778727E+02  0.7816164E-02  0.1312668E+00
        -11   -1    0    0    0    0  0.00000000000E+00  0.00000000000E+00  0.45593999997E+02  0.45594000000E+02  0.51100000000E-03 0.  1.
         11   -1    0    0    0    0 -0.00000000000E+00 -0.00000000000E+00 -0.45593999997E+02  0.45594000000E+02  0.51100000000E-03 0. -1.
    9900012    2    1    2    0    0  0.28178881393E+02 -0.31658230923E+02 -0.93450935512E+01  0.47787265960E+02  0.19999976818E+02 0.  0.
        -12    1    1    2    0    0 -0.28178881393E+02  0.31658230923E+02  0.93450935512E+01  0.43400734040E+02  0.00000000000E+00 0.  1.
         11    1    3    3    0    0  0.96628588422E+00 -0.75162936106E+01  0.18187528976E+01  0.77933459062E+01  0.51100000000E-03 0. -1.
        -11    1    3    3    0    0  0.28448270958E+02 -0.22498419086E+02 -0.99645053738E+01  0.37613486272E+02  0.51100000000E-03 0.  1.
        -12    1    3    3    0    0 -0.12356754497E+01 -0.16435182263E+01 -0.11993410750E+01  0.23804337822E+01  0.00000000000E+00 0.  1.
</event>
<event>
 7    1  0.3376932E-009  0.4778730E+02  0.7816164E-02  0.1312668E+00
        -11   -1    0    0    0    0  0.00000000000E+00  0.00000000000E+00  0.45593999997E+02  0.45594000000E+02  0.51100000000E-03 0.  1.
         11   -1    0    0    0    0 -0.00000000000E+00 -0.00000000000E+00 -0.45593999997E+02  0.45594000000E+02  0.51100000000E-03 0. -1.
    9900012    2    1    2    0    0 -0.40668290084E+01 -0.42890073239E+02 -0.52462369413E+01  0.47787303201E+02  0.20000146614E+02 0.  0.
        -12    1    1    2    0    0  0.40668290084E+01  0.42890073239E+02  0.52462369413E+01  0.43400696799E+02  0.00000000000E+00 0.  1.
         11    1    3    3    0    0  0.15464590682E+01 -0.20831006005E+02  0.66197394572E+00  0.20898817110E+02  0.51100000000E-03 0. -1.
        -11    1    3    3    0    0  0.48092072487E+00 -0.78253279420E+01 -0.80740835992E+01  0.11254237796E+02  0.51100000000E-03 0.  1.
        -12    1    3    3    0    0 -0.60942088014E+01 -0.14233739292E+02  0.21658727121E+01  0.15634248295E+02  0.00000000000E+00 0.  1.
</event>
<event>
 7    1  0.2685294E-009  0.4778728E+02  0.7816164E-02  0.1312668E+00
        -11   -1    0    0    0    0  0.00000000000E+00  0.00000000000E+00  0.45593999997E+02  0.45594000000E+02  0.51100000000E-03 0.  1.
         11   -1    0    0    0    0 -0.00000000000E+00 -0.00000000000E+00 -0.45593999997E+02  0.45594000000E+02  0.51100000000E-03 0. -1.
    9900012    2    1    2    0    0 -0.29965972038E+02 -0.26087252858E+02  0.17467641802E+02  0.47787277057E+02  0.20000027413E+02 0.  0.
        -12    1    1    2    0    0  0.29965972038E+02  0.26087252858E+02 -0.17467641802E+02  0.43400722943E+02  0.00000000000E+00 0.  1.
         11    1    3    3    0    0 -0.11584375719E+02 -0.19475083294E+02  0.11933054351E+02  0.25610045226E+02  0.51100000000E-03 0. -1.
        -11    1    3    3    0    0 -0.18214897480E+02 -0.50487751379E+01  0.68729937512E+01  0.20112450471E+02  0.51100000000E-03 0.  1.
         12    1    3    3    0    0 -0.16669883938E+00 -0.15633944266E+01 -0.13384063007E+01  0.20647813594E+01  0.00000000000E+00 0. -1.
</event>
<event>
 7    1  0.2685294E-009  0.4778728E+02  0.7816164E-02  0.1312668E+00
        -11   -1    0    0    0    0  0.00000000000E+00  0.00000000000E+00  0.45593999997E+02  0.45594000000E+02  0.51100000000E-03 0. -1.
         11   -1    0    0    0    0 -0.00000000000E+00 -0.00000000000E+00 -0.45593999997E+02  0.45594000000E+02  0.51100000000E-03 0.  1.
    9900012    2    1    2    0    0 -0.32597687637E+02  0.26187440759E+02  0.11628911739E+02  0.47787275571E+02  0.20000020636E+02 0.  0.
        -12    1    1    2    0    0  0.32597687637E+02 -0.26187440759E+02 -0.11628911739E+02  0.43400724429E+02  0.00000000000E+00 0.  1.
         11    1    3    3    0    0 -0.10557429110E+02  0.64945963497E+01  0.79659364014E+01  0.14734151967E+02  0.51100000000E-03 0. -1.
        -11    1    3    3    0    0 -0.42797849217E+01  0.46977153409E+01  0.71309585144E+01  0.95517358629E+01  0.51100000000E-03 0.  1.
        -12    1    3    3    0    0 -0.17760473605E+02  0.14995129068E+02 -0.34679831765E+01  0.23501387741E+02  0.00000000000E+00 0.  1.
</event>
<event>
 7    1  0.2685294E-009  0.4778727E+02  0.7816164E-02  0.1312668E+00
        -11   -1    0    0    0    0  0.00000000000E+00  0.00000000000E+00  0.45593999997E+02  0.45594000000E+02  0.51100000000E-03 0.  1.
         11   -1    0    0    0    0 -0.00000000000E+00 -0.00000000000E+00 -0.45593999997E+02  0.45594000000E+02  0.51100000000E-03 0. -1.
    9900012    2    1    2    0    0  0.17031521620E+02  0.14309369187E+02 -0.37266507260E+02  0.47787270299E+02  0.19999996602E+02 0.  0.
        -12    1    1    2    0    0 -0.17031521620E+02 -0.14309369187E+02  0.37266507260E+02  0.43400729701E+02  0.00000000000E+00 0.  1.
         11    1    3    3    0    0  0.12376916132E+02  0.10613029262E+02 -0.22892279875E+02  0.28104820248E+02  0.51100000000E-03 0. -1.
        -11    1    3    3    0    0 -0.35909214835E+01  0.34146820207E+01 -0.72513091420E+01  0.87827248014E+01  0.51100000000E-03 0.  1.
         12    1    3    3    0    0  0.82455269717E+01  0.28165790416E+00 -0.71229182426E+01  0.10899725249E+02  0.00000000000E+00 0. -1.
</event>
<event>
 7    1  0.2685294E-009  0.4778728E+02  0.7816164E-02  0.1312668E+00
        -11   -1    0    0    0    0  0.00000000000E+00  0.00000000000E+00  0.45593999997E+02  0.45594000000E+02  0.51100000000E-03 0. -1.
         11   -1    0    0    0    0 -0.00000000000E+00 -0.00000000000E+00 -0.45593999997E+02  0.45594000000E+02  0.51100000000E-03 0.  1.
    9900012    2    1    2    0    0  0.13960986901E+02  0.19512754898E+02  0.36165808202E+02  0.47787280630E+02  0.20000043705E+02 0.  0.
        -12    1    1    2    0    0 -0.13960986901E+02 -0.19512754898E+02 -0.36165808202E+02  0.43400719370E+02  0.00000000000E+00 0.  1.
         11    1    3    3    0    0  0.21189468863E+01  0.14711653433E+02  0.17395197909E+02  0.22880463133E+02  0.51100000000E-03 0.  1.
        -11    1    3    3    0    0  0.56590946247E+01  0.12596401813E+00  0.15486046424E+02  0.16488142801E+02  0.51100000000E-03 0. -1.
         12    1    3    3    0    0  0.61829453897E+01  0.46751374466E+01  0.32845638688E+01  0.84186746965E+01  0.00000000000E+00 0. -1.
</event>
<event>
 7    1  0.2685294E-009  0.4778727E+02  0.7816164E-02  0.1312668E+00
        -11   -1    0    0    0    0  0.00000000000E+00  0.00000000000E+00  0.45593999997E+02  0.45594000000E+02  0.51100000000E-03 0.  1.
         11   -1    0    0    0    0 -0.00000000000E+00 -0.00000000000E+00 -0.45593999997E+02  0.45594000000E+02  0.51100000000E-03 0. -1.
    9900012    2    1    2    0    0 -0.19498415488E+01  0.55420307431E+01 -0.43001247646E+02  0.47787270905E+02  0.19999999365E+02 0.  0.
        -12    1    1    2    0    0  0.19498415488E+01 -0.55420307431E+01  0.43001247646E+02  0.43400729095E+02  0.00000000000E+00 0.  1.
         11    1    3    3    0    0 -0.50276996460E+01  0.59559059946E+01 -0.15500666558E+02  0.17349963803E+02  0.51100000000E-03 0. -1.
        -11    1    3    3    0    0 -0.40210199115E+01  0.15937464816E+01 -0.17399442731E+02  0.17929005454E+02  0.51100000000E-03 0.  1.
        -12    1    3    3    0    0  0.70988780087E+01 -0.20076217331E+01 -0.10101138357E+02  0.12508301648E+02  0.00000000000E+00 0.  1.
</event>
<event>
 7    1  0.3985277E-009  0.4778727E+02  0.7816164E-02  0.1312668E+00
        -11   -1    0    0    0    0  0.00000000000E+00  0.00000000000E+00  0.45593999997E+02  0.45594000000E+02  0.51100000000E-03 0. -1.
         11   -1    0    0    0    0 -0.00000000000E+00 -0.00000000000E+00 -0.45593999997E+02  0.45594000000E+02  0.51100000000E-03 0.  1.
    9900012    2    1    2    0    0  0.96121843424E+00  0.11861485823E+02  0.41737323656E+02  0.47787274513E+02  0.20000015815E+02 0.  0.
        -12    1    1    2    0    0 -0.96121843424E+00 -0.11861485823E+02 -0.41737323656E+02  0.43400725487E+02  0.00000000000E+00 0.  1.
         11    1    3    3    0    0 -0.10185681426E+01  0.43972251086E+01  0.24343471302E+02  0.24758385751E+02  0.51100000000E-03 0. -1.
        -11    1    3    3    0    0  0.54782917757E+01  0.94591987883E+01  0.11277797038E+02  0.15705948834E+02  0.51100000000E-03 0.  1.
        -12    1    3    3    0    0 -0.34985051989E+01 -0.19949380743E+01  0.61160553167E+01  0.73229399276E+01  0.00000000000E+00 0.  1.
</event>
<event>
 7    1  0.2685294E-009  0.4778729E+02  0.7816164E-02  0.1312668E+00
        -11   -1    0    0    0    0  0.00000000000E+00  0.00000000000E+00  0.45593999997E+02  0.45594000000E+02  0.51100000000E-03 0.  1.
         11   -1    0    0    0    0 -0.00000000000E+00 -0.00000000000E+00 -0.45593999997E+02  0.45594000000E+02  0.51100000000E-03 0. -1.
    9900012    2    1    2    0    0 -0.23694384856E+02 -0.11744820739E+02 -0.34413037225E+02  0.47787287806E+02  0.20000076421E+02 0.  0.
        -12    1    1    2    0    0  0.23694384856E+02  0.11744820739E+02  0.34413037225E+02  0.43400712194E+02  0.00000000000E+00 0.  1.
         11    1    3    3    0    0 -0.16771217937E+02 -0.44853110253E+01 -0.10835899182E+02  0.20464810710E+02  0.51100000000E-03 0. -1.
        -11    1    3    3    0    0 -0.41388451050E+01  0.98678486436E+00 -0.37596236907E+01  0.56779004683E+01  0.51100000000E-03 0.  1.
         12    1    3    3    0    0 -0.27843218143E+01 -0.82462945785E+01 -0.19817514353E+02  0.21644576627E+02  0.00000000000E+00 0. -1.
</event>
<event>
 7    1  0.2685294E-009  0.4778727E+02  0.7816164E-02  0.1312668E+00
        -11   -1    0    0    0    0  0.00000000000E+00  0.00000000000E+00  0.45593999997E+02  0.45594000000E+02  0.51100000000E-03 0. -1.
         11   -1    0    0    0    0 -0.00000000000E+00 -0.00000000000E+00 -0.45593999997E+02  0.45594000000E+02  0.51100000000E-03 0.  1.
    9900012    2    1    2    0    0 -0.88116595413E+01 -0.42492262559E+02  0.62078085137E+00  0.47787273161E+02  0.20000009652E+02 0.  0.
        -12    1    1    2    0    0  0.88116595413E+01  0.42492262559E+02 -0.62078085137E+00  0.43400726839E+02  0.00000000000E+00 0.  1.
         11    1    3    3    0    0 -0.11739979734E+02 -0.20781430479E+02  0.44882744725E+01  0.24286613286E+02  0.51100000000E-03 0. -1.
        -11    1    3    3    0    0 -0.22922926224E+01 -0.45129832104E+01 -0.19558322160E+01  0.54265000545E+01  0.51100000000E-03 0.  1.
         12    1    3    3    0    0  0.52206128147E+01 -0.17197848870E+02 -0.19116614051E+01  0.18074159821E+02  0.00000000000E+00 0. -1.
</event>
<event>
 7    1  0.2685294E-009  0.4778727E+02  0.7816164E-02  0.1312668E+00
        -11   -1    0    0    0    0  0.00000000000E+00  0.00000000000E+00  0.45593999997E+02  0.45594000000E+02  0.51100000000E-03 0.  1.
         11   -1    0    0    0    0 -0.00000000000E+00 -0.00000000000E+00 -0.45593999997E+02  0.45594000000E+02  0.51100000000E-03 0. -1.
    9900012    2    1    2    0    0 -0.31668287129E+02  0.28519875769E+02  0.82072866783E+01  0.47787270995E+02  0.19999999773E+02 0.  0.
        -12    1    1    2    0    0  0.31668287129E+02 -0.28519875769E+02 -0.82072866783E+01  0.43400729005E+02  0.00000000000E+00 0.  1.
         11    1    3    3    0    0 -0.69438236692E+01  0.10644826006E+02 -0.20660524817E+01  0.12876240949E+02  0.51100000000E-03 0.  1.
        -11    1    3    3    0    0 -0.16834735150E+02  0.12042313530E+02 -0.91164573046E-02  0.20698446949E+02  0.51100000000E-03 0. -1.
        -12    1    3    3    0    0 -0.78897283097E+01  0.58327362332E+01  0.10282455617E+02  0.14212583097E+02  0.00000000000E+00 0.  1.
</event>
<event>
 7    1  0.2685294E-009  0.4778728E+02  0.7816164E-02  0.1312668E+00
        -11   -1    0    0    0    0  0.00000000000E+00  0.00000000000E+00  0.45593999997E+02  0.45594000000E+02  0.51100000000E-03 0.  1.
         11   -1    0    0    0    0 -0.00000000000E+00 -0.00000000000E+00 -0.45593999997E+02  0.45594000000E+02  0.51100000000E-03 0. -1.
    9900012    2    1    2    0    0 -0.42685925128E+02 -0.67023833026E+01 -0.40758750364E+01  0.47787275314E+02  0.20000019467E+02 0.  0.
        -12    1    1    2    0    0  0.42685925128E+02  0.67023833026E+01  0.40758750364E+01  0.43400724686E+02  0.00000000000E+00 0.  1.
         11    1    3    3    0    0 -0.17627252484E+01 -0.53255874152E+01 -0.37663575021E+01  0.67568136510E+01  0.51100000000E-03 0. -1.
        -11    1    3    3    0    0 -0.18281834240E+02  0.52771545853E+00  0.47468317288E+00  0.18295607975E+02  0.51100000000E-03 0.  1.
         12    1    3    3    0    0 -0.22641365639E+02 -0.19045113459E+01 -0.78420070713E+00  0.22734853688E+02  0.00000000000E+00 0. -1.
</event>
<event>
 7    1  0.2685294E-009  0.4778727E+02  0.7816164E-02  0.1312668E+00
        -11   -1    0    0    0    0  0.00000000000E+00  0.00000000000E+00  0.45593999997E+02  0.45594000000E+02  0.51100000000E-03 0.  1.
         11   -1    0    0    0    0 -0.00000000000E+00 -0.00000000000E+00 -0.45593999997E+02  0.45594000000E+02  0.51100000000E-03 0. -1.
    9900012    2    1    2    0    0  0.31516675076E+02  0.26650722888E+02 -0.13418692964E+02  0.47787272366E+02  0.20000006025E+02 0.  0.
        -12    1    1    2    0    0 -0.31516675076E+02 -0.26650722888E+02  0.13418692964E+02  0.43400727634E+02  0.00000000000E+00 0.  1.
         11    1    3    3    0    0  0.20340835483E+02  0.15669195979E+02 -0.16171650440E+02  0.30344613508E+02  0.51100000000E-03 0. -1.
        -11    1    3    3    0    0  0.68058524159E+01  0.10892617526E+02  0.23004980747E+01  0.13048411218E+02  0.51100000000E-03 0.  1.
         12    1    3    3    0    0  0.43699871771E+01  0.88909383828E-01  0.45245940100E+00  0.43942476394E+01  0.00000000000E+00 0. -1.
</event>
<event>
 7    1  0.2685294E-009  0.4778728E+02  0.7816164E-02  0.1312668E+00
        -11   -1    0    0    0    0  0.00000000000E+00  0.00000000000E+00  0.45593999997E+02  0.45594000000E+02  0.51100000000E-03 0.  1.
         11   -1    0    0    0    0 -0.00000000000E+00 -0.00000000000E+00 -0.45593999997E+02  0.45594000000E+02  0.51100000000E-03 0. -1.
    9900012    2    1    2    0    0 -0.10272254259E+02  0.12406805702E+02 -0.40301052488E+02  0.47787275733E+02  0.20000021378E+02 0.  0.
        -12    1    1    2    0    0  0.10272254259E+02 -0.12406805702E+02  0.40301052488E+02  0.43400724267E+02  0.00000000000E+00 0.  1.
         11    1    3    3    0    0 -0.84485285115E+00  0.88079599207E+01 -0.26619407660E+02  0.28051502611E+02  0.51100000000E-03 0. -1.
        -11    1    3    3    0    0 -0.11124994808E+02  0.19558302590E+01 -0.88224312383E+01  0.14332692514E+02  0.51100000000E-03 0.  1.
        -12    1    3    3    0    0  0.16975934002E+01  0.16430155220E+01 -0.48592135896E+01  0.54030806090E+01  0.00000000000E+00 0.  1.
</event>
<event>
 7    1  0.2685294E-009  0.4778727E+02  0.7816164E-02  0.1312668E+00
        -11   -1    0    0    0    0  0.00000000000E+00  0.00000000000E+00  0.45593999997E+02  0.45594000000E+02  0.51100000000E-03 0. -1.
         11   -1    0    0    0    0 -0.00000000000E+00 -0.00000000000E+00 -0.45593999997E+02  0.45594000000E+02  0.51100000000E-03 0.  1.
    9900012    2    1    2    0    0  0.13174160954E+02 -0.24734220503E+02  0.33140354404E+02  0.47787271080E+02  0.20000000163E+02 0.  0.
        -12    1    1    2    0    0 -0.13174160954E+02  0.24734220503E+02 -0.33140354404E+02  0.43400728920E+02  0.00000000000E+00 0.  1.
         11    1    3    3    0    0  0.37890313467E+01 -0.10400172973E+02  0.99031407381E+01  0.14852358505E+02  0.51100000000E-03 0. -1.
        -11    1    3    3    0    0  0.33759452061E+01  0.27067488121E+01  0.88000475861E+01  0.98063414659E+01  0.51100000000E-03 0.  1.
        -12    1    3    3    0    0  0.60091844015E+01 -0.17040796343E+02  0.14437166080E+02  0.23128571110E+02  0.00000000000E+00 0.  1.
</event>
<event>
 7    1  0.2685294E-009  0.4778726E+02  0.7816164E-02  0.1312668E+00
        -11   -1    0    0    0    0  0.00000000000E+00  0.00000000000E+00  0.45593999997E+02  0.45594000000E+02  0.51100000000E-03 0.  1.
         11   -1    0    0    0    0 -0.00000000000E+00 -0.00000000000E+00 -0.45593999997E+02  0.45594000000E+02  0.51100000000E-03 0. -1.
    9900012    2    1    2    0    0  0.32250084815E+02 -0.15883514036E+02 -0.24316052843E+02  0.47787257903E+02  0.19999940082E+02 0.  0.
        -12    1    1    2    0    0 -0.32250084815E+02  0.15883514036E+02  0.24316052843E+02  0.43400742097E+02  0.00000000000E+00 0.  1.
         11    1    3    3    0    0  0.11641286493E+02 -0.68540737848E+00 -0.13706958665E+02  0.17996389932E+02  0.51100000000E-03 0. -1.
        -11    1    3    3    0    0  0.91713669391E+01 -0.13248301917E+02 -0.75364287378E+01  0.17788457876E+02  0.51100000000E-03 0.  1.
        -12    1    3    3    0    0  0.11437431383E+02 -0.19498047399E+01 -0.30726654401E+01  0.12002410094E+02  0.00000000000E+00 0.  1.
</event>
<event>
 7    1  0.2685294E-009  0.4778726E+02  0.7816164E-02  0.1312668E+00
        -11   -1    0    0    0    0  0.00000000000E+00  0.00000000000E+00  0.45593999997E+02  0.45594000000E+02  0.51100000000E-03 0. -1.
         11   -1    0    0    0    0 -0.00000000000E+00 -0.00000000000E+00 -0.45593999997E+02  0.45594000000E+02  0.51100000000E-03 0.  1.
    9900012    2    1    2    0    0 -0.10847902925E+02 -0.41944703489E+02  0.25669114841E+01  0.47787260568E+02  0.19999952232E+02 0.  0.
        -12    1    1    2    0    0  0.10847902925E+02  0.41944703489E+02 -0.25669114841E+01  0.43400739432E+02  0.00000000000E+00 0.  1.
         11    1    3    3    0    0 -0.15132541268E+02 -0.19629999634E+02  0.13511388579E+01  0.24822495188E+02  0.51100000000E-03 0. -1.
        -11    1    3    3    0    0  0.46376893406E+01 -0.18760808967E+02  0.14898683525E+01  0.19382874490E+02  0.51100000000E-03 0.  1.
         12    1    3    3    0    0 -0.35305099830E+00 -0.35538948881E+01 -0.27409572631E+00  0.35818908903E+01  0.00000000000E+00 0. -1.
</event>
<event>
 7    1  0.2685294E-009  0.4778727E+02  0.7816164E-02  0.1312668E+00
        -11   -1    0    0    0    0  0.00000000000E+00  0.00000000000E+00  0.45593999997E+02  0.45594000000E+02  0.51100000000E-03 0. -1.
         11   -1    0    0    0    0 -0.00000000000E+00 -0.00000000000E+00 -0.45593999997E+02  0.45594000000E+02  0.51100000000E-03 0.  1.
    9900012    2    1    2    0    0 -0.36930594724E+02  0.22154904392E+02 -0.53772405614E+01  0.47787270382E+02  0.19999996981E+02 0.  0.
        -12    1    1    2    0    0  0.36930594724E+02 -0.22154904392E+02  0.53772405614E+01  0.43400729618E+02  0.00000000000E+00 0.  1.
         11    1    3    3    0    0 -0.28313035911E+02  0.20309431176E+02 -0.70063013081E+01  0.35541373855E+02  0.51100000000E-03 0. -1.
        -11    1    3    3    0    0 -0.93592138392E+01 -0.49881135763E+00  0.23892864258E+01  0.96722482569E+01  0.51100000000E-03 0.  1.
        -12    1    3    3    0    0  0.74165502585E+00  0.23442845731E+01 -0.76022567902E+00  0.25736482705E+01  0.00000000000E+00 0.  1.
</event>
<event>
 7    1  0.2685294E-009  0.4778727E+02  0.7816164E-02  0.1312668E+00
        -11   -1    0    0    0    0  0.00000000000E+00  0.00000000000E+00  0.45593999997E+02  0.45594000000E+02  0.51100000000E-03 0.  1.
         11   -1    0    0    0    0 -0.00000000000E+00 -0.00000000000E+00 -0.45593999997E+02  0.45594000000E+02  0.51100000000E-03 0. -1.
    9900012    2    1    2    0    0 -0.99281708824E+01 -0.30006136370E+02 -0.29743687387E+02  0.47787265717E+02  0.19999975709E+02 0.  0.
        -12    1    1    2    0    0  0.99281708824E+01  0.30006136370E+02  0.29743687387E+02  0.43400734283E+02  0.00000000000E+00 0.  1.
         11    1    3    3    0    0 -0.69843213723E+01 -0.12560575920E+02 -0.40371502582E+01  0.14928074053E+02  0.51100000000E-03 0. -1.
        -11    1    3    3    0    0 -0.59486432854E+01 -0.11548035606E+02 -0.21160045746E+02  0.24829237192E+02  0.51100000000E-03 0.  1.
        -12    1    3    3    0    0  0.30047937753E+01 -0.58975248445E+01 -0.45464913831E+01  0.80299544719E+01  0.00000000000E+00 0.  1.
</event>
<event>
 7    1  0.2685294E-009  0.4778727E+02  0.7816164E-02  0.1312668E+00
        -11   -1    0    0    0    0  0.00000000000E+00  0.00000000000E+00  0.45593999997E+02  0.45594000000E+02  0.51100000000E-03 0.  1.
         11   -1    0    0    0    0 -0.00000000000E+00 -0.00000000000E+00 -0.45593999997E+02  0.45594000000E+02  0.51100000000E-03 0. -1.
    9900012    2    1    2    0    0  0.19033731957E+01  0.40816783055E+02 -0.14628436934E+02  0.47787265264E+02  0.19999973645E+02 0.  0.
        -12    1    1    2    0    0 -0.19033731957E+01 -0.40816783055E+02  0.14628436934E+02  0.43400734736E+02  0.00000000000E+00 0.  1.
         11    1    3    3    0    0 -0.20722544605E+01  0.36307860335E+01  0.35547511940E+01  0.54875406223E+01  0.51100000000E-03 0. -1.
        -11    1    3    3    0    0  0.15141185858E+01  0.11561126005E+01 -0.18798212253E+01  0.26763556447E+01  0.51100000000E-03 0.  1.
         12    1    3    3    0    0  0.24615090704E+01  0.36029884421E+02 -0.16303366903E+02  0.39623368997E+02  0.00000000000E+00 0. -1.
</event>
<event>
 7    1  0.2685294E-009  0.4778727E+02  0.7816164E-02  0.1312668E+00
        -11   -1    0    0    0    0  0.00000000000E+00  0.00000000000E+00  0.45593999997E+02  0.45594000000E+02  0.51100000000E-03 0.  1.
         11   -1    0    0    0    0 -0.00000000000E+00 -0.00000000000E+00 -0.45593999997E+02  0.45594000000E+02  0.51100000000E-03 0. -1.
    9900012    2    1    2    0    0 -0.68201249771E+01  0.42448883782E+02 -0.59330809797E+01  0.47787270871E+02  0.19999999210E+02 0.  0.
        -12    1    1    2    0    0  0.68201249771E+01 -0.42448883782E+02  0.59330809797E+01  0.43400729129E+02  0.00000000000E+00 0.  1.
         11    1    3    3    0    0 -0.13736996201E+01  0.21635596086E+02 -0.11192482872E+02  0.24397904454E+02  0.51100000000E-03 0. -1.
        -11    1    3    3    0    0 -0.69593831555E+01  0.12282185246E+02  0.35832154771E+01  0.14564495245E+02  0.51100000000E-03 0.  1.
        -12    1    3    3    0    0  0.15129577985E+01  0.85311024503E+01  0.16761864155E+01  0.88248711729E+01  0.00000000000E+00 0.  1.
</event>
<event>
 7    1  0.2685294E-009  0.4778727E+02  0.7816164E-02  0.1312668E+00
        -11   -1    0    0    0    0  0.00000000000E+00  0.00000000000E+00  0.45593999997E+02  0.45594000000E+02  0.51100000000E-03 0.  1.
         11   -1    0    0    0    0 -0.00000000000E+00 -0.00000000000E+00 -0.45593999997E+02  0.45594000000E+02  0.51100000000E-03 0. -1.
    9900012    2    1    2    0    0  0.52375038397E+01  0.10594335116E+02 -0.41760649590E+02  0.47787271467E+02  0.20000001928E+02 0.  0.
        -12    1    1    2    0    0 -0.52375038397E+01 -0.10594335116E+02  0.41760649590E+02  0.43400728533E+02  0.00000000000E+00 0.  1.
         11    1    3    3    0    0  0.53241182438E+01  0.21975703051E+01 -0.36908699483E+02  0.37355423275E+02  0.51100000000E-03 0. -1.
        -11    1    3    3    0    0  0.86833543661E+00  0.80132509712E+01 -0.36458289464E+01  0.88463702458E+01  0.51100000000E-03 0.  1.
         12    1    3    3    0    0 -0.95494984069E+00  0.38351383914E+00 -0.12061211607E+01  0.15854779460E+01  0.00000000000E+00 0. -1.
</event>
<event>
 7    1  0.2685294E-009  0.4778727E+02  0.7816164E-02  0.1312668E+00
        -11   -1    0    0    0    0  0.00000000000E+00  0.00000000000E+00  0.45593999997E+02  0.45594000000E+02  0.51100000000E-03 0.  1.
         11   -1    0    0    0    0 -0.00000000000E+00 -0.00000000000E+00 -0.45593999997E+02  0.45594000000E+02  0.51100000000E-03 0. -1.
    9900012    2    1    2    0    0 -0.14232312732E+02  0.74604563979E+01 -0.40316323886E+02  0.47787272966E+02  0.20000008762E+02 0.  0.
        -12    1    1    2    0    0  0.14232312732E+02 -0.74604563979E+01  0.40316323886E+02  0.43400727034E+02  0.00000000000E+00 0.  1.
         11    1    3    3    0    0 -0.89251828467E+01  0.82941419129E+01 -0.19610633520E+02  0.23087412723E+02  0.51100000000E-03 0. -1.
        -11    1    3    3    0    0 -0.14140774394E+00 -0.54216438867E+01 -0.14238021523E+02  0.15235992771E+02  0.51100000000E-03 0.  1.
        -12    1    3    3    0    0 -0.51657221411E+01  0.45879583717E+01 -0.64676688439E+01  0.94638674724E+01  0.00000000000E+00 0.  1.
</event>
<event>
 7    1  0.2685294E-009  0.4778727E+02  0.7816164E-02  0.1312668E+00
        -11   -1    0    0    0    0  0.00000000000E+00  0.00000000000E+00  0.45593999997E+02  0.45594000000E+02  0.51100000000E-03 0.  1.
         11   -1    0    0    0    0 -0.00000000000E+00 -0.00000000000E+00 -0.45593999997E+02  0.45594000000E+02  0.51100000000E-03 0. -1.
    9900012    2    1    2    0    0 -0.27929238620E+02  0.23753847738E+02 -0.23223597223E+02  0.47787272815E+02  0.20000008071E+02 0.  0.
        -12    1    1    2    0    0  0.27929238620E+02 -0.23753847738E+02  0.23223597223E+02  0.43400727185E+02  0.00000000000E+00 0.  1.
         11    1    3    3    0    0 -0.96183859819E+01  0.72010045602E+01  0.89568924178E+00  0.12048654491E+02  0.51100000000E-03 0.  1.
        -11    1    3    3    0    0 -0.16815463487E+02  0.17649950460E+02 -0.23260806700E+02  0.33694891187E+02  0.51100000000E-03 0. -1.
        -12    1    3    3    0    0 -0.14953891509E+01 -0.10971072816E+01 -0.85847976433E+00  0.20437271359E+01  0.00000000000E+00 0.  1.
</event>
<event>
 7    1  0.2685294E-009  0.4778727E+02  0.7816164E-02  0.1312668E+00
        -11   -1    0    0    0    0  0.00000000000E+00  0.00000000000E+00  0.45593999997E+02  0.45594000000E+02  0.51100000000E-03 0. -1.
         11   -1    0    0    0    0 -0.00000000000E+00 -0.00000000000E+00 -0.45593999997E+02  0.45594000000E+02  0.51100000000E-03 0.  1.
    9900012    2    1    2    0    0  0.42969631718E+02 -0.60769449691E+01 -0.55231786314E+00  0.47787267688E+02  0.19999984698E+02 0.  0.
        -12    1    1    2    0    0 -0.42969631718E+02  0.60769449691E+01  0.55231786314E+00  0.43400732312E+02  0.00000000000E+00 0.  1.
         11    1    3    3    0    0  0.26022469488E+02 -0.11022049798E+02 -0.36019635410E+00  0.28262771303E+02  0.51100000000E-03 0. -1.
        -11    1    3    3    0    0  0.17910938309E+02  0.45351433731E+01 -0.18889806915E+00  0.18477145863E+02  0.51100000000E-03 0.  1.
         12    1    3    3    0    0 -0.96377607884E+00  0.40996145603E+00 -0.32234398901E-02  0.10473505221E+01  0.00000000000E+00 0. -1.
</event>
<event>
 7    1  0.2685294E-009  0.4778727E+02  0.7816164E-02  0.1312668E+00
        -11   -1    0    0    0    0  0.00000000000E+00  0.00000000000E+00  0.45593999997E+02  0.45594000000E+02  0.51100000000E-03 0. -1.
         11   -1    0    0    0    0 -0.00000000000E+00 -0.00000000000E+00 -0.45593999997E+02  0.45594000000E+02  0.51100000000E-03 0.  1.
    9900012    2    1    2    0    0  0.63141528427E+01 -0.14594564417E+02  0.40382590699E+02  0.47787268806E+02  0.19999989793E+02 0.  0.
        -12    1    1    2    0    0 -0.63141528427E+01  0.14594564417E+02 -0.40382590699E+02  0.43400731194E+02  0.00000000000E+00 0.  1.
         11    1    3    3    0    0  0.50325632910E+01 -0.18809713523E+01  0.28723801947E+02  0.29221936025E+02  0.51100000000E-03 0. -1.
        -11    1    3    3    0    0 -0.25625797834E+01 -0.77821536380E+01  0.64579107997E+01  0.10432322011E+02  0.51100000000E-03 0.  1.
         12    1    3    3    0    0  0.38441693352E+01 -0.49314394269E+01  0.52008779526E+01  0.81330107695E+01  0.00000000000E+00 0. -1.
</event>
<event>
 7    1  0.2685294E-009  0.4778727E+02  0.7816164E-02  0.1312668E+00
        -11   -1    0    0    0    0  0.00000000000E+00  0.00000000000E+00  0.45593999997E+02  0.45594000000E+02  0.51100000000E-03 0.  1.
         11   -1    0    0    0    0 -0.00000000000E+00 -0.00000000000E+00 -0.45593999997E+02  0.45594000000E+02  0.51100000000E-03 0. -1.
    9900012    2    1    2    0    0 -0.28372631232E+02 -0.32075478715E+02 -0.70555293927E+01  0.47787273822E+02  0.20000012663E+02 0.  0.
        -12    1    1    2    0    0  0.28372631232E+02  0.32075478715E+02  0.70555293927E+01  0.43400726178E+02  0.00000000000E+00 0.  1.
         11    1    3    3    0    0 -0.15003862901E+02 -0.12062363919E+02 -0.53407541064E+01  0.19978492935E+02  0.51100000000E-03 0. -1.
        -11    1    3    3    0    0  0.28648411841E+01 -0.23400090333E+01  0.38915568084E+00  0.37194622852E+01  0.51100000000E-03 0.  1.
        -12    1    3    3    0    0 -0.16233609515E+02 -0.17673105763E+02 -0.21039309671E+01  0.24089318602E+02  0.00000000000E+00 0.  1.
</event>
<event>
 7    1  0.2685294E-009  0.4778727E+02  0.7816164E-02  0.1312668E+00
        -11   -1    0    0    0    0  0.00000000000E+00  0.00000000000E+00  0.45593999997E+02  0.45594000000E+02  0.51100000000E-03 0.  1.
         11   -1    0    0    0    0 -0.00000000000E+00 -0.00000000000E+00 -0.45593999997E+02  0.45594000000E+02  0.51100000000E-03 0. -1.
    9900012    2    1    2    0    0  0.39191704038E+02 -0.12811960378E+02 -0.13545741590E+02  0.47787272940E+02  0.20000008643E+02 0.  0.
        -12    1    1    2    0    0 -0.39191704038E+02  0.12811960378E+02  0.13545741590E+02  0.43400727060E+02  0.00000000000E+00 0.  1.
         11    1    3    3    0    0  0.12276267294E+02 -0.45736773938E+01 -0.70822064929E+01  0.14892377669E+02  0.51100000000E-03 0. -1.
        -11    1    3    3    0    0  0.27139680347E+02 -0.11144223625E+02 -0.58318190367E+01  0.29912640858E+02  0.51100000000E-03 0.  1.
        -12    1    3    3    0    0 -0.22424360361E+00  0.29059406408E+01 -0.63171606050E+00  0.29822544128E+01  0.00000000000E+00 0.  1.
</event>
<event>
 7    1  0.2685294E-009  0.4778725E+02  0.7816164E-02  0.1312668E+00
        -11   -1    0    0    0    0  0.00000000000E+00  0.00000000000E+00  0.45593999997E+02  0.45594000000E+02  0.51100000000E-03 0.  1.
         11   -1    0    0    0    0 -0.00000000000E+00 -0.00000000000E+00 -0.45593999997E+02  0.45594000000E+02  0.51100000000E-03 0. -1.
    9900012    2    1    2    0    0 -0.33991720425E+02 -0.17428806365E+02 -0.20601575965E+02  0.47787247921E+02  0.19999894570E+02 0.  0.
        -12    1    1    2    0    0  0.33991720425E+02  0.17428806365E+02  0.20601575965E+02  0.43400752079E+02  0.00000000000E+00 0.  1.
         11    1    3    3    0    0 -0.16000718429E+02 -0.14854894189E+02 -0.13578378645E+02  0.25711150081E+02  0.51100000000E-03 0.  1.
        -11    1    3    3    0    0 -0.11886548111E+02  0.34252943872E+01 -0.41531871612E+01  0.13048817245E+02  0.51100000000E-03 0. -1.
         12    1    3    3    0    0 -0.61044538856E+01 -0.59992065638E+01 -0.28700101590E+01  0.90272805954E+01  0.00000000000E+00 0. -1.
</event>
<event>
 7    1  0.2685294E-009  0.4778725E+02  0.7816164E-02  0.1312668E+00
        -11   -1    0    0    0    0  0.00000000000E+00  0.00000000000E+00  0.45593999997E+02  0.45594000000E+02  0.51100000000E-03 0.  1.
         11   -1    0    0    0    0 -0.00000000000E+00 -0.00000000000E+00 -0.45593999997E+02  0.45594000000E+02  0.51100000000E-03 0. -1.
    9900012    2    1    2    0    0 -0.22753059110E+01 -0.30290259407E+02 -0.30999159041E+02  0.47787254693E+02  0.19999925446E+02 0.  0.
        -12    1    1    2    0    0  0.22753059110E+01  0.30290259407E+02  0.30999159041E+02  0.43400745307E+02  0.00000000000E+00 0.  1.
         11    1    3    3    0    0 -0.79321961032E+01 -0.19261137056E+02 -0.15034840570E+02  0.25689639292E+02  0.51100000000E-03 0. -1.
        -11    1    3    3    0    0  0.70371215787E+01 -0.46071353746E+01 -0.11085727690E+02  0.13915463886E+02  0.51100000000E-03 0.  1.
        -12    1    3    3    0    0 -0.13802313865E+01 -0.64219869764E+01 -0.48785907811E+01  0.81821515150E+01  0.00000000000E+00 0.  1.
</event>
<event>
 7    1  0.2685294E-009  0.4778727E+02  0.7816164E-02  0.1312668E+00
        -11   -1    0    0    0    0  0.00000000000E+00  0.00000000000E+00  0.45593999997E+02  0.45594000000E+02  0.51100000000E-03 0. -1.
         11   -1    0    0    0    0 -0.00000000000E+00 -0.00000000000E+00 -0.45593999997E+02  0.45594000000E+02  0.51100000000E-03 0.  1.
    9900012    2    1    2    0    0 -0.20808726685E+02 -0.37575699009E+02 -0.62198887625E+01  0.47787270992E+02  0.19999999759E+02 0.  0.
        -12    1    1    2    0    0  0.20808726685E+02  0.37575699009E+02  0.62198887625E+01  0.43400729008E+02  0.00000000000E+00 0.  1.
         11    1    3    3    0    0 -0.16286605838E+02 -0.14823326210E+02 -0.83590452273E+01  0.23555427549E+02  0.51100000000E-03 0. -1.
        -11    1    3    3    0    0 -0.16474092066E+01 -0.62502448752E+00  0.61618051191E+00  0.18666256690E+01  0.51100000000E-03 0.  1.
         12    1    3    3    0    0 -0.28747116404E+01 -0.22127348312E+02  0.15229759529E+01  0.22365217774E+02  0.00000000000E+00 0. -1.
</event>
<event>
 7    1  0.2685294E-009  0.4778728E+02  0.7816164E-02  0.1312668E+00
        -11   -1    0    0    0    0  0.00000000000E+00  0.00000000000E+00  0.45593999997E+02  0.45594000000E+02  0.51100000000E-03 0.  1.
         11   -1    0    0    0    0 -0.00000000000E+00 -0.00000000000E+00 -0.45593999997E+02  0.45594000000E+02  0.51100000000E-03 0. -1.
    9900012    2    1    2    0    0  0.21029513740E+02 -0.51355920135E+01 -0.37616592529E+02  0.47787276654E+02  0.20000025577E+02 0.  0.
        -12    1    1    2    0    0 -0.21029513740E+02  0.51355920135E+01  0.37616592529E+02  0.43400723346E+02  0.00000000000E+00 0.  1.
         11    1    3    3    0    0  0.21069418795E+02 -0.63776665257E+01 -0.34760066074E+02  0.41144346299E+02  0.51100000000E-03 0. -1.
        -11    1    3    3    0    0 -0.20425263043E+01  0.27869665074E+01 -0.18628846361E+01  0.39254853771E+01  0.51100000000E-03 0.  1.
         12    1    3    3    0    0  0.20026212493E+01 -0.15448919952E+01 -0.99364181906E+00  0.27174449782E+01  0.00000000000E+00 0. -1.
</event>
<event>
 7    1  0.2685294E-009  0.4778727E+02  0.7816164E-02  0.1312668E+00
        -11   -1    0    0    0    0  0.00000000000E+00  0.00000000000E+00  0.45593999997E+02  0.45594000000E+02  0.51100000000E-03 0.  1.
         11   -1    0    0    0    0 -0.00000000000E+00 -0.00000000000E+00 -0.45593999997E+02  0.45594000000E+02  0.51100000000E-03 0. -1.
    9900012    2    1    2    0    0 -0.22461027255E+02 -0.59829260361E+01 -0.36651468513E+02  0.47787270819E+02  0.19999998971E+02 0.  0.
        -12    1    1    2    0    0  0.22461027255E+02  0.59829260361E+01  0.36651468513E+02  0.43400729181E+02  0.00000000000E+00 0.  1.
         11    1    3    3    0    0 -0.16425238412E+02 -0.97178604563E+01 -0.19395892894E+02  0.27210768643E+02  0.51100000000E-03 0. -1.
        -11    1    3    3    0    0  0.48585889370E+00  0.67584721363E+00 -0.11013172041E+02  0.11044581793E+02  0.51100000000E-03 0.  1.
         12    1    3    3    0    0 -0.65216477371E+01  0.30590872066E+01 -0.62424035781E+01  0.95319203823E+01  0.00000000000E+00 0. -1.
</event>
<event>
 7    1  0.2685294E-009  0.4778727E+02  0.7816164E-02  0.1312668E+00
        -11   -1    0    0    0    0  0.00000000000E+00  0.00000000000E+00  0.45593999997E+02  0.45594000000E+02  0.51100000000E-03 0. -1.
         11   -1    0    0    0    0 -0.00000000000E+00 -0.00000000000E+00 -0.45593999997E+02  0.45594000000E+02  0.51100000000E-03 0.  1.
    9900012    2    1    2    0    0  0.42513259821E+02 -0.76343682042E+01  0.42382151792E+01  0.47787270670E+02  0.19999998293E+02 0.  0.
        -12    1    1    2    0    0 -0.42513259821E+02  0.76343682042E+01 -0.42382151792E+01  0.43400729330E+02  0.00000000000E+00 0.  1.
         11    1    3    3    0    0  0.23833844908E+02 -0.68760728747E+01  0.37164863605E+01  0.25082759266E+02  0.51100000000E-03 0. -1.
        -11    1    3    3    0    0  0.93288536765E+01  0.42928952680E+01  0.46889186226E+01  0.11289039765E+02  0.51100000000E-03 0.  1.
        -12    1    3    3    0    0  0.93505612365E+01 -0.50511905975E+01 -0.41671898040E+01  0.11415471640E+02  0.00000000000E+00 0.  1.
</event>
<event>
 7    1  0.2685294E-009  0.4778727E+02  0.7816164E-02  0.1312668E+00
        -11   -1    0    0    0    0  0.00000000000E+00  0.00000000000E+00  0.45593999997E+02  0.45594000000E+02  0.51100000000E-03 0.  1.
         11   -1    0    0    0    0 -0.00000000000E+00 -0.00000000000E+00 -0.45593999997E+02  0.45594000000E+02  0.51100000000E-03 0. -1.
    9900012    2    1    2    0    0 -0.22495661443E+02  0.32481400929E+02  0.17959034865E+02  0.47787272778E+02  0.20000007905E+02 0.  0.
        -12    1    1    2    0    0  0.22495661443E+02 -0.32481400929E+02 -0.17959034865E+02  0.43400727222E+02  0.00000000000E+00 0.  1.
         11    1    3    3    0    0 -0.15871292674E+02  0.23047696359E+02  0.50786548098E+01  0.28440938338E+02  0.51100000000E-03 0. -1.
        -11    1    3    3    0    0 -0.56632724697E+01  0.12018029393E+01  0.32444148218E+01  0.66365060964E+01  0.51100000000E-03 0.  1.
         12    1    3    3    0    0 -0.96109629974E+00  0.82319016309E+01  0.96359652332E+01  0.12709828344E+02  0.00000000000E+00 0. -1.
</event>
<event>
 7    1  0.2685294E-009  0.4778727E+02  0.7816164E-02  0.1312668E+00
        -11   -1    0    0    0    0  0.00000000000E+00  0.00000000000E+00  0.45593999997E+02  0.45594000000E+02  0.51100000000E-03 0.  1.
         11   -1    0    0    0    0 -0.00000000000E+00 -0.00000000000E+00 -0.45593999997E+02  0.45594000000E+02  0.51100000000E-03 0. -1.
    9900012    2    1    2    0    0  0.23915619345E+02  0.14270081395E+02 -0.33287105692E+02  0.47787268704E+02  0.19999989330E+02 0.  0.
        -12    1    1    2    0    0 -0.23915619345E+02 -0.14270081395E+02  0.33287105692E+02  0.43400731296E+02  0.00000000000E+00 0.  1.
         11    1    3    3    0    0  0.83501205840E+01  0.12955220346E+02 -0.24338566570E+02  0.28808472207E+02  0.51100000000E-03 0. -1.
        -11    1    3    3    0    0  0.64499629058E+01 -0.19050027722E+01 -0.55877137081E+01  0.87437750310E+01  0.51100000000E-03 0.  1.
         12    1    3    3    0    0  0.91155358548E+01  0.32198638219E+01 -0.33608254142E+01  0.10235021466E+02  0.00000000000E+00 0. -1.
</event>
<event>
 7    1  0.2685294E-009  0.4778724E+02  0.7816164E-02  0.1312668E+00
        -11   -1    0    0    0    0  0.00000000000E+00  0.00000000000E+00  0.45593999997E+02  0.45594000000E+02  0.51100000000E-03 0.  1.
         11   -1    0    0    0    0 -0.00000000000E+00 -0.00000000000E+00 -0.45593999997E+02  0.45594000000E+02  0.51100000000E-03 0. -1.
    9900012    2    1    2    0    0 -0.78490155582E+01 -0.42567960596E+02  0.31603611400E+01  0.47787237368E+02  0.19999846454E+02 0.  0.
        -12    1    1    2    0    0  0.78490155582E+01  0.42567960596E+02 -0.31603611400E+01  0.43400762632E+02  0.00000000000E+00 0.  1.
         11    1    3    3    0    0 -0.19847370115E+01 -0.13833920342E+02  0.90473968691E+00  0.14004823711E+02  0.51100000000E-03 0. -1.
        -11    1    3    3    0    0  0.52419320256E+01 -0.11316504806E+02 -0.21634337177E+01  0.12657866254E+02  0.51100000000E-03 0.  1.
        -12    1    3    3    0    0 -0.11106210572E+02 -0.17417535448E+02  0.44190551708E+01  0.21124547403E+02  0.00000000000E+00 0.  1.
</event>
<event>
 7    1  0.2685294E-009  0.4778727E+02  0.7816164E-02  0.1312668E+00
        -11   -1    0    0    0    0  0.00000000000E+00  0.00000000000E+00  0.45593999997E+02  0.45594000000E+02  0.51100000000E-03 0. -1.
         11   -1    0    0    0    0 -0.00000000000E+00 -0.00000000000E+00 -0.45593999997E+02  0.45594000000E+02  0.51100000000E-03 0.  1.
    9900012    2    1    2    0    0  0.33859411617E+01  0.69600334258E+01  0.42704991986E+02  0.47787274161E+02  0.20000014211E+02 0.  0.
        -12    1    1    2    0    0 -0.33859411617E+01 -0.69600334258E+01 -0.42704991986E+02  0.43400725839E+02  0.00000000000E+00 0.  1.
         11    1    3    3    0    0  0.15165931577E+01  0.47104567880E+01  0.41464547995E+02  0.41758797859E+02  0.51100000000E-03 0. -1.
        -11    1    3    3    0    0 -0.15591728135E+01  0.21969250007E+00  0.13027301232E+01  0.20436219543E+01  0.51100000000E-03 0.  1.
         12    1    3    3    0    0  0.34285208175E+01  0.20298841378E+01 -0.62286132913E-01  0.39848543476E+01  0.00000000000E+00 0. -1.
</event>
<event>
 7    1  0.2685294E-009  0.4778727E+02  0.7816164E-02  0.1312668E+00
        -11   -1    0    0    0    0  0.00000000000E+00  0.00000000000E+00  0.45593999997E+02  0.45594000000E+02  0.51100000000E-03 0.  1.
         11   -1    0    0    0    0 -0.00000000000E+00 -0.00000000000E+00 -0.45593999997E+02  0.45594000000E+02  0.51100000000E-03 0. -1.
    9900012    2    1    2    0    0 -0.20735105922E+02 -0.38088362590E+02 -0.17190576346E+01  0.47787272569E+02  0.20000006951E+02 0.  0.
        -12    1    1    2    0    0  0.20735105922E+02  0.38088362590E+02  0.17190576346E+01  0.43400727431E+02  0.00000000000E+00 0.  1.
         11    1    3    3    0    0 -0.41852973905E+01 -0.96317280332E+01 -0.69327701590E+01  0.12583727647E+02  0.51100000000E-03 0. -1.
        -11    1    3    3    0    0 -0.15300598084E+02 -0.17727535967E+02  0.65587828135E+01  0.24318541598E+02  0.51100000000E-03 0.  1.
        -12    1    3    3    0    0 -0.12492104478E+01 -0.10729098589E+02 -0.13450702892E+01  0.10885003324E+02  0.00000000000E+00 0.  1.
</event>
<event>
 7    1  0.2685294E-009  0.4778727E+02  0.7816164E-02  0.1312668E+00
        -11   -1    0    0    0    0  0.00000000000E+00  0.00000000000E+00  0.45593999997E+02  0.45594000000E+02  0.51100000000E-03 0.  1.
         11   -1    0    0    0    0 -0.00000000000E+00 -0.00000000000E+00 -0.45593999997E+02  0.45594000000E+02  0.51100000000E-03 0. -1.
    9900012    2    1    2    0    0 -0.40845686489E+01  0.38811237364E+02 -0.18990195942E+02  0.47787269722E+02  0.19999993969E+02 0.  0.
        -12    1    1    2    0    0  0.40845686489E+01 -0.38811237364E+02  0.18990195942E+02  0.43400730278E+02  0.00000000000E+00 0.  1.
         11    1    3    3    0    0 -0.24601629806E+01  0.23456758301E+02 -0.19309714623E+01  0.23664331027E+02  0.51100000000E-03 0. -1.
        -11    1    3    3    0    0 -0.18105558664E+01  0.11980523374E+01 -0.52692001370E+01  0.56989395762E+01  0.51100000000E-03 0.  1.
         12    1    3    3    0    0  0.18615019805E+00  0.14156426725E+02 -0.11790024343E+02  0.18423999119E+02  0.00000000000E+00 0. -1.
</event>
<event>
 7    1  0.2685294E-009  0.4778726E+02  0.7816164E-02  0.1312668E+00
        -11   -1    0    0    0    0  0.00000000000E+00  0.00000000000E+00  0.45593999997E+02  0.45594000000E+02  0.51100000000E-03 0.  1.
         11   -1    0    0    0    0 -0.00000000000E+00 -0.00000000000E+00 -0.45593999997E+02  0.45594000000E+02  0.51100000000E-03 0. -1.
    9900012    2    1    2    0    0  0.13942826328E+02 -0.17699775728E+02 -0.37093658738E+02  0.47787262847E+02  0.19999962626E+02 0.  0.
        -12    1    1    2    0    0 -0.13942826328E+02  0.17699775728E+02  0.37093658738E+02  0.43400737153E+02  0.00000000000E+00 0.  1.
         11    1    3    3    0    0 -0.12391148035E+01 -0.88228247233E+01 -0.12887407164E+02  0.15667255830E+02  0.51100000000E-03 0. -1.
        -11    1    3    3    0    0  0.16807538039E+02 -0.68359846805E+01 -0.22854638337E+02  0.29181475549E+02  0.51100000000E-03 0.  1.
        -12    1    3    3    0    0 -0.16255969069E+01 -0.20409663247E+01 -0.13516132372E+01  0.29385314674E+01  0.00000000000E+00 0.  1.
</event>
<event>
 7    1  0.2685294E-009  0.4778727E+02  0.7816164E-02  0.1312668E+00
        -11   -1    0    0    0    0  0.00000000000E+00  0.00000000000E+00  0.45593999997E+02  0.45594000000E+02  0.51100000000E-03 0.  1.
         11   -1    0    0    0    0 -0.00000000000E+00 -0.00000000000E+00 -0.45593999997E+02  0.45594000000E+02  0.51100000000E-03 0. -1.
    9900012    2    1    2    0    0 -0.23734506745E+02  0.24729380156E+02  0.26622442602E+02  0.47787268400E+02  0.19999987943E+02 0.  0.
        -12    1    1    2    0    0  0.23734506745E+02 -0.24729380156E+02 -0.26622442602E+02  0.43400731600E+02  0.00000000000E+00 0.  1.
         11    1    3    3    0    0 -0.25547353612E+01  0.87566857287E+01  0.32738995284E+01  0.96914723391E+01  0.51100000000E-03 0. -1.
        -11    1    3    3    0    0 -0.12581735570E+02  0.73158623325E+00  0.97962246611E+01  0.15962496868E+02  0.51100000000E-03 0.  1.
        -12    1    3    3    0    0 -0.85980358137E+01  0.15241108194E+02  0.13552318412E+02  0.22133299193E+02  0.00000000000E+00 0.  1.
</event>
<event>
 7    1  0.2685294E-009  0.4778727E+02  0.7816164E-02  0.1312668E+00
        -11   -1    0    0    0    0  0.00000000000E+00  0.00000000000E+00  0.45593999997E+02  0.45594000000E+02  0.51100000000E-03 0.  1.
         11   -1    0    0    0    0 -0.00000000000E+00 -0.00000000000E+00 -0.45593999997E+02  0.45594000000E+02  0.51100000000E-03 0. -1.
    9900012    2    1    2    0    0 -0.11336864220E+01  0.25964661883E+02 -0.34758802685E+02  0.47787271024E+02  0.19999999905E+02 0.  0.
        -12    1    1    2    0    0  0.11336864220E+01 -0.25964661883E+02  0.34758802685E+02  0.43400728976E+02  0.00000000000E+00 0.  1.
         11    1    3    3    0    0  0.29093079927E+01  0.14314953362E+02 -0.15488844678E+02  0.21290520719E+02  0.51100000000E-03 0. -1.
        -11    1    3    3    0    0  0.19329568756E+01 -0.15687349018E+01 -0.14653218564E+00  0.24937368381E+01  0.51100000000E-03 0.  1.
        -12    1    3    3    0    0 -0.59759512904E+01  0.13218443423E+02 -0.19123425821E+02  0.24003013467E+02  0.00000000000E+00 0.  1.
</event>
<event>
 7    1  0.2685294E-009  0.4778727E+02  0.7816164E-02  0.1312668E+00
        -11   -1    0    0    0    0  0.00000000000E+00  0.00000000000E+00  0.45593999997E+02  0.45594000000E+02  0.51100000000E-03 0. -1.
         11   -1    0    0    0    0 -0.00000000000E+00 -0.00000000000E+00 -0.45593999997E+02  0.45594000000E+02  0.51100000000E-03 0.  1.
    9900012    2    1    2    0    0  0.17638495746E+02 -0.32724302047E+02  0.22397031107E+02  0.47787268681E+02  0.19999989222E+02 0.  0.
        -12    1    1    2    0    0 -0.17638495746E+02  0.32724302047E+02 -0.22397031107E+02  0.43400731319E+02  0.00000000000E+00 0.  1.
         11    1    3    3    0    0  0.16607362317E+02 -0.14480529637E+02  0.12435872246E+02  0.25301010661E+02  0.51100000000E-03 0. -1.
        -11    1    3    3    0    0  0.29680218503E+01 -0.11513524397E+02  0.99168438259E+01  0.15482706142E+02  0.51100000000E-03 0.  1.
         12    1    3    3    0    0 -0.19368884212E+01 -0.67302480135E+01  0.44315034854E-01  0.70035518775E+01  0.00000000000E+00 0. -1.
</event>
<event>
 7    1  0.2685294E-009  0.4778726E+02  0.7816164E-02  0.1312668E+00
        -11   -1    0    0    0    0  0.00000000000E+00  0.00000000000E+00  0.45593999997E+02  0.45594000000E+02  0.51100000000E-03 0.  1.
         11   -1    0    0    0    0 -0.00000000000E+00 -0.00000000000E+00 -0.45593999997E+02  0.45594000000E+02  0.51100000000E-03 0. -1.
    9900012    2    1    2    0    0 -0.53114344688E+00 -0.35181734409E+02 -0.25408410521E+02  0.47787264123E+02  0.19999968444E+02 0.  0.
        -12    1    1    2    0    0  0.53114344688E+00  0.35181734409E+02  0.25408410521E+02  0.43400735877E+02  0.00000000000E+00 0.  1.
         11    1    3    3    0    0  0.66582884858E+01 -0.29662293901E+02 -0.16812241339E+02  0.34739544386E+02  0.51100000000E-03 0. -1.
        -11    1    3    3    0    0 -0.29697741145E+01 -0.39354673433E+01 -0.26841100794E+01  0.56135468895E+01  0.51100000000E-03 0.  1.
         12    1    3    3    0    0 -0.42196578182E+01 -0.15839731646E+01 -0.59120591034E+01  0.74341728478E+01  0.00000000000E+00 0. -1.
</event>
<event>
 7    1  0.2685294E-009  0.4778727E+02  0.7816164E-02  0.1312668E+00
        -11   -1    0    0    0    0  0.00000000000E+00  0.00000000000E+00  0.45593999997E+02  0.45594000000E+02  0.51100000000E-03 0.  1.
         11   -1    0    0    0    0 -0.00000000000E+00 -0.00000000000E+00 -0.45593999997E+02  0.45594000000E+02  0.51100000000E-03 0. -1.
    9900012    2    1    2    0    0 -0.19259032752E+02  0.38776086826E+02  0.30212556187E+01  0.47787271463E+02  0.20000001907E+02 0.  0.
        -12    1    1    2    0    0  0.19259032752E+02 -0.38776086826E+02 -0.30212556187E+01  0.43400728537E+02  0.00000000000E+00 0.  1.
         11    1    3    3    0    0  0.21877609367E+01  0.12638267482E+02 -0.21703919641E+01  0.13008562734E+02  0.51100000000E-03 0. -1.
        -11    1    3    3    0    0 -0.16522318565E+02  0.22836676389E+02  0.59312590242E+01  0.28804177356E+02  0.51100000000E-03 0.  1.
         12    1    3    3    0    0 -0.49244751234E+01  0.33011429550E+01 -0.73961144147E+00  0.59745313736E+01  0.00000000000E+00 0. -1.
</event>
<event>
 7    1  0.2685294E-009  0.4778727E+02  0.7816164E-02  0.1312668E+00
        -11   -1    0    0    0    0  0.00000000000E+00  0.00000000000E+00  0.45593999997E+02  0.45594000000E+02  0.51100000000E-03 0.  1.
         11   -1    0    0    0    0 -0.00000000000E+00 -0.00000000000E+00 -0.45593999997E+02  0.45594000000E+02  0.51100000000E-03 0. -1.
    9900012    2    1    2    0    0 -0.89915000961E+01 -0.18902706996E+02 -0.38019258475E+02  0.47787269352E+02  0.19999992284E+02 0.  0.
        -12    1    1    2    0    0  0.89915000961E+01  0.18902706996E+02  0.38019258475E+02  0.43400730648E+02  0.00000000000E+00 0.  1.
         11    1    3    3    0    0  0.40388312970E+01 -0.20842791629E+01 -0.92081692432E+01  0.10268727231E+02  0.51100000000E-03 0. -1.
        -11    1    3    3    0    0 -0.77879306519E+01 -0.71100791854E+01 -0.58866819437E+01  0.12077173280E+02  0.51100000000E-03 0.  1.
         12    1    3    3    0    0 -0.52424007411E+01 -0.97083486476E+01 -0.22924407288E+02  0.25441368841E+02  0.00000000000E+00 0. -1.
</event>
<event>
 7    1  0.2685294E-009  0.4778727E+02  0.7816164E-02  0.1312668E+00
        -11   -1    0    0    0    0  0.00000000000E+00  0.00000000000E+00  0.45593999997E+02  0.45594000000E+02  0.51100000000E-03 0.  1.
         11   -1    0    0    0    0 -0.00000000000E+00 -0.00000000000E+00 -0.45593999997E+02  0.45594000000E+02  0.51100000000E-03 0. -1.
    9900012    2    1    2    0    0 -0.35917957275E+02  0.23185169997E+02 -0.74814097974E+01  0.47787271260E+02  0.20000000983E+02 0.  0.
        -12    1    1    2    0    0  0.35917957275E+02 -0.23185169997E+02  0.74814097974E+01  0.43400728740E+02  0.00000000000E+00 0.  1.
         11    1    3    3    0    0 -0.19058939509E+02  0.10933540420E+02 -0.21650312417E+01  0.22078787146E+02  0.51100000000E-03 0. -1.
        -11    1    3    3    0    0 -0.97115017128E+01  0.13424462400E+02 -0.74368176739E+01  0.18161379728E+02  0.51100000000E-03 0.  1.
        -12    1    3    3    0    0 -0.71475160529E+01 -0.11728328221E+01  0.21204391182E+01  0.75471043857E+01  0.00000000000E+00 0.  1.
</event>
<event>
 7    1  0.2685294E-009  0.4778727E+02  0.7816164E-02  0.1312668E+00
        -11   -1    0    0    0    0  0.00000000000E+00  0.00000000000E+00  0.45593999997E+02  0.45594000000E+02  0.51100000000E-03 0.  1.
         11   -1    0    0    0    0 -0.00000000000E+00 -0.00000000000E+00 -0.45593999997E+02  0.45594000000E+02  0.51100000000E-03 0. -1.
    9900012    2    1    2    0    0  0.22024986909E+01  0.30435900702E+02 -0.30861434879E+02  0.47787271725E+02  0.20000003104E+02 0.  0.
        -12    1    1    2    0    0 -0.22024986909E+01 -0.30435900702E+02  0.30861434879E+02  0.43400728275E+02  0.00000000000E+00 0.  1.
         11    1    3    3    0    0  0.24643399982E+01  0.10951775552E+02 -0.15849269859E+02  0.19421990492E+02  0.51100000000E-03 0. -1.
        -11    1    3    3    0    0 -0.41693887858E+01  0.19269863930E+02 -0.10313597103E+02  0.22250432450E+02  0.51100000000E-03 0.  1.
        -12    1    3    3    0    0  0.39075474786E+01  0.21426121954E+00 -0.46985679173E+01  0.61148487832E+01  0.00000000000E+00 0.  1.
</event>
<event>
 7    1  0.2685294E-009  0.4778728E+02  0.7816164E-02  0.1312668E+00
        -11   -1    0    0    0    0  0.00000000000E+00  0.00000000000E+00  0.45593999997E+02  0.45594000000E+02  0.51100000000E-03 0.  1.
         11   -1    0    0    0    0 -0.00000000000E+00 -0.00000000000E+00 -0.45593999997E+02  0.45594000000E+02  0.51100000000E-03 0. -1.
    9900012    2    1    2    0    0  0.23495582618E+02  0.30521013793E+02 -0.20001196319E+02  0.47787279502E+02  0.20000038561E+02 0.  0.
        -12    1    1    2    0    0 -0.23495582618E+02 -0.30521013793E+02  0.20001196319E+02  0.43400720498E+02  0.00000000000E+00 0.  1.
         11    1    3    3    0    0 -0.17556371287E+00 -0.81797308542E+00  0.14436441473E+01  0.16685356667E+01  0.51100000000E-03 0.  1.
        -11    1    3    3    0    0  0.20896950398E+02  0.20423665943E+02 -0.12702996631E+02  0.31861807704E+02  0.51100000000E-03 0. -1.
        -12    1    3    3    0    0  0.27741959328E+01  0.10915320936E+02 -0.87418438358E+01  0.14256936131E+02  0.00000000000E+00 0.  1.
</event>
<event>
 7    1  0.2685294E-009  0.4778727E+02  0.7816164E-02  0.1312668E+00
        -11   -1    0    0    0    0  0.00000000000E+00  0.00000000000E+00  0.45593999997E+02  0.45594000000E+02  0.51100000000E-03 0.  1.
         11   -1    0    0    0    0 -0.00000000000E+00 -0.00000000000E+00 -0.45593999997E+02  0.45594000000E+02  0.51100000000E-03 0. -1.
    9900012    2    1    2    0    0  0.32744661303E+01  0.16961295496E+02 -0.39814766598E+02  0.47787270599E+02  0.19999997968E+02 0.  0.
        -12    1    1    2    0    0 -0.32744661303E+01 -0.16961295496E+02  0.39814766598E+02  0.43400729401E+02  0.00000000000E+00 0.  1.
         11    1    3    3    0    0 -0.61786604217E+01  0.18409544543E+01 -0.10005085204E+02  0.11902381615E+02  0.51100000000E-03 0. -1.
        -11    1    3    3    0    0  0.85602658795E+01  0.94470357933E+01 -0.13383167411E+02  0.18483338644E+02  0.51100000000E-03 0.  1.
         12    1    3    3    0    0  0.89286067253E+00  0.56733052482E+01 -0.16426513983E+02  0.17401550340E+02  0.00000000000E+00 0. -1.
</event>
<event>
 7    1  0.2685294E-009  0.4778727E+02  0.7816164E-02  0.1312668E+00
        -11   -1    0    0    0    0  0.00000000000E+00  0.00000000000E+00  0.45593999997E+02  0.45594000000E+02  0.51100000000E-03 0.  1.
         11   -1    0    0    0    0 -0.00000000000E+00 -0.00000000000E+00 -0.45593999997E+02  0.45594000000E+02  0.51100000000E-03 0. -1.
    9900012    2    1    2    0    0  0.37716043463E+02  0.21472877976E+02  0.19686492576E+00  0.47787272138E+02  0.20000004988E+02 0.  0.
        -12    1    1    2    0    0 -0.37716043463E+02 -0.21472877976E+02 -0.19686492576E+00  0.43400727862E+02  0.00000000000E+00 0.  1.
         11    1    3    3    0    0  0.33824809705E+02  0.10504382155E+02  0.46303063311E+00  0.35421380460E+02  0.51100000000E-03 0. -1.
        -11    1    3    3    0    0  0.88238942422E+00  0.82373801939E+01 -0.46472467883E+00  0.82975305268E+01  0.51100000000E-03 0.  1.
        -12    1    3    3    0    0  0.30088443338E+01  0.27311156278E+01  0.19855897147E+00  0.40683611519E+01  0.00000000000E+00 0.  1.
</event>
<event>
 7    1  0.2685294E-009  0.4778727E+02  0.7816164E-02  0.1312668E+00
        -11   -1    0    0    0    0  0.00000000000E+00  0.00000000000E+00  0.45593999997E+02  0.45594000000E+02  0.51100000000E-03 0. -1.
         11   -1    0    0    0    0 -0.00000000000E+00 -0.00000000000E+00 -0.45593999997E+02  0.45594000000E+02  0.51100000000E-03 0.  1.
    9900012    2    1    2    0    0  0.99491971318E+01 -0.41598140765E+02 -0.73642026108E+01  0.47787270527E+02  0.19999997642E+02 0.  0.
        -12    1    1    2    0    0 -0.99491971318E+01  0.41598140765E+02  0.73642026108E+01  0.43400729473E+02  0.00000000000E+00 0.  1.
         11    1    3    3    0    0  0.41310836539E+01 -0.85272491969E+00 -0.36847970211E+01  0.56009571764E+01  0.51100000000E-03 0. -1.
        -11    1    3    3    0    0  0.11607188713E+01 -0.30878334496E+02 -0.45819915938E+01  0.31238013010E+02  0.51100000000E-03 0.  1.
         12    1    3    3    0    0  0.46573946065E+01 -0.98670813489E+01  0.90258600407E+00  0.10948300341E+02  0.00000000000E+00 0. -1.
</event>
<event>
 7    1  0.2685294E-009  0.4778727E+02  0.7816164E-02  0.1312668E+00
        -11   -1    0    0    0    0  0.00000000000E+00  0.00000000000E+00  0.45593999997E+02  0.45594000000E+02  0.51100000000E-03 0.  1.
         11   -1    0    0    0    0 -0.00000000000E+00 -0.00000000000E+00 -0.45593999997E+02  0.45594000000E+02  0.51100000000E-03 0. -1.
    9900012    2    1    2    0    0  0.50425184008E+01 -0.22192234220E+02 -0.36955395334E+02  0.47787268488E+02  0.19999988343E+02 0.  0.
        -12    1    1    2    0    0 -0.50425184008E+01  0.22192234220E+02  0.36955395334E+02  0.43400731512E+02  0.00000000000E+00 0.  1.
         11    1    3    3    0    0  0.25983399011E+00 -0.81438276836E+01 -0.19870258620E+02  0.21475954482E+02  0.51100000000E-03 0. -1.
        -11    1    3    3    0    0  0.59126348663E+01 -0.15496348767E+02 -0.10870316718E+02  0.19830780670E+02  0.51100000000E-03 0.  1.
        -12    1    3    3    0    0 -0.11299504556E+01  0.14479422299E+01 -0.62148199962E+01  0.64805333359E+01  0.00000000000E+00 0.  1.
</event>
<event>
 7    1  0.3421356E-009  0.4778727E+02  0.7816164E-02  0.1312668E+00
        -11   -1    0    0    0    0  0.00000000000E+00  0.00000000000E+00  0.45593999997E+02  0.45594000000E+02  0.51100000000E-03 0.  1.
         11   -1    0    0    0    0 -0.00000000000E+00 -0.00000000000E+00 -0.45593999997E+02  0.45594000000E+02  0.51100000000E-03 0. -1.
    9900012    2    1    2    0    0 -0.28468567568E+02  0.32319737021E+02  0.53477694682E+01  0.47787269836E+02  0.19999994488E+02 0.  0.
        -12    1    1    2    0    0  0.28468567568E+02 -0.32319737021E+02 -0.53477694682E+01  0.43400730164E+02  0.00000000000E+00 0.  1.
         11    1    3    3    0    0 -0.10293674399E+02  0.11457546197E+02  0.35181116434E+01  0.15799120459E+02  0.51100000000E-03 0. -1.
        -11    1    3    3    0    0 -0.86594445473E+01  0.20473623603E+02 -0.29102771621E+00  0.22231507837E+02  0.51100000000E-03 0.  1.
        -12    1    3    3    0    0 -0.95154486216E+01  0.38856722100E+00  0.21206855410E+01  0.97566415390E+01  0.00000000000E+00 0.  1.
</event>
<event>
 7    1  0.2685294E-009  0.4778727E+02  0.7816164E-02  0.1312668E+00
        -11   -1    0    0    0    0  0.00000000000E+00  0.00000000000E+00  0.45593999997E+02  0.45594000000E+02  0.51100000000E-03 0.  1.
         11   -1    0    0    0    0 -0.00000000000E+00 -0.00000000000E+00 -0.45593999997E+02  0.45594000000E+02  0.51100000000E-03 0. -1.
    9900012    2    1    2    0    0  0.17973791840E+00 -0.42512851635E+02 -0.87320495872E+01  0.47787267865E+02  0.19999985505E+02 0.  0.
        -12    1    1    2    0    0 -0.17973791840E+00  0.42512851635E+02  0.87320495872E+01  0.43400732135E+02  0.00000000000E+00 0.  1.
         11    1    3    3    0    0 -0.37388272059E+01 -0.14201000247E+01 -0.31711009290E+00  0.40119910304E+01  0.51100000000E-03 0. -1.
        -11    1    3    3    0    0 -0.18872821321E+01 -0.13319690829E+02  0.18975580218E+01  0.13585901675E+02  0.51100000000E-03 0.  1.
         12    1    3    3    0    0  0.58058472564E+01 -0.27773060781E+02 -0.10312497516E+02  0.30189375160E+02  0.00000000000E+00 0. -1.
</event>
<event>
 7    1  0.2685294E-009  0.4778727E+02  0.7816164E-02  0.1312668E+00
        -11   -1    0    0    0    0  0.00000000000E+00  0.00000000000E+00  0.45593999997E+02  0.45594000000E+02  0.51100000000E-03 0.  1.
         11   -1    0    0    0    0 -0.00000000000E+00 -0.00000000000E+00 -0.45593999997E+02  0.45594000000E+02  0.51100000000E-03 0. -1.
    9900012    2    1    2    0    0  0.32410519398E+00 -0.37216554573E+02 -0.22325913312E+02  0.47787269779E+02  0.19999994232E+02 0.  0.
        -12    1    1    2    0    0 -0.32410519398E+00  0.37216554573E+02  0.22325913312E+02  0.43400730221E+02  0.00000000000E+00 0.  1.
         11    1    3    3    0    0  0.34726446445E+01 -0.30966068865E+02 -0.86611461193E+01  0.32341492454E+02  0.51100000000E-03 0. -1.
        -11    1    3    3    0    0 -0.28828313945E+01 -0.48556411837E+01 -0.95703464606E+01  0.11112132999E+02  0.51100000000E-03 0.  1.
         12    1    3    3    0    0 -0.26570805609E+00 -0.13948445246E+01 -0.40944207317E+01  0.43336443263E+01  0.00000000000E+00 0. -1.
</event>
<event>
 7    1  0.2685294E-009  0.4778727E+02  0.7816164E-02  0.1312668E+00
        -11   -1    0    0    0    0  0.00000000000E+00  0.00000000000E+00  0.45593999997E+02  0.45594000000E+02  0.51100000000E-03 0. -1.
         11   -1    0    0    0    0 -0.00000000000E+00 -0.00000000000E+00 -0.45593999997E+02  0.45594000000E+02  0.51100000000E-03 0.  1.
    9900012    2    1    2    0    0 -0.42429608936E+02  0.20454590947E+01 -0.88976147220E+01  0.47787272298E+02  0.20000005714E+02 0.  0.
        -12    1    1    2    0    0  0.42429608936E+02 -0.20454590947E+01  0.88976147220E+01  0.43400727702E+02  0.00000000000E+00 0.  1.
         11    1    3    3    0    0 -0.13322933889E+02  0.83420105807E+01 -0.61492856640E+01  0.16879082391E+02  0.51100000000E-03 0. -1.
        -11    1    3    3    0    0 -0.27967404783E+02 -0.70213053859E+01 -0.39450712618E+01  0.29103918072E+02  0.51100000000E-03 0.  1.
        -12    1    3    3    0    0 -0.11392702640E+01  0.72475389998E+00  0.11967422037E+01  0.18042718343E+01  0.00000000000E+00 0.  1.
</event>
<event>
 7    1  0.2685294E-009  0.4778727E+02  0.7816164E-02  0.1312668E+00
        -11   -1    0    0    0    0  0.00000000000E+00  0.00000000000E+00  0.45593999997E+02  0.45594000000E+02  0.51100000000E-03 0. -1.
         11   -1    0    0    0    0 -0.00000000000E+00 -0.00000000000E+00 -0.45593999997E+02  0.45594000000E+02  0.51100000000E-03 0.  1.
    9900012    2    1    2    0    0 -0.32959090036E+02  0.12827933905E+02  0.25154833944E+02  0.47787272183E+02  0.20000005190E+02 0.  0.
        -12    1    1    2    0    0  0.32959090036E+02 -0.12827933905E+02 -0.25154833944E+02  0.43400727817E+02  0.00000000000E+00 0.  1.
         11    1    3    3    0    0 -0.20575939540E+02  0.14104759735E+02  0.91963674529E+01  0.26587341156E+02  0.51100000000E-03 0. -1.
        -11    1    3    3    0    0 -0.11479366353E+01 -0.18336517534E+01  0.52102396411E+01  0.56415099619E+01  0.51100000000E-03 0.  1.
         12    1    3    3    0    0 -0.11235213861E+02  0.55682592349E+00  0.10748226850E+02  0.15558421065E+02  0.00000000000E+00 0. -1.
</event>
<event>
 7    1  0.2685294E-009  0.4778727E+02  0.7816164E-02  0.1312668E+00
        -11   -1    0    0    0    0  0.00000000000E+00  0.00000000000E+00  0.45593999997E+02  0.45594000000E+02  0.51100000000E-03 0. -1.
         11   -1    0    0    0    0 -0.00000000000E+00 -0.00000000000E+00 -0.45593999997E+02  0.45594000000E+02  0.51100000000E-03 0.  1.
    9900012    2    1    2    0    0 -0.23089827382E+02 -0.46447524766E+01  0.36454205301E+02  0.47787274912E+02  0.20000017632E+02 0.  0.
        -12    1    1    2    0    0  0.23089827382E+02  0.46447524766E+01 -0.36454205301E+02  0.43400725088E+02  0.00000000000E+00 0.  1.
         11    1    3    3    0    0 -0.24039176457E+02 -0.49553546929E+01  0.31933131881E+02  0.40276077972E+02  0.51100000000E-03 0. -1.
        -11    1    3    3    0    0  0.18003871478E+01 -0.99639948249E+00 -0.61168424316E+00  0.21467099676E+01  0.51100000000E-03 0.  1.
        -12    1    3    3    0    0 -0.85103807255E+00  0.13070016988E+01  0.51327576631E+01  0.53644869717E+01  0.00000000000E+00 0.  1.
</event>
<event>
 7    1  0.2685294E-009  0.4778727E+02  0.7816164E-02  0.1312668E+00
        -11   -1    0    0    0    0  0.00000000000E+00  0.00000000000E+00  0.45593999997E+02  0.45594000000E+02  0.51100000000E-03 0.  1.
         11   -1    0    0    0    0 -0.00000000000E+00 -0.00000000000E+00 -0.45593999997E+02  0.45594000000E+02  0.51100000000E-03 0. -1.
    9900012    2    1    2    0    0  0.19806611340E+02  0.37739015946E+02 -0.81907313614E+01  0.47787271232E+02  0.20000000855E+02 0.  0.
        -12    1    1    2    0    0 -0.19806611340E+02 -0.37739015946E+02  0.81907313614E+01  0.43400728768E+02  0.00000000000E+00 0.  1.
         11    1    3    3    0    0  0.46302660323E+01  0.26005578232E+02 -0.85552735262E+01  0.27765485195E+02  0.51100000000E-03 0. -1.
        -11    1    3    3    0    0  0.89396853948E+01  0.10059940302E+02  0.11962571661E+01  0.13511158548E+02  0.51100000000E-03 0.  1.
         12    1    3    3    0    0  0.62366599132E+01  0.16734974117E+01 -0.83171500128E+00  0.65106274892E+01  0.00000000000E+00 0. -1.
</event>
<event>
 7    1  0.2685294E-009  0.4778727E+02  0.7816164E-02  0.1312668E+00
        -11   -1    0    0    0    0  0.00000000000E+00  0.00000000000E+00  0.45593999997E+02  0.45594000000E+02  0.51100000000E-03 0. -1.
         11   -1    0    0    0    0 -0.00000000000E+00 -0.00000000000E+00 -0.45593999997E+02  0.45594000000E+02  0.51100000000E-03 0.  1.
    9900012    2    1    2    0    0  0.30888071941E+02  0.78501118243E+00  0.30478414899E+02  0.47787274136E+02  0.20000014096E+02 0.  0.
        -12    1    1    2    0    0 -0.30888071941E+02 -0.78501118243E+00 -0.30478414899E+02  0.43400725864E+02  0.00000000000E+00 0.  1.
         11    1    3    3    0    0  0.21116302106E+02 -0.46595324365E+01  0.21187477505E+02  0.30274059200E+02  0.51100000000E-03 0. -1.
        -11    1    3    3    0    0  0.59391213895E+01  0.21235792275E+01 -0.66276553645E+00  0.63420824681E+01  0.51100000000E-03 0.  1.
         12    1    3    3    0    0  0.38326484447E+01  0.33209643915E+01  0.99537029303E+01  0.11171132468E+02  0.00000000000E+00 0. -1.
</event>
<event>
 7    1  0.2685294E-009  0.4778727E+02  0.7816164E-02  0.1312668E+00
        -11   -1    0    0    0    0  0.00000000000E+00  0.00000000000E+00  0.45593999997E+02  0.45594000000E+02  0.51100000000E-03 0.  1.
         11   -1    0    0    0    0 -0.00000000000E+00 -0.00000000000E+00 -0.45593999997E+02  0.45594000000E+02  0.51100000000E-03 0. -1.
    9900012    2    1    2    0    0 -0.41459552105E+01  0.19350922649E+02 -0.38626107728E+02  0.47787270165E+02  0.19999995989E+02 0.  0.
        -12    1    1    2    0    0  0.41459552105E+01 -0.19350922649E+02  0.38626107728E+02  0.43400729835E+02  0.00000000000E+00 0.  1.
         11    1    3    3    0    0 -0.47312183299E+01  0.13371305922E+02 -0.18937220920E+02  0.23659978558E+02  0.51100000000E-03 0. -1.
        -11    1    3    3    0    0  0.53997561403E+01  0.21520908507E+01 -0.15837145805E+02  0.16870211881E+02  0.51100000000E-03 0.  1.
        -12    1    3    3    0    0 -0.48144930209E+01  0.38275258767E+01 -0.38517410034E+01  0.72570797255E+01  0.00000000000E+00 0.  1.
</event>
<event>
 7    1  0.2685294E-009  0.4778728E+02  0.7816164E-02  0.1312668E+00
        -11   -1    0    0    0    0  0.00000000000E+00  0.00000000000E+00  0.45593999997E+02  0.45594000000E+02  0.51100000000E-03 0. -1.
         11   -1    0    0    0    0 -0.00000000000E+00 -0.00000000000E+00 -0.45593999997E+02  0.45594000000E+02  0.51100000000E-03 0.  1.
    9900012    2    1    2    0    0 -0.62932717657E+01 -0.42706286176E+02  0.44934115293E+01  0.47787275402E+02  0.20000019867E+02 0.  0.
        -12    1    1    2    0    0  0.62932717657E+01  0.42706286176E+02 -0.44934115293E+01  0.43400724598E+02  0.00000000000E+00 0.  1.
         11    1    3    3    0    0 -0.68602577045E+01 -0.62300618589E+01 -0.12569917758E+01  0.93518359226E+01  0.51100000000E-03 0. -1.
        -11    1    3    3    0    0 -0.88145302759E+00 -0.11567851615E+02 -0.30206860669E+01  0.11988189813E+02  0.51100000000E-03 0.  1.
         12    1    3    3    0    0  0.14484389664E+01 -0.24908372702E+02  0.87710893719E+01  0.26447249666E+02  0.00000000000E+00 0. -1.
</event>
<event>
 7    1  0.2685294E-009  0.4778727E+02  0.7816164E-02  0.1312668E+00
        -11   -1    0    0    0    0  0.00000000000E+00  0.00000000000E+00  0.45593999997E+02  0.45594000000E+02  0.51100000000E-03 0.  1.
         11   -1    0    0    0    0 -0.00000000000E+00 -0.00000000000E+00 -0.45593999997E+02  0.45594000000E+02  0.51100000000E-03 0. -1.
    9900012    2    1    2    0    0  0.35559028440E+02  0.45546988855E+01 -0.24462907595E+02  0.47787266901E+02  0.19999981106E+02 0.  0.
        -12    1    1    2    0    0 -0.35559028440E+02 -0.45546988855E+01  0.24462907595E+02  0.43400733099E+02  0.00000000000E+00 0.  1.
         11    1    3    3    0    0 -0.57574944205E+00 -0.97630392651E+00 -0.36546609186E+01  0.38263825564E+01  0.51100000000E-03 0. -1.
        -11    1    3    3    0    0  0.24505413241E+02  0.10865735405E+00 -0.78688027349E+01  0.25738009660E+02  0.51100000000E-03 0.  1.
        -12    1    3    3    0    0  0.11629364642E+02  0.54223454579E+01 -0.12939443942E+02  0.18222874684E+02  0.00000000000E+00 0.  1.
</event>
<event>
 7    1  0.2685294E-009  0.4778729E+02  0.7816164E-02  0.1312668E+00
        -11   -1    0    0    0    0  0.00000000000E+00  0.00000000000E+00  0.45593999997E+02  0.45594000000E+02  0.51100000000E-03 0.  1.
         11   -1    0    0    0    0 -0.00000000000E+00 -0.00000000000E+00 -0.45593999997E+02  0.45594000000E+02  0.51100000000E-03 0. -1.
    9900012    2    1    2    0    0 -0.12173732515E+00 -0.21139481532E+02 -0.37904213734E+02  0.47787286663E+02  0.20000071211E+02 0.  0.
        -12    1    1    2    0    0  0.12173732515E+00  0.21139481532E+02  0.37904213734E+02  0.43400713337E+02  0.00000000000E+00 0.  1.
         11    1    3    3    0    0 -0.12906197303E+00 -0.28899920196E+01 -0.13974287370E+02  0.14270578777E+02  0.51100000000E-03 0. -1.
        -11    1    3    3    0    0 -0.19142761643E+01 -0.16272409632E+02 -0.97392036634E+01  0.19060636314E+02  0.51100000000E-03 0.  1.
        -12    1    3    3    0    0  0.19216008122E+01 -0.19770798803E+01 -0.14190722700E+02  0.14456071571E+02  0.00000000000E+00 0.  1.
</event>
<event>
 7    1  0.2685294E-009  0.4778726E+02  0.7816164E-02  0.1312668E+00
        -11   -1    0    0    0    0  0.00000000000E+00  0.00000000000E+00  0.45593999997E+02  0.45594000000E+02  0.51100000000E-03 0. -1.
         11   -1    0    0    0    0 -0.00000000000E+00 -0.00000000000E+00 -0.45593999997E+02  0.45594000000E+02  0.51100000000E-03 0.  1.
    9900012    2    1    2    0    0 -0.70444730762E+01 -0.23898851580E+01  0.42758483794E+02  0.47787261661E+02  0.19999957218E+02 0.  0.
        -12    1    1    2    0    0  0.70444730762E+01  0.23898851580E+01 -0.42758483794E+02  0.43400738339E+02  0.00000000000E+00 0.  1.
         11    1    3    3    0    0 -0.77736185133E+00 -0.53713635622E+01  0.49141000623E+01  0.73214901249E+01  0.51100000000E-03 0. -1.
        -11    1    3    3    0    0 -0.62734807383E+01  0.36582400349E+01  0.38699633109E+02  0.39375130270E+02  0.51100000000E-03 0.  1.
        -12    1    3    3    0    0  0.63695134442E-02 -0.67676163072E+00 -0.85524937711E+00  0.10906412667E+01  0.00000000000E+00 0.  1.
</event>
<event>
 7    1  0.4263310E-009  0.4778727E+02  0.7816164E-02  0.1312668E+00
        -11   -1    0    0    0    0  0.00000000000E+00  0.00000000000E+00  0.45593999997E+02  0.45594000000E+02  0.51100000000E-03 0. -1.
         11   -1    0    0    0    0 -0.00000000000E+00 -0.00000000000E+00 -0.45593999997E+02  0.45594000000E+02  0.51100000000E-03 0.  1.
    9900012    2    1    2    0    0  0.21278599410E+02  0.27703447718E+02  0.25755843179E+02  0.47787271134E+02  0.20000000407E+02 0.  0.
        -12    1    1    2    0    0 -0.21278599410E+02 -0.27703447718E+02 -0.25755843179E+02  0.43400728866E+02  0.00000000000E+00 0.  1.
         11    1    3    3    0    0  0.84689854176E+01  0.54746318691E+01  0.66069282637E+01  0.12055986457E+02  0.51100000000E-03 0. -1.
        -11    1    3    3    0    0  0.88419507324E+01  0.15352999115E+02  0.21104694335E+02  0.27555449512E+02  0.51100000000E-03 0.  1.
        -12    1    3    3    0    0  0.39676632598E+01  0.68758167335E+01 -0.19557794203E+01  0.81758351645E+01  0.00000000000E+00 0.  1.
</event>
<event>
 7    1  0.2685294E-009  0.4778727E+02  0.7816164E-02  0.1312668E+00
        -11   -1    0    0    0    0  0.00000000000E+00  0.00000000000E+00  0.45593999997E+02  0.45594000000E+02  0.51100000000E-03 0. -1.
         11   -1    0    0    0    0 -0.00000000000E+00 -0.00000000000E+00 -0.45593999997E+02  0.45594000000E+02  0.51100000000E-03 0.  1.
    9900012    2    1    2    0    0  0.42311518340E+02  0.46107182712E+01  0.84911569830E+01  0.47787273576E+02  0.20000011543E+02 0.  0.
        -12    1    1    2    0    0 -0.42311518340E+02 -0.46107182712E+01 -0.84911569830E+01  0.43400726424E+02  0.00000000000E+00 0.  1.
         11    1    3    3    0    0  0.24182883900E+02 -0.36076099783E+01  0.12499054366E+01  0.24482422007E+02  0.51100000000E-03 0. -1.
        -11    1    3    3    0    0  0.19256840358E+01  0.51236307682E+01  0.54116002742E+00  0.55002459664E+01  0.51100000000E-03 0.  1.
         12    1    3    3    0    0  0.16202950405E+02  0.30946974813E+01  0.67000915190E+01  0.17804605603E+02  0.00000000000E+00 0. -1.
</event>
<event>
 7    1  0.2685294E-009  0.4778727E+02  0.7816164E-02  0.1312668E+00
        -11   -1    0    0    0    0  0.00000000000E+00  0.00000000000E+00  0.45593999997E+02  0.45594000000E+02  0.51100000000E-03 0. -1.
         11   -1    0    0    0    0 -0.00000000000E+00 -0.00000000000E+00 -0.45593999997E+02  0.45594000000E+02  0.51100000000E-03 0.  1.
    9900012    2    1    2    0    0 -0.19388408980E+02 -0.18573659390E+02  0.34098855565E+02  0.47787272164E+02  0.20000005103E+02 0.  0.
        -12    1    1    2    0    0  0.19388408980E+02  0.18573659390E+02 -0.34098855565E+02  0.43400727836E+02  0.00000000000E+00 0.  1.
         11    1    3    3    0    0 -0.10541028743E+02 -0.49252254286E+01  0.27776990744E+02  0.30115317490E+02  0.51100000000E-03 0. -1.
        -11    1    3    3    0    0 -0.67592394201E+01 -0.11284589098E+02  0.39781876765E+01  0.13742461428E+02  0.51100000000E-03 0.  1.
         12    1    3    3    0    0 -0.20881408168E+01 -0.23638448631E+01  0.23436771441E+01  0.39294932451E+01  0.00000000000E+00 0. -1.
</event>
<event>
 7    1  0.2685294E-009  0.4778726E+02  0.7816164E-02  0.1312668E+00
        -11   -1    0    0    0    0  0.00000000000E+00  0.00000000000E+00  0.45593999997E+02  0.45594000000E+02  0.51100000000E-03 0.  1.
         11   -1    0    0    0    0 -0.00000000000E+00 -0.00000000000E+00 -0.45593999997E+02  0.45594000000E+02  0.51100000000E-03 0. -1.
    9900012    2    1    2    0    0 -0.20695605297E+02 -0.36994903071E+02 -0.93109073860E+01  0.47787263506E+02  0.19999965629E+02 0.  0.
        -12    1    1    2    0    0  0.20695605297E+02  0.36994903071E+02  0.93109073860E+01  0.43400736494E+02  0.00000000000E+00 0.  1.
         11    1    3    3    0    0 -0.17263837742E+02 -0.29747562517E+02 -0.21524280815E+01  0.34461435202E+02  0.51100000000E-03 0. -1.
        -11    1    3    3    0    0 -0.56971079252E+00  0.14515539746E+01 -0.27522514826E+01  0.31633001459E+01  0.51100000000E-03 0.  1.
         12    1    3    3    0    0 -0.28620567624E+01 -0.86988945289E+01 -0.44062278219E+01  0.10162528158E+02  0.00000000000E+00 0. -1.
</event>
<event>
 7    1  0.2685294E-009  0.4778727E+02  0.7816164E-02  0.1312668E+00
        -11   -1    0    0    0    0  0.00000000000E+00  0.00000000000E+00  0.45593999997E+02  0.45594000000E+02  0.51100000000E-03 0.  1.
         11   -1    0    0    0    0 -0.00000000000E+00 -0.00000000000E+00 -0.45593999997E+02  0.45594000000E+02  0.51100000000E-03 0. -1.
    9900012    2    1    2    0    0 -0.19787375604E+02 -0.11073184682E+02 -0.37006318134E+02  0.47787271503E+02  0.20000002089E+02 0.  0.
        -12    1    1    2    0    0  0.19787375604E+02  0.11073184682E+02  0.37006318134E+02  0.43400728497E+02  0.00000000000E+00 0.  1.
         11    1    3    3    0    0 -0.13561461487E+02  0.92183097597E+00 -0.21755279625E+02  0.25652586650E+02  0.51100000000E-03 0. -1.
        -11    1    3    3    0    0  0.99150211010E+00 -0.61128300435E+01 -0.89826001443E+01  0.10910402064E+02  0.51100000000E-03 0.  1.
         12    1    3    3    0    0 -0.72174162271E+01 -0.58821856145E+01 -0.62684383644E+01  0.11224282789E+02  0.00000000000E+00 0. -1.
</event>
<event>
 7    1  0.2685294E-009  0.4778728E+02  0.7816164E-02  0.1312668E+00
        -11   -1    0    0    0    0  0.00000000000E+00  0.00000000000E+00  0.45593999997E+02  0.45594000000E+02  0.51100000000E-03 0.  1.
         11   -1    0    0    0    0 -0.00000000000E+00 -0.00000000000E+00 -0.45593999997E+02  0.45594000000E+02  0.51100000000E-03 0. -1.
    9900012    2    1    2    0    0 -0.38885318269E+02 -0.19021910072E+02  0.31179440640E+01  0.47787278636E+02  0.20000034615E+02 0.  0.
        -12    1    1    2    0    0  0.38885318269E+02  0.19021910072E+02 -0.31179440640E+01  0.43400721364E+02  0.00000000000E+00 0.  1.
         11    1    3    3    0    0 -0.35453144424E+01 -0.66716531743E+01 -0.11252990503E+01  0.76384886455E+01  0.51100000000E-03 0. -1.
        -11    1    3    3    0    0 -0.18104887513E+02  0.55036668030E+00  0.43152879435E+01  0.18620192417E+02  0.51100000000E-03 0.  1.
        -12    1    3    3    0    0 -0.17235116314E+02 -0.12900623578E+02 -0.72044829182E-01  0.21528597574E+02  0.00000000000E+00 0.  1.
</event>
<event>
 7    1  0.2685294E-009  0.4778727E+02  0.7816164E-02  0.1312668E+00
        -11   -1    0    0    0    0  0.00000000000E+00  0.00000000000E+00  0.45593999997E+02  0.45594000000E+02  0.51100000000E-03 0. -1.
         11   -1    0    0    0    0 -0.00000000000E+00 -0.00000000000E+00 -0.45593999997E+02  0.45594000000E+02  0.51100000000E-03 0.  1.
    9900012    2    1    2    0    0 -0.39896786928E+02  0.10482518943E+02  0.13490228139E+02  0.47787273441E+02  0.20000010928E+02 0.  0.
        -12    1    1    2    0    0  0.39896786928E+02 -0.10482518943E+02 -0.13490228139E+02  0.43400726559E+02  0.00000000000E+00 0.  1.
         11    1    3    3    0    0 -0.11596718121E+02 -0.36181565481E+01  0.11096882501E+01  0.12198620260E+02  0.51100000000E-03 0. -1.
        -11    1    3    3    0    0 -0.45566534924E+01  0.69751281928E+01  0.50300592073E+01  0.97322659358E+01  0.51100000000E-03 0.  1.
        -12    1    3    3    0    0 -0.23743415315E+02  0.71255472986E+01  0.73504806818E+01  0.25856387245E+02  0.00000000000E+00 0.  1.
</event>
<event>
 7    1  0.2685294E-009  0.4778727E+02  0.7816164E-02  0.1312668E+00
        -11   -1    0    0    0    0  0.00000000000E+00  0.00000000000E+00  0.45593999997E+02  0.45594000000E+02  0.51100000000E-03 0.  1.
         11   -1    0    0    0    0 -0.00000000000E+00 -0.00000000000E+00 -0.45593999997E+02  0.45594000000E+02  0.51100000000E-03 0. -1.
    9900012    2    1    2    0    0 -0.18561967814E+02 -0.20729489308E+01 -0.39176262984E+02  0.47787270193E+02  0.19999996117E+02 0.  0.
        -12    1    1    2    0    0  0.18561967814E+02  0.20729489308E+01  0.39176262984E+02  0.43400729807E+02  0.00000000000E+00 0.  1.
         11    1    3    3    0    0 -0.49927343465E+01 -0.59661174948E+01 -0.23128055285E+02  0.24401411757E+02  0.51100000000E-03 0. -1.
        -11    1    3    3    0    0 -0.10571293204E+02  0.44860734321E+01 -0.16693918225E+02  0.20262378952E+02  0.51100000000E-03 0.  1.
         12    1    3    3    0    0 -0.29979402630E+01 -0.59290486814E+00  0.64571052524E+00  0.31234794838E+01  0.00000000000E+00 0. -1.
</event>
<event>
 7    1  0.2685294E-009  0.4778732E+02  0.7816164E-02  0.1312668E+00
        -11   -1    0    0    0    0  0.00000000000E+00  0.00000000000E+00  0.45593999997E+02  0.45594000000E+02  0.51100000000E-03 0.  1.
         11   -1    0    0    0    0 -0.00000000000E+00 -0.00000000000E+00 -0.45593999997E+02  0.45594000000E+02  0.51100000000E-03 0. -1.
    9900012    2    1    2    0    0 -0.42748822526E+02 -0.49754289398E+01  0.56037918571E+01  0.47787317936E+02  0.20000213795E+02 0.  0.
        -12    1    1    2    0    0  0.42748822526E+02  0.49754289398E+01 -0.56037918571E+01  0.43400682064E+02  0.00000000000E+00 0.  1.
         11    1    3    3    0    0 -0.34635914789E+02 -0.43023079295E+01  0.15761836627E+00  0.34902453934E+02  0.51100000000E-03 0. -1.
        -11    1    3    3    0    0  0.13625825341E+01 -0.16285654317E+01  0.64289890762E+00  0.22185977089E+01  0.51100000000E-03 0.  1.
         12    1    3    3    0    0 -0.94754902708E+01  0.95544442134E+00  0.48032745832E+01  0.10666266293E+02  0.00000000000E+00 0. -1.
</event>
<event>
 7    1  0.2685294E-009  0.4778727E+02  0.7816164E-02  0.1312668E+00
        -11   -1    0    0    0    0  0.00000000000E+00  0.00000000000E+00  0.45593999997E+02  0.45594000000E+02  0.51100000000E-03 0. -1.
         11   -1    0    0    0    0 -0.00000000000E+00 -0.00000000000E+00 -0.45593999997E+02  0.45594000000E+02  0.51100000000E-03 0.  1.
    9900012    2    1    2    0    0  0.37877700881E+02 -0.10511183202E+01  0.21161238223E+02  0.47787273314E+02  0.20000010346E+02 0.  0.
        -12    1    1    2    0    0 -0.37877700881E+02  0.10511183202E+01 -0.21161238223E+02  0.43400726686E+02  0.00000000000E+00 0.  1.
         11    1    3    3    0    0  0.20480138360E+02 -0.93426324350E+01  0.89224938218E+01  0.24214288020E+02  0.51100000000E-03 0. -1.
        -11    1    3    3    0    0  0.10859471713E+02  0.34049167410E+01  0.98946029079E+01  0.15080608438E+02  0.51100000000E-03 0.  1.
        -12    1    3    3    0    0  0.65380908082E+01  0.48865973738E+01  0.23441414935E+01  0.84923768552E+01  0.00000000000E+00 0.  1.
</event>
<event>
 7    1  0.2685294E-009  0.4778725E+02  0.7816164E-02  0.1312668E+00
        -11   -1    0    0    0    0  0.00000000000E+00  0.00000000000E+00  0.45593999997E+02  0.45594000000E+02  0.51100000000E-03 0.  1.
         11   -1    0    0    0    0 -0.00000000000E+00 -0.00000000000E+00 -0.45593999997E+02  0.45594000000E+02  0.51100000000E-03 0. -1.
    9900012    2    1    2    0    0  0.29010960823E+01  0.10248147810E+02 -0.42073554609E+02  0.47787252432E+02  0.19999915138E+02 0.  0.
        -12    1    1    2    0    0 -0.29010960823E+01 -0.10248147810E+02  0.42073554609E+02  0.43400747568E+02  0.00000000000E+00 0.  1.
         11    1    3    3    0    0  0.78934493626E+01  0.88396927424E+00 -0.12900548362E+02  0.15149656525E+02  0.51100000000E-03 0. -1.
        -11    1    3    3    0    0 -0.35651845983E+01  0.23132432471E+01 -0.22254635498E+02  0.22656796705E+02  0.51100000000E-03 0.  1.
         12    1    3    3    0    0 -0.14271686820E+01  0.70509352883E+01 -0.69183707496E+01  0.99807992023E+01  0.00000000000E+00 0. -1.
</event>
<event>
 7    1  0.2685294E-009  0.4778727E+02  0.7816164E-02  0.1312668E+00
        -11   -1    0    0    0    0  0.00000000000E+00  0.00000000000E+00  0.45593999997E+02  0.45594000000E+02  0.51100000000E-03 0.  1.
         11   -1    0    0    0    0 -0.00000000000E+00 -0.00000000000E+00 -0.45593999997E+02  0.45594000000E+02  0.51100000000E-03 0. -1.
    9900012    2    1    2    0    0 -0.30679359340E+01  0.19128848245E+02 -0.38836815961E+02  0.47787270282E+02  0.19999996525E+02 0.  0.
        -12    1    1    2    0    0  0.30679359340E+01 -0.19128848245E+02  0.38836815961E+02  0.43400729718E+02  0.00000000000E+00 0.  1.
         11    1    3    3    0    0 -0.10251252141E+00  0.97089508951E+01 -0.25446546228E+02  0.27236023048E+02  0.51100000000E-03 0. -1.
        -11    1    3    3    0    0  0.31814713922E+01  0.47200578551E+01 -0.76481543665E+00  0.57433134416E+01  0.51100000000E-03 0.  1.
        -12    1    3    3    0    0 -0.61468948047E+01  0.46998394948E+01 -0.12625454296E+02  0.14807933793E+02  0.00000000000E+00 0.  1.
</event>
<event>
 7    1  0.2685294E-009  0.4778727E+02  0.7816164E-02  0.1312668E+00
        -11   -1    0    0    0    0  0.00000000000E+00  0.00000000000E+00  0.45593999997E+02  0.45594000000E+02  0.51100000000E-03 0.  1.
         11   -1    0    0    0    0 -0.00000000000E+00 -0.00000000000E+00 -0.45593999997E+02  0.45594000000E+02  0.51100000000E-03 0. -1.
    9900012    2    1    2    0    0 -0.36349091933E+01  0.29636938917E+02 -0.31497026347E+02  0.47787269800E+02  0.19999994327E+02 0.  0.
        -12    1    1    2    0    0  0.36349091933E+01 -0.29636938917E+02  0.31497026347E+02  0.43400730200E+02  0.00000000000E+00 0.  1.
         11    1    3    3    0    0  0.47235160218E+01  0.10801300794E+02 -0.98052360870E+01  0.15333700057E+02  0.51100000000E-03 0. -1.
        -11    1    3    3    0    0 -0.65602809496E+01  0.22216979602E+01 -0.95503337866E+01  0.11797546510E+02  0.51100000000E-03 0.  1.
        -12    1    3    3    0    0 -0.17981442656E+01  0.16613940162E+02 -0.12141456473E+02  0.20656023233E+02  0.00000000000E+00 0.  1.
</event>
<event>
 7    1  0.2685294E-009  0.4778727E+02  0.7816164E-02  0.1312668E+00
        -11   -1    0    0    0    0  0.00000000000E+00  0.00000000000E+00  0.45593999997E+02  0.45594000000E+02  0.51100000000E-03 0.  1.
         11   -1    0    0    0    0 -0.00000000000E+00 -0.00000000000E+00 -0.45593999997E+02  0.45594000000E+02  0.51100000000E-03 0. -1.
    9900012    2    1    2    0    0  0.26360147341E+02  0.13761069981E+02 -0.31613268959E+02  0.47787272021E+02  0.20000004451E+02 0.  0.
        -12    1    1    2    0    0 -0.26360147341E+02 -0.13761069981E+02  0.31613268959E+02  0.43400727979E+02  0.00000000000E+00 0.  1.
         11    1    3    3    0    0  0.77303426711E+01  0.60298158735E+01 -0.58055665284E+01  0.11393922953E+02  0.51100000000E-03 0.  1.
        -11    1    3    3    0    0  0.10727470960E+02 -0.46431871756E+00 -0.34061728750E+01  0.11264823078E+02  0.51100000000E-03 0. -1.
        -12    1    3    3    0    0  0.79023337106E+01  0.81955728251E+01 -0.22401529555E+02  0.25128525990E+02  0.00000000000E+00 0.  1.
</event>
<event>
 7    1  0.2685294E-009  0.4778726E+02  0.7816164E-02  0.1312668E+00
        -11   -1    0    0    0    0  0.00000000000E+00  0.00000000000E+00  0.45593999997E+02  0.45594000000E+02  0.51100000000E-03 0.  1.
         11   -1    0    0    0    0 -0.00000000000E+00 -0.00000000000E+00 -0.45593999997E+02  0.45594000000E+02  0.51100000000E-03 0. -1.
    9900012    2    1    2    0    0  0.35395712323E+02 -0.10967666665E+02 -0.22593768345E+02  0.47787256562E+02  0.19999933968E+02 0.  0.
        -12    1    1    2    0    0 -0.35395712323E+02  0.10967666665E+02  0.22593768345E+02  0.43400743438E+02  0.00000000000E+00 0.  1.
         11    1    3    3    0    0  0.24368166826E+02 -0.88109920522E+01 -0.17060368962E+02  0.31024141000E+02  0.51100000000E-03 0. -1.
        -11    1    3    3    0    0  0.93183140200E+01 -0.44060736316E+01  0.26737714735E+00  0.10310962701E+02  0.51100000000E-03 0.  1.
         12    1    3    3    0    0  0.17092314773E+01  0.22493990184E+01 -0.58007765303E+01  0.64521528610E+01  0.00000000000E+00 0. -1.
</event>
<event>
 7    1  0.2685294E-009  0.4778727E+02  0.7816164E-02  0.1312668E+00
        -11   -1    0    0    0    0  0.00000000000E+00  0.00000000000E+00  0.45593999997E+02  0.45594000000E+02  0.51100000000E-03 0.  1.
         11   -1    0    0    0    0 -0.00000000000E+00 -0.00000000000E+00 -0.45593999997E+02  0.45594000000E+02  0.51100000000E-03 0. -1.
    9900012    2    1    2    0    0 -0.16472562427E+01  0.27295790511E+01 -0.43283473944E+02  0.47787272223E+02  0.20000005373E+02 0.  0.
        -12    1    1    2    0    0  0.16472562427E+01 -0.27295790511E+01  0.43283473944E+02  0.43400727777E+02  0.00000000000E+00 0.  1.
         11    1    3    3    0    0 -0.20999640523E+01  0.17158955371E+01 -0.24334285309E+02  0.24484925736E+02  0.51100000000E-03 0. -1.
        -11    1    3    3    0    0 -0.43726715361E+01  0.62652185006E+00 -0.76280103232E+00  0.44827058422E+01  0.51100000000E-03 0.  1.
        -12    1    3    3    0    0  0.48253793458E+01  0.38716166397E+00 -0.18186387602E+02  0.18819640645E+02  0.00000000000E+00 0.  1.
</event>
<event>
 7    1  0.2685294E-009  0.4778727E+02  0.7816164E-02  0.1312668E+00
        -11   -1    0    0    0    0  0.00000000000E+00  0.00000000000E+00  0.45593999997E+02  0.45594000000E+02  0.51100000000E-03 0.  1.
         11   -1    0    0    0    0 -0.00000000000E+00 -0.00000000000E+00 -0.45593999997E+02  0.45594000000E+02  0.51100000000E-03 0. -1.
    9900012    2    1    2    0    0  0.51385995085E+01  0.14664274810E+02 -0.40523784649E+02  0.47787270941E+02  0.19999999528E+02 0.  0.
        -12    1    1    2    0    0 -0.51385995085E+01 -0.14664274810E+02  0.40523784649E+02  0.43400729059E+02  0.00000000000E+00 0.  1.
         11    1    3    3    0    0 -0.29905059283E+01  0.86869731299E+01 -0.63113923988E+01  0.11146313388E+02  0.51100000000E-03 0. -1.
        -11    1    3    3    0    0  0.60021701090E+01 -0.70913191543E+00 -0.14139947708E+02  0.15377484694E+02  0.51100000000E-03 0.  1.
         12    1    3    3    0    0  0.21269353278E+01  0.66864335955E+01 -0.20072444542E+02  0.21263472859E+02  0.00000000000E+00 0. -1.
</event>
<event>
 7    1  0.2685294E-009  0.4778721E+02  0.7816164E-02  0.1312668E+00
        -11   -1    0    0    0    0  0.00000000000E+00  0.00000000000E+00  0.45593999997E+02  0.45594000000E+02  0.51100000000E-03 0. -1.
         11   -1    0    0    0    0 -0.00000000000E+00 -0.00000000000E+00 -0.45593999997E+02  0.45594000000E+02  0.51100000000E-03 0.  1.
    9900012    2    1    2    0    0 -0.40717185486E+02 -0.97639982456E+01 -0.11419434033E+02  0.47787212804E+02  0.19999734456E+02 0.  0.
        -12    1    1    2    0    0  0.40717185486E+02  0.97639982456E+01  0.11419434033E+02  0.43400787196E+02  0.00000000000E+00 0.  1.
         11    1    3    3    0    0 -0.31332445783E+02 -0.51020817388E+01 -0.51583340057E+00  0.31749322531E+02  0.51100000000E-03 0. -1.
        -11    1    3    3    0    0 -0.26881185296E+01 -0.37681654594E+01 -0.64767180275E+01  0.79607115779E+01  0.51100000000E-03 0.  1.
         12    1    3    3    0    0 -0.66966211732E+01 -0.89375104745E+00 -0.44268826054E+01  0.80771786952E+01  0.00000000000E+00 0. -1.
</event>
<event>
 7    1  0.2685294E-009  0.4778727E+02  0.7816164E-02  0.1312668E+00
        -11   -1    0    0    0    0  0.00000000000E+00  0.00000000000E+00  0.45593999997E+02  0.45594000000E+02  0.51100000000E-03 0. -1.
         11   -1    0    0    0    0 -0.00000000000E+00 -0.00000000000E+00 -0.45593999997E+02  0.45594000000E+02  0.51100000000E-03 0.  1.
    9900012    2    1    2    0    0 -0.16034800177E+02 -0.34985302450E+02  0.20063324112E+02  0.47787272141E+02  0.20000005001E+02 0.  0.
        -12    1    1    2    0    0  0.16034800177E+02  0.34985302450E+02 -0.20063324112E+02  0.43400727859E+02  0.00000000000E+00 0.  1.
         11    1    3    3    0    0  0.35555398174E+01 -0.84171147619E+01  0.39776922787E+01  0.99655266009E+01  0.51100000000E-03 0. -1.
        -11    1    3    3    0    0 -0.82088021721E+01 -0.11192297060E+02  0.19072848211E+01  0.14010341974E+02  0.51100000000E-03 0.  1.
         12    1    3    3    0    0 -0.11381537822E+02 -0.15375890628E+02  0.14178347012E+02  0.23811403566E+02  0.00000000000E+00 0. -1.
</event>
<event>
 7    1  0.2685294E-009  0.4778727E+02  0.7816164E-02  0.1312668E+00
        -11   -1    0    0    0    0  0.00000000000E+00  0.00000000000E+00  0.45593999997E+02  0.45594000000E+02  0.51100000000E-03 0.  1.
         11   -1    0    0    0    0 -0.00000000000E+00 -0.00000000000E+00 -0.45593999997E+02  0.45594000000E+02  0.51100000000E-03 0. -1.
    9900012    2    1    2    0    0 -0.26445213886E+02 -0.33936951688E+02  0.57058948647E+01  0.47787271164E+02  0.20000000543E+02 0.  0.
        -12    1    1    2    0    0  0.26445213886E+02  0.33936951688E+02 -0.57058948647E+01  0.43400728836E+02  0.00000000000E+00 0.  1.
         11    1    3    3    0    0 -0.16019348685E+02 -0.32047076790E+02  0.13246211990E+01  0.35852326071E+02  0.51100000000E-03 0. -1.
        -11    1    3    3    0    0 -0.59190994166E+01 -0.18206100008E+01  0.40833255780E+01  0.74178101024E+01  0.51100000000E-03 0.  1.
         12    1    3    3    0    0 -0.45067657841E+01 -0.69264896548E-01  0.29794808775E+00  0.45171349905E+01  0.00000000000E+00 0. -1.
</event>
<event>
 7    1  0.2685294E-009  0.4778727E+02  0.7816164E-02  0.1312668E+00
        -11   -1    0    0    0    0  0.00000000000E+00  0.00000000000E+00  0.45593999997E+02  0.45594000000E+02  0.51100000000E-03 0.  1.
         11   -1    0    0    0    0 -0.00000000000E+00 -0.00000000000E+00 -0.45593999997E+02  0.45594000000E+02  0.51100000000E-03 0. -1.
    9900012    2    1    2    0    0  0.18292070830E+01 -0.42090264803E+02 -0.10425297914E+02  0.47787271592E+02  0.20000002495E+02 0.  0.
        -12    1    1    2    0    0 -0.18292070830E+01  0.42090264803E+02  0.10425297914E+02  0.43400728408E+02  0.00000000000E+00 0.  1.
         11    1    3    3    0    0 -0.33787287417E+01 -0.22606329342E+02 -0.35282242249E+01  0.23128127911E+02  0.51100000000E-03 0. -1.
        -11    1    3    3    0    0  0.71051032142E+01 -0.14071698511E+02 -0.94524022973E+01  0.18380508701E+02  0.51100000000E-03 0.  1.
         12    1    3    3    0    0 -0.18971673894E+01 -0.54122369507E+01  0.25553286077E+01  0.62786349797E+01  0.00000000000E+00 0. -1.
</event>
<event>
 7    1  0.2685294E-009  0.4778727E+02  0.7816164E-02  0.1312668E+00
        -11   -1    0    0    0    0  0.00000000000E+00  0.00000000000E+00  0.45593999997E+02  0.45594000000E+02  0.51100000000E-03 0.  1.
         11   -1    0    0    0    0 -0.00000000000E+00 -0.00000000000E+00 -0.45593999997E+02  0.45594000000E+02  0.51100000000E-03 0. -1.
    9900012    2    1    2    0    0  0.15007430292E+02  0.16678687389E+02 -0.37151335105E+02  0.47787271007E+02  0.19999999832E+02 0.  0.
        -12    1    1    2    0    0 -0.15007430292E+02 -0.16678687389E+02  0.37151335105E+02  0.43400728993E+02  0.00000000000E+00 0.  1.
         11    1    3    3    0    0  0.14291140657E+02  0.51154976705E+01 -0.25324381775E+02  0.29525062747E+02  0.51100000000E-03 0. -1.
        -11    1    3    3    0    0  0.13638805817E+01 -0.93898129384E-01 -0.39461509079E+01  0.41762536260E+01  0.51100000000E-03 0.  1.
         12    1    3    3    0    0 -0.64759094671E+00  0.11657087848E+02 -0.78808024221E+01  0.14085954634E+02  0.00000000000E+00 0. -1.
</event>
<event>
 7    1  0.2685294E-009  0.4778727E+02  0.7816164E-02  0.1312668E+00
        -11   -1    0    0    0    0  0.00000000000E+00  0.00000000000E+00  0.45593999997E+02  0.45594000000E+02  0.51100000000E-03 0.  1.
         11   -1    0    0    0    0 -0.00000000000E+00 -0.00000000000E+00 -0.45593999997E+02  0.45594000000E+02  0.51100000000E-03 0. -1.
    9900012    2    1    2    0    0  0.25988088658E+02 -0.34726143904E+02 -0.15288521049E+01  0.47787271766E+02  0.20000003289E+02 0.  0.
        -12    1    1    2    0    0 -0.25988088658E+02  0.34726143904E+02  0.15288521049E+01  0.43400728234E+02  0.00000000000E+00 0.  1.
         11    1    3    3    0    0  0.18995197198E+02 -0.32487346903E+02  0.48772819909E+01  0.37947768120E+02  0.51100000000E-03 0. -1.
        -11    1    3    3    0    0  0.95518618161E+00  0.38829581684E-01 -0.44496159788E+00  0.10544569515E+01  0.51100000000E-03 0.  1.
         12    1    3    3    0    0  0.60377052781E+01 -0.22776265820E+01 -0.59611724979E+01  0.87850466943E+01  0.00000000000E+00 0. -1.
</event>
<event>
 7    1  0.2685294E-009  0.4778728E+02  0.7816164E-02  0.1312668E+00
        -11   -1    0    0    0    0  0.00000000000E+00  0.00000000000E+00  0.45593999997E+02  0.45594000000E+02  0.51100000000E-03 0.  1.
         11   -1    0    0    0    0 -0.00000000000E+00 -0.00000000000E+00 -0.45593999997E+02  0.45594000000E+02  0.51100000000E-03 0. -1.
    9900012    2    1    2    0    0  0.13497268015E-02 -0.18110432065E+02 -0.39441540059E+02  0.47787276116E+02  0.20000023124E+02 0.  0.
        -12    1    1    2    0    0 -0.13497268015E-02  0.18110432065E+02  0.39441540059E+02  0.43400723884E+02  0.00000000000E+00 0.  1.
         11    1    3    3    0    0 -0.71732387892E+01 -0.40455467954E+01 -0.11648567998E+02  0.14265726069E+02  0.51100000000E-03 0. -1.
        -11    1    3    3    0    0  0.33240633411E+01 -0.78323490979E+01 -0.56891993480E+01  0.10235334824E+02  0.51100000000E-03 0.  1.
         12    1    3    3    0    0  0.38505251749E+01 -0.62325361720E+01 -0.22103772713E+02  0.23286215223E+02  0.00000000000E+00 0. -1.
</event>
<event>
 7    1  0.2685294E-009  0.4778727E+02  0.7816164E-02  0.1312668E+00
        -11   -1    0    0    0    0  0.00000000000E+00  0.00000000000E+00  0.45593999997E+02  0.45594000000E+02  0.51100000000E-03 0.  1.
         11   -1    0    0    0    0 -0.00000000000E+00 -0.00000000000E+00 -0.45593999997E+02  0.45594000000E+02  0.51100000000E-03 0. -1.
    9900012    2    1    2    0    0 -0.35374167612E+01 -0.26066909838E+02 -0.34519939207E+02  0.47787270644E+02  0.19999998173E+02 0.  0.
        -12    1    1    2    0    0  0.35374167612E+01  0.26066909838E+02  0.34519939207E+02  0.43400729356E+02  0.00000000000E+00 0.  1.
         11    1    3    3    0    0 -0.61279444058E+01 -0.20971044829E+02 -0.21572755022E+02  0.30703748686E+02  0.51100000000E-03 0. -1.
        -11    1    3    3    0    0  0.43073825913E+01 -0.33850068491E+01 -0.19384755165E+01  0.58111533920E+01  0.51100000000E-03 0.  1.
         12    1    3    3    0    0 -0.17168549467E+01 -0.17108581597E+01 -0.11008708668E+02  0.11272368566E+02  0.00000000000E+00 0. -1.
</event>
<event>
 7    1  0.2685294E-009  0.4778727E+02  0.7816164E-02  0.1312668E+00
        -11   -1    0    0    0    0  0.00000000000E+00  0.00000000000E+00  0.45593999997E+02  0.45594000000E+02  0.51100000000E-03 0.  1.
         11   -1    0    0    0    0 -0.00000000000E+00 -0.00000000000E+00 -0.45593999997E+02  0.45594000000E+02  0.51100000000E-03 0. -1.
    9900012    2    1    2    0    0 -0.10117075714E+02  0.20320929894E+02 -0.36990914624E+02  0.47787272155E+02  0.20000005063E+02 0.  0.
        -12    1    1    2    0    0  0.10117075714E+02 -0.20320929894E+02  0.36990914624E+02  0.43400727845E+02  0.00000000000E+00 0.  1.
         11    1    3    3    0    0 -0.85837609591E+00  0.17871174534E+02 -0.26809767786E+02  0.32231651179E+02  0.51100000000E-03 0. -1.
        -11    1    3    3    0    0 -0.83171305436E+01  0.24563279743E+01 -0.44494405334E+01  0.97470882276E+01  0.51100000000E-03 0.  1.
        -12    1    3    3    0    0 -0.94156907500E+00 -0.65726144190E-02 -0.57317063048E+01  0.58085327482E+01  0.00000000000E+00 0.  1.
</event>
<event>
 7    1  0.2685294E-009  0.4778726E+02  0.7816164E-02  0.1312668E+00
        -11   -1    0    0    0    0  0.00000000000E+00  0.00000000000E+00  0.45593999997E+02  0.45594000000E+02  0.51100000000E-03 0. -1.
         11   -1    0    0    0    0 -0.00000000000E+00 -0.00000000000E+00 -0.45593999997E+02  0.45594000000E+02  0.51100000000E-03 0.  1.
    9900012    2    1    2    0    0  0.11913239592E+01  0.43189624471E+02 -0.41062090379E+01  0.47787264207E+02  0.19999968825E+02 0.  0.
        -12    1    1    2    0    0 -0.11913239592E+01 -0.43189624471E+02  0.41062090379E+01  0.43400735793E+02  0.00000000000E+00 0.  1.
         11    1    3    3    0    0 -0.31525026274E+01  0.14290895604E+01 -0.26061003995E+01  0.43327046219E+01  0.51100000000E-03 0.  1.
        -11    1    3    3    0    0  0.33989581517E+01  0.35228996342E+02 -0.53797902355E+01  0.35799123495E+02  0.51100000000E-03 0. -1.
        -12    1    3    3    0    0  0.94486843484E+00  0.65315385682E+01  0.38796815971E+01  0.76554360896E+01  0.00000000000E+00 0.  1.
</event>
<event>
 7    1  0.2685294E-009  0.4778727E+02  0.7816164E-02  0.1312668E+00
        -11   -1    0    0    0    0  0.00000000000E+00  0.00000000000E+00  0.45593999997E+02  0.45594000000E+02  0.51100000000E-03 0.  1.
         11   -1    0    0    0    0 -0.00000000000E+00 -0.00000000000E+00 -0.45593999997E+02  0.45594000000E+02  0.51100000000E-03 0. -1.
    9900012    2    1    2    0    0  0.41903104390E+01  0.16629266538E+01 -0.43165956119E+02  0.47787265049E+02  0.19999972663E+02 0.  0.
        -12    1    1    2    0    0 -0.41903104390E+01 -0.16629266538E+01  0.43165956119E+02  0.43400734951E+02  0.00000000000E+00 0.  1.
         11    1    3    3    0    0 -0.95714777318E+00 -0.25035620558E+01 -0.60952720450E+01  0.66585506223E+01  0.51100000000E-03 0. -1.
        -11    1    3    3    0    0  0.32827251107E+01 -0.60410388280E+01 -0.99822019569E+01  0.12120841161E+02  0.51100000000E-03 0.  1.
        -12    1    3    3    0    0  0.18647331015E+01  0.10207527538E+02 -0.27088482117E+02  0.29007873266E+02  0.00000000000E+00 0.  1.
</event>
<event>
 7    1  0.2685294E-009  0.4778727E+02  0.7816164E-02  0.1312668E+00
        -11   -1    0    0    0    0  0.00000000000E+00  0.00000000000E+00  0.45593999997E+02  0.45594000000E+02  0.51100000000E-03 0.  1.
         11   -1    0    0    0    0 -0.00000000000E+00 -0.00000000000E+00 -0.45593999997E+02  0.45594000000E+02  0.51100000000E-03 0. -1.
    9900012    2    1    2    0    0 -0.17947054421E+02  0.14040005311E+02 -0.36937847501E+02  0.47787273168E+02  0.20000009684E+02 0.  0.
        -12    1    1    2    0    0  0.17947054421E+02 -0.14040005311E+02  0.36937847501E+02  0.43400726832E+02  0.00000000000E+00 0.  1.
         11    1    3    3    0    0 -0.72789970094E+01  0.41879561709E+01 -0.39660774062E+01  0.92872248064E+01  0.51100000000E-03 0. -1.
        -11    1    3    3    0    0 -0.69652445826E+01  0.12822682310E+02 -0.28294750311E+02  0.31835965654E+02  0.51100000000E-03 0.  1.
        -12    1    3    3    0    0 -0.37028128289E+01 -0.29706331699E+01 -0.46770197838E+01  0.66640827076E+01  0.00000000000E+00 0.  1.
</event>
<event>
 7    1  0.2685294E-009  0.4778727E+02  0.7816164E-02  0.1312668E+00
        -11   -1    0    0    0    0  0.00000000000E+00  0.00000000000E+00  0.45593999997E+02  0.45594000000E+02  0.51100000000E-03 0.  1.
         11   -1    0    0    0    0 -0.00000000000E+00 -0.00000000000E+00 -0.45593999997E+02  0.45594000000E+02  0.51100000000E-03 0. -1.
    9900012    2    1    2    0    0 -0.15323463341E+02 -0.36365663187E+02 -0.18065246719E+02  0.47787272739E+02  0.20000007725E+02 0.  0.
        -12    1    1    2    0    0  0.15323463341E+02  0.36365663187E+02  0.18065246719E+02  0.43400727261E+02  0.00000000000E+00 0.  1.
         11    1    3    3    0    0 -0.18261383938E+00 -0.16246988667E+02 -0.68950013145E+01  0.17650468321E+02  0.51100000000E-03 0. -1.
        -11    1    3    3    0    0 -0.14300120475E+02 -0.12667994539E+02 -0.12050573812E+02  0.22587338504E+02  0.51100000000E-03 0.  1.
        -12    1    3    3    0    0 -0.84072902631E+00 -0.74506799807E+01  0.88032840765E+00  0.75494659133E+01  0.00000000000E+00 0.  1.
</event>
<event>
 7    1  0.2685294E-009  0.4778727E+02  0.7816164E-02  0.1312668E+00
        -11   -1    0    0    0    0  0.00000000000E+00  0.00000000000E+00  0.45593999997E+02  0.45594000000E+02  0.51100000000E-03 0. -1.
         11   -1    0    0    0    0 -0.00000000000E+00 -0.00000000000E+00 -0.45593999997E+02  0.45594000000E+02  0.51100000000E-03 0.  1.
    9900012    2    1    2    0    0  0.72398544921E+01 -0.39739311908E+02  0.15874345975E+02  0.47787271157E+02  0.20000000513E+02 0.  0.
        -12    1    1    2    0    0 -0.72398544921E+01  0.39739311908E+02 -0.15874345975E+02  0.43400728843E+02  0.00000000000E+00 0.  1.
         11    1    3    3    0    0 -0.64950656415E+00 -0.15247934581E+02  0.13444053792E+02  0.20338730304E+02  0.51100000000E-03 0. -1.
        -11    1    3    3    0    0  0.68626667617E+01 -0.16198001834E+02 -0.24649051729E+01  0.17763648732E+02  0.51100000000E-03 0.  1.
        -12    1    3    3    0    0  0.10266942946E+01 -0.82933754926E+01  0.48951973562E+01  0.96848921208E+01  0.00000000000E+00 0.  1.
</event>
<event>
 7    1  0.2685294E-009  0.4778727E+02  0.7816164E-02  0.1312668E+00
        -11   -1    0    0    0    0  0.00000000000E+00  0.00000000000E+00  0.45593999997E+02  0.45594000000E+02  0.51100000000E-03 0.  1.
         11   -1    0    0    0    0 -0.00000000000E+00 -0.00000000000E+00 -0.45593999997E+02  0.45594000000E+02  0.51100000000E-03 0. -1.
    9900012    2    1    2    0    0 -0.16080151083E+02  0.26801708876E+02 -0.30111796359E+02  0.47787272615E+02  0.20000007163E+02 0.  0.
        -12    1    1    2    0    0  0.16080151083E+02 -0.26801708876E+02  0.30111796359E+02  0.43400727385E+02  0.00000000000E+00 0.  1.
         11    1    3    3    0    0 -0.10894556035E+01  0.12115809130E+01 -0.15714428696E+01  0.22636861033E+01  0.51100000000E-03 0. -1.
        -11    1    3    3    0    0  0.17382967684E+01 -0.18252180201E+01  0.55951474117E-01  0.25211559461E+01  0.51100000000E-03 0.  1.
        -12    1    3    3    0    0 -0.16728992248E+02  0.27415345983E+02 -0.28596304964E+02  0.43002430566E+02  0.00000000000E+00 0.  1.
</event>
<event>
 7    1  0.2685294E-009  0.4778726E+02  0.7816164E-02  0.1312668E+00
        -11   -1    0    0    0    0  0.00000000000E+00  0.00000000000E+00  0.45593999997E+02  0.45594000000E+02  0.51100000000E-03 0.  1.
         11   -1    0    0    0    0 -0.00000000000E+00 -0.00000000000E+00 -0.45593999997E+02  0.45594000000E+02  0.51100000000E-03 0. -1.
    9900012    2    1    2    0    0 -0.78616352799E+01  0.39805340904E+02 -0.15406288415E+02  0.47787260415E+02  0.19999951538E+02 0.  0.
        -12    1    1    2    0    0  0.78616352799E+01 -0.39805340904E+02  0.15406288415E+02  0.43400739585E+02  0.00000000000E+00 0.  1.
         11    1    3    3    0    0 -0.14187285883E+01  0.82547683487E+01 -0.35590451596E+01  0.91005930580E+01  0.51100000000E-03 0. -1.
        -11    1    3    3    0    0  0.10785961562E+01  0.10296854203E+02 -0.12375511556E+02  0.16135112726E+02  0.51100000000E-03 0.  1.
        -12    1    3    3    0    0 -0.75215028477E+01  0.21253718352E+02  0.52826830114E+00  0.22551554631E+02  0.00000000000E+00 0.  1.
</event>
<event>
 7    1  0.2685294E-009  0.4778727E+02  0.7816164E-02  0.1312668E+00
        -11   -1    0    0    0    0  0.00000000000E+00  0.00000000000E+00  0.45593999997E+02  0.45594000000E+02  0.51100000000E-03 0.  1.
         11   -1    0    0    0    0 -0.00000000000E+00 -0.00000000000E+00 -0.45593999997E+02  0.45594000000E+02  0.51100000000E-03 0. -1.
    9900012    2    1    2    0    0  0.26540348666E+02 -0.22701815563E+02 -0.25765496183E+02  0.47787270390E+02  0.19999997015E+02 0.  0.
        -12    1    1    2    0    0 -0.26540348666E+02  0.22701815563E+02  0.25765496183E+02  0.43400729610E+02  0.00000000000E+00 0.  1.
         11    1    3    3    0    0  0.11736457780E+02 -0.20662438252E+02 -0.21061648406E+02  0.31753327850E+02  0.51100000000E-03 0. -1.
        -11    1    3    3    0    0  0.63195233670E+01  0.73483461692E+00 -0.13893466544E+01  0.65120382283E+01  0.51100000000E-03 0.  1.
         12    1    3    3    0    0  0.84843675190E+01 -0.27742119279E+01 -0.33145011228E+01  0.95219043111E+01  0.00000000000E+00 0. -1.
</event>
<event>
 7    1  0.2685294E-009  0.4778727E+02  0.7816164E-02  0.1312668E+00
        -11   -1    0    0    0    0  0.00000000000E+00  0.00000000000E+00  0.45593999997E+02  0.45594000000E+02  0.51100000000E-03 0.  1.
         11   -1    0    0    0    0 -0.00000000000E+00 -0.00000000000E+00 -0.45593999997E+02  0.45594000000E+02  0.51100000000E-03 0. -1.
    9900012    2    1    2    0    0  0.81878377853E+01  0.41170038488E+02 -0.11027726782E+02  0.47787268270E+02  0.19999987350E+02 0.  0.
        -12    1    1    2    0    0 -0.81878377853E+01 -0.41170038488E+02  0.11027726782E+02  0.43400731730E+02  0.00000000000E+00 0.  1.
         11    1    3    3    0    0  0.98963776561E+00  0.14125116731E+02 -0.11044835477E+02  0.17957914593E+02  0.51100000000E-03 0. -1.
        -11    1    3    3    0    0  0.71291734454E+01  0.96105842359E+01  0.24839368049E+01  0.12221226848E+02  0.51100000000E-03 0.  1.
         12    1    3    3    0    0  0.69026574319E-01  0.17434337521E+02 -0.24668281104E+01  0.17608126828E+02  0.00000000000E+00 0. -1.
</event>
<event>
 7    1  0.2685294E-009  0.4778727E+02  0.7816164E-02  0.1312668E+00
        -11   -1    0    0    0    0  0.00000000000E+00  0.00000000000E+00  0.45593999997E+02  0.45594000000E+02  0.51100000000E-03 0.  1.
         11   -1    0    0    0    0 -0.00000000000E+00 -0.00000000000E+00 -0.45593999997E+02  0.45594000000E+02  0.51100000000E-03 0. -1.
    9900012    2    1    2    0    0  0.30252968538E+02 -0.23828493263E+02 -0.20014599994E+02  0.47787269482E+02  0.19999992877E+02 0.  0.
        -12    1    1    2    0    0 -0.30252968538E+02  0.23828493263E+02  0.20014599994E+02  0.43400730518E+02  0.00000000000E+00 0.  1.
         11    1    3    3    0    0  0.33040581952E+01 -0.33361400785E+01 -0.21657387994E+01  0.51707887202E+01  0.51100000000E-03 0. -1.
        -11    1    3    3    0    0 -0.12467882399E+01 -0.13964030581E+00 -0.56146886827E+01  0.57531477988E+01  0.51100000000E-03 0.  1.
        -12    1    3    3    0    0  0.28195698583E+02 -0.20352712879E+02 -0.12234172512E+02  0.36863332963E+02  0.00000000000E+00 0.  1.
</event>
<event>
 7    1  0.2685294E-009  0.4778727E+02  0.7816164E-02  0.1312668E+00
        -11   -1    0    0    0    0  0.00000000000E+00  0.00000000000E+00  0.45593999997E+02  0.45594000000E+02  0.51100000000E-03 0. -1.
         11   -1    0    0    0    0 -0.00000000000E+00 -0.00000000000E+00 -0.45593999997E+02  0.45594000000E+02  0.51100000000E-03 0.  1.
    9900012    2    1    2    0    0 -0.16849182300E+02  0.39910852040E+02 -0.26176964932E+01  0.47787269710E+02  0.19999993917E+02 0.  0.
        -12    1    1    2    0    0  0.16849182300E+02 -0.39910852040E+02  0.26176964932E+01  0.43400730290E+02  0.00000000000E+00 0.  1.
         11    1    3    3    0    0 -0.21560196528E+00  0.84079872271E+01  0.48235116652E+01  0.96957206263E+01  0.51100000000E-03 0. -1.
        -11    1    3    3    0    0 -0.16960156051E+02  0.22994776937E+02 -0.76338074767E+01  0.29575017777E+02  0.51100000000E-03 0.  1.
        -12    1    3    3    0    0  0.32657571617E+00  0.85080878760E+01  0.19259931839E+00  0.85165313069E+01  0.00000000000E+00 0.  1.
</event>
<event>
 7    1  0.2685294E-009  0.4778727E+02  0.7816164E-02  0.1312668E+00
        -11   -1    0    0    0    0  0.00000000000E+00  0.00000000000E+00  0.45593999997E+02  0.45594000000E+02  0.51100000000E-03 0.  1.
         11   -1    0    0    0    0 -0.00000000000E+00 -0.00000000000E+00 -0.45593999997E+02  0.45594000000E+02  0.51100000000E-03 0. -1.
    9900012    2    1    2    0    0 -0.15295520051E+02  0.33125627080E+02 -0.23502406161E+02  0.47787271914E+02  0.20000003963E+02 0.  0.
        -12    1    1    2    0    0  0.15295520051E+02 -0.33125627080E+02  0.23502406161E+02  0.43400728086E+02  0.00000000000E+00 0.  1.
         11    1    3    3    0    0  0.34075356492E+01  0.46412376609E+01 -0.12685099224E+01  0.58958887295E+01  0.51100000000E-03 0. -1.
        -11    1    3    3    0    0 -0.10386160674E+02  0.21979521060E+02 -0.18983244847E+02  0.30843723263E+02  0.51100000000E-03 0.  1.
        -12    1    3    3    0    0 -0.83168950268E+01  0.65048683590E+01 -0.32506513920E+01  0.11047659921E+02  0.00000000000E+00 0.  1.
</event>
<event>
 7    1  0.2685294E-009  0.4778727E+02  0.7816164E-02  0.1312668E+00
        -11   -1    0    0    0    0  0.00000000000E+00  0.00000000000E+00  0.45593999997E+02  0.45594000000E+02  0.51100000000E-03 0.  1.
         11   -1    0    0    0    0 -0.00000000000E+00 -0.00000000000E+00 -0.45593999997E+02  0.45594000000E+02  0.51100000000E-03 0. -1.
    9900012    2    1    2    0    0 -0.41000160815E+01 -0.36577679693E+02 -0.22997530985E+02  0.47787271723E+02  0.20000003092E+02 0.  0.
        -12    1    1    2    0    0  0.41000160815E+01  0.36577679693E+02  0.22997530985E+02  0.43400728277E+02  0.00000000000E+00 0.  1.
         11    1    3    3    0    0 -0.20471675975E+01 -0.22495996282E+02 -0.16369783420E+02  0.27896783925E+02  0.51100000000E-03 0. -1.
        -11    1    3    3    0    0 -0.37518086723E+01  0.61891094231E+00 -0.36026681846E+00  0.38195433640E+01  0.51100000000E-03 0.  1.
        -12    1    3    3    0    0  0.16989601884E+01 -0.14700594354E+02 -0.62674807468E+01  0.16070944433E+02  0.00000000000E+00 0.  1.
</event>
<event>
 7    1  0.2685294E-009  0.4778728E+02  0.7816164E-02  0.1312668E+00
        -11   -1    0    0    0    0  0.00000000000E+00  0.00000000000E+00  0.45593999997E+02  0.45594000000E+02  0.51100000000E-03 0.  1.
         11   -1    0    0    0    0 -0.00000000000E+00 -0.00000000000E+00 -0.45593999997E+02  0.45594000000E+02  0.51100000000E-03 0. -1.
    9900012    2    1    2    0    0 -0.39968093683E+02  0.16813896206E+02 -0.18620163585E+01  0.47787277389E+02  0.20000028926E+02 0.  0.
        -12    1    1    2    0    0  0.39968093683E+02 -0.16813896206E+02  0.18620163585E+01  0.43400722611E+02  0.00000000000E+00 0.  1.
         11    1    3    3    0    0 -0.31036658793E+02  0.79259289715E+01  0.23328449059E+01  0.32117545123E+02  0.51100000000E-03 0. -1.
        -11    1    3    3    0    0 -0.61523063950E+01  0.72791205553E+01 -0.66550940483E+01  0.11624403085E+02  0.51100000000E-03 0.  1.
        -12    1    3    3    0    0 -0.27791284946E+01  0.16088466795E+01  0.24602327838E+01  0.40453291804E+01  0.00000000000E+00 0.  1.
</event>
<event>
 7    1  0.2685294E-009  0.4778727E+02  0.7816164E-02  0.1312668E+00
        -11   -1    0    0    0    0  0.00000000000E+00  0.00000000000E+00  0.45593999997E+02  0.45594000000E+02  0.51100000000E-03 0. -1.
         11   -1    0    0    0    0 -0.00000000000E+00 -0.00000000000E+00 -0.45593999997E+02  0.45594000000E+02  0.51100000000E-03 0.  1.
    9900012    2    1    2    0    0  0.70259720950E+01 -0.40893308436E+02 -0.12727781379E+02  0.47787269850E+02  0.19999994554E+02 0.  0.
        -12    1    1    2    0    0 -0.70259720950E+01  0.40893308436E+02  0.12727781379E+02  0.43400730150E+02  0.00000000000E+00 0.  1.
         11    1    3    3    0    0 -0.10929508657E+00 -0.17933844315E+02  0.13965730857E+01  0.17988472252E+02  0.51100000000E-03 0. -1.
        -11    1    3    3    0    0 -0.11449635697E+01 -0.72378392782E+01 -0.83631054064E+01  0.11119298148E+02  0.51100000000E-03 0.  1.
         12    1    3    3    0    0  0.82802307512E+01 -0.15721624843E+02 -0.57612490581E+01  0.18679499450E+02  0.00000000000E+00 0. -1.
</event>
<event>
 7    1  0.2685294E-009  0.4778728E+02  0.7816164E-02  0.1312668E+00
        -11   -1    0    0    0    0  0.00000000000E+00  0.00000000000E+00  0.45593999997E+02  0.45594000000E+02  0.51100000000E-03 0.  1.
         11   -1    0    0    0    0 -0.00000000000E+00 -0.00000000000E+00 -0.45593999997E+02  0.45594000000E+02  0.51100000000E-03 0. -1.
    9900012    2    1    2    0    0  0.14183782338E+02 -0.71899314606E+01 -0.40382516921E+02  0.47787280320E+02  0.20000042293E+02 0.  0.
        -12    1    1    2    0    0 -0.14183782338E+02  0.71899314606E+01  0.40382516921E+02  0.43400719680E+02  0.00000000000E+00 0.  1.
         11    1    3    3    0    0  0.17313146472E+02 -0.16305497889E+01 -0.24537399169E+02  0.30074701854E+02  0.51100000000E-03 0. -1.
        -11    1    3    3    0    0 -0.32414930965E+01 -0.48534833732E+01 -0.83732938176E+01  0.10206646264E+02  0.51100000000E-03 0.  1.
         12    1    3    3    0    0  0.11212896233E+00 -0.70589829849E+00 -0.74718239343E+01  0.75059322017E+01  0.00000000000E+00 0. -1.
</event>
<event>
 7    1  0.2685294E-009  0.4778727E+02  0.7816164E-02  0.1312668E+00
        -11   -1    0    0    0    0  0.00000000000E+00  0.00000000000E+00  0.45593999997E+02  0.45594000000E+02  0.51100000000E-03 0.  1.
         11   -1    0    0    0    0 -0.00000000000E+00 -0.00000000000E+00 -0.45593999997E+02  0.45594000000E+02  0.51100000000E-03 0. -1.
    9900012    2    1    2    0    0 -0.42552363714E+02 -0.43406774702E+01 -0.73537834354E+01  0.47787271096E+02  0.20000000236E+02 0.  0.
        -12    1    1    2    0    0  0.42552363714E+02  0.43406774702E+01  0.73537834354E+01  0.43400728904E+02  0.00000000000E+00 0.  1.
         11    1    3    3    0    0 -0.29423775510E+02  0.32560175693E+01 -0.76429503875E+00  0.29613246409E+02  0.51100000000E-03 0. -1.
        -11    1    3    3    0    0 -0.53327706611E+01 -0.16065944927E+01  0.11191582716E+01  0.56808541863E+01  0.51100000000E-03 0.  1.
         12    1    3    3    0    0 -0.77958175427E+01 -0.59901005468E+01 -0.77086466683E+01  0.12493170501E+02  0.00000000000E+00 0. -1.
</event>
<event>
 7    1  0.2685294E-009  0.4778727E+02  0.7816164E-02  0.1312668E+00
        -11   -1    0    0    0    0  0.00000000000E+00  0.00000000000E+00  0.45593999997E+02  0.45594000000E+02  0.51100000000E-03 0. -1.
         11   -1    0    0    0    0 -0.00000000000E+00 -0.00000000000E+00 -0.45593999997E+02  0.45594000000E+02  0.51100000000E-03 0.  1.
    9900012    2    1    2    0    0  0.41088086105E+02 -0.60005268953E+01 -0.12624813043E+02  0.47787273657E+02  0.20000011910E+02 0.  0.
        -12    1    1    2    0    0 -0.41088086105E+02  0.60005268953E+01  0.12624813043E+02  0.43400726343E+02  0.00000000000E+00 0.  1.
         11    1    3    3    0    0  0.79257689787E+01 -0.34963345760E+01  0.24015834664E+01  0.89894256089E+01  0.51100000000E-03 0. -1.
        -11    1    3    3    0    0  0.29611577679E+02 -0.59030402913E+01 -0.15349827567E+02  0.33871944496E+02  0.51100000000E-03 0.  1.
        -12    1    3    3    0    0  0.35507394467E+01  0.33988479720E+01  0.32343105771E+00  0.49259035520E+01  0.00000000000E+00 0.  1.
</event>
<event>
 7    1  0.2685294E-009  0.4778727E+02  0.7816164E-02  0.1312668E+00
        -11   -1    0    0    0    0  0.00000000000E+00  0.00000000000E+00  0.45593999997E+02  0.45594000000E+02  0.51100000000E-03 0.  1.
         11   -1    0    0    0    0 -0.00000000000E+00 -0.00000000000E+00 -0.45593999997E+02  0.45594000000E+02  0.51100000000E-03 0. -1.
    9900012    2    1    2    0    0 -0.22237024455E+02 -0.35737508693E+02 -0.10581525561E+02  0.47787268815E+02  0.19999989833E+02 0.  0.
        -12    1    1    2    0    0  0.22237024455E+02  0.35737508693E+02  0.10581525561E+02  0.43400731185E+02  0.00000000000E+00 0.  1.
         11    1    3    3    0    0 -0.52378574492E+00 -0.88347076190E+01 -0.13258890385E+01  0.89489883351E+01  0.51100000000E-03 0.  1.
        -11    1    3    3    0    0 -0.15234112138E+02 -0.23909724150E+02 -0.16353452217E+01  0.28397666028E+02  0.51100000000E-03 0. -1.
        -12    1    3    3    0    0 -0.64791265727E+01 -0.29930769240E+01 -0.76202913011E+01  0.10440614452E+02  0.00000000000E+00 0.  1.
</event>
<event>
 7    1  0.2685294E-009  0.4778727E+02  0.7816164E-02  0.1312668E+00
        -11   -1    0    0    0    0  0.00000000000E+00  0.00000000000E+00  0.45593999997E+02  0.45594000000E+02  0.51100000000E-03 0. -1.
         11   -1    0    0    0    0 -0.00000000000E+00 -0.00000000000E+00 -0.45593999997E+02  0.45594000000E+02  0.51100000000E-03 0.  1.
    9900012    2    1    2    0    0 -0.19650963573E+01  0.37994286712E+02  0.20885312338E+02  0.47787266159E+02  0.19999977727E+02 0.  0.
        -12    1    1    2    0    0  0.19650963573E+01 -0.37994286712E+02 -0.20885312338E+02  0.43400733841E+02  0.00000000000E+00 0.  1.
         11    1    3    3    0    0 -0.50724393892E+00  0.15649291138E+02  0.50906547046E+01  0.16464275724E+02  0.51100000000E-03 0. -1.
        -11    1    3    3    0    0  0.44255720713E+01  0.18935110381E+02  0.81299262113E+01  0.21076522336E+02  0.51100000000E-03 0.  1.
        -12    1    3    3    0    0 -0.58834244896E+01  0.34098851935E+01  0.76647314218E+01  0.10246468100E+02  0.00000000000E+00 0.  1.
</event>
<event>
 7    1  0.2685294E-009  0.4778727E+02  0.7816164E-02  0.1312668E+00
        -11   -1    0    0    0    0  0.00000000000E+00  0.00000000000E+00  0.45593999997E+02  0.45594000000E+02  0.51100000000E-03 0.  1.
         11   -1    0    0    0    0 -0.00000000000E+00 -0.00000000000E+00 -0.45593999997E+02  0.45594000000E+02  0.51100000000E-03 0. -1.
    9900012    2    1    2    0    0 -0.22813206369E+02 -0.36920720714E+02 -0.20397252661E+00  0.47787267199E+02  0.19999982468E+02 0.  0.
        -12    1    1    2    0    0  0.22813206369E+02  0.36920720714E+02  0.20397252661E+00  0.43400732801E+02  0.00000000000E+00 0.  1.
         11    1    3    3    0    0 -0.15753685177E+02 -0.17543148049E+02 -0.72909093003E+01  0.24679910834E+02  0.51100000000E-03 0. -1.
        -11    1    3    3    0    0 -0.15701224842E+01 -0.14563480153E+02  0.54177104750E+01  0.15617676710E+02  0.51100000000E-03 0.  1.
         12    1    3    3    0    0 -0.54893987078E+01 -0.48140925122E+01  0.16692262987E+01  0.74896796544E+01  0.00000000000E+00 0. -1.
</event>
<event>
 7    1  0.2685294E-009  0.4778727E+02  0.7816164E-02  0.1312668E+00
        -11   -1    0    0    0    0  0.00000000000E+00  0.00000000000E+00  0.45593999997E+02  0.45594000000E+02  0.51100000000E-03 0. -1.
         11   -1    0    0    0    0 -0.00000000000E+00 -0.00000000000E+00 -0.45593999997E+02  0.45594000000E+02  0.51100000000E-03 0.  1.
    9900012    2    1    2    0    0  0.26216162152E+02  0.33584679316E+02 -0.82707466271E+01  0.47787273134E+02  0.20000009527E+02 0.  0.
        -12    1    1    2    0    0 -0.26216162152E+02 -0.33584679316E+02  0.82707466271E+01  0.43400726866E+02  0.00000000000E+00 0.  1.
         11    1    3    3    0    0  0.24769875777E+00  0.72324501573E+01  0.19232749765E+01  0.74879020325E+01  0.51100000000E-03 0. -1.
        -11    1    3    3    0    0  0.17309456560E+02  0.11540017131E+02 -0.10136675296E+02  0.23141768906E+02  0.51100000000E-03 0.  1.
         12    1    3    3    0    0  0.86590068347E+01  0.14812212027E+02 -0.57346308071E-01  0.17157602196E+02  0.00000000000E+00 0. -1.
</event>
<event>
 7    1  0.2838772E-009  0.4778728E+02  0.7816164E-02  0.1312668E+00
        -11   -1    0    0    0    0  0.00000000000E+00  0.00000000000E+00  0.45593999997E+02  0.45594000000E+02  0.51100000000E-03 0.  1.
         11   -1    0    0    0    0 -0.00000000000E+00 -0.00000000000E+00 -0.45593999997E+02  0.45594000000E+02  0.51100000000E-03 0. -1.
    9900012    2    1    2    0    0  0.90051440775E+01  0.41523221151E+02 -0.88516783934E+01  0.47787277368E+02  0.20000028830E+02 0.  0.
        -12    1    1    2    0    0 -0.90051440775E+01 -0.41523221151E+02  0.88516783934E+01  0.43400722632E+02  0.00000000000E+00 0.  1.
         11    1    3    3    0    0  0.29248731982E+01  0.26043009371E+02 -0.68408677766E+01  0.27084879408E+02  0.51100000000E-03 0. -1.
        -11    1    3    3    0    0  0.28001111078E+01  0.17411979382E+01 -0.52602797670E+01  0.62082957375E+01  0.51100000000E-03 0.  1.
        -12    1    3    3    0    0  0.32801597715E+01  0.13739013842E+02  0.32494691502E+01  0.14494102222E+02  0.00000000000E+00 0.  1.
</event>
<event>
 7    1  0.2896859E-009  0.4778727E+02  0.7816164E-02  0.1312668E+00
        -11   -1    0    0    0    0  0.00000000000E+00  0.00000000000E+00  0.45593999997E+02  0.45594000000E+02  0.51100000000E-03 0. -1.
         11   -1    0    0    0    0 -0.00000000000E+00 -0.00000000000E+00 -0.45593999997E+02  0.45594000000E+02  0.51100000000E-03 0.  1.
    9900012    2    1    2    0    0 -0.84846064247E+01  0.79313661296E+01  0.41817798257E+02  0.47787269984E+02  0.19999995163E+02 0.  0.
        -12    1    1    2    0    0  0.84846064247E+01 -0.79313661296E+01 -0.41817798257E+02  0.43400730016E+02  0.00000000000E+00 0.  1.
         11    1    3    3    0    0 -0.68210131850E+01  0.54618886477E+01  0.29227720480E+02  0.30506033718E+02  0.51100000000E-03 0. -1.
        -11    1    3    3    0    0  0.34395542915E+01  0.43140558406E+01  0.30457943151E+01  0.63022594988E+01  0.51100000000E-03 0.  1.
        -12    1    3    3    0    0 -0.51031475311E+01 -0.18445783586E+01  0.95442834621E+01  0.10978976767E+02  0.00000000000E+00 0.  1.
</event>
<event>
 7    1  0.2685294E-009  0.4778727E+02  0.7816164E-02  0.1312668E+00
        -11   -1    0    0    0    0  0.00000000000E+00  0.00000000000E+00  0.45593999997E+02  0.45594000000E+02  0.51100000000E-03 0. -1.
         11   -1    0    0    0    0 -0.00000000000E+00 -0.00000000000E+00 -0.45593999997E+02  0.45594000000E+02  0.51100000000E-03 0.  1.
    9900012    2    1    2    0    0 -0.34707383551E+02  0.25546766118E+02  0.51365038183E+01  0.47787269550E+02  0.19999993188E+02 0.  0.
        -12    1    1    2    0    0  0.34707383551E+02 -0.25546766118E+02 -0.51365038183E+01  0.43400730450E+02  0.00000000000E+00 0.  1.
         11    1    3    3    0    0 -0.14681308571E+02  0.12674788009E+02 -0.42656117245E+01  0.19859167054E+02  0.51100000000E-03 0. -1.
        -11    1    3    3    0    0 -0.79498115912E+00 -0.12557385652E+01  0.27983150460E+01  0.31685078105E+01  0.51100000000E-03 0.  1.
        -12    1    3    3    0    0 -0.19231093822E+02  0.14127716675E+02  0.66038004968E+01  0.24759594686E+02  0.00000000000E+00 0.  1.
</event>
<event>
 7    1  0.2685294E-009  0.4778727E+02  0.7816164E-02  0.1312668E+00
        -11   -1    0    0    0    0  0.00000000000E+00  0.00000000000E+00  0.45593999997E+02  0.45594000000E+02  0.51100000000E-03 0. -1.
         11   -1    0    0    0    0 -0.00000000000E+00 -0.00000000000E+00 -0.45593999997E+02  0.45594000000E+02  0.51100000000E-03 0.  1.
    9900012    2    1    2    0    0 -0.29556661277E+00  0.16493608740E+02  0.40143451958E+02  0.47787271619E+02  0.20000002619E+02 0.  0.
        -12    1    1    2    0    0  0.29556661277E+00 -0.16493608740E+02 -0.40143451958E+02  0.43400728381E+02  0.00000000000E+00 0.  1.
         11    1    3    3    0    0  0.37350750498E+01  0.77405707701E+01  0.89924858025E+01  0.12439132713E+02  0.51100000000E-03 0.  1.
        -11    1    3    3    0    0 -0.78645457267E+01  0.46292738163E+01  0.10350599053E+02  0.13799136080E+02  0.51100000000E-03 0. -1.
        -12    1    3    3    0    0  0.38339040641E+01  0.41237641540E+01  0.20800367103E+02  0.21549002826E+02  0.00000000000E+00 0.  1.
</event>
<event>
 7    1  0.2685294E-009  0.4778727E+02  0.7816164E-02  0.1312668E+00
        -11   -1    0    0    0    0  0.00000000000E+00  0.00000000000E+00  0.45593999997E+02  0.45594000000E+02  0.51100000000E-03 0.  1.
         11   -1    0    0    0    0 -0.00000000000E+00 -0.00000000000E+00 -0.45593999997E+02  0.45594000000E+02  0.51100000000E-03 0. -1.
    9900012    2    1    2    0    0  0.37046965842E+02 -0.34998721425E+01 -0.22335994267E+02  0.47787269326E+02  0.19999992167E+02 0.  0.
        -12    1    1    2    0    0 -0.37046965842E+02  0.34998721425E+01  0.22335994267E+02  0.43400730674E+02  0.00000000000E+00 0.  1.
         11    1    3    3    0    0  0.32525887247E+02 -0.57518618248E+01 -0.23797410575E+02  0.40710367304E+02  0.51100000000E-03 0. -1.
        -11    1    3    3    0    0  0.47938378161E+01  0.16852460778E+00  0.12979952228E+01  0.49693131729E+01  0.51100000000E-03 0.  1.
         12    1    3    3    0    0 -0.27275922127E+00  0.20834650745E+01  0.16342108505E+00  0.21075888500E+01  0.00000000000E+00 0. -1.
</event>
<event>
 7    1  0.2685294E-009  0.4778727E+02  0.7816164E-02  0.1312668E+00
        -11   -1    0    0    0    0  0.00000000000E+00  0.00000000000E+00  0.45593999997E+02  0.45594000000E+02  0.51100000000E-03 0. -1.
         11   -1    0    0    0    0 -0.00000000000E+00 -0.00000000000E+00 -0.45593999997E+02  0.45594000000E+02  0.51100000000E-03 0.  1.
    9900012    2    1    2    0    0  0.20308463606E+02  0.36813682306E+02  0.10767644126E+02  0.47787273520E+02  0.20000011289E+02 0.  0.
        -12    1    1    2    0    0 -0.20308463606E+02 -0.36813682306E+02 -0.10767644126E+02  0.43400726480E+02  0.00000000000E+00 0.  1.
         11    1    3    3    0    0  0.12436977608E+02  0.18485275220E+02  0.10268866935E+01  0.22303325055E+02  0.51100000000E-03 0. -1.
        -11    1    3    3    0    0  0.31674556662E+00  0.12099357859E+01  0.63447852095E+01  0.64668827093E+01  0.51100000000E-03 0.  1.
        -12    1    3    3    0    0  0.75547404309E+01  0.17118471300E+02  0.33959722233E+01  0.19017065756E+02  0.00000000000E+00 0.  1.
</event>
<event>
 7    1  0.2685294E-009  0.4778727E+02  0.7816164E-02  0.1312668E+00
        -11   -1    0    0    0    0  0.00000000000E+00  0.00000000000E+00  0.45593999997E+02  0.45594000000E+02  0.51100000000E-03 0. -1.
         11   -1    0    0    0    0 -0.00000000000E+00 -0.00000000000E+00 -0.45593999997E+02  0.45594000000E+02  0.51100000000E-03 0.  1.
    9900012    2    1    2    0    0  0.36631243165E+02 -0.19419245448E+02  0.12832303880E+02  0.47787273134E+02  0.20000009528E+02 0.  0.
        -12    1    1    2    0    0 -0.36631243165E+02  0.19419245448E+02 -0.12832303880E+02  0.43400726866E+02  0.00000000000E+00 0.  1.
         11    1    3    3    0    0  0.19612604829E+02 -0.67436455390E+01  0.14504308868E+02  0.25308219995E+02  0.51100000000E-03 0. -1.
        -11    1    3    3    0    0  0.62559023468E+01 -0.58618451127E+01 -0.41135784329E+01  0.95088942618E+01  0.51100000000E-03 0.  1.
        -12    1    3    3    0    0  0.10762735989E+02 -0.68137547965E+01  0.24415734453E+01  0.12970158877E+02  0.00000000000E+00 0.  1.
</event>
<event>
 7    1  0.2685294E-009  0.4778727E+02  0.7816164E-02  0.1312668E+00
        -11   -1    0    0    0    0  0.00000000000E+00  0.00000000000E+00  0.45593999997E+02  0.45594000000E+02  0.51100000000E-03 0.  1.
         11   -1    0    0    0    0 -0.00000000000E+00 -0.00000000000E+00 -0.45593999997E+02  0.45594000000E+02  0.51100000000E-03 0. -1.
    9900012    2    1    2    0    0 -0.29592341466E+02  0.83004997735E+01 -0.30643405076E+02  0.47787271382E+02  0.20000001538E+02 0.  0.
        -12    1    1    2    0    0  0.29592341466E+02 -0.83004997735E+01  0.30643405076E+02  0.43400728618E+02  0.00000000000E+00 0.  1.
         11    1    3    3    0    0 -0.50587946271E+01  0.60442720381E+01 -0.59867212961E+01  0.98977502337E+01  0.51100000000E-03 0. -1.
        -11    1    3    3    0    0 -0.18221291544E+02 -0.40344252831E+01 -0.11249876959E+02  0.21791094161E+02  0.51100000000E-03 0.  1.
        -12    1    3    3    0    0 -0.63122552950E+01  0.62906530185E+01 -0.13406806822E+02  0.16098426987E+02  0.00000000000E+00 0.  1.
</event>
<event>
 7    1  0.2685294E-009  0.4778727E+02  0.7816164E-02  0.1312668E+00
        -11   -1    0    0    0    0  0.00000000000E+00  0.00000000000E+00  0.45593999997E+02  0.45594000000E+02  0.51100000000E-03 0.  1.
         11   -1    0    0    0    0 -0.00000000000E+00 -0.00000000000E+00 -0.45593999997E+02  0.45594000000E+02  0.51100000000E-03 0. -1.
    9900012    2    1    2    0    0 -0.39920229365E+02  0.12247155280E+02 -0.11832400108E+02  0.47787271696E+02  0.20000002971E+02 0.  0.
        -12    1    1    2    0    0  0.39920229365E+02 -0.12247155280E+02  0.11832400108E+02  0.43400728304E+02  0.00000000000E+00 0.  1.
         11    1    3    3    0    0 -0.34648064256E+02  0.16291064028E+02 -0.13760934739E+02  0.40684769251E+02  0.51100000000E-03 0. -1.
        -11    1    3    3    0    0 -0.15845724492E+01 -0.20863742690E+01  0.36888243061E+00  0.26457327805E+01  0.51100000000E-03 0.  1.
         12    1    3    3    0    0 -0.36875926598E+01 -0.19575344788E+01  0.15596521998E+01  0.44567696647E+01  0.00000000000E+00 0. -1.
</event>
<event>
 7    1  0.2685294E-009  0.4778728E+02  0.7816164E-02  0.1312668E+00
        -11   -1    0    0    0    0  0.00000000000E+00  0.00000000000E+00  0.45593999997E+02  0.45594000000E+02  0.51100000000E-03 0.  1.
         11   -1    0    0    0    0 -0.00000000000E+00 -0.00000000000E+00 -0.45593999997E+02  0.45594000000E+02  0.51100000000E-03 0. -1.
    9900012    2    1    2    0    0 -0.16401069239E+02  0.76356613849E+01 -0.39450275649E+02  0.47787278281E+02  0.20000032993E+02 0.  0.
        -12    1    1    2    0    0  0.16401069239E+02 -0.76356613849E+01  0.39450275649E+02  0.43400721719E+02  0.00000000000E+00 0.  1.
         11    1    3    3    0    0 -0.58275307303E+01  0.29788384264E+01 -0.10064162446E+02  0.12005038892E+02  0.51100000000E-03 0. -1.
        -11    1    3    3    0    0 -0.10438934067E+02  0.32289270543E-01 -0.29354753831E+02  0.31155640898E+02  0.51100000000E-03 0.  1.
        -12    1    3    3    0    0 -0.13460444092E+00  0.46245336879E+01 -0.31359372519E-01  0.46265984909E+01  0.00000000000E+00 0.  1.
</event>
<event>
 7    1  0.2685294E-009  0.4778724E+02  0.7816164E-02  0.1312668E+00
        -11   -1    0    0    0    0  0.00000000000E+00  0.00000000000E+00  0.45593999997E+02  0.45594000000E+02  0.51100000000E-03 0.  1.
         11   -1    0    0    0    0 -0.00000000000E+00 -0.00000000000E+00 -0.45593999997E+02  0.45594000000E+02  0.51100000000E-03 0. -1.
    9900012    2    1    2    0    0 -0.12010464450E+02  0.32488814518E+02 -0.26150550784E+02  0.47787243884E+02  0.19999876165E+02 0.  0.
        -12    1    1    2    0    0  0.12010464450E+02 -0.32488814518E+02  0.26150550784E+02  0.43400756116E+02  0.00000000000E+00 0.  1.
         11    1    3    3    0    0 -0.46955158346E+01  0.19825749450E+02 -0.22821208161E+02  0.30592740191E+02  0.51100000000E-03 0. -1.
        -11    1    3    3    0    0 -0.82048310234E+01  0.12618683504E+02 -0.14582067218E+01  0.15122063106E+02  0.51100000000E-03 0.  1.
         12    1    3    3    0    0  0.88988240798E+00  0.44381564518E-01 -0.18711359020E+01  0.20724405871E+01  0.00000000000E+00 0. -1.
</event>
<event>
 7    1  0.2685294E-009  0.4778727E+02  0.7816164E-02  0.1312668E+00
        -11   -1    0    0    0    0  0.00000000000E+00  0.00000000000E+00  0.45593999997E+02  0.45594000000E+02  0.51100000000E-03 0.  1.
         11   -1    0    0    0    0 -0.00000000000E+00 -0.00000000000E+00 -0.45593999997E+02  0.45594000000E+02  0.51100000000E-03 0. -1.
    9900012    2    1    2    0    0  0.32573530641E+02 -0.18985695396E+00 -0.28680179732E+02  0.47787266670E+02  0.19999980057E+02 0.  0.
        -12    1    1    2    0    0 -0.32573530641E+02  0.18985695396E+00  0.28680179732E+02  0.43400733330E+02  0.00000000000E+00 0.  1.
         11    1    3    3    0    0  0.41773978842E+01 -0.70517153772E+01 -0.78920209432E+01  0.11378107825E+02  0.51100000000E-03 0. -1.
        -11    1    3    3    0    0  0.21030367586E+02  0.35670652396E+01 -0.11983942870E+02  0.24466614032E+02  0.51100000000E-03 0.  1.
        -12    1    3    3    0    0  0.73657651707E+01  0.32947931837E+01 -0.88042159193E+01  0.11942544814E+02  0.00000000000E+00 0.  1.
</event>
<event>
 7    1  0.2685294E-009  0.4778729E+02  0.7816164E-02  0.1312668E+00
        -11   -1    0    0    0    0  0.00000000000E+00  0.00000000000E+00  0.45593999997E+02  0.45594000000E+02  0.51100000000E-03 0. -1.
         11   -1    0    0    0    0 -0.00000000000E+00 -0.00000000000E+00 -0.45593999997E+02  0.45594000000E+02  0.51100000000E-03 0.  1.
    9900012    2    1    2    0    0 -0.23303280253E+02 -0.12103858451E+02  0.34555392639E+02  0.47787292397E+02  0.20000097357E+02 0.  0.
        -12    1    1    2    0    0  0.23303280253E+02  0.12103858451E+02 -0.34555392639E+02  0.43400707603E+02  0.00000000000E+00 0.  1.
         11    1    3    3    0    0 -0.24714721008E+02 -0.12158241063E+02  0.33080076487E+02  0.43045693407E+02  0.51100000000E-03 0. -1.
        -11    1    3    3    0    0  0.29001976852E+00  0.75687366146E+00 -0.13766784147E+01  0.15975646854E+01  0.51100000000E-03 0.  1.
         12    1    3    3    0    0  0.11214209860E+01 -0.70249104951E+00  0.28519945670E+01  0.31440343052E+01  0.00000000000E+00 0. -1.
</event>
<event>
 7    1  0.2685294E-009  0.4778728E+02  0.7816164E-02  0.1312668E+00
        -11   -1    0    0    0    0  0.00000000000E+00  0.00000000000E+00  0.45593999997E+02  0.45594000000E+02  0.51100000000E-03 0. -1.
         11   -1    0    0    0    0 -0.00000000000E+00 -0.00000000000E+00 -0.45593999997E+02  0.45594000000E+02  0.51100000000E-03 0.  1.
    9900012    2    1    2    0    0 -0.72793852394E+01  0.38199551809E+02  0.19272441780E+02  0.47787283185E+02  0.20000055352E+02 0.  0.
        -12    1    1    2    0    0  0.72793852394E+01 -0.38199551809E+02 -0.19272441780E+02  0.43400716815E+02  0.00000000000E+00 0.  1.
         11    1    3    3    0    0 -0.20716936971E+01  0.89380150672E+01  0.11307124585E+02  0.14561287538E+02  0.51100000000E-03 0. -1.
        -11    1    3    3    0    0 -0.44606554105E+01  0.15358435080E+02 -0.19806643670E+01  0.16115272458E+02  0.51100000000E-03 0.  1.
        -12    1    3    3    0    0 -0.74703613183E+00  0.13903101662E+02  0.99459815626E+01  0.17110723189E+02  0.00000000000E+00 0.  1.
</event>
<event>
 7    1  0.2685294E-009  0.4778727E+02  0.7816164E-02  0.1312668E+00
        -11   -1    0    0    0    0  0.00000000000E+00  0.00000000000E+00  0.45593999997E+02  0.45594000000E+02  0.51100000000E-03 0. -1.
         11   -1    0    0    0    0 -0.00000000000E+00 -0.00000000000E+00 -0.45593999997E+02  0.45594000000E+02  0.51100000000E-03 0.  1.
    9900012    2    1    2    0    0 -0.75588109892E+01  0.35988752948E+02  0.23049883457E+02  0.47787273166E+02  0.20000009675E+02 0.  0.
        -12    1    1    2    0    0  0.75588109892E+01 -0.35988752948E+02 -0.23049883457E+02  0.43400726834E+02  0.00000000000E+00 0.  1.
         11    1    3    3    0    0 -0.29058346598E+01  0.25882517073E+01  0.25543752905E+01  0.46548636238E+01  0.51100000000E-03 0. -1.
        -11    1    3    3    0    0 -0.53197229218E+01  0.28598460644E+02  0.23528802097E+02  0.37413579507E+02  0.51100000000E-03 0.  1.
        -12    1    3    3    0    0  0.66674659236E+00  0.48020405966E+01 -0.30332939301E+01  0.57188300356E+01  0.00000000000E+00 0.  1.
</event>
<event>
 7    1  0.2685294E-009  0.4778727E+02  0.7816164E-02  0.1312668E+00
        -11   -1    0    0    0    0  0.00000000000E+00  0.00000000000E+00  0.45593999997E+02  0.45594000000E+02  0.51100000000E-03 0.  1.
         11   -1    0    0    0    0 -0.00000000000E+00 -0.00000000000E+00 -0.45593999997E+02  0.45594000000E+02  0.51100000000E-03 0. -1.
    9900012    2    1    2    0    0 -0.28620463245E+02  0.15184844499E+02 -0.28877549510E+02  0.47787270921E+02  0.19999999439E+02 0.  0.
        -12    1    1    2    0    0  0.28620463245E+02 -0.15184844499E+02  0.28877549510E+02  0.43400729079E+02  0.00000000000E+00 0.  1.
         11    1    3    3    0    0 -0.28396067418E+02  0.69889088625E+01 -0.21836670593E+02  0.36496872123E+02  0.51100000000E-03 0. -1.
        -11    1    3    3    0    0 -0.10206864163E+01  0.67469225263E+01 -0.67749508538E+01  0.96157539313E+01  0.51100000000E-03 0.  1.
         12    1    3    3    0    0  0.79629058890E+00  0.14490131106E+01 -0.26592806334E+00  0.16746448672E+01  0.00000000000E+00 0. -1.
</event>
<event>
 7    1  0.2685294E-009  0.4778727E+02  0.7816164E-02  0.1312668E+00
        -11   -1    0    0    0    0  0.00000000000E+00  0.00000000000E+00  0.45593999997E+02  0.45594000000E+02  0.51100000000E-03 0.  1.
         11   -1    0    0    0    0 -0.00000000000E+00 -0.00000000000E+00 -0.45593999997E+02  0.45594000000E+02  0.51100000000E-03 0. -1.
    9900012    2    1    2    0    0  0.12667482006E+02  0.36564350349E+02 -0.19652129426E+02  0.47787274110E+02  0.20000013978E+02 0.  0.
        -12    1    1    2    0    0 -0.12667482006E+02 -0.36564350349E+02  0.19652129426E+02  0.43400725890E+02  0.00000000000E+00 0.  1.
         11    1    3    3    0    0  0.24282535451E+01  0.25891870857E+02 -0.15099811483E+02  0.30071409991E+02  0.51100000000E-03 0. -1.
        -11    1    3    3    0    0  0.33423464943E+01  0.13132913093E+01 -0.49116343688E+01  0.60844199876E+01  0.51100000000E-03 0.  1.
         12    1    3    3    0    0  0.68968819670E+01  0.93591881824E+01  0.35931642562E+00  0.11631444132E+02  0.00000000000E+00 0. -1.
</event>
<event>
 7    1  0.2685294E-009  0.4778727E+02  0.7816164E-02  0.1312668E+00
        -11   -1    0    0    0    0  0.00000000000E+00  0.00000000000E+00  0.45593999997E+02  0.45594000000E+02  0.51100000000E-03 0.  1.
         11   -1    0    0    0    0 -0.00000000000E+00 -0.00000000000E+00 -0.45593999997E+02  0.45594000000E+02  0.51100000000E-03 0. -1.
    9900012    2    1    2    0    0 -0.71384191719E+01  0.21950371937E+02 -0.36753875508E+02  0.47787271650E+02  0.20000002763E+02 0.  0.
        -12    1    1    2    0    0  0.71384191719E+01 -0.21950371937E+02  0.36753875508E+02  0.43400728350E+02  0.00000000000E+00 0.  1.
         11    1    3    3    0    0 -0.11342439892E+01  0.10988536098E+02 -0.30507228822E+02  0.32445730777E+02  0.51100000000E-03 0. -1.
        -11    1    3    3    0    0 -0.25219460625E+01  0.22126547385E+01  0.95318319156E+00  0.34877802958E+01  0.51100000000E-03 0.  1.
         12    1    3    3    0    0 -0.34822291202E+01  0.87491811002E+01 -0.71998298777E+01  0.11853760578E+02  0.00000000000E+00 0. -1.
</event>
<event>
 7    1  0.2685294E-009  0.4778727E+02  0.7816164E-02  0.1312668E+00
        -11   -1    0    0    0    0  0.00000000000E+00  0.00000000000E+00  0.45593999997E+02  0.45594000000E+02  0.51100000000E-03 0.  1.
         11   -1    0    0    0    0 -0.00000000000E+00 -0.00000000000E+00 -0.45593999997E+02  0.45594000000E+02  0.51100000000E-03 0. -1.
    9900012    2    1    2    0    0 -0.73123179721E+01  0.13415224824E+02 -0.40622472577E+02  0.47787268099E+02  0.19999986573E+02 0.  0.
        -12    1    1    2    0    0  0.73123179721E+01 -0.13415224824E+02  0.40622472577E+02  0.43400731901E+02  0.00000000000E+00 0.  1.
         11    1    3    3    0    0  0.22369139099E+01  0.31182710949E+01 -0.29733113267E+02  0.29979750221E+02  0.51100000000E-03 0. -1.
        -11    1    3    3    0    0 -0.68336599690E+01  0.80944885922E+01 -0.81439995348E+01  0.13362050098E+02  0.51100000000E-03 0.  1.
         12    1    3    3    0    0 -0.27155719129E+01  0.22024651371E+01 -0.27453597751E+01  0.44454677807E+01  0.00000000000E+00 0. -1.
</event>
<event>
 7    1  0.2685294E-009  0.4778728E+02  0.7816164E-02  0.1312668E+00
        -11   -1    0    0    0    0  0.00000000000E+00  0.00000000000E+00  0.45593999997E+02  0.45594000000E+02  0.51100000000E-03 0.  1.
         11   -1    0    0    0    0 -0.00000000000E+00 -0.00000000000E+00 -0.45593999997E+02  0.45594000000E+02  0.51100000000E-03 0. -1.
    9900012    2    1    2    0    0 -0.90491767724E+01 -0.19112453802E+02 -0.37900519695E+02  0.47787275539E+02  0.20000020493E+02 0.  0.
        -12    1    1    2    0    0  0.90491767724E+01  0.19112453802E+02  0.37900519695E+02  0.43400724461E+02  0.00000000000E+00 0.  1.
         11    1    3    3    0    0 -0.15145907939E+01 -0.17092893389E+02 -0.13476308393E+02  0.21819071425E+02  0.51100000000E-03 0. -1.
        -11    1    3    3    0    0 -0.44028586464E+01 -0.32685409150E+00 -0.77603084407E+01  0.89282912818E+01  0.51100000000E-03 0.  1.
         12    1    3    3    0    0 -0.31317273321E+01 -0.16927063211E+01 -0.16663902861E+02  0.17039912832E+02  0.00000000000E+00 0. -1.
</event>
<event>
 7    1  0.2685294E-009  0.4778727E+02  0.7816164E-02  0.1312668E+00
        -11   -1    0    0    0    0  0.00000000000E+00  0.00000000000E+00  0.45593999997E+02  0.45594000000E+02  0.51100000000E-03 0.  1.
         11   -1    0    0    0    0 -0.00000000000E+00 -0.00000000000E+00 -0.45593999997E+02  0.45594000000E+02  0.51100000000E-03 0. -1.
    9900012    2    1    2    0    0 -0.33964583688E+02  0.20990902619E+02  0.17012127890E+02  0.47787269209E+02  0.19999991632E+02 0.  0.
        -12    1    1    2    0    0  0.33964583688E+02 -0.20990902619E+02 -0.17012127890E+02  0.43400730791E+02  0.00000000000E+00 0.  1.
         11    1    3    3    0    0 -0.12649810329E+02  0.60353282833E+01  0.16258998457E+02  0.21466204134E+02  0.51100000000E-03 0. -1.
        -11    1    3    3    0    0 -0.14440082138E+02  0.10983045375E+02  0.21150799931E+01  0.18265180577E+02  0.51100000000E-03 0.  1.
         12    1    3    3    0    0 -0.68746912204E+01  0.39725289609E+01 -0.13619505598E+01  0.80558844982E+01  0.00000000000E+00 0. -1.
</event>
<event>
 7    1  0.2685294E-009  0.4778727E+02  0.7816164E-02  0.1312668E+00
        -11   -1    0    0    0    0  0.00000000000E+00  0.00000000000E+00  0.45593999997E+02  0.45594000000E+02  0.51100000000E-03 0. -1.
         11   -1    0    0    0    0 -0.00000000000E+00 -0.00000000000E+00 -0.45593999997E+02  0.45594000000E+02  0.51100000000E-03 0.  1.
    9900012    2    1    2    0    0 -0.37828171382E+02 -0.14216525035E+02  0.15828555070E+02  0.47787270861E+02  0.19999999163E+02 0.  0.
        -12    1    1    2    0    0  0.37828171382E+02  0.14216525035E+02 -0.15828555070E+02  0.43400729139E+02  0.00000000000E+00 0.  1.
         11    1    3    3    0    0 -0.10763662485E+02 -0.14191620563E+01  0.11470669423E+02  0.15793881989E+02  0.51100000000E-03 0. -1.
        -11    1    3    3    0    0 -0.15103860230E+02 -0.12684419243E+02  0.31097216397E+01  0.19967259559E+02  0.51100000000E-03 0.  1.
        -12    1    3    3    0    0 -0.11960648668E+02 -0.11294373619E+00  0.12481640076E+01  0.12026129312E+02  0.00000000000E+00 0.  1.
</event>
<event>
 7    1  0.2685294E-009  0.4778727E+02  0.7816164E-02  0.1312668E+00
        -11   -1    0    0    0    0  0.00000000000E+00  0.00000000000E+00  0.45593999997E+02  0.45594000000E+02  0.51100000000E-03 0. -1.
         11   -1    0    0    0    0 -0.00000000000E+00 -0.00000000000E+00 -0.45593999997E+02  0.45594000000E+02  0.51100000000E-03 0.  1.
    9900012    2    1    2    0    0 -0.11802137764E+02 -0.28463379231E+02  0.30564176061E+02  0.47787271074E+02  0.20000000136E+02 0.  0.
        -12    1    1    2    0    0  0.11802137764E+02  0.28463379231E+02 -0.30564176061E+02  0.43400728926E+02  0.00000000000E+00 0.  1.
         11    1    3    3    0    0 -0.13563914676E+02 -0.19452120614E+02  0.30002069185E+02  0.38242501662E+02  0.51100000000E-03 0. -1.
        -11    1    3    3    0    0  0.11128911880E+01 -0.63162208328E+01  0.15566222552E+01  0.65997155629E+01  0.51100000000E-03 0.  1.
         12    1    3    3    0    0  0.64888572388E+00 -0.26950377836E+01 -0.99451537932E+00  0.29450538496E+01  0.00000000000E+00 0. -1.
</event>
<event>
 7    1  0.2685294E-009  0.4778727E+02  0.7816164E-02  0.1312668E+00
        -11   -1    0    0    0    0  0.00000000000E+00  0.00000000000E+00  0.45593999997E+02  0.45594000000E+02  0.51100000000E-03 0.  1.
         11   -1    0    0    0    0 -0.00000000000E+00 -0.00000000000E+00 -0.45593999997E+02  0.45594000000E+02  0.51100000000E-03 0. -1.
    9900012    2    1    2    0    0  0.20572117003E+02 -0.27346846096E+02 -0.26693843628E+02  0.47787271008E+02  0.19999999835E+02 0.  0.
        -12    1    1    2    0    0 -0.20572117003E+02  0.27346846096E+02  0.26693843628E+02  0.43400728992E+02  0.00000000000E+00 0.  1.
         11    1    3    3    0    0  0.11345664795E+02 -0.25249280790E+02 -0.19331202606E+02  0.33763081680E+02  0.51100000000E-03 0. -1.
        -11    1    3    3    0    0  0.86220404557E+01  0.10904126520E+01 -0.52999561327E+01  0.10179298436E+02  0.51100000000E-03 0.  1.
        -12    1    3    3    0    0  0.60441175259E+00 -0.31879779580E+01 -0.20626848889E+01  0.38448908929E+01  0.00000000000E+00 0.  1.
</event>
<event>
 7    1  0.2685294E-009  0.4778727E+02  0.7816164E-02  0.1312668E+00
        -11   -1    0    0    0    0  0.00000000000E+00  0.00000000000E+00  0.45593999997E+02  0.45594000000E+02  0.51100000000E-03 0.  1.
         11   -1    0    0    0    0 -0.00000000000E+00 -0.00000000000E+00 -0.45593999997E+02  0.45594000000E+02  0.51100000000E-03 0. -1.
    9900012    2    1    2    0    0 -0.24118280834E+02 -0.14555107497E+02 -0.33016364310E+02  0.47787274927E+02  0.20000017702E+02 0.  0.
        -12    1    1    2    0    0  0.24118280834E+02  0.14555107497E+02  0.33016364310E+02  0.43400725073E+02  0.00000000000E+00 0.  1.
         11    1    3    3    0    0 -0.10702677708E+02 -0.11987294920E+02 -0.23627050424E+02  0.28574115238E+02  0.51100000000E-03 0. -1.
        -11    1    3    3    0    0 -0.34052385344E+00  0.21129911331E+01  0.45780120435E+00  0.21886685969E+01  0.51100000000E-03 0.  1.
         12    1    3    3    0    0 -0.13075079272E+02 -0.46808037095E+01 -0.98471150904E+01  0.17024491092E+02  0.00000000000E+00 0. -1.
</event>
<event>
 7    1  0.2685294E-009  0.4778727E+02  0.7816164E-02  0.1312668E+00
        -11   -1    0    0    0    0  0.00000000000E+00  0.00000000000E+00  0.45593999997E+02  0.45594000000E+02  0.51100000000E-03 0. -1.
         11   -1    0    0    0    0 -0.00000000000E+00 -0.00000000000E+00 -0.45593999997E+02  0.45594000000E+02  0.51100000000E-03 0.  1.
    9900012    2    1    2    0    0 -0.25103513601E+02  0.31451734167E+02  0.16255020139E+02  0.47787266631E+02  0.19999979878E+02 0.  0.
        -12    1    1    2    0    0  0.25103513601E+02 -0.31451734167E+02 -0.16255020139E+02  0.43400733369E+02  0.00000000000E+00 0.  1.
         11    1    3    3    0    0 -0.35856103310E+01  0.92914139740E+01  0.13301949703E+02  0.16617124939E+02  0.51100000000E-03 0. -1.
        -11    1    3    3    0    0 -0.11681055081E+02  0.11985201756E+02  0.11807968336E+00  0.16736369140E+02  0.51100000000E-03 0.  1.
         12    1    3    3    0    0 -0.98368481896E+01  0.10175118437E+02  0.28349907527E+01  0.14433772552E+02  0.00000000000E+00 0. -1.
</event>
<event>
 7    1  0.2685294E-009  0.4778727E+02  0.7816164E-02  0.1312668E+00
        -11   -1    0    0    0    0  0.00000000000E+00  0.00000000000E+00  0.45593999997E+02  0.45594000000E+02  0.51100000000E-03 0. -1.
         11   -1    0    0    0    0 -0.00000000000E+00 -0.00000000000E+00 -0.45593999997E+02  0.45594000000E+02  0.51100000000E-03 0.  1.
    9900012    2    1    2    0    0 -0.22384452857E+01 -0.42049388167E+02  0.10510095483E+02  0.47787265103E+02  0.19999972912E+02 0.  0.
        -12    1    1    2    0    0  0.22384452857E+01  0.42049388167E+02 -0.10510095483E+02  0.43400734897E+02  0.00000000000E+00 0.  1.
         11    1    3    3    0    0  0.66155064227E+01 -0.18526308141E+02  0.87659753482E+01  0.21536744011E+02  0.51100000000E-03 0. -1.
        -11    1    3    3    0    0 -0.40804470236E+01 -0.28787942003E+01  0.51049371701E-01  0.49940074349E+01  0.51100000000E-03 0.  1.
         12    1    3    3    0    0 -0.47735046848E+01 -0.20644285826E+02  0.16930707631E+01  0.21256513657E+02  0.00000000000E+00 0. -1.
</event>
<event>
 7    1  0.2685294E-009  0.4778728E+02  0.7816164E-02  0.1312668E+00
        -11   -1    0    0    0    0  0.00000000000E+00  0.00000000000E+00  0.45593999997E+02  0.45594000000E+02  0.51100000000E-03 0.  1.
         11   -1    0    0    0    0 -0.00000000000E+00 -0.00000000000E+00 -0.45593999997E+02  0.45594000000E+02  0.51100000000E-03 0. -1.
    9900012    2    1    2    0    0  0.21770399612E+02 -0.20795818701E+02 -0.31260302068E+02  0.47787275812E+02  0.20000021736E+02 0.  0.
        -12    1    1    2    0    0 -0.21770399612E+02  0.20795818701E+02  0.31260302068E+02  0.43400724188E+02  0.00000000000E+00 0.  1.
         11    1    3    3    0    0  0.10124773941E+02 -0.17759473652E+02 -0.20658604339E+02  0.29063514675E+02  0.51100000000E-03 0. -1.
        -11    1    3    3    0    0 -0.16306337509E+01 -0.46243506442E+00 -0.29489278211E+00  0.17203995560E+01  0.51100000000E-03 0.  1.
         12    1    3    3    0    0  0.13276259422E+02 -0.25739099840E+01 -0.10306804946E+02  0.17003361581E+02  0.00000000000E+00 0. -1.
</event>
<event>
 7    1  0.2685294E-009  0.4778727E+02  0.7816164E-02  0.1312668E+00
        -11   -1    0    0    0    0  0.00000000000E+00  0.00000000000E+00  0.45593999997E+02  0.45594000000E+02  0.51100000000E-03 0.  1.
         11   -1    0    0    0    0 -0.00000000000E+00 -0.00000000000E+00 -0.45593999997E+02  0.45594000000E+02  0.51100000000E-03 0. -1.
    9900012    2    1    2    0    0 -0.39581115753E+02 -0.70017894776E+01 -0.16368689081E+02  0.47787265417E+02  0.19999974341E+02 0.  0.
        -12    1    1    2    0    0  0.39581115753E+02  0.70017894776E+01  0.16368689081E+02  0.43400734583E+02  0.00000000000E+00 0.  1.
         11    1    3    3    0    0 -0.84769097550E+01 -0.31984520564E+01 -0.92393807582E+01  0.12940411570E+02  0.51100000000E-03 0. -1.
        -11    1    3    3    0    0 -0.28500899694E+02 -0.31940640619E+01 -0.16223485847E+01  0.28725169169E+02  0.51100000000E-03 0.  1.
        -12    1    3    3    0    0 -0.26033063041E+01 -0.60927335931E+00 -0.55069597376E+01  0.61216846775E+01  0.00000000000E+00 0.  1.
</event>
<event>
 7    1  0.2685294E-009  0.4778727E+02  0.7816164E-02  0.1312668E+00
        -11   -1    0    0    0    0  0.00000000000E+00  0.00000000000E+00  0.45593999997E+02  0.45594000000E+02  0.51100000000E-03 0.  1.
         11   -1    0    0    0    0 -0.00000000000E+00 -0.00000000000E+00 -0.45593999997E+02  0.45594000000E+02  0.51100000000E-03 0. -1.
    9900012    2    1    2    0    0  0.39803920868E+02 -0.16010160638E+01 -0.17225209364E+02  0.47787271821E+02  0.20000003539E+02 0.  0.
        -12    1    1    2    0    0 -0.39803920868E+02  0.16010160638E+01  0.17225209364E+02  0.43400728179E+02  0.00000000000E+00 0.  1.
         11    1    3    3    0    0  0.23285507669E+02 -0.35856258455E+00 -0.11600751018E+02  0.26017702800E+02  0.51100000000E-03 0. -1.
        -11    1    3    3    0    0  0.67095010576E+00  0.32939418355E+01  0.16584480324E+01  0.37484232681E+01  0.51100000000E-03 0.  1.
        -12    1    3    3    0    0  0.15847463092E+02 -0.45363953148E+01 -0.72829063781E+01  0.18021145752E+02  0.00000000000E+00 0.  1.
</event>
<event>
 7    1  0.2685294E-009  0.4778727E+02  0.7816164E-02  0.1312668E+00
        -11   -1    0    0    0    0  0.00000000000E+00  0.00000000000E+00  0.45593999997E+02  0.45594000000E+02  0.51100000000E-03 0.  1.
         11   -1    0    0    0    0 -0.00000000000E+00 -0.00000000000E+00 -0.45593999997E+02  0.45594000000E+02  0.51100000000E-03 0. -1.
    9900012    2    1    2    0    0  0.51885332755E+01  0.35685744953E+02 -0.24150148437E+02  0.47787274892E+02  0.20000017543E+02 0.  0.
        -12    1    1    2    0    0 -0.51885332755E+01 -0.35685744953E+02  0.24150148437E+02  0.43400725108E+02  0.00000000000E+00 0.  1.
         11    1    3    3    0    0 -0.43283836439E+01  0.12056048324E+02 -0.61608022038E+01  0.14214031455E+02  0.51100000000E-03 0.  1.
        -11    1    3    3    0    0  0.74484012996E+01  0.22744475310E+02 -0.19493128571E+02  0.30867003430E+02  0.51100000000E-03 0. -1.
        -12    1    3    3    0    0  0.20685156198E+01  0.88522131931E+00  0.15037823380E+01  0.27062400067E+01  0.00000000000E+00 0.  1.
</event>
<event>
 7    1  0.2685294E-009  0.4778727E+02  0.7816164E-02  0.1312668E+00
        -11   -1    0    0    0    0  0.00000000000E+00  0.00000000000E+00  0.45593999997E+02  0.45594000000E+02  0.51100000000E-03 0.  1.
         11   -1    0    0    0    0 -0.00000000000E+00 -0.00000000000E+00 -0.45593999997E+02  0.45594000000E+02  0.51100000000E-03 0. -1.
    9900012    2    1    2    0    0  0.11709670851E+02 -0.49316088182E+01 -0.41499227434E+02  0.47787273801E+02  0.20000012570E+02 0.  0.
        -12    1    1    2    0    0 -0.11709670851E+02  0.49316088182E+01  0.41499227434E+02  0.43400726199E+02  0.00000000000E+00 0.  1.
         11    1    3    3    0    0  0.33335946635E+00 -0.76955404211E+01 -0.88390397440E+01  0.11724380357E+02  0.51100000000E-03 0. -1.
        -11    1    3    3    0    0  0.86739033259E+01  0.63123974586E+01 -0.24892001331E+02  0.27105252094E+02  0.51100000000E-03 0.  1.
        -12    1    3    3    0    0  0.27024080585E+01 -0.35484658557E+01 -0.77681863589E+01  0.89576413498E+01  0.00000000000E+00 0.  1.
</event>
<event>
 7    1  0.2685294E-009  0.4778725E+02  0.7816164E-02  0.1312668E+00
        -11   -1    0    0    0    0  0.00000000000E+00  0.00000000000E+00  0.45593999997E+02  0.45594000000E+02  0.51100000000E-03 0.  1.
         11   -1    0    0    0    0 -0.00000000000E+00 -0.00000000000E+00 -0.45593999997E+02  0.45594000000E+02  0.51100000000E-03 0. -1.
    9900012    2    1    2    0    0 -0.28996377820E+02  0.25773936794E+02 -0.19456083168E+02  0.47787252117E+02  0.19999913701E+02 0.  0.
        -12    1    1    2    0    0  0.28996377820E+02 -0.25773936794E+02  0.19456083168E+02  0.43400747883E+02  0.00000000000E+00 0.  1.
         11    1    3    3    0    0 -0.14581345298E+02  0.19603734428E+02 -0.60921247548E+01  0.25180071853E+02  0.51100000000E-03 0. -1.
        -11    1    3    3    0    0 -0.52440053316E+01 -0.21942705197E+01 -0.29489913977E+01  0.64039804463E+01  0.51100000000E-03 0.  1.
         12    1    3    3    0    0 -0.91710271904E+01  0.83644728861E+01 -0.10414967016E+02  0.16203199818E+02  0.00000000000E+00 0. -1.
</event>
<event>
 7    1  0.2685294E-009  0.4778727E+02  0.7816164E-02  0.1312668E+00
        -11   -1    0    0    0    0  0.00000000000E+00  0.00000000000E+00  0.45593999997E+02  0.45594000000E+02  0.51100000000E-03 0. -1.
         11   -1    0    0    0    0 -0.00000000000E+00 -0.00000000000E+00 -0.45593999997E+02  0.45594000000E+02  0.51100000000E-03 0.  1.
    9900012    2    1    2    0    0  0.25338394351E+02  0.26001671400E+02  0.23780287176E+02  0.47787271872E+02  0.20000003773E+02 0.  0.
        -12    1    1    2    0    0 -0.25338394351E+02 -0.26001671400E+02 -0.23780287176E+02  0.43400728128E+02  0.00000000000E+00 0.  1.
         11    1    3    3    0    0  0.18670689131E+02  0.24806765033E+02  0.16195733570E+02  0.35018166858E+02  0.51100000000E-03 0. -1.
        -11    1    3    3    0    0  0.63853640620E+01 -0.21920010164E+01  0.40850124182E+01  0.78908218442E+01  0.51100000000E-03 0.  1.
        -12    1    3    3    0    0  0.28234115886E+00  0.33869073835E+01  0.34995411879E+01  0.48782831694E+01  0.00000000000E+00 0.  1.
</event>
<event>
 7    1  0.2685294E-009  0.4778727E+02  0.7816164E-02  0.1312668E+00
        -11   -1    0    0    0    0  0.00000000000E+00  0.00000000000E+00  0.45593999997E+02  0.45594000000E+02  0.51100000000E-03 0. -1.
         11   -1    0    0    0    0 -0.00000000000E+00 -0.00000000000E+00 -0.45593999997E+02  0.45594000000E+02  0.51100000000E-03 0.  1.
    9900012    2    1    2    0    0  0.33177708339E+02 -0.17179901628E+02  0.22084248461E+02  0.47787269814E+02  0.19999994389E+02 0.  0.
        -12    1    1    2    0    0 -0.33177708339E+02  0.17179901628E+02 -0.22084248461E+02  0.43400730186E+02  0.00000000000E+00 0.  1.
         11    1    3    3    0    0  0.15409466810E+02 -0.17605007580E+02  0.14237874765E+02  0.27388045519E+02  0.51100000000E-03 0. -1.
        -11    1    3    3    0    0  0.67726692482E+01  0.28874754934E+01  0.45663919752E+01  0.86636308441E+01  0.51100000000E-03 0.  1.
        -12    1    3    3    0    0  0.10995572282E+02 -0.24623695407E+01  0.32799817213E+01  0.11735593451E+02  0.00000000000E+00 0.  1.
</event>
<event>
 7    1  0.2685294E-009  0.4778728E+02  0.7816164E-02  0.1312668E+00
        -11   -1    0    0    0    0  0.00000000000E+00  0.00000000000E+00  0.45593999997E+02  0.45594000000E+02  0.51100000000E-03 0. -1.
         11   -1    0    0    0    0 -0.00000000000E+00 -0.00000000000E+00 -0.45593999997E+02  0.45594000000E+02  0.51100000000E-03 0.  1.
    9900012    2    1    2    0    0 -0.11575226919E+02  0.87656786153E+01  0.40899872597E+02  0.47787279058E+02  0.20000036539E+02 0.  0.
        -12    1    1    2    0    0  0.11575226919E+02 -0.87656786153E+01 -0.40899872597E+02  0.43400720942E+02  0.00000000000E+00 0.  1.
         11    1    3    3    0    0 -0.54791076088E+01 -0.21294381430E+01  0.22896225618E+02  0.23638787507E+02  0.51100000000E-03 0. -1.
        -11    1    3    3    0    0 -0.54494505758E+00 -0.16556266056E+01  0.33278726025E+00  0.17744892772E+01  0.51100000000E-03 0.  1.
         12    1    3    3    0    0 -0.55511742529E+01  0.12550743364E+02  0.17670859719E+02  0.22374002274E+02  0.00000000000E+00 0. -1.
</event>
<event>
 7    1  0.2685294E-009  0.4778727E+02  0.7816164E-02  0.1312668E+00
        -11   -1    0    0    0    0  0.00000000000E+00  0.00000000000E+00  0.45593999997E+02  0.45594000000E+02  0.51100000000E-03 0.  1.
         11   -1    0    0    0    0 -0.00000000000E+00 -0.00000000000E+00 -0.45593999997E+02  0.45594000000E+02  0.51100000000E-03 0. -1.
    9900012    2    1    2    0    0  0.29351233074E+02  0.11524729231E+02 -0.29821286948E+02  0.47787269337E+02  0.19999992216E+02 0.  0.
        -12    1    1    2    0    0 -0.29351233074E+02 -0.11524729231E+02  0.29821286948E+02  0.43400730663E+02  0.00000000000E+00 0.  1.
         11    1    3    3    0    0  0.78213394773E+01  0.76403777912E+01 -0.12416924564E+02  0.16544749617E+02  0.51100000000E-03 0. -1.
        -11    1    3    3    0    0  0.73617810031E+01 -0.27035399998E+01  0.14711217441E-01  0.78425228562E+01  0.51100000000E-03 0.  1.
        -12    1    3    3    0    0  0.14168112594E+02  0.65878914395E+01 -0.17419073601E+02  0.23399996864E+02  0.00000000000E+00 0.  1.
</event>
<event>
 7    1  0.2685294E-009  0.4778727E+02  0.7816164E-02  0.1312668E+00
        -11   -1    0    0    0    0  0.00000000000E+00  0.00000000000E+00  0.45593999997E+02  0.45594000000E+02  0.51100000000E-03 0. -1.
         11   -1    0    0    0    0 -0.00000000000E+00 -0.00000000000E+00 -0.45593999997E+02  0.45594000000E+02  0.51100000000E-03 0.  1.
    9900012    2    1    2    0    0  0.37493626560E+02  0.21125710708E+02 -0.56174336922E+01  0.47787271356E+02  0.20000001419E+02 0.  0.
        -12    1    1    2    0    0 -0.37493626560E+02 -0.21125710708E+02  0.56174336922E+01  0.43400728644E+02  0.00000000000E+00 0.  1.
         11    1    3    3    0    0  0.29214057520E+02  0.15953055781E+02  0.42430376867E+00  0.33288754550E+02  0.51100000000E-03 0. -1.
        -11    1    3    3    0    0 -0.14269682588E+01  0.44170858587E-01 -0.26471483473E+01  0.30075877560E+01  0.51100000000E-03 0.  1.
         12    1    3    3    0    0  0.97065372990E+01  0.51284840690E+01 -0.33945891136E+01  0.11490929050E+02  0.00000000000E+00 0. -1.
</event>
<event>
 7    1  0.2685294E-009  0.4778727E+02  0.7816164E-02  0.1312668E+00
        -11   -1    0    0    0    0  0.00000000000E+00  0.00000000000E+00  0.45593999997E+02  0.45594000000E+02  0.51100000000E-03 0. -1.
         11   -1    0    0    0    0 -0.00000000000E+00 -0.00000000000E+00 -0.45593999997E+02  0.45594000000E+02  0.51100000000E-03 0.  1.
    9900012    2    1    2    0    0  0.27675246970E+02  0.33382931595E+02 -0.18120851590E+01  0.47787273401E+02  0.20000010744E+02 0.  0.
        -12    1    1    2    0    0 -0.27675246970E+02 -0.33382931595E+02  0.18120851590E+01  0.43400726599E+02  0.00000000000E+00 0.  1.
         11    1    3    3    0    0  0.25447060721E+01 -0.92778011150E+00  0.12107118301E+01  0.29668381023E+01  0.51100000000E-03 0.  1.
        -11    1    3    3    0    0  0.24722380158E+02  0.24348759842E+02 -0.32159919289E+01  0.34848253771E+02  0.51100000000E-03 0. -1.
        -12    1    3    3    0    0  0.40816073956E+00  0.99619518643E+01  0.19319493982E+00  0.99721815277E+01  0.00000000000E+00 0.  1.
</event>
<event>
 7    1  0.2685294E-009  0.4778728E+02  0.7816164E-02  0.1312668E+00
        -11   -1    0    0    0    0  0.00000000000E+00  0.00000000000E+00  0.45593999997E+02  0.45594000000E+02  0.51100000000E-03 0.  1.
         11   -1    0    0    0    0 -0.00000000000E+00 -0.00000000000E+00 -0.45593999997E+02  0.45594000000E+02  0.51100000000E-03 0. -1.
    9900012    2    1    2    0    0  0.37250215275E+02  0.73199765719E+01  0.21034779102E+02  0.47787279650E+02  0.20000039237E+02 0.  0.
        -12    1    1    2    0    0 -0.37250215275E+02 -0.73199765719E+01 -0.21034779102E+02  0.43400720350E+02  0.00000000000E+00 0.  1.
         11    1    3    3    0    0  0.30221310156E+02  0.51648894689E+01  0.17029279952E+02  0.35071356500E+02  0.51100000000E-03 0. -1.
        -11    1    3    3    0    0  0.11479112160E+01  0.20623134434E+00 -0.30861354069E+01  0.32991610355E+01  0.51100000000E-03 0.  1.
        -12    1    3    3    0    0  0.58809939023E+01  0.19488557586E+01  0.70916345562E+01  0.94167621147E+01  0.00000000000E+00 0.  1.
</event>
<event>
 7    1  0.2685294E-009  0.4778727E+02  0.7816164E-02  0.1312668E+00
        -11   -1    0    0    0    0  0.00000000000E+00  0.00000000000E+00  0.45593999997E+02  0.45594000000E+02  0.51100000000E-03 0.  1.
         11   -1    0    0    0    0 -0.00000000000E+00 -0.00000000000E+00 -0.45593999997E+02  0.45594000000E+02  0.51100000000E-03 0. -1.
    9900012    2    1    2    0    0  0.39261360117E+02 -0.71018542988E+01 -0.17080178796E+02  0.47787271430E+02  0.20000001759E+02 0.  0.
        -12    1    1    2    0    0 -0.39261360117E+02  0.71018542988E+01  0.17080178796E+02  0.43400728570E+02  0.00000000000E+00 0.  1.
         11    1    3    3    0    0  0.14024327997E+02  0.14900399085E+01 -0.52549778527E+01  0.15050474650E+02  0.51100000000E-03 0. -1.
        -11    1    3    3    0    0  0.24645923736E+02 -0.10495058413E+02 -0.72573344847E+01  0.27753138777E+02  0.51100000000E-03 0.  1.
        -12    1    3    3    0    0  0.59110838406E+00  0.19031642056E+01 -0.45678664583E+01  0.49836580035E+01  0.00000000000E+00 0.  1.
</event>
<event>
 7    1  0.3490939E-009  0.4778728E+02  0.7816164E-02  0.1312668E+00
        -11   -1    0    0    0    0  0.00000000000E+00  0.00000000000E+00  0.45593999997E+02  0.45594000000E+02  0.51100000000E-03 0. -1.
         11   -1    0    0    0    0 -0.00000000000E+00 -0.00000000000E+00 -0.45593999997E+02  0.45594000000E+02  0.51100000000E-03 0.  1.
    9900012    2    1    2    0    0  0.23617658165E+02  0.19281164318E+02  0.30887948650E+02  0.47787280577E+02  0.20000043463E+02 0.  0.
        -12    1    1    2    0    0 -0.23617658165E+02 -0.19281164318E+02 -0.30887948650E+02  0.43400719423E+02  0.00000000000E+00 0.  1.
         11    1    3    3    0    0  0.17842590472E+02  0.20107200870E+02  0.23965390426E+02  0.36013851504E+02  0.51100000000E-03 0. -1.
        -11    1    3    3    0    0  0.13697387338E+01 -0.14976006871E+01 -0.13076001714E+01  0.24142929579E+01  0.51100000000E-03 0.  1.
        -12    1    3    3    0    0  0.44053289589E+01  0.67156413520E+00  0.82301583949E+01  0.93591361155E+01  0.00000000000E+00 0.  1.
</event>
<event>
 7    1  0.2685294E-009  0.4778727E+02  0.7816164E-02  0.1312668E+00
        -11   -1    0    0    0    0  0.00000000000E+00  0.00000000000E+00  0.45593999997E+02  0.45594000000E+02  0.51100000000E-03 0.  1.
         11   -1    0    0    0    0 -0.00000000000E+00 -0.00000000000E+00 -0.45593999997E+02  0.45594000000E+02  0.51100000000E-03 0. -1.
    9900012    2    1    2    0    0  0.16007472582E+02 -0.33735414171E+02 -0.22120269348E+02  0.47787266552E+02  0.19999979518E+02 0.  0.
        -12    1    1    2    0    0 -0.16007472582E+02  0.33735414171E+02  0.22120269348E+02  0.43400733448E+02  0.00000000000E+00 0.  1.
         11    1    3    3    0    0  0.16876685507E+02 -0.24267742947E+02 -0.11975251018E+02  0.31892828326E+02  0.51100000000E-03 0. -1.
        -11    1    3    3    0    0 -0.13370145168E+01 -0.10615934733E+02 -0.10001337543E+02  0.14646242896E+02  0.51100000000E-03 0.  1.
         12    1    3    3    0    0  0.46780159209E+00  0.11482635080E+01 -0.14368078725E+00  0.12481953301E+01  0.00000000000E+00 0. -1.
</event>
<event>
 7    1  0.2685294E-009  0.4778727E+02  0.7816164E-02  0.1312668E+00
        -11   -1    0    0    0    0  0.00000000000E+00  0.00000000000E+00  0.45593999997E+02  0.45594000000E+02  0.51100000000E-03 0.  1.
         11   -1    0    0    0    0 -0.00000000000E+00 -0.00000000000E+00 -0.45593999997E+02  0.45594000000E+02  0.51100000000E-03 0. -1.
    9900012    2    1    2    0    0 -0.83706805282E+01  0.21278968890E+02 -0.36888486824E+02  0.47787271093E+02  0.20000000220E+02 0.  0.
        -12    1    1    2    0    0  0.83706805282E+01 -0.21278968890E+02  0.36888486824E+02  0.43400728907E+02  0.00000000000E+00 0.  1.
         11    1    3    3    0    0  0.13670290248E+01  0.54716937000E+01 -0.13183339800E+02  0.14339060250E+02  0.51100000000E-03 0. -1.
        -11    1    3    3    0    0 -0.60985017292E+01  0.10531114651E+02 -0.41311841754E+01  0.12851567301E+02  0.51100000000E-03 0.  1.
        -12    1    3    3    0    0 -0.36392078239E+01  0.52761605392E+01 -0.19573962848E+02  0.20596643542E+02  0.00000000000E+00 0.  1.
</event>
<event>
 7    1  0.2685294E-009  0.4778727E+02  0.7816164E-02  0.1312668E+00
        -11   -1    0    0    0    0  0.00000000000E+00  0.00000000000E+00  0.45593999997E+02  0.45594000000E+02  0.51100000000E-03 0. -1.
         11   -1    0    0    0    0 -0.00000000000E+00 -0.00000000000E+00 -0.45593999997E+02  0.45594000000E+02  0.51100000000E-03 0.  1.
    9900012    2    1    2    0    0  0.33188171755E+02 -0.24599690358E+02  0.13305031669E+02  0.47787269846E+02  0.19999994537E+02 0.  0.
        -12    1    1    2    0    0 -0.33188171755E+02  0.24599690358E+02 -0.13305031669E+02  0.43400730154E+02  0.00000000000E+00 0.  1.
         11    1    3    3    0    0  0.33719668547E+02 -0.18979012349E+02  0.12524650369E+02  0.40670453941E+02  0.51100000000E-03 0. -1.
        -11    1    3    3    0    0 -0.11632425636E+01 -0.17418143741E+01 -0.14971489672E+01  0.25745884849E+01  0.51100000000E-03 0.  1.
         12    1    3    3    0    0  0.63174577167E+00 -0.38788636355E+01  0.22775302663E+01  0.45422274202E+01  0.00000000000E+00 0. -1.
</event>
<event>
 7    1  0.2685294E-009  0.4778727E+02  0.7816164E-02  0.1312668E+00
        -11   -1    0    0    0    0  0.00000000000E+00  0.00000000000E+00  0.45593999997E+02  0.45594000000E+02  0.51100000000E-03 0.  1.
         11   -1    0    0    0    0 -0.00000000000E+00 -0.00000000000E+00 -0.45593999997E+02  0.45594000000E+02  0.51100000000E-03 0. -1.
    9900012    2    1    2    0    0  0.14070111644E+01  0.31482762013E+02 -0.29840901196E+02  0.47787269954E+02  0.19999995028E+02 0.  0.
        -12    1    1    2    0    0 -0.14070111644E+01 -0.31482762013E+02  0.29840901196E+02  0.43400730046E+02  0.00000000000E+00 0.  1.
         11    1    3    3    0    0 -0.18375325417E+01  0.27674929307E+02 -0.19277449828E+02  0.33777186238E+02  0.51100000000E-03 0. -1.
        -11    1    3    3    0    0 -0.16487844669E+01 -0.11371025054E+01 -0.38624693060E+01  0.43508805691E+01  0.51100000000E-03 0.  1.
         12    1    3    3    0    0  0.48933281729E+01  0.49449352111E+01 -0.67009820612E+01  0.96592031470E+01  0.00000000000E+00 0. -1.
</event>
<event>
 7    1  0.2685294E-009  0.4778728E+02  0.7816164E-02  0.1312668E+00
        -11   -1    0    0    0    0  0.00000000000E+00  0.00000000000E+00  0.45593999997E+02  0.45594000000E+02  0.51100000000E-03 0.  1.
         11   -1    0    0    0    0 -0.00000000000E+00 -0.00000000000E+00 -0.45593999997E+02  0.45594000000E+02  0.51100000000E-03 0. -1.
    9900012    2    1    2    0    0 -0.32502572356E+02 -0.26244332314E+01 -0.28641192575E+02  0.47787276830E+02  0.20000026381E+02 0.  0.
        -12    1    1    2    0    0  0.32502572356E+02  0.26244332314E+01  0.28641192575E+02  0.43400723170E+02  0.00000000000E+00 0.  1.
         11    1    3    3    0    0 -0.14406723462E+02  0.34961007839E+01 -0.20544130853E+02  0.25334516265E+02  0.51100000000E-03 0. -1.
        -11    1    3    3    0    0 -0.16151508087E+02 -0.23135336298E+01 -0.80115129529E+01  0.18177128250E+02  0.51100000000E-03 0.  1.
        -12    1    3    3    0    0 -0.19443408062E+01 -0.38070003855E+01 -0.85548768405E-01  0.42756323155E+01  0.00000000000E+00 0.  1.
</event>
<event>
 7    1  0.2685294E-009  0.4778727E+02  0.7816164E-02  0.1312668E+00
        -11   -1    0    0    0    0  0.00000000000E+00  0.00000000000E+00  0.45593999997E+02  0.45594000000E+02  0.51100000000E-03 0.  1.
         11   -1    0    0    0    0 -0.00000000000E+00 -0.00000000000E+00 -0.45593999997E+02  0.45594000000E+02  0.51100000000E-03 0. -1.
    9900012    2    1    2    0    0  0.25964643030E+02 -0.14151521097E+02 -0.31767830704E+02  0.47787270689E+02  0.19999998380E+02 0.  0.
        -12    1    1    2    0    0 -0.25964643030E+02  0.14151521097E+02  0.31767830704E+02  0.43400729311E+02  0.00000000000E+00 0.  1.
         11    1    3    3    0    0  0.89312091591E+01 -0.15023875700E+02 -0.17623257039E+02  0.24820606902E+02  0.51100000000E-03 0. -1.
        -11    1    3    3    0    0  0.98756663844E+01  0.27066199568E+01 -0.56029055819E+01  0.11672494564E+02  0.51100000000E-03 0.  1.
         12    1    3    3    0    0  0.71577674867E+01 -0.18342653541E+01 -0.85416680837E+01  0.11294169223E+02  0.00000000000E+00 0. -1.
</event>
<event>
 7    1  0.2685294E-009  0.4778727E+02  0.7816164E-02  0.1312668E+00
        -11   -1    0    0    0    0  0.00000000000E+00  0.00000000000E+00  0.45593999997E+02  0.45594000000E+02  0.51100000000E-03 0. -1.
         11   -1    0    0    0    0 -0.00000000000E+00 -0.00000000000E+00 -0.45593999997E+02  0.45594000000E+02  0.51100000000E-03 0.  1.
    9900012    2    1    2    0    0  0.34785110001E+02  0.24321544315E+02  0.90599054889E+01  0.47787270938E+02  0.19999999514E+02 0.  0.
        -12    1    1    2    0    0 -0.34785110001E+02 -0.24321544315E+02 -0.90599054889E+01  0.43400729062E+02  0.00000000000E+00 0.  1.
         11    1    3    3    0    0  0.87818177676E+01  0.11843097416E+02  0.10508259006E+02  0.18105324833E+02  0.51100000000E-03 0. -1.
        -11    1    3    3    0    0  0.20605269018E+02  0.74670418753E+01  0.94592042631E+00  0.21936923015E+02  0.51100000000E-03 0.  1.
        -12    1    3    3    0    0  0.53980232158E+01  0.50114050231E+01 -0.23942739431E+01  0.77450230896E+01  0.00000000000E+00 0.  1.
</event>
<event>
 7    1  0.2685294E-009  0.4778727E+02  0.7816164E-02  0.1312668E+00
        -11   -1    0    0    0    0  0.00000000000E+00  0.00000000000E+00  0.45593999997E+02  0.45594000000E+02  0.51100000000E-03 0.  1.
         11   -1    0    0    0    0 -0.00000000000E+00 -0.00000000000E+00 -0.45593999997E+02  0.45594000000E+02  0.51100000000E-03 0. -1.
    9900012    2    1    2    0    0  0.12977484670E+01  0.39305880173E+02 -0.18357194608E+02  0.47787274647E+02  0.20000016428E+02 0.  0.
        -12    1    1    2    0    0 -0.12977484670E+01 -0.39305880173E+02  0.18357194608E+02  0.43400725353E+02  0.00000000000E+00 0.  1.
         11    1    3    3    0    0  0.31577405974E+01  0.13103070605E+02 -0.13427268094E+02  0.19025070662E+02  0.51100000000E-03 0. -1.
        -11    1    3    3    0    0  0.12444438158E+01 -0.53450815292E+00  0.17441472241E+00  0.13655622039E+01  0.51100000000E-03 0.  1.
        -12    1    3    3    0    0 -0.31044359462E+01  0.26737317721E+02 -0.51043412364E+01  0.27396641782E+02  0.00000000000E+00 0.  1.
</event>
<event>
 7    1  0.2685294E-009  0.4778725E+02  0.7816164E-02  0.1312668E+00
        -11   -1    0    0    0    0  0.00000000000E+00  0.00000000000E+00  0.45593999997E+02  0.45594000000E+02  0.51100000000E-03 0.  1.
         11   -1    0    0    0    0 -0.00000000000E+00 -0.00000000000E+00 -0.45593999997E+02  0.45594000000E+02  0.51100000000E-03 0. -1.
    9900012    2    1    2    0    0 -0.25489488780E+02  0.11888683670E+02 -0.33054051895E+02  0.47787249035E+02  0.19999899649E+02 0.  0.
        -12    1    1    2    0    0  0.25489488780E+02 -0.11888683670E+02  0.33054051895E+02  0.43400750965E+02  0.00000000000E+00 0.  1.
         11    1    3    3    0    0  0.86033640215E+00 -0.29376746559E+01 -0.27863434212E+01  0.41393019980E+01  0.51100000000E-03 0. -1.
        -11    1    3    3    0    0 -0.16469051021E+02  0.77762826135E+01 -0.12346798102E+02  0.22003264222E+02  0.51100000000E-03 0.  1.
         12    1    3    3    0    0 -0.98807741615E+01  0.70500757123E+01 -0.17920910372E+02  0.21644682815E+02  0.00000000000E+00 0. -1.
</event>
<event>
 7    1  0.2685294E-009  0.4778727E+02  0.7816164E-02  0.1312668E+00
        -11   -1    0    0    0    0  0.00000000000E+00  0.00000000000E+00  0.45593999997E+02  0.45594000000E+02  0.51100000000E-03 0.  1.
         11   -1    0    0    0    0 -0.00000000000E+00 -0.00000000000E+00 -0.45593999997E+02  0.45594000000E+02  0.51100000000E-03 0. -1.
    9900012    2    1    2    0    0 -0.49547510586E+01  0.15290775696E+02 -0.40314587343E+02  0.47787270374E+02  0.19999996942E+02 0.  0.
        -12    1    1    2    0    0  0.49547510586E+01 -0.15290775696E+02  0.40314587343E+02  0.43400729626E+02  0.00000000000E+00 0.  1.
         11    1    3    3    0    0 -0.20861858802E+01  0.21181597464E+01 -0.59042850154E+01  0.66105486945E+01  0.51100000000E-03 0. -1.
        -11    1    3    3    0    0 -0.19902393314E+01  0.11639044926E+01 -0.26872277975E+02  0.26971003876E+02  0.51100000000E-03 0.  1.
        -12    1    3    3    0    0 -0.87832584694E+00  0.12008711457E+02 -0.75380243529E+01  0.14205717803E+02  0.00000000000E+00 0.  1.
</event>
<event>
 7    1  0.2685294E-009  0.4778727E+02  0.7816164E-02  0.1312668E+00
        -11   -1    0    0    0    0  0.00000000000E+00  0.00000000000E+00  0.45593999997E+02  0.45594000000E+02  0.51100000000E-03 0. -1.
         11   -1    0    0    0    0 -0.00000000000E+00 -0.00000000000E+00 -0.45593999997E+02  0.45594000000E+02  0.51100000000E-03 0.  1.
    9900012    2    1    2    0    0  0.18054167370E+02  0.33270941931E+02  0.21230043361E+02  0.47787271003E+02  0.19999999810E+02 0.  0.
        -12    1    1    2    0    0 -0.18054167370E+02 -0.33270941931E+02 -0.21230043361E+02  0.43400728997E+02  0.00000000000E+00 0.  1.
         11    1    3    3    0    0 -0.13525303025E+01  0.13689949647E+02  0.11637689423E+02  0.18018875518E+02  0.51100000000E-03 0. -1.
        -11    1    3    3    0    0  0.14924791022E+02  0.12705944426E+02  0.89168472600E+01  0.21533707904E+02  0.51100000000E-03 0.  1.
         12    1    3    3    0    0  0.44819066508E+01  0.68750478584E+01  0.67550667814E+00  0.82346875808E+01  0.00000000000E+00 0. -1.
</event>
<event>
 7    1  0.2685294E-009  0.4778727E+02  0.7816164E-02  0.1312668E+00
        -11   -1    0    0    0    0  0.00000000000E+00  0.00000000000E+00  0.45593999997E+02  0.45594000000E+02  0.51100000000E-03 0. -1.
         11   -1    0    0    0    0 -0.00000000000E+00 -0.00000000000E+00 -0.45593999997E+02  0.45594000000E+02  0.51100000000E-03 0.  1.
    9900012    2    1    2    0    0  0.26544600336E+02  0.34048058955E+02 -0.44426969375E+01  0.47787266346E+02  0.19999978578E+02 0.  0.
        -12    1    1    2    0    0 -0.26544600336E+02 -0.34048058955E+02  0.44426969375E+01  0.43400733654E+02  0.00000000000E+00 0.  1.
         11    1    3    3    0    0  0.42682812744E+01  0.17470293636E+02 -0.13845416361E+01  0.18037359579E+02  0.51100000000E-03 0. -1.
        -11    1    3    3    0    0  0.83037531140E+01  0.15282981120E+01 -0.36668307019E+01  0.92050887315E+01  0.51100000000E-03 0.  1.
         12    1    3    3    0    0  0.13972565947E+02  0.15049467207E+02  0.60867540045E+00  0.20544818035E+02  0.00000000000E+00 0. -1.
</event>
<event>
 7    1  0.2685294E-009  0.4778727E+02  0.7816164E-02  0.1312668E+00
        -11   -1    0    0    0    0  0.00000000000E+00  0.00000000000E+00  0.45593999997E+02  0.45594000000E+02  0.51100000000E-03 0. -1.
         11   -1    0    0    0    0 -0.00000000000E+00 -0.00000000000E+00 -0.45593999997E+02  0.45594000000E+02  0.51100000000E-03 0.  1.
    9900012    2    1    2    0    0 -0.14838720270E+02 -0.39157207725E+02 -0.11408278065E+02  0.47787270231E+02  0.19999996293E+02 0.  0.
        -12    1    1    2    0    0  0.14838720270E+02  0.39157207725E+02  0.11408278065E+02  0.43400729769E+02  0.00000000000E+00 0.  1.
         11    1    3    3    0    0 -0.40769628127E+00 -0.23269180631E+02 -0.61639784707E+01  0.24075207462E+02  0.51100000000E-03 0. -1.
        -11    1    3    3    0    0 -0.57999001228E+01 -0.37536024480E+01  0.19440120904E+01  0.71768764822E+01  0.51100000000E-03 0.  1.
         12    1    3    3    0    0 -0.86311238658E+01 -0.12134424646E+02 -0.71883116847E+01  0.16535186287E+02  0.00000000000E+00 0. -1.
</event>
<event>
 7    1  0.2685294E-009  0.4778728E+02  0.7816164E-02  0.1312668E+00
        -11   -1    0    0    0    0  0.00000000000E+00  0.00000000000E+00  0.45593999997E+02  0.45594000000E+02  0.51100000000E-03 0. -1.
         11   -1    0    0    0    0 -0.00000000000E+00 -0.00000000000E+00 -0.45593999997E+02  0.45594000000E+02  0.51100000000E-03 0.  1.
    9900012    2    1    2    0    0 -0.25501235831E+02  0.27320672607E+02  0.22065591512E+02  0.47787279851E+02  0.20000040154E+02 0.  0.
        -12    1    1    2    0    0  0.25501235831E+02 -0.27320672607E+02 -0.22065591512E+02  0.43400720149E+02  0.00000000000E+00 0.  1.
         11    1    3    3    0    0 -0.22786624029E+02  0.18881147444E+02  0.12551111880E+02  0.32144336564E+02  0.51100000000E-03 0. -1.
        -11    1    3    3    0    0 -0.23237991054E+01  0.34182504763E-01  0.61612192478E+01  0.65849702814E+01  0.51100000000E-03 0.  1.
         12    1    3    3    0    0 -0.39081269648E+00  0.84053426584E+01  0.33532603842E+01  0.90579730058E+01  0.00000000000E+00 0. -1.
</event>
<event>
 7    1  0.2685294E-009  0.4778729E+02  0.7816164E-02  0.1312668E+00
        -11   -1    0    0    0    0  0.00000000000E+00  0.00000000000E+00  0.45593999997E+02  0.45594000000E+02  0.51100000000E-03 0.  1.
         11   -1    0    0    0    0 -0.00000000000E+00 -0.00000000000E+00 -0.45593999997E+02  0.45594000000E+02  0.51100000000E-03 0. -1.
    9900012    2    1    2    0    0 -0.37619172758E+01 -0.42305857512E+02 -0.89266067081E+01  0.47787286772E+02  0.20000071707E+02 0.  0.
        -12    1    1    2    0    0  0.37619172758E+01  0.42305857512E+02  0.89266067081E+01  0.43400713228E+02  0.00000000000E+00 0.  1.
         11    1    3    3    0    0 -0.39628123449E+01 -0.10181819369E+02 -0.89207660188E+01  0.14105083976E+02  0.51100000000E-03 0. -1.
        -11    1    3    3    0    0 -0.17547400554E+01 -0.21197572125E+02  0.44336231220E+01  0.21727245360E+02  0.51100000000E-03 0.  1.
        -12    1    3    3    0    0  0.19556351246E+01 -0.10926466017E+02 -0.44394638113E+01  0.11954957436E+02  0.00000000000E+00 0.  1.
</event>
<event>
 7    1  0.2685294E-009  0.4778727E+02  0.7816164E-02  0.1312668E+00
        -11   -1    0    0    0    0  0.00000000000E+00  0.00000000000E+00  0.45593999997E+02  0.45594000000E+02  0.51100000000E-03 0. -1.
         11   -1    0    0    0    0 -0.00000000000E+00 -0.00000000000E+00 -0.45593999997E+02  0.45594000000E+02  0.51100000000E-03 0.  1.
    9900012    2    1    2    0    0  0.38605767051E+02 -0.87558900364E+01  0.17791925848E+02  0.47787268609E+02  0.19999988894E+02 0.  0.
        -12    1    1    2    0    0 -0.38605767051E+02  0.87558900364E+01 -0.17791925848E+02  0.43400731391E+02  0.00000000000E+00 0.  1.
         11    1    3    3    0    0  0.39084098032E+02 -0.47350046545E+01  0.16427685649E+02  0.42659768449E+02  0.51100000000E-03 0. -1.
        -11    1    3    3    0    0  0.92522807110E+00 -0.31360119407E+01  0.10848832782E+01  0.34449368448E+01  0.51100000000E-03 0.  1.
         12    1    3    3    0    0 -0.14035590522E+01 -0.88487344122E+00  0.27935692079E+00  0.16825633150E+01  0.00000000000E+00 0. -1.
</event>
<event>
 7    1  0.2685294E-009  0.4778725E+02  0.7816164E-02  0.1312668E+00
        -11   -1    0    0    0    0  0.00000000000E+00  0.00000000000E+00  0.45593999997E+02  0.45594000000E+02  0.51100000000E-03 0. -1.
         11   -1    0    0    0    0 -0.00000000000E+00 -0.00000000000E+00 -0.45593999997E+02  0.45594000000E+02  0.51100000000E-03 0.  1.
    9900012    2    1    2    0    0 -0.31583647829E+02 -0.60947530071E+01  0.29136781423E+02  0.47787252816E+02  0.19999916889E+02 0.  0.
        -12    1    1    2    0    0  0.31583647829E+02  0.60947530071E+01 -0.29136781423E+02  0.43400747184E+02  0.00000000000E+00 0.  1.
         11    1    3    3    0    0 -0.30845188687E+02 -0.36245904857E+01  0.30806913085E+02  0.43745047896E+02  0.51100000000E-03 0. -1.
        -11    1    3    3    0    0 -0.11333497556E+01 -0.41034642423E+00 -0.15194344444E+01  0.19394708423E+01  0.51100000000E-03 0.  1.
         12    1    3    3    0    0  0.39489061330E+00 -0.20598160972E+01 -0.15069721746E+00  0.21027340779E+01  0.00000000000E+00 0. -1.
</event>
<event>
 7    1  0.4092888E-009  0.4778727E+02  0.7816164E-02  0.1312668E+00
        -11   -1    0    0    0    0  0.00000000000E+00  0.00000000000E+00  0.45593999997E+02  0.45594000000E+02  0.51100000000E-03 0. -1.
         11   -1    0    0    0    0 -0.00000000000E+00 -0.00000000000E+00 -0.45593999997E+02  0.45594000000E+02  0.51100000000E-03 0.  1.
    9900012    2    1    2    0    0  0.70652758197E+01  0.16005927744E+02  0.39717949950E+02  0.47787269665E+02  0.19999993711E+02 0.  0.
        -12    1    1    2    0    0 -0.70652758197E+01 -0.16005927744E+02 -0.39717949950E+02  0.43400730335E+02  0.00000000000E+00 0.  1.
         11    1    3    3    0    0  0.60706643455E+01  0.13370399374E+02  0.17064341910E+02  0.22512492312E+02  0.51100000000E-03 0. -1.
        -11    1    3    3    0    0 -0.43325459965E+00 -0.41602984906E+01  0.70830722816E+01  0.82259167444E+01  0.51100000000E-03 0.  1.
        -12    1    3    3    0    0  0.14278660739E+01  0.67958268597E+01  0.15570535759E+02  0.17048860608E+02  0.00000000000E+00 0.  1.
</event>
<event>
 7    1  0.2685294E-009  0.4778727E+02  0.7816164E-02  0.1312668E+00
        -11   -1    0    0    0    0  0.00000000000E+00  0.00000000000E+00  0.45593999997E+02  0.45594000000E+02  0.51100000000E-03 0.  1.
         11   -1    0    0    0    0 -0.00000000000E+00 -0.00000000000E+00 -0.45593999997E+02  0.45594000000E+02  0.51100000000E-03 0. -1.
    9900012    2    1    2    0    0 -0.66643752828E+01  0.18943495467E+02 -0.38475359762E+02  0.47787271582E+02  0.20000002452E+02 0.  0.
        -12    1    1    2    0    0  0.66643752828E+01 -0.18943495467E+02  0.38475359762E+02  0.43400728418E+02  0.00000000000E+00 0.  1.
         11    1    3    3    0    0  0.31220971603E+01  0.43616941298E+01 -0.41123354991E+01  0.67589325991E+01  0.51100000000E-03 0. -1.
        -11    1    3    3    0    0 -0.10350559683E+02  0.10896816419E+02 -0.34130750202E+02  0.37293200499E+02  0.51100000000E-03 0.  1.
        -12    1    3    3    0    0  0.56408724025E+00  0.36849849177E+01 -0.23227406036E+00  0.37351384844E+01  0.00000000000E+00 0.  1.
</event>
<event>
 7    1  0.2685294E-009  0.4778727E+02  0.7816164E-02  0.1312668E+00
        -11   -1    0    0    0    0  0.00000000000E+00  0.00000000000E+00  0.45593999997E+02  0.45594000000E+02  0.51100000000E-03 0.  1.
         11   -1    0    0    0    0 -0.00000000000E+00 -0.00000000000E+00 -0.45593999997E+02  0.45594000000E+02  0.51100000000E-03 0. -1.
    9900012    2    1    2    0    0  0.38023474878E+02 -0.99537162883E+01 -0.18405487939E+02  0.47787273094E+02  0.20000009345E+02 0.  0.
        -12    1    1    2    0    0 -0.38023474878E+02  0.99537162883E+01  0.18405487939E+02  0.43400726906E+02  0.00000000000E+00 0.  1.
         11    1    3    3    0    0  0.13673458156E+02 -0.51978799907E+01 -0.10945910835E+02  0.18270040466E+02  0.51100000000E-03 0. -1.
        -11    1    3    3    0    0  0.14699218998E+02  0.41662005281E+01 -0.25633808276E+01  0.15491778062E+02  0.51100000000E-03 0.  1.
        -12    1    3    3    0    0  0.96507977230E+01 -0.89220368257E+01 -0.48961962755E+01  0.14025454566E+02  0.00000000000E+00 0.  1.
</event>
<event>
 7    1  0.2685294E-009  0.4778727E+02  0.7816164E-02  0.1312668E+00
        -11   -1    0    0    0    0  0.00000000000E+00  0.00000000000E+00  0.45593999997E+02  0.45594000000E+02  0.51100000000E-03 0.  1.
         11   -1    0    0    0    0 -0.00000000000E+00 -0.00000000000E+00 -0.45593999997E+02  0.45594000000E+02  0.51100000000E-03 0. -1.
    9900012    2    1    2    0    0 -0.19291132394E+02  0.38658852969E+02 -0.41192966994E+01  0.47787270660E+02  0.19999998248E+02 0.  0.
        -12    1    1    2    0    0  0.19291132394E+02 -0.38658852969E+02  0.41192966994E+01  0.43400729340E+02  0.00000000000E+00 0.  1.
         11    1    3    3    0    0 -0.30627389947E+01  0.33234804902E+00  0.22121304816E+01  0.37926701549E+01  0.51100000000E-03 0. -1.
        -11    1    3    3    0    0 -0.39489479919E+01  0.29289000314E+01  0.24782193642E+01  0.55058348245E+01  0.51100000000E-03 0.  1.
         12    1    3    3    0    0 -0.12279445408E+02  0.35397604889E+02 -0.88096465452E+01  0.38488765681E+02  0.00000000000E+00 0. -1.
</event>
<event>
 7    1  0.2685294E-009  0.4778727E+02  0.7816164E-02  0.1312668E+00
        -11   -1    0    0    0    0  0.00000000000E+00  0.00000000000E+00  0.45593999997E+02  0.45594000000E+02  0.51100000000E-03 0.  1.
         11   -1    0    0    0    0 -0.00000000000E+00 -0.00000000000E+00 -0.45593999997E+02  0.45594000000E+02  0.51100000000E-03 0. -1.
    9900012    2    1    2    0    0 -0.29275496228E+02 -0.62631748563E+01 -0.31421981376E+02  0.47787274750E+02  0.20000016894E+02 0.  0.
        -12    1    1    2    0    0  0.29275496228E+02  0.62631748563E+01  0.31421981376E+02  0.43400725250E+02  0.00000000000E+00 0.  1.
         11    1    3    3    0    0 -0.26796698270E+01  0.29919613219E+01 -0.85921583749E+01  0.94846006101E+01  0.51100000000E-03 0. -1.
        -11    1    3    3    0    0 -0.27610645901E+02 -0.73501675195E+01 -0.21603940159E+02  0.35820426579E+02  0.51100000000E-03 0.  1.
         12    1    3    3    0    0  0.10148195006E+01 -0.19049686587E+01 -0.12258828426E+01  0.24822475609E+01  0.00000000000E+00 0. -1.
</event>
<event>
 7    1  0.2685294E-009  0.4778727E+02  0.7816164E-02  0.1312668E+00
        -11   -1    0    0    0    0  0.00000000000E+00  0.00000000000E+00  0.45593999997E+02  0.45594000000E+02  0.51100000000E-03 0.  1.
         11   -1    0    0    0    0 -0.00000000000E+00 -0.00000000000E+00 -0.45593999997E+02  0.45594000000E+02  0.51100000000E-03 0. -1.
    9900012    2    1    2    0    0 -0.22513242568E+02  0.78834575993E+01 -0.36257809210E+02  0.47787265866E+02  0.19999976388E+02 0.  0.
        -12    1    1    2    0    0  0.22513242568E+02 -0.78834575993E+01  0.36257809210E+02  0.43400734134E+02  0.00000000000E+00 0.  1.
         11    1    3    3    0    0 -0.14660029543E+02  0.27975514366E+01 -0.14591268101E+02  0.20872179218E+02  0.51100000000E-03 0.  1.
        -11    1    3    3    0    0 -0.45975587996E+01  0.92568371336E+01 -0.16808525597E+02  0.19732032679E+02  0.51100000000E-03 0. -1.
        -12    1    3    3    0    0 -0.32556542258E+01 -0.41709309709E+01 -0.48580155124E+01  0.71830539690E+01  0.00000000000E+00 0.  1.
</event>
<event>
 7    1  0.2685294E-009  0.4778727E+02  0.7816164E-02  0.1312668E+00
        -11   -1    0    0    0    0  0.00000000000E+00  0.00000000000E+00  0.45593999997E+02  0.45594000000E+02  0.51100000000E-03 0. -1.
         11   -1    0    0    0    0 -0.00000000000E+00 -0.00000000000E+00 -0.45593999997E+02  0.45594000000E+02  0.51100000000E-03 0.  1.
    9900012    2    1    2    0    0 -0.36339040485E+02  0.23070110186E+02 -0.55558795192E+01  0.47787266773E+02  0.19999980527E+02 0.  0.
        -12    1    1    2    0    0  0.36339040485E+02 -0.23070110186E+02  0.55558795192E+01  0.43400733227E+02  0.00000000000E+00 0.  1.
         11    1    3    3    0    0 -0.21338669845E+02  0.95451936626E+01  0.45013103594E+01  0.23805699906E+02  0.51100000000E-03 0. -1.
        -11    1    3    3    0    0 -0.14470637438E+02  0.14538490538E+02 -0.10039773431E+02  0.22837778040E+02  0.51100000000E-03 0.  1.
        -12    1    3    3    0    0 -0.52973320237E+00 -0.10135740147E+01 -0.17416447104E-01  0.11437888274E+01  0.00000000000E+00 0.  1.
</event>
<event>
 7    1  0.2685294E-009  0.4778727E+02  0.7816164E-02  0.1312668E+00
        -11   -1    0    0    0    0  0.00000000000E+00  0.00000000000E+00  0.45593999997E+02  0.45594000000E+02  0.51100000000E-03 0.  1.
         11   -1    0    0    0    0 -0.00000000000E+00 -0.00000000000E+00 -0.45593999997E+02  0.45594000000E+02  0.51100000000E-03 0. -1.
    9900012    2    1    2    0    0 -0.30741974963E+02  0.28445002917E+02 -0.11376996635E+02  0.47787271112E+02  0.20000000308E+02 0.  0.
        -12    1    1    2    0    0  0.30741974963E+02 -0.28445002917E+02  0.11376996635E+02  0.43400728888E+02  0.00000000000E+00 0.  1.
         11    1    3    3    0    0 -0.44156921881E+01 -0.17047572214E+01  0.12880912459E+01  0.49054779586E+01  0.51100000000E-03 0.  1.
        -11    1    3    3    0    0 -0.19699306332E+02  0.19882185025E+02 -0.12517922262E+02  0.30660435896E+02  0.51100000000E-03 0. -1.
        -12    1    3    3    0    0 -0.66269764430E+01  0.10267575114E+02 -0.14716561855E+00  0.12221357257E+02  0.00000000000E+00 0.  1.
</event>
<event>
 7    1  0.2685294E-009  0.4778727E+02  0.7816164E-02  0.1312668E+00
        -11   -1    0    0    0    0  0.00000000000E+00  0.00000000000E+00  0.45593999997E+02  0.45594000000E+02  0.51100000000E-03 0.  1.
         11   -1    0    0    0    0 -0.00000000000E+00 -0.00000000000E+00 -0.45593999997E+02  0.45594000000E+02  0.51100000000E-03 0. -1.
    9900012    2    1    2    0    0 -0.17833833854E+01 -0.20430122485E+02 -0.38249872946E+02  0.47787272570E+02  0.20000006954E+02 0.  0.
        -12    1    1    2    0    0  0.17833833854E+01  0.20430122485E+02  0.38249872946E+02  0.43400727430E+02  0.00000000000E+00 0.  1.
         11    1    3    3    0    0  0.54515609765E+01 -0.92621233229E+01 -0.10549081196E+02  0.15059533853E+02  0.51100000000E-03 0. -1.
        -11    1    3    3    0    0  0.16920837765E+01 -0.73416730476E+00 -0.38665243014E-01  0.18448968535E+01  0.51100000000E-03 0.  1.
         12    1    3    3    0    0 -0.89270281385E+01 -0.10433831858E+02 -0.27662126508E+02  0.30882841863E+02  0.00000000000E+00 0. -1.
</event>
<event>
 7    1  0.2685294E-009  0.4778727E+02  0.7816164E-02  0.1312668E+00
        -11   -1    0    0    0    0  0.00000000000E+00  0.00000000000E+00  0.45593999997E+02  0.45594000000E+02  0.51100000000E-03 0. -1.
         11   -1    0    0    0    0 -0.00000000000E+00 -0.00000000000E+00 -0.45593999997E+02  0.45594000000E+02  0.51100000000E-03 0.  1.
    9900012    2    1    2    0    0  0.27954077686E+02 -0.32880089035E+02  0.45926587505E+01  0.47787271565E+02  0.20000002375E+02 0.  0.
        -12    1    1    2    0    0 -0.27954077686E+02  0.32880089035E+02 -0.45926587505E+01  0.43400728435E+02  0.00000000000E+00 0.  1.
         11    1    3    3    0    0  0.17473460626E+02 -0.17516418540E+02  0.96572586378E+01  0.26559544224E+02  0.51100000000E-03 0. -1.
        -11    1    3    3    0    0  0.75644667558E+01 -0.14656644268E+02 -0.67092091150E+01  0.17805950289E+02  0.51100000000E-03 0.  1.
        -12    1    3    3    0    0  0.29161503046E+01 -0.70702622727E+00  0.16446092277E+01  0.34217770525E+01  0.00000000000E+00 0.  1.
</event>
<event>
 7    1  0.2685294E-009  0.4778727E+02  0.7816164E-02  0.1312668E+00
        -11   -1    0    0    0    0  0.00000000000E+00  0.00000000000E+00  0.45593999997E+02  0.45594000000E+02  0.51100000000E-03 0. -1.
         11   -1    0    0    0    0 -0.00000000000E+00 -0.00000000000E+00 -0.45593999997E+02  0.45594000000E+02  0.51100000000E-03 0.  1.
    9900012    2    1    2    0    0 -0.49337670781E+01 -0.29054322793E+02  0.31861062348E+02  0.47787273917E+02  0.20000013099E+02 0.  0.
        -12    1    1    2    0    0  0.49337670781E+01  0.29054322793E+02 -0.31861062348E+02  0.43400726083E+02  0.00000000000E+00 0.  1.
         11    1    3    3    0    0  0.25302259040E+00 -0.51799892930E+01  0.16189151817E+02  0.16999557239E+02  0.51100000000E-03 0. -1.
        -11    1    3    3    0    0 -0.16760777068E+01 -0.18064944606E+02  0.62779152465E+01  0.19198012402E+02  0.51100000000E-03 0.  1.
        -12    1    3    3    0    0 -0.35107119617E+01 -0.58093888943E+01  0.93939952847E+01  0.11589704276E+02  0.00000000000E+00 0.  1.
</event>
<event>
 7    1  0.2685294E-009  0.4778727E+02  0.7816164E-02  0.1312668E+00
        -11   -1    0    0    0    0  0.00000000000E+00  0.00000000000E+00  0.45593999997E+02  0.45594000000E+02  0.51100000000E-03 0.  1.
         11   -1    0    0    0    0 -0.00000000000E+00 -0.00000000000E+00 -0.45593999997E+02  0.45594000000E+02  0.51100000000E-03 0. -1.
    9900012    2    1    2    0    0 -0.24771576668E+01  0.20669915892E+02 -0.38082042237E+02  0.47787266434E+02  0.19999978980E+02 0.  0.
        -12    1    1    2    0    0  0.24771576668E+01 -0.20669915892E+02  0.38082042237E+02  0.43400733566E+02  0.00000000000E+00 0.  1.
         11    1    3    3    0    0 -0.77913229683E+00  0.13316562410E+02 -0.10495887025E+02  0.16973553731E+02  0.51100000000E-03 0. -1.
        -11    1    3    3    0    0 -0.48274397472E+01  0.90464034771E-02 -0.16226790756E+02  0.16929648397E+02  0.51100000000E-03 0.  1.
        -12    1    3    3    0    0  0.31294143772E+01  0.73443070789E+01 -0.11359364456E+02  0.13884064306E+02  0.00000000000E+00 0.  1.
</event>
<event>
 7    1  0.2685294E-009  0.4778727E+02  0.7816164E-02  0.1312668E+00
        -11   -1    0    0    0    0  0.00000000000E+00  0.00000000000E+00  0.45593999997E+02  0.45594000000E+02  0.51100000000E-03 0.  1.
         11   -1    0    0    0    0 -0.00000000000E+00 -0.00000000000E+00 -0.45593999997E+02  0.45594000000E+02  0.51100000000E-03 0. -1.
    9900012    2    1    2    0    0 -0.29949422350E+02  0.20437944038E+02 -0.23852588190E+02  0.47787269373E+02  0.19999992379E+02 0.  0.
        -12    1    1    2    0    0  0.29949422350E+02 -0.20437944038E+02  0.23852588190E+02  0.43400730627E+02  0.00000000000E+00 0.  1.
         11    1    3    3    0    0 -0.25560892200E+02  0.18664371718E+02 -0.22870502675E+02  0.39048404251E+02  0.51100000000E-03 0. -1.
        -11    1    3    3    0    0  0.54174845329E+00 -0.15377792542E+01  0.15802995472E+01  0.22705953716E+01  0.51100000000E-03 0.  1.
         12    1    3    3    0    0 -0.49302786032E+01  0.33113515737E+01 -0.25623850625E+01  0.64682697500E+01  0.00000000000E+00 0. -1.
</event>
<event>
 7    1  0.2685294E-009  0.4778727E+02  0.7816164E-02  0.1312668E+00
        -11   -1    0    0    0    0  0.00000000000E+00  0.00000000000E+00  0.45593999997E+02  0.45594000000E+02  0.51100000000E-03 0.  1.
         11   -1    0    0    0    0 -0.00000000000E+00 -0.00000000000E+00 -0.45593999997E+02  0.45594000000E+02  0.51100000000E-03 0. -1.
    9900012    2    1    2    0    0  0.44846420351E+00 -0.16511038462E+02 -0.40134870674E+02  0.47787270107E+02  0.19999995728E+02 0.  0.
        -12    1    1    2    0    0 -0.44846420351E+00  0.16511038462E+02  0.40134870674E+02  0.43400729893E+02  0.00000000000E+00 0.  1.
         11    1    3    3    0    0  0.19399718826E+00  0.20541559198E+01  0.79384340677E+00  0.22107417460E+01  0.51100000000E-03 0. -1.
        -11    1    3    3    0    0 -0.99240983889E+00 -0.11647554397E+01 -0.95738842359E+01  0.96954005666E+01  0.51100000000E-03 0.  1.
         12    1    3    3    0    0  0.12468768541E+01 -0.17400438942E+02 -0.31354829844E+02  0.35881127795E+02  0.00000000000E+00 0. -1.
</event>
<event>
 7    1  0.2685294E-009  0.4778728E+02  0.7816164E-02  0.1312668E+00
        -11   -1    0    0    0    0  0.00000000000E+00  0.00000000000E+00  0.45593999997E+02  0.45594000000E+02  0.51100000000E-03 0.  1.
         11   -1    0    0    0    0 -0.00000000000E+00 -0.00000000000E+00 -0.45593999997E+02  0.45594000000E+02  0.51100000000E-03 0. -1.
    9900012    2    1    2    0    0 -0.31933035132E+02 -0.10159171551E+02 -0.27580704463E+02  0.47787276987E+02  0.20000027096E+02 0.  0.
        -12    1    1    2    0    0  0.31933035132E+02  0.10159171551E+02  0.27580704463E+02  0.43400723013E+02  0.00000000000E+00 0.  1.
         11    1    3    3    0    0 -0.14189482793E+02 -0.12117208128E+02 -0.87304763360E+01  0.20600712902E+02  0.51100000000E-03 0. -1.
        -11    1    3    3    0    0 -0.13131711103E+02  0.24458302847E+01 -0.84676782023E+01  0.15815356356E+02  0.51100000000E-03 0.  1.
         12    1    3    3    0    0 -0.46118412357E+01 -0.48779370801E+00 -0.10382549924E+02  0.11371207729E+02  0.00000000000E+00 0. -1.
</event>
<event>
 7    1  0.2685294E-009  0.4778728E+02  0.7816164E-02  0.1312668E+00
        -11   -1    0    0    0    0  0.00000000000E+00  0.00000000000E+00  0.45593999997E+02  0.45594000000E+02  0.51100000000E-03 0.  1.
         11   -1    0    0    0    0 -0.00000000000E+00 -0.00000000000E+00 -0.45593999997E+02  0.45594000000E+02  0.51100000000E-03 0. -1.
    9900012    2    1    2    0    0 -0.23197087804E+01  0.75610576254E+00 -0.43332088909E+02  0.47787277955E+02  0.20000031509E+02 0.  0.
        -12    1    1    2    0    0  0.23197087804E+01 -0.75610576254E+00  0.43332088909E+02  0.43400722045E+02  0.00000000000E+00 0.  1.
         11    1    3    3    0    0  0.19906982442E+01  0.58857235944E+01 -0.20059395370E+02  0.20999618202E+02  0.51100000000E-03 0. -1.
        -11    1    3    3    0    0  0.14036138817E+01 -0.70486305045E+01 -0.13810664262E+02  0.15568807647E+02  0.51100000000E-03 0.  1.
        -12    1    3    3    0    0 -0.57140209063E+01  0.19190126726E+01 -0.94620292769E+01  0.11218852107E+02  0.00000000000E+00 0.  1.
</event>
<event>
 7    1  0.2685294E-009  0.4778728E+02  0.7816164E-02  0.1312668E+00
        -11   -1    0    0    0    0  0.00000000000E+00  0.00000000000E+00  0.45593999997E+02  0.45594000000E+02  0.51100000000E-03 0.  1.
         11   -1    0    0    0    0 -0.00000000000E+00 -0.00000000000E+00 -0.45593999997E+02  0.45594000000E+02  0.51100000000E-03 0. -1.
    9900012    2    1    2    0    0  0.35847686475E+02  0.49368798224E+01 -0.23962328509E+02  0.47787278859E+02  0.20000035629E+02 0.  0.
        -12    1    1    2    0    0 -0.35847686475E+02 -0.49368798224E+01  0.23962328509E+02  0.43400721141E+02  0.00000000000E+00 0.  1.
         11    1    3    3    0    0  0.22519992215E+02  0.98951267223E+00 -0.21464373280E+02  0.31126331381E+02  0.51100000000E-03 0. -1.
        -11    1    3    3    0    0  0.12917533416E+02  0.45973400107E+00 -0.15142916856E+01  0.13014111744E+02  0.51100000000E-03 0.  1.
         12    1    3    3    0    0  0.41016084388E+00  0.34876331491E+01 -0.98366354337E+00  0.36468357335E+01  0.00000000000E+00 0. -1.
</event>
<event>
 7    1  0.2685294E-009  0.4778727E+02  0.7816164E-02  0.1312668E+00
        -11   -1    0    0    0    0  0.00000000000E+00  0.00000000000E+00  0.45593999997E+02  0.45594000000E+02  0.51100000000E-03 0.  1.
         11   -1    0    0    0    0 -0.00000000000E+00 -0.00000000000E+00 -0.45593999997E+02  0.45594000000E+02  0.51100000000E-03 0. -1.
    9900012    2    1    2    0    0  0.17816237712E+02 -0.26776464365E+02 -0.29141484465E+02  0.47787268590E+02  0.19999988810E+02 0.  0.
        -12    1    1    2    0    0 -0.17816237712E+02  0.26776464365E+02  0.29141484465E+02  0.43400731410E+02  0.00000000000E+00 0.  1.
         11    1    3    3    0    0  0.58074726761E+01 -0.10746375072E+02 -0.56513867934E+01  0.13459178616E+02  0.51100000000E-03 0.  1.
        -11    1    3    3    0    0  0.57064278396E+01 -0.13793913805E+02 -0.69085005762E+01  0.16448791968E+02  0.51100000000E-03 0. -1.
        -12    1    3    3    0    0  0.63023371967E+01 -0.22361754878E+01 -0.16581597095E+02  0.17879298006E+02  0.00000000000E+00 0.  1.
</event>
<event>
 7    1  0.2685294E-009  0.4778727E+02  0.7816164E-02  0.1312668E+00
        -11   -1    0    0    0    0  0.00000000000E+00  0.00000000000E+00  0.45593999997E+02  0.45594000000E+02  0.51100000000E-03 0.  1.
         11   -1    0    0    0    0 -0.00000000000E+00 -0.00000000000E+00 -0.45593999997E+02  0.45594000000E+02  0.51100000000E-03 0. -1.
    9900012    2    1    2    0    0  0.30257676205E+02  0.24791239256E+02 -0.18801362546E+02  0.47787265596E+02  0.19999975160E+02 0.  0.
        -12    1    1    2    0    0 -0.30257676205E+02 -0.24791239256E+02  0.18801362546E+02  0.43400734404E+02  0.00000000000E+00 0.  1.
         11    1    3    3    0    0  0.24113038535E+02  0.13695902270E+02 -0.16253219130E+02  0.32143171884E+02  0.51100000000E-03 0. -1.
        -11    1    3    3    0    0 -0.14807319936E+01  0.20515491659E+01 -0.28496724998E+01  0.38107813942E+01  0.51100000000E-03 0.  1.
         12    1    3    3    0    0  0.76253696632E+01  0.90437878202E+01  0.30152908317E+00  0.11833312318E+02  0.00000000000E+00 0. -1.
</event>
<event>
 7    1  0.2685294E-009  0.4778727E+02  0.7816164E-02  0.1312668E+00
        -11   -1    0    0    0    0  0.00000000000E+00  0.00000000000E+00  0.45593999997E+02  0.45594000000E+02  0.51100000000E-03 0.  1.
         11   -1    0    0    0    0 -0.00000000000E+00 -0.00000000000E+00 -0.45593999997E+02  0.45594000000E+02  0.51100000000E-03 0. -1.
    9900012    2    1    2    0    0 -0.40707515450E+02  0.55832144407E+01 -0.13976729117E+02  0.47787273573E+02  0.20000011529E+02 0.  0.
        -12    1    1    2    0    0  0.40707515450E+02 -0.55832144407E+01  0.13976729117E+02  0.43400726427E+02  0.00000000000E+00 0.  1.
         11    1    3    3    0    0 -0.31347107571E+02  0.73755202425E+01 -0.15876388011E+02  0.35904026912E+02  0.51100000000E-03 0. -1.
        -11    1    3    3    0    0 -0.10368694549E+02 -0.11622036169E+01  0.11967574066E+01  0.10502036585E+02  0.51100000000E-03 0.  1.
         12    1    3    3    0    0  0.10082866704E+01 -0.63010218490E+00  0.70290148749E+00  0.13812100760E+01  0.00000000000E+00 0. -1.
</event>
<event>
 7    1  0.2685294E-009  0.4778727E+02  0.7816164E-02  0.1312668E+00
        -11   -1    0    0    0    0  0.00000000000E+00  0.00000000000E+00  0.45593999997E+02  0.45594000000E+02  0.51100000000E-03 0.  1.
         11   -1    0    0    0    0 -0.00000000000E+00 -0.00000000000E+00 -0.45593999997E+02  0.45594000000E+02  0.51100000000E-03 0. -1.
    9900012    2    1    2    0    0 -0.26759229830E+02  0.32299945094E+02  0.11148109910E+02  0.47787272025E+02  0.20000004472E+02 0.  0.
        -12    1    1    2    0    0  0.26759229830E+02 -0.32299945094E+02 -0.11148109910E+02  0.43400727975E+02  0.00000000000E+00 0.  1.
         11    1    3    3    0    0 -0.74041637390E+01  0.12201028080E+02 -0.46076234215E+01  0.14997230436E+02  0.51100000000E-03 0. -1.
        -11    1    3    3    0    0 -0.17473573618E+02  0.14545695166E+02  0.11085564271E+02  0.25294124976E+02  0.51100000000E-03 0.  1.
         12    1    3    3    0    0 -0.18814924722E+01  0.55532218485E+01  0.46701690603E+01  0.74959166132E+01  0.00000000000E+00 0. -1.
</event>
<event>
 7    1  0.2685294E-009  0.4778727E+02  0.7816164E-02  0.1312668E+00
        -11   -1    0    0    0    0  0.00000000000E+00  0.00000000000E+00  0.45593999997E+02  0.45594000000E+02  0.51100000000E-03 0. -1.
         11   -1    0    0    0    0 -0.00000000000E+00 -0.00000000000E+00 -0.45593999997E+02  0.45594000000E+02  0.51100000000E-03 0.  1.
    9900012    2    1    2    0    0 -0.12654028451E+02 -0.40683029981E+02  0.82698176059E+01  0.47787271346E+02  0.20000001374E+02 0.  0.
        -12    1    1    2    0    0  0.12654028451E+02  0.40683029981E+02 -0.82698176059E+01  0.43400728654E+02  0.00000000000E+00 0.  1.
         11    1    3    3    0    0 -0.11563496888E+02 -0.23853078762E+02  0.13387160066E+02  0.29696799181E+02  0.51100000000E-03 0. -1.
        -11    1    3    3    0    0 -0.79423508427E+00 -0.16954646808E+02 -0.48003372893E+01  0.17638993625E+02  0.51100000000E-03 0.  1.
        -12    1    3    3    0    0 -0.29629647880E+00  0.12469558873E+00 -0.31700517123E+00  0.45147853967E+00  0.00000000000E+00 0.  1.
</event>
<event>
 7    1  0.2685294E-009  0.4778727E+02  0.7816164E-02  0.1312668E+00
        -11   -1    0    0    0    0  0.00000000000E+00  0.00000000000E+00  0.45593999997E+02  0.45594000000E+02  0.51100000000E-03 0.  1.
         11   -1    0    0    0    0 -0.00000000000E+00 -0.00000000000E+00 -0.45593999997E+02  0.45594000000E+02  0.51100000000E-03 0. -1.
    9900012    2    1    2    0    0  0.98528903734E+01  0.13956958931E+02 -0.39896706393E+02  0.47787270371E+02  0.19999996928E+02 0.  0.
        -12    1    1    2    0    0 -0.98528903734E+01 -0.13956958931E+02  0.39896706393E+02  0.43400729629E+02  0.00000000000E+00 0.  1.
         11    1    3    3    0    0  0.10882585069E+02  0.99823014056E+01 -0.31731304843E+02  0.34999324371E+02  0.51100000000E-03 0. -1.
        -11    1    3    3    0    0  0.21018512690E+01  0.14759270117E+01  0.10226804284E+01  0.27644194364E+01  0.51100000000E-03 0.  1.
         12    1    3    3    0    0 -0.31315459647E+01  0.24987305138E+01 -0.91880819793E+01  0.10023526563E+02  0.00000000000E+00 0. -1.
</event>
<event>
 7    1  0.2685294E-009  0.4778727E+02  0.7816164E-02  0.1312668E+00
        -11   -1    0    0    0    0  0.00000000000E+00  0.00000000000E+00  0.45593999997E+02  0.45594000000E+02  0.51100000000E-03 0.  1.
         11   -1    0    0    0    0 -0.00000000000E+00 -0.00000000000E+00 -0.45593999997E+02  0.45594000000E+02  0.51100000000E-03 0. -1.
    9900012    2    1    2    0    0 -0.18292599585E+01 -0.20307520019E+01 -0.43314580719E+02  0.47787273640E+02  0.20000011836E+02 0.  0.
        -12    1    1    2    0    0  0.18292599585E+01  0.20307520019E+01  0.43314580719E+02  0.43400726360E+02  0.00000000000E+00 0.  1.
         11    1    3    3    0    0  0.22093829317E+01 -0.91675428419E+01 -0.25347105089E+02  0.27044425514E+02  0.51100000000E-03 0. -1.
        -11    1    3    3    0    0  0.15641592312E+00 -0.13462412941E+00  0.45403535440E+00  0.49873636462E+00  0.51100000000E-03 0.  1.
         12    1    3    3    0    0 -0.41950588133E+01  0.72714149694E+01 -0.18421510984E+02  0.20244111762E+02  0.00000000000E+00 0. -1.
</event>
<event>
 7    1  0.2685294E-009  0.4778727E+02  0.7816164E-02  0.1312668E+00
        -11   -1    0    0    0    0  0.00000000000E+00  0.00000000000E+00  0.45593999997E+02  0.45594000000E+02  0.51100000000E-03 0. -1.
         11   -1    0    0    0    0 -0.00000000000E+00 -0.00000000000E+00 -0.45593999997E+02  0.45594000000E+02  0.51100000000E-03 0.  1.
    9900012    2    1    2    0    0  0.31584251623E+02 -0.23559254007E+02  0.18193955385E+02  0.47787269447E+02  0.19999992719E+02 0.  0.
        -12    1    1    2    0    0 -0.31584251623E+02  0.23559254007E+02 -0.18193955385E+02  0.43400730553E+02  0.00000000000E+00 0.  1.
         11    1    3    3    0    0  0.37584163642E+01 -0.47302477170E+01  0.94434982083E+01  0.11210735734E+02  0.51100000000E-03 0. -1.
        -11    1    3    3    0    0  0.27379294289E+02 -0.20113590055E+02  0.91028473469E+01  0.35171637590E+02  0.51100000000E-03 0.  1.
         12    1    3    3    0    0  0.44654096942E+00  0.12845837646E+01 -0.35239017049E+00  0.14048961235E+01  0.00000000000E+00 0. -1.
</event>
<event>
 7    1  0.2685294E-009  0.4778728E+02  0.7816164E-02  0.1312668E+00
        -11   -1    0    0    0    0  0.00000000000E+00  0.00000000000E+00  0.45593999997E+02  0.45594000000E+02  0.51100000000E-03 0.  1.
         11   -1    0    0    0    0 -0.00000000000E+00 -0.00000000000E+00 -0.45593999997E+02  0.45594000000E+02  0.51100000000E-03 0. -1.
    9900012    2    1    2    0    0 -0.56691038922E+01  0.20548043632E+02 -0.37805574189E+02  0.47787282543E+02  0.20000052425E+02 0.  0.
        -12    1    1    2    0    0  0.56691038922E+01 -0.20548043632E+02  0.37805574189E+02  0.43400717457E+02  0.00000000000E+00 0.  1.
         11    1    3    3    0    0  0.40953549558E+00  0.17379680689E+02 -0.12761939322E+02  0.21565901690E+02  0.51100000000E-03 0. -1.
        -11    1    3    3    0    0 -0.41467922629E+01  0.28314740188E+00 -0.11122644561E+02  0.11873890720E+02  0.51100000000E-03 0.  1.
         12    1    3    3    0    0 -0.19318471249E+01  0.28852155409E+01 -0.13920990306E+02  0.14347490133E+02  0.00000000000E+00 0. -1.
</event>
<event>
 7    1  0.2685294E-009  0.4778728E+02  0.7816164E-02  0.1312668E+00
        -11   -1    0    0    0    0  0.00000000000E+00  0.00000000000E+00  0.45593999997E+02  0.45594000000E+02  0.51100000000E-03 0.  1.
         11   -1    0    0    0    0 -0.00000000000E+00 -0.00000000000E+00 -0.45593999997E+02  0.45594000000E+02  0.51100000000E-03 0. -1.
    9900012    2    1    2    0    0 -0.19147169045E+02 -0.24921656007E+02 -0.29931920803E+02  0.47787275311E+02  0.20000019454E+02 0.  0.
        -12    1    1    2    0    0  0.19147169045E+02  0.24921656007E+02  0.29931920803E+02  0.43400724689E+02  0.00000000000E+00 0.  1.
         11    1    3    3    0    0 -0.26784044255E+01  0.21666430455E+01 -0.10707097603E+01  0.36075770269E+01  0.51100000000E-03 0. -1.
        -11    1    3    3    0    0 -0.54585652145E+01 -0.17646706758E+01 -0.37340783840E+01  0.68449498489E+01  0.51100000000E-03 0.  1.
         12    1    3    3    0    0 -0.11010199405E+02 -0.25323628376E+02 -0.25127132659E+02  0.37334748435E+02  0.00000000000E+00 0. -1.
</event>
<event>
 7    1  0.2685294E-009  0.4778728E+02  0.7816164E-02  0.1312668E+00
        -11   -1    0    0    0    0  0.00000000000E+00  0.00000000000E+00  0.45593999997E+02  0.45594000000E+02  0.51100000000E-03 0.  1.
         11   -1    0    0    0    0 -0.00000000000E+00 -0.00000000000E+00 -0.45593999997E+02  0.45594000000E+02  0.51100000000E-03 0. -1.
    9900012    2    1    2    0    0 -0.29533877887E+02  0.19620499044E+02 -0.25028163173E+02  0.47787275610E+02  0.20000020816E+02 0.  0.
        -12    1    1    2    0    0  0.29533877887E+02 -0.19620499044E+02  0.25028163173E+02  0.43400724390E+02  0.00000000000E+00 0.  1.
         11    1    3    3    0    0 -0.31113166989E+00  0.72664829330E+01 -0.47703604147E+01  0.86979834375E+01  0.51100000000E-03 0. -1.
        -11    1    3    3    0    0 -0.29207582143E+02  0.99729225848E+01 -0.19788525020E+02  0.36662348019E+02  0.51100000000E-03 0.  1.
        -12    1    3    3    0    0 -0.15164073579E-01  0.23810935258E+01 -0.46927773896E+00  0.24269441534E+01  0.00000000000E+00 0.  1.
</event>
<event>
 7    1  0.2685294E-009  0.4778724E+02  0.7816164E-02  0.1312668E+00
        -11   -1    0    0    0    0  0.00000000000E+00  0.00000000000E+00  0.45593999997E+02  0.45594000000E+02  0.51100000000E-03 0.  1.
         11   -1    0    0    0    0 -0.00000000000E+00 -0.00000000000E+00 -0.45593999997E+02  0.45594000000E+02  0.51100000000E-03 0. -1.
    9900012    2    1    2    0    0 -0.31652455527E+02 -0.29676789328E+02 -0.10177315939E+01  0.47787244899E+02  0.19999880793E+02 0.  0.
        -12    1    1    2    0    0  0.31652455527E+02  0.29676789328E+02  0.10177315939E+01  0.43400755101E+02  0.00000000000E+00 0.  1.
         11    1    3    3    0    0 -0.19923195675E+02 -0.84471788778E+01 -0.57009805695E+00  0.21647484125E+02  0.51100000000E-03 0.  1.
        -11    1    3    3    0    0 -0.75296905833E+01 -0.13752014391E+02  0.44054776194E+01  0.16285649308E+02  0.51100000000E-03 0. -1.
        -12    1    3    3    0    0 -0.41995692689E+01 -0.74775960600E+01 -0.48531111564E+01  0.98541114656E+01  0.00000000000E+00 0.  1.
</event>
<event>
 7    1  0.2685294E-009  0.4778729E+02  0.7816164E-02  0.1312668E+00
        -11   -1    0    0    0    0  0.00000000000E+00  0.00000000000E+00  0.45593999997E+02  0.45594000000E+02  0.51100000000E-03 0. -1.
         11   -1    0    0    0    0 -0.00000000000E+00 -0.00000000000E+00 -0.45593999997E+02  0.45594000000E+02  0.51100000000E-03 0.  1.
    9900012    2    1    2    0    0  0.15065668944E+02  0.14934425435E+02  0.37863046676E+02  0.47787288630E+02  0.20000080181E+02 0.  0.
        -12    1    1    2    0    0 -0.15065668944E+02 -0.14934425435E+02 -0.37863046676E+02  0.43400711370E+02  0.00000000000E+00 0.  1.
         11    1    3    3    0    0  0.14281674233E+02  0.31234857048E+01  0.16806111642E+02  0.22274823694E+02  0.51100000000E-03 0. -1.
        -11    1    3    3    0    0  0.11097170204E+00  0.68263714275E+01  0.44231826710E+01  0.81348759540E+01  0.51100000000E-03 0.  1.
         12    1    3    3    0    0  0.67302300887E+00  0.49845683026E+01  0.16633752363E+02  0.17377588982E+02  0.00000000000E+00 0. -1.
</event>
<event>
 7    1  0.2685294E-009  0.4778729E+02  0.7816164E-02  0.1312668E+00
        -11   -1    0    0    0    0  0.00000000000E+00  0.00000000000E+00  0.45593999997E+02  0.45594000000E+02  0.51100000000E-03 0.  1.
         11   -1    0    0    0    0 -0.00000000000E+00 -0.00000000000E+00 -0.45593999997E+02  0.45594000000E+02  0.51100000000E-03 0. -1.
    9900012    2    1    2    0    0 -0.57810353546E+00  0.38418741837E+02 -0.20181375037E+02  0.47787287720E+02  0.20000076030E+02 0.  0.
        -12    1    1    2    0    0  0.57810353546E+00 -0.38418741837E+02  0.20181375037E+02  0.43400712280E+02  0.00000000000E+00 0.  1.
         11    1    3    3    0    0  0.29262796862E+01  0.62748063865E+01 -0.19773324553E+01  0.72004272018E+01  0.51100000000E-03 0. -1.
        -11    1    3    3    0    0 -0.41135942586E+01  0.26393996402E+02 -0.64389859530E+01  0.27477722689E+02  0.51100000000E-03 0.  1.
        -12    1    3    3    0    0  0.60921103702E+00  0.57499390480E+01 -0.11765056629E+02  0.13109137829E+02  0.00000000000E+00 0.  1.
</event>
<event>
 7    1  0.2685294E-009  0.4778727E+02  0.7816164E-02  0.1312668E+00
        -11   -1    0    0    0    0  0.00000000000E+00  0.00000000000E+00  0.45593999997E+02  0.45594000000E+02  0.51100000000E-03 0. -1.
         11   -1    0    0    0    0 -0.00000000000E+00 -0.00000000000E+00 -0.45593999997E+02  0.45594000000E+02  0.51100000000E-03 0.  1.
    9900012    2    1    2    0    0  0.16470783776E+00 -0.34032531145E+02  0.26932930976E+02  0.47787273327E+02  0.20000010406E+02 0.  0.
        -12    1    1    2    0    0 -0.16470783776E+00  0.34032531145E+02 -0.26932930976E+02  0.43400726673E+02  0.00000000000E+00 0.  1.
         11    1    3    3    0    0  0.67588150314E+00 -0.48747325438E+01  0.48568881292E+01  0.69144194073E+01  0.51100000000E-03 0. -1.
        -11    1    3    3    0    0  0.49270536861E+01 -0.11814875792E+02  0.18261469268E+02  0.22301309560E+02  0.51100000000E-03 0.  1.
        -12    1    3    3    0    0 -0.54382273515E+01 -0.17342922809E+02  0.38145735789E+01  0.18571544359E+02  0.00000000000E+00 0.  1.
</event>
<event>
 7    1  0.2685294E-009  0.4778727E+02  0.7816164E-02  0.1312668E+00
        -11   -1    0    0    0    0  0.00000000000E+00  0.00000000000E+00  0.45593999997E+02  0.45594000000E+02  0.51100000000E-03 0.  1.
         11   -1    0    0    0    0 -0.00000000000E+00 -0.00000000000E+00 -0.45593999997E+02  0.45594000000E+02  0.51100000000E-03 0. -1.
    9900012    2    1    2    0    0  0.11513636667E+02 -0.52921383439E+00 -0.41842311866E+02  0.47787274674E+02  0.20000016547E+02 0.  0.
        -12    1    1    2    0    0 -0.11513636667E+02  0.52921383439E+00  0.41842311866E+02  0.43400725326E+02  0.00000000000E+00 0.  1.
         11    1    3    3    0    0  0.26217048072E+01 -0.32187032017E+01 -0.21805467586E+02  0.22197112499E+02  0.51100000000E-03 0. -1.
        -11    1    3    3    0    0  0.67834149011E+01  0.36025043965E+01 -0.27604879372E+01  0.81616817850E+01  0.51100000000E-03 0.  1.
        -12    1    3    3    0    0  0.21085169592E+01 -0.91301502916E+00 -0.17276356343E+02  0.17428480390E+02  0.00000000000E+00 0.  1.
</event>
<event>
 7    1  0.2685294E-009  0.4778727E+02  0.7816164E-02  0.1312668E+00
        -11   -1    0    0    0    0  0.00000000000E+00  0.00000000000E+00  0.45593999997E+02  0.45594000000E+02  0.51100000000E-03 0.  1.
         11   -1    0    0    0    0 -0.00000000000E+00 -0.00000000000E+00 -0.45593999997E+02  0.45594000000E+02  0.51100000000E-03 0. -1.
    9900012    2    1    2    0    0  0.28523548559E+02 -0.32693767049E+02 -0.10715063089E+01  0.47787270144E+02  0.19999995895E+02 0.  0.
        -12    1    1    2    0    0 -0.28523548559E+02  0.32693767049E+02  0.10715063089E+01  0.43400729856E+02  0.00000000000E+00 0.  1.
         11    1    3    3    0    0  0.32318612176E+01 -0.12594752041E+02  0.10589791485E+00  0.13003227312E+02  0.51100000000E-03 0. -1.
        -11    1    3    3    0    0  0.19876521828E+02 -0.17424142524E+02 -0.59408362602E+01  0.27091888056E+02  0.51100000000E-03 0.  1.
        -12    1    3    3    0    0  0.54151655129E+01 -0.26748724846E+01  0.47634320365E+01  0.76921547766E+01  0.00000000000E+00 0.  1.
</event>
<event>
 7    1  0.2685294E-009  0.4778727E+02  0.7816164E-02  0.1312668E+00
        -11   -1    0    0    0    0  0.00000000000E+00  0.00000000000E+00  0.45593999997E+02  0.45594000000E+02  0.51100000000E-03 0.  1.
         11   -1    0    0    0    0 -0.00000000000E+00 -0.00000000000E+00 -0.45593999997E+02  0.45594000000E+02  0.51100000000E-03 0. -1.
    9900012    2    1    2    0    0  0.36408603746E+02 -0.59600590870E+00 -0.23615287608E+02  0.47787268916E+02  0.19999990297E+02 0.  0.
        -12    1    1    2    0    0 -0.36408603746E+02  0.59600590870E+00  0.23615287608E+02  0.43400731084E+02  0.00000000000E+00 0.  1.
         11    1    3    3    0    0 -0.22292150256E+00 -0.24826803408E+01 -0.12129717522E+01  0.27721284969E+01  0.51100000000E-03 0.  1.
        -11    1    3    3    0    0  0.20327050712E+02  0.68389452102E+01 -0.86793276176E+01  0.23136354302E+02  0.51100000000E-03 0. -1.
        -12    1    3    3    0    0  0.16304474537E+02 -0.49522707781E+01 -0.13722988239E+02  0.21878786117E+02  0.00000000000E+00 0.  1.
</event>
<event>
 7    1  0.2685294E-009  0.4778726E+02  0.7816164E-02  0.1312668E+00
        -11   -1    0    0    0    0  0.00000000000E+00  0.00000000000E+00  0.45593999997E+02  0.45594000000E+02  0.51100000000E-03 0.  1.
         11   -1    0    0    0    0 -0.00000000000E+00 -0.00000000000E+00 -0.45593999997E+02  0.45594000000E+02  0.51100000000E-03 0. -1.
    9900012    2    1    2    0    0  0.30169584173E+02 -0.10396576229E+02 -0.29416514476E+02  0.47787263481E+02  0.19999965514E+02 0.  0.
        -12    1    1    2    0    0 -0.30169584173E+02  0.10396576229E+02  0.29416514476E+02  0.43400736519E+02  0.00000000000E+00 0.  1.
         11    1    3    3    0    0  0.25547658840E+02 -0.71804380942E+01 -0.14877871268E+02  0.30423553658E+02  0.51100000000E-03 0. -1.
        -11    1    3    3    0    0  0.69904791238E+00 -0.35719290089E+01 -0.18602629949E+01  0.40875326910E+01  0.51100000000E-03 0.  1.
         12    1    3    3    0    0  0.39228774206E+01  0.35579087432E+00 -0.12678380213E+02  0.13276177132E+02  0.00000000000E+00 0. -1.
</event>
<event>
 7    1  0.2685294E-009  0.4778727E+02  0.7816164E-02  0.1312668E+00
        -11   -1    0    0    0    0  0.00000000000E+00  0.00000000000E+00  0.45593999997E+02  0.45594000000E+02  0.51100000000E-03 0.  1.
         11   -1    0    0    0    0 -0.00000000000E+00 -0.00000000000E+00 -0.45593999997E+02  0.45594000000E+02  0.51100000000E-03 0. -1.
    9900012    2    1    2    0    0 -0.33486666025E+02 -0.27474339055E+02 -0.27252807291E+01  0.47787271169E+02  0.20000000570E+02 0.  0.
        -12    1    1    2    0    0  0.33486666025E+02  0.27474339055E+02  0.27252807291E+01  0.43400728831E+02  0.00000000000E+00 0.  1.
         11    1    3    3    0    0 -0.12935023513E+02 -0.80070420654E+01  0.45693035685E+01  0.15884145910E+02  0.51100000000E-03 0. -1.
        -11    1    3    3    0    0 -0.65814121727E+01 -0.11359877389E+02 -0.86055548153E+01  0.15697686913E+02  0.51100000000E-03 0.  1.
        -12    1    3    3    0    0 -0.13970230339E+02 -0.81074196009E+01  0.13109705177E+01  0.16205438346E+02  0.00000000000E+00 0.  1.
</event>
<event>
 7    1  0.2685294E-009  0.4778727E+02  0.7816164E-02  0.1312668E+00
        -11   -1    0    0    0    0  0.00000000000E+00  0.00000000000E+00  0.45593999997E+02  0.45594000000E+02  0.51100000000E-03 0. -1.
         11   -1    0    0    0    0 -0.00000000000E+00 -0.00000000000E+00 -0.45593999997E+02  0.45594000000E+02  0.51100000000E-03 0.  1.
    9900012    2    1    2    0    0 -0.27215144598E+02 -0.80713064096E+01  0.32830062287E+02  0.47787273365E+02  0.20000010581E+02 0.  0.
        -12    1    1    2    0    0  0.27215144598E+02  0.80713064096E+01 -0.32830062287E+02  0.43400726635E+02  0.00000000000E+00 0.  1.
         11    1    3    3    0    0 -0.12314878525E+02 -0.27323672242E+00  0.14881024444E+02  0.19317758156E+02  0.51100000000E-03 0. -1.
        -11    1    3    3    0    0 -0.14412500851E+01 -0.26189195276E+01 -0.21856582440E+01  0.37031126799E+01  0.51100000000E-03 0.  1.
        -12    1    3    3    0    0 -0.13459015989E+02 -0.51791501597E+01  0.20134696087E+02  0.24766402530E+02  0.00000000000E+00 0.  1.
</event>
<event>
 7    1  0.2685294E-009  0.4778727E+02  0.7816164E-02  0.1312668E+00
        -11   -1    0    0    0    0  0.00000000000E+00  0.00000000000E+00  0.45593999997E+02  0.45594000000E+02  0.51100000000E-03 0.  1.
         11   -1    0    0    0    0 -0.00000000000E+00 -0.00000000000E+00 -0.45593999997E+02  0.45594000000E+02  0.51100000000E-03 0. -1.
    9900012    2    1    2    0    0  0.83024078814E+01 -0.18610753791E+02 -0.38318835137E+02  0.47787271210E+02  0.20000000753E+02 0.  0.
        -12    1    1    2    0    0 -0.83024078814E+01  0.18610753791E+02  0.38318835137E+02  0.43400728790E+02  0.00000000000E+00 0.  1.
         11    1    3    3    0    0  0.10767404137E+02 -0.85035242271E+01 -0.10488122585E+02  0.17269847473E+02  0.51100000000E-03 0. -1.
        -11    1    3    3    0    0 -0.42744934487E+01 -0.42383681904E+01 -0.17413899324E+02  0.18424954520E+02  0.51100000000E-03 0.  1.
        -12    1    3    3    0    0  0.18094971931E+01 -0.58688613736E+01 -0.10416813228E+02  0.12092469216E+02  0.00000000000E+00 0.  1.
</event>
<event>
 7    1  0.2685294E-009  0.4778727E+02  0.7816164E-02  0.1312668E+00
        -11   -1    0    0    0    0  0.00000000000E+00  0.00000000000E+00  0.45593999997E+02  0.45594000000E+02  0.51100000000E-03 0.  1.
         11   -1    0    0    0    0 -0.00000000000E+00 -0.00000000000E+00 -0.45593999997E+02  0.45594000000E+02  0.51100000000E-03 0. -1.
    9900012    2    1    2    0    0 -0.33354892879E+02 -0.27214216919E+02 -0.55191201854E+01  0.47787272251E+02  0.20000005502E+02 0.  0.
        -12    1    1    2    0    0  0.33354892879E+02  0.27214216919E+02  0.55191201854E+01  0.43400727749E+02  0.00000000000E+00 0.  1.
         11    1    3    3    0    0 -0.10315729963E+02 -0.12489541488E+00 -0.27484707040E+01  0.10676327786E+02  0.51100000000E-03 0.  1.
        -11    1    3    3    0    0 -0.79826417713E+01 -0.33281714326E+01 -0.24122440225E+01  0.89787647379E+01  0.51100000000E-03 0. -1.
         12    1    3    3    0    0 -0.15056521145E+02 -0.23761150072E+02 -0.35840545899E+00  0.28132179727E+02  0.00000000000E+00 0. -1.
</event>
<event>
 7    1  0.2685294E-009  0.4778727E+02  0.7816164E-02  0.1312668E+00
        -11   -1    0    0    0    0  0.00000000000E+00  0.00000000000E+00  0.45593999997E+02  0.45594000000E+02  0.51100000000E-03 0.  1.
         11   -1    0    0    0    0 -0.00000000000E+00 -0.00000000000E+00 -0.45593999997E+02  0.45594000000E+02  0.51100000000E-03 0. -1.
    9900012    2    1    2    0    0 -0.29176537768E+02 -0.27532619918E+02  0.16562250041E+02  0.47787266802E+02  0.19999980659E+02 0.  0.
        -12    1    1    2    0    0  0.29176537768E+02  0.27532619918E+02 -0.16562250041E+02  0.43400733198E+02  0.00000000000E+00 0.  1.
         11    1    3    3    0    0 -0.18558655086E+02 -0.25201134730E+02  0.10894428378E+02  0.33139243206E+02  0.51100000000E-03 0. -1.
        -11    1    3    3    0    0 -0.27261709775E+01 -0.56459789579E+00  0.59360552048E+01  0.65564876754E+01  0.51100000000E-03 0.  1.
         12    1    3    3    0    0 -0.78917117049E+01 -0.17668872917E+01 -0.26823354216E+00  0.80915359214E+01  0.00000000000E+00 0. -1.
</event>
<event>
 7    1  0.2685294E-009  0.4778728E+02  0.7816164E-02  0.1312668E+00
        -11   -1    0    0    0    0  0.00000000000E+00  0.00000000000E+00  0.45593999997E+02  0.45594000000E+02  0.51100000000E-03 0.  1.
         11   -1    0    0    0    0 -0.00000000000E+00 -0.00000000000E+00 -0.45593999997E+02  0.45594000000E+02  0.51100000000E-03 0. -1.
    9900012    2    1    2    0    0  0.77976226280E+01  0.74695623547E-01 -0.42694429219E+02  0.47787276683E+02  0.20000025710E+02 0.  0.
        -12    1    1    2    0    0 -0.77976226280E+01 -0.74695623547E-01  0.42694429219E+02  0.43400723317E+02  0.00000000000E+00 0.  1.
         11    1    3    3    0    0 -0.29145971518E+01  0.48009886730E+01 -0.10171317247E+02  0.11618952775E+02  0.51100000000E-03 0. -1.
        -11    1    3    3    0    0  0.76778082470E+01 -0.74263095598E+01 -0.16634812861E+02  0.19769061999E+02  0.51100000000E-03 0.  1.
        -12    1    3    3    0    0  0.30344115328E+01  0.27000165104E+01 -0.15888299111E+02  0.16399261909E+02  0.00000000000E+00 0.  1.
</event>
<event>
 7    1  0.2685294E-009  0.4778727E+02  0.7816164E-02  0.1312668E+00
        -11   -1    0    0    0    0  0.00000000000E+00  0.00000000000E+00  0.45593999997E+02  0.45594000000E+02  0.51100000000E-03 0.  1.
         11   -1    0    0    0    0 -0.00000000000E+00 -0.00000000000E+00 -0.45593999997E+02  0.45594000000E+02  0.51100000000E-03 0. -1.
    9900012    2    1    2    0    0  0.20012797403E+02 -0.12234628924E+02 -0.36516094398E+02  0.47787270111E+02  0.19999995745E+02 0.  0.
        -12    1    1    2    0    0 -0.20012797403E+02  0.12234628924E+02  0.36516094398E+02  0.43400729889E+02  0.00000000000E+00 0.  1.
         11    1    3    3    0    0 -0.77460557390E+00  0.39866065628E+00 -0.28539139510E+00  0.91672930765E+00  0.51100000000E-03 0. -1.
        -11    1    3    3    0    0  0.11996757205E+01 -0.70640170914E+00  0.19115523931E+01  0.23647955560E+01  0.51100000000E-03 0.  1.
         12    1    3    3    0    0  0.19587727256E+02 -0.11926887872E+02 -0.38142255396E+02  0.44505745248E+02  0.00000000000E+00 0. -1.
</event>
<event>
 7    1  0.2685294E-009  0.4778728E+02  0.7816164E-02  0.1312668E+00
        -11   -1    0    0    0    0  0.00000000000E+00  0.00000000000E+00  0.45593999997E+02  0.45594000000E+02  0.51100000000E-03 0.  1.
         11   -1    0    0    0    0 -0.00000000000E+00 -0.00000000000E+00 -0.45593999997E+02  0.45594000000E+02  0.51100000000E-03 0. -1.
    9900012    2    1    2    0    0  0.28609630759E+02 -0.16954044887E+02 -0.27886769868E+02  0.47787279454E+02  0.20000038345E+02 0.  0.
        -12    1    1    2    0    0 -0.28609630759E+02  0.16954044887E+02  0.27886769868E+02  0.43400720546E+02  0.00000000000E+00 0.  1.
         11    1    3    3    0    0  0.17216972012E+02 -0.13787716728E+02 -0.18588384136E+02  0.28845333814E+02  0.51100000000E-03 0. -1.
        -11    1    3    3    0    0 -0.65842169998E+00 -0.16249852986E+00  0.20247161300E+01  0.21352752927E+01  0.51100000000E-03 0.  1.
        -12    1    3    3    0    0  0.12051080448E+02 -0.30038296297E+01 -0.11323101862E+02  0.16806670348E+02  0.00000000000E+00 0.  1.
</event>
<event>
 7    1  0.2685294E-009  0.4778728E+02  0.7816164E-02  0.1312668E+00
        -11   -1    0    0    0    0  0.00000000000E+00  0.00000000000E+00  0.45593999997E+02  0.45594000000E+02  0.51100000000E-03 0.  1.
         11   -1    0    0    0    0 -0.00000000000E+00 -0.00000000000E+00 -0.45593999997E+02  0.45594000000E+02  0.51100000000E-03 0. -1.
    9900012    2    1    2    0    0  0.63348686782E+01 -0.89970540881E+01 -0.41982671066E+02  0.47787283263E+02  0.20000055708E+02 0.  0.
        -12    1    1    2    0    0 -0.63348686782E+01  0.89970540881E+01  0.41982671066E+02  0.43400716737E+02  0.00000000000E+00 0.  1.
         11    1    3    3    0    0  0.87550743993E+01 -0.12992191311E+02 -0.30220055524E+02  0.34039684472E+02  0.51100000000E-03 0. -1.
        -11    1    3    3    0    0 -0.15709176941E+01  0.30362455635E+01 -0.21249180056E+01  0.40251517133E+01  0.51100000000E-03 0.  1.
        -12    1    3    3    0    0 -0.84928802702E+00  0.95889165967E+00 -0.96376975369E+01  0.97224470778E+01  0.00000000000E+00 0.  1.
</event>
<event>
 7    1  0.2685294E-009  0.4778727E+02  0.7816164E-02  0.1312668E+00
        -11   -1    0    0    0    0  0.00000000000E+00  0.00000000000E+00  0.45593999997E+02  0.45594000000E+02  0.51100000000E-03 0. -1.
         11   -1    0    0    0    0 -0.00000000000E+00 -0.00000000000E+00 -0.45593999997E+02  0.45594000000E+02  0.51100000000E-03 0.  1.
    9900012    2    1    2    0    0  0.74909844406E+01 -0.33364676067E+02  0.26726512726E+02  0.47787274897E+02  0.20000017567E+02 0.  0.
        -12    1    1    2    0    0 -0.74909844406E+01  0.33364676067E+02 -0.26726512726E+02  0.43400725103E+02  0.00000000000E+00 0.  1.
         11    1    3    3    0    0  0.76190933808E+00  0.13067540743E+01  0.50174455996E+00  0.15936937958E+01  0.51100000000E-03 0. -1.
        -11    1    3    3    0    0  0.62433776524E+01 -0.44074820505E+01  0.38766006778E+01  0.85693462768E+01  0.51100000000E-03 0.  1.
         12    1    3    3    0    0  0.48569745015E+00 -0.30263948091E+02  0.22348167489E+02  0.37624234825E+02  0.00000000000E+00 0. -1.
</event>
<event>
 7    1  0.2685294E-009  0.4778727E+02  0.7816164E-02  0.1312668E+00
        -11   -1    0    0    0    0  0.00000000000E+00  0.00000000000E+00  0.45593999997E+02  0.45594000000E+02  0.51100000000E-03 0.  1.
         11   -1    0    0    0    0 -0.00000000000E+00 -0.00000000000E+00 -0.45593999997E+02  0.45594000000E+02  0.51100000000E-03 0. -1.
    9900012    2    1    2    0    0  0.23694225617E+01  0.27814576962E+02 -0.33231888241E+02  0.47787271309E+02  0.20000001208E+02 0.  0.
        -12    1    1    2    0    0 -0.23694225617E+01 -0.27814576962E+02  0.33231888241E+02  0.43400728691E+02  0.00000000000E+00 0.  1.
         11    1    3    3    0    0 -0.63359571825E+01  0.16249665301E+02 -0.24407613571E+02  0.29998792914E+02  0.51100000000E-03 0. -1.
        -11    1    3    3    0    0  0.19861038247E+01  0.34683596237E+01  0.90883680992E-01  0.39977977671E+01  0.51100000000E-03 0.  1.
         12    1    3    3    0    0  0.67192759195E+01  0.80965520375E+01 -0.89151583510E+01  0.13790680629E+02  0.00000000000E+00 0. -1.
</event>
<event>
 7    1  0.2685294E-009  0.4778727E+02  0.7816164E-02  0.1312668E+00
        -11   -1    0    0    0    0  0.00000000000E+00  0.00000000000E+00  0.45593999997E+02  0.45594000000E+02  0.51100000000E-03 0. -1.
         11   -1    0    0    0    0 -0.00000000000E+00 -0.00000000000E+00 -0.45593999997E+02  0.45594000000E+02  0.51100000000E-03 0.  1.
    9900012    2    1    2    0    0  0.34677662546E+02  0.20910025097E+02  0.15615819603E+02  0.47787271307E+02  0.20000001198E+02 0.  0.
        -12    1    1    2    0    0 -0.34677662546E+02 -0.20910025097E+02 -0.15615819603E+02  0.43400728693E+02  0.00000000000E+00 0.  1.
         11    1    3    3    0    0  0.67548505277E+01  0.12229122376E+01  0.79055936657E+01  0.10470049258E+02  0.51100000000E-03 0. -1.
        -11    1    3    3    0    0  0.11692818369E+02  0.12386752986E+02 -0.18181335827E+01  0.17130652670E+02  0.51100000000E-03 0.  1.
         12    1    3    3    0    0  0.16229993649E+02  0.73003598739E+01  0.95283595201E+01  0.20186569379E+02  0.00000000000E+00 0. -1.
</event>
<event>
 7    1  0.2685294E-009  0.4778727E+02  0.7816164E-02  0.1312668E+00
        -11   -1    0    0    0    0  0.00000000000E+00  0.00000000000E+00  0.45593999997E+02  0.45594000000E+02  0.51100000000E-03 0.  1.
         11   -1    0    0    0    0 -0.00000000000E+00 -0.00000000000E+00 -0.45593999997E+02  0.45594000000E+02  0.51100000000E-03 0. -1.
    9900012    2    1    2    0    0  0.39775985471E+02  0.11818970429E+02 -0.12720313240E+02  0.47787269002E+02  0.19999990689E+02 0.  0.
        -12    1    1    2    0    0 -0.39775985471E+02 -0.11818970429E+02  0.12720313240E+02  0.43400730998E+02  0.00000000000E+00 0.  1.
         11    1    3    3    0    0  0.22784726254E+02  0.13045025948E+02 -0.92303540765E+01  0.27830125567E+02  0.51100000000E-03 0. -1.
        -11    1    3    3    0    0  0.19311419331E+01  0.32264763130E+01  0.39001770520E+00  0.37804196375E+01  0.51100000000E-03 0.  1.
         12    1    3    3    0    0  0.15060117285E+02 -0.44525318313E+01 -0.38799768686E+01  0.16176723798E+02  0.00000000000E+00 0. -1.
</event>
<event>
 7    1  0.2685294E-009  0.4778727E+02  0.7816164E-02  0.1312668E+00
        -11   -1    0    0    0    0  0.00000000000E+00  0.00000000000E+00  0.45593999997E+02  0.45594000000E+02  0.51100000000E-03 0. -1.
         11   -1    0    0    0    0 -0.00000000000E+00 -0.00000000000E+00 -0.45593999997E+02  0.45594000000E+02  0.51100000000E-03 0.  1.
    9900012    2    1    2    0    0  0.30486975896E+02 -0.60961289213E+01 -0.30282086042E+02  0.47787271640E+02  0.20000002717E+02 0.  0.
        -12    1    1    2    0    0 -0.30486975896E+02  0.60961289213E+01  0.30282086042E+02  0.43400728360E+02  0.00000000000E+00 0.  1.
         11    1    3    3    0    0  0.68604844570E+01 -0.51621684213E+00 -0.12667161079E+01  0.69955197643E+01  0.51100000000E-03 0. -1.
        -11    1    3    3    0    0  0.25252190330E+02 -0.32274989430E+01 -0.27769180540E+02  0.37672499970E+02  0.51100000000E-03 0.  1.
        -12    1    3    3    0    0 -0.16256988907E+01 -0.23524131362E+01 -0.12461893936E+01  0.31192519058E+01  0.00000000000E+00 0.  1.
</event>
<event>
 7    1  0.2685294E-009  0.4778726E+02  0.7816164E-02  0.1312668E+00
        -11   -1    0    0    0    0  0.00000000000E+00  0.00000000000E+00  0.45593999997E+02  0.45594000000E+02  0.51100000000E-03 0.  1.
         11   -1    0    0    0    0 -0.00000000000E+00 -0.00000000000E+00 -0.45593999997E+02  0.45594000000E+02  0.51100000000E-03 0. -1.
    9900012    2    1    2    0    0  0.20350617591E+02 -0.37884657916E+02 -0.58505489445E+01  0.47787264238E+02  0.19999968967E+02 0.  0.
        -12    1    1    2    0    0 -0.20350617591E+02  0.37884657916E+02  0.58505489445E+01  0.43400735762E+02  0.00000000000E+00 0.  1.
         11    1    3    3    0    0 -0.60898996180E+00 -0.11744397845E+02 -0.63013396175E+01  0.13341987511E+02  0.51100000000E-03 0.  1.
        -11    1    3    3    0    0  0.20743748260E+02 -0.26397611221E+02 -0.35236688702E+00  0.33574709719E+02  0.51100000000E-03 0. -1.
        -12    1    3    3    0    0  0.21585929281E+00  0.25735114997E+00  0.80315756003E+00  0.87056700771E+00  0.00000000000E+00 0.  1.
</event>
<event>
 7    1  0.2685294E-009  0.4778727E+02  0.7816164E-02  0.1312668E+00
        -11   -1    0    0    0    0  0.00000000000E+00  0.00000000000E+00  0.45593999997E+02  0.45594000000E+02  0.51100000000E-03 0.  1.
         11   -1    0    0    0    0 -0.00000000000E+00 -0.00000000000E+00 -0.45593999997E+02  0.45594000000E+02  0.51100000000E-03 0. -1.
    9900012    2    1    2    0    0 -0.94330353216E+01 -0.77301951634E+01 -0.41651951687E+02  0.47787272449E+02  0.20000006402E+02 0.  0.
        -12    1    1    2    0    0  0.94330353216E+01  0.77301951634E+01  0.41651951687E+02  0.43400727551E+02  0.00000000000E+00 0.  1.
         11    1    3    3    0    0 -0.10711335970E+02  0.44034446869E-01 -0.25624615144E+02  0.27773288586E+02  0.51100000000E-03 0. -1.
        -11    1    3    3    0    0 -0.32729470807E+01 -0.63293476832E+01 -0.10748578764E+02  0.12895920688E+02  0.51100000000E-03 0.  1.
         12    1    3    3    0    0  0.45512477291E+01 -0.14448819271E+01 -0.52787577790E+01  0.71180631751E+01  0.00000000000E+00 0. -1.
</event>
<event>
 7    1  0.2685294E-009  0.4778727E+02  0.7816164E-02  0.1312668E+00
        -11   -1    0    0    0    0  0.00000000000E+00  0.00000000000E+00  0.45593999997E+02  0.45594000000E+02  0.51100000000E-03 0.  1.
         11   -1    0    0    0    0 -0.00000000000E+00 -0.00000000000E+00 -0.45593999997E+02  0.45594000000E+02  0.51100000000E-03 0. -1.
    9900012    2    1    2    0    0  0.32853725208E+02  0.21398122504E+02 -0.18611197253E+02  0.47787267634E+02  0.19999984450E+02 0.  0.
        -12    1    1    2    0    0 -0.32853725208E+02 -0.21398122504E+02  0.18611197253E+02  0.43400732366E+02  0.00000000000E+00 0.  1.
         11    1    3    3    0    0  0.29383346071E+02  0.21412991577E+02 -0.11475185217E+02  0.38125806360E+02  0.51100000000E-03 0. -1.
        -11    1    3    3    0    0 -0.14552334524E+01  0.15913694317E+00 -0.24884688576E+01  0.28871277222E+01  0.51100000000E-03 0.  1.
        -12    1    3    3    0    0  0.49256125889E+01 -0.17400601600E+00 -0.46475431786E+01  0.67743335515E+01  0.00000000000E+00 0.  1.
</event>
<event>
 7    1  0.2685294E-009  0.4778726E+02  0.7816164E-02  0.1312668E+00
        -11   -1    0    0    0    0  0.00000000000E+00  0.00000000000E+00  0.45593999997E+02  0.45594000000E+02  0.51100000000E-03 0. -1.
         11   -1    0    0    0    0 -0.00000000000E+00 -0.00000000000E+00 -0.45593999997E+02  0.45594000000E+02  0.51100000000E-03 0.  1.
    9900012    2    1    2    0    0 -0.51313751639E+00  0.30540412708E+02  0.30832512785E+02  0.47787263104E+02  0.19999963796E+02 0.  0.
        -12    1    1    2    0    0  0.51313751639E+00 -0.30540412708E+02 -0.30832512785E+02  0.43400736896E+02  0.00000000000E+00 0.  1.
         11    1    3    3    0    0 -0.18902849439E+01  0.96513119315E+01  0.19766661265E+02  0.22078086352E+02  0.51100000000E-03 0. -1.
        -11    1    3    3    0    0  0.40359783554E+01  0.41407963910E+01  0.67678669415E+00  0.58218001105E+01  0.51100000000E-03 0.  1.
        -12    1    3    3    0    0 -0.26588309279E+01  0.16748304386E+02  0.10389064826E+02  0.19887376641E+02  0.00000000000E+00 0.  1.
</event>
<event>
 7    1  0.2685294E-009  0.4778727E+02  0.7816164E-02  0.1312668E+00
        -11   -1    0    0    0    0  0.00000000000E+00  0.00000000000E+00  0.45593999997E+02  0.45594000000E+02  0.51100000000E-03 0. -1.
         11   -1    0    0    0    0 -0.00000000000E+00 -0.00000000000E+00 -0.45593999997E+02  0.45594000000E+02  0.51100000000E-03 0.  1.
    9900012    2    1    2    0    0  0.92349112698E+01 -0.41924471565E+02  0.63779738669E+01  0.47787268983E+02  0.19999990601E+02 0.  0.
        -12    1    1    2    0    0 -0.92349112698E+01  0.41924471565E+02 -0.63779738669E+01  0.43400731017E+02  0.00000000000E+00 0.  1.
         11    1    3    3    0    0  0.27645383467E+01 -0.21770306642E+02 -0.25191488822E+01  0.22089251570E+02  0.51100000000E-03 0. -1.
        -11    1    3    3    0    0  0.73625684863E+01 -0.20630408082E+02  0.10104475189E+02  0.24123050625E+02  0.51100000000E-03 0.  1.
         12    1    3    3    0    0 -0.89219556324E+00  0.47624315888E+00 -0.12073524403E+01  0.15749667884E+01  0.00000000000E+00 0. -1.
</event>
<event>
 7    1  0.3110741E-009  0.4778729E+02  0.7816164E-02  0.1312668E+00
        -11   -1    0    0    0    0  0.00000000000E+00  0.00000000000E+00  0.45593999997E+02  0.45594000000E+02  0.51100000000E-03 0.  1.
         11   -1    0    0    0    0 -0.00000000000E+00 -0.00000000000E+00 -0.45593999997E+02  0.45594000000E+02  0.51100000000E-03 0. -1.
    9900012    2    1    2    0    0  0.42109716089E+02 -0.27480462503E+01 -0.10141103485E+02  0.47787286559E+02  0.20000070736E+02 0.  0.
        -12    1    1    2    0    0 -0.42109716089E+02  0.27480462503E+01  0.10141103485E+02  0.43400713441E+02  0.00000000000E+00 0.  1.
         11    1    3    3    0    0  0.21958958482E+02  0.30528126654E+01 -0.40937051512E+01  0.22544931690E+02  0.51100000000E-03 0. -1.
        -11    1    3    3    0    0  0.17260922688E+01 -0.91404760579E+00 -0.58629621606E+01  0.61797413461E+01  0.51100000000E-03 0.  1.
        -12    1    3    3    0    0  0.18424665339E+02 -0.48868113099E+01 -0.18443617360E+00  0.19062613523E+02  0.00000000000E+00 0.  1.
</event>
<event>
 7    1  0.2685294E-009  0.4778727E+02  0.7816164E-02  0.1312668E+00
        -11   -1    0    0    0    0  0.00000000000E+00  0.00000000000E+00  0.45593999997E+02  0.45594000000E+02  0.51100000000E-03 0.  1.
         11   -1    0    0    0    0 -0.00000000000E+00 -0.00000000000E+00 -0.45593999997E+02  0.45594000000E+02  0.51100000000E-03 0. -1.
    9900012    2    1    2    0    0  0.14496385490E+02  0.96996845006E+01 -0.39741592070E+02  0.47787271758E+02  0.20000003254E+02 0.  0.
        -12    1    1    2    0    0 -0.14496385490E+02 -0.96996845006E+01  0.39741592070E+02  0.43400728242E+02  0.00000000000E+00 0.  1.
         11    1    3    3    0    0  0.21448862565E+01 -0.13424142190E+01  0.15398001758E+00  0.25350193482E+01  0.51100000000E-03 0. -1.
        -11    1    3    3    0    0  0.44520088215E+01  0.12287366255E+02 -0.28234402302E+02  0.31112396655E+02  0.51100000000E-03 0.  1.
         12    1    3    3    0    0  0.78994904118E+01 -0.12452675353E+01 -0.11661169785E+02  0.14139855755E+02  0.00000000000E+00 0. -1.
</event>
<event>
 7    1  0.2685294E-009  0.4778727E+02  0.7816164E-02  0.1312668E+00
        -11   -1    0    0    0    0  0.00000000000E+00  0.00000000000E+00  0.45593999997E+02  0.45594000000E+02  0.51100000000E-03 0. -1.
         11   -1    0    0    0    0 -0.00000000000E+00 -0.00000000000E+00 -0.45593999997E+02  0.45594000000E+02  0.51100000000E-03 0.  1.
    9900012    2    1    2    0    0  0.15075251288E+02 -0.26921740193E+02  0.30521795683E+02  0.47787270650E+02  0.19999998201E+02 0.  0.
        -12    1    1    2    0    0 -0.15075251288E+02  0.26921740193E+02 -0.30521795683E+02  0.43400729350E+02  0.00000000000E+00 0.  1.
         11    1    3    3    0    0  0.14986530943E+02 -0.19549435475E+02  0.25407105363E+02  0.35387816269E+02  0.51100000000E-03 0. -1.
        -11    1    3    3    0    0  0.82646655372E+00 -0.45485511617E+01 -0.17476029534E+01  0.49423153460E+01  0.51100000000E-03 0.  1.
         12    1    3    3    0    0 -0.73774620895E+00 -0.28237535562E+01  0.68622932732E+01  0.74571390347E+01  0.00000000000E+00 0. -1.
</event>
<event>
 7    1  0.2685294E-009  0.4778727E+02  0.7816164E-02  0.1312668E+00
        -11   -1    0    0    0    0  0.00000000000E+00  0.00000000000E+00  0.45593999997E+02  0.45594000000E+02  0.51100000000E-03 0. -1.
         11   -1    0    0    0    0 -0.00000000000E+00 -0.00000000000E+00 -0.45593999997E+02  0.45594000000E+02  0.51100000000E-03 0.  1.
    9900012    2    1    2    0    0 -0.13933867692E+02 -0.35010855232E+02 -0.21533944325E+02  0.47787269463E+02  0.19999992792E+02 0.  0.
        -12    1    1    2    0    0  0.13933867692E+02  0.35010855232E+02  0.21533944325E+02  0.43400730537E+02  0.00000000000E+00 0.  1.
         11    1    3    3    0    0 -0.26448747028E+01 -0.20877908805E+02 -0.11517291501E+02  0.23990215548E+02  0.51100000000E-03 0. -1.
        -11    1    3    3    0    0 -0.52438047605E+01 -0.17274200065E+01  0.16112282398E+01  0.57513063687E+01  0.51100000000E-03 0.  1.
        -12    1    3    3    0    0 -0.60451882286E+01 -0.12405526421E+02 -0.11627881064E+02  0.18045747547E+02  0.00000000000E+00 0.  1.
</event>
<event>
 7    1  0.2685294E-009  0.4778727E+02  0.7816164E-02  0.1312668E+00
        -11   -1    0    0    0    0  0.00000000000E+00  0.00000000000E+00  0.45593999997E+02  0.45594000000E+02  0.51100000000E-03 0.  1.
         11   -1    0    0    0    0 -0.00000000000E+00 -0.00000000000E+00 -0.45593999997E+02  0.45594000000E+02  0.51100000000E-03 0. -1.
    9900012    2    1    2    0    0  0.19117264602E+02  0.38661904960E+02  0.48384291596E+01  0.47787273074E+02  0.20000009253E+02 0.  0.
        -12    1    1    2    0    0 -0.19117264602E+02 -0.38661904960E+02 -0.48384291596E+01  0.43400726926E+02  0.00000000000E+00 0.  1.
         11    1    3    3    0    0  0.13818672166E+02  0.16906226788E+02 -0.21467171441E+01  0.21940478559E+02  0.51100000000E-03 0. -1.
        -11    1    3    3    0    0  0.32349291696E+01  0.84711317517E+01  0.83591400892E+01  0.12332885436E+02  0.51100000000E-03 0.  1.
        -12    1    3    3    0    0  0.20636632659E+01  0.13284546420E+02 -0.13739937855E+01  0.13513909079E+02  0.00000000000E+00 0.  1.
</event>
<event>
 7    1  0.2685294E-009  0.4778728E+02  0.7816164E-02  0.1312668E+00
        -11   -1    0    0    0    0  0.00000000000E+00  0.00000000000E+00  0.45593999997E+02  0.45594000000E+02  0.51100000000E-03 0.  1.
         11   -1    0    0    0    0 -0.00000000000E+00 -0.00000000000E+00 -0.45593999997E+02  0.45594000000E+02  0.51100000000E-03 0. -1.
    9900012    2    1    2    0    0  0.32528385829E+02  0.20642608612E+02  0.19985238098E+02  0.47787275159E+02  0.20000018758E+02 0.  0.
        -12    1    1    2    0    0 -0.32528385829E+02 -0.20642608612E+02 -0.19985238098E+02  0.43400724841E+02  0.00000000000E+00 0.  1.
         11    1    3    3    0    0  0.22769680339E+01  0.14895318000E+01 -0.34558099437E+01  0.43983986903E+01  0.51100000000E-03 0. -1.
        -11    1    3    3    0    0  0.23251829120E+02  0.17075781211E+02  0.21029080700E+02  0.35699469139E+02  0.51100000000E-03 0.  1.
        -12    1    3    3    0    0  0.69995886748E+01  0.20772956006E+01  0.24119673412E+01  0.76894073298E+01  0.00000000000E+00 0.  1.
</event>
<event>
 7    1  0.2685294E-009  0.4778727E+02  0.7816164E-02  0.1312668E+00
        -11   -1    0    0    0    0  0.00000000000E+00  0.00000000000E+00  0.45593999997E+02  0.45594000000E+02  0.51100000000E-03 0.  1.
         11   -1    0    0    0    0 -0.00000000000E+00 -0.00000000000E+00 -0.45593999997E+02  0.45594000000E+02  0.51100000000E-03 0. -1.
    9900012    2    1    2    0    0 -0.98496371117E+01 -0.29078539320E+02 -0.30676481229E+02  0.47787270734E+02  0.19999998587E+02 0.  0.
        -12    1    1    2    0    0  0.98496371117E+01  0.29078539320E+02  0.30676481229E+02  0.43400729266E+02  0.00000000000E+00 0.  1.
         11    1    3    3    0    0 -0.53231303933E+01 -0.20380133567E+02 -0.26575676108E+02  0.33910943989E+02  0.51100000000E-03 0. -1.
        -11    1    3    3    0    0 -0.25041015156E+01 -0.48272355643E+01  0.24809197990E+01  0.59772645000E+01  0.51100000000E-03 0.  1.
        -12    1    3    3    0    0 -0.20224052027E+01 -0.38711701886E+01 -0.65817249199E+01  0.78990622452E+01  0.00000000000E+00 0.  1.
</event>
<event>
 7    1  0.2685294E-009  0.4778727E+02  0.7816164E-02  0.1312668E+00
        -11   -1    0    0    0    0  0.00000000000E+00  0.00000000000E+00  0.45593999997E+02  0.45594000000E+02  0.51100000000E-03 0.  1.
         11   -1    0    0    0    0 -0.00000000000E+00 -0.00000000000E+00 -0.45593999997E+02  0.45594000000E+02  0.51100000000E-03 0. -1.
    9900012    2    1    2    0    0  0.62818739015E+01  0.22095960762E+01 -0.42886816559E+02  0.47787270869E+02  0.19999999198E+02 0.  0.
        -12    1    1    2    0    0 -0.62818739015E+01 -0.22095960762E+01  0.42886816559E+02  0.43400729131E+02  0.00000000000E+00 0.  1.
         11    1    3    3    0    0 -0.40418050661E+01  0.47986175719E+01 -0.14866127293E+02  0.16135819154E+02  0.51100000000E-03 0.  1.
        -11    1    3    3    0    0  0.93468392545E+01  0.93125505524E+00 -0.12105428409E+02  0.15322272588E+02  0.51100000000E-03 0. -1.
         12    1    3    3    0    0  0.97683971308E+00 -0.35202765509E+01 -0.15915260857E+02  0.16329179127E+02  0.00000000000E+00 0. -1.
</event>
<event>
 7    1  0.2685294E-009  0.4778727E+02  0.7816164E-02  0.1312668E+00
        -11   -1    0    0    0    0  0.00000000000E+00  0.00000000000E+00  0.45593999997E+02  0.45594000000E+02  0.51100000000E-03 0.  1.
         11   -1    0    0    0    0 -0.00000000000E+00 -0.00000000000E+00 -0.45593999997E+02  0.45594000000E+02  0.51100000000E-03 0. -1.
    9900012    2    1    2    0    0  0.40010902056E+02 -0.82203142223E+01 -0.14668929906E+02  0.47787270123E+02  0.19999995800E+02 0.  0.
        -12    1    1    2    0    0 -0.40010902056E+02  0.82203142223E+01  0.14668929906E+02  0.43400729877E+02  0.00000000000E+00 0.  1.
         11    1    3    3    0    0  0.22512195718E+02 -0.10439501119E+02 -0.12541679199E+02  0.27804241710E+02  0.51100000000E-03 0. -1.
        -11    1    3    3    0    0  0.54704319432E+01 -0.35313816230E+01 -0.21900849682E+00  0.65149249263E+01  0.51100000000E-03 0.  1.
         12    1    3    3    0    0  0.12028274395E+02  0.57505685196E+01 -0.19082422101E+01  0.13468103487E+02  0.00000000000E+00 0. -1.
</event>
<event>
 7    1  0.2685294E-009  0.4778727E+02  0.7816164E-02  0.1312668E+00
        -11   -1    0    0    0    0  0.00000000000E+00  0.00000000000E+00  0.45593999997E+02  0.45594000000E+02  0.51100000000E-03 0.  1.
         11   -1    0    0    0    0 -0.00000000000E+00 -0.00000000000E+00 -0.45593999997E+02  0.45594000000E+02  0.51100000000E-03 0. -1.
    9900012    2    1    2    0    0  0.38438776222E+02 -0.57631022788E+01 -0.19309858919E+02  0.47787268246E+02  0.19999987239E+02 0.  0.
        -12    1    1    2    0    0 -0.38438776222E+02  0.57631022788E+01  0.19309858919E+02  0.43400731754E+02  0.00000000000E+00 0.  1.
         11    1    3    3    0    0  0.28800071133E+02 -0.54362892429E+01 -0.14359160899E+02  0.32637138968E+02  0.51100000000E-03 0. -1.
        -11    1    3    3    0    0 -0.61827112181E+00  0.30667890340E+01  0.29082559384E+00  0.31419793040E+01  0.51100000000E-03 0.  1.
        -12    1    3    3    0    0  0.10256976211E+02 -0.33936020699E+01 -0.52415236140E+01  0.12008149974E+02  0.00000000000E+00 0.  1.
</event>
<event>
 7    1  0.2685294E-009  0.4778727E+02  0.7816164E-02  0.1312668E+00
        -11   -1    0    0    0    0  0.00000000000E+00  0.00000000000E+00  0.45593999997E+02  0.45594000000E+02  0.51100000000E-03 0.  1.
         11   -1    0    0    0    0 -0.00000000000E+00 -0.00000000000E+00 -0.45593999997E+02  0.45594000000E+02  0.51100000000E-03 0. -1.
    9900012    2    1    2    0    0  0.14566485897E+02  0.10871743945E+02 -0.39411241140E+02  0.47787271250E+02  0.20000000939E+02 0.  0.
        -12    1    1    2    0    0 -0.14566485897E+02 -0.10871743945E+02  0.39411241140E+02  0.43400728750E+02  0.00000000000E+00 0.  1.
         11    1    3    3    0    0  0.94620627482E+01  0.47374278172E+01 -0.66727115915E+01  0.12509953398E+02  0.51100000000E-03 0. -1.
        -11    1    3    3    0    0 -0.32591901989E+00 -0.11928942759E+01  0.56368031050E-01  0.12379004714E+01  0.51100000000E-03 0.  1.
         12    1    3    3    0    0  0.54303421684E+01  0.73272104037E+01 -0.32794897580E+02  0.34039417381E+02  0.00000000000E+00 0. -1.
</event>
<event>
 7    1  0.2685294E-009  0.4778726E+02  0.7816164E-02  0.1312668E+00
        -11   -1    0    0    0    0  0.00000000000E+00  0.00000000000E+00  0.45593999997E+02  0.45594000000E+02  0.51100000000E-03 0.  1.
         11   -1    0    0    0    0 -0.00000000000E+00 -0.00000000000E+00 -0.45593999997E+02  0.45594000000E+02  0.51100000000E-03 0. -1.
    9900012    2    1    2    0    0 -0.31745722322E+02  0.29247964015E+02  0.45155667632E+01  0.47787255444E+02  0.19999928873E+02 0.  0.
        -12    1    1    2    0    0  0.31745722322E+02 -0.29247964015E+02 -0.45155667632E+01  0.43400744556E+02  0.00000000000E+00 0.  1.
         11    1    3    3    0    0 -0.20535015015E+02  0.16650159105E+02 -0.64047051125E+01  0.27201744204E+02  0.51100000000E-03 0. -1.
        -11    1    3    3    0    0 -0.31000211224E+01  0.41180222028E+01  0.10684502816E+01  0.52640121663E+01  0.51100000000E-03 0.  1.
         12    1    3    3    0    0 -0.81106861845E+01  0.84797827074E+01  0.98518215942E+01  0.15321499074E+02  0.00000000000E+00 0. -1.
</event>
<event>
 7    1  0.2685294E-009  0.4778727E+02  0.7816164E-02  0.1312668E+00
        -11   -1    0    0    0    0  0.00000000000E+00  0.00000000000E+00  0.45593999997E+02  0.45594000000E+02  0.51100000000E-03 0.  1.
         11   -1    0    0    0    0 -0.00000000000E+00 -0.00000000000E+00 -0.45593999997E+02  0.45594000000E+02  0.51100000000E-03 0. -1.
    9900012    2    1    2    0    0 -0.32888301965E+02 -0.18450246084E+02 -0.21484210148E+02  0.47787271062E+02  0.20000000078E+02 0.  0.
        -12    1    1    2    0    0  0.32888301965E+02  0.18450246084E+02  0.21484210148E+02  0.43400728938E+02  0.00000000000E+00 0.  1.
         11    1    3    3    0    0 -0.93478635182E+01 -0.65050586507E+01 -0.26192958772E+01  0.11685848346E+02  0.51100000000E-03 0. -1.
        -11    1    3    3    0    0 -0.69513028886E+00 -0.26124748866E+01  0.23315581030E+01  0.35699292150E+01  0.51100000000E-03 0.  1.
        -12    1    3    3    0    0 -0.22845308158E+02 -0.93327125463E+01 -0.21196472373E+02  0.32531493501E+02  0.00000000000E+00 0.  1.
</event>
<event>
 7    1  0.2685294E-009  0.4778727E+02  0.7816164E-02  0.1312668E+00
        -11   -1    0    0    0    0  0.00000000000E+00  0.00000000000E+00  0.45593999997E+02  0.45594000000E+02  0.51100000000E-03 0.  1.
         11   -1    0    0    0    0 -0.00000000000E+00 -0.00000000000E+00 -0.45593999997E+02  0.45594000000E+02  0.51100000000E-03 0. -1.
    9900012    2    1    2    0    0 -0.12814487031E+02 -0.94934005562E+00 -0.41454927668E+02  0.47787270140E+02  0.19999995877E+02 0.  0.
        -12    1    1    2    0    0  0.12814487031E+02  0.94934005562E+00  0.41454927668E+02  0.43400729860E+02  0.00000000000E+00 0.  1.
         11    1    3    3    0    0 -0.53415154296E+01 -0.14477008971E+01 -0.23374449494E+02  0.24020668483E+02  0.51100000000E-03 0. -1.
        -11    1    3    3    0    0 -0.58552419177E+01  0.59706694242E+01 -0.56599077610E+01  0.10097886284E+02  0.51100000000E-03 0.  1.
        -12    1    3    3    0    0 -0.16177296837E+01 -0.54723085827E+01 -0.12420570413E+02  0.13668715373E+02  0.00000000000E+00 0.  1.
</event>
<event>
 7    1  0.2685294E-009  0.4778727E+02  0.7816164E-02  0.1312668E+00
        -11   -1    0    0    0    0  0.00000000000E+00  0.00000000000E+00  0.45593999997E+02  0.45594000000E+02  0.51100000000E-03 0. -1.
         11   -1    0    0    0    0 -0.00000000000E+00 -0.00000000000E+00 -0.45593999997E+02  0.45594000000E+02  0.51100000000E-03 0.  1.
    9900012    2    1    2    0    0 -0.38380765919E+02 -0.18972490074E+02  0.71123024466E+01  0.47787269381E+02  0.19999992417E+02 0.  0.
        -12    1    1    2    0    0  0.38380765919E+02  0.18972490074E+02 -0.71123024466E+01  0.43400730619E+02  0.00000000000E+00 0.  1.
         11    1    3    3    0    0 -0.22968338554E+02 -0.12913491667E+01  0.45690903793E+01  0.23453970789E+02  0.51100000000E-03 0. -1.
        -11    1    3    3    0    0 -0.15266815898E+02 -0.16394179703E+02  0.11504858169E+01  0.22431415775E+02  0.51100000000E-03 0.  1.
         12    1    3    3    0    0 -0.14561146626E+00 -0.12869612050E+01  0.13927262504E+01  0.19018828173E+01  0.00000000000E+00 0. -1.
</event>
<event>
 7    1  0.2685294E-009  0.4778724E+02  0.7816164E-02  0.1312668E+00
        -11   -1    0    0    0    0  0.00000000000E+00  0.00000000000E+00  0.45593999997E+02  0.45594000000E+02  0.51100000000E-03 0.  1.
         11   -1    0    0    0    0 -0.00000000000E+00 -0.00000000000E+00 -0.45593999997E+02  0.45594000000E+02  0.51100000000E-03 0. -1.
    9900012    2    1    2    0    0  0.33280596792E+02  0.50942176911E+01 -0.27387524513E+02  0.47787243374E+02  0.19999873841E+02 0.  0.
        -12    1    1    2    0    0 -0.33280596792E+02 -0.50942176911E+01  0.27387524513E+02  0.43400756626E+02  0.00000000000E+00 0.  1.
         11    1    3    3    0    0  0.23816415335E+01 -0.17382453258E+00  0.25789128595E+01  0.35147152317E+01  0.51100000000E-03 0.  1.
        -11    1    3    3    0    0  0.28877003721E+02  0.71881380089E+01 -0.26729659191E+02  0.40000316907E+02  0.51100000000E-03 0. -1.
        -12    1    3    3    0    0  0.20219515373E+01 -0.19200957852E+01 -0.32367781813E+01  0.42722112353E+01  0.00000000000E+00 0.  1.
</event>
<event>
 7    1  0.2685294E-009  0.4778727E+02  0.7816164E-02  0.1312668E+00
        -11   -1    0    0    0    0  0.00000000000E+00  0.00000000000E+00  0.45593999997E+02  0.45594000000E+02  0.51100000000E-03 0.  1.
         11   -1    0    0    0    0 -0.00000000000E+00 -0.00000000000E+00 -0.45593999997E+02  0.45594000000E+02  0.51100000000E-03 0. -1.
    9900012    2    1    2    0    0  0.38004435808E+02  0.60333876068E+01 -0.20071974108E+02  0.47787273604E+02  0.20000011669E+02 0.  0.
        -12    1    1    2    0    0 -0.38004435808E+02 -0.60333876068E+01  0.20071974108E+02  0.43400726396E+02  0.00000000000E+00 0.  1.
         11    1    3    3    0    0  0.20082547013E+02  0.11144491201E+02 -0.15817278756E+02  0.27887177809E+02  0.51100000000E-03 0. -1.
        -11    1    3    3    0    0  0.76482032253E+01 -0.45463835175E+01 -0.38014560575E+00  0.89055671693E+01  0.51100000000E-03 0.  1.
         12    1    3    3    0    0  0.10273685570E+02 -0.56472007629E+00 -0.38745497467E+01  0.10994528626E+02  0.00000000000E+00 0. -1.
</event>
<event>
 7    1  0.2685294E-009  0.4778727E+02  0.7816164E-02  0.1312668E+00
        -11   -1    0    0    0    0  0.00000000000E+00  0.00000000000E+00  0.45593999997E+02  0.45594000000E+02  0.51100000000E-03 0. -1.
         11   -1    0    0    0    0 -0.00000000000E+00 -0.00000000000E+00 -0.45593999997E+02  0.45594000000E+02  0.51100000000E-03 0.  1.
    9900012    2    1    2    0    0  0.41021953406E+02 -0.13976526299E+02  0.23408191942E+01  0.47787269786E+02  0.19999994263E+02 0.  0.
        -12    1    1    2    0    0 -0.41021953406E+02  0.13976526299E+02 -0.23408191942E+01  0.43400730214E+02  0.00000000000E+00 0.  1.
         11    1    3    3    0    0  0.25485067085E+00 -0.18375952125E+01 -0.29537068132E+01  0.34879921486E+01  0.51100000000E-03 0. -1.
        -11    1    3    3    0    0  0.29774501315E+02 -0.87810884305E+01 -0.12596089688E+01  0.31067910416E+02  0.51100000000E-03 0.  1.
         12    1    3    3    0    0  0.10992601420E+02 -0.33578426556E+01  0.65541349763E+01  0.13231367222E+02  0.00000000000E+00 0. -1.
</event>
<event>
 7    1  0.2760257E-009  0.4778726E+02  0.7816164E-02  0.1312668E+00
        -11   -1    0    0    0    0  0.00000000000E+00  0.00000000000E+00  0.45593999997E+02  0.45594000000E+02  0.51100000000E-03 0.  1.
         11   -1    0    0    0    0 -0.00000000000E+00 -0.00000000000E+00 -0.45593999997E+02  0.45594000000E+02  0.51100000000E-03 0. -1.
    9900012    2    1    2    0    0  0.10253250016E+02 -0.36687018603E+02 -0.20798013060E+02  0.47787264787E+02  0.19999971468E+02 0.  0.
        -12    1    1    2    0    0 -0.10253250016E+02  0.36687018603E+02  0.20798013060E+02  0.43400735213E+02  0.00000000000E+00 0.  1.
         11    1    3    3    0    0  0.36689230480E+01 -0.22398765939E+02 -0.18975284482E+02  0.29584237921E+02  0.51100000000E-03 0. -1.
        -11    1    3    3    0    0  0.26532315968E+01 -0.96199686798E+01  0.30046097904E+01  0.10421665681E+02  0.51100000000E-03 0.  1.
        -12    1    3    3    0    0  0.39310953715E+01 -0.46682839834E+01 -0.48273383681E+01  0.77813611849E+01  0.00000000000E+00 0.  1.
</event>
<event>
 7    1  0.2913082E-009  0.4778726E+02  0.7816164E-02  0.1312668E+00
        -11   -1    0    0    0    0  0.00000000000E+00  0.00000000000E+00  0.45593999997E+02  0.45594000000E+02  0.51100000000E-03 0.  1.
         11   -1    0    0    0    0 -0.00000000000E+00 -0.00000000000E+00 -0.45593999997E+02  0.45594000000E+02  0.51100000000E-03 0. -1.
    9900012    2    1    2    0    0 -0.28394539099E+01 -0.43303156808E+02 -0.63102118471E+00  0.47787261806E+02  0.19999957880E+02 0.  0.
        -12    1    1    2    0    0  0.28394539099E+01  0.43303156808E+02  0.63102118471E+00  0.43400738194E+02  0.00000000000E+00 0.  1.
         11    1    3    3    0    0 -0.44528836654E+01 -0.19540343970E+02  0.86345182308E+00  0.20059879479E+02  0.51100000000E-03 0. -1.
        -11    1    3    3    0    0  0.61919805027E+01 -0.16506712807E+02 -0.52011321232E+01  0.18381076298E+02  0.51100000000E-03 0.  1.
        -12    1    3    3    0    0 -0.45785507472E+01 -0.72561000311E+01  0.37066591154E+01  0.93463060298E+01  0.00000000000E+00 0.  1.
</event>
<event>
 7    1  0.2685294E-009  0.4778727E+02  0.7816164E-02  0.1312668E+00
        -11   -1    0    0    0    0  0.00000000000E+00  0.00000000000E+00  0.45593999997E+02  0.45594000000E+02  0.51100000000E-03 0. -1.
         11   -1    0    0    0    0 -0.00000000000E+00 -0.00000000000E+00 -0.45593999997E+02  0.45594000000E+02  0.51100000000E-03 0.  1.
    9900012    2    1    2    0    0  0.14429242262E+02 -0.25089809812E+02  0.32340711834E+02  0.47787271543E+02  0.20000002273E+02 0.  0.
        -12    1    1    2    0    0 -0.14429242262E+02  0.25089809812E+02 -0.32340711834E+02  0.43400728457E+02  0.00000000000E+00 0.  1.
         11    1    3    3    0    0  0.92800008835E+01 -0.15162173312E+02  0.31124349574E+02  0.35843200925E+02  0.51100000000E-03 0. -1.
        -11    1    3    3    0    0  0.21505484330E+01 -0.56887687532E+01 -0.12291763173E+01  0.62046614066E+01  0.51100000000E-03 0.  1.
         12    1    3    3    0    0  0.29986929455E+01 -0.42388677467E+01  0.24455385780E+01  0.57394092111E+01  0.00000000000E+00 0. -1.
</event>
<event>
 7    1  0.2685294E-009  0.4778727E+02  0.7816164E-02  0.1312668E+00
        -11   -1    0    0    0    0  0.00000000000E+00  0.00000000000E+00  0.45593999997E+02  0.45594000000E+02  0.51100000000E-03 0. -1.
         11   -1    0    0    0    0 -0.00000000000E+00 -0.00000000000E+00 -0.45593999997E+02  0.45594000000E+02  0.51100000000E-03 0.  1.
    9900012    2    1    2    0    0  0.15172536566E+02 -0.35452684605E+02  0.19912925204E+02  0.47787270723E+02  0.19999998537E+02 0.  0.
        -12    1    1    2    0    0 -0.15172536566E+02  0.35452684605E+02 -0.19912925204E+02  0.43400729277E+02  0.00000000000E+00 0.  1.
         11    1    3    3    0    0  0.97640520259E+01 -0.22811462051E+02  0.25861951977E+01  0.24947703677E+02  0.51100000000E-03 0. -1.
        -11    1    3    3    0    0  0.62506179824E+01 -0.79624763135E+01  0.11547824590E+02  0.15356546071E+02  0.51100000000E-03 0.  1.
         12    1    3    3    0    0 -0.84213344231E+00 -0.46787462407E+01  0.57789054162E+01  0.74830209761E+01  0.00000000000E+00 0. -1.
</event>
<event>
 7    1  0.2685294E-009  0.4778726E+02  0.7816164E-02  0.1312668E+00
        -11   -1    0    0    0    0  0.00000000000E+00  0.00000000000E+00  0.45593999997E+02  0.45594000000E+02  0.51100000000E-03 0.  1.
         11   -1    0    0    0    0 -0.00000000000E+00 -0.00000000000E+00 -0.45593999997E+02  0.45594000000E+02  0.51100000000E-03 0. -1.
    9900012    2    1    2    0    0  0.12389260651E+02  0.39917551930E+02 -0.11692719541E+02  0.47787257819E+02  0.19999939701E+02 0.  0.
        -12    1    1    2    0    0 -0.12389260651E+02 -0.39917551930E+02  0.11692719541E+02  0.43400742181E+02  0.00000000000E+00 0.  1.
         11    1    3    3    0    0 -0.25814013920E+01  0.75438566429E+01 -0.29708658404E+01  0.85087866525E+01  0.51100000000E-03 0. -1.
        -11    1    3    3    0    0  0.11484184879E+02  0.89031772199E+01 -0.24577418369E+01  0.14737488326E+02  0.51100000000E-03 0.  1.
        -12    1    3    3    0    0  0.34864771641E+01  0.23470518067E+02 -0.62641118640E+01  0.24540982841E+02  0.00000000000E+00 0.  1.
</event>
<event>
 7    1  0.2685294E-009  0.4778727E+02  0.7816164E-02  0.1312668E+00
        -11   -1    0    0    0    0  0.00000000000E+00  0.00000000000E+00  0.45593999997E+02  0.45594000000E+02  0.51100000000E-03 0.  1.
         11   -1    0    0    0    0 -0.00000000000E+00 -0.00000000000E+00 -0.45593999997E+02  0.45594000000E+02  0.51100000000E-03 0. -1.
    9900012    2    1    2    0    0 -0.29497096664E+01 -0.54670633266E+01 -0.42953856753E+02  0.47787269839E+02  0.19999994503E+02 0.  0.
        -12    1    1    2    0    0  0.29497096664E+01  0.54670633266E+01  0.42953856753E+02  0.43400730161E+02  0.00000000000E+00 0.  1.
         11    1    3    3    0    0  0.50508521814E+01  0.54174969216E+01 -0.16217921427E+02  0.17829227586E+02  0.51100000000E-03 0. -1.
        -11    1    3    3    0    0 -0.30337793738E+01 -0.42600759529E+01 -0.99138516533E+01  0.11208769749E+02  0.51100000000E-03 0.  1.
         12    1    3    3    0    0 -0.49667824740E+01 -0.66244842953E+01 -0.16822083673E+02  0.18749272504E+02  0.00000000000E+00 0. -1.
</event>
<event>
 7    1  0.2685294E-009  0.4778727E+02  0.7816164E-02  0.1312668E+00
        -11   -1    0    0    0    0  0.00000000000E+00  0.00000000000E+00  0.45593999997E+02  0.45594000000E+02  0.51100000000E-03 0. -1.
         11   -1    0    0    0    0 -0.00000000000E+00 -0.00000000000E+00 -0.45593999997E+02  0.45594000000E+02  0.51100000000E-03 0.  1.
    9900012    2    1    2    0    0  0.72601396148E+01 -0.34994923001E+02  0.24622524756E+02  0.47787274333E+02  0.20000014992E+02 0.  0.
        -12    1    1    2    0    0 -0.72601396148E+01  0.34994923001E+02 -0.24622524756E+02  0.43400725667E+02  0.00000000000E+00 0.  1.
         11    1    3    3    0    0 -0.18049297520E+01 -0.19957874619E+02  0.11398348112E+02  0.23054215897E+02  0.51100000000E-03 0. -1.
        -11    1    3    3    0    0  0.11697053638E+02 -0.11929080138E+02  0.95266941674E+01  0.19232314441E+02  0.51100000000E-03 0.  1.
        -12    1    3    3    0    0 -0.26319842716E+01 -0.31079682450E+01  0.36974824770E+01  0.55007439938E+01  0.00000000000E+00 0.  1.
</event>
<event>
 7    1  0.2685294E-009  0.4778727E+02  0.7816164E-02  0.1312668E+00
        -11   -1    0    0    0    0  0.00000000000E+00  0.00000000000E+00  0.45593999997E+02  0.45594000000E+02  0.51100000000E-03 0.  1.
         11   -1    0    0    0    0 -0.00000000000E+00 -0.00000000000E+00 -0.45593999997E+02  0.45594000000E+02  0.51100000000E-03 0. -1.
    9900012    2    1    2    0    0  0.99503812204E+00  0.30896094288E+02 -0.30464153568E+02  0.47787269640E+02  0.19999993597E+02 0.  0.
        -12    1    1    2    0    0 -0.99503812204E+00 -0.30896094288E+02  0.30464153568E+02  0.43400730360E+02  0.00000000000E+00 0.  1.
         11    1    3    3    0    0 -0.22028912224E+01  0.63047324854E+00 -0.75978185661E+01  0.79358095668E+01  0.51100000000E-03 0. -1.
        -11    1    3    3    0    0  0.46383680678E+01  0.19580621096E+02 -0.83905883091E+01  0.21801769499E+02  0.51100000000E-03 0.  1.
        -12    1    3    3    0    0 -0.14404387234E+01  0.10684999943E+02 -0.14475746693E+02  0.18049690574E+02  0.00000000000E+00 0.  1.
</event>
<event>
 7    1  0.2685294E-009  0.4778728E+02  0.7816164E-02  0.1312668E+00
        -11   -1    0    0    0    0  0.00000000000E+00  0.00000000000E+00  0.45593999997E+02  0.45594000000E+02  0.51100000000E-03 0.  1.
         11   -1    0    0    0    0 -0.00000000000E+00 -0.00000000000E+00 -0.45593999997E+02  0.45594000000E+02  0.51100000000E-03 0. -1.
    9900012    2    1    2    0    0  0.19294214091E+02  0.47042896041E+01 -0.38590487560E+02  0.47787276870E+02  0.20000026561E+02 0.  0.
        -12    1    1    2    0    0 -0.19294214091E+02 -0.47042896041E+01  0.38590487560E+02  0.43400723130E+02  0.00000000000E+00 0.  1.
         11    1    3    3    0    0  0.12549162555E+02 -0.39645599671E+01 -0.30644085426E+02  0.33350550047E+02  0.51100000000E-03 0. -1.
        -11    1    3    3    0    0  0.75160043527E+01  0.80147463043E+01 -0.68628640127E+01  0.12954743628E+02  0.51100000000E-03 0.  1.
         12    1    3    3    0    0 -0.77095281701E+00  0.65410326692E+00 -0.10835381215E+01  0.14819831951E+01  0.00000000000E+00 0. -1.
</event>
<event>
 7    1  0.2685294E-009  0.4778728E+02  0.7816164E-02  0.1312668E+00
        -11   -1    0    0    0    0  0.00000000000E+00  0.00000000000E+00  0.45593999997E+02  0.45594000000E+02  0.51100000000E-03 0.  1.
         11   -1    0    0    0    0 -0.00000000000E+00 -0.00000000000E+00 -0.45593999997E+02  0.45594000000E+02  0.51100000000E-03 0. -1.
    9900012    2    1    2    0    0  0.80001776924E+01 -0.42039152602E+02 -0.72339258432E+01  0.47787275609E+02  0.20000020811E+02 0.  0.
        -12    1    1    2    0    0 -0.80001776924E+01  0.42039152602E+02  0.72339258432E+01  0.43400724391E+02  0.00000000000E+00 0.  1.
         11    1    3    3    0    0  0.43007143553E+01 -0.20764921232E+02 -0.10603409998E+02  0.23708867573E+02  0.51100000000E-03 0. -1.
        -11    1    3    3    0    0  0.81297027001E+00 -0.20684663698E+02  0.19041593613E+01  0.20788026749E+02  0.51100000000E-03 0.  1.
         12    1    3    3    0    0  0.28864930671E+01 -0.58956767164E+00  0.14653247938E+01  0.32903812875E+01  0.00000000000E+00 0. -1.
</event>
<event>
 7    1  0.2685294E-009  0.4778727E+02  0.7816164E-02  0.1312668E+00
        -11   -1    0    0    0    0  0.00000000000E+00  0.00000000000E+00  0.45593999997E+02  0.45594000000E+02  0.51100000000E-03 0.  1.
         11   -1    0    0    0    0 -0.00000000000E+00 -0.00000000000E+00 -0.45593999997E+02  0.45594000000E+02  0.51100000000E-03 0. -1.
    9900012    2    1    2    0    0  0.22267249716E+02 -0.31980883573E+01 -0.37115565034E+02  0.47787270204E+02  0.19999996167E+02 0.  0.
        -12    1    1    2    0    0 -0.22267249716E+02  0.31980883573E+01  0.37115565034E+02  0.43400729796E+02  0.00000000000E+00 0.  1.
         11    1    3    3    0    0  0.54039559346E+01 -0.29396687602E+01 -0.19976771177E+02  0.20902530446E+02  0.51100000000E-03 0.  1.
        -11    1    3    3    0    0  0.97212839583E+01 -0.79961081610E+00 -0.17141311891E+02  0.19722254254E+02  0.51100000000E-03 0. -1.
         12    1    3    3    0    0  0.71420098232E+01  0.54119121901E+00  0.25180332379E-02  0.71624855037E+01  0.00000000000E+00 0. -1.
</event>
<event>
 7    1  0.2685294E-009  0.4778727E+02  0.7816164E-02  0.1312668E+00
        -11   -1    0    0    0    0  0.00000000000E+00  0.00000000000E+00  0.45593999997E+02  0.45594000000E+02  0.51100000000E-03 0.  1.
         11   -1    0    0    0    0 -0.00000000000E+00 -0.00000000000E+00 -0.45593999997E+02  0.45594000000E+02  0.51100000000E-03 0. -1.
    9900012    2    1    2    0    0  0.33177231711E+02 -0.15398523125E+02  0.23361936600E+02  0.47787270742E+02  0.19999998620E+02 0.  0.
        -12    1    1    2    0    0 -0.33177231711E+02  0.15398523125E+02 -0.23361936600E+02  0.43400729258E+02  0.00000000000E+00 0.  1.
         11    1    3    3    0    0  0.26323709165E+02 -0.12781014056E+02  0.16958452451E+02  0.33821311245E+02  0.51100000000E-03 0. -1.
        -11    1    3    3    0    0  0.19794756145E+01  0.31855510545E+01  0.50136177322E+01  0.62611837742E+01  0.51100000000E-03 0.  1.
        -12    1    3    3    0    0  0.48740469316E+01 -0.58030601228E+01  0.13898664172E+01  0.77047757228E+01  0.00000000000E+00 0.  1.
</event>
<event>
 7    1  0.2685294E-009  0.4778727E+02  0.7816164E-02  0.1312668E+00
        -11   -1    0    0    0    0  0.00000000000E+00  0.00000000000E+00  0.45593999997E+02  0.45594000000E+02  0.51100000000E-03 0.  1.
         11   -1    0    0    0    0 -0.00000000000E+00 -0.00000000000E+00 -0.45593999997E+02  0.45594000000E+02  0.51100000000E-03 0. -1.
    9900012    2    1    2    0    0  0.74936921097E+01  0.32884560465E+00 -0.42747631969E+02  0.47787267289E+02  0.19999982878E+02 0.  0.
        -12    1    1    2    0    0 -0.74936921097E+01 -0.32884560465E+00  0.42747631969E+02  0.43400732711E+02  0.00000000000E+00 0.  1.
         11    1    3    3    0    0  0.11783358217E+01  0.45079097486E+01 -0.17268443955E+02  0.17885996827E+02  0.51100000000E-03 0. -1.
        -11    1    3    3    0    0 -0.28484028209E+00 -0.76295113486E+01 -0.16872916376E+02  0.18519878096E+02  0.51100000000E-03 0.  1.
        -12    1    3    3    0    0  0.66001965701E+01  0.34504472047E+01 -0.86062716383E+01  0.11381392366E+02  0.00000000000E+00 0.  1.
</event>
<event>
 7    1  0.2685294E-009  0.4778727E+02  0.7816164E-02  0.1312668E+00
        -11   -1    0    0    0    0  0.00000000000E+00  0.00000000000E+00  0.45593999997E+02  0.45594000000E+02  0.51100000000E-03 0.  1.
         11   -1    0    0    0    0 -0.00000000000E+00 -0.00000000000E+00 -0.45593999997E+02  0.45594000000E+02  0.51100000000E-03 0. -1.
    9900012    2    1    2    0    0 -0.27453367505E+02  0.25736486089E+01 -0.33515846339E+02  0.47787274080E+02  0.20000013842E+02 0.  0.
        -12    1    1    2    0    0  0.27453367505E+02 -0.25736486089E+01  0.33515846339E+02  0.43400725920E+02  0.00000000000E+00 0.  1.
         11    1    3    3    0    0 -0.82191258481E+01  0.49034843743E+01 -0.19007687523E+02  0.21281221158E+02  0.51100000000E-03 0. -1.
        -11    1    3    3    0    0 -0.16196865428E+02  0.16098560973E+01 -0.75244850872E+01  0.17931758487E+02  0.51100000000E-03 0.  1.
        -12    1    3    3    0    0 -0.30373762293E+01 -0.39396918627E+01 -0.69836737279E+01  0.85742944356E+01  0.00000000000E+00 0.  1.
</event>
<event>
 7    1  0.2685294E-009  0.4778728E+02  0.7816164E-02  0.1312668E+00
        -11   -1    0    0    0    0  0.00000000000E+00  0.00000000000E+00  0.45593999997E+02  0.45594000000E+02  0.51100000000E-03 0.  1.
         11   -1    0    0    0    0 -0.00000000000E+00 -0.00000000000E+00 -0.45593999997E+02  0.45594000000E+02  0.51100000000E-03 0. -1.
    9900012    2    1    2    0    0 -0.16123357011E+02  0.17972154183E+02 -0.36064687750E+02  0.47787278003E+02  0.20000031729E+02 0.  0.
        -12    1    1    2    0    0  0.16123357011E+02 -0.17972154183E+02  0.36064687750E+02  0.43400721997E+02  0.00000000000E+00 0.  1.
         11    1    3    3    0    0 -0.17639367143E+02  0.92503784785E+01 -0.18920228206E+02  0.27471654679E+02  0.51100000000E-03 0. -1.
        -11    1    3    3    0    0  0.31011333328E+01  0.35049164302E+01 -0.42738927019E+01  0.63377934819E+01  0.51100000000E-03 0.  1.
         12    1    3    3    0    0 -0.15851232014E+01  0.52168592744E+01 -0.12870566842E+02  0.13977829842E+02  0.00000000000E+00 0. -1.
</event>
<event>
 7    1  0.2685294E-009  0.4778727E+02  0.7816164E-02  0.1312668E+00
        -11   -1    0    0    0    0  0.00000000000E+00  0.00000000000E+00  0.45593999997E+02  0.45594000000E+02  0.51100000000E-03 0.  1.
         11   -1    0    0    0    0 -0.00000000000E+00 -0.00000000000E+00 -0.45593999997E+02  0.45594000000E+02  0.51100000000E-03 0. -1.
    9900012    2    1    2    0    0  0.31209645150E+02 -0.29190932936E+02 -0.75809389079E+01  0.47787272462E+02  0.20000006463E+02 0.  0.
        -12    1    1    2    0    0 -0.31209645150E+02  0.29190932936E+02  0.75809389079E+01  0.43400727538E+02  0.00000000000E+00 0.  1.
         11    1    3    3    0    0  0.84326648912E+01 -0.28121239419E+01  0.43791028969E+01  0.99093097981E+01  0.51100000000E-03 0. -1.
        -11    1    3    3    0    0  0.11819286935E+02 -0.15507011639E+02 -0.22147239330E+01  0.19623148473E+02  0.51100000000E-03 0.  1.
         12    1    3    3    0    0  0.10957693324E+02 -0.10871797356E+02 -0.97453178718E+01  0.18254814191E+02  0.00000000000E+00 0. -1.
</event>
<event>
 7    1  0.2685294E-009  0.4778727E+02  0.7816164E-02  0.1312668E+00
        -11   -1    0    0    0    0  0.00000000000E+00  0.00000000000E+00  0.45593999997E+02  0.45594000000E+02  0.51100000000E-03 0.  1.
         11   -1    0    0    0    0 -0.00000000000E+00 -0.00000000000E+00 -0.45593999997E+02  0.45594000000E+02  0.51100000000E-03 0. -1.
    9900012    2    1    2    0    0  0.24518738267E+02  0.20918703992E+02 -0.29066520829E+02  0.47787270329E+02  0.19999996739E+02 0.  0.
        -12    1    1    2    0    0 -0.24518738267E+02 -0.20918703992E+02  0.29066520829E+02  0.43400729671E+02  0.00000000000E+00 0.  1.
         11    1    3    3    0    0  0.86578256220E+00  0.12328486123E+02 -0.99932265546E+01  0.15893575015E+02  0.51100000000E-03 0. -1.
        -11    1    3    3    0    0  0.14054876857E+02  0.33376560985E+01 -0.89901105419E+01  0.17014746531E+02  0.51100000000E-03 0.  1.
         12    1    3    3    0    0  0.95980788474E+01  0.52525617702E+01 -0.10083183732E+02  0.14878948783E+02  0.00000000000E+00 0. -1.
</event>
<event>
 7    1  0.2685294E-009  0.4778727E+02  0.7816164E-02  0.1312668E+00
        -11   -1    0    0    0    0  0.00000000000E+00  0.00000000000E+00  0.45593999997E+02  0.45594000000E+02  0.51100000000E-03 0. -1.
         11   -1    0    0    0    0 -0.00000000000E+00 -0.00000000000E+00 -0.45593999997E+02  0.45594000000E+02  0.51100000000E-03 0.  1.
    9900012    2    1    2    0    0  0.31030427941E+02 -0.10188064759E+02  0.28582149818E+02  0.47787269477E+02  0.19999992853E+02 0.  0.
        -12    1    1    2    0    0 -0.31030427941E+02  0.10188064759E+02 -0.28582149818E+02  0.43400730523E+02  0.00000000000E+00 0.  1.
         11    1    3    3    0    0  0.27248264873E+02 -0.90249814791E+01  0.17555624524E+02  0.33646963934E+02  0.51100000000E-03 0. -1.
        -11    1    3    3    0    0  0.20475225985E+01  0.96665967554E+00  0.11162827368E+02  0.11390149026E+02  0.51100000000E-03 0.  1.
        -12    1    3    3    0    0  0.17346404693E+01 -0.21297429550E+01 -0.13630207401E+00  0.27501565169E+01  0.00000000000E+00 0.  1.
</event>
<event>
 7    1  0.2685294E-009  0.4778728E+02  0.7816164E-02  0.1312668E+00
        -11   -1    0    0    0    0  0.00000000000E+00  0.00000000000E+00  0.45593999997E+02  0.45594000000E+02  0.51100000000E-03 0.  1.
         11   -1    0    0    0    0 -0.00000000000E+00 -0.00000000000E+00 -0.45593999997E+02  0.45594000000E+02  0.51100000000E-03 0. -1.
    9900012    2    1    2    0    0 -0.98613148976E+01  0.28291584958E+02 -0.31400057051E+02  0.47787275424E+02  0.20000019966E+02 0.  0.
        -12    1    1    2    0    0  0.98613148976E+01 -0.28291584958E+02  0.31400057051E+02  0.43400724576E+02  0.00000000000E+00 0.  1.
         11    1    3    3    0    0 -0.61633416463E+01  0.20028283712E+02 -0.15306939285E+02  0.25950362603E+02  0.51100000000E-03 0. -1.
        -11    1    3    3    0    0  0.12667324982E+01  0.22846629676E+00 -0.11059937526E+02  0.11134586944E+02  0.51100000000E-03 0.  1.
         12    1    3    3    0    0 -0.49647057495E+01  0.80348349496E+01 -0.50331802403E+01  0.10702325877E+02  0.00000000000E+00 0. -1.
</event>
<event>
 7    1  0.2685294E-009  0.4778727E+02  0.7816164E-02  0.1312668E+00
        -11   -1    0    0    0    0  0.00000000000E+00  0.00000000000E+00  0.45593999997E+02  0.45594000000E+02  0.51100000000E-03 0.  1.
         11   -1    0    0    0    0 -0.00000000000E+00 -0.00000000000E+00 -0.45593999997E+02  0.45594000000E+02  0.51100000000E-03 0. -1.
    9900012    2    1    2    0    0  0.36595247270E+02  0.69772426168E+01 -0.22264979344E+02  0.47787270254E+02  0.19999996398E+02 0.  0.
        -12    1    1    2    0    0 -0.36595247270E+02 -0.69772426168E+01  0.22264979344E+02  0.43400729746E+02  0.00000000000E+00 0.  1.
         11    1    3    3    0    0  0.21160804468E+02  0.10076026511E+02 -0.97229231426E+01  0.25374025906E+02  0.51100000000E-03 0. -1.
        -11    1    3    3    0    0  0.31957683418E+00 -0.61818512384E+00 -0.55192550808E+01  0.55629541710E+01  0.51100000000E-03 0.  1.
         12    1    3    3    0    0  0.15114865968E+02 -0.24805987707E+01 -0.70228011202E+01  0.16850290177E+02  0.00000000000E+00 0. -1.
</event>
<event>
 7    1  0.2685294E-009  0.4778724E+02  0.7816164E-02  0.1312668E+00
        -11   -1    0    0    0    0  0.00000000000E+00  0.00000000000E+00  0.45593999997E+02  0.45594000000E+02  0.51100000000E-03 0.  1.
         11   -1    0    0    0    0 -0.00000000000E+00 -0.00000000000E+00 -0.45593999997E+02  0.45594000000E+02  0.51100000000E-03 0. -1.
    9900012    2    1    2    0    0 -0.38388828571E+02 -0.19921679132E+02 -0.36125706896E+01  0.47787238192E+02  0.19999850213E+02 0.  0.
        -12    1    1    2    0    0  0.38388828571E+02  0.19921679132E+02  0.36125706896E+01  0.43400761808E+02  0.00000000000E+00 0.  1.
         11    1    3    3    0    0 -0.17140500341E+02 -0.63470743124E+01  0.51553669167E+01  0.18991048222E+02  0.51100000000E-03 0. -1.
        -11    1    3    3    0    0 -0.10222323227E+02 -0.10558919822E+01 -0.59586666300E+01  0.11879246958E+02  0.51100000000E-03 0.  1.
         12    1    3    3    0    0 -0.11026005003E+02 -0.12518712838E+02 -0.28092709763E+01  0.16916943012E+02  0.00000000000E+00 0. -1.
</event>
<event>
 7    1  0.2765349E-009  0.4778727E+02  0.7816164E-02  0.1312668E+00
        -11   -1    0    0    0    0  0.00000000000E+00  0.00000000000E+00  0.45593999997E+02  0.45594000000E+02  0.51100000000E-03 0. -1.
         11   -1    0    0    0    0 -0.00000000000E+00 -0.00000000000E+00 -0.45593999997E+02  0.45594000000E+02  0.51100000000E-03 0.  1.
    9900012    2    1    2    0    0  0.42638766668E+02 -0.72272276663E+01  0.36504540108E+01  0.47787273541E+02  0.20000011382E+02 0.  0.
        -12    1    1    2    0    0 -0.42638766668E+02  0.72272276663E+01 -0.36504540108E+01  0.43400726459E+02  0.00000000000E+00 0.  1.
         11    1    3    3    0    0  0.19569886582E+02  0.21982985848E+01  0.10448317948E+01  0.19720665588E+02  0.51100000000E-03 0. -1.
        -11    1    3    3    0    0  0.12289570913E+02 -0.96421038964E+01  0.60454786989E+01  0.16749672646E+02  0.51100000000E-03 0.  1.
        -12    1    3    3    0    0  0.10779309173E+02  0.21657764531E+00 -0.34398564830E+01  0.11316935307E+02  0.00000000000E+00 0.  1.
</event>
<event>
 7    1  0.2685294E-009  0.4778727E+02  0.7816164E-02  0.1312668E+00
        -11   -1    0    0    0    0  0.00000000000E+00  0.00000000000E+00  0.45593999997E+02  0.45594000000E+02  0.51100000000E-03 0. -1.
         11   -1    0    0    0    0 -0.00000000000E+00 -0.00000000000E+00 -0.45593999997E+02  0.45594000000E+02  0.51100000000E-03 0.  1.
    9900012    2    1    2    0    0 -0.22565247338E+01 -0.20701591609E+02  0.38078541534E+02  0.47787272766E+02  0.20000007851E+02 0.  0.
        -12    1    1    2    0    0  0.22565247338E+01  0.20701591609E+02 -0.38078541534E+02  0.43400727234E+02  0.00000000000E+00 0.  1.
         11    1    3    3    0    0 -0.43797253253E+01 -0.70781343206E+01  0.15786644857E+02  0.17846572093E+02  0.51100000000E-03 0. -1.
        -11    1    3    3    0    0  0.50342337591E+01 -0.88435617308E+00  0.12820194211E+02  0.13801556986E+02  0.51100000000E-03 0.  1.
        -12    1    3    3    0    0 -0.29110331676E+01 -0.12739101115E+02  0.94717024668E+01  0.16139143687E+02  0.00000000000E+00 0.  1.
</event>
<event>
 7    1  0.2685294E-009  0.4778727E+02  0.7816164E-02  0.1312668E+00
        -11   -1    0    0    0    0  0.00000000000E+00  0.00000000000E+00  0.45593999997E+02  0.45594000000E+02  0.51100000000E-03 0. -1.
         11   -1    0    0    0    0 -0.00000000000E+00 -0.00000000000E+00 -0.45593999997E+02  0.45594000000E+02  0.51100000000E-03 0.  1.
    9900012    2    1    2    0    0  0.23258478811E+02  0.31230727500E+02  0.19165281806E+02  0.47787271855E+02  0.20000003697E+02 0.  0.
        -12    1    1    2    0    0 -0.23258478811E+02 -0.31230727500E+02 -0.19165281806E+02  0.43400728145E+02  0.00000000000E+00 0.  1.
         11    1    3    3    0    0  0.11471052737E+02  0.23451289811E+02  0.56590356077E+01  0.26712782127E+02  0.51100000000E-03 0. -1.
        -11    1    3    3    0    0  0.50183790115E+01 -0.83759362384E+00  0.55746995831E+01  0.75473814455E+01  0.51100000000E-03 0.  1.
        -12    1    3    3    0    0  0.67690470618E+01  0.86170313126E+01  0.79315466156E+01  0.13527108282E+02  0.00000000000E+00 0.  1.
</event>
<event>
 7    1  0.2685294E-009  0.4778727E+02  0.7816164E-02  0.1312668E+00
        -11   -1    0    0    0    0  0.00000000000E+00  0.00000000000E+00  0.45593999997E+02  0.45594000000E+02  0.51100000000E-03 0. -1.
         11   -1    0    0    0    0 -0.00000000000E+00 -0.00000000000E+00 -0.45593999997E+02  0.45594000000E+02  0.51100000000E-03 0.  1.
    9900012    2    1    2    0    0  0.38830114008E+01  0.43203202855E+02  0.14243182260E+01  0.47787271931E+02  0.20000004044E+02 0.  0.
        -12    1    1    2    0    0 -0.38830114008E+01 -0.43203202855E+02 -0.14243182260E+01  0.43400728069E+02  0.00000000000E+00 0.  1.
         11    1    3    3    0    0  0.25157209906E+01  0.28402991807E+02  0.41737046435E+01  0.28818025720E+02  0.51100000000E-03 0. -1.
        -11    1    3    3    0    0 -0.42948077804E+01  0.82122687899E+01 -0.41780315427E+01  0.10165760197E+02  0.51100000000E-03 0.  1.
        -12    1    3    3    0    0  0.56620981906E+01  0.65879422586E+01  0.14286451252E+01  0.88034860150E+01  0.00000000000E+00 0.  1.
</event>
<event>
 7    1  0.2685294E-009  0.4778727E+02  0.7816164E-02  0.1312668E+00
        -11   -1    0    0    0    0  0.00000000000E+00  0.00000000000E+00  0.45593999997E+02  0.45594000000E+02  0.51100000000E-03 0.  1.
         11   -1    0    0    0    0 -0.00000000000E+00 -0.00000000000E+00 -0.45593999997E+02  0.45594000000E+02  0.51100000000E-03 0. -1.
    9900012    2    1    2    0    0  0.26382583005E+02 -0.32640682811E+01 -0.34306390323E+02  0.47787271380E+02  0.20000001530E+02 0.  0.
        -12    1    1    2    0    0 -0.26382583005E+02  0.32640682811E+01  0.34306390323E+02  0.43400728620E+02  0.00000000000E+00 0.  1.
         11    1    3    3    0    0  0.13144015132E+02 -0.58988146053E+01 -0.10563118440E+02  0.17864507242E+02  0.51100000000E-03 0. -1.
        -11    1    3    3    0    0  0.18858448471E+01  0.57373048123E+01 -0.52501438616E+01  0.80023176721E+01  0.51100000000E-03 0.  1.
        -12    1    3    3    0    0  0.11352723026E+02 -0.31025584881E+01 -0.18493128021E+02  0.21920446466E+02  0.00000000000E+00 0.  1.
</event>
<event>
 7    1  0.2685294E-009  0.4778727E+02  0.7816164E-02  0.1312668E+00
        -11   -1    0    0    0    0  0.00000000000E+00  0.00000000000E+00  0.45593999997E+02  0.45594000000E+02  0.51100000000E-03 0.  1.
         11   -1    0    0    0    0 -0.00000000000E+00 -0.00000000000E+00 -0.45593999997E+02  0.45594000000E+02  0.51100000000E-03 0. -1.
    9900012    2    1    2    0    0 -0.35907507709E+02 -0.77954182453E+01 -0.23097747483E+02  0.47787267353E+02  0.19999983171E+02 0.  0.
        -12    1    1    2    0    0  0.35907507709E+02  0.77954182453E+01  0.23097747483E+02  0.43400732647E+02  0.00000000000E+00 0.  1.
         11    1    3    3    0    0 -0.97118967317E+01 -0.20735691822E+01 -0.56083048458E+01  0.11404986225E+02  0.51100000000E-03 0. -1.
        -11    1    3    3    0    0 -0.12805879780E+02  0.10450944137E+01  0.62283711424E+00  0.12863541721E+02  0.51100000000E-03 0.  1.
        -12    1    3    3    0    0 -0.13389731198E+02 -0.67669434769E+01 -0.18112279751E+02  0.23518739408E+02  0.00000000000E+00 0.  1.
</event>
<event>
 7    1  0.2685294E-009  0.4778727E+02  0.7816164E-02  0.1312668E+00
        -11   -1    0    0    0    0  0.00000000000E+00  0.00000000000E+00  0.45593999997E+02  0.45594000000E+02  0.51100000000E-03 0.  1.
         11   -1    0    0    0    0 -0.00000000000E+00 -0.00000000000E+00 -0.45593999997E+02  0.45594000000E+02  0.51100000000E-03 0. -1.
    9900012    2    1    2    0    0  0.13211832428E+02  0.25384755022E+02 -0.32629515088E+02  0.47787267765E+02  0.19999985050E+02 0.  0.
        -12    1    1    2    0    0 -0.13211832428E+02 -0.25384755022E+02  0.32629515088E+02  0.43400732235E+02  0.00000000000E+00 0.  1.
         11    1    3    3    0    0  0.37495817663E+01  0.20078460629E+01 -0.63992593696E+01  0.76838356291E+01  0.51100000000E-03 0. -1.
        -11    1    3    3    0    0  0.14502237986E+01  0.15922979026E+02 -0.24151642333E+02  0.28964568662E+02  0.51100000000E-03 0.  1.
        -12    1    3    3    0    0  0.80120268631E+01  0.74539299330E+01 -0.20786133856E+01  0.11138863475E+02  0.00000000000E+00 0.  1.
</event>
<event>
 7    1  0.2685294E-009  0.4778727E+02  0.7816164E-02  0.1312668E+00
        -11   -1    0    0    0    0  0.00000000000E+00  0.00000000000E+00  0.45593999997E+02  0.45594000000E+02  0.51100000000E-03 0. -1.
         11   -1    0    0    0    0 -0.00000000000E+00 -0.00000000000E+00 -0.45593999997E+02  0.45594000000E+02  0.51100000000E-03 0.  1.
    9900012    2    1    2    0    0 -0.28627136164E+02 -0.32617749649E+02 -0.43886685237E+00  0.47787272803E+02  0.20000008016E+02 0.  0.
        -12    1    1    2    0    0  0.28627136164E+02  0.32617749649E+02  0.43886685237E+00  0.43400727197E+02  0.00000000000E+00 0.  1.
         11    1    3    3    0    0 -0.98782018496E+01 -0.17093098897E+02  0.28893439690E+01  0.19952473794E+02  0.51100000000E-03 0. -1.
        -11    1    3    3    0    0 -0.12148981735E+02 -0.72751266491E+01 -0.80211239513E+01  0.16274632244E+02  0.51100000000E-03 0.  1.
        -12    1    3    3    0    0 -0.65999525798E+01 -0.82495241030E+01  0.46929131299E+01  0.11560166765E+02  0.00000000000E+00 0.  1.
</event>
<event>
 7    1  0.2685294E-009  0.4778727E+02  0.7816164E-02  0.1312668E+00
        -11   -1    0    0    0    0  0.00000000000E+00  0.00000000000E+00  0.45593999997E+02  0.45594000000E+02  0.51100000000E-03 0. -1.
         11   -1    0    0    0    0 -0.00000000000E+00 -0.00000000000E+00 -0.45593999997E+02  0.45594000000E+02  0.51100000000E-03 0.  1.
    9900012    2    1    2    0    0 -0.90236097514E+01  0.36467867781E+02  0.21732289245E+02  0.47787270637E+02  0.19999998141E+02 0.  0.
        -12    1    1    2    0    0  0.90236097514E+01 -0.36467867781E+02 -0.21732289245E+02  0.43400729363E+02  0.00000000000E+00 0.  1.
         11    1    3    3    0    0  0.23295758481E+01  0.49692027855E-01  0.40244923753E+01  0.46503690251E+01  0.51100000000E-03 0. -1.
        -11    1    3    3    0    0  0.20689285359E+00 -0.22535843842E+00 -0.52427146165E+00  0.60700239312E+00  0.51100000000E-03 0.  1.
         12    1    3    3    0    0 -0.11560078453E+02  0.36643534192E+02  0.18232068332E+02  0.42529899218E+02  0.00000000000E+00 0. -1.
</event>
<event>
 7    1  0.2685294E-009  0.4778727E+02  0.7816164E-02  0.1312668E+00
        -11   -1    0    0    0    0  0.00000000000E+00  0.00000000000E+00  0.45593999997E+02  0.45594000000E+02  0.51100000000E-03 0.  1.
         11   -1    0    0    0    0 -0.00000000000E+00 -0.00000000000E+00 -0.45593999997E+02  0.45594000000E+02  0.51100000000E-03 0. -1.
    9900012    2    1    2    0    0 -0.99565613465E+01  0.25537463380E+02  0.33650081632E+02  0.47787272546E+02  0.20000006847E+02 0.  0.
        -12    1    1    2    0    0  0.99565613465E+01 -0.25537463380E+02 -0.33650081632E+02  0.43400727454E+02  0.00000000000E+00 0.  1.
         11    1    3    3    0    0 -0.13792851184E+02  0.17921058686E+02  0.23714282478E+02  0.32768495264E+02  0.51100000000E-03 0. -1.
        -11    1    3    3    0    0  0.15215288743E+01  0.10971198218E+01 -0.96390160882E+00  0.21089875750E+01  0.51100000000E-03 0.  1.
        -12    1    3    3    0    0  0.23147609628E+01  0.65192848714E+01  0.10899700763E+02  0.12909789707E+02  0.00000000000E+00 0.  1.
</event>
<event>
 7    1  0.2685294E-009  0.4778727E+02  0.7816164E-02  0.1312668E+00
        -11   -1    0    0    0    0  0.00000000000E+00  0.00000000000E+00  0.45593999997E+02  0.45594000000E+02  0.51100000000E-03 0.  1.
         11   -1    0    0    0    0 -0.00000000000E+00 -0.00000000000E+00 -0.45593999997E+02  0.45594000000E+02  0.51100000000E-03 0. -1.
    9900012    2    1    2    0    0  0.19922464131E+01 -0.65583944224E+01 -0.42856059747E+02  0.47787269128E+02  0.19999991262E+02 0.  0.
        -12    1    1    2    0    0 -0.19922464131E+01  0.65583944224E+01  0.42856059747E+02  0.43400730872E+02  0.00000000000E+00 0.  1.
         11    1    3    3    0    0 -0.26378133153E+01 -0.27524499711E+01 -0.26151715915E+00  0.38213127869E+01  0.51100000000E-03 0. -1.
        -11    1    3    3    0    0  0.49347431258E+01  0.46024266066E+00 -0.10774307550E+02  0.11859562237E+02  0.51100000000E-03 0.  1.
         12    1    3    3    0    0 -0.30468339731E+00 -0.42661871120E+01 -0.31820235038E+02  0.32106394104E+02  0.00000000000E+00 0. -1.
</event>
<event>
 7    1  0.2685294E-009  0.4778727E+02  0.7816164E-02  0.1312668E+00
        -11   -1    0    0    0    0  0.00000000000E+00  0.00000000000E+00  0.45593999997E+02  0.45594000000E+02  0.51100000000E-03 0. -1.
         11   -1    0    0    0    0 -0.00000000000E+00 -0.00000000000E+00 -0.45593999997E+02  0.45594000000E+02  0.51100000000E-03 0.  1.
    9900012    2    1    2    0    0  0.57753670119E+01 -0.35409732799E+02  0.24421695728E+02  0.47787271167E+02  0.20000000560E+02 0.  0.
        -12    1    1    2    0    0 -0.57753670119E+01  0.35409732799E+02 -0.24421695728E+02  0.43400728833E+02  0.00000000000E+00 0.  1.
         11    1    3    3    0    0  0.98177674336E+01 -0.16411594725E+02  0.16622737453E+02  0.25338595057E+02  0.51100000000E-03 0. -1.
        -11    1    3    3    0    0  0.23108327690E+00  0.36109063687E-01 -0.10151998390E+01  0.10417937990E+01  0.51100000000E-03 0.  1.
         12    1    3    3    0    0 -0.42734836985E+01 -0.19034247137E+02  0.88141581140E+01  0.21406882311E+02  0.00000000000E+00 0. -1.
</event>
<event>
 7    1  0.3091600E-009  0.4778727E+02  0.7816164E-02  0.1312668E+00
        -11   -1    0    0    0    0  0.00000000000E+00  0.00000000000E+00  0.45593999997E+02  0.45594000000E+02  0.51100000000E-03 0. -1.
         11   -1    0    0    0    0 -0.00000000000E+00 -0.00000000000E+00 -0.45593999997E+02  0.45594000000E+02  0.51100000000E-03 0.  1.
    9900012    2    1    2    0    0  0.34675216582E+02  0.17330906815E+02  0.19516471220E+02  0.47787267000E+02  0.19999981560E+02 0.  0.
        -12    1    1    2    0    0 -0.34675216582E+02 -0.17330906815E+02 -0.19516471220E+02  0.43400733000E+02  0.00000000000E+00 0.  1.
         11    1    3    3    0    0  0.21506447790E+02  0.74229524084E+01  0.13118801907E+02  0.26262720398E+02  0.51100000000E-03 0. -1.
        -11    1    3    3    0    0 -0.14881948168E+01  0.46407311953E+01  0.62016886795E+00  0.49128117739E+01  0.51100000000E-03 0.  1.
        -12    1    3    3    0    0  0.14656963609E+02  0.52672232111E+01  0.57775004452E+01  0.16611734828E+02  0.00000000000E+00 0.  1.
</event>
<event>
 7    1  0.2685294E-009  0.4778727E+02  0.7816164E-02  0.1312668E+00
        -11   -1    0    0    0    0  0.00000000000E+00  0.00000000000E+00  0.45593999997E+02  0.45594000000E+02  0.51100000000E-03 0.  1.
         11   -1    0    0    0    0 -0.00000000000E+00 -0.00000000000E+00 -0.45593999997E+02  0.45594000000E+02  0.51100000000E-03 0. -1.
    9900012    2    1    2    0    0  0.40056467638E+02 -0.82564368065E+01 -0.14523566340E+02  0.47787270426E+02  0.19999997178E+02 0.  0.
        -12    1    1    2    0    0 -0.40056467638E+02  0.82564368065E+01  0.14523566340E+02  0.43400729574E+02  0.00000000000E+00 0.  1.
         11    1    3    3    0    0  0.13831283713E+02 -0.65815773081E+01  0.18635279449E+01  0.15430304782E+02  0.51100000000E-03 0. -1.
        -11    1    3    3    0    0  0.11792598570E+02 -0.34553030425E+01 -0.11980264055E+02  0.17161912109E+02  0.51100000000E-03 0.  1.
         12    1    3    3    0    0  0.14432585355E+02  0.17804435441E+01 -0.44068302305E+01  0.15195053534E+02  0.00000000000E+00 0. -1.
</event>
<event>
 7    1  0.2685294E-009  0.4778727E+02  0.7816164E-02  0.1312668E+00
        -11   -1    0    0    0    0  0.00000000000E+00  0.00000000000E+00  0.45593999997E+02  0.45594000000E+02  0.51100000000E-03 0.  1.
         11   -1    0    0    0    0 -0.00000000000E+00 -0.00000000000E+00 -0.45593999997E+02  0.45594000000E+02  0.51100000000E-03 0. -1.
    9900012    2    1    2    0    0 -0.31116934826E+02  0.11237864722E+02 -0.28090392427E+02  0.47787269785E+02  0.19999994258E+02 0.  0.
        -12    1    1    2    0    0  0.31116934826E+02 -0.11237864722E+02  0.28090392427E+02  0.43400730215E+02  0.00000000000E+00 0.  1.
         11    1    3    3    0    0 -0.18512537408E+02  0.92398191843E+01 -0.15588136448E+02  0.25905178981E+02  0.51100000000E-03 0. -1.
        -11    1    3    3    0    0 -0.33119607883E+01 -0.15572404193E+00  0.24664763559E+01  0.41324133525E+01  0.51100000000E-03 0.  1.
         12    1    3    3    0    0 -0.92924366302E+01  0.21537695794E+01 -0.14968732335E+02  0.17749677452E+02  0.00000000000E+00 0. -1.
</event>
<event>
 7    1  0.2685294E-009  0.4778727E+02  0.7816164E-02  0.1312668E+00
        -11   -1    0    0    0    0  0.00000000000E+00  0.00000000000E+00  0.45593999997E+02  0.45594000000E+02  0.51100000000E-03 0.  1.
         11   -1    0    0    0    0 -0.00000000000E+00 -0.00000000000E+00 -0.45593999997E+02  0.45594000000E+02  0.51100000000E-03 0. -1.
    9900012    2    1    2    0    0  0.48436756988E+01  0.11523657617E+02 -0.41561610933E+02  0.47787269793E+02  0.19999994296E+02 0.  0.
        -12    1    1    2    0    0 -0.48436756988E+01 -0.11523657617E+02  0.41561610933E+02  0.43400730207E+02  0.00000000000E+00 0.  1.
         11    1    3    3    0    0  0.27716657683E+00 -0.77806756736E+00 -0.36599335839E+01  0.37519760861E+01  0.51100000000E-03 0. -1.
        -11    1    3    3    0    0  0.86141819234E+01  0.39453975426E+01 -0.70310641891E+01  0.11798565840E+02  0.51100000000E-03 0.  1.
        -12    1    3    3    0    0 -0.40476728014E+01  0.83563276422E+01 -0.30870613160E+02  0.32236727868E+02  0.00000000000E+00 0.  1.
</event>
<event>
 7    1  0.2685294E-009  0.4778728E+02  0.7816164E-02  0.1312668E+00
        -11   -1    0    0    0    0  0.00000000000E+00  0.00000000000E+00  0.45593999997E+02  0.45594000000E+02  0.51100000000E-03 0.  1.
         11   -1    0    0    0    0 -0.00000000000E+00 -0.00000000000E+00 -0.45593999997E+02  0.45594000000E+02  0.51100000000E-03 0. -1.
    9900012    2    1    2    0    0 -0.37928268889E+02 -0.74439732721E+00 -0.21083528779E+02  0.47787275420E+02  0.20000019948E+02 0.  0.
        -12    1    1    2    0    0  0.37928268889E+02  0.74439732721E+00  0.21083528779E+02  0.43400724580E+02  0.00000000000E+00 0.  1.
         11    1    3    3    0    0 -0.73374095340E+01  0.45877825043E+01 -0.98466696207E+01  0.13108860738E+02  0.51100000000E-03 0. -1.
        -11    1    3    3    0    0 -0.16057019321E+02 -0.56681283304E+00 -0.65650458977E+00  0.16080427382E+02  0.51100000000E-03 0.  1.
         12    1    3    3    0    0 -0.14533840034E+02 -0.47653669985E+01 -0.10580354569E+02  0.18597987299E+02  0.00000000000E+00 0. -1.
</event>
<event>
 7    1  0.2685294E-009  0.4778727E+02  0.7816164E-02  0.1312668E+00
        -11   -1    0    0    0    0  0.00000000000E+00  0.00000000000E+00  0.45593999997E+02  0.45594000000E+02  0.51100000000E-03 0.  1.
         11   -1    0    0    0    0 -0.00000000000E+00 -0.00000000000E+00 -0.45593999997E+02  0.45594000000E+02  0.51100000000E-03 0. -1.
    9900012    2    1    2    0    0 -0.15295900595E+02  0.38760680128E+02 -0.12135412056E+02  0.47787272762E+02  0.20000007830E+02 0.  0.
        -12    1    1    2    0    0  0.15295900595E+02 -0.38760680128E+02  0.12135412056E+02  0.43400727238E+02  0.00000000000E+00 0.  1.
         11    1    3    3    0    0 -0.98776404698E+01  0.19179654873E+02 -0.35625587445E+01  0.21865927087E+02  0.51100000000E-03 0. -1.
        -11    1    3    3    0    0 -0.17540583969E+01  0.20574723781E+02 -0.75851189536E+01  0.21998409246E+02  0.51100000000E-03 0.  1.
        -12    1    3    3    0    0 -0.36642017284E+01 -0.99369852588E+00 -0.98773435803E+00  0.39229364294E+01  0.00000000000E+00 0.  1.
</event>
<event>
 7    1  0.2685294E-009  0.4778733E+02  0.7816164E-02  0.1312668E+00
        -11   -1    0    0    0    0  0.00000000000E+00  0.00000000000E+00  0.45593999997E+02  0.45594000000E+02  0.51100000000E-03 0. -1.
         11   -1    0    0    0    0 -0.00000000000E+00 -0.00000000000E+00 -0.45593999997E+02  0.45594000000E+02  0.51100000000E-03 0.  1.
    9900012    2    1    2    0    0  0.55151761806E+01 -0.38468717332E+02  0.19322504244E+02  0.47787325446E+02  0.20000248038E+02 0.  0.
        -12    1    1    2    0    0 -0.55151761806E+01  0.38468717332E+02 -0.19322504244E+02  0.43400674554E+02  0.00000000000E+00 0.  1.
         11    1    3    3    0    0  0.63128436941E+01 -0.11265405367E+02  0.13919769113E+02  0.18987399138E+02  0.51100000000E-03 0. -1.
        -11    1    3    3    0    0 -0.16114056699E+01 -0.25948477316E+02  0.66691054424E+01  0.26840213690E+02  0.51100000000E-03 0.  1.
         12    1    3    3    0    0  0.81373815640E+00 -0.12548346485E+01 -0.12663703112E+01  0.19597126186E+01  0.00000000000E+00 0. -1.
</event>
<event>
 7    1  0.2685294E-009  0.4778727E+02  0.7816164E-02  0.1312668E+00
        -11   -1    0    0    0    0  0.00000000000E+00  0.00000000000E+00  0.45593999997E+02  0.45594000000E+02  0.51100000000E-03 0.  1.
         11   -1    0    0    0    0 -0.00000000000E+00 -0.00000000000E+00 -0.45593999997E+02  0.45594000000E+02  0.51100000000E-03 0. -1.
    9900012    2    1    2    0    0  0.12238071599E+02 -0.13777610329E+02 -0.39294153683E+02  0.47787268940E+02  0.19999990406E+02 0.  0.
        -12    1    1    2    0    0 -0.12238071599E+02  0.13777610329E+02  0.39294153683E+02  0.43400731060E+02  0.00000000000E+00 0.  1.
         11    1    3    3    0    0  0.99537761864E+01 -0.41728527949E+01 -0.25496183685E+02  0.27686562509E+02  0.51100000000E-03 0. -1.
        -11    1    3    3    0    0  0.28670807404E+01 -0.11621775903E+02 -0.93741845058E+01  0.15203985087E+02  0.51100000000E-03 0.  1.
        -12    1    3    3    0    0 -0.58278532814E+00  0.20170183686E+01 -0.44237854929E+01  0.48967213444E+01  0.00000000000E+00 0.  1.
</event>
<event>
 7    1  0.2685294E-009  0.4778724E+02  0.7816164E-02  0.1312668E+00
        -11   -1    0    0    0    0  0.00000000000E+00  0.00000000000E+00  0.45593999997E+02  0.45594000000E+02  0.51100000000E-03 0.  1.
         11   -1    0    0    0    0 -0.00000000000E+00 -0.00000000000E+00 -0.45593999997E+02  0.45594000000E+02  0.51100000000E-03 0. -1.
    9900012    2    1    2    0    0  0.41680825432E+02  0.39359103606E+01 -0.11438692227E+02  0.47787236424E+02  0.19999842152E+02 0.  0.
        -12    1    1    2    0    0 -0.41680825432E+02 -0.39359103606E+01  0.11438692227E+02  0.43400763576E+02  0.00000000000E+00 0.  1.
         11    1    3    3    0    0  0.21236245360E+02  0.66873817630E+01 -0.64166607203E+01  0.23170514170E+02  0.51100000000E-03 0. -1.
        -11    1    3    3    0    0  0.19846673400E+02 -0.48380038934E+01 -0.15041706209E+01  0.20483145663E+02  0.51100000000E-03 0.  1.
        -12    1    3    3    0    0  0.59790667209E+00  0.20865324911E+01 -0.35178608858E+01  0.41335765914E+01  0.00000000000E+00 0.  1.
</event>
<event>
 7    1  0.2685294E-009  0.4778727E+02  0.7816164E-02  0.1312668E+00
        -11   -1    0    0    0    0  0.00000000000E+00  0.00000000000E+00  0.45593999997E+02  0.45594000000E+02  0.51100000000E-03 0. -1.
         11   -1    0    0    0    0 -0.00000000000E+00 -0.00000000000E+00 -0.45593999997E+02  0.45594000000E+02  0.51100000000E-03 0.  1.
    9900012    2    1    2    0    0  0.26983595659E+02 -0.33614095458E+02 -0.50597710746E+01  0.47787272685E+02  0.20000007482E+02 0.  0.
        -12    1    1    2    0    0 -0.26983595659E+02  0.33614095458E+02  0.50597710746E+01  0.43400727315E+02  0.00000000000E+00 0.  1.
         11    1    3    3    0    0  0.12666934476E+02 -0.14058186556E+02  0.98947794192E+00  0.18948955251E+02  0.51100000000E-03 0. -1.
        -11    1    3    3    0    0  0.50366005425E+01 -0.18118080911E+02 -0.41383899753E+01  0.19255089529E+02  0.51100000000E-03 0.  1.
        -12    1    3    3    0    0  0.92800606401E+01 -0.14378279914E+01 -0.19108590413E+01  0.95832279057E+01  0.00000000000E+00 0.  1.
</event>
<event>
 7    1  0.2685294E-009  0.4778728E+02  0.7816164E-02  0.1312668E+00
        -11   -1    0    0    0    0  0.00000000000E+00  0.00000000000E+00  0.45593999997E+02  0.45594000000E+02  0.51100000000E-03 0. -1.
         11   -1    0    0    0    0 -0.00000000000E+00 -0.00000000000E+00 -0.45593999997E+02  0.45594000000E+02  0.51100000000E-03 0.  1.
    9900012    2    1    2    0    0  0.17625123050E+01  0.38653235350E+02  0.19658174720E+02  0.47787275513E+02  0.20000020375E+02 0.  0.
        -12    1    1    2    0    0 -0.17625123050E+01 -0.38653235350E+02 -0.19658174720E+02  0.43400724487E+02  0.00000000000E+00 0.  1.
         11    1    3    3    0    0 -0.27352345648E+01  0.28024542433E+02  0.19436763791E+02  0.34214679213E+02  0.51100000000E-03 0. -1.
        -11    1    3    3    0    0  0.26449955674E+01  0.27336460662E+00 -0.12714595471E+01  0.29474292868E+01  0.51100000000E-03 0.  1.
         12    1    3    3    0    0  0.18527513025E+01  0.10355328310E+02  0.14928704758E+01  0.10625167013E+02  0.00000000000E+00 0. -1.
</event>
<event>
 7    1  0.2685294E-009  0.4778727E+02  0.7816164E-02  0.1312668E+00
        -11   -1    0    0    0    0  0.00000000000E+00  0.00000000000E+00  0.45593999997E+02  0.45594000000E+02  0.51100000000E-03 0. -1.
         11   -1    0    0    0    0 -0.00000000000E+00 -0.00000000000E+00 -0.45593999997E+02  0.45594000000E+02  0.51100000000E-03 0.  1.
    9900012    2    1    2    0    0 -0.22888145492E+02 -0.30458932078E+00  0.36873608963E+02  0.47787274007E+02  0.20000013509E+02 0.  0.
        -12    1    1    2    0    0  0.22888145492E+02  0.30458932078E+00 -0.36873608963E+02  0.43400725993E+02  0.00000000000E+00 0.  1.
         11    1    3    3    0    0 -0.68193967802E+01  0.68047558562E+01  0.13427884672E+02  0.16526250686E+02  0.51100000000E-03 0. -1.
        -11    1    3    3    0    0 -0.58544972723E+01 -0.78197639551E+01  0.15409977342E+02  0.18245307577E+02  0.51100000000E-03 0.  1.
         12    1    3    3    0    0 -0.10214251440E+02  0.71041877807E+00  0.80357469495E+01  0.13015715745E+02  0.00000000000E+00 0. -1.
</event>
<event>
 7    1  0.2685294E-009  0.4778727E+02  0.7816164E-02  0.1312668E+00
        -11   -1    0    0    0    0  0.00000000000E+00  0.00000000000E+00  0.45593999997E+02  0.45594000000E+02  0.51100000000E-03 0. -1.
         11   -1    0    0    0    0 -0.00000000000E+00 -0.00000000000E+00 -0.45593999997E+02  0.45594000000E+02  0.51100000000E-03 0.  1.
    9900012    2    1    2    0    0  0.34495368894E+02 -0.43968179612E+01  0.25968451122E+02  0.47787274926E+02  0.20000017697E+02 0.  0.
        -12    1    1    2    0    0 -0.34495368894E+02  0.43968179612E+01 -0.25968451122E+02  0.43400725074E+02  0.00000000000E+00 0.  1.
         11    1    3    3    0    0  0.14282446026E+02 -0.22976233693E+01  0.51073039376E+01  0.15341182855E+02  0.51100000000E-03 0. -1.
        -11    1    3    3    0    0  0.47811433377E+01 -0.42030496151E+01  0.14093865350E+02  0.15464863350E+02  0.51100000000E-03 0.  1.
        -12    1    3    3    0    0  0.15431779530E+02  0.21038550232E+01  0.67672818345E+01  0.16981228720E+02  0.00000000000E+00 0.  1.
</event>
<event>
 7    1  0.2685294E-009  0.4778727E+02  0.7816164E-02  0.1312668E+00
        -11   -1    0    0    0    0  0.00000000000E+00  0.00000000000E+00  0.45593999997E+02  0.45594000000E+02  0.51100000000E-03 0.  1.
         11   -1    0    0    0    0 -0.00000000000E+00 -0.00000000000E+00 -0.45593999997E+02  0.45594000000E+02  0.51100000000E-03 0. -1.
    9900012    2    1    2    0    0  0.37718184389E+01  0.17800869401E+02 -0.39402108983E+02  0.47787265466E+02  0.19999974568E+02 0.  0.
        -12    1    1    2    0    0 -0.37718184389E+01 -0.17800869401E+02  0.39402108983E+02  0.43400734534E+02  0.00000000000E+00 0.  1.
         11    1    3    3    0    0 -0.35043975066E+01  0.13561846181E+02 -0.35226980174E+02  0.37909690136E+02  0.51100000000E-03 0. -1.
        -11    1    3    3    0    0  0.21772858291E+01  0.86247100770E+00  0.21153479567E+00  0.23514202201E+01  0.51100000000E-03 0.  1.
         12    1    3    3    0    0  0.50989301165E+01  0.33765522120E+01 -0.43866636042E+01  0.75261551107E+01  0.00000000000E+00 0. -1.
</event>
<event>
 7    1  0.2685294E-009  0.4778727E+02  0.7816164E-02  0.1312668E+00
        -11   -1    0    0    0    0  0.00000000000E+00  0.00000000000E+00  0.45593999997E+02  0.45594000000E+02  0.51100000000E-03 0.  1.
         11   -1    0    0    0    0 -0.00000000000E+00 -0.00000000000E+00 -0.45593999997E+02  0.45594000000E+02  0.51100000000E-03 0. -1.
    9900012    2    1    2    0    0  0.56631890034E+01  0.25335972701E+02 -0.34779875860E+02  0.47787274347E+02  0.20000015057E+02 0.  0.
        -12    1    1    2    0    0 -0.56631890034E+01 -0.25335972701E+02  0.34779875860E+02  0.43400725653E+02  0.00000000000E+00 0.  1.
         11    1    3    3    0    0  0.59658072669E+01  0.18654835268E+02 -0.10136913568E+02  0.22053361471E+02  0.51100000000E-03 0. -1.
        -11    1    3    3    0    0 -0.12218148188E+01  0.91192071136E+00 -0.63647880739E+01  0.65448421159E+01  0.51100000000E-03 0.  1.
         12    1    3    3    0    0  0.91919655537E+00  0.57692167218E+01 -0.18278174218E+02  0.19189070760E+02  0.00000000000E+00 0. -1.
</event>
<event>
 7    1  0.2685294E-009  0.4778727E+02  0.7816164E-02  0.1312668E+00
        -11   -1    0    0    0    0  0.00000000000E+00  0.00000000000E+00  0.45593999997E+02  0.45594000000E+02  0.51100000000E-03 0.  1.
         11   -1    0    0    0    0 -0.00000000000E+00 -0.00000000000E+00 -0.45593999997E+02  0.45594000000E+02  0.51100000000E-03 0. -1.
    9900012    2    1    2    0    0  0.15778532184E+02  0.38817494526E+02 -0.11307667054E+02  0.47787270820E+02  0.19999998976E+02 0.  0.
        -12    1    1    2    0    0 -0.15778532184E+02 -0.38817494526E+02  0.11307667054E+02  0.43400729180E+02  0.00000000000E+00 0.  1.
         11    1    3    3    0    0  0.12351536246E+02  0.31374541497E+02 -0.15475618993E+01  0.33753773861E+02  0.51100000000E-03 0. -1.
        -11    1    3    3    0    0 -0.11685361760E+01  0.42808812180E+01 -0.51387702212E+01  0.67895788120E+01  0.51100000000E-03 0.  1.
        -12    1    3    3    0    0  0.45955321138E+01  0.31620718115E+01 -0.46213349336E+01  0.72439181469E+01  0.00000000000E+00 0.  1.
</event>
<event>
 7    1  0.2685294E-009  0.4778726E+02  0.7816164E-02  0.1312668E+00
        -11   -1    0    0    0    0  0.00000000000E+00  0.00000000000E+00  0.45593999997E+02  0.45594000000E+02  0.51100000000E-03 0.  1.
         11   -1    0    0    0    0 -0.00000000000E+00 -0.00000000000E+00 -0.45593999997E+02  0.45594000000E+02  0.51100000000E-03 0. -1.
    9900012    2    1    2    0    0  0.28736068193E+02 -0.29884242781E+02 -0.12837230170E+02  0.47787261985E+02  0.19999958694E+02 0.  0.
        -12    1    1    2    0    0 -0.28736068193E+02  0.29884242781E+02  0.12837230170E+02  0.43400738015E+02  0.00000000000E+00 0.  1.
         11    1    3    3    0    0  0.56555601261E+01 -0.78573394903E+01 -0.24098740334E+01  0.99765042637E+01  0.51100000000E-03 0. -1.
        -11    1    3    3    0    0  0.75232618628E+01 -0.15040739710E+02 -0.12036821237E+02  0.20681111813E+02  0.51100000000E-03 0.  1.
        -12    1    3    3    0    0  0.15557246204E+02 -0.69861635813E+01  0.16094650999E+01  0.17129645908E+02  0.00000000000E+00 0.  1.
</event>
<event>
 7    1  0.2685294E-009  0.4778728E+02  0.7816164E-02  0.1312668E+00
        -11   -1    0    0    0    0  0.00000000000E+00  0.00000000000E+00  0.45593999997E+02  0.45594000000E+02  0.51100000000E-03 0.  1.
         11   -1    0    0    0    0 -0.00000000000E+00 -0.00000000000E+00 -0.45593999997E+02  0.45594000000E+02  0.51100000000E-03 0. -1.
    9900012    2    1    2    0    0  0.64976976684E+01 -0.25829106491E+02 -0.34267472552E+02  0.47787280050E+02  0.20000041059E+02 0.  0.
        -12    1    1    2    0    0 -0.64976976684E+01  0.25829106491E+02  0.34267472552E+02  0.43400719950E+02  0.00000000000E+00 0.  1.
         11    1    3    3    0    0  0.88087617211E+01 -0.18481997815E+02 -0.12222909068E+02  0.23844874347E+02  0.51100000000E-03 0. -1.
        -11    1    3    3    0    0 -0.32557090559E+01 -0.40422401883E+01 -0.84220240579E+01  0.98929185122E+01  0.51100000000E-03 0.  1.
         12    1    3    3    0    0  0.94464500319E+00 -0.33048684877E+01 -0.13622539426E+02  0.14049487191E+02  0.00000000000E+00 0. -1.
</event>
<event>
 7    1  0.2685294E-009  0.4778726E+02  0.7816164E-02  0.1312668E+00
        -11   -1    0    0    0    0  0.00000000000E+00  0.00000000000E+00  0.45593999997E+02  0.45594000000E+02  0.51100000000E-03 0.  1.
         11   -1    0    0    0    0 -0.00000000000E+00 -0.00000000000E+00 -0.45593999997E+02  0.45594000000E+02  0.51100000000E-03 0. -1.
    9900012    2    1    2    0    0  0.10441311337E+02  0.19029809676E+02 -0.37582838160E+02  0.47787258499E+02  0.19999942799E+02 0.  0.
        -12    1    1    2    0    0 -0.10441311337E+02 -0.19029809676E+02  0.37582838160E+02  0.43400741501E+02  0.00000000000E+00 0.  1.
         11    1    3    3    0    0  0.34562870166E+01  0.96691045023E+01 -0.16681776628E+02  0.19588751200E+02  0.51100000000E-03 0. -1.
        -11    1    3    3    0    0 -0.39906272892E+01  0.43165549834E+01 -0.29909560212E+01  0.65957237107E+01  0.51100000000E-03 0.  1.
        -12    1    3    3    0    0  0.10975651610E+02  0.50441501898E+01 -0.17910105510E+02  0.21602783589E+02  0.00000000000E+00 0.  1.
</event>
<event>
 7    1  0.2685294E-009  0.4778728E+02  0.7816164E-02  0.1312668E+00
        -11   -1    0    0    0    0  0.00000000000E+00  0.00000000000E+00  0.45593999997E+02  0.45594000000E+02  0.51100000000E-03 0.  1.
         11   -1    0    0    0    0 -0.00000000000E+00 -0.00000000000E+00 -0.45593999997E+02  0.45594000000E+02  0.51100000000E-03 0. -1.
    9900012    2    1    2    0    0  0.21290564190E+02 -0.35960267792E+02 -0.11712953286E+02  0.47787282749E+02  0.20000053366E+02 0.  0.
        -12    1    1    2    0    0 -0.21290564190E+02  0.35960267792E+02  0.11712953286E+02  0.43400717251E+02  0.00000000000E+00 0.  1.
         11    1    3    3    0    0  0.11717061988E+02 -0.94416635986E+01 -0.50628355685E+01  0.15876613537E+02  0.51100000000E-03 0. -1.
        -11    1    3    3    0    0  0.42752014336E+01 -0.25009940179E+02 -0.36383989472E+01  0.25632253163E+02  0.51100000000E-03 0.  1.
        -12    1    3    3    0    0  0.52983007683E+01 -0.15086640149E+01 -0.30117187704E+01  0.62784160497E+01  0.00000000000E+00 0.  1.
</event>
<event>
 7    1  0.2685294E-009  0.4778727E+02  0.7816164E-02  0.1312668E+00
        -11   -1    0    0    0    0  0.00000000000E+00  0.00000000000E+00  0.45593999997E+02  0.45594000000E+02  0.51100000000E-03 0.  1.
         11   -1    0    0    0    0 -0.00000000000E+00 -0.00000000000E+00 -0.45593999997E+02  0.45594000000E+02  0.51100000000E-03 0. -1.
    9900012    2    1    2    0    0 -0.24317832974E+02 -0.19645058405E+02 -0.30105443137E+02  0.47787273891E+02  0.20000012980E+02 0.  0.
        -12    1    1    2    0    0  0.24317832974E+02  0.19645058405E+02  0.30105443137E+02  0.43400726109E+02  0.00000000000E+00 0.  1.
         11    1    3    3    0    0 -0.94043782337E+01 -0.45639119894E+01 -0.18882095924E+02  0.21582519996E+02  0.51100000000E-03 0. -1.
        -11    1    3    3    0    0 -0.16259650480E+02 -0.12147368842E+02 -0.85906554609E+01  0.22039377601E+02  0.51100000000E-03 0.  1.
        -12    1    3    3    0    0  0.13461957396E+01 -0.29337775734E+01 -0.26326917520E+01  0.41653762953E+01  0.00000000000E+00 0.  1.
</event>
<event>
 7    1  0.2685294E-009  0.4778727E+02  0.7816164E-02  0.1312668E+00
        -11   -1    0    0    0    0  0.00000000000E+00  0.00000000000E+00  0.45593999997E+02  0.45594000000E+02  0.51100000000E-03 0.  1.
         11   -1    0    0    0    0 -0.00000000000E+00 -0.00000000000E+00 -0.45593999997E+02  0.45594000000E+02  0.51100000000E-03 0. -1.
    9900012    2    1    2    0    0 -0.41928194139E+02  0.10955941044E+02 -0.23699999645E+01  0.47787274110E+02  0.20000013976E+02 0.  0.
        -12    1    1    2    0    0  0.41928194139E+02 -0.10955941044E+02  0.23699999645E+01  0.43400725890E+02  0.00000000000E+00 0.  1.
         11    1    3    3    0    0 -0.11761697927E+02  0.22058804990E+01 -0.58264203822E+01  0.13309794200E+02  0.51100000000E-03 0. -1.
        -11    1    3    3    0    0 -0.29020207676E+02  0.78660996585E+01  0.68063825007E+01  0.30828149805E+02  0.51100000000E-03 0.  1.
        -12    1    3    3    0    0 -0.11462885360E+01  0.88396088683E+00 -0.33499620829E+01  0.36493301049E+01  0.00000000000E+00 0.  1.
</event>
<event>
 7    1  0.2685294E-009  0.4778727E+02  0.7816164E-02  0.1312668E+00
        -11   -1    0    0    0    0  0.00000000000E+00  0.00000000000E+00  0.45593999997E+02  0.45594000000E+02  0.51100000000E-03 0.  1.
         11   -1    0    0    0    0 -0.00000000000E+00 -0.00000000000E+00 -0.45593999997E+02  0.45594000000E+02  0.51100000000E-03 0. -1.
    9900012    2    1    2    0    0 -0.35903325492E+02  0.19946780630E+02  0.14024991981E+02  0.47787271447E+02  0.20000001835E+02 0.  0.
        -12    1    1    2    0    0  0.35903325492E+02 -0.19946780630E+02 -0.14024991981E+02  0.43400728553E+02  0.00000000000E+00 0.  1.
         11    1    3    3    0    0 -0.12241097442E+02  0.14126335963E+02  0.15897070514E+01  0.18759664258E+02  0.51100000000E-03 0. -1.
        -11    1    3    3    0    0 -0.19566470422E+02  0.67686536619E+01  0.13467208779E+02  0.24698727694E+02  0.51100000000E-03 0.  1.
        -12    1    3    3    0    0 -0.40957576282E+01 -0.94820899441E+00 -0.10319238492E+01  0.43288794944E+01  0.00000000000E+00 0.  1.
</event>
<event>
 7    1  0.2685294E-009  0.4778727E+02  0.7816164E-02  0.1312668E+00
        -11   -1    0    0    0    0  0.00000000000E+00  0.00000000000E+00  0.45593999997E+02  0.45594000000E+02  0.51100000000E-03 0. -1.
         11   -1    0    0    0    0 -0.00000000000E+00 -0.00000000000E+00 -0.45593999997E+02  0.45594000000E+02  0.51100000000E-03 0.  1.
    9900012    2    1    2    0    0 -0.18586318460E+02 -0.25131149645E+02  0.30109754095E+02  0.47787271803E+02  0.20000003458E+02 0.  0.
        -12    1    1    2    0    0  0.18586318460E+02  0.25131149645E+02 -0.30109754095E+02  0.43400728197E+02  0.00000000000E+00 0.  1.
         11    1    3    3    0    0 -0.81276147158E+01 -0.14458078570E+02  0.16268298329E+02  0.23232556633E+02  0.51100000000E-03 0. -1.
        -11    1    3    3    0    0  0.28990217842E+01 -0.99070706222E+00  0.69910364023E-01  0.30644274356E+01  0.51100000000E-03 0.  1.
        -12    1    3    3    0    0 -0.13357725528E+02 -0.96823640132E+01  0.13771545402E+02  0.21490287734E+02  0.00000000000E+00 0.  1.
</event>
<event>
 7    1  0.2685294E-009  0.4778727E+02  0.7816164E-02  0.1312668E+00
        -11   -1    0    0    0    0  0.00000000000E+00  0.00000000000E+00  0.45593999997E+02  0.45594000000E+02  0.51100000000E-03 0.  1.
         11   -1    0    0    0    0 -0.00000000000E+00 -0.00000000000E+00 -0.45593999997E+02  0.45594000000E+02  0.51100000000E-03 0. -1.
    9900012    2    1    2    0    0 -0.36712409837E+02 -0.14085988170E+02 -0.18368646219E+02  0.47787271173E+02  0.20000000587E+02 0.  0.
        -12    1    1    2    0    0  0.36712409837E+02  0.14085988170E+02  0.18368646219E+02  0.43400728827E+02  0.00000000000E+00 0.  1.
         11    1    3    3    0    0 -0.79622245747E+01 -0.34757118870E+01 -0.13583879796E+01  0.87933390395E+01  0.51100000000E-03 0. -1.
        -11    1    3    3    0    0 -0.62943443048E+01  0.47456958043E+01 -0.36998971620E+01  0.87080214839E+01  0.51100000000E-03 0.  1.
        -12    1    3    3    0    0 -0.22455840958E+02 -0.15355972087E+02 -0.13310361077E+02  0.30285910650E+02  0.00000000000E+00 0.  1.
</event>
<event>
 7    1  0.2685294E-009  0.4778727E+02  0.7816164E-02  0.1312668E+00
        -11   -1    0    0    0    0  0.00000000000E+00  0.00000000000E+00  0.45593999997E+02  0.45594000000E+02  0.51100000000E-03 0. -1.
         11   -1    0    0    0    0 -0.00000000000E+00 -0.00000000000E+00 -0.45593999997E+02  0.45594000000E+02  0.51100000000E-03 0.  1.
    9900012    2    1    2    0    0 -0.23577329071E+02  0.29497185905E+02  0.21392724613E+02  0.47787273177E+02  0.20000009721E+02 0.  0.
        -12    1    1    2    0    0  0.23577329071E+02 -0.29497185905E+02 -0.21392724613E+02  0.43400726823E+02  0.00000000000E+00 0.  1.
         11    1    3    3    0    0 -0.92056883144E+01 -0.11223684263E+00  0.43372141377E+01  0.10176871876E+02  0.51100000000E-03 0.  1.
        -11    1    3    3    0    0 -0.48721162941E+01  0.15517832794E+02  0.10688161551E+02  0.19462205667E+02  0.51100000000E-03 0. -1.
        -12    1    3    3    0    0 -0.94995244623E+01  0.14091589954E+02  0.63673489248E+01  0.18148195634E+02  0.00000000000E+00 0.  1.
</event>
<event>
 7    1  0.3039363E-009  0.4778728E+02  0.7816164E-02  0.1312668E+00
        -11   -1    0    0    0    0  0.00000000000E+00  0.00000000000E+00  0.45593999997E+02  0.45594000000E+02  0.51100000000E-03 0. -1.
         11   -1    0    0    0    0 -0.00000000000E+00 -0.00000000000E+00 -0.45593999997E+02  0.45594000000E+02  0.51100000000E-03 0.  1.
    9900012    2    1    2    0    0  0.22446074361E+02  0.26230559436E+02  0.26301219900E+02  0.47787277993E+02  0.20000031679E+02 0.  0.
        -12    1    1    2    0    0 -0.22446074361E+02 -0.26230559436E+02 -0.26301219900E+02  0.43400722007E+02  0.00000000000E+00 0.  1.
         11    1    3    3    0    0  0.64150178844E+01  0.49573438840E+01  0.82757208122E+01  0.11585131336E+02  0.51100000000E-03 0. -1.
        -11    1    3    3    0    0  0.13346007463E+02  0.51466203802E+01  0.45335247846E+01  0.15005214552E+02  0.51100000000E-03 0.  1.
        -12    1    3    3    0    0  0.26850490136E+01  0.16126595172E+02  0.13491974303E+02  0.21196932105E+02  0.00000000000E+00 0.  1.
</event>
<event>
 7    1  0.2685294E-009  0.4778727E+02  0.7816164E-02  0.1312668E+00
        -11   -1    0    0    0    0  0.00000000000E+00  0.00000000000E+00  0.45593999997E+02  0.45594000000E+02  0.51100000000E-03 0. -1.
         11   -1    0    0    0    0 -0.00000000000E+00 -0.00000000000E+00 -0.45593999997E+02  0.45594000000E+02  0.51100000000E-03 0.  1.
    9900012    2    1    2    0    0 -0.15688383832E+02  0.11635652748E+02  0.38757057277E+02  0.47787270848E+02  0.19999999104E+02 0.  0.
        -12    1    1    2    0    0  0.15688383832E+02 -0.11635652748E+02 -0.38757057277E+02  0.43400729152E+02  0.00000000000E+00 0.  1.
         11    1    3    3    0    0 -0.43003163378E+01  0.44465090602E+00  0.26116542488E+01  0.50508586607E+01  0.51100000000E-03 0. -1.
        -11    1    3    3    0    0 -0.79430258746E+01  0.11075321510E+02  0.11446746098E+02  0.17798382035E+02  0.51100000000E-03 0.  1.
        -12    1    3    3    0    0 -0.34450416199E+01  0.11568033282E+00  0.24698656930E+02  0.24938030152E+02  0.00000000000E+00 0.  1.
</event>
<event>
 7    1  0.2685294E-009  0.4778727E+02  0.7816164E-02  0.1312668E+00
        -11   -1    0    0    0    0  0.00000000000E+00  0.00000000000E+00  0.45593999997E+02  0.45594000000E+02  0.51100000000E-03 0. -1.
         11   -1    0    0    0    0 -0.00000000000E+00 -0.00000000000E+00 -0.45593999997E+02  0.45594000000E+02  0.51100000000E-03 0.  1.
    9900012    2    1    2    0    0 -0.40983556765E+02 -0.13258348915E+02 -0.53091872291E+01  0.47787271779E+02  0.20000003350E+02 0.  0.
        -12    1    1    2    0    0  0.40983556765E+02  0.13258348915E+02  0.53091872291E+01  0.43400728221E+02  0.00000000000E+00 0.  1.
         11    1    3    3    0    0 -0.15604622051E+02 -0.10512783787E+02 -0.40147858134E+01  0.19239058129E+02  0.51100000000E-03 0. -1.
        -11    1    3    3    0    0 -0.11748708611E+02  0.44762888754E+01 -0.32861044016E+01  0.12994914333E+02  0.51100000000E-03 0.  1.
        -12    1    3    3    0    0 -0.13630226103E+02 -0.72218540026E+01  0.19917029859E+01  0.15553299317E+02  0.00000000000E+00 0.  1.
</event>
<event>
 7    1  0.2685294E-009  0.4778727E+02  0.7816164E-02  0.1312668E+00
        -11   -1    0    0    0    0  0.00000000000E+00  0.00000000000E+00  0.45593999997E+02  0.45594000000E+02  0.51100000000E-03 0.  1.
         11   -1    0    0    0    0 -0.00000000000E+00 -0.00000000000E+00 -0.45593999997E+02  0.45594000000E+02  0.51100000000E-03 0. -1.
    9900012    2    1    2    0    0 -0.14849577736E+02 -0.38703906827E+02 -0.12849940226E+02  0.47787270439E+02  0.19999997241E+02 0.  0.
        -12    1    1    2    0    0  0.14849577736E+02  0.38703906827E+02  0.12849940226E+02  0.43400729561E+02  0.00000000000E+00 0.  1.
         11    1    3    3    0    0 -0.61888711461E+01 -0.13641535875E+02 -0.11056026262E+02  0.18617984425E+02  0.51100000000E-03 0. -1.
        -11    1    3    3    0    0 -0.10114552523E+02 -0.16293702527E+02  0.24248711372E+01  0.19330517713E+02  0.51100000000E-03 0.  1.
        -12    1    3    3    0    0  0.14538459330E+01 -0.87686684248E+01 -0.42187851009E+01  0.98387683004E+01  0.00000000000E+00 0.  1.
</event>
<event>
 7    1  0.2685294E-009  0.4778727E+02  0.7816164E-02  0.1312668E+00
        -11   -1    0    0    0    0  0.00000000000E+00  0.00000000000E+00  0.45593999997E+02  0.45594000000E+02  0.51100000000E-03 0.  1.
         11   -1    0    0    0    0 -0.00000000000E+00 -0.00000000000E+00 -0.45593999997E+02  0.45594000000E+02  0.51100000000E-03 0. -1.
    9900012    2    1    2    0    0  0.99923089450E+01  0.30542975978E+02 -0.29170253831E+02  0.47787270419E+02  0.19999997148E+02 0.  0.
        -12    1    1    2    0    0 -0.99923089450E+01 -0.30542975978E+02  0.29170253831E+02  0.43400729581E+02  0.00000000000E+00 0.  1.
         11    1    3    3    0    0  0.63339077052E+01  0.11443583987E+02 -0.65487097220E+01  0.14627357949E+02  0.51100000000E-03 0. -1.
        -11    1    3    3    0    0 -0.12015700746E+01  0.16836430745E+02 -0.22049469469E+02  0.27768476281E+02  0.51100000000E-03 0.  1.
        -12    1    3    3    0    0  0.48599713144E+01  0.22629612461E+01 -0.57207463949E+00  0.53914361882E+01  0.00000000000E+00 0.  1.
</event>
<event>
 7    1  0.2685294E-009  0.4778727E+02  0.7816164E-02  0.1312668E+00
        -11   -1    0    0    0    0  0.00000000000E+00  0.00000000000E+00  0.45593999997E+02  0.45594000000E+02  0.51100000000E-03 0.  1.
         11   -1    0    0    0    0 -0.00000000000E+00 -0.00000000000E+00 -0.45593999997E+02  0.45594000000E+02  0.51100000000E-03 0. -1.
    9900012    2    1    2    0    0 -0.11052613302E+02 -0.15005921373E+02 -0.39195475107E+02  0.47787271827E+02  0.20000003570E+02 0.  0.
        -12    1    1    2    0    0  0.11052613302E+02  0.15005921373E+02  0.39195475107E+02  0.43400728173E+02  0.00000000000E+00 0.  1.
         11    1    3    3    0    0 -0.46674972930E+01 -0.67445074403E+01 -0.24971300659E+02  0.26283830932E+02  0.51100000000E-03 0. -1.
        -11    1    3    3    0    0  0.58024812517E+00 -0.80930474989E+01 -0.37862878673E+01  0.89537747225E+01  0.51100000000E-03 0.  1.
        -12    1    3    3    0    0 -0.69653641345E+01 -0.16836643363E+00 -0.10437886580E+02  0.12549666173E+02  0.00000000000E+00 0.  1.
</event>
<event>
 7    1  0.2685294E-009  0.4778727E+02  0.7816164E-02  0.1312668E+00
        -11   -1    0    0    0    0  0.00000000000E+00  0.00000000000E+00  0.45593999997E+02  0.45594000000E+02  0.51100000000E-03 0.  1.
         11   -1    0    0    0    0 -0.00000000000E+00 -0.00000000000E+00 -0.45593999997E+02  0.45594000000E+02  0.51100000000E-03 0. -1.
    9900012    2    1    2    0    0 -0.33176070294E+02  0.18881201354E+02 -0.20651198267E+02  0.47787269654E+02  0.19999993659E+02 0.  0.
        -12    1    1    2    0    0  0.33176070294E+02 -0.18881201354E+02  0.20651198267E+02  0.43400730346E+02  0.00000000000E+00 0.  1.
         11    1    3    3    0    0 -0.19713489294E+02  0.75073560920E+01 -0.14570406295E+02  0.25637449083E+02  0.51100000000E-03 0. -1.
        -11    1    3    3    0    0 -0.14281474190E+02  0.12626048779E+02 -0.38242036497E+01  0.19442277300E+02  0.51100000000E-03 0.  1.
        -12    1    3    3    0    0  0.81889319002E+00 -0.12522035164E+01 -0.22565883226E+01  0.27075432703E+01  0.00000000000E+00 0.  1.
</event>
<event>
 7    1  0.2685294E-009  0.4778728E+02  0.7816164E-02  0.1312668E+00
        -11   -1    0    0    0    0  0.00000000000E+00  0.00000000000E+00  0.45593999997E+02  0.45594000000E+02  0.51100000000E-03 0.  1.
         11   -1    0    0    0    0 -0.00000000000E+00 -0.00000000000E+00 -0.45593999997E+02  0.45594000000E+02  0.51100000000E-03 0. -1.
    9900012    2    1    2    0    0 -0.57027638305E+01 -0.30184926869E+02 -0.30658949012E+02  0.47787280192E+02  0.20000041706E+02 0.  0.
        -12    1    1    2    0    0  0.57027638305E+01  0.30184926869E+02  0.30658949012E+02  0.43400719808E+02  0.00000000000E+00 0.  1.
         11    1    3    3    0    0 -0.11666073599E+02 -0.14541961291E+02 -0.17799112015E+02  0.25775459263E+02  0.51100000000E-03 0. -1.
        -11    1    3    3    0    0  0.47495700994E+01 -0.44210481466E+01 -0.36574276845E+01  0.74485475344E+01  0.51100000000E-03 0.  1.
        -12    1    3    3    0    0  0.12137396695E+01 -0.11221917431E+02 -0.92024093122E+01  0.14563273395E+02  0.00000000000E+00 0.  1.
</event>
<event>
 7    1  0.2685294E-009  0.4778727E+02  0.7816164E-02  0.1312668E+00
        -11   -1    0    0    0    0  0.00000000000E+00  0.00000000000E+00  0.45593999997E+02  0.45594000000E+02  0.51100000000E-03 0. -1.
         11   -1    0    0    0    0 -0.00000000000E+00 -0.00000000000E+00 -0.45593999997E+02  0.45594000000E+02  0.51100000000E-03 0.  1.
    9900012    2    1    2    0    0  0.42147376321E+02  0.98449368864E+01  0.32092440896E+01  0.47787270045E+02  0.19999995441E+02 0.  0.
        -12    1    1    2    0    0 -0.42147376321E+02 -0.98449368864E+01 -0.32092440896E+01  0.43400729955E+02  0.00000000000E+00 0.  1.
         11    1    3    3    0    0  0.12681028355E+02  0.48599801034E+00  0.60129472133E+01  0.14042799175E+02  0.51100000000E-03 0.  1.
        -11    1    3    3    0    0  0.85882785176E+01 -0.10561685002E+01 -0.55068900378E+01  0.10256698199E+02  0.51100000000E-03 0. -1.
        -12    1    3    3    0    0  0.20878069448E+02  0.10415107376E+02  0.27031869141E+01  0.23487772671E+02  0.00000000000E+00 0.  1.
</event>
<event>
 7    1  0.2685294E-009  0.4778725E+02  0.7816164E-02  0.1312668E+00
        -11   -1    0    0    0    0  0.00000000000E+00  0.00000000000E+00  0.45593999997E+02  0.45594000000E+02  0.51100000000E-03 0. -1.
         11   -1    0    0    0    0 -0.00000000000E+00 -0.00000000000E+00 -0.45593999997E+02  0.45594000000E+02  0.51100000000E-03 0.  1.
    9900012    2    1    2    0    0 -0.30305224004E+02  0.29278386655E+02 -0.10392024807E+02  0.47787254538E+02  0.19999924739E+02 0.  0.
        -12    1    1    2    0    0  0.30305224004E+02 -0.29278386655E+02  0.10392024807E+02  0.43400745462E+02  0.00000000000E+00 0.  1.
         11    1    3    3    0    0 -0.13887575963E+02  0.19956364748E+02 -0.11480156294E+02  0.26887083309E+02  0.51100000000E-03 0. -1.
        -11    1    3    3    0    0 -0.15387661362E+02  0.72987947517E+01 -0.19119168675E+01  0.17137909832E+02  0.51100000000E-03 0.  1.
         12    1    3    3    0    0 -0.10299866789E+01  0.20232271561E+01  0.30000483551E+01  0.37622613967E+01  0.00000000000E+00 0. -1.
</event>
<event>
 7    1  0.2685294E-009  0.4778727E+02  0.7816164E-02  0.1312668E+00
        -11   -1    0    0    0    0  0.00000000000E+00  0.00000000000E+00  0.45593999997E+02  0.45594000000E+02  0.51100000000E-03 0.  1.
         11   -1    0    0    0    0 -0.00000000000E+00 -0.00000000000E+00 -0.45593999997E+02  0.45594000000E+02  0.51100000000E-03 0. -1.
    9900012    2    1    2    0    0 -0.22116014567E+02  0.17547628636E+00 -0.37342665654E+02  0.47787267628E+02  0.19999984423E+02 0.  0.
        -12    1    1    2    0    0  0.22116014567E+02 -0.17547628636E+00  0.37342665654E+02  0.43400732372E+02  0.00000000000E+00 0.  1.
         11    1    3    3    0    0 -0.17281157343E+02  0.32769118705E+01 -0.22579042191E+02  0.28621490126E+02  0.51100000000E-03 0. -1.
        -11    1    3    3    0    0  0.34333113351E+01 -0.80758474887E+00 -0.31694030334E+01  0.47418283077E+01  0.51100000000E-03 0.  1.
        -12    1    3    3    0    0 -0.82681685595E+01 -0.22938508352E+01 -0.11594220429E+02  0.14423949194E+02  0.00000000000E+00 0.  1.
</event>
<event>
 7    1  0.2685294E-009  0.4778727E+02  0.7816164E-02  0.1312668E+00
        -11   -1    0    0    0    0  0.00000000000E+00  0.00000000000E+00  0.45593999997E+02  0.45594000000E+02  0.51100000000E-03 0.  1.
         11   -1    0    0    0    0 -0.00000000000E+00 -0.00000000000E+00 -0.45593999997E+02  0.45594000000E+02  0.51100000000E-03 0. -1.
    9900012    2    1    2    0    0  0.42415952376E+02 -0.11258658843E+01  0.91237430846E+01  0.47787270999E+02  0.19999999794E+02 0.  0.
        -12    1    1    2    0    0 -0.42415952376E+02  0.11258658843E+01 -0.91237430846E+01  0.43400729001E+02  0.00000000000E+00 0.  1.
         11    1    3    3    0    0  0.39921945690E+02 -0.30091758511E+00  0.13618128235E+02  0.42181817362E+02  0.51100000000E-03 0. -1.
        -11    1    3    3    0    0  0.12192439308E+01 -0.11116920861E+00 -0.37913193425E+01  0.39840955026E+01  0.51100000000E-03 0.  1.
         12    1    3    3    0    0  0.12747627546E+01 -0.71377909061E+00 -0.70306580804E+00  0.16213581348E+01  0.00000000000E+00 0. -1.
</event>
<event>
 7    1  0.2685294E-009  0.4778726E+02  0.7816164E-02  0.1312668E+00
        -11   -1    0    0    0    0  0.00000000000E+00  0.00000000000E+00  0.45593999997E+02  0.45594000000E+02  0.51100000000E-03 0. -1.
         11   -1    0    0    0    0 -0.00000000000E+00 -0.00000000000E+00 -0.45593999997E+02  0.45594000000E+02  0.51100000000E-03 0.  1.
    9900012    2    1    2    0    0  0.31766513763E+02  0.12514664765E+02  0.26793579956E+02  0.47787260863E+02  0.19999953577E+02 0.  0.
        -12    1    1    2    0    0 -0.31766513763E+02 -0.12514664765E+02 -0.26793579956E+02  0.43400739137E+02  0.00000000000E+00 0.  1.
         11    1    3    3    0    0  0.16407275921E+02  0.59737239152E+00  0.13792750151E+02  0.21442842953E+02  0.51100000000E-03 0. -1.
        -11    1    3    3    0    0  0.14815988074E+02  0.14180550090E+02  0.10984762961E+02  0.23265135311E+02  0.51100000000E-03 0.  1.
        -12    1    3    3    0    0  0.54324976736E+00 -0.22632577167E+01  0.20160668441E+01  0.30792825985E+01  0.00000000000E+00 0.  1.
</event>
<event>
 7    1  0.2685294E-009  0.4778727E+02  0.7816164E-02  0.1312668E+00
        -11   -1    0    0    0    0  0.00000000000E+00  0.00000000000E+00  0.45593999997E+02  0.45594000000E+02  0.51100000000E-03 0.  1.
         11   -1    0    0    0    0 -0.00000000000E+00 -0.00000000000E+00 -0.45593999997E+02  0.45594000000E+02  0.51100000000E-03 0. -1.
    9900012    2    1    2    0    0 -0.14698471656E+02  0.18446685484E+02 -0.36432103068E+02  0.47787269496E+02  0.19999992939E+02 0.  0.
        -12    1    1    2    0    0  0.14698471656E+02 -0.18446685484E+02  0.36432103068E+02  0.43400730504E+02  0.00000000000E+00 0.  1.
         11    1    3    3    0    0 -0.40860998541E+01  0.14004662316E+02 -0.13750705532E+02  0.20047660250E+02  0.51100000000E-03 0. -1.
        -11    1    3    3    0    0 -0.85075181383E+01 -0.99534442845E+00 -0.19006844016E+02  0.20847750361E+02  0.51100000000E-03 0.  1.
        -12    1    3    3    0    0 -0.21048536637E+01  0.54373675960E+01 -0.36745535197E+01  0.68918588849E+01  0.00000000000E+00 0.  1.
</event>
<event>
 7    1  0.2685294E-009  0.4778727E+02  0.7816164E-02  0.1312668E+00
        -11   -1    0    0    0    0  0.00000000000E+00  0.00000000000E+00  0.45593999997E+02  0.45594000000E+02  0.51100000000E-03 0.  1.
         11   -1    0    0    0    0 -0.00000000000E+00 -0.00000000000E+00 -0.45593999997E+02  0.45594000000E+02  0.51100000000E-03 0. -1.
    9900012    2    1    2    0    0 -0.41759303540E+02 -0.12911221598E+01 -0.11752327321E+02  0.47787266988E+02  0.19999981504E+02 0.  0.
        -12    1    1    2    0    0  0.41759303540E+02  0.12911221598E+01  0.11752327321E+02  0.43400733012E+02  0.00000000000E+00 0.  1.
         11    1    3    3    0    0 -0.11087882200E+02  0.22007119905E+00  0.40710357493E+01  0.11813674084E+02  0.51100000000E-03 0. -1.
        -11    1    3    3    0    0 -0.12870993554E+02 -0.54731713515E+01 -0.55865154250E+01  0.15060784660E+02  0.51100000000E-03 0.  1.
         12    1    3    3    0    0 -0.17800427785E+02  0.39619779927E+01 -0.10236847645E+02  0.20912808244E+02  0.00000000000E+00 0. -1.
</event>
<event>
 7    1  0.2685294E-009  0.4778728E+02  0.7816164E-02  0.1312668E+00
        -11   -1    0    0    0    0  0.00000000000E+00  0.00000000000E+00  0.45593999997E+02  0.45594000000E+02  0.51100000000E-03 0. -1.
         11   -1    0    0    0    0 -0.00000000000E+00 -0.00000000000E+00 -0.45593999997E+02  0.45594000000E+02  0.51100000000E-03 0.  1.
    9900012    2    1    2    0    0 -0.10530713097E+02 -0.20744097061E+02  0.36638899166E+02  0.47787280959E+02  0.20000045205E+02 0.  0.
        -12    1    1    2    0    0  0.10530713097E+02  0.20744097061E+02 -0.36638899166E+02  0.43400719041E+02  0.00000000000E+00 0.  1.
         11    1    3    3    0    0 -0.41129399334E+01  0.17934236447E+01  0.33669038478E+01  0.56096956286E+01  0.51100000000E-03 0. -1.
        -11    1    3    3    0    0  0.25146045057E+01 -0.95334155312E+01  0.15920056781E+02  0.18725849932E+02  0.51100000000E-03 0.  1.
         12    1    3    3    0    0 -0.89323776690E+01 -0.13004105174E+02  0.17351938537E+02  0.23451735399E+02  0.00000000000E+00 0. -1.
</event>
<event>
 7    1  0.2685294E-009  0.4778727E+02  0.7816164E-02  0.1312668E+00
        -11   -1    0    0    0    0  0.00000000000E+00  0.00000000000E+00  0.45593999997E+02  0.45594000000E+02  0.51100000000E-03 0.  1.
         11   -1    0    0    0    0 -0.00000000000E+00 -0.00000000000E+00 -0.45593999997E+02  0.45594000000E+02  0.51100000000E-03 0. -1.
    9900012    2    1    2    0    0 -0.65364483842E+01  0.37586494964E+02 -0.20691875121E+02  0.47787268932E+02  0.19999990370E+02 0.  0.
        -12    1    1    2    0    0  0.65364483842E+01 -0.37586494964E+02  0.20691875121E+02  0.43400731068E+02  0.00000000000E+00 0.  1.
         11    1    3    3    0    0 -0.43135643963E+01  0.78781424234E+01 -0.11296742564E+02  0.14432198677E+02  0.51100000000E-03 0. -1.
        -11    1    3    3    0    0 -0.15669093622E+01  0.73186005846E+01  0.26285731912E+01  0.79326235728E+01  0.51100000000E-03 0.  1.
         12    1    3    3    0    0 -0.65597462561E+00  0.22389751956E+02 -0.12023705749E+02  0.25422446682E+02  0.00000000000E+00 0. -1.
</event>
<event>
 7    1  0.2685294E-009  0.4778727E+02  0.7816164E-02  0.1312668E+00
        -11   -1    0    0    0    0  0.00000000000E+00  0.00000000000E+00  0.45593999997E+02  0.45594000000E+02  0.51100000000E-03 0. -1.
         11   -1    0    0    0    0 -0.00000000000E+00 -0.00000000000E+00 -0.45593999997E+02  0.45594000000E+02  0.51100000000E-03 0.  1.
    9900012    2    1    2    0    0  0.26112810298E+02  0.91811905822E+01  0.33428285881E+02  0.47787269371E+02  0.19999992370E+02 0.  0.
        -12    1    1    2    0    0 -0.26112810298E+02 -0.91811905822E+01 -0.33428285881E+02  0.43400730629E+02  0.00000000000E+00 0.  1.
         11    1    3    3    0    0  0.43495568565E+01  0.75967220590E+01  0.19083191920E+02  0.20995167182E+02  0.51100000000E-03 0. -1.
        -11    1    3    3    0    0  0.15778517661E+02  0.38288859436E+01  0.10290816372E+02  0.19222978151E+02  0.51100000000E-03 0.  1.
         12    1    3    3    0    0  0.59847357809E+01 -0.22444174205E+01  0.40542775894E+01  0.75691240376E+01  0.00000000000E+00 0. -1.
</event>
<event>
 7    1  0.2727854E-009  0.4778727E+02  0.7816164E-02  0.1312668E+00
        -11   -1    0    0    0    0  0.00000000000E+00  0.00000000000E+00  0.45593999997E+02  0.45594000000E+02  0.51100000000E-03 0.  1.
         11   -1    0    0    0    0 -0.00000000000E+00 -0.00000000000E+00 -0.45593999997E+02  0.45594000000E+02  0.51100000000E-03 0. -1.
    9900012    2    1    2    0    0  0.38883382545E+02  0.10808053799E+02  0.15965322082E+02  0.47787274496E+02  0.20000015738E+02 0.  0.
        -12    1    1    2    0    0 -0.38883382545E+02 -0.10808053799E+02 -0.15965322082E+02  0.43400725504E+02  0.00000000000E+00 0.  1.
         11    1    3    3    0    0  0.10937466522E+02  0.75388811988E+01  0.11783210948E+02  0.17756884979E+02  0.51100000000E-03 0. -1.
        -11    1    3    3    0    0  0.14768450311E+02  0.51621632522E+01 -0.11559813906E+01  0.15687298916E+02  0.51100000000E-03 0.  1.
        -12    1    3    3    0    0  0.13177465712E+02 -0.18929906522E+01  0.53380925242E+01  0.14343090601E+02  0.00000000000E+00 0.  1.
</event>
<event>
 7    1  0.3179987E-009  0.4778728E+02  0.7816164E-02  0.1312668E+00
        -11   -1    0    0    0    0  0.00000000000E+00  0.00000000000E+00  0.45593999997E+02  0.45594000000E+02  0.51100000000E-03 0. -1.
         11   -1    0    0    0    0 -0.00000000000E+00 -0.00000000000E+00 -0.45593999997E+02  0.45594000000E+02  0.51100000000E-03 0.  1.
    9900012    2    1    2    0    0  0.81942462116E+01  0.11514602745E+02  0.41035243067E+02  0.47787275110E+02  0.20000018537E+02 0.  0.
        -12    1    1    2    0    0 -0.81942462116E+01 -0.11514602745E+02 -0.41035243067E+02  0.43400724890E+02  0.00000000000E+00 0.  1.
         11    1    3    3    0    0  0.36945048477E+01  0.16417365957E+01  0.63488154103E+01  0.75267604250E+01  0.51100000000E-03 0.  1.
        -11    1    3    3    0    0  0.46834766544E+01 -0.40653118722E+01  0.14043687537E+02  0.15352096733E+02  0.51100000000E-03 0. -1.
        -12    1    3    3    0    0 -0.18373529052E+00  0.13938178022E+02  0.20642740120E+02  0.24908417952E+02  0.00000000000E+00 0.  1.
</event>
<event>
 7    1  0.2685294E-009  0.4778727E+02  0.7816164E-02  0.1312668E+00
        -11   -1    0    0    0    0  0.00000000000E+00  0.00000000000E+00  0.45593999997E+02  0.45594000000E+02  0.51100000000E-03 0.  1.
         11   -1    0    0    0    0 -0.00000000000E+00 -0.00000000000E+00 -0.45593999997E+02  0.45594000000E+02  0.51100000000E-03 0. -1.
    9900012    2    1    2    0    0  0.37126274402E+02 -0.14406035386E+02  0.17254826686E+02  0.47787272466E+02  0.20000006480E+02 0.  0.
        -12    1    1    2    0    0 -0.37126274402E+02  0.14406035386E+02 -0.17254826686E+02  0.43400727534E+02  0.00000000000E+00 0.  1.
         11    1    3    3    0    0  0.95231515677E+00 -0.24323516392E+01  0.19342210353E+01  0.32502999753E+01  0.51100000000E-03 0. -1.
        -11    1    3    3    0    0  0.21928158157E+02 -0.14387840133E+02  0.47973191906E+01  0.26662114236E+02  0.51100000000E-03 0.  1.
        -12    1    3    3    0    0  0.14245801089E+02  0.24141563856E+01  0.10523286460E+02  0.17874858255E+02  0.00000000000E+00 0.  1.
</event>
<event>
 7    1  0.2685294E-009  0.4778727E+02  0.7816164E-02  0.1312668E+00
        -11   -1    0    0    0    0  0.00000000000E+00  0.00000000000E+00  0.45593999997E+02  0.45594000000E+02  0.51100000000E-03 0.  1.
         11   -1    0    0    0    0 -0.00000000000E+00 -0.00000000000E+00 -0.45593999997E+02  0.45594000000E+02  0.51100000000E-03 0. -1.
    9900012    2    1    2    0    0  0.14876829477E+02  0.40769181703E+02  0.42097516711E+00  0.47787268991E+02  0.19999990638E+02 0.  0.
        -12    1    1    2    0    0 -0.14876829477E+02 -0.40769181703E+02 -0.42097516711E+00  0.43400731009E+02  0.00000000000E+00 0.  1.
         11    1    3    3    0    0  0.72747836222E+01  0.68249248172E+01 -0.26395240486E+01  0.10318389553E+02  0.51100000000E-03 0. -1.
        -11    1    3    3    0    0 -0.14194660819E+01  0.58552091784E+01  0.51037209174E+01  0.78959689680E+01  0.51100000000E-03 0.  1.
        -12    1    3    3    0    0  0.90215119369E+01  0.28089047707E+02 -0.20432217017E+01  0.29572910470E+02  0.00000000000E+00 0.  1.
</event>
<event>
 7    1  0.2685294E-009  0.4778727E+02  0.7816164E-02  0.1312668E+00
        -11   -1    0    0    0    0  0.00000000000E+00  0.00000000000E+00  0.45593999997E+02  0.45594000000E+02  0.51100000000E-03 0.  1.
         11   -1    0    0    0    0 -0.00000000000E+00 -0.00000000000E+00 -0.45593999997E+02  0.45594000000E+02  0.51100000000E-03 0. -1.
    9900012    2    1    2    0    0  0.21339344426E+02  0.23221245930E+02 -0.29816596228E+02  0.47787270816E+02  0.19999998957E+02 0.  0.
        -12    1    1    2    0    0 -0.21339344426E+02 -0.23221245930E+02  0.29816596228E+02  0.43400729184E+02  0.00000000000E+00 0.  1.
         11    1    3    3    0    0  0.55687930920E+01  0.66546643794E+01 -0.85805822111E+01  0.12203376821E+02  0.51100000000E-03 0. -1.
        -11    1    3    3    0    0  0.10416687028E+02  0.83094436176E+00 -0.13964380117E+02  0.17441380378E+02  0.51100000000E-03 0.  1.
        -12    1    3    3    0    0  0.53538643060E+01  0.15735637189E+02 -0.72716339005E+01  0.18142513616E+02  0.00000000000E+00 0.  1.
</event>
<event>
 7    1  0.2685294E-009  0.4778727E+02  0.7816164E-02  0.1312668E+00
        -11   -1    0    0    0    0  0.00000000000E+00  0.00000000000E+00  0.45593999997E+02  0.45594000000E+02  0.51100000000E-03 0.  1.
         11   -1    0    0    0    0 -0.00000000000E+00 -0.00000000000E+00 -0.45593999997E+02  0.45594000000E+02  0.51100000000E-03 0. -1.
    9900012    2    1    2    0    0 -0.53997833675E+01 -0.18788533872E+02 -0.38748632229E+02  0.47787272297E+02  0.20000005713E+02 0.  0.
        -12    1    1    2    0    0  0.53997833675E+01  0.18788533872E+02  0.38748632229E+02  0.43400727703E+02  0.00000000000E+00 0.  1.
         11    1    3    3    0    0 -0.48082314354E+01 -0.40175739379E+01 -0.14102039288E+02  0.15431380438E+02  0.51100000000E-03 0. -1.
        -11    1    3    3    0    0  0.12129901720E+01 -0.53347999630E+01 -0.21592730002E+02  0.22275040404E+02  0.51100000000E-03 0.  1.
        -12    1    3    3    0    0 -0.18045421041E+01 -0.94361599710E+01 -0.30538629385E+01  0.10080851455E+02  0.00000000000E+00 0.  1.
</event>
<event>
 7    1  0.2685294E-009  0.4778727E+02  0.7816164E-02  0.1312668E+00
        -11   -1    0    0    0    0  0.00000000000E+00  0.00000000000E+00  0.45593999997E+02  0.45594000000E+02  0.51100000000E-03 0. -1.
         11   -1    0    0    0    0 -0.00000000000E+00 -0.00000000000E+00 -0.45593999997E+02  0.45594000000E+02  0.51100000000E-03 0.  1.
    9900012    2    1    2    0    0 -0.21913696006E+02 -0.36931692219E+02 -0.62820038947E+01  0.47787268028E+02  0.19999986246E+02 0.  0.
        -12    1    1    2    0    0  0.21913696006E+02  0.36931692219E+02  0.62820038947E+01  0.43400731972E+02  0.00000000000E+00 0.  1.
         11    1    3    3    0    0 -0.49411035747E+01 -0.63219330897E+01  0.14767204680E+01  0.81585566204E+01  0.51100000000E-03 0. -1.
        -11    1    3    3    0    0 -0.19157037191E+02 -0.21649075877E+02 -0.25102400388E+01  0.29016820391E+02  0.51100000000E-03 0.  1.
        -12    1    3    3    0    0  0.21844447596E+01 -0.89606832520E+01 -0.52484843239E+01  0.10611891017E+02  0.00000000000E+00 0.  1.
</event>
<event>
 7    1  0.2685294E-009  0.4778727E+02  0.7816164E-02  0.1312668E+00
        -11   -1    0    0    0    0  0.00000000000E+00  0.00000000000E+00  0.45593999997E+02  0.45594000000E+02  0.51100000000E-03 0.  1.
         11   -1    0    0    0    0 -0.00000000000E+00 -0.00000000000E+00 -0.45593999997E+02  0.45594000000E+02  0.51100000000E-03 0. -1.
    9900012    2    1    2    0    0  0.34889693598E+02  0.11976258555E+00  0.25813138765E+02  0.47787271950E+02  0.20000004128E+02 0.  0.
        -12    1    1    2    0    0 -0.34889693598E+02 -0.11976258555E+00 -0.25813138765E+02  0.43400728050E+02  0.00000000000E+00 0.  1.
         11    1    3    3    0    0  0.16894439419E+02  0.35681423800E+00  0.52528884032E+01  0.17695825398E+02  0.51100000000E-03 0. -1.
        -11    1    3    3    0    0  0.96255177628E+01 -0.59577419762E+00  0.19359266188E+02  0.21628377810E+02  0.51100000000E-03 0.  1.
        -12    1    3    3    0    0  0.83697364154E+01  0.35872254518E+00  0.12009841730E+01  0.84630687408E+01  0.00000000000E+00 0.  1.
</event>
<event>
 7    1  0.2685294E-009  0.4778729E+02  0.7816164E-02  0.1312668E+00
        -11   -1    0    0    0    0  0.00000000000E+00  0.00000000000E+00  0.45593999997E+02  0.45594000000E+02  0.51100000000E-03 0.  1.
         11   -1    0    0    0    0 -0.00000000000E+00 -0.00000000000E+00 -0.45593999997E+02  0.45594000000E+02  0.51100000000E-03 0. -1.
    9900012    2    1    2    0    0 -0.12762043551E+02  0.23600343514E+02 -0.34114149978E+02  0.47787294956E+02  0.20000109024E+02 0.  0.
        -12    1    1    2    0    0  0.12762043551E+02 -0.23600343514E+02  0.34114149978E+02  0.43400705044E+02  0.00000000000E+00 0.  1.
         11    1    3    3    0    0 -0.13351276779E+02  0.11913781339E+02 -0.95296299760E+01  0.20273347656E+02  0.51100000000E-03 0. -1.
        -11    1    3    3    0    0  0.35684106426E+00  0.26656321087E+01 -0.10069951164E+02  0.10422900114E+02  0.51100000000E-03 0.  1.
         12    1    3    3    0    0  0.23239216389E+00  0.90209300655E+01 -0.14514568838E+02  0.17091047186E+02  0.00000000000E+00 0. -1.
</event>
<event>
 7    1  0.2685294E-009  0.4778727E+02  0.7816164E-02  0.1312668E+00
        -11   -1    0    0    0    0  0.00000000000E+00  0.00000000000E+00  0.45593999997E+02  0.45594000000E+02  0.51100000000E-03 0. -1.
         11   -1    0    0    0    0 -0.00000000000E+00 -0.00000000000E+00 -0.45593999997E+02  0.45594000000E+02  0.51100000000E-03 0.  1.
    9900012    2    1    2    0    0  0.37323378516E+02 -0.19808839056E+02  0.99095369835E+01  0.47787267151E+02  0.19999982250E+02 0.  0.
        -12    1    1    2    0    0 -0.37323378516E+02  0.19808839056E+02 -0.99095369835E+01  0.43400732849E+02  0.00000000000E+00 0.  1.
         11    1    3    3    0    0  0.26319437438E+02 -0.77818387438E+01  0.26889068703E+01  0.27577164860E+02  0.51100000000E-03 0. -1.
        -11    1    3    3    0    0  0.21550568969E+01 -0.71973255615E+01 -0.47402667561E+00  0.75279789464E+01  0.51100000000E-03 0.  1.
        -12    1    3    3    0    0  0.88488841805E+01 -0.48296747505E+01  0.76946567888E+01  0.12682123345E+02  0.00000000000E+00 0.  1.
</event>
<event>
 7    1  0.2685294E-009  0.4778727E+02  0.7816164E-02  0.1312668E+00
        -11   -1    0    0    0    0  0.00000000000E+00  0.00000000000E+00  0.45593999997E+02  0.45594000000E+02  0.51100000000E-03 0.  1.
         11   -1    0    0    0    0 -0.00000000000E+00 -0.00000000000E+00 -0.45593999997E+02  0.45594000000E+02  0.51100000000E-03 0. -1.
    9900012    2    1    2    0    0 -0.38484280590E+02 -0.35805815984E+01 -0.19742410043E+02  0.47787272224E+02  0.20000005380E+02 0.  0.
        -12    1    1    2    0    0  0.38484280590E+02  0.35805815984E+01  0.19742410043E+02  0.43400727776E+02  0.00000000000E+00 0.  1.
         11    1    3    3    0    0 -0.16136938462E+02 -0.15363603748E+01 -0.39095253749E+01  0.16674698649E+02  0.51100000000E-03 0. -1.
        -11    1    3    3    0    0 -0.49368612084E+01 -0.27490960412E+00 -0.12303767686E+02  0.13260123431E+02  0.51100000000E-03 0.  1.
        -12    1    3    3    0    0 -0.17410480920E+02 -0.17693116194E+01 -0.35291169825E+01  0.17852450144E+02  0.00000000000E+00 0.  1.
</event>
<event>
 7    1  0.2685294E-009  0.4778726E+02  0.7816164E-02  0.1312668E+00
        -11   -1    0    0    0    0  0.00000000000E+00  0.00000000000E+00  0.45593999997E+02  0.45594000000E+02  0.51100000000E-03 0.  1.
         11   -1    0    0    0    0 -0.00000000000E+00 -0.00000000000E+00 -0.45593999997E+02  0.45594000000E+02  0.51100000000E-03 0. -1.
    9900012    2    1    2    0    0  0.36578843319E+02 -0.12753030521E+02 -0.19569679582E+02  0.47787263543E+02  0.19999965799E+02 0.  0.
        -12    1    1    2    0    0 -0.36578843319E+02  0.12753030521E+02  0.19569679582E+02  0.43400736457E+02  0.00000000000E+00 0.  1.
         11    1    3    3    0    0  0.22818896501E+02 -0.20741091795E+01 -0.15953655954E+02  0.27919940992E+02  0.51100000000E-03 0. -1.
        -11    1    3    3    0    0 -0.84179417665E+00 -0.21255174272E+01 -0.16744999511E+01  0.28337946497E+01  0.51100000000E-03 0.  1.
         12    1    3    3    0    0  0.14601740995E+02 -0.85534039139E+01 -0.19415236768E+01  0.17033527902E+02  0.00000000000E+00 0. -1.
</event>
<event>
 7    1  0.2685294E-009  0.4778727E+02  0.7816164E-02  0.1312668E+00
        -11   -1    0    0    0    0  0.00000000000E+00  0.00000000000E+00  0.45593999997E+02  0.45594000000E+02  0.51100000000E-03 0.  1.
         11   -1    0    0    0    0 -0.00000000000E+00 -0.00000000000E+00 -0.45593999997E+02  0.45594000000E+02  0.51100000000E-03 0. -1.
    9900012    2    1    2    0    0  0.25027450549E+02 -0.20384444928E+02 -0.29012491388E+02  0.47787268064E+02  0.19999986412E+02 0.  0.
        -12    1    1    2    0    0 -0.25027450549E+02  0.20384444928E+02  0.29012491388E+02  0.43400731936E+02  0.00000000000E+00 0.  1.
         11    1    3    3    0    0  0.15983449222E+02 -0.14452154850E+02 -0.10654661890E+02  0.24038661550E+02  0.51100000000E-03 0. -1.
        -11    1    3    3    0    0  0.77958801817E+01  0.84779862197E+00 -0.12211266774E+02  0.14512392870E+02  0.51100000000E-03 0.  1.
        -12    1    3    3    0    0  0.12481211448E+01 -0.67800886999E+01 -0.61465627239E+01  0.92362136447E+01  0.00000000000E+00 0.  1.
</event>
<event>
 7    1  0.2685294E-009  0.4778731E+02  0.7816164E-02  0.1312668E+00
        -11   -1    0    0    0    0  0.00000000000E+00  0.00000000000E+00  0.45593999997E+02  0.45594000000E+02  0.51100000000E-03 0. -1.
         11   -1    0    0    0    0 -0.00000000000E+00 -0.00000000000E+00 -0.45593999997E+02  0.45594000000E+02  0.51100000000E-03 0.  1.
    9900012    2    1    2    0    0 -0.87968031456E+01 -0.36956777655E+02 -0.20986497273E+02  0.47787306135E+02  0.20000159990E+02 0.  0.
        -12    1    1    2    0    0  0.87968031456E+01  0.36956777655E+02  0.20986497273E+02  0.43400693865E+02  0.00000000000E+00 0.  1.
         11    1    3    3    0    0 -0.12289503586E+02 -0.18947481602E+02 -0.15479993611E+02  0.27380086923E+02  0.51100000000E-03 0. -1.
        -11    1    3    3    0    0  0.19031764847E+01 -0.15243324424E+02 -0.70040268683E+01  0.16883051053E+02  0.51100000000E-03 0.  1.
         12    1    3    3    0    0  0.15895239556E+01 -0.27659716283E+01  0.14975232066E+01  0.35241681583E+01  0.00000000000E+00 0. -1.
</event>
<event>
 7    1  0.2685294E-009  0.4778727E+02  0.7816164E-02  0.1312668E+00
        -11   -1    0    0    0    0  0.00000000000E+00  0.00000000000E+00  0.45593999997E+02  0.45594000000E+02  0.51100000000E-03 0. -1.
         11   -1    0    0    0    0 -0.00000000000E+00 -0.00000000000E+00 -0.45593999997E+02  0.45594000000E+02  0.51100000000E-03 0.  1.
    9900012    2    1    2    0    0 -0.38301263511E+02 -0.58792710985E+01  0.19546623036E+02  0.47787273194E+02  0.20000009802E+02 0.  0.
        -12    1    1    2    0    0  0.38301263511E+02  0.58792710985E+01 -0.19546623036E+02  0.43400726806E+02  0.00000000000E+00 0.  1.
         11    1    3    3    0    0 -0.25578232967E+02 -0.72415106338E+01  0.75305890631E+01  0.27629608210E+02  0.51100000000E-03 0. -1.
        -11    1    3    3    0    0 -0.77022647818E+01  0.56372594111E+01  0.78444744589E+01  0.12354730116E+02  0.51100000000E-03 0.  1.
        -12    1    3    3    0    0 -0.50207657623E+01 -0.42750198759E+01  0.41715595135E+01  0.78029348680E+01  0.00000000000E+00 0.  1.
</event>
<event>
 7    1  0.2685294E-009  0.4778727E+02  0.7816164E-02  0.1312668E+00
        -11   -1    0    0    0    0  0.00000000000E+00  0.00000000000E+00  0.45593999997E+02  0.45594000000E+02  0.51100000000E-03 0.  1.
         11   -1    0    0    0    0 -0.00000000000E+00 -0.00000000000E+00 -0.45593999997E+02  0.45594000000E+02  0.51100000000E-03 0. -1.
    9900012    2    1    2    0    0 -0.96109028267E+01  0.22398563898E+02  0.35910424893E+02  0.47787265745E+02  0.19999975840E+02 0.  0.
        -12    1    1    2    0    0  0.96109028267E+01 -0.22398563898E+02 -0.35910424893E+02  0.43400734255E+02  0.00000000000E+00 0.  1.
         11    1    3    3    0    0 -0.94339886242E+01  0.23684392263E+02  0.25069800862E+02  0.35755356155E+02  0.51100000000E-03 0. -1.
        -11    1    3    3    0    0 -0.22441183525E+01 -0.18120120177E+01  0.78120986190E+01  0.83275650599E+01  0.51100000000E-03 0.  1.
         12    1    3    3    0    0  0.20672041500E+01  0.52618365305E+00  0.30285254116E+01  0.37043445308E+01  0.00000000000E+00 0. -1.
</event>
<event>
 7    1  0.2685294E-009  0.4778727E+02  0.7816164E-02  0.1312668E+00
        -11   -1    0    0    0    0  0.00000000000E+00  0.00000000000E+00  0.45593999997E+02  0.45594000000E+02  0.51100000000E-03 0.  1.
         11   -1    0    0    0    0 -0.00000000000E+00 -0.00000000000E+00 -0.45593999997E+02  0.45594000000E+02  0.51100000000E-03 0. -1.
    9900012    2    1    2    0    0  0.40692521427E+02  0.84870574708E+01 -0.12478460226E+02  0.47787269428E+02  0.19999992629E+02 0.  0.
        -12    1    1    2    0    0 -0.40692521427E+02 -0.84870574708E+01  0.12478460226E+02  0.43400730572E+02  0.00000000000E+00 0.  1.
         11    1    3    3    0    0  0.37984919221E+02  0.12090443453E+02 -0.12811777590E+02  0.41870927341E+02  0.51100000000E-03 0. -1.
        -11    1    3    3    0    0  0.24604898607E+01 -0.37962883833E+01 -0.92674864138E+00  0.46178652155E+01  0.51100000000E-03 0.  1.
        -12    1    3    3    0    0  0.24711234575E+00  0.19290240072E+00  0.12600660054E+01  0.12984768714E+01  0.00000000000E+00 0.  1.
</event>
<event>
 7    1  0.2685294E-009  0.4778727E+02  0.7816164E-02  0.1312668E+00
        -11   -1    0    0    0    0  0.00000000000E+00  0.00000000000E+00  0.45593999997E+02  0.45594000000E+02  0.51100000000E-03 0.  1.
         11   -1    0    0    0    0 -0.00000000000E+00 -0.00000000000E+00 -0.45593999997E+02  0.45594000000E+02  0.51100000000E-03 0. -1.
    9900012    2    1    2    0    0 -0.31648875038E+02  0.28751556114E+02 -0.74377742143E+01  0.47787265496E+02  0.19999974704E+02 0.  0.
        -12    1    1    2    0    0  0.31648875038E+02 -0.28751556114E+02  0.74377742143E+01  0.43400734504E+02  0.00000000000E+00 0.  1.
         11    1    3    3    0    0 -0.80207707573E+01  0.13935173339E+02 -0.10977715033E+01  0.16116045485E+02  0.51100000000E-03 0. -1.
        -11    1    3    3    0    0 -0.18245993569E+02  0.11532686117E+02 -0.10614730685E+02  0.24053931865E+02  0.51100000000E-03 0.  1.
        -12    1    3    3    0    0 -0.53821107116E+01  0.32836966577E+01  0.42747279736E+01  0.76172881460E+01  0.00000000000E+00 0.  1.
</event>
<event>
 7    1  0.2685294E-009  0.4778727E+02  0.7816164E-02  0.1312668E+00
        -11   -1    0    0    0    0  0.00000000000E+00  0.00000000000E+00  0.45593999997E+02  0.45594000000E+02  0.51100000000E-03 0. -1.
         11   -1    0    0    0    0 -0.00000000000E+00 -0.00000000000E+00 -0.45593999997E+02  0.45594000000E+02  0.51100000000E-03 0.  1.
    9900012    2    1    2    0    0 -0.21258224585E+01 -0.40514173762E+02  0.15417715969E+02  0.47787270024E+02  0.19999995346E+02 0.  0.
        -12    1    1    2    0    0  0.21258224585E+01  0.40514173762E+02 -0.15417715969E+02  0.43400729976E+02  0.00000000000E+00 0.  1.
         11    1    3    3    0    0 -0.13994162709E+01 -0.16514680053E+02  0.40146801442E+01  0.17053172141E+02  0.51100000000E-03 0. -1.
        -11    1    3    3    0    0  0.64762494016E+01 -0.13148563880E+02  0.22809996883E+01  0.14833391327E+02  0.51100000000E-03 0.  1.
        -12    1    3    3    0    0 -0.72026555893E+01 -0.10850929830E+02  0.91220361367E+01  0.15900706556E+02  0.00000000000E+00 0.  1.
</event>
<event>
 7    1  0.2685294E-009  0.4778727E+02  0.7816164E-02  0.1312668E+00
        -11   -1    0    0    0    0  0.00000000000E+00  0.00000000000E+00  0.45593999997E+02  0.45594000000E+02  0.51100000000E-03 0.  1.
         11   -1    0    0    0    0 -0.00000000000E+00 -0.00000000000E+00 -0.45593999997E+02  0.45594000000E+02  0.51100000000E-03 0. -1.
    9900012    2    1    2    0    0  0.17125991894E+02  0.14158969479E+01 -0.39853717025E+02  0.47787272780E+02  0.20000007912E+02 0.  0.
        -12    1    1    2    0    0 -0.17125991894E+02 -0.14158969479E+01  0.39853717025E+02  0.43400727220E+02  0.00000000000E+00 0.  1.
         11    1    3    3    0    0  0.15785935211E+02 -0.32867227785E+01 -0.22270815650E+02  0.27495227351E+02  0.51100000000E-03 0. -1.
        -11    1    3    3    0    0 -0.32522578931E+01  0.43234871646E+01 -0.79834439430E+01  0.96439151862E+01  0.51100000000E-03 0.  1.
        -12    1    3    3    0    0  0.45923145760E+01  0.37913256181E+00 -0.95994574324E+01  0.10648130242E+02  0.00000000000E+00 0.  1.
</event>
<event>
 7    1  0.2685294E-009  0.4778727E+02  0.7816164E-02  0.1312668E+00
        -11   -1    0    0    0    0  0.00000000000E+00  0.00000000000E+00  0.45593999997E+02  0.45594000000E+02  0.51100000000E-03 0. -1.
         11   -1    0    0    0    0 -0.00000000000E+00 -0.00000000000E+00 -0.45593999997E+02  0.45594000000E+02  0.51100000000E-03 0.  1.
    9900012    2    1    2    0    0  0.38973720329E+02 -0.18489740889E+02 -0.47751338520E+01  0.47787270769E+02  0.19999998745E+02 0.  0.
        -12    1    1    2    0    0 -0.38973720329E+02  0.18489740889E+02  0.47751338520E+01  0.43400729231E+02  0.00000000000E+00 0.  1.
         11    1    3    3    0    0  0.21912148035E+01  0.28029799642E+01 -0.20896343721E+01  0.41260987706E+01  0.51100000000E-03 0. -1.
        -11    1    3    3    0    0  0.13915963139E+02 -0.61126891607E+01  0.33377992839E+01  0.15561487820E+02  0.51100000000E-03 0.  1.
         12    1    3    3    0    0  0.22866542387E+02 -0.15180031692E+02 -0.60232987639E+01  0.28099684178E+02  0.00000000000E+00 0. -1.
</event>
<event>
 7    1  0.2685294E-009  0.4778728E+02  0.7816164E-02  0.1312668E+00
        -11   -1    0    0    0    0  0.00000000000E+00  0.00000000000E+00  0.45593999997E+02  0.45594000000E+02  0.51100000000E-03 0. -1.
         11   -1    0    0    0    0 -0.00000000000E+00 -0.00000000000E+00 -0.45593999997E+02  0.45594000000E+02  0.51100000000E-03 0.  1.
    9900012    2    1    2    0    0 -0.41536238341E+02  0.62191015915E+01  0.10940136168E+02  0.47787275358E+02  0.20000019665E+02 0.  0.
        -12    1    1    2    0    0  0.41536238341E+02 -0.62191015915E+01 -0.10940136168E+02  0.43400724642E+02  0.00000000000E+00 0.  1.
         11    1    3    3    0    0 -0.13578721288E+01  0.58763142844E+01  0.26262149033E+01  0.65781373706E+01  0.51100000000E-03 0. -1.
        -11    1    3    3    0    0 -0.14207136421E+02 -0.10214881239E+01  0.14885778262E+01  0.14321383575E+02  0.51100000000E-03 0.  1.
         12    1    3    3    0    0 -0.25971229791E+02  0.13642754311E+01  0.68253434382E+01  0.26887754412E+02  0.00000000000E+00 0. -1.
</event>
<event>
 7    1  0.2685294E-009  0.4778727E+02  0.7816164E-02  0.1312668E+00
        -11   -1    0    0    0    0  0.00000000000E+00  0.00000000000E+00  0.45593999997E+02  0.45594000000E+02  0.51100000000E-03 0.  1.
         11   -1    0    0    0    0 -0.00000000000E+00 -0.00000000000E+00 -0.45593999997E+02  0.45594000000E+02  0.51100000000E-03 0. -1.
    9900012    2    1    2    0    0  0.40684048726E+02  0.18172081923E+01 -0.15004317369E+02  0.47787267218E+02  0.19999982553E+02 0.  0.
        -12    1    1    2    0    0 -0.40684048726E+02 -0.18172081923E+01  0.15004317369E+02  0.43400732782E+02  0.00000000000E+00 0.  1.
         11    1    3    3    0    0  0.14799374229E+02 -0.80751051116E+01 -0.30781157541E+01  0.17137782733E+02  0.51100000000E-03 0. -1.
        -11    1    3    3    0    0  0.16804765538E+02  0.39304165037E+01 -0.86450232765E+01  0.19302454413E+02  0.51100000000E-03 0.  1.
         12    1    3    3    0    0  0.90799089587E+01  0.59618968002E+01 -0.32811783386E+01  0.11347030072E+02  0.00000000000E+00 0. -1.
</event>
<event>
 7    1  0.2685294E-009  0.4778727E+02  0.7816164E-02  0.1312668E+00
        -11   -1    0    0    0    0  0.00000000000E+00  0.00000000000E+00  0.45593999997E+02  0.45594000000E+02  0.51100000000E-03 0.  1.
         11   -1    0    0    0    0 -0.00000000000E+00 -0.00000000000E+00 -0.45593999997E+02  0.45594000000E+02  0.51100000000E-03 0. -1.
    9900012    2    1    2    0    0 -0.22110967427E+02 -0.76868119689E+01 -0.36546430336E+02  0.47787268104E+02  0.19999986594E+02 0.  0.
        -12    1    1    2    0    0  0.22110967427E+02  0.76868119689E+01  0.36546430336E+02  0.43400731896E+02  0.00000000000E+00 0.  1.
         11    1    3    3    0    0 -0.77538701882E+01  0.29705614575E+01 -0.20521840560E+02  0.22138036916E+02  0.51100000000E-03 0. -1.
        -11    1    3    3    0    0 -0.96280683291E+01 -0.20582903336E+01 -0.10472320626E+02  0.14373787197E+02  0.51100000000E-03 0.  1.
         12    1    3    3    0    0 -0.47290289095E+01 -0.85990830928E+01 -0.55522691502E+01  0.11275443990E+02  0.00000000000E+00 0. -1.
</event>
<event>
 7    1  0.2685294E-009  0.4778727E+02  0.7816164E-02  0.1312668E+00
        -11   -1    0    0    0    0  0.00000000000E+00  0.00000000000E+00  0.45593999997E+02  0.45594000000E+02  0.51100000000E-03 0.  1.
         11   -1    0    0    0    0 -0.00000000000E+00 -0.00000000000E+00 -0.45593999997E+02  0.45594000000E+02  0.51100000000E-03 0. -1.
    9900012    2    1    2    0    0 -0.23960441214E+02 -0.74004195092E+01 -0.35422518616E+02  0.47787265246E+02  0.19999973564E+02 0.  0.
        -12    1    1    2    0    0  0.23960441214E+02  0.74004195092E+01  0.35422518616E+02  0.43400734754E+02  0.00000000000E+00 0.  1.
         11    1    3    3    0    0 -0.60305218463E+01 -0.28988063483E+01 -0.45607206603E+01  0.80975579767E+01  0.51100000000E-03 0. -1.
        -11    1    3    3    0    0 -0.19343468153E+02 -0.50410854671E+01 -0.32045298384E+02  0.37768815862E+02  0.51100000000E-03 0.  1.
        -12    1    3    3    0    0  0.14135487852E+01  0.53947230626E+00  0.11835004280E+01  0.19208914078E+01  0.00000000000E+00 0.  1.
</event>
<event>
 7    1  0.2685294E-009  0.4778727E+02  0.7816164E-02  0.1312668E+00
        -11   -1    0    0    0    0  0.00000000000E+00  0.00000000000E+00  0.45593999997E+02  0.45594000000E+02  0.51100000000E-03 0.  1.
         11   -1    0    0    0    0 -0.00000000000E+00 -0.00000000000E+00 -0.45593999997E+02  0.45594000000E+02  0.51100000000E-03 0. -1.
    9900012    2    1    2    0    0  0.38758082072E+02  0.19449161452E+02  0.17789866134E+01  0.47787267282E+02  0.19999982844E+02 0.  0.
        -12    1    1    2    0    0 -0.38758082072E+02 -0.19449161452E+02 -0.17789866134E+01  0.43400732718E+02  0.00000000000E+00 0.  1.
         11    1    3    3    0    0  0.28143451347E+02  0.12582678230E+02 -0.43055021935E+00  0.30831202035E+02  0.51100000000E-03 0. -1.
        -11    1    3    3    0    0  0.36057596500E+01  0.75617624989E+01  0.45509892979E+01  0.95337956027E+01  0.51100000000E-03 0.  1.
         12    1    3    3    0    0  0.70088710749E+01 -0.69527927664E+00 -0.23414524652E+01  0.74222696437E+01  0.00000000000E+00 0. -1.
</event>
<event>
 7    1  0.2685294E-009  0.4778727E+02  0.7816164E-02  0.1312668E+00
        -11   -1    0    0    0    0  0.00000000000E+00  0.00000000000E+00  0.45593999997E+02  0.45594000000E+02  0.51100000000E-03 0. -1.
         11   -1    0    0    0    0 -0.00000000000E+00 -0.00000000000E+00 -0.45593999997E+02  0.45594000000E+02  0.51100000000E-03 0.  1.
    9900012    2    1    2    0    0  0.23919732339E+02 -0.19560464303E+02  0.30477167840E+02  0.47787272835E+02  0.20000008164E+02 0.  0.
        -12    1    1    2    0    0 -0.23919732339E+02  0.19560464303E+02 -0.30477167840E+02  0.43400727165E+02  0.00000000000E+00 0.  1.
         11    1    3    3    0    0  0.13572923732E+02 -0.12303365465E+02  0.22708028924E+02  0.29176216997E+02  0.51100000000E-03 0. -1.
        -11    1    3    3    0    0 -0.17315997527E+01  0.81717191192E-01 -0.97765601140E+00  0.19902077632E+01  0.51100000000E-03 0.  1.
        -12    1    3    3    0    0  0.12078408360E+02 -0.73388160290E+01  0.87467949277E+01  0.16620848075E+02  0.00000000000E+00 0.  1.
</event>
<event>
 7    1  0.2685294E-009  0.4778727E+02  0.7816164E-02  0.1312668E+00
        -11   -1    0    0    0    0  0.00000000000E+00  0.00000000000E+00  0.45593999997E+02  0.45594000000E+02  0.51100000000E-03 0. -1.
         11   -1    0    0    0    0 -0.00000000000E+00 -0.00000000000E+00 -0.45593999997E+02  0.45594000000E+02  0.51100000000E-03 0.  1.
    9900012    2    1    2    0    0  0.39843189526E+02 -0.13636739303E+02  0.10496795534E+02  0.47787272737E+02  0.20000007719E+02 0.  0.
        -12    1    1    2    0    0 -0.39843189526E+02  0.13636739303E+02 -0.10496795534E+02  0.43400727263E+02  0.00000000000E+00 0.  1.
         11    1    3    3    0    0  0.10418540979E+02  0.21331468715E+01  0.62868714248E+01  0.12353989812E+02  0.51100000000E-03 0. -1.
        -11    1    3    3    0    0  0.29716824452E+02 -0.13859881192E+02  0.25553514038E+01  0.32889447901E+02  0.51100000000E-03 0.  1.
        -12    1    3    3    0    0 -0.29217590490E+00 -0.19100049824E+01  0.16545727053E+01  0.25438350241E+01  0.00000000000E+00 0.  1.
</event>
<event>
 7    1  0.2685294E-009  0.4778727E+02  0.7816164E-02  0.1312668E+00
        -11   -1    0    0    0    0  0.00000000000E+00  0.00000000000E+00  0.45593999997E+02  0.45594000000E+02  0.51100000000E-03 0.  1.
         11   -1    0    0    0    0 -0.00000000000E+00 -0.00000000000E+00 -0.45593999997E+02  0.45594000000E+02  0.51100000000E-03 0. -1.
    9900012    2    1    2    0    0  0.21246875177E+01 -0.42287566951E+02  0.95326181822E+01  0.47787269302E+02  0.19999992057E+02 0.  0.
        -12    1    1    2    0    0 -0.21246875177E+01  0.42287566951E+02 -0.95326181822E+01  0.43400730698E+02  0.00000000000E+00 0.  1.
         11    1    3    3    0    0  0.41213459625E+01 -0.97296108423E+01 -0.51049796515E+01  0.11735060170E+02  0.51100000000E-03 0. -1.
        -11    1    3    3    0    0 -0.24464473553E+01 -0.76342918697E+01  0.33703898726E+01  0.86963811536E+01  0.51100000000E-03 0.  1.
         12    1    3    3    0    0  0.44978891058E+00 -0.24923664239E+02  0.11267207961E+02  0.27355827979E+02  0.00000000000E+00 0. -1.
</event>
<event>
 7    1  0.2685294E-009  0.4778725E+02  0.7816164E-02  0.1312668E+00
        -11   -1    0    0    0    0  0.00000000000E+00  0.00000000000E+00  0.45593999997E+02  0.45594000000E+02  0.51100000000E-03 0.  1.
         11   -1    0    0    0    0 -0.00000000000E+00 -0.00000000000E+00 -0.45593999997E+02  0.45594000000E+02  0.51100000000E-03 0. -1.
    9900012    2    1    2    0    0  0.24398391037E+02  0.15158492271E+02 -0.32535572686E+02  0.47787252735E+02  0.19999916519E+02 0.  0.
        -12    1    1    2    0    0 -0.24398391037E+02 -0.15158492271E+02  0.32535572686E+02  0.43400747265E+02  0.00000000000E+00 0.  1.
         11    1    3    3    0    0 -0.34614147886E+00 -0.27673735729E+01 -0.46613903277E+01  0.54320097996E+01  0.51100000000E-03 0. -1.
        -11    1    3    3    0    0  0.19220229147E+01  0.33566225630E+01 -0.58365643019E+00  0.39117441385E+01  0.51100000000E-03 0.  1.
         12    1    3    3    0    0  0.22822509601E+02  0.14569243281E+02 -0.27290525929E+02  0.38443498797E+02  0.00000000000E+00 0. -1.
</event>
<event>
 7    1  0.2685294E-009  0.4778727E+02  0.7816164E-02  0.1312668E+00
        -11   -1    0    0    0    0  0.00000000000E+00  0.00000000000E+00  0.45593999997E+02  0.45594000000E+02  0.51100000000E-03 0.  1.
         11   -1    0    0    0    0 -0.00000000000E+00 -0.00000000000E+00 -0.45593999997E+02  0.45594000000E+02  0.51100000000E-03 0. -1.
    9900012    2    1    2    0    0 -0.30937181265E+02 -0.15804410252E+02  0.26014130622E+02  0.47787267747E+02  0.19999984968E+02 0.  0.
        -12    1    1    2    0    0  0.30937181265E+02  0.15804410252E+02 -0.26014130622E+02  0.43400732253E+02  0.00000000000E+00 0.  1.
         11    1    3    3    0    0 -0.11693151606E+02 -0.58220799514E+01  0.14143914941E+02  0.19252967033E+02  0.51100000000E-03 0. -1.
        -11    1    3    3    0    0 -0.55208421097E+01 -0.68089233224E+01 -0.17521111457E+01  0.89392968481E+01  0.51100000000E-03 0.  1.
        -12    1    3    3    0    0 -0.13723187549E+02 -0.31734069781E+01  0.13622326827E+02  0.19595003867E+02  0.00000000000E+00 0.  1.
</event>
<event>
 7    1  0.2685294E-009  0.4778727E+02  0.7816164E-02  0.1312668E+00
        -11   -1    0    0    0    0  0.00000000000E+00  0.00000000000E+00  0.45593999997E+02  0.45594000000E+02  0.51100000000E-03 0.  1.
         11   -1    0    0    0    0 -0.00000000000E+00 -0.00000000000E+00 -0.45593999997E+02  0.45594000000E+02  0.51100000000E-03 0. -1.
    9900012    2    1    2    0    0  0.30170917696E+02 -0.30523519868E+02 -0.64539710059E+01  0.47787270956E+02  0.19999999598E+02 0.  0.
        -12    1    1    2    0    0 -0.30170917696E+02  0.30523519868E+02  0.64539710059E+01  0.43400729044E+02  0.00000000000E+00 0.  1.
         11    1    3    3    0    0 -0.13598611049E+00 -0.45409916510E+01 -0.48543615517E+01  0.66486031414E+01  0.51100000000E-03 0. -1.
        -11    1    3    3    0    0  0.16274370415E+02 -0.20064801760E+02 -0.95311201869E-01  0.25835256658E+02  0.51100000000E-03 0.  1.
         12    1    3    3    0    0  0.14032533392E+02 -0.59177264568E+01 -0.15042982524E+01  0.15303411157E+02  0.00000000000E+00 0. -1.
</event>
<event>
 7    1  0.2685294E-009  0.4778727E+02  0.7816164E-02  0.1312668E+00
        -11   -1    0    0    0    0  0.00000000000E+00  0.00000000000E+00  0.45593999997E+02  0.45594000000E+02  0.51100000000E-03 0.  1.
         11   -1    0    0    0    0 -0.00000000000E+00 -0.00000000000E+00 -0.45593999997E+02  0.45594000000E+02  0.51100000000E-03 0. -1.
    9900012    2    1    2    0    0  0.78238399075E+01 -0.64361444996E+01 -0.42201740731E+02  0.47787270194E+02  0.19999996124E+02 0.  0.
        -12    1    1    2    0    0 -0.78238399075E+01  0.64361444996E+01  0.42201740731E+02  0.43400729806E+02  0.00000000000E+00 0.  1.
         11    1    3    3    0    0  0.40990172059E+00 -0.94229094871E+01 -0.11747289248E+02  0.15065126868E+02  0.51100000000E-03 0.  1.
        -11    1    3    3    0    0  0.68661554094E+01  0.25735512580E+01 -0.30993803780E+02  0.31849381928E+02  0.51100000000E-03 0. -1.
         12    1    3    3    0    0  0.54778277747E+00  0.41321372950E+00  0.53935229679E+00  0.87276139787E+00  0.00000000000E+00 0. -1.
</event>
<event>
 7    1  0.2685294E-009  0.4778727E+02  0.7816164E-02  0.1312668E+00
        -11   -1    0    0    0    0  0.00000000000E+00  0.00000000000E+00  0.45593999997E+02  0.45594000000E+02  0.51100000000E-03 0. -1.
         11   -1    0    0    0    0 -0.00000000000E+00 -0.00000000000E+00 -0.45593999997E+02  0.45594000000E+02  0.51100000000E-03 0.  1.
    9900012    2    1    2    0    0  0.26306789204E+02 -0.34063518161E+02 -0.55904177064E+01  0.47787271920E+02  0.20000003993E+02 0.  0.
        -12    1    1    2    0    0 -0.26306789204E+02  0.34063518161E+02  0.55904177064E+01  0.43400728080E+02  0.00000000000E+00 0.  1.
         11    1    3    3    0    0  0.16737724037E+01  0.95795159328E+00 -0.21255611317E+01  0.28700515152E+01  0.51100000000E-03 0. -1.
        -11    1    3    3    0    0  0.17056122857E+02 -0.30520118551E+02 -0.65669670776E+01  0.35574063869E+02  0.51100000000E-03 0.  1.
        -12    1    3    3    0    0  0.75768939434E+01 -0.45013512034E+01  0.31021105029E+01  0.93431565361E+01  0.00000000000E+00 0.  1.
</event>
<event>
 7    1  0.2685294E-009  0.4778727E+02  0.7816164E-02  0.1312668E+00
        -11   -1    0    0    0    0  0.00000000000E+00  0.00000000000E+00  0.45593999997E+02  0.45594000000E+02  0.51100000000E-03 0.  1.
         11   -1    0    0    0    0 -0.00000000000E+00 -0.00000000000E+00 -0.45593999997E+02  0.45594000000E+02  0.51100000000E-03 0. -1.
    9900012    2    1    2    0    0 -0.11047038283E+02  0.36334575230E+02  0.21009164730E+02  0.47787269423E+02  0.19999992609E+02 0.  0.
        -12    1    1    2    0    0  0.11047038283E+02 -0.36334575230E+02 -0.21009164730E+02  0.43400730577E+02  0.00000000000E+00 0.  1.
         11    1    3    3    0    0 -0.97988356372E+01  0.23578182095E+02  0.67770702676E+01  0.26417352865E+02  0.51100000000E-03 0. -1.
        -11    1    3    3    0    0 -0.43074228007E+01  0.24351304896E+01  0.62328992185E+01  0.79581897825E+01  0.51100000000E-03 0.  1.
         12    1    3    3    0    0  0.30592201553E+01  0.10321262645E+02  0.79991952441E+01  0.13411726776E+02  0.00000000000E+00 0. -1.
</event>
<event>
 7    1  0.2685294E-009  0.4778727E+02  0.7816164E-02  0.1312668E+00
        -11   -1    0    0    0    0  0.00000000000E+00  0.00000000000E+00  0.45593999997E+02  0.45594000000E+02  0.51100000000E-03 0.  1.
         11   -1    0    0    0    0 -0.00000000000E+00 -0.00000000000E+00 -0.45593999997E+02  0.45594000000E+02  0.51100000000E-03 0. -1.
    9900012    2    1    2    0    0 -0.29282761261E+02  0.30787875573E+02  0.88459242478E+01  0.47787265385E+02  0.19999974196E+02 0.  0.
        -12    1    1    2    0    0  0.29282761261E+02 -0.30787875573E+02 -0.88459242478E+01  0.43400734615E+02  0.00000000000E+00 0.  1.
         11    1    3    3    0    0 -0.58294605158E+01  0.15387161948E+01 -0.13629147880E+01  0.61812453773E+01  0.51100000000E-03 0. -1.
        -11    1    3    3    0    0 -0.19181946942E+01  0.52091048983E+01  0.73412913635E+01  0.92037385812E+01  0.51100000000E-03 0.  1.
        -12    1    3    3    0    0 -0.21535106051E+02  0.24040054480E+02  0.28675476723E+01  0.32402281427E+02  0.00000000000E+00 0.  1.
</event>
<event>
 7    1  0.2685294E-009  0.4778725E+02  0.7816164E-02  0.1312668E+00
        -11   -1    0    0    0    0  0.00000000000E+00  0.00000000000E+00  0.45593999997E+02  0.45594000000E+02  0.51100000000E-03 0.  1.
         11   -1    0    0    0    0 -0.00000000000E+00 -0.00000000000E+00 -0.45593999997E+02  0.45594000000E+02  0.51100000000E-03 0. -1.
    9900012    2    1    2    0    0  0.39842633517E+02 -0.78006064957E+00 -0.17192464283E+02  0.47787253828E+02  0.19999921502E+02 0.  0.
        -12    1    1    2    0    0 -0.39842633517E+02  0.78006064957E+00  0.17192464283E+02  0.43400746172E+02  0.00000000000E+00 0.  1.
         11    1    3    3    0    0  0.25678652618E-01  0.21747869508E+00  0.17542807825E+01  0.17678964056E+01  0.51100000000E-03 0. -1.
        -11    1    3    3    0    0 -0.90856199533E+00 -0.18118438303E+00  0.29134230198E+00  0.97118138267E+00  0.51100000000E-03 0.  1.
         12    1    3    3    0    0  0.40725516860E+02 -0.81635496163E+00 -0.19238087367E+02  0.45048176039E+02  0.00000000000E+00 0. -1.
</event>
<event>
 7    1  0.2685294E-009  0.4778727E+02  0.7816164E-02  0.1312668E+00
        -11   -1    0    0    0    0  0.00000000000E+00  0.00000000000E+00  0.45593999997E+02  0.45594000000E+02  0.51100000000E-03 0.  1.
         11   -1    0    0    0    0 -0.00000000000E+00 -0.00000000000E+00 -0.45593999997E+02  0.45594000000E+02  0.51100000000E-03 0. -1.
    9900012    2    1    2    0    0  0.36313960479E+01 -0.20168516848E+02 -0.38257909507E+02  0.47787265571E+02  0.19999975045E+02 0.  0.
        -12    1    1    2    0    0 -0.36313960479E+01  0.20168516848E+02  0.38257909507E+02  0.43400734429E+02  0.00000000000E+00 0.  1.
         11    1    3    3    0    0 -0.39107976494E+01 -0.95572566209E+01 -0.15008766362E+02  0.18218083333E+02  0.51100000000E-03 0. -1.
        -11    1    3    3    0    0  0.87307233557E+01 -0.12708286666E+02 -0.21969964374E+02  0.26840369132E+02  0.51100000000E-03 0.  1.
        -12    1    3    3    0    0 -0.11885296584E+01  0.20970264392E+01 -0.12791787713E+01  0.27288131055E+01  0.00000000000E+00 0.  1.
</event>
<event>
 7    1  0.2685294E-009  0.4778727E+02  0.7816164E-02  0.1312668E+00
        -11   -1    0    0    0    0  0.00000000000E+00  0.00000000000E+00  0.45593999997E+02  0.45594000000E+02  0.51100000000E-03 0.  1.
         11   -1    0    0    0    0 -0.00000000000E+00 -0.00000000000E+00 -0.45593999997E+02  0.45594000000E+02  0.51100000000E-03 0. -1.
    9900012    2    1    2    0    0 -0.36823006465E+01 -0.28539776836E+01 -0.43149955299E+02  0.47787272253E+02  0.20000005511E+02 0.  0.
        -12    1    1    2    0    0  0.36823006465E+01  0.28539776836E+01  0.43149955299E+02  0.43400727747E+02  0.00000000000E+00 0.  1.
         11    1    3    3    0    0 -0.26128777314E+01  0.26561325367E+01 -0.44888398223E+01  0.58336826536E+01  0.51100000000E-03 0. -1.
        -11    1    3    3    0    0 -0.11018537062E+01 -0.78728011273E+01 -0.38781244569E+02  0.39587624452E+02  0.51100000000E-03 0.  1.
        -12    1    3    3    0    0  0.32430791127E-01  0.23626909070E+01  0.12012909271E+00  0.23659651471E+01  0.00000000000E+00 0.  1.
</event>
<event>
 7    1  0.2685294E-009  0.4778727E+02  0.7816164E-02  0.1312668E+00
        -11   -1    0    0    0    0  0.00000000000E+00  0.00000000000E+00  0.45593999997E+02  0.45594000000E+02  0.51100000000E-03 0. -1.
         11   -1    0    0    0    0 -0.00000000000E+00 -0.00000000000E+00 -0.45593999997E+02  0.45594000000E+02  0.51100000000E-03 0.  1.
    9900012    2    1    2    0    0 -0.16233694731E+02  0.38849898901E+02  0.10525009693E+02  0.47787270533E+02  0.19999997666E+02 0.  0.
        -12    1    1    2    0    0  0.16233694731E+02 -0.38849898901E+02 -0.10525009693E+02  0.43400729467E+02  0.00000000000E+00 0.  1.
         11    1    3    3    0    0 -0.50355169008E+01  0.20744675102E+02  0.14509099098E+02  0.25811081582E+02  0.51100000000E-03 0. -1.
        -11    1    3    3    0    0 -0.17642508827E+00  0.21135109306E+01  0.12398985721E+00  0.21244829986E+01  0.51100000000E-03 0.  1.
         12    1    3    3    0    0 -0.11021752742E+02  0.15991712869E+02 -0.41080792621E+01  0.19851705952E+02  0.00000000000E+00 0. -1.
</event>
<event>
 7    1  0.2685294E-009  0.4778727E+02  0.7816164E-02  0.1312668E+00
        -11   -1    0    0    0    0  0.00000000000E+00  0.00000000000E+00  0.45593999997E+02  0.45594000000E+02  0.51100000000E-03 0.  1.
         11   -1    0    0    0    0 -0.00000000000E+00 -0.00000000000E+00 -0.45593999997E+02  0.45594000000E+02  0.51100000000E-03 0. -1.
    9900012    2    1    2    0    0 -0.15079589555E+02 -0.33325674262E+02 -0.23358698716E+02  0.47787269685E+02  0.19999993803E+02 0.  0.
        -12    1    1    2    0    0  0.15079589555E+02  0.33325674262E+02  0.23358698716E+02  0.43400730315E+02  0.00000000000E+00 0.  1.
         11    1    3    3    0    0 -0.99290119557E+01 -0.12809003663E+02 -0.18314308906E+02  0.24455464915E+02  0.51100000000E-03 0. -1.
        -11    1    3    3    0    0  0.45249467771E-02 -0.27595747935E+01  0.21427977335E+01  0.34938311213E+01  0.51100000000E-03 0.  1.
         12    1    3    3    0    0 -0.51551025461E+01 -0.17757095805E+02 -0.71871875432E+01  0.19837973649E+02  0.00000000000E+00 0. -1.
</event>
<event>
 7    1  0.2685294E-009  0.4778727E+02  0.7816164E-02  0.1312668E+00
        -11   -1    0    0    0    0  0.00000000000E+00  0.00000000000E+00  0.45593999997E+02  0.45594000000E+02  0.51100000000E-03 0.  1.
         11   -1    0    0    0    0 -0.00000000000E+00 -0.00000000000E+00 -0.45593999997E+02  0.45594000000E+02  0.51100000000E-03 0. -1.
    9900012    2    1    2    0    0  0.74534507024E+01  0.40043148636E+02  0.14987173332E+02  0.47787273687E+02  0.20000012047E+02 0.  0.
        -12    1    1    2    0    0 -0.74534507024E+01 -0.40043148636E+02 -0.14987173332E+02  0.43400726313E+02  0.00000000000E+00 0.  1.
         11    1    3    3    0    0  0.20713667398E+01  0.75833406270E+01  0.56101861094E+00  0.78811393452E+01  0.51100000000E-03 0. -1.
        -11    1    3    3    0    0 -0.10430007828E+01  0.26366347976E+02  0.47881930665E+01  0.26817884878E+02  0.51100000000E-03 0.  1.
        -12    1    3    3    0    0  0.64250847454E+01  0.60934600326E+01  0.96379616549E+01  0.13088249463E+02  0.00000000000E+00 0.  1.
</event>
<event>
 7    1  0.2685294E-009  0.4778727E+02  0.7816164E-02  0.1312668E+00
        -11   -1    0    0    0    0  0.00000000000E+00  0.00000000000E+00  0.45593999997E+02  0.45594000000E+02  0.51100000000E-03 0.  1.
         11   -1    0    0    0    0 -0.00000000000E+00 -0.00000000000E+00 -0.45593999997E+02  0.45594000000E+02  0.51100000000E-03 0. -1.
    9900012    2    1    2    0    0 -0.85400561324E+00 -0.80325159573E+01 -0.42642379277E+02  0.47787272488E+02  0.20000006581E+02 0.  0.
        -12    1    1    2    0    0  0.85400561324E+00  0.80325159573E+01  0.42642379277E+02  0.43400727512E+02  0.00000000000E+00 0.  1.
         11    1    3    3    0    0  0.81179115170E+01 -0.26098664055E+01 -0.28390073660E+02  0.29643012208E+02  0.51100000000E-03 0. -1.
        -11    1    3    3    0    0 -0.49305333833E+01 -0.47098396764E+01 -0.10844673283E+02  0.12810140050E+02  0.51100000000E-03 0.  1.
         12    1    3    3    0    0 -0.40413837469E+01 -0.71280987543E+00 -0.34076323334E+01  0.53341202300E+01  0.00000000000E+00 0. -1.
</event>
<event>
 7    1  0.2685294E-009  0.4778728E+02  0.7816164E-02  0.1312668E+00
        -11   -1    0    0    0    0  0.00000000000E+00  0.00000000000E+00  0.45593999997E+02  0.45594000000E+02  0.51100000000E-03 0.  1.
         11   -1    0    0    0    0 -0.00000000000E+00 -0.00000000000E+00 -0.45593999997E+02  0.45594000000E+02  0.51100000000E-03 0. -1.
    9900012    2    1    2    0    0  0.41994872007E+02 -0.10613040056E+02  0.27234232652E+01  0.47787275024E+02  0.20000018144E+02 0.  0.
        -12    1    1    2    0    0 -0.41994872007E+02  0.10613040056E+02 -0.27234232652E+01  0.43400724976E+02  0.00000000000E+00 0.  1.
         11    1    3    3    0    0  0.22005302156E+02 -0.35940471886E+01 -0.44058637644E+01  0.22728003299E+02  0.51100000000E-03 0. -1.
        -11    1    3    3    0    0  0.98247731946E+01 -0.72623242455E+00  0.85185870543E+01  0.13023820773E+02  0.51100000000E-03 0.  1.
        -12    1    3    3    0    0  0.10164796656E+02 -0.62927604431E+01 -0.13893000247E+01  0.12035450952E+02  0.00000000000E+00 0.  1.
</event>
<event>
 7    1  0.2685294E-009  0.4778726E+02  0.7816164E-02  0.1312668E+00
        -11   -1    0    0    0    0  0.00000000000E+00  0.00000000000E+00  0.45593999997E+02  0.45594000000E+02  0.51100000000E-03 0.  1.
         11   -1    0    0    0    0 -0.00000000000E+00 -0.00000000000E+00 -0.45593999997E+02  0.45594000000E+02  0.51100000000E-03 0. -1.
    9900012    2    1    2    0    0 -0.36175710401E+02  0.23296278864E+02 -0.56767672532E+01  0.47787259011E+02  0.19999945135E+02 0.  0.
        -12    1    1    2    0    0  0.36175710401E+02 -0.23296278864E+02  0.56767672532E+01  0.43400740989E+02  0.00000000000E+00 0.  1.
         11    1    3    3    0    0 -0.28801252001E+02  0.17971093049E+02  0.64222679324E+00  0.33954156707E+02  0.51100000000E-03 0. -1.
        -11    1    3    3    0    0 -0.79323215471E+00  0.36398676133E+01 -0.59619630065E+01  0.70301391626E+01  0.51100000000E-03 0.  1.
         12    1    3    3    0    0 -0.65812262457E+01  0.16853182019E+01 -0.35703104001E+00  0.68029631413E+01  0.00000000000E+00 0. -1.
</event>
<event>
 7    1  0.2685294E-009  0.4778727E+02  0.7816164E-02  0.1312668E+00
        -11   -1    0    0    0    0  0.00000000000E+00  0.00000000000E+00  0.45593999997E+02  0.45594000000E+02  0.51100000000E-03 0. -1.
         11   -1    0    0    0    0 -0.00000000000E+00 -0.00000000000E+00 -0.45593999997E+02  0.45594000000E+02  0.51100000000E-03 0.  1.
    9900012    2    1    2    0    0 -0.41597855501E+02  0.63204517564E+01  0.10643943018E+02  0.47787271715E+02  0.20000003057E+02 0.  0.
        -12    1    1    2    0    0  0.41597855501E+02 -0.63204517564E+01 -0.10643943018E+02  0.43400728285E+02  0.00000000000E+00 0.  1.
         11    1    3    3    0    0 -0.17989591842E+02  0.11275222784E+02  0.77855694965E+01  0.22613517110E+02  0.51100000000E-03 0. -1.
        -11    1    3    3    0    0 -0.91906630474E+00  0.21772744532E+00  0.16129345941E+01  0.18691298454E+01  0.51100000000E-03 0.  1.
         12    1    3    3    0    0 -0.22689197355E+02 -0.51724984726E+01  0.12454389273E+01  0.23304624759E+02  0.00000000000E+00 0. -1.
</event>
<event>
 7    1  0.2685294E-009  0.4778726E+02  0.7816164E-02  0.1312668E+00
        -11   -1    0    0    0    0  0.00000000000E+00  0.00000000000E+00  0.45593999997E+02  0.45594000000E+02  0.51100000000E-03 0.  1.
         11   -1    0    0    0    0 -0.00000000000E+00 -0.00000000000E+00 -0.45593999997E+02  0.45594000000E+02  0.51100000000E-03 0. -1.
    9900012    2    1    2    0    0  0.39354042115E+02  0.67428851020E+01 -0.17012254018E+02  0.47787263634E+02  0.19999966214E+02 0.  0.
        -12    1    1    2    0    0 -0.39354042115E+02 -0.67428851020E+01  0.17012254018E+02  0.43400736366E+02  0.00000000000E+00 0.  1.
         11    1    3    3    0    0  0.12786534587E+02  0.10289539059E+02 -0.88997810789E+01  0.18670195080E+02  0.51100000000E-03 0. -1.
        -11    1    3    3    0    0  0.75502077101E+01  0.13169546467E+01  0.50197801739E+00  0.76806242063E+01  0.51100000000E-03 0.  1.
         12    1    3    3    0    0  0.19017299818E+02 -0.48636086037E+01 -0.86144509565E+01  0.21436444348E+02  0.00000000000E+00 0. -1.
</event>
<event>
 7    1  0.2685294E-009  0.4778727E+02  0.7816164E-02  0.1312668E+00
        -11   -1    0    0    0    0  0.00000000000E+00  0.00000000000E+00  0.45593999997E+02  0.45594000000E+02  0.51100000000E-03 0.  1.
         11   -1    0    0    0    0 -0.00000000000E+00 -0.00000000000E+00 -0.45593999997E+02  0.45594000000E+02  0.51100000000E-03 0. -1.
    9900012    2    1    2    0    0 -0.17762316419E+02 -0.49352102988E+01 -0.39290801736E+02  0.47787270901E+02  0.19999999348E+02 0.  0.
        -12    1    1    2    0    0  0.17762316419E+02  0.49352102988E+01  0.39290801736E+02  0.43400729099E+02  0.00000000000E+00 0.  1.
         11    1    3    3    0    0 -0.67785158380E+01 -0.18293859551E+01 -0.16433021151E+01  0.72107816526E+01  0.51100000000E-03 0. -1.
        -11    1    3    3    0    0 -0.11590654864E+02 -0.41220160267E+01 -0.37394682805E+02  0.39366185981E+02  0.51100000000E-03 0.  1.
        -12    1    3    3    0    0  0.60685428381E+00  0.10161916830E+01 -0.25281681543E+00  0.12103032680E+01  0.00000000000E+00 0.  1.
</event>
<event>
 7    1  0.2685294E-009  0.4778727E+02  0.7816164E-02  0.1312668E+00
        -11   -1    0    0    0    0  0.00000000000E+00  0.00000000000E+00  0.45593999997E+02  0.45594000000E+02  0.51100000000E-03 0.  1.
         11   -1    0    0    0    0 -0.00000000000E+00 -0.00000000000E+00 -0.45593999997E+02  0.45594000000E+02  0.51100000000E-03 0. -1.
    9900012    2    1    2    0    0 -0.29820580936E+02  0.31164591103E+02 -0.48087787874E+01  0.47787272593E+02  0.20000007061E+02 0.  0.
        -12    1    1    2    0    0  0.29820580936E+02 -0.31164591103E+02  0.48087787874E+01  0.43400727407E+02  0.00000000000E+00 0.  1.
         11    1    3    3    0    0 -0.74780045088E+01  0.19824609106E+02 -0.16102622536E+01  0.21249202866E+02  0.51100000000E-03 0. -1.
        -11    1    3    3    0    0 -0.21436858141E+02  0.83151622489E+01 -0.17365923748E+01  0.23058546431E+02  0.51100000000E-03 0.  1.
         12    1    3    3    0    0 -0.90571828688E+00  0.30248197483E+01 -0.14619241590E+01  0.34795232966E+01  0.00000000000E+00 0. -1.
</event>
<event>
 7    1  0.2685294E-009  0.4778727E+02  0.7816164E-02  0.1312668E+00
        -11   -1    0    0    0    0  0.00000000000E+00  0.00000000000E+00  0.45593999997E+02  0.45594000000E+02  0.51100000000E-03 0.  1.
         11   -1    0    0    0    0 -0.00000000000E+00 -0.00000000000E+00 -0.45593999997E+02  0.45594000000E+02  0.51100000000E-03 0. -1.
    9900012    2    1    2    0    0 -0.24493591994E+02 -0.23606931953E+02 -0.26951811494E+02  0.47787269271E+02  0.19999991916E+02 0.  0.
        -12    1    1    2    0    0  0.24493591994E+02  0.23606931953E+02  0.26951811494E+02  0.43400730729E+02  0.00000000000E+00 0.  1.
         11    1    3    3    0    0 -0.12532527273E+02 -0.65405850124E+01 -0.19057968877E+02  0.23728667686E+02  0.51100000000E-03 0. -1.
        -11    1    3    3    0    0 -0.15564312090E+01  0.58924851176E+00  0.73931953219E+00  0.18210671456E+01  0.51100000000E-03 0.  1.
         12    1    3    3    0    0 -0.10404633512E+02 -0.17655595452E+02 -0.86331621491E+01  0.22237534440E+02  0.00000000000E+00 0. -1.
</event>
<event>
 7    1  0.2685294E-009  0.4778731E+02  0.7816164E-02  0.1312668E+00
        -11   -1    0    0    0    0  0.00000000000E+00  0.00000000000E+00  0.45593999997E+02  0.45594000000E+02  0.51100000000E-03 0.  1.
         11   -1    0    0    0    0 -0.00000000000E+00 -0.00000000000E+00 -0.45593999997E+02  0.45594000000E+02  0.51100000000E-03 0. -1.
    9900012    2    1    2    0    0  0.13355869166E+02 -0.33550266000E+02 -0.24075304396E+02  0.47787310241E+02  0.20000178710E+02 0.  0.
        -12    1    1    2    0    0 -0.13355869166E+02  0.33550266000E+02  0.24075304396E+02  0.43400689759E+02  0.00000000000E+00 0.  1.
         11    1    3    3    0    0  0.29348906904E+01 -0.10394643650E+02 -0.47604750695E+01  0.11803572473E+02  0.51100000000E-03 0. -1.
        -11    1    3    3    0    0  0.86569805371E+01 -0.16688653558E+02 -0.39366606913E+01  0.19208117223E+02  0.51100000000E-03 0.  1.
        -12    1    3    3    0    0  0.17639979381E+01 -0.64669687919E+01 -0.15378168635E+02  0.16775620544E+02  0.00000000000E+00 0.  1.
</event>
<event>
 7    1  0.2685294E-009  0.4778726E+02  0.7816164E-02  0.1312668E+00
        -11   -1    0    0    0    0  0.00000000000E+00  0.00000000000E+00  0.45593999997E+02  0.45594000000E+02  0.51100000000E-03 0. -1.
         11   -1    0    0    0    0 -0.00000000000E+00 -0.00000000000E+00 -0.45593999997E+02  0.45594000000E+02  0.51100000000E-03 0.  1.
    9900012    2    1    2    0    0  0.17894405310E+02  0.28181247426E+02  0.27735020880E+02  0.47787264625E+02  0.19999970733E+02 0.  0.
        -12    1    1    2    0    0 -0.17894405310E+02 -0.28181247426E+02 -0.27735020880E+02  0.43400735375E+02  0.00000000000E+00 0.  1.
         11    1    3    3    0    0  0.17262797613E+02  0.24587025415E+02  0.23013249888E+02  0.37843568421E+02  0.51100000000E-03 0. -1.
        -11    1    3    3    0    0 -0.32413008671E+01  0.35082307444E+01  0.18528290832E+01  0.51231523635E+01  0.51100000000E-03 0.  1.
         12    1    3    3    0    0  0.38729085640E+01  0.85991265928E-01  0.28689419089E+01  0.48205438407E+01  0.00000000000E+00 0. -1.
</event>
<event>
 7    1  0.2685294E-009  0.4778727E+02  0.7816164E-02  0.1312668E+00
        -11   -1    0    0    0    0  0.00000000000E+00  0.00000000000E+00  0.45593999997E+02  0.45594000000E+02  0.51100000000E-03 0.  1.
         11   -1    0    0    0    0 -0.00000000000E+00 -0.00000000000E+00 -0.45593999997E+02  0.45594000000E+02  0.51100000000E-03 0. -1.
    9900012    2    1    2    0    0  0.27227939595E+02 -0.33792630656E+02  0.56617078208E+00  0.47787272695E+02  0.20000007527E+02 0.  0.
        -12    1    1    2    0    0 -0.27227939595E+02  0.33792630656E+02 -0.56617078208E+00  0.43400727305E+02  0.00000000000E+00 0.  1.
         11    1    3    3    0    0  0.19067012168E+02 -0.18455506957E+02  0.92492016470E+01  0.28101680046E+02  0.51100000000E-03 0.  1.
        -11    1    3    3    0    0  0.56969412672E+01 -0.11362334885E+02 -0.47298698381E+01  0.13562059681E+02  0.51100000000E-03 0. -1.
        -12    1    3    3    0    0  0.24639861597E+01 -0.39747888134E+01 -0.39531610269E+01  0.61235329680E+01  0.00000000000E+00 0.  1.
</event>
<event>
 7    1  0.2685294E-009  0.4778727E+02  0.7816164E-02  0.1312668E+00
        -11   -1    0    0    0    0  0.00000000000E+00  0.00000000000E+00  0.45593999997E+02  0.45594000000E+02  0.51100000000E-03 0.  1.
         11   -1    0    0    0    0 -0.00000000000E+00 -0.00000000000E+00 -0.45593999997E+02  0.45594000000E+02  0.51100000000E-03 0. -1.
    9900012    2    1    2    0    0  0.10558116629E+02 -0.22326247833E+02 -0.35688767340E+02  0.47787270935E+02  0.19999999502E+02 0.  0.
        -12    1    1    2    0    0 -0.10558116629E+02  0.22326247833E+02  0.35688767340E+02  0.43400729065E+02  0.00000000000E+00 0.  1.
         11    1    3    3    0    0  0.82526897051E+01 -0.75464340201E+01 -0.24103305994E+02  0.26571129330E+02  0.51100000000E-03 0. -1.
        -11    1    3    3    0    0  0.12559483298E+01 -0.17146471280E+01  0.15724263417E+01  0.26438505711E+01  0.51100000000E-03 0.  1.
         12    1    3    3    0    0  0.10494785940E+01 -0.13065166685E+02 -0.13157887688E+02  0.18572291034E+02  0.00000000000E+00 0. -1.
</event>
<event>
 7    1  0.2685294E-009  0.4778728E+02  0.7816164E-02  0.1312668E+00
        -11   -1    0    0    0    0  0.00000000000E+00  0.00000000000E+00  0.45593999997E+02  0.45594000000E+02  0.51100000000E-03 0. -1.
         11   -1    0    0    0    0 -0.00000000000E+00 -0.00000000000E+00 -0.45593999997E+02  0.45594000000E+02  0.51100000000E-03 0.  1.
    9900012    2    1    2    0    0  0.21966583860E+02  0.13829672970E+02  0.34782642761E+02  0.47787275370E+02  0.20000019723E+02 0.  0.
        -12    1    1    2    0    0 -0.21966583860E+02 -0.13829672970E+02 -0.34782642761E+02  0.43400724630E+02  0.00000000000E+00 0.  1.
         11    1    3    3    0    0  0.15418741860E+02  0.28231411889E+01  0.94121781002E+01  0.18283785811E+02  0.51100000000E-03 0. -1.
        -11    1    3    3    0    0 -0.18580562792E+01  0.22278587104E+01  0.46071138083E+01  0.54443755816E+01  0.51100000000E-03 0.  1.
         12    1    3    3    0    0  0.84058982789E+01  0.87786730703E+01  0.20763350853E+02  0.24059113978E+02  0.00000000000E+00 0. -1.
</event>
<event>
 7    1  0.2685294E-009  0.4778727E+02  0.7816164E-02  0.1312668E+00
        -11   -1    0    0    0    0  0.00000000000E+00  0.00000000000E+00  0.45593999997E+02  0.45594000000E+02  0.51100000000E-03 0. -1.
         11   -1    0    0    0    0 -0.00000000000E+00 -0.00000000000E+00 -0.45593999997E+02  0.45594000000E+02  0.51100000000E-03 0.  1.
    9900012    2    1    2    0    0 -0.40926329836E+02  0.14242515799E+02 -0.24103036667E+01  0.47787270814E+02  0.19999998950E+02 0.  0.
        -12    1    1    2    0    0  0.40926329836E+02 -0.14242515799E+02  0.24103036667E+01  0.43400729186E+02  0.00000000000E+00 0.  1.
         11    1    3    3    0    0 -0.12423842579E+02  0.58076701062E+01 -0.81785292174E+01  0.15967756164E+02  0.51100000000E-03 0. -1.
        -11    1    3    3    0    0 -0.89783468146E+01  0.70585319799E+01  0.21717104970E-01  0.11420773053E+02  0.51100000000E-03 0.  1.
         12    1    3    3    0    0 -0.19524140441E+02  0.13763137130E+01  0.57465084458E+01  0.20398741597E+02  0.00000000000E+00 0. -1.
</event>
<event>
 7    1  0.2685294E-009  0.4778727E+02  0.7816164E-02  0.1312668E+00
        -11   -1    0    0    0    0  0.00000000000E+00  0.00000000000E+00  0.45593999997E+02  0.45594000000E+02  0.51100000000E-03 0.  1.
         11   -1    0    0    0    0 -0.00000000000E+00 -0.00000000000E+00 -0.45593999997E+02  0.45594000000E+02  0.51100000000E-03 0. -1.
    9900012    2    1    2    0    0  0.23660267864E+02 -0.18711087599E+02 -0.31204337393E+02  0.47787265597E+02  0.19999975164E+02 0.  0.
        -12    1    1    2    0    0 -0.23660267864E+02  0.18711087599E+02  0.31204337393E+02  0.43400734403E+02  0.00000000000E+00 0.  1.
         11    1    3    3    0    0  0.18488936174E+01 -0.24987388817E+01 -0.50951351991E+01  0.59684593126E+01  0.51100000000E-03 0. -1.
        -11    1    3    3    0    0  0.11644020684E+02 -0.18259934562E+02 -0.13614934819E+02  0.25580752105E+02  0.51100000000E-03 0.  1.
        -12    1    3    3    0    0  0.10167353563E+02  0.20475858450E+01 -0.12494267376E+02  0.16238054179E+02  0.00000000000E+00 0.  1.
</event>
<event>
 7    1  0.3229619E-009  0.4778727E+02  0.7816164E-02  0.1312668E+00
        -11   -1    0    0    0    0  0.00000000000E+00  0.00000000000E+00  0.45593999997E+02  0.45594000000E+02  0.51100000000E-03 0.  1.
         11   -1    0    0    0    0 -0.00000000000E+00 -0.00000000000E+00 -0.45593999997E+02  0.45594000000E+02  0.51100000000E-03 0. -1.
    9900012    2    1    2    0    0 -0.35611243270E+02 -0.23668908645E+02 -0.74327088147E+01  0.47787273693E+02  0.20000012075E+02 0.  0.
        -12    1    1    2    0    0  0.35611243270E+02  0.23668908645E+02  0.74327088147E+01  0.43400726307E+02  0.00000000000E+00 0.  1.
         11    1    3    3    0    0 -0.96747480750E+01 -0.62930919118E+01 -0.25523119085E+01  0.11820239104E+02  0.51100000000E-03 0. -1.
        -11    1    3    3    0    0 -0.20949592611E+02 -0.10197670670E+02 -0.10520540758E+02  0.25564813627E+02  0.51100000000E-03 0.  1.
        -12    1    3    3    0    0 -0.49869025840E+01 -0.71781460630E+01  0.56401438520E+01  0.10402220963E+02  0.00000000000E+00 0.  1.
</event>
<event>
 7    1  0.2685294E-009  0.4778727E+02  0.7816164E-02  0.1312668E+00
        -11   -1    0    0    0    0  0.00000000000E+00  0.00000000000E+00  0.45593999997E+02  0.45594000000E+02  0.51100000000E-03 0. -1.
         11   -1    0    0    0    0 -0.00000000000E+00 -0.00000000000E+00 -0.45593999997E+02  0.45594000000E+02  0.51100000000E-03 0.  1.
    9900012    2    1    2    0    0 -0.19898386330E+02  0.31129739793E+02 -0.22773170505E+02  0.47787265294E+02  0.19999973783E+02 0.  0.
        -12    1    1    2    0    0  0.19898386330E+02 -0.31129739793E+02  0.22773170505E+02  0.43400734706E+02  0.00000000000E+00 0.  1.
         11    1    3    3    0    0 -0.27847822553E+01  0.17383048887E+01 -0.20906418674E+01  0.38919789021E+01  0.51100000000E-03 0. -1.
        -11    1    3    3    0    0 -0.64562023110E+01  0.97202371046E+00 -0.95450374383E+01  0.11564390098E+02  0.51100000000E-03 0.  1.
        -12    1    3    3    0    0 -0.10657401764E+02  0.28419411194E+02 -0.11137491199E+02  0.32330896294E+02  0.00000000000E+00 0.  1.
</event>
<event>
 7    1  0.2685294E-009  0.4778727E+02  0.7816164E-02  0.1312668E+00
        -11   -1    0    0    0    0  0.00000000000E+00  0.00000000000E+00  0.45593999997E+02  0.45594000000E+02  0.51100000000E-03 0.  1.
         11   -1    0    0    0    0 -0.00000000000E+00 -0.00000000000E+00 -0.45593999997E+02  0.45594000000E+02  0.51100000000E-03 0. -1.
    9900012    2    1    2    0    0 -0.27740940545E+02  0.33143568141E+02  0.39455120983E+01  0.47787274693E+02  0.20000016636E+02 0.  0.
        -12    1    1    2    0    0  0.27740940545E+02 -0.33143568141E+02 -0.39455120983E+01  0.43400725307E+02  0.00000000000E+00 0.  1.
         11    1    3    3    0    0 -0.11827615895E+02  0.55252989964E+01  0.58192999850E+00  0.13067519640E+02  0.51100000000E-03 0.  1.
        -11    1    3    3    0    0 -0.19678212608E+01  0.11360558902E+02 -0.37911212541E+01  0.12137018567E+02  0.51100000000E-03 0. -1.
        -12    1    3    3    0    0 -0.13945503389E+02  0.16257710243E+02  0.71547033538E+01  0.22582736486E+02  0.00000000000E+00 0.  1.
</event>
<event>
 7    1  0.2685294E-009  0.4778727E+02  0.7816164E-02  0.1312668E+00
        -11   -1    0    0    0    0  0.00000000000E+00  0.00000000000E+00  0.45593999997E+02  0.45594000000E+02  0.51100000000E-03 0.  1.
         11   -1    0    0    0    0 -0.00000000000E+00 -0.00000000000E+00 -0.45593999997E+02  0.45594000000E+02  0.51100000000E-03 0. -1.
    9900012    2    1    2    0    0  0.82510690983E+01 -0.19472453982E+02 -0.37899428975E+02  0.47787270491E+02  0.19999997475E+02 0.  0.
        -12    1    1    2    0    0 -0.82510690983E+01  0.19472453982E+02  0.37899428975E+02  0.43400729509E+02  0.00000000000E+00 0.  1.
         11    1    3    3    0    0 -0.91228710162E+00 -0.13978595149E+02 -0.14763478023E+02  0.20351748665E+02  0.51100000000E-03 0. -1.
        -11    1    3    3    0    0  0.10431774405E+02 -0.66210623408E+01 -0.22408878089E+02  0.25589415805E+02  0.51100000000E-03 0.  1.
         12    1    3    3    0    0 -0.12684182054E+01  0.11272035086E+01 -0.72707286291E+00  0.18461060213E+01  0.00000000000E+00 0. -1.
</event>
<event>
 7    1  0.2685294E-009  0.4778728E+02  0.7816164E-02  0.1312668E+00
        -11   -1    0    0    0    0  0.00000000000E+00  0.00000000000E+00  0.45593999997E+02  0.45594000000E+02  0.51100000000E-03 0.  1.
         11   -1    0    0    0    0 -0.00000000000E+00 -0.00000000000E+00 -0.45593999997E+02  0.45594000000E+02  0.51100000000E-03 0. -1.
    9900012    2    1    2    0    0 -0.19738247021E+02  0.18185690804E+02  0.34107259810E+02  0.47787275153E+02  0.20000018732E+02 0.  0.
        -12    1    1    2    0    0  0.19738247021E+02 -0.18185690804E+02 -0.34107259810E+02  0.43400724847E+02  0.00000000000E+00 0.  1.
         11    1    3    3    0    0  0.20780853375E+01  0.80673538362E+01  0.85971557349E+01  0.11971287465E+02  0.51100000000E-03 0. -1.
        -11    1    3    3    0    0 -0.12105656156E+01 -0.10668966461E+01  0.10034912854E+01  0.19001927755E+01  0.51100000000E-03 0.  1.
         12    1    3    3    0    0 -0.20605766743E+02  0.11185233614E+02  0.24506612790E+02  0.33915794912E+02  0.00000000000E+00 0. -1.
</event>
<event>
 7    1  0.2685294E-009  0.4778727E+02  0.7816164E-02  0.1312668E+00
        -11   -1    0    0    0    0  0.00000000000E+00  0.00000000000E+00  0.45593999997E+02  0.45594000000E+02  0.51100000000E-03 0.  1.
         11   -1    0    0    0    0 -0.00000000000E+00 -0.00000000000E+00 -0.45593999997E+02  0.45594000000E+02  0.51100000000E-03 0. -1.
    9900012    2    1    2    0    0 -0.24902118135E+02 -0.11156609075E+02 -0.33749634125E+02  0.47787271697E+02  0.20000002975E+02 0.  0.
        -12    1    1    2    0    0  0.24902118135E+02  0.11156609075E+02  0.33749634125E+02  0.43400728303E+02  0.00000000000E+00 0.  1.
         11    1    3    3    0    0 -0.25492582194E+02 -0.11879414423E+02 -0.32897357380E+02  0.43280808181E+02  0.51100000000E-03 0. -1.
        -11    1    3    3    0    0  0.96056026648E+00  0.12982393384E+01 -0.23548717626E+01  0.28554373894E+01  0.51100000000E-03 0.  1.
         12    1    3    3    0    0 -0.37009620788E+00 -0.57543399000E+00  0.15025950185E+01  0.16510261262E+01  0.00000000000E+00 0. -1.
</event>
<event>
 7    1  0.2685294E-009  0.4778727E+02  0.7816164E-02  0.1312668E+00
        -11   -1    0    0    0    0  0.00000000000E+00  0.00000000000E+00  0.45593999997E+02  0.45594000000E+02  0.51100000000E-03 0.  1.
         11   -1    0    0    0    0 -0.00000000000E+00 -0.00000000000E+00 -0.45593999997E+02  0.45594000000E+02  0.51100000000E-03 0. -1.
    9900012    2    1    2    0    0 -0.15458169340E+02 -0.80292499105E+01 -0.39751723374E+02  0.47787269998E+02  0.19999995231E+02 0.  0.
        -12    1    1    2    0    0  0.15458169340E+02  0.80292499105E+01  0.39751723374E+02  0.43400730002E+02  0.00000000000E+00 0.  1.
         11    1    3    3    0    0 -0.34178719720E+01 -0.17253709318E+01 -0.20999543145E+02  0.21345715407E+02  0.51100000000E-03 0. -1.
        -11    1    3    3    0    0 -0.29266028566E+01 -0.75594546924E+01 -0.39596415178E+01  0.90215919181E+01  0.51100000000E-03 0.  1.
        -12    1    3    3    0    0 -0.91136945112E+01  0.12555757137E+01 -0.14792538711E+02  0.17419962673E+02  0.00000000000E+00 0.  1.
</event>
<event>
 7    1  0.2685294E-009  0.4778727E+02  0.7816164E-02  0.1312668E+00
        -11   -1    0    0    0    0  0.00000000000E+00  0.00000000000E+00  0.45593999997E+02  0.45594000000E+02  0.51100000000E-03 0.  1.
         11   -1    0    0    0    0 -0.00000000000E+00 -0.00000000000E+00 -0.45593999997E+02  0.45594000000E+02  0.51100000000E-03 0. -1.
    9900012    2    1    2    0    0  0.30646509205E+02 -0.12178604146E+02 -0.28215179103E+02  0.47787271236E+02  0.20000000875E+02 0.  0.
        -12    1    1    2    0    0 -0.30646509205E+02  0.12178604146E+02  0.28215179103E+02  0.43400728764E+02  0.00000000000E+00 0.  1.
         11    1    3    3    0    0  0.80483152519E+01 -0.70798125991E+01 -0.27971703694E+01  0.11078054304E+02  0.51100000000E-03 0. -1.
        -11    1    3    3    0    0  0.97021038520E+01 -0.64299402574E+01 -0.18904554198E+02  0.22200385595E+02  0.51100000000E-03 0.  1.
        -12    1    3    3    0    0  0.12896090101E+02  0.13311487104E+01 -0.65134545349E+01  0.14508831337E+02  0.00000000000E+00 0.  1.
</event>
<event>
 7    1  0.2685294E-009  0.4778727E+02  0.7816164E-02  0.1312668E+00
        -11   -1    0    0    0    0  0.00000000000E+00  0.00000000000E+00  0.45593999997E+02  0.45594000000E+02  0.51100000000E-03 0. -1.
         11   -1    0    0    0    0 -0.00000000000E+00 -0.00000000000E+00 -0.45593999997E+02  0.45594000000E+02  0.51100000000E-03 0.  1.
    9900012    2    1    2    0    0 -0.65419910508E+01 -0.33269300900E+02 -0.27092049956E+02  0.47787271894E+02  0.20000003875E+02 0.  0.
        -12    1    1    2    0    0  0.65419910508E+01  0.33269300900E+02  0.27092049956E+02  0.43400728106E+02  0.00000000000E+00 0.  1.
         11    1    3    3    0    0 -0.32923150976E+01 -0.34949286209E+01  0.16276075169E+01  0.50698097851E+01  0.51100000000E-03 0. -1.
        -11    1    3    3    0    0 -0.34199939878E+00 -0.13480435095E+02 -0.19685097329E+02  0.23860891665E+02  0.51100000000E-03 0.  1.
        -12    1    3    3    0    0 -0.29076765544E+01 -0.16293937185E+02 -0.90345601433E+01  0.18856570444E+02  0.00000000000E+00 0.  1.
</event>
<event>
 7    1  0.2685294E-009  0.4778727E+02  0.7816164E-02  0.1312668E+00
        -11   -1    0    0    0    0  0.00000000000E+00  0.00000000000E+00  0.45593999997E+02  0.45594000000E+02  0.51100000000E-03 0.  1.
         11   -1    0    0    0    0 -0.00000000000E+00 -0.00000000000E+00 -0.45593999997E+02  0.45594000000E+02  0.51100000000E-03 0. -1.
    9900012    2    1    2    0    0 -0.21415018283E+02 -0.37295550572E+02 -0.58362704165E+01  0.47787272438E+02  0.20000006353E+02 0.  0.
        -12    1    1    2    0    0  0.21415018283E+02  0.37295550572E+02  0.58362704165E+01  0.43400727562E+02  0.00000000000E+00 0.  1.
         11    1    3    3    0    0 -0.96104167659E+00 -0.35151511004E+01 -0.39753454437E+00  0.36657771806E+01  0.51100000000E-03 0. -1.
        -11    1    3    3    0    0 -0.72104356187E+01 -0.28488278318E+02 -0.52900729998E+01  0.29858956042E+02  0.51100000000E-03 0.  1.
        -12    1    3    3    0    0 -0.13243540988E+02 -0.52921211539E+01 -0.14866287236E+00  0.14262539215E+02  0.00000000000E+00 0.  1.
</event>
<event>
 7    1  0.2685294E-009  0.4778727E+02  0.7816164E-02  0.1312668E+00
        -11   -1    0    0    0    0  0.00000000000E+00  0.00000000000E+00  0.45593999997E+02  0.45594000000E+02  0.51100000000E-03 0.  1.
         11   -1    0    0    0    0 -0.00000000000E+00 -0.00000000000E+00 -0.45593999997E+02  0.45594000000E+02  0.51100000000E-03 0. -1.
    9900012    2    1    2    0    0 -0.19154728817E+02 -0.68402381205E+01 -0.38339681928E+02  0.47787266090E+02  0.19999977411E+02 0.  0.
        -12    1    1    2    0    0  0.19154728817E+02  0.68402381205E+01  0.38339681928E+02  0.43400733910E+02  0.00000000000E+00 0.  1.
         11    1    3    3    0    0 -0.68572977594E+01  0.68921793414E+00 -0.97003682624E+01  0.11899357067E+02  0.51100000000E-03 0. -1.
        -11    1    3    3    0    0 -0.13059943250E+02 -0.15664904756E+01 -0.26358564616E+02  0.29458274542E+02  0.51100000000E-03 0.  1.
        -12    1    3    3    0    0  0.76251219173E+00 -0.59629655791E+01 -0.22807490490E+01  0.64296344814E+01  0.00000000000E+00 0.  1.
</event>
<event>
 7    1  0.2685294E-009  0.4778727E+02  0.7816164E-02  0.1312668E+00
        -11   -1    0    0    0    0  0.00000000000E+00  0.00000000000E+00  0.45593999997E+02  0.45594000000E+02  0.51100000000E-03 0.  1.
         11   -1    0    0    0    0 -0.00000000000E+00 -0.00000000000E+00 -0.45593999997E+02  0.45594000000E+02  0.51100000000E-03 0. -1.
    9900012    2    1    2    0    0  0.13221293035E+02  0.41181175020E+02 -0.35960420952E+01  0.47787270924E+02  0.19999999452E+02 0.  0.
        -12    1    1    2    0    0 -0.13221293035E+02 -0.41181175020E+02  0.35960420952E+01  0.43400729076E+02  0.00000000000E+00 0.  1.
         11    1    3    3    0    0  0.27744241854E+01  0.31466399041E+02 -0.25906265772E+01  0.31694527043E+02  0.51100000000E-03 0. -1.
        -11    1    3    3    0    0  0.74721097352E+01  0.43972596226E+01 -0.37050109479E+01  0.94284369049E+01  0.51100000000E-03 0.  1.
        -12    1    3    3    0    0  0.29747591144E+01  0.53175163564E+01  0.26995954299E+01  0.66643069763E+01  0.00000000000E+00 0.  1.
</event>
<event>
 7    1  0.2685294E-009  0.4778727E+02  0.7816164E-02  0.1312668E+00
        -11   -1    0    0    0    0  0.00000000000E+00  0.00000000000E+00  0.45593999997E+02  0.45594000000E+02  0.51100000000E-03 0.  1.
         11   -1    0    0    0    0 -0.00000000000E+00 -0.00000000000E+00 -0.45593999997E+02  0.45594000000E+02  0.51100000000E-03 0. -1.
    9900012    2    1    2    0    0  0.51314146883E+01  0.21955248440E+02 -0.37084484842E+02  0.47787269974E+02  0.19999995121E+02 0.  0.
        -12    1    1    2    0    0 -0.51314146883E+01 -0.21955248440E+02  0.37084484842E+02  0.43400730026E+02  0.00000000000E+00 0.  1.
         11    1    3    3    0    0  0.17996111861E+00  0.15084101725E+02 -0.28325664085E+02  0.32092144786E+02  0.51100000000E-03 0. -1.
        -11    1    3    3    0    0  0.52734759066E+01 -0.22425160673E+00 -0.13850968250E+01  0.54569524825E+01  0.51100000000E-03 0.  1.
        -12    1    3    3    0    0 -0.32202233693E+00  0.70953983219E+01 -0.73737239314E+01  0.10238172706E+02  0.00000000000E+00 0.  1.
</event>
<event>
 7    1  0.2685294E-009  0.4778727E+02  0.7816164E-02  0.1312668E+00
        -11   -1    0    0    0    0  0.00000000000E+00  0.00000000000E+00  0.45593999997E+02  0.45594000000E+02  0.51100000000E-03 0.  1.
         11   -1    0    0    0    0 -0.00000000000E+00 -0.00000000000E+00 -0.45593999997E+02  0.45594000000E+02  0.51100000000E-03 0. -1.
    9900012    2    1    2    0    0 -0.38174718187E+02 -0.20635974951E+02 -0.68602324064E+00  0.47787271910E+02  0.20000003949E+02 0.  0.
        -12    1    1    2    0    0  0.38174718187E+02  0.20635974951E+02  0.68602324064E+00  0.43400728090E+02  0.00000000000E+00 0.  1.
         11    1    3    3    0    0 -0.84098135388E+01 -0.10721492186E+02 -0.57329283845E+01  0.14783160236E+02  0.51100000000E-03 0. -1.
        -11    1    3    3    0    0 -0.23396394604E+01  0.70770112161E+00 -0.15079298040E+01  0.28720386900E+01  0.51100000000E-03 0.  1.
         12    1    3    3    0    0 -0.27425265187E+02 -0.10622183887E+02  0.65548349479E+01  0.30132072984E+02  0.00000000000E+00 0. -1.
</event>
<event>
 7    1  0.2685294E-009  0.4778727E+02  0.7816164E-02  0.1312668E+00
        -11   -1    0    0    0    0  0.00000000000E+00  0.00000000000E+00  0.45593999997E+02  0.45594000000E+02  0.51100000000E-03 0.  1.
         11   -1    0    0    0    0 -0.00000000000E+00 -0.00000000000E+00 -0.45593999997E+02  0.45594000000E+02  0.51100000000E-03 0. -1.
    9900012    2    1    2    0    0 -0.21513399994E+02  0.27841090875E+02 -0.25410055111E+02  0.47787267043E+02  0.19999981757E+02 0.  0.
        -12    1    1    2    0    0  0.21513399994E+02 -0.27841090875E+02  0.25410055111E+02  0.43400732957E+02  0.00000000000E+00 0.  1.
         11    1    3    3    0    0 -0.47781718448E+01  0.13156341105E+02 -0.20024538635E+02  0.24431585811E+02  0.51100000000E-03 0. -1.
        -11    1    3    3    0    0 -0.85164013441E+01  0.62871864984E+01 -0.40499580439E+00  0.10593480438E+02  0.51100000000E-03 0.  1.
        -12    1    3    3    0    0 -0.82188268048E+01  0.83975632718E+01 -0.49805206717E+01  0.12762200794E+02  0.00000000000E+00 0.  1.
</event>
<event>
 7    1  0.2685294E-009  0.4778727E+02  0.7816164E-02  0.1312668E+00
        -11   -1    0    0    0    0  0.00000000000E+00  0.00000000000E+00  0.45593999997E+02  0.45594000000E+02  0.51100000000E-03 0. -1.
         11   -1    0    0    0    0 -0.00000000000E+00 -0.00000000000E+00 -0.45593999997E+02  0.45594000000E+02  0.51100000000E-03 0.  1.
    9900012    2    1    2    0    0 -0.29394754747E+02  0.30366678582E+02  0.98710016831E+01  0.47787269027E+02  0.19999990803E+02 0.  0.
        -12    1    1    2    0    0  0.29394754747E+02 -0.30366678582E+02 -0.98710016831E+01  0.43400730973E+02  0.00000000000E+00 0.  1.
         11    1    3    3    0    0 -0.24079586191E+02  0.19697317629E+02  0.13814388022E+02  0.34038920512E+02  0.51100000000E-03 0. -1.
        -11    1    3    3    0    0 -0.30982731951E+01  0.10329329399E+02 -0.24650373867E+01  0.11062131450E+02  0.51100000000E-03 0.  1.
         12    1    3    3    0    0 -0.22168953609E+01  0.34003155324E+00 -0.14783489527E+01  0.26862170657E+01  0.00000000000E+00 0. -1.
</event>
<event>
 7    1  0.2685294E-009  0.4778727E+02  0.7816164E-02  0.1312668E+00
        -11   -1    0    0    0    0  0.00000000000E+00  0.00000000000E+00  0.45593999997E+02  0.45594000000E+02  0.51100000000E-03 0. -1.
         11   -1    0    0    0    0 -0.00000000000E+00 -0.00000000000E+00 -0.45593999997E+02  0.45594000000E+02  0.51100000000E-03 0.  1.
    9900012    2    1    2    0    0  0.24050688335E+02 -0.34867061574E+02  0.94591589677E+01  0.47787270968E+02  0.19999999650E+02 0.  0.
        -12    1    1    2    0    0 -0.24050688335E+02  0.34867061574E+02 -0.94591589677E+01  0.43400729032E+02  0.00000000000E+00 0.  1.
         11    1    3    3    0    0  0.45225929965E+01 -0.73855397766E+01  0.58957921306E+01  0.10476660265E+02  0.51100000000E-03 0. -1.
        -11    1    3    3    0    0  0.14187921490E+02 -0.28367579621E+02  0.33349509671E+01  0.31892610241E+02  0.51100000000E-03 0.  1.
        -12    1    3    3    0    0  0.53401738480E+01  0.88605782346E+00  0.22841586997E+00  0.54180004617E+01  0.00000000000E+00 0.  1.
</event>
<event>
 7    1  0.2685294E-009  0.4778728E+02  0.7816164E-02  0.1312668E+00
        -11   -1    0    0    0    0  0.00000000000E+00  0.00000000000E+00  0.45593999997E+02  0.45594000000E+02  0.51100000000E-03 0.  1.
         11   -1    0    0    0    0 -0.00000000000E+00 -0.00000000000E+00 -0.45593999997E+02  0.45594000000E+02  0.51100000000E-03 0. -1.
    9900012    2    1    2    0    0 -0.37215776657E+02  0.93576379374E+01 -0.20274207665E+02  0.47787275163E+02  0.20000018776E+02 0.  0.
        -12    1    1    2    0    0  0.37215776657E+02 -0.93576379374E+01  0.20274207665E+02  0.43400724837E+02  0.00000000000E+00 0.  1.
         11    1    3    3    0    0 -0.69457973792E+01  0.77087785785E+01 -0.79737303805E+01  0.13086242579E+02  0.51100000000E-03 0. -1.
        -11    1    3    3    0    0 -0.23178245074E+02  0.34548353560E+01 -0.42412579893E+01  0.23815020505E+02  0.51100000000E-03 0.  1.
        -12    1    3    3    0    0 -0.70917342036E+01 -0.18059759971E+01 -0.80592192951E+01  0.10886012078E+02  0.00000000000E+00 0.  1.
</event>
<event>
 7    1  0.2685294E-009  0.4778727E+02  0.7816164E-02  0.1312668E+00
        -11   -1    0    0    0    0  0.00000000000E+00  0.00000000000E+00  0.45593999997E+02  0.45594000000E+02  0.51100000000E-03 0.  1.
         11   -1    0    0    0    0 -0.00000000000E+00 -0.00000000000E+00 -0.45593999997E+02  0.45594000000E+02  0.51100000000E-03 0. -1.
    9900012    2    1    2    0    0 -0.39677034338E+02  0.16143513443E+02  0.69816228553E+01  0.47787272612E+02  0.20000007145E+02 0.  0.
        -12    1    1    2    0    0  0.39677034338E+02 -0.16143513443E+02 -0.69816228553E+01  0.43400727388E+02  0.00000000000E+00 0.  1.
         11    1    3    3    0    0  0.38194496696E+00  0.27973859693E+01 -0.53437715404E+00  0.28734664471E+01  0.51100000000E-03 0. -1.
        -11    1    3    3    0    0 -0.30549576106E+02  0.71601396669E+01  0.13153301949E+00  0.31377723014E+02  0.51100000000E-03 0.  1.
        -12    1    3    3    0    0 -0.95094031987E+01  0.61859878073E+01  0.73844669898E+01  0.13536083151E+02  0.00000000000E+00 0.  1.
</event>
<event>
 7    1  0.2685294E-009  0.4778727E+02  0.7816164E-02  0.1312668E+00
        -11   -1    0    0    0    0  0.00000000000E+00  0.00000000000E+00  0.45593999997E+02  0.45594000000E+02  0.51100000000E-03 0.  1.
         11   -1    0    0    0    0 -0.00000000000E+00 -0.00000000000E+00 -0.45593999997E+02  0.45594000000E+02  0.51100000000E-03 0. -1.
    9900012    2    1    2    0    0  0.40502052554E+01  0.16067590164E+01 -0.43181448035E+02  0.47787270841E+02  0.19999999074E+02 0.  0.
        -12    1    1    2    0    0 -0.40502052554E+01 -0.16067590164E+01  0.43181448035E+02  0.43400729159E+02  0.00000000000E+00 0.  1.
         11    1    3    3    0    0 -0.27701590080E+00  0.66770278060E+01 -0.38353744938E+02  0.38931596283E+02  0.51100000000E-03 0. -1.
        -11    1    3    3    0    0  0.41334295672E+01 -0.24933088914E+01 -0.33876933601E+01  0.58973125895E+01  0.51100000000E-03 0.  1.
         12    1    3    3    0    0  0.19379158902E+00 -0.25769598982E+01 -0.14400097367E+01  0.29583619689E+01  0.00000000000E+00 0. -1.
</event>
<event>
 7    1  0.3208917E-009  0.4778727E+02  0.7816164E-02  0.1312668E+00
        -11   -1    0    0    0    0  0.00000000000E+00  0.00000000000E+00  0.45593999997E+02  0.45594000000E+02  0.51100000000E-03 0. -1.
         11   -1    0    0    0    0 -0.00000000000E+00 -0.00000000000E+00 -0.45593999997E+02  0.45594000000E+02  0.51100000000E-03 0.  1.
    9900012    2    1    2    0    0  0.12093013999E+02 -0.35172766181E+02  0.22366463159E+02  0.47787272556E+02  0.20000006892E+02 0.  0.
        -12    1    1    2    0    0 -0.12093013999E+02  0.35172766181E+02 -0.22366463159E+02  0.43400727444E+02  0.00000000000E+00 0.  1.
         11    1    3    3    0    0  0.10870395776E+02 -0.15318372711E+02  0.13537256259E+02  0.23153301150E+02  0.51100000000E-03 0.  1.
        -11    1    3    3    0    0 -0.16130086485E+01 -0.18225190445E+02  0.10356928666E+02  0.21024398572E+02  0.51100000000E-03 0. -1.
        -12    1    3    3    0    0  0.28356268707E+01 -0.16292030247E+01 -0.15277217663E+01  0.36095728336E+01  0.00000000000E+00 0.  1.
</event>
<event>
 7    1  0.2685294E-009  0.4778727E+02  0.7816164E-02  0.1312668E+00
        -11   -1    0    0    0    0  0.00000000000E+00  0.00000000000E+00  0.45593999997E+02  0.45594000000E+02  0.51100000000E-03 0. -1.
         11   -1    0    0    0    0 -0.00000000000E+00 -0.00000000000E+00 -0.45593999997E+02  0.45594000000E+02  0.51100000000E-03 0.  1.
    9900012    2    1    2    0    0  0.32997058784E+02 -0.47695750630E+01  0.27786124060E+02  0.47787269304E+02  0.19999992066E+02 0.  0.
        -12    1    1    2    0    0 -0.32997058784E+02  0.47695750630E+01 -0.27786124060E+02  0.43400730696E+02  0.00000000000E+00 0.  1.
         11    1    3    3    0    0  0.27645804025E+02 -0.23955872578E+01  0.25540699835E+02  0.37714144122E+02  0.51100000000E-03 0. -1.
        -11    1    3    3    0    0  0.70664737082E+01 -0.26072545613E+00  0.12862013040E+01  0.71873042573E+01  0.51100000000E-03 0.  1.
         12    1    3    3    0    0 -0.17152189499E+01 -0.21132623490E+01  0.95922292088E+00  0.28858209254E+01  0.00000000000E+00 0. -1.
</event>
<event>
 7    1  0.2736713E-009  0.4778727E+02  0.7816164E-02  0.1312668E+00
        -11   -1    0    0    0    0  0.00000000000E+00  0.00000000000E+00  0.45593999997E+02  0.45594000000E+02  0.51100000000E-03 0.  1.
         11   -1    0    0    0    0 -0.00000000000E+00 -0.00000000000E+00 -0.45593999997E+02  0.45594000000E+02  0.51100000000E-03 0. -1.
    9900012    2    1    2    0    0 -0.32656438568E+02 -0.26445447311E+02 -0.10854447846E+02  0.47787266119E+02  0.19999977542E+02 0.  0.
        -12    1    1    2    0    0  0.32656438568E+02  0.26445447311E+02  0.10854447846E+02  0.43400733881E+02  0.00000000000E+00 0.  1.
         11    1    3    3    0    0 -0.24054438226E+02 -0.19395446833E+02 -0.11113310491E+02  0.32837555124E+02  0.51100000000E-03 0. -1.
        -11    1    3    3    0    0  0.65193138876E+00  0.15365308761E+01 -0.14495641485E+01  0.22106963044E+01  0.51100000000E-03 0.  1.
        -12    1    3    3    0    0 -0.92539317309E+01 -0.85865313541E+01  0.17084267930E+01  0.12739014690E+02  0.00000000000E+00 0.  1.
</event>
<event>
 7    1  0.2685294E-009  0.4778726E+02  0.7816164E-02  0.1312668E+00
        -11   -1    0    0    0    0  0.00000000000E+00  0.00000000000E+00  0.45593999997E+02  0.45594000000E+02  0.51100000000E-03 0.  1.
         11   -1    0    0    0    0 -0.00000000000E+00 -0.00000000000E+00 -0.45593999997E+02  0.45594000000E+02  0.51100000000E-03 0. -1.
    9900012    2    1    2    0    0  0.19682681825E+02  0.38561653154E+02 -0.30356451789E+01  0.47787260381E+02  0.19999951382E+02 0.  0.
        -12    1    1    2    0    0 -0.19682681825E+02 -0.38561653154E+02  0.30356451789E+01  0.43400739619E+02  0.00000000000E+00 0.  1.
         11    1    3    3    0    0  0.15461647574E+02  0.19352890239E+02 -0.45585447090E+01  0.25186846496E+02  0.51100000000E-03 0. -1.
        -11    1    3    3    0    0 -0.73771770042E+00  0.97286242175E+01  0.54837653875E+01  0.11192052522E+02  0.51100000000E-03 0.  1.
        -12    1    3    3    0    0  0.49587519517E+01  0.94801386973E+01 -0.39608658574E+01  0.11408361363E+02  0.00000000000E+00 0.  1.
</event>
<event>
 7    1  0.2685294E-009  0.4778727E+02  0.7816164E-02  0.1312668E+00
        -11   -1    0    0    0    0  0.00000000000E+00  0.00000000000E+00  0.45593999997E+02  0.45594000000E+02  0.51100000000E-03 0. -1.
         11   -1    0    0    0    0 -0.00000000000E+00 -0.00000000000E+00 -0.45593999997E+02  0.45594000000E+02  0.51100000000E-03 0.  1.
    9900012    2    1    2    0    0 -0.23324929203E+02 -0.34715142579E+02  0.11594376900E+02  0.47787273943E+02  0.20000013215E+02 0.  0.
        -12    1    1    2    0    0  0.23324929203E+02  0.34715142579E+02 -0.11594376900E+02  0.43400726057E+02  0.00000000000E+00 0.  1.
         11    1    3    3    0    0 -0.31471412576E+01 -0.17551627757E+02  0.95513623062E+01  0.20228510998E+02  0.51100000000E-03 0. -1.
        -11    1    3    3    0    0 -0.58312097800E+01 -0.11403664433E+01 -0.12040360716E+00  0.59428899042E+01  0.51100000000E-03 0.  1.
         12    1    3    3    0    0 -0.14346578165E+02 -0.16023148378E+02  0.21634182010E+01  0.21615873041E+02  0.00000000000E+00 0. -1.
</event>
<event>
 7    1  0.2685294E-009  0.4778727E+02  0.7816164E-02  0.1312668E+00
        -11   -1    0    0    0    0  0.00000000000E+00  0.00000000000E+00  0.45593999997E+02  0.45594000000E+02  0.51100000000E-03 0. -1.
         11   -1    0    0    0    0 -0.00000000000E+00 -0.00000000000E+00 -0.45593999997E+02  0.45594000000E+02  0.51100000000E-03 0.  1.
    9900012    2    1    2    0    0 -0.17970149579E+02 -0.39233783999E+02  0.46268127372E+01  0.47787268683E+02  0.19999989234E+02 0.  0.
        -12    1    1    2    0    0  0.17970149579E+02  0.39233783999E+02 -0.46268127372E+01  0.43400731317E+02  0.00000000000E+00 0.  1.
         11    1    3    3    0    0 -0.10415715750E+02 -0.75639522816E+01 -0.11831577163E+01  0.12926730876E+02  0.51100000000E-03 0. -1.
        -11    1    3    3    0    0 -0.93899229949E+01 -0.30229185139E+02  0.39963457243E+01  0.31905251409E+02  0.51100000000E-03 0.  1.
        -12    1    3    3    0    0  0.18354891657E+01 -0.14406465774E+01  0.18136247292E+01  0.29552863984E+01  0.00000000000E+00 0.  1.
</event>
<event>
 7    1  0.2685294E-009  0.4778725E+02  0.7816164E-02  0.1312668E+00
        -11   -1    0    0    0    0  0.00000000000E+00  0.00000000000E+00  0.45593999997E+02  0.45594000000E+02  0.51100000000E-03 0.  1.
         11   -1    0    0    0    0 -0.00000000000E+00 -0.00000000000E+00 -0.45593999997E+02  0.45594000000E+02  0.51100000000E-03 0. -1.
    9900012    2    1    2    0    0  0.39910205955E+01  0.17136146280E+01 -0.43182868022E+02  0.47787253335E+02  0.19999919256E+02 0.  0.
        -12    1    1    2    0    0 -0.39910205955E+01 -0.17136146280E+01  0.43182868022E+02  0.43400746665E+02  0.00000000000E+00 0.  1.
         11    1    3    3    0    0  0.77765087185E+01  0.22757106960E+01 -0.10261053210E+02  0.13074485086E+02  0.51100000000E-03 0. -1.
        -11    1    3    3    0    0 -0.35007968100E+01 -0.51571581094E+01 -0.15864395401E+02  0.17044966993E+02  0.51100000000E-03 0.  1.
         12    1    3    3    0    0 -0.28469131298E+00  0.45950620414E+01 -0.17057419410E+02  0.17667801256E+02  0.00000000000E+00 0. -1.
</event>
<event>
 7    1  0.2685294E-009  0.4778728E+02  0.7816164E-02  0.1312668E+00
        -11   -1    0    0    0    0  0.00000000000E+00  0.00000000000E+00  0.45593999997E+02  0.45594000000E+02  0.51100000000E-03 0.  1.
         11   -1    0    0    0    0 -0.00000000000E+00 -0.00000000000E+00 -0.45593999997E+02  0.45594000000E+02  0.51100000000E-03 0. -1.
    9900012    2    1    2    0    0  0.27100089179E+01 -0.39236098298E+02 -0.18352308330E+02  0.47787276746E+02  0.20000025994E+02 0.  0.
        -12    1    1    2    0    0 -0.27100089179E+01  0.39236098298E+02  0.18352308330E+02  0.43400723254E+02  0.00000000000E+00 0.  1.
         11    1    3    3    0    0 -0.63043563720E+01 -0.82531320571E+01 -0.69541249628E+01  0.12498758029E+02  0.51100000000E-03 0. -1.
        -11    1    3    3    0    0  0.45621324778E+01 -0.18122349721E+02 -0.20986891363E+01  0.18805241517E+02  0.51100000000E-03 0.  1.
         12    1    3    3    0    0  0.44522328122E+01 -0.12860616520E+02 -0.92994942308E+01  0.16483277200E+02  0.00000000000E+00 0. -1.
</event>
<event>
 7    1  0.2685294E-009  0.4778727E+02  0.7816164E-02  0.1312668E+00
        -11   -1    0    0    0    0  0.00000000000E+00  0.00000000000E+00  0.45593999997E+02  0.45594000000E+02  0.51100000000E-03 0. -1.
         11   -1    0    0    0    0 -0.00000000000E+00 -0.00000000000E+00 -0.45593999997E+02  0.45594000000E+02  0.51100000000E-03 0.  1.
    9900012    2    1    2    0    0  0.40767015801E+02  0.69784494143E+01  0.13151992185E+02  0.47787271527E+02  0.20000002202E+02 0.  0.
        -12    1    1    2    0    0 -0.40767015801E+02 -0.69784494143E+01 -0.13151992185E+02  0.43400728473E+02  0.00000000000E+00 0.  1.
         11    1    3    3    0    0  0.11782019578E+02  0.29720215932E+01  0.12554283635E+02  0.17471660927E+02  0.51100000000E-03 0. -1.
        -11    1    3    3    0    0  0.29207058061E+02  0.40596669676E+01  0.13606551667E+01  0.29519222876E+02  0.51100000000E-03 0.  1.
        -12    1    3    3    0    0 -0.22206183818E+00 -0.53239146512E-01 -0.76294661709E+00  0.79638772418E+00  0.00000000000E+00 0.  1.
</event>
<event>
 7    1  0.2685294E-009  0.4778727E+02  0.7816164E-02  0.1312668E+00
        -11   -1    0    0    0    0  0.00000000000E+00  0.00000000000E+00  0.45593999997E+02  0.45594000000E+02  0.51100000000E-03 0. -1.
         11   -1    0    0    0    0 -0.00000000000E+00 -0.00000000000E+00 -0.45593999997E+02  0.45594000000E+02  0.51100000000E-03 0.  1.
    9900012    2    1    2    0    0 -0.12932914117E+02 -0.41415900805E+02  0.10422548217E+01  0.47787269567E+02  0.19999993262E+02 0.  0.
        -12    1    1    2    0    0  0.12932914117E+02  0.41415900805E+02 -0.10422548217E+01  0.43400730433E+02  0.00000000000E+00 0.  1.
         11    1    3    3    0    0 -0.42394026582E+01 -0.16016834513E+02 -0.22258730631E+01  0.16717237627E+02  0.51100000000E-03 0. -1.
        -11    1    3    3    0    0 -0.94502637967E+01 -0.14978347013E+02 -0.42315138067E+01  0.18208900967E+02  0.51100000000E-03 0.  1.
        -12    1    3    3    0    0  0.75675233823E+00 -0.10420719278E+02  0.74996416915E+01  0.12861130972E+02  0.00000000000E+00 0.  1.
</event>
<event>
 7    1  0.2685294E-009  0.4778728E+02  0.7816164E-02  0.1312668E+00
        -11   -1    0    0    0    0  0.00000000000E+00  0.00000000000E+00  0.45593999997E+02  0.45594000000E+02  0.51100000000E-03 0.  1.
         11   -1    0    0    0    0 -0.00000000000E+00 -0.00000000000E+00 -0.45593999997E+02  0.45594000000E+02  0.51100000000E-03 0. -1.
    9900012    2    1    2    0    0 -0.55567898349E+01 -0.13394861179E+02 -0.40906266463E+02  0.47787275867E+02  0.20000021988E+02 0.  0.
        -12    1    1    2    0    0  0.55567898349E+01  0.13394861179E+02  0.40906266463E+02  0.43400724133E+02  0.00000000000E+00 0.  1.
         11    1    3    3    0    0 -0.46413392949E+01 -0.14131522620E+02 -0.25437873838E+02  0.29467395332E+02  0.51100000000E-03 0. -1.
        -11    1    3    3    0    0  0.33361075029E+01  0.21237103087E+01 -0.26935223722E+01  0.47848533704E+01  0.51100000000E-03 0.  1.
         12    1    3    3    0    0 -0.42515580429E+01 -0.13870488683E+01 -0.12774870254E+02  0.13535027165E+02  0.00000000000E+00 0. -1.
</event>
<event>
 7    1  0.2685294E-009  0.4778727E+02  0.7816164E-02  0.1312668E+00
        -11   -1    0    0    0    0  0.00000000000E+00  0.00000000000E+00  0.45593999997E+02  0.45594000000E+02  0.51100000000E-03 0.  1.
         11   -1    0    0    0    0 -0.00000000000E+00 -0.00000000000E+00 -0.45593999997E+02  0.45594000000E+02  0.51100000000E-03 0. -1.
    9900012    2    1    2    0    0  0.32905270233E+02 -0.26402006267E+02 -0.10188243633E+02  0.47787273596E+02  0.20000011634E+02 0.  0.
        -12    1    1    2    0    0 -0.32905270233E+02  0.26402006267E+02  0.10188243633E+02  0.43400726404E+02  0.00000000000E+00 0.  1.
         11    1    3    3    0    0  0.20548000732E+02 -0.11839309354E+02 -0.23334505396E+01  0.23829279715E+02  0.51100000000E-03 0. -1.
        -11    1    3    3    0    0  0.52200067104E+01 -0.13565239528E+02 -0.82996824487E+01  0.16737649850E+02  0.51100000000E-03 0.  1.
        -12    1    3    3    0    0  0.71372627910E+01 -0.99745738546E+00  0.44488935503E+00  0.72203440307E+01  0.00000000000E+00 0.  1.
</event>
<event>
 7    1  0.2685294E-009  0.4778728E+02  0.7816164E-02  0.1312668E+00
        -11   -1    0    0    0    0  0.00000000000E+00  0.00000000000E+00  0.45593999997E+02  0.45594000000E+02  0.51100000000E-03 0. -1.
         11   -1    0    0    0    0 -0.00000000000E+00 -0.00000000000E+00 -0.45593999997E+02  0.45594000000E+02  0.51100000000E-03 0.  1.
    9900012    2    1    2    0    0  0.61924673727E+01  0.42724931143E+02 -0.44560628498E+01  0.47787275473E+02  0.20000020191E+02 0.  0.
        -12    1    1    2    0    0 -0.61924673727E+01 -0.42724931143E+02  0.44560628498E+01  0.43400724527E+02  0.00000000000E+00 0.  1.
         11    1    3    3    0    0  0.42150627036E+01  0.37734849631E+02 -0.62273712789E+00  0.37974641961E+02  0.51100000000E-03 0. -1.
        -11    1    3    3    0    0  0.22991325040E+01 -0.59793129954E+00  0.84118220752E+00  0.25201428288E+01  0.51100000000E-03 0.  1.
         12    1    3    3    0    0 -0.32172783491E+00  0.55880128120E+01 -0.46745079295E+01  0.72924906836E+01  0.00000000000E+00 0. -1.
</event>
<event>
 7    1  0.2685294E-009  0.4778727E+02  0.7816164E-02  0.1312668E+00
        -11   -1    0    0    0    0  0.00000000000E+00  0.00000000000E+00  0.45593999997E+02  0.45594000000E+02  0.51100000000E-03 0.  1.
         11   -1    0    0    0    0 -0.00000000000E+00 -0.00000000000E+00 -0.45593999997E+02  0.45594000000E+02  0.51100000000E-03 0. -1.
    9900012    2    1    2    0    0 -0.32804609916E+02 -0.13313143097E+02 -0.25104601453E+02  0.47787271607E+02  0.20000002567E+02 0.  0.
        -12    1    1    2    0    0  0.32804609916E+02  0.13313143097E+02  0.25104601453E+02  0.43400728393E+02  0.00000000000E+00 0.  1.
         11    1    3    3    0    0 -0.18308427558E+02 -0.10208387246E+02 -0.84208518809E+01  0.22590273050E+02  0.51100000000E-03 0. -1.
        -11    1    3    3    0    0 -0.11159629930E+02  0.33138881236E+01 -0.99553144966E+01  0.15317554689E+02  0.51100000000E-03 0.  1.
        -12    1    3    3    0    0 -0.33365524285E+01 -0.64186439751E+01 -0.67284350758E+01  0.98794438688E+01  0.00000000000E+00 0.  1.
</event>
<event>
 7    1  0.2685294E-009  0.4778727E+02  0.7816164E-02  0.1312668E+00
        -11   -1    0    0    0    0  0.00000000000E+00  0.00000000000E+00  0.45593999997E+02  0.45594000000E+02  0.51100000000E-03 0. -1.
         11   -1    0    0    0    0 -0.00000000000E+00 -0.00000000000E+00 -0.45593999997E+02  0.45594000000E+02  0.51100000000E-03 0.  1.
    9900012    2    1    2    0    0  0.19402660865E+02 -0.18616341768E+02  0.34067463785E+02  0.47787268230E+02  0.19999987166E+02 0.  0.
        -12    1    1    2    0    0 -0.19402660865E+02  0.18616341768E+02 -0.34067463785E+02  0.43400731770E+02  0.00000000000E+00 0.  1.
         11    1    3    3    0    0  0.82944886842E+01 -0.12448307728E+02  0.26791450115E+02  0.30684535312E+02  0.51100000000E-03 0. -1.
        -11    1    3    3    0    0  0.11900950439E+02 -0.63127649171E+01  0.82819960692E+01  0.15813762405E+02  0.51100000000E-03 0.  1.
         12    1    3    3    0    0 -0.79277825868E+00  0.14473087644E+00 -0.10059823991E+01  0.12889705122E+01  0.00000000000E+00 0. -1.
</event>
<event>
 7    1  0.2685294E-009  0.4778728E+02  0.7816164E-02  0.1312668E+00
        -11   -1    0    0    0    0  0.00000000000E+00  0.00000000000E+00  0.45593999997E+02  0.45594000000E+02  0.51100000000E-03 0.  1.
         11   -1    0    0    0    0 -0.00000000000E+00 -0.00000000000E+00 -0.45593999997E+02  0.45594000000E+02  0.51100000000E-03 0. -1.
    9900012    2    1    2    0    0 -0.99571701790E+01 -0.39849339897E+02 -0.14018122490E+02  0.47787275509E+02  0.20000020356E+02 0.  0.
        -12    1    1    2    0    0  0.99571701790E+01  0.39849339897E+02  0.14018122490E+02  0.43400724491E+02  0.00000000000E+00 0.  1.
         11    1    3    3    0    0 -0.27322752390E+01 -0.11441205562E+02 -0.80574386200E+01  0.14257939194E+02  0.51100000000E-03 0. -1.
        -11    1    3    3    0    0 -0.36712404509E+01 -0.48338014218E+01  0.44382536666E+01  0.75194240806E+01  0.51100000000E-03 0.  1.
        -12    1    3    3    0    0 -0.35536544890E+01 -0.23574332914E+02 -0.10398937537E+02  0.26009912234E+02  0.00000000000E+00 0.  1.
</event>
<event>
 7    1  0.2685294E-009  0.4778728E+02  0.7816164E-02  0.1312668E+00
        -11   -1    0    0    0    0  0.00000000000E+00  0.00000000000E+00  0.45593999997E+02  0.45594000000E+02  0.51100000000E-03 0.  1.
         11   -1    0    0    0    0 -0.00000000000E+00 -0.00000000000E+00 -0.45593999997E+02  0.45594000000E+02  0.51100000000E-03 0. -1.
    9900012    2    1    2    0    0 -0.24659207427E+02 -0.35430961955E+02  0.44936699746E+01  0.47787278280E+02  0.20000032988E+02 0.  0.
        -12    1    1    2    0    0  0.24659207427E+02  0.35430961955E+02 -0.44936699746E+01  0.43400721720E+02  0.00000000000E+00 0.  1.
         11    1    3    3    0    0 -0.17611481863E+02 -0.17778074977E+02  0.88433110383E+01  0.26541069942E+02  0.51100000000E-03 0. -1.
        -11    1    3    3    0    0  0.10075529817E+01 -0.20828319327E+01  0.15095070862E+01  0.27626009077E+01  0.51100000000E-03 0.  1.
         12    1    3    3    0    0 -0.80552785457E+01 -0.15570055045E+02 -0.58591481498E+01  0.18483607429E+02  0.00000000000E+00 0. -1.
</event>
<event>
 7    1  0.2685294E-009  0.4778728E+02  0.7816164E-02  0.1312668E+00
        -11   -1    0    0    0    0  0.00000000000E+00  0.00000000000E+00  0.45593999997E+02  0.45594000000E+02  0.51100000000E-03 0.  1.
         11   -1    0    0    0    0 -0.00000000000E+00 -0.00000000000E+00 -0.45593999997E+02  0.45594000000E+02  0.51100000000E-03 0. -1.
    9900012    2    1    2    0    0 -0.14441052039E+02  0.21969270483E+01 -0.40868721961E+02  0.47787275269E+02  0.20000019259E+02 0.  0.
        -12    1    1    2    0    0  0.14441052039E+02 -0.21969270483E+01  0.40868721961E+02  0.43400724731E+02  0.00000000000E+00 0.  1.
         11    1    3    3    0    0  0.46279183713E+00 -0.35188536366E+00 -0.16847649892E+01  0.17822550108E+01  0.51100000000E-03 0. -1.
        -11    1    3    3    0    0 -0.22853271564E+01  0.82415985789E+01 -0.23898169225E+02  0.25382457720E+02  0.51100000000E-03 0.  1.
        -12    1    3    3    0    0 -0.12618516720E+02 -0.56927861670E+01 -0.15285787747E+02  0.20622562537E+02  0.00000000000E+00 0.  1.
</event>
<event>
 7    1  0.2685294E-009  0.4778727E+02  0.7816164E-02  0.1312668E+00
        -11   -1    0    0    0    0  0.00000000000E+00  0.00000000000E+00  0.45593999997E+02  0.45594000000E+02  0.51100000000E-03 0. -1.
         11   -1    0    0    0    0 -0.00000000000E+00 -0.00000000000E+00 -0.45593999997E+02  0.45594000000E+02  0.51100000000E-03 0.  1.
    9900012    2    1    2    0    0  0.64388064600E+01  0.70095619306E+01  0.42344194681E+02  0.47787274081E+02  0.20000013845E+02 0.  0.
        -12    1    1    2    0    0 -0.64388064600E+01 -0.70095619306E+01 -0.42344194681E+02  0.43400725919E+02  0.00000000000E+00 0.  1.
         11    1    3    3    0    0  0.24087060695E+01  0.97086424344E+01  0.27721253767E+02  0.29470790853E+02  0.51100000000E-03 0. -1.
        -11    1    3    3    0    0  0.38927408247E+01 -0.34931798896E+01  0.15937933569E+02  0.16774190400E+02  0.51100000000E-03 0.  1.
        -12    1    3    3    0    0  0.13735956589E+00  0.79409938580E+00 -0.13149926545E+01  0.15422928277E+01  0.00000000000E+00 0.  1.
</event>
<event>
 7    1  0.2685294E-009  0.4778727E+02  0.7816164E-02  0.1312668E+00
        -11   -1    0    0    0    0  0.00000000000E+00  0.00000000000E+00  0.45593999997E+02  0.45594000000E+02  0.51100000000E-03 0. -1.
         11   -1    0    0    0    0 -0.00000000000E+00 -0.00000000000E+00 -0.45593999997E+02  0.45594000000E+02  0.51100000000E-03 0.  1.
    9900012    2    1    2    0    0  0.26990425445E+01  0.15006382884E+02  0.40634306156E+02  0.47787271957E+02  0.20000004159E+02 0.  0.
        -12    1    1    2    0    0 -0.26990425445E+01 -0.15006382884E+02 -0.40634306156E+02  0.43400728043E+02  0.00000000000E+00 0.  1.
         11    1    3    3    0    0  0.97314237777E-01  0.16912650149E+02  0.26991738358E+02  0.31852804350E+02  0.51100000000E-03 0. -1.
        -11    1    3    3    0    0  0.27027275944E+01 -0.21258367528E+01  0.14572986583E+02  0.14973171226E+02  0.51100000000E-03 0.  1.
         12    1    3    3    0    0 -0.10099928767E+00  0.21956948787E+00 -0.93041878494E+00  0.96129638067E+00  0.00000000000E+00 0. -1.
</event>
<event>
 7    1  0.2685294E-009  0.4778728E+02  0.7816164E-02  0.1312668E+00
        -11   -1    0    0    0    0  0.00000000000E+00  0.00000000000E+00  0.45593999997E+02  0.45594000000E+02  0.51100000000E-03 0.  1.
         11   -1    0    0    0    0 -0.00000000000E+00 -0.00000000000E+00 -0.45593999997E+02  0.45594000000E+02  0.51100000000E-03 0. -1.
    9900012    2    1    2    0    0  0.27041764927E+02  0.13835498334E+02 -0.30999107211E+02  0.47787277513E+02  0.20000029492E+02 0.  0.
        -12    1    1    2    0    0 -0.27041764927E+02 -0.13835498334E+02  0.30999107211E+02  0.43400722487E+02  0.00000000000E+00 0.  1.
         11    1    3    3    0    0 -0.93702314604E-01  0.59055322187E-01  0.18921835394E+01  0.18954225024E+01  0.51100000000E-03 0.  1.
        -11    1    3    3    0    0  0.21889865802E+02  0.15093588446E+02 -0.26996423287E+02  0.37891813200E+02  0.51100000000E-03 0. -1.
         12    1    3    3    0    0  0.52456014392E+01 -0.13171454345E+01 -0.58948674638E+01  0.80000418105E+01  0.00000000000E+00 0. -1.
</event>
<event>
 7    1  0.2685294E-009  0.4778727E+02  0.7816164E-02  0.1312668E+00
        -11   -1    0    0    0    0  0.00000000000E+00  0.00000000000E+00  0.45593999997E+02  0.45594000000E+02  0.51100000000E-03 0. -1.
         11   -1    0    0    0    0 -0.00000000000E+00 -0.00000000000E+00 -0.45593999997E+02  0.45594000000E+02  0.51100000000E-03 0.  1.
    9900012    2    1    2    0    0 -0.11611566224E+02  0.41462185895E+02  0.54480958348E+01  0.47787273306E+02  0.20000010310E+02 0.  0.
        -12    1    1    2    0    0  0.11611566224E+02 -0.41462185895E+02 -0.54480958348E+01  0.43400726694E+02  0.00000000000E+00 0.  1.
         11    1    3    3    0    0 -0.57722414869E+01  0.30048101693E+02 -0.14588854852E+01  0.30632262964E+02  0.51100000000E-03 0. -1.
        -11    1    3    3    0    0 -0.65807696071E+01  0.68868788526E+01  0.79997716684E+01  0.12439130836E+02  0.51100000000E-03 0.  1.
        -12    1    3    3    0    0  0.74144487005E+00  0.45272053490E+01 -0.10927903484E+01  0.47158795057E+01  0.00000000000E+00 0.  1.
</event>
<event>
 7    1  0.2685294E-009  0.4778727E+02  0.7816164E-02  0.1312668E+00
        -11   -1    0    0    0    0  0.00000000000E+00  0.00000000000E+00  0.45593999997E+02  0.45594000000E+02  0.51100000000E-03 0. -1.
         11   -1    0    0    0    0 -0.00000000000E+00 -0.00000000000E+00 -0.45593999997E+02  0.45594000000E+02  0.51100000000E-03 0.  1.
    9900012    2    1    2    0    0  0.12461619504E+02 -0.48623832103E+00  0.41570366967E+02  0.47787265005E+02  0.19999972465E+02 0.  0.
        -12    1    1    2    0    0 -0.12461619504E+02  0.48623832103E+00 -0.41570366967E+02  0.43400734995E+02  0.00000000000E+00 0.  1.
         11    1    3    3    0    0  0.81901060495E+01  0.46499299431E+01  0.33279945899E+02  0.34586912046E+02  0.51100000000E-03 0. -1.
        -11    1    3    3    0    0  0.62708416243E+01 -0.24186086200E+01  0.43182340748E+01  0.79887588598E+01  0.51100000000E-03 0.  1.
        -12    1    3    3    0    0 -0.19993281703E+01 -0.27175596440E+01  0.39721869933E+01  0.52115940998E+01  0.00000000000E+00 0.  1.
</event>
<event>
 7    1  0.2685294E-009  0.4778727E+02  0.7816164E-02  0.1312668E+00
        -11   -1    0    0    0    0  0.00000000000E+00  0.00000000000E+00  0.45593999997E+02  0.45594000000E+02  0.51100000000E-03 0.  1.
         11   -1    0    0    0    0 -0.00000000000E+00 -0.00000000000E+00 -0.45593999997E+02  0.45594000000E+02  0.51100000000E-03 0. -1.
    9900012    2    1    2    0    0  0.13241734344E+02 -0.11489881523E+02 -0.39702168267E+02  0.47787273382E+02  0.20000010659E+02 0.  0.
        -12    1    1    2    0    0 -0.13241734344E+02  0.11489881523E+02  0.39702168267E+02  0.43400726618E+02  0.00000000000E+00 0.  1.
         11    1    3    3    0    0  0.25062792430E+01 -0.37867640035E+01 -0.50553669426E+01  0.67954214326E+01  0.51100000000E-03 0. -1.
        -11    1    3    3    0    0 -0.33280104128E+01 -0.50392525164E+01 -0.42227592010E+01  0.73689493663E+01  0.51100000000E-03 0.  1.
         12    1    3    3    0    0  0.14063465513E+02 -0.26638650031E+01 -0.30424042124E+02  0.33622902583E+02  0.00000000000E+00 0. -1.
</event>
<event>
 7    1  0.2685294E-009  0.4778728E+02  0.7816164E-02  0.1312668E+00
        -11   -1    0    0    0    0  0.00000000000E+00  0.00000000000E+00  0.45593999997E+02  0.45594000000E+02  0.51100000000E-03 0.  1.
         11   -1    0    0    0    0 -0.00000000000E+00 -0.00000000000E+00 -0.45593999997E+02  0.45594000000E+02  0.51100000000E-03 0. -1.
    9900012    2    1    2    0    0  0.61249916120E+01  0.41271943865E+02 -0.11947109716E+02  0.47787282227E+02  0.20000050987E+02 0.  0.
        -12    1    1    2    0    0 -0.61249916120E+01 -0.41271943865E+02  0.11947109716E+02  0.43400717773E+02  0.00000000000E+00 0.  1.
         11    1    3    3    0    0  0.21567856189E-01  0.43762375253E+01  0.18575539590E+01  0.47542009867E+01  0.51100000000E-03 0. -1.
        -11    1    3    3    0    0  0.82399926666E+01  0.13386431800E+02 -0.64628485292E-01  0.15719357894E+02  0.51100000000E-03 0.  1.
        -12    1    3    3    0    0 -0.21365689108E+01  0.23509274539E+02 -0.13740035189E+02  0.27313723347E+02  0.00000000000E+00 0.  1.
</event>
<event>
 7    1  0.2685294E-009  0.4778728E+02  0.7816164E-02  0.1312668E+00
        -11   -1    0    0    0    0  0.00000000000E+00  0.00000000000E+00  0.45593999997E+02  0.45594000000E+02  0.51100000000E-03 0.  1.
         11   -1    0    0    0    0 -0.00000000000E+00 -0.00000000000E+00 -0.45593999997E+02  0.45594000000E+02  0.51100000000E-03 0. -1.
    9900012    2    1    2    0    0  0.45278254476E+01 -0.42059928353E+02 -0.96996644631E+01  0.47787282644E+02  0.20000052885E+02 0.  0.
        -12    1    1    2    0    0 -0.45278254476E+01  0.42059928353E+02  0.96996644631E+01  0.43400717356E+02  0.00000000000E+00 0.  1.
         11    1    3    3    0    0  0.26933130884E+01 -0.27839277247E+01 -0.75333136871E+00  0.39460990079E+01  0.51100000000E-03 0. -1.
        -11    1    3    3    0    0  0.41413690813E+01 -0.21059088215E+02  0.33775632886E+01  0.21726575164E+02  0.51100000000E-03 0.  1.
        -12    1    3    3    0    0 -0.23068567221E+01 -0.18216912413E+02 -0.12323896383E+02  0.22114608472E+02  0.00000000000E+00 0.  1.
</event>
<event>
 7    1  0.2685294E-009  0.4778727E+02  0.7816164E-02  0.1312668E+00
        -11   -1    0    0    0    0  0.00000000000E+00  0.00000000000E+00  0.45593999997E+02  0.45594000000E+02  0.51100000000E-03 0.  1.
         11   -1    0    0    0    0 -0.00000000000E+00 -0.00000000000E+00 -0.45593999997E+02  0.45594000000E+02  0.51100000000E-03 0. -1.
    9900012    2    1    2    0    0 -0.33997787621E+02  0.67236974764E+01 -0.26125955136E+02  0.47787271865E+02  0.20000003741E+02 0.  0.
        -12    1    1    2    0    0  0.33997787621E+02 -0.67236974764E+01  0.26125955136E+02  0.43400728135E+02  0.00000000000E+00 0.  1.
         11    1    3    3    0    0 -0.79056030561E+01  0.34766386925E+01 -0.79076169632E+01  0.11709653393E+02  0.51100000000E-03 0. -1.
        -11    1    3    3    0    0 -0.40722966637E+01  0.74541045593E+01 -0.70132441652E+01  0.11015120012E+02  0.51100000000E-03 0.  1.
        -12    1    3    3    0    0 -0.22019887901E+02 -0.42070457754E+01 -0.11205094008E+02  0.25062498460E+02  0.00000000000E+00 0.  1.
</event>
<event>
 7    1  0.2685294E-009  0.4778726E+02  0.7816164E-02  0.1312668E+00
        -11   -1    0    0    0    0  0.00000000000E+00  0.00000000000E+00  0.45593999997E+02  0.45594000000E+02  0.51100000000E-03 0.  1.
         11   -1    0    0    0    0 -0.00000000000E+00 -0.00000000000E+00 -0.45593999997E+02  0.45594000000E+02  0.51100000000E-03 0. -1.
    9900012    2    1    2    0    0  0.20851055119E+02 -0.32288775747E+02 -0.20156695896E+02  0.47787263506E+02  0.19999965627E+02 0.  0.
        -12    1    1    2    0    0 -0.20851055119E+02  0.32288775747E+02  0.20156695896E+02  0.43400736494E+02  0.00000000000E+00 0.  1.
         11    1    3    3    0    0  0.32757944718E+01 -0.31910329107E+01 -0.17995084838E+01  0.49144431529E+01  0.51100000000E-03 0. -1.
        -11    1    3    3    0    0  0.17854048625E+02 -0.31441013602E+02 -0.16004096427E+02  0.39540302115E+02  0.51100000000E-03 0.  1.
        -12    1    3    3    0    0 -0.27878797740E+00  0.23432707662E+01 -0.23530909853E+01  0.33325182378E+01  0.00000000000E+00 0.  1.
</event>
<event>
 7    1  0.2685294E-009  0.4778727E+02  0.7816164E-02  0.1312668E+00
        -11   -1    0    0    0    0  0.00000000000E+00  0.00000000000E+00  0.45593999997E+02  0.45594000000E+02  0.51100000000E-03 0.  1.
         11   -1    0    0    0    0 -0.00000000000E+00 -0.00000000000E+00 -0.45593999997E+02  0.45594000000E+02  0.51100000000E-03 0. -1.
    9900012    2    1    2    0    0  0.35522988485E+02 -0.11706298155E+02  0.22015976879E+02  0.47787269991E+02  0.19999995196E+02 0.  0.
        -12    1    1    2    0    0 -0.35522988485E+02  0.11706298155E+02 -0.22015976879E+02  0.43400730009E+02  0.00000000000E+00 0.  1.
         11    1    3    3    0    0  0.15918473494E+02  0.14213149499E+01  0.61687476576E+01  0.17131006465E+02  0.51100000000E-03 0. -1.
        -11    1    3    3    0    0  0.11264043144E+02 -0.10241225548E+02  0.15643042108E+02  0.21828104254E+02  0.51100000000E-03 0.  1.
        -12    1    3    3    0    0  0.83404718465E+01 -0.28863875573E+01  0.20418711359E+00  0.88281592720E+01  0.00000000000E+00 0.  1.
</event>
<event>
 7    1  0.2685294E-009  0.4778727E+02  0.7816164E-02  0.1312668E+00
        -11   -1    0    0    0    0  0.00000000000E+00  0.00000000000E+00  0.45593999997E+02  0.45594000000E+02  0.51100000000E-03 0.  1.
         11   -1    0    0    0    0 -0.00000000000E+00 -0.00000000000E+00 -0.45593999997E+02  0.45594000000E+02  0.51100000000E-03 0. -1.
    9900012    2    1    2    0    0  0.64645110155E+01  0.15791327234E+02 -0.39905732725E+02  0.47787269329E+02  0.19999992179E+02 0.  0.
        -12    1    1    2    0    0 -0.64645110155E+01 -0.15791327234E+02  0.39905732725E+02  0.43400730671E+02  0.00000000000E+00 0.  1.
         11    1    3    3    0    0  0.18117199158E+01  0.15946294441E+02 -0.21726152943E+02  0.27010967354E+02  0.51100000000E-03 0.  1.
        -11    1    3    3    0    0  0.12604826157E+01  0.18537853399E+01 -0.70277523914E-01  0.22428276132E+01  0.51100000000E-03 0. -1.
         12    1    3    3    0    0  0.33923084840E+01 -0.20087525469E+01 -0.18109302258E+02  0.18533474362E+02  0.00000000000E+00 0. -1.
</event>
<event>
 7    1  0.2685294E-009  0.4778727E+02  0.7816164E-02  0.1312668E+00
        -11   -1    0    0    0    0  0.00000000000E+00  0.00000000000E+00  0.45593999997E+02  0.45594000000E+02  0.51100000000E-03 0. -1.
         11   -1    0    0    0    0 -0.00000000000E+00 -0.00000000000E+00 -0.45593999997E+02  0.45594000000E+02  0.51100000000E-03 0.  1.
    9900012    2    1    2    0    0  0.20579838903E+02  0.28731987148E+02  0.25190602820E+02  0.47787270453E+02  0.19999997305E+02 0.  0.
        -12    1    1    2    0    0 -0.20579838903E+02 -0.28731987148E+02 -0.25190602820E+02  0.43400729547E+02  0.00000000000E+00 0.  1.
         11    1    3    3    0    0  0.14286867800E+02  0.17794450093E+02  0.21356770629E+02  0.31254898778E+02  0.51100000000E-03 0. -1.
        -11    1    3    3    0    0  0.66532786949E+01  0.64184846348E+01 -0.16780339037E+01  0.93956830748E+01  0.51100000000E-03 0.  1.
        -12    1    3    3    0    0 -0.36030759213E+00  0.45190524196E+01  0.55118660955E+01  0.71366886010E+01  0.00000000000E+00 0.  1.
</event>
<event>
 7    1  0.2685294E-009  0.4778727E+02  0.7816164E-02  0.1312668E+00
        -11   -1    0    0    0    0  0.00000000000E+00  0.00000000000E+00  0.45593999997E+02  0.45594000000E+02  0.51100000000E-03 0.  1.
         11   -1    0    0    0    0 -0.00000000000E+00 -0.00000000000E+00 -0.45593999997E+02  0.45594000000E+02  0.51100000000E-03 0. -1.
    9900012    2    1    2    0    0  0.39535709032E+02 -0.11341778898E+02 -0.13853356604E+02  0.47787265831E+02  0.19999976229E+02 0.  0.
        -12    1    1    2    0    0 -0.39535709032E+02  0.11341778898E+02  0.13853356604E+02  0.43400734169E+02  0.00000000000E+00 0.  1.
         11    1    3    3    0    0  0.81131087768E+01 -0.36264118641E+00 -0.10024775060E+02  0.12901556415E+02  0.51100000000E-03 0. -1.
        -11    1    3    3    0    0  0.31623889022E+02 -0.11056879535E+02 -0.25598688132E+01  0.33598777813E+02  0.51100000000E-03 0.  1.
        -12    1    3    3    0    0 -0.20128876665E+00  0.77741823081E-01 -0.12687127312E+01  0.12869316038E+01  0.00000000000E+00 0.  1.
</event>
<event>
 7    1  0.2685294E-009  0.4778727E+02  0.7816164E-02  0.1312668E+00
        -11   -1    0    0    0    0  0.00000000000E+00  0.00000000000E+00  0.45593999997E+02  0.45594000000E+02  0.51100000000E-03 0.  1.
         11   -1    0    0    0    0 -0.00000000000E+00 -0.00000000000E+00 -0.45593999997E+02  0.45594000000E+02  0.51100000000E-03 0. -1.
    9900012    2    1    2    0    0 -0.17458547824E+02 -0.28990594909E+00 -0.39733340247E+02  0.47787271149E+02  0.20000000477E+02 0.  0.
        -12    1    1    2    0    0  0.17458547824E+02  0.28990594909E+00  0.39733340247E+02  0.43400728851E+02  0.00000000000E+00 0.  1.
         11    1    3    3    0    0 -0.19209923699E+02 -0.11179410553E+01 -0.20515570434E+02  0.28127559283E+02  0.51100000000E-03 0. -1.
        -11    1    3    3    0    0  0.71737135012E+00  0.63662694320E+00 -0.18098695484E+02  0.18124091536E+02  0.51100000000E-03 0.  1.
         12    1    3    3    0    0  0.10340045251E+01  0.19140816304E+00 -0.11190743294E+01  0.15356203299E+01  0.00000000000E+00 0. -1.
</event>
<event>
 7    1  0.2685294E-009  0.4778728E+02  0.7816164E-02  0.1312668E+00
        -11   -1    0    0    0    0  0.00000000000E+00  0.00000000000E+00  0.45593999997E+02  0.45594000000E+02  0.51100000000E-03 0.  1.
         11   -1    0    0    0    0 -0.00000000000E+00 -0.00000000000E+00 -0.45593999997E+02  0.45594000000E+02  0.51100000000E-03 0. -1.
    9900012    2    1    2    0    0 -0.21736894774E+02 -0.37385946677E+02 -0.36633986063E+01  0.47787284652E+02  0.20000062044E+02 0.  0.
        -12    1    1    2    0    0  0.21736894774E+02  0.37385946677E+02  0.36633986063E+01  0.43400715348E+02  0.00000000000E+00 0.  1.
         11    1    3    3    0    0  0.24521109409E+01 -0.20758576233E+00  0.34676000865E-01  0.24611262871E+01  0.51100000000E-03 0. -1.
        -11    1    3    3    0    0 -0.13405649731E+02 -0.14180647054E+02 -0.40194913568E+01  0.19923817571E+02  0.51100000000E-03 0.  1.
         12    1    3    3    0    0 -0.10783355984E+02 -0.22997713860E+02  0.32141674960E+00  0.25402340794E+02  0.00000000000E+00 0. -1.
</event>
<event>
 7    1  0.2685294E-009  0.4778727E+02  0.7816164E-02  0.1312668E+00
        -11   -1    0    0    0    0  0.00000000000E+00  0.00000000000E+00  0.45593999997E+02  0.45594000000E+02  0.51100000000E-03 0.  1.
         11   -1    0    0    0    0 -0.00000000000E+00 -0.00000000000E+00 -0.45593999997E+02  0.45594000000E+02  0.51100000000E-03 0. -1.
    9900012    2    1    2    0    0  0.30530545250E+02  0.22262515673E+01 -0.30766100527E+02  0.47787270388E+02  0.19999997005E+02 0.  0.
        -12    1    1    2    0    0 -0.30530545250E+02 -0.22262515673E+01  0.30766100527E+02  0.43400729612E+02  0.00000000000E+00 0.  1.
         11    1    3    3    0    0  0.14875569955E+01 -0.43443842073E+01 -0.83353486710E+01  0.95165402160E+01  0.51100000000E-03 0.  1.
        -11    1    3    3    0    0  0.17589697531E+02  0.22051779369E+01 -0.83286342554E+01  0.19586383479E+02  0.51100000000E-03 0. -1.
         12    1    3    3    0    0  0.11453290724E+02  0.43654578377E+01 -0.14102117600E+02  0.18684346693E+02  0.00000000000E+00 0. -1.
</event>
<event>
 7    1  0.2685294E-009  0.4778727E+02  0.7816164E-02  0.1312668E+00
        -11   -1    0    0    0    0  0.00000000000E+00  0.00000000000E+00  0.45593999997E+02  0.45594000000E+02  0.51100000000E-03 0.  1.
         11   -1    0    0    0    0 -0.00000000000E+00 -0.00000000000E+00 -0.45593999997E+02  0.45594000000E+02  0.51100000000E-03 0. -1.
    9900012    2    1    2    0    0 -0.16427471001E+01 -0.29989139282E+02 -0.31330113928E+02  0.47787272683E+02  0.20000007470E+02 0.  0.
        -12    1    1    2    0    0  0.16427471001E+01  0.29989139282E+02  0.31330113928E+02  0.43400727317E+02  0.00000000000E+00 0.  1.
         11    1    3    3    0    0 -0.89649254922E+01 -0.16247536524E+02 -0.21094288598E+02  0.28094863301E+02  0.51100000000E-03 0. -1.
        -11    1    3    3    0    0  0.59327630276E+01 -0.56633531848E+01 -0.73170579083E+01  0.10991386770E+02  0.51100000000E-03 0.  1.
        -12    1    3    3    0    0  0.13894153645E+01 -0.80782495733E+01 -0.29187674210E+01  0.87010226113E+01  0.00000000000E+00 0.  1.
</event>
<event>
 7    1  0.2685294E-009  0.4778726E+02  0.7816164E-02  0.1312668E+00
        -11   -1    0    0    0    0  0.00000000000E+00  0.00000000000E+00  0.45593999997E+02  0.45594000000E+02  0.51100000000E-03 0. -1.
         11   -1    0    0    0    0 -0.00000000000E+00 -0.00000000000E+00 -0.45593999997E+02  0.45594000000E+02  0.51100000000E-03 0.  1.
    9900012    2    1    2    0    0  0.39053190144E+02 -0.17789052602E+02 -0.64824438535E+01  0.47787261168E+02  0.19999954968E+02 0.  0.
        -12    1    1    2    0    0 -0.39053190144E+02  0.17789052602E+02  0.64824438535E+01  0.43400738832E+02  0.00000000000E+00 0.  1.
         11    1    3    3    0    0 -0.56837029041E+00 -0.37461214230E+00 -0.29621446083E+00  0.74237612576E+00  0.51100000000E-03 0.  1.
        -11    1    3    3    0    0  0.18765651638E+02 -0.16416702220E+02 -0.77415766662E+01  0.26107274900E+02  0.51100000000E-03 0. -1.
        -12    1    3    3    0    0  0.20855908797E+02 -0.99773823960E+00  0.15553472735E+01  0.20937610142E+02  0.00000000000E+00 0.  1.
</event>
<event>
 7    1  0.2685294E-009  0.4778727E+02  0.7816164E-02  0.1312668E+00
        -11   -1    0    0    0    0  0.00000000000E+00  0.00000000000E+00  0.45593999997E+02  0.45594000000E+02  0.51100000000E-03 0. -1.
         11   -1    0    0    0    0 -0.00000000000E+00 -0.00000000000E+00 -0.45593999997E+02  0.45594000000E+02  0.51100000000E-03 0.  1.
    9900012    2    1    2    0    0  0.64839055755E+01 -0.13626325455E+02  0.40692818045E+02  0.47787271696E+02  0.20000002970E+02 0.  0.
        -12    1    1    2    0    0 -0.64839055755E+01  0.13626325455E+02 -0.40692818045E+02  0.43400728304E+02  0.00000000000E+00 0.  1.
         11    1    3    3    0    0  0.38555279123E+01 -0.87964692213E+01  0.12305961718E+02  0.15610242160E+02  0.51100000000E-03 0. -1.
        -11    1    3    3    0    0  0.31733996208E+01  0.45733591842E+01  0.83314761130E+01  0.10019958776E+02  0.51100000000E-03 0.  1.
        -12    1    3    3    0    0 -0.54502195754E+00 -0.94032154180E+01  0.20055380214E+02  0.22157070760E+02  0.00000000000E+00 0.  1.
</event>
<event>
 7    1  0.2685294E-009  0.4778727E+02  0.7816164E-02  0.1312668E+00
        -11   -1    0    0    0    0  0.00000000000E+00  0.00000000000E+00  0.45593999997E+02  0.45594000000E+02  0.51100000000E-03 0.  1.
         11   -1    0    0    0    0 -0.00000000000E+00 -0.00000000000E+00 -0.45593999997E+02  0.45594000000E+02  0.51100000000E-03 0. -1.
    9900012    2    1    2    0    0  0.13013636031E+02  0.40932566269E+02 -0.62284821333E+01  0.47787266206E+02  0.19999977941E+02 0.  0.
        -12    1    1    2    0    0 -0.13013636031E+02 -0.40932566269E+02  0.62284821333E+01  0.43400733794E+02  0.00000000000E+00 0.  1.
         11    1    3    3    0    0  0.81770048243E+01  0.14391866378E+02  0.11033496214E+01  0.16589352199E+02  0.51100000000E-03 0. -1.
        -11    1    3    3    0    0  0.71164923085E+01  0.60301080809E+01 -0.92888769059E-01  0.93281989060E+01  0.51100000000E-03 0.  1.
        -12    1    3    3    0    0 -0.22798611019E+01  0.20510591811E+02 -0.72389429856E+01  0.21869715101E+02  0.00000000000E+00 0.  1.
</event>
<event>
 7    1  0.2685294E-009  0.4778726E+02  0.7816164E-02  0.1312668E+00
        -11   -1    0    0    0    0  0.00000000000E+00  0.00000000000E+00  0.45593999997E+02  0.45594000000E+02  0.51100000000E-03 0.  1.
         11   -1    0    0    0    0 -0.00000000000E+00 -0.00000000000E+00 -0.45593999997E+02  0.45594000000E+02  0.51100000000E-03 0. -1.
    9900012    2    1    2    0    0 -0.97868049703E+01  0.42224907884E+02  0.22136550072E+01  0.47787255009E+02  0.19999926887E+02 0.  0.
        -12    1    1    2    0    0  0.97868049703E+01 -0.42224907884E+02 -0.22136550072E+01  0.43400744991E+02  0.00000000000E+00 0.  1.
         11    1    3    3    0    0 -0.11107338612E+02  0.14428528236E+02  0.38882569603E+00  0.18212813725E+02  0.51100000000E-03 0. -1.
        -11    1    3    3    0    0  0.11975907694E+00  0.26315964452E+02  0.40701347307E+01  0.26629125488E+02  0.51100000000E-03 0.  1.
        -12    1    3    3    0    0  0.12007745650E+01  0.14804151953E+01 -0.22453054195E+01  0.29453157952E+01  0.00000000000E+00 0.  1.
</event>
<event>
 7    1  0.2685294E-009  0.4778727E+02  0.7816164E-02  0.1312668E+00
        -11   -1    0    0    0    0  0.00000000000E+00  0.00000000000E+00  0.45593999997E+02  0.45594000000E+02  0.51100000000E-03 0. -1.
         11   -1    0    0    0    0 -0.00000000000E+00 -0.00000000000E+00 -0.45593999997E+02  0.45594000000E+02  0.51100000000E-03 0.  1.
    9900012    2    1    2    0    0 -0.34443778825E+02  0.51040151847E+00  0.26400550524E+02  0.47787268699E+02  0.19999989307E+02 0.  0.
        -12    1    1    2    0    0  0.34443778825E+02 -0.51040151847E+00 -0.26400550524E+02  0.43400731301E+02  0.00000000000E+00 0.  1.
         11    1    3    3    0    0 -0.20198835149E+02  0.43703136907E+01  0.71539818840E+01  0.21869431638E+02  0.51100000000E-03 0. -1.
        -11    1    3    3    0    0 -0.82459306330E+00 -0.38298276846E+01  0.48831863224E+01  0.62604347081E+01  0.51100000000E-03 0.  1.
        -12    1    3    3    0    0 -0.13420350614E+02 -0.30084487619E-01  0.14363382318E+02  0.19657402353E+02  0.00000000000E+00 0.  1.
</event>
<event>
 7    1  0.2685294E-009  0.4778727E+02  0.7816164E-02  0.1312668E+00
        -11   -1    0    0    0    0  0.00000000000E+00  0.00000000000E+00  0.45593999997E+02  0.45594000000E+02  0.51100000000E-03 0.  1.
         11   -1    0    0    0    0 -0.00000000000E+00 -0.00000000000E+00 -0.45593999997E+02  0.45594000000E+02  0.51100000000E-03 0. -1.
    9900012    2    1    2    0    0  0.18152446863E+02 -0.80593192773E+01 -0.38589627301E+02  0.47787270864E+02  0.19999999177E+02 0.  0.
        -12    1    1    2    0    0 -0.18152446863E+02  0.80593192773E+01  0.38589627301E+02  0.43400729136E+02  0.00000000000E+00 0.  1.
         11    1    3    3    0    0  0.19597101296E+01 -0.91652068179E+01 -0.18843518367E+02  0.21045656666E+02  0.51100000000E-03 0. -1.
        -11    1    3    3    0    0  0.95477744209E+01  0.32293772711E+01 -0.72005147349E+01  0.12386940165E+02  0.51100000000E-03 0.  1.
         12    1    3    3    0    0  0.66449623125E+01 -0.21234897306E+01 -0.12545594199E+02  0.14354674032E+02  0.00000000000E+00 0. -1.
</event>
<event>
 7    1  0.2685294E-009  0.4778727E+02  0.7816164E-02  0.1312668E+00
        -11   -1    0    0    0    0  0.00000000000E+00  0.00000000000E+00  0.45593999997E+02  0.45594000000E+02  0.51100000000E-03 0.  1.
         11   -1    0    0    0    0 -0.00000000000E+00 -0.00000000000E+00 -0.45593999997E+02  0.45594000000E+02  0.51100000000E-03 0. -1.
    9900012    2    1    2    0    0  0.36450620032E+02  0.16934364338E+02 -0.16376905501E+02  0.47787269245E+02  0.19999991795E+02 0.  0.
        -12    1    1    2    0    0 -0.36450620032E+02 -0.16934364338E+02  0.16376905501E+02  0.43400730755E+02  0.00000000000E+00 0.  1.
         11    1    3    3    0    0 -0.21444776664E+01  0.28522016869E+00 -0.28118132886E+01  0.35477357902E+01  0.51100000000E-03 0.  1.
        -11    1    3    3    0    0  0.31441677014E+02  0.12529820433E+02 -0.11233786897E+02  0.35661932391E+02  0.51100000000E-03 0. -1.
        -12    1    3    3    0    0  0.71534206845E+01  0.41193237359E+01 -0.23313053157E+01  0.85776010636E+01  0.00000000000E+00 0.  1.
</event>
<event>
 7    1  0.2685294E-009  0.4778728E+02  0.7816164E-02  0.1312668E+00
        -11   -1    0    0    0    0  0.00000000000E+00  0.00000000000E+00  0.45593999997E+02  0.45594000000E+02  0.51100000000E-03 0. -1.
         11   -1    0    0    0    0 -0.00000000000E+00 -0.00000000000E+00 -0.45593999997E+02  0.45594000000E+02  0.51100000000E-03 0.  1.
    9900012    2    1    2    0    0  0.13510705462E+02  0.10579408700E+02  0.39864267953E+02  0.47787275237E+02  0.20000019115E+02 0.  0.
        -12    1    1    2    0    0 -0.13510705462E+02 -0.10579408700E+02 -0.39864267953E+02  0.43400724763E+02  0.00000000000E+00 0.  1.
         11    1    3    3    0    0  0.38256310694E+01 -0.32253688385E+01  0.88127660335E+00  0.50808568113E+01  0.51100000000E-03 0. -1.
        -11    1    3    3    0    0  0.55732892910E+01  0.99471538949E+01  0.21493318452E+02  0.24330436956E+02  0.51100000000E-03 0.  1.
         12    1    3    3    0    0  0.41117851017E+01  0.38576236434E+01  0.17489672897E+02  0.18375981469E+02  0.00000000000E+00 0. -1.
</event>
<event>
 7    1  0.2685294E-009  0.4778725E+02  0.7816164E-02  0.1312668E+00
        -11   -1    0    0    0    0  0.00000000000E+00  0.00000000000E+00  0.45593999997E+02  0.45594000000E+02  0.51100000000E-03 0. -1.
         11   -1    0    0    0    0 -0.00000000000E+00 -0.00000000000E+00 -0.45593999997E+02  0.45594000000E+02  0.51100000000E-03 0.  1.
    9900012    2    1    2    0    0 -0.18891947819E+01 -0.34758165264E+02  0.25921539697E+02  0.47787247360E+02  0.19999892012E+02 0.  0.
        -12    1    1    2    0    0  0.18891947819E+01  0.34758165264E+02 -0.25921539697E+02  0.43400752640E+02  0.00000000000E+00 0.  1.
         11    1    3    3    0    0 -0.64547375964E+01 -0.20520818496E+02  0.87967003332E+01  0.23241118006E+02  0.51100000000E-03 0. -1.
        -11    1    3    3    0    0  0.47484918132E+01 -0.14444842759E+02  0.18038132439E+02  0.23591860439E+02  0.51100000000E-03 0.  1.
         12    1    3    3    0    0 -0.18294899875E+00  0.20749599006E+00 -0.91329307465E+00  0.95426891505E+00  0.00000000000E+00 0. -1.
</event>
<event>
 7    1  0.2685294E-009  0.4778727E+02  0.7816164E-02  0.1312668E+00
        -11   -1    0    0    0    0  0.00000000000E+00  0.00000000000E+00  0.45593999997E+02  0.45594000000E+02  0.51100000000E-03 0.  1.
         11   -1    0    0    0    0 -0.00000000000E+00 -0.00000000000E+00 -0.45593999997E+02  0.45594000000E+02  0.51100000000E-03 0. -1.
    9900012    2    1    2    0    0 -0.74141459858E+01  0.37627255416E+02 -0.20318544739E+02  0.47787272228E+02  0.20000005396E+02 0.  0.
        -12    1    1    2    0    0  0.74141459858E+01 -0.37627255416E+02  0.20318544739E+02  0.43400727772E+02  0.00000000000E+00 0.  1.
         11    1    3    3    0    0  0.10387259457E+01  0.10845400844E+02  0.22890366483E+01  0.11132895405E+02  0.51100000000E-03 0. -1.
        -11    1    3    3    0    0 -0.26448016744E+01  0.67996954719E+01 -0.98073106556E+01  0.12223509192E+02  0.51100000000E-03 0.  1.
         12    1    3    3    0    0 -0.58080702571E+01  0.19982159100E+02 -0.12800270732E+02  0.24430867631E+02  0.00000000000E+00 0. -1.
</event>
<event>
 7    1  0.2685294E-009  0.4778727E+02  0.7816164E-02  0.1312668E+00
        -11   -1    0    0    0    0  0.00000000000E+00  0.00000000000E+00  0.45593999997E+02  0.45594000000E+02  0.51100000000E-03 0.  1.
         11   -1    0    0    0    0 -0.00000000000E+00 -0.00000000000E+00 -0.45593999997E+02  0.45594000000E+02  0.51100000000E-03 0. -1.
    9900012    2    1    2    0    0 -0.37469784428E+02  0.19996464493E+02 -0.89319673557E+01  0.47787269843E+02  0.19999994522E+02 0.  0.
        -12    1    1    2    0    0  0.37469784428E+02 -0.19996464493E+02  0.89319673557E+01  0.43400730157E+02  0.00000000000E+00 0.  1.
         11    1    3    3    0    0 -0.17380899937E+02  0.14514852025E+02 -0.12944067245E+01  0.22681536565E+02  0.51100000000E-03 0. -1.
        -11    1    3    3    0    0 -0.26713342901E+01 -0.34186642857E+01 -0.17594968575E+01  0.46817861806E+01  0.51100000000E-03 0.  1.
        -12    1    3    3    0    0 -0.17417550201E+02  0.89002767529E+01 -0.58780637737E+01  0.20423947097E+02  0.00000000000E+00 0.  1.
</event>
<event>
 7    1  0.2685294E-009  0.4778727E+02  0.7816164E-02  0.1312668E+00
        -11   -1    0    0    0    0  0.00000000000E+00  0.00000000000E+00  0.45593999997E+02  0.45594000000E+02  0.51100000000E-03 0.  1.
         11   -1    0    0    0    0 -0.00000000000E+00 -0.00000000000E+00 -0.45593999997E+02  0.45594000000E+02  0.51100000000E-03 0. -1.
    9900012    2    1    2    0    0  0.35037056251E+02  0.18662784087E+02 -0.17542191222E+02  0.47787270818E+02  0.19999998969E+02 0.  0.
        -12    1    1    2    0    0 -0.35037056251E+02 -0.18662784087E+02  0.17542191222E+02  0.43400729182E+02  0.00000000000E+00 0.  1.
         11    1    3    3    0    0 -0.22005185202E+01  0.10730672744E+01 -0.29374564836E+01  0.38239254683E+01  0.51100000000E-03 0. -1.
        -11    1    3    3    0    0  0.25084102933E+02  0.13126613003E+02 -0.79500444739E+01  0.29406179559E+02  0.51100000000E-03 0.  1.
         12    1    3    3    0    0  0.12153471838E+02  0.44631038094E+01 -0.66546902647E+01  0.14557165791E+02  0.00000000000E+00 0. -1.
</event>
<event>
 7    1  0.2685294E-009  0.4778726E+02  0.7816164E-02  0.1312668E+00
        -11   -1    0    0    0    0  0.00000000000E+00  0.00000000000E+00  0.45593999997E+02  0.45594000000E+02  0.51100000000E-03 0.  1.
         11   -1    0    0    0    0 -0.00000000000E+00 -0.00000000000E+00 -0.45593999997E+02  0.45594000000E+02  0.51100000000E-03 0. -1.
    9900012    2    1    2    0    0 -0.18365391335E+02  0.64222228568E+01 -0.38795508086E+02  0.47787262761E+02  0.19999962231E+02 0.  0.
        -12    1    1    2    0    0  0.18365391335E+02 -0.64222228568E+01  0.38795508086E+02  0.43400737239E+02  0.00000000000E+00 0.  1.
         11    1    3    3    0    0 -0.11633762416E+02 -0.35394212671E+01 -0.23340608049E+02  0.26318357001E+02  0.51100000000E-03 0. -1.
        -11    1    3    3    0    0 -0.23929842031E+01  0.42321576368E+01 -0.51347196225E+00  0.48888838579E+01  0.51100000000E-03 0.  1.
         12    1    3    3    0    0 -0.43386447152E+01  0.57294864870E+01 -0.14941428074E+02  0.16580021902E+02  0.00000000000E+00 0. -1.
</event>
<event>
 7    1  0.2685294E-009  0.4778728E+02  0.7816164E-02  0.1312668E+00
        -11   -1    0    0    0    0  0.00000000000E+00  0.00000000000E+00  0.45593999997E+02  0.45594000000E+02  0.51100000000E-03 0. -1.
         11   -1    0    0    0    0 -0.00000000000E+00 -0.00000000000E+00 -0.45593999997E+02  0.45594000000E+02  0.51100000000E-03 0.  1.
    9900012    2    1    2    0    0  0.53857361955E+01  0.80230242767E+01  0.42311319466E+02  0.47787276182E+02  0.20000023426E+02 0.  0.
        -12    1    1    2    0    0 -0.53857361955E+01 -0.80230242767E+01 -0.42311319466E+02  0.43400723818E+02  0.00000000000E+00 0.  1.
         11    1    3    3    0    0  0.16690252690E+01 -0.29788071518E+01  0.27926521771E+02  0.28134490504E+02  0.51100000000E-03 0. -1.
        -11    1    3    3    0    0  0.19444590129E+01  0.22795418203E+01  0.32665344941E+00  0.30139566189E+01  0.51100000000E-03 0.  1.
         12    1    3    3    0    0  0.17722519136E+01  0.87222896082E+01  0.14058144246E+02  0.16638829060E+02  0.00000000000E+00 0. -1.
</event>
<event>
 7    1  0.2685294E-009  0.4778728E+02  0.7816164E-02  0.1312668E+00
        -11   -1    0    0    0    0  0.00000000000E+00  0.00000000000E+00  0.45593999997E+02  0.45594000000E+02  0.51100000000E-03 0. -1.
         11   -1    0    0    0    0 -0.00000000000E+00 -0.00000000000E+00 -0.45593999997E+02  0.45594000000E+02  0.51100000000E-03 0.  1.
    9900012    2    1    2    0    0 -0.31160412956E+02 -0.17004805952E+02  0.24969740460E+02  0.47787277660E+02  0.20000030162E+02 0.  0.
        -12    1    1    2    0    0  0.31160412956E+02  0.17004805952E+02 -0.24969740460E+02  0.43400722340E+02  0.00000000000E+00 0.  1.
         11    1    3    3    0    0 -0.24659377483E+02 -0.21424980807E+02  0.19712312185E+02  0.38153505112E+02  0.51100000000E-03 0. -1.
        -11    1    3    3    0    0 -0.27460988608E+01  0.27902944871E+01  0.19641286378E+01  0.43800232699E+01  0.51100000000E-03 0.  1.
         12    1    3    3    0    0 -0.37549366118E+01  0.16298803677E+01  0.32932996372E+01  0.52537492776E+01  0.00000000000E+00 0. -1.
</event>
<event>
 7    1  0.2685294E-009  0.4778727E+02  0.7816164E-02  0.1312668E+00
        -11   -1    0    0    0    0  0.00000000000E+00  0.00000000000E+00  0.45593999997E+02  0.45594000000E+02  0.51100000000E-03 0. -1.
         11   -1    0    0    0    0 -0.00000000000E+00 -0.00000000000E+00 -0.45593999997E+02  0.45594000000E+02  0.51100000000E-03 0.  1.
    9900012    2    1    2    0    0 -0.17990547007E+02 -0.30284183836E+02  0.25354119417E+02  0.47787274849E+02  0.20000017346E+02 0.  0.
        -12    1    1    2    0    0  0.17990547007E+02  0.30284183836E+02 -0.25354119417E+02  0.43400725151E+02  0.00000000000E+00 0.  1.
         11    1    3    3    0    0 -0.16067867275E+02 -0.10211942475E+02  0.83840156948E+01  0.20802688464E+02  0.51100000000E-03 0. -1.
        -11    1    3    3    0    0  0.59671075268E+00 -0.14036752228E+02  0.90447589129E+01  0.16709103533E+02  0.51100000000E-03 0.  1.
         12    1    3    3    0    0 -0.25193904842E+01 -0.60354891336E+01  0.79253448093E+01  0.10275482852E+02  0.00000000000E+00 0. -1.
</event>
<event>
 7    1  0.2685294E-009  0.4778727E+02  0.7816164E-02  0.1312668E+00
        -11   -1    0    0    0    0  0.00000000000E+00  0.00000000000E+00  0.45593999997E+02  0.45594000000E+02  0.51100000000E-03 0.  1.
         11   -1    0    0    0    0 -0.00000000000E+00 -0.00000000000E+00 -0.45593999997E+02  0.45594000000E+02  0.51100000000E-03 0. -1.
    9900012    2    1    2    0    0  0.18912272010E+02  0.86088325946E+01 -0.38102988910E+02  0.47787265040E+02  0.19999972621E+02 0.  0.
        -12    1    1    2    0    0 -0.18912272010E+02 -0.86088325946E+01  0.38102988910E+02  0.43400734960E+02  0.00000000000E+00 0.  1.
         11    1    3    3    0    0 -0.21876682167E+01  0.19558300281E+01 -0.51372766790E+01  0.59163143310E+01  0.51100000000E-03 0. -1.
        -11    1    3    3    0    0  0.18990298393E+02  0.95594007967E+01 -0.31474466342E+02  0.37982306518E+02  0.51100000000E-03 0.  1.
        -12    1    3    3    0    0  0.21096418335E+01 -0.29063982302E+01 -0.14912458889E+01  0.38886441904E+01  0.00000000000E+00 0.  1.
</event>
<event>
 7    1  0.2685294E-009  0.4778727E+02  0.7816164E-02  0.1312668E+00
        -11   -1    0    0    0    0  0.00000000000E+00  0.00000000000E+00  0.45593999997E+02  0.45594000000E+02  0.51100000000E-03 0.  1.
         11   -1    0    0    0    0 -0.00000000000E+00 -0.00000000000E+00 -0.45593999997E+02  0.45594000000E+02  0.51100000000E-03 0. -1.
    9900012    2    1    2    0    0 -0.31010529855E+02 -0.15189811330E+02 -0.26291441773E+02  0.47787271428E+02  0.20000001747E+02 0.  0.
        -12    1    1    2    0    0  0.31010529855E+02  0.15189811330E+02  0.26291441773E+02  0.43400728572E+02  0.00000000000E+00 0.  1.
         11    1    3    3    0    0 -0.22367640430E+02 -0.12930394393E+02 -0.17351068145E+02  0.31121793065E+02  0.51100000000E-03 0. -1.
        -11    1    3    3    0    0  0.23630827994E+01  0.93511471618E+00 -0.10397872606E+01  0.27458619153E+01  0.51100000000E-03 0.  1.
        -12    1    3    3    0    0 -0.11005972224E+02 -0.31945316539E+01 -0.79005863668E+01  0.13919616447E+02  0.00000000000E+00 0.  1.
</event>
<event>
 7    1  0.2685294E-009  0.4778728E+02  0.7816164E-02  0.1312668E+00
        -11   -1    0    0    0    0  0.00000000000E+00  0.00000000000E+00  0.45593999997E+02  0.45594000000E+02  0.51100000000E-03 0.  1.
         11   -1    0    0    0    0 -0.00000000000E+00 -0.00000000000E+00 -0.45593999997E+02  0.45594000000E+02  0.51100000000E-03 0. -1.
    9900012    2    1    2    0    0  0.15736991937E+02  0.20921693126E+01 -0.40392976173E+02  0.47787278672E+02  0.20000034776E+02 0.  0.
        -12    1    1    2    0    0 -0.15736991937E+02 -0.20921693126E+01  0.40392976173E+02  0.43400721328E+02  0.00000000000E+00 0.  1.
         11    1    3    3    0    0  0.15925439260E+02 -0.69970790182E+00 -0.28668946334E+02  0.32802708591E+02  0.51100000000E-03 0. -1.
        -11    1    3    3    0    0 -0.36260079806E+01  0.42597125655E+01 -0.70531510115E+01  0.90022233070E+01  0.51100000000E-03 0.  1.
        -12    1    3    3    0    0  0.34375606575E+01 -0.14678353511E+01 -0.46708788282E+01  0.59823467736E+01  0.00000000000E+00 0.  1.
</event>
<event>
 7    1  0.2685294E-009  0.4778727E+02  0.7816164E-02  0.1312668E+00
        -11   -1    0    0    0    0  0.00000000000E+00  0.00000000000E+00  0.45593999997E+02  0.45594000000E+02  0.51100000000E-03 0. -1.
         11   -1    0    0    0    0 -0.00000000000E+00 -0.00000000000E+00 -0.45593999997E+02  0.45594000000E+02  0.51100000000E-03 0.  1.
    9900012    2    1    2    0    0  0.38457012188E+02 -0.19253807009E+02 -0.58286167860E+01  0.47787266775E+02  0.19999980536E+02 0.  0.
        -12    1    1    2    0    0 -0.38457012188E+02  0.19253807009E+02  0.58286167860E+01  0.43400733225E+02  0.00000000000E+00 0.  1.
         11    1    3    3    0    0  0.23569114488E+02 -0.58429513764E+01 -0.83593138450E+01  0.25681148081E+02  0.51100000000E-03 0. -1.
        -11    1    3    3    0    0  0.42762241908E+01 -0.37155994660E+01 -0.33438291935E+01  0.65782191099E+01  0.51100000000E-03 0.  1.
         12    1    3    3    0    0  0.10611673509E+02 -0.96952561668E+01  0.58745262526E+01  0.15527899584E+02  0.00000000000E+00 0. -1.
</event>
<event>
 7    1  0.2685294E-009  0.4778727E+02  0.7816164E-02  0.1312668E+00
        -11   -1    0    0    0    0  0.00000000000E+00  0.00000000000E+00  0.45593999997E+02  0.45594000000E+02  0.51100000000E-03 0.  1.
         11   -1    0    0    0    0 -0.00000000000E+00 -0.00000000000E+00 -0.45593999997E+02  0.45594000000E+02  0.51100000000E-03 0. -1.
    9900012    2    1    2    0    0  0.20682858314E+02 -0.36814394752E+02 -0.10027118992E+02  0.47787269542E+02  0.19999993152E+02 0.  0.
        -12    1    1    2    0    0 -0.20682858314E+02  0.36814394752E+02  0.10027118992E+02  0.43400730458E+02  0.00000000000E+00 0.  1.
         11    1    3    3    0    0  0.82161894246E+01 -0.47486644448E+01 -0.49679860328E+01  0.10711511012E+02  0.51100000000E-03 0. -1.
        -11    1    3    3    0    0  0.12023318111E+02 -0.29816264745E+02 -0.70736235621E+00  0.32156961664E+02  0.51100000000E-03 0.  1.
        -12    1    3    3    0    0  0.44335077795E+00 -0.22494655626E+01 -0.43517706033E+01  0.49187968665E+01  0.00000000000E+00 0.  1.
</event>
<event>
 7    1  0.2685294E-009  0.4778727E+02  0.7816164E-02  0.1312668E+00
        -11   -1    0    0    0    0  0.00000000000E+00  0.00000000000E+00  0.45593999997E+02  0.45594000000E+02  0.51100000000E-03 0.  1.
         11   -1    0    0    0    0 -0.00000000000E+00 -0.00000000000E+00 -0.45593999997E+02  0.45594000000E+02  0.51100000000E-03 0. -1.
    9900012    2    1    2    0    0 -0.15572958330E+02 -0.86182981040E+01 -0.39583218625E+02  0.47787270858E+02  0.19999999149E+02 0.  0.
        -12    1    1    2    0    0  0.15572958330E+02  0.86182981040E+01  0.39583218625E+02  0.43400729142E+02  0.00000000000E+00 0.  1.
         11    1    3    3    0    0 -0.10753723904E+02  0.16661246227E+01 -0.97605592438E+01  0.14618039064E+02  0.51100000000E-03 0. -1.
        -11    1    3    3    0    0 -0.84981914795E+00 -0.21631417667E+01 -0.18666216511E+02  0.18810343272E+02  0.51100000000E-03 0.  1.
         12    1    3    3    0    0 -0.39694152776E+01 -0.81212809600E+01 -0.11156442870E+02  0.14358888522E+02  0.00000000000E+00 0. -1.
</event>
<event>
 7    1  0.2685294E-009  0.4778727E+02  0.7816164E-02  0.1312668E+00
        -11   -1    0    0    0    0  0.00000000000E+00  0.00000000000E+00  0.45593999997E+02  0.45594000000E+02  0.51100000000E-03 0.  1.
         11   -1    0    0    0    0 -0.00000000000E+00 -0.00000000000E+00 -0.45593999997E+02  0.45594000000E+02  0.51100000000E-03 0. -1.
    9900012    2    1    2    0    0  0.93353048369E+01  0.10297700189E+02 -0.41114870488E+02  0.47787272808E+02  0.20000008040E+02 0.  0.
        -12    1    1    2    0    0 -0.93353048369E+01 -0.10297700189E+02  0.41114870488E+02  0.43400727192E+02  0.00000000000E+00 0.  1.
         11    1    3    3    0    0  0.10141537671E+02  0.10796421006E+02 -0.18975015988E+02  0.24072073547E+02  0.51100000000E-03 0. -1.
        -11    1    3    3    0    0 -0.39904998994E+01  0.25781223669E+00 -0.57627652790E+01  0.70142726293E+01  0.51100000000E-03 0.  1.
         12    1    3    3    0    0  0.31842670655E+01 -0.75653305307E+00 -0.16377089221E+02  0.16700926632E+02  0.00000000000E+00 0. -1.
</event>
<event>
 7    1  0.2685294E-009  0.4778727E+02  0.7816164E-02  0.1312668E+00
        -11   -1    0    0    0    0  0.00000000000E+00  0.00000000000E+00  0.45593999997E+02  0.45594000000E+02  0.51100000000E-03 0.  1.
         11   -1    0    0    0    0 -0.00000000000E+00 -0.00000000000E+00 -0.45593999997E+02  0.45594000000E+02  0.51100000000E-03 0. -1.
    9900012    2    1    2    0    0  0.18157155326E+02  0.16901288716E+02 -0.35613025273E+02  0.47787269374E+02  0.19999992384E+02 0.  0.
        -12    1    1    2    0    0 -0.18157155326E+02 -0.16901288716E+02  0.35613025273E+02  0.43400730626E+02  0.00000000000E+00 0.  1.
         11    1    3    3    0    0  0.10119519807E+02  0.98876239790E+01 -0.65294410285E+01  0.15582149706E+02  0.51100000000E-03 0. -1.
        -11    1    3    3    0    0 -0.74530113871E+00 -0.81934858737E+00 -0.36077190584E+00  0.11648873440E+01  0.51100000000E-03 0.  1.
         12    1    3    3    0    0  0.87829366577E+01  0.78330133245E+01 -0.28722812338E+02  0.31040232324E+02  0.00000000000E+00 0. -1.
</event>
<event>
 7    1  0.2685294E-009  0.4778728E+02  0.7816164E-02  0.1312668E+00
        -11   -1    0    0    0    0  0.00000000000E+00  0.00000000000E+00  0.45593999997E+02  0.45594000000E+02  0.51100000000E-03 0. -1.
         11   -1    0    0    0    0 -0.00000000000E+00 -0.00000000000E+00 -0.45593999997E+02  0.45594000000E+02  0.51100000000E-03 0.  1.
    9900012    2    1    2    0    0  0.40578082153E+02 -0.54725411362E+01  0.14390741227E+02  0.47787275458E+02  0.20000020125E+02 0.  0.
        -12    1    1    2    0    0 -0.40578082153E+02  0.54725411362E+01 -0.14390741227E+02  0.43400724542E+02  0.00000000000E+00 0.  1.
         11    1    3    3    0    0  0.23520590838E+02 -0.97743395139E+01  0.10363396429E+02  0.27498288894E+02  0.51100000000E-03 0. -1.
        -11    1    3    3    0    0 -0.41382527019E+00  0.11097790754E+01 -0.12883323096E+01  0.17500460998E+01  0.51100000000E-03 0.  1.
         12    1    3    3    0    0  0.17471316585E+02  0.31920193023E+01  0.53156771076E+01  0.18538940465E+02  0.00000000000E+00 0. -1.
</event>
<event>
 7    1  0.2685294E-009  0.4778727E+02  0.7816164E-02  0.1312668E+00
        -11   -1    0    0    0    0  0.00000000000E+00  0.00000000000E+00  0.45593999997E+02  0.45594000000E+02  0.51100000000E-03 0.  1.
         11   -1    0    0    0    0 -0.00000000000E+00 -0.00000000000E+00 -0.45593999997E+02  0.45594000000E+02  0.51100000000E-03 0. -1.
    9900012    2    1    2    0    0 -0.14884845619E+02  0.39706173967E+02 -0.92457833071E+01  0.47787269716E+02  0.19999993945E+02 0.  0.
        -12    1    1    2    0    0  0.14884845619E+02 -0.39706173967E+02  0.92457833071E+01  0.43400730284E+02  0.00000000000E+00 0.  1.
         11    1    3    3    0    0  0.26309435773E+01  0.89977039663E+01 -0.57932560112E+01  0.11020088758E+02  0.51100000000E-03 0. -1.
        -11    1    3    3    0    0 -0.12441144182E+02  0.13176133998E+02  0.34247078476E+00  0.18124841026E+02  0.51100000000E-03 0.  1.
        -12    1    3    3    0    0 -0.50746450139E+01  0.17532336003E+02 -0.37949980807E+01  0.18642339932E+02  0.00000000000E+00 0.  1.
</event>
<event>
 7    1  0.3683122E-009  0.4778727E+02  0.7816164E-02  0.1312668E+00
        -11   -1    0    0    0    0  0.00000000000E+00  0.00000000000E+00  0.45593999997E+02  0.45594000000E+02  0.51100000000E-03 0. -1.
         11   -1    0    0    0    0 -0.00000000000E+00 -0.00000000000E+00 -0.45593999997E+02  0.45594000000E+02  0.51100000000E-03 0.  1.
    9900012    2    1    2    0    0 -0.31578681760E+01  0.21720291614E+02  0.37441690287E+02  0.47787269928E+02  0.19999994910E+02 0.  0.
        -12    1    1    2    0    0  0.31578681760E+01 -0.21720291614E+02 -0.37441690287E+02  0.43400730072E+02  0.00000000000E+00 0.  1.
         11    1    3    3    0    0  0.24310646575E+01  0.14109879674E+02  0.29181714122E+02  0.32504941458E+02  0.51100000000E-03 0. -1.
        -11    1    3    3    0    0 -0.20370622555E+00  0.16970513742E+01 -0.17655498419E+01  0.24573656827E+01  0.51100000000E-03 0.  1.
        -12    1    3    3    0    0 -0.53852266080E+01  0.59133605651E+01  0.10025526007E+02  0.12824962788E+02  0.00000000000E+00 0.  1.
</event>
<event>
 7    1  0.2685294E-009  0.4778726E+02  0.7816164E-02  0.1312668E+00
        -11   -1    0    0    0    0  0.00000000000E+00  0.00000000000E+00  0.45593999997E+02  0.45594000000E+02  0.51100000000E-03 0.  1.
         11   -1    0    0    0    0 -0.00000000000E+00 -0.00000000000E+00 -0.45593999997E+02  0.45594000000E+02  0.51100000000E-03 0. -1.
    9900012    2    1    2    0    0 -0.19952553263E+02  0.27471073169E+02 -0.27034420549E+02  0.47787261098E+02  0.19999954652E+02 0.  0.
        -12    1    1    2    0    0  0.19952553263E+02 -0.27471073169E+02  0.27034420549E+02  0.43400738902E+02  0.00000000000E+00 0.  1.
         11    1    3    3    0    0 -0.29935034536E+00 -0.12952893346E+00  0.15708399184E+01  0.16043461859E+01  0.51100000000E-03 0.  1.
        -11    1    3    3    0    0 -0.15529536885E+02  0.23892925973E+02 -0.16649501143E+02  0.33003701550E+02  0.51100000000E-03 0. -1.
        -12    1    3    3    0    0 -0.41236660326E+01  0.37076761288E+01 -0.11955759324E+02  0.13179213362E+02  0.00000000000E+00 0.  1.
</event>
<event>
 7    1  0.2685294E-009  0.4778727E+02  0.7816164E-02  0.1312668E+00
        -11   -1    0    0    0    0  0.00000000000E+00  0.00000000000E+00  0.45593999997E+02  0.45594000000E+02  0.51100000000E-03 0.  1.
         11   -1    0    0    0    0 -0.00000000000E+00 -0.00000000000E+00 -0.45593999997E+02  0.45594000000E+02  0.51100000000E-03 0. -1.
    9900012    2    1    2    0    0 -0.14802415009E+02 -0.26389424983E+02 -0.31114473834E+02  0.47787265870E+02  0.19999976410E+02 0.  0.
        -12    1    1    2    0    0  0.14802415009E+02  0.26389424983E+02  0.31114473834E+02  0.43400734130E+02  0.00000000000E+00 0.  1.
         11    1    3    3    0    0 -0.15544079276E+02 -0.16529354236E+02 -0.28876438577E+02  0.36724469461E+02  0.51100000000E-03 0. -1.
        -11    1    3    3    0    0 -0.12021026490E+01 -0.57837199612E+01  0.23872576613E+00  0.59121449255E+01  0.51100000000E-03 0.  1.
         12    1    3    3    0    0  0.19437669161E+01 -0.40763507850E+01 -0.24767610232E+01  0.51506514843E+01  0.00000000000E+00 0. -1.
</event>
<event>
 7    1  0.2685294E-009  0.4778727E+02  0.7816164E-02  0.1312668E+00
        -11   -1    0    0    0    0  0.00000000000E+00  0.00000000000E+00  0.45593999997E+02  0.45594000000E+02  0.51100000000E-03 0.  1.
         11   -1    0    0    0    0 -0.00000000000E+00 -0.00000000000E+00 -0.45593999997E+02  0.45594000000E+02  0.51100000000E-03 0. -1.
    9900012    2    1    2    0    0 -0.30678555083E+02  0.17751112422E+02 -0.25046905606E+02  0.47787271727E+02  0.20000003111E+02 0.  0.
        -12    1    1    2    0    0  0.30678555083E+02 -0.17751112422E+02  0.25046905606E+02  0.43400728273E+02  0.00000000000E+00 0.  1.
         11    1    3    3    0    0  0.17909100002E+01  0.39207938614E+00 -0.26040041217E+01  0.31846385354E+01  0.51100000000E-03 0. -1.
        -11    1    3    3    0    0 -0.24689207520E+02  0.16770879050E+02 -0.21411207310E+02  0.36732263077E+02  0.51100000000E-03 0.  1.
        -12    1    3    3    0    0 -0.77802575633E+01  0.58815398583E+00 -0.10316941751E+01  0.78703701141E+01  0.00000000000E+00 0.  1.
</event>
<event>
 7    1  0.2685294E-009  0.4778727E+02  0.7816164E-02  0.1312668E+00
        -11   -1    0    0    0    0  0.00000000000E+00  0.00000000000E+00  0.45593999997E+02  0.45594000000E+02  0.51100000000E-03 0.  1.
         11   -1    0    0    0    0 -0.00000000000E+00 -0.00000000000E+00 -0.45593999997E+02  0.45594000000E+02  0.51100000000E-03 0. -1.
    9900012    2    1    2    0    0  0.19961004290E+02 -0.15364888628E+02 -0.35342632201E+02  0.47787272521E+02  0.20000006731E+02 0.  0.
        -12    1    1    2    0    0 -0.19961004290E+02  0.15364888628E+02  0.35342632201E+02  0.43400727479E+02  0.00000000000E+00 0.  1.
         11    1    3    3    0    0  0.13752244844E+02 -0.17400864104E+02 -0.34129634098E+02  0.40703147713E+02  0.51100000000E-03 0. -1.
        -11    1    3    3    0    0  0.12194437472E+01  0.15267021890E+01 -0.16777080497E+00  0.19611246596E+01  0.51100000000E-03 0.  1.
         12    1    3    3    0    0  0.49893156979E+01  0.50927328685E+00 -0.10452272990E+01  0.51230001484E+01  0.00000000000E+00 0. -1.
</event>
<event>
 7    1  0.2685294E-009  0.4778727E+02  0.7816164E-02  0.1312668E+00
        -11   -1    0    0    0    0  0.00000000000E+00  0.00000000000E+00  0.45593999997E+02  0.45594000000E+02  0.51100000000E-03 0. -1.
         11   -1    0    0    0    0 -0.00000000000E+00 -0.00000000000E+00 -0.45593999997E+02  0.45594000000E+02  0.51100000000E-03 0.  1.
    9900012    2    1    2    0    0 -0.17644768412E+02  0.10498925617E+02  0.38236869258E+02  0.47787268876E+02  0.19999990114E+02 0.  0.
        -12    1    1    2    0    0  0.17644768412E+02 -0.10498925617E+02 -0.38236869258E+02  0.43400731124E+02  0.00000000000E+00 0.  1.
         11    1    3    3    0    0 -0.68173578352E+01  0.13182517224E+02  0.15347224419E+02  0.21349295676E+02  0.51100000000E-03 0. -1.
        -11    1    3    3    0    0 -0.33394135927E+01  0.95532521708E+00  0.21381759249E+01  0.40787407322E+01  0.51100000000E-03 0.  1.
         12    1    3    3    0    0 -0.74879969845E+01 -0.36389168240E+01  0.20751468914E+02  0.22359232468E+02  0.00000000000E+00 0. -1.
</event>
<event>
 7    1  0.2685294E-009  0.4778728E+02  0.7816164E-02  0.1312668E+00
        -11   -1    0    0    0    0  0.00000000000E+00  0.00000000000E+00  0.45593999997E+02  0.45594000000E+02  0.51100000000E-03 0.  1.
         11   -1    0    0    0    0 -0.00000000000E+00 -0.00000000000E+00 -0.45593999997E+02  0.45594000000E+02  0.51100000000E-03 0. -1.
    9900012    2    1    2    0    0 -0.21176539720E+02  0.12536543746E+02 -0.35749293063E+02  0.47787277447E+02  0.20000029192E+02 0.  0.
        -12    1    1    2    0    0  0.21176539720E+02 -0.12536543746E+02  0.35749293063E+02  0.43400722553E+02  0.00000000000E+00 0.  1.
         11    1    3    3    0    0 -0.12503411178E+02  0.12667319567E+02 -0.28337365913E+02  0.33463451454E+02  0.51100000000E-03 0. -1.
        -11    1    3    3    0    0  0.33715052074E+00 -0.21833451028E+01  0.37319127044E+00  0.22405218805E+01  0.51100000000E-03 0.  1.
         12    1    3    3    0    0 -0.90102790628E+01  0.20525692816E+01 -0.77851184209E+01  0.12083304112E+02  0.00000000000E+00 0. -1.
</event>
<event>
 7    1  0.2685294E-009  0.4778727E+02  0.7816164E-02  0.1312668E+00
        -11   -1    0    0    0    0  0.00000000000E+00  0.00000000000E+00  0.45593999997E+02  0.45594000000E+02  0.51100000000E-03 0.  1.
         11   -1    0    0    0    0 -0.00000000000E+00 -0.00000000000E+00 -0.45593999997E+02  0.45594000000E+02  0.51100000000E-03 0. -1.
    9900012    2    1    2    0    0  0.12697848162E+01  0.36649426710E+02 -0.23212722383E+02  0.47787270604E+02  0.19999997994E+02 0.  0.
        -12    1    1    2    0    0 -0.12697848162E+01 -0.36649426710E+02  0.23212722383E+02  0.43400729396E+02  0.00000000000E+00 0.  1.
         11    1    3    3    0    0  0.71137817737E+01  0.24705264501E+02 -0.12539158596E+02  0.28603959232E+02  0.51100000000E-03 0. -1.
        -11    1    3    3    0    0 -0.61132677908E+01  0.64714248910E+01 -0.23313426032E+01  0.92025290978E+01  0.51100000000E-03 0.  1.
         12    1    3    3    0    0  0.26927083323E+00  0.54727373180E+01 -0.83422211843E+01  0.99807822751E+01  0.00000000000E+00 0. -1.
</event>
<event>
 7    1  0.2685294E-009  0.4778730E+02  0.7816164E-02  0.1312668E+00
        -11   -1    0    0    0    0  0.00000000000E+00  0.00000000000E+00  0.45593999997E+02  0.45594000000E+02  0.51100000000E-03 0. -1.
         11   -1    0    0    0    0 -0.00000000000E+00 -0.00000000000E+00 -0.45593999997E+02  0.45594000000E+02  0.51100000000E-03 0.  1.
    9900012    2    1    2    0    0 -0.57785679253E+01 -0.30621585331E+02  0.30208406619E+02  0.47787295329E+02  0.20000110723E+02 0.  0.
        -12    1    1    2    0    0  0.57785679253E+01  0.30621585331E+02 -0.30208406619E+02  0.43400704671E+02  0.00000000000E+00 0.  1.
         11    1    3    3    0    0 -0.17918640169E+01 -0.94300147331E+01  0.12537166734E+02  0.15789759482E+02  0.51100000000E-03 0. -1.
        -11    1    3    3    0    0 -0.70029546878E+00 -0.56681894914E+01 -0.25827931845E+01  0.62681422088E+01  0.51100000000E-03 0.  1.
        -12    1    3    3    0    0 -0.32864084396E+01 -0.15523381106E+02  0.20254033070E+02  0.25729393638E+02  0.00000000000E+00 0.  1.
</event>
<event>
 7    1  0.3394687E-009  0.4778727E+02  0.7816164E-02  0.1312668E+00
        -11   -1    0    0    0    0  0.00000000000E+00  0.00000000000E+00  0.45593999997E+02  0.45594000000E+02  0.51100000000E-03 0.  1.
         11   -1    0    0    0    0 -0.00000000000E+00 -0.00000000000E+00 -0.45593999997E+02  0.45594000000E+02  0.51100000000E-03 0. -1.
    9900012    2    1    2    0    0  0.13991065519E+02  0.40967426114E+02 -0.30892522095E+01  0.47787269638E+02  0.19999993585E+02 0.  0.
        -12    1    1    2    0    0 -0.13991065519E+02 -0.40967426114E+02  0.30892522095E+01  0.43400730362E+02  0.00000000000E+00 0.  1.
         11    1    3    3    0    0  0.14828531940E+02  0.33617788995E+02  0.15684610211E+01  0.36776366958E+02  0.51100000000E-03 0. -1.
        -11    1    3    3    0    0 -0.42578141208E+00 -0.12114800047E+01 -0.12353917761E+01  0.17818997487E+01  0.51100000000E-03 0.  1.
        -12    1    3    3    0    0 -0.41168500884E+00  0.85611171238E+01 -0.34223214545E+01  0.92290029305E+01  0.00000000000E+00 0.  1.
</event>
<event>
 7    1  0.2685294E-009  0.4778727E+02  0.7816164E-02  0.1312668E+00
        -11   -1    0    0    0    0  0.00000000000E+00  0.00000000000E+00  0.45593999997E+02  0.45594000000E+02  0.51100000000E-03 0. -1.
         11   -1    0    0    0    0 -0.00000000000E+00 -0.00000000000E+00 -0.45593999997E+02  0.45594000000E+02  0.51100000000E-03 0.  1.
    9900012    2    1    2    0    0  0.11803305779E+02 -0.23198739695E+01  0.41700400986E+02  0.47787270917E+02  0.19999999417E+02 0.  0.
        -12    1    1    2    0    0 -0.11803305779E+02  0.23198739695E+01 -0.41700400986E+02  0.43400729083E+02  0.00000000000E+00 0.  1.
         11    1    3    3    0    0  0.33513081753E+01 -0.82436759945E+01  0.84735634070E+01  0.12287828834E+02  0.51100000000E-03 0. -1.
        -11    1    3    3    0    0  0.94119733529E+01  0.38464843276E+01  0.25931347099E+02  0.27853463818E+02  0.51100000000E-03 0.  1.
         12    1    3    3    0    0 -0.95997574887E+00  0.20773176975E+01  0.72954904808E+01  0.76459782638E+01  0.00000000000E+00 0. -1.
</event>
<event>
 7    1  0.2685294E-009  0.4778726E+02  0.7816164E-02  0.1312668E+00
        -11   -1    0    0    0    0  0.00000000000E+00  0.00000000000E+00  0.45593999997E+02  0.45594000000E+02  0.51100000000E-03 0.  1.
         11   -1    0    0    0    0 -0.00000000000E+00 -0.00000000000E+00 -0.45593999997E+02  0.45594000000E+02  0.51100000000E-03 0. -1.
    9900012    2    1    2    0    0  0.14983239848E+02 -0.90754084014E+01 -0.39708487541E+02  0.47787256955E+02  0.19999935762E+02 0.  0.
        -12    1    1    2    0    0 -0.14983239848E+02  0.90754084014E+01  0.39708487541E+02  0.43400743045E+02  0.00000000000E+00 0.  1.
         11    1    3    3    0    0 -0.12596935355E+01  0.26567132022E+00 -0.17290538231E+02  0.17338400204E+02  0.51100000000E-03 0. -1.
        -11    1    3    3    0    0  0.21239384708E+01 -0.32555796604E+00 -0.81995057878E+01  0.84763788284E+01  0.51100000000E-03 0.  1.
         12    1    3    3    0    0  0.14118994913E+02 -0.90155217556E+01 -0.14218443523E+02  0.21972477923E+02  0.00000000000E+00 0. -1.
</event>
<event>
 7    1  0.2685294E-009  0.4778727E+02  0.7816164E-02  0.1312668E+00
        -11   -1    0    0    0    0  0.00000000000E+00  0.00000000000E+00  0.45593999997E+02  0.45594000000E+02  0.51100000000E-03 0.  1.
         11   -1    0    0    0    0 -0.00000000000E+00 -0.00000000000E+00 -0.45593999997E+02  0.45594000000E+02  0.51100000000E-03 0. -1.
    9900012    2    1    2    0    0 -0.27783050432E+02 -0.16656267045E+02 -0.28884151756E+02  0.47787270215E+02  0.19999996218E+02 0.  0.
        -12    1    1    2    0    0  0.27783050432E+02  0.16656267045E+02  0.28884151756E+02  0.43400729785E+02  0.00000000000E+00 0.  1.
         11    1    3    3    0    0 -0.43718292735E+01 -0.57446409369E+01 -0.11840866957E+02  0.13867945819E+02  0.51100000000E-03 0. -1.
        -11    1    3    3    0    0 -0.23630671269E+02 -0.71051846856E+01 -0.11581704886E+02  0.27258542925E+02  0.51100000000E-03 0.  1.
        -12    1    3    3    0    0  0.21945011069E+00 -0.38064414228E+01 -0.54615799130E+01  0.66607814708E+01  0.00000000000E+00 0.  1.
</event>
<event>
 7    1  0.2685294E-009  0.4778727E+02  0.7816164E-02  0.1312668E+00
        -11   -1    0    0    0    0  0.00000000000E+00  0.00000000000E+00  0.45593999997E+02  0.45594000000E+02  0.51100000000E-03 0.  1.
         11   -1    0    0    0    0 -0.00000000000E+00 -0.00000000000E+00 -0.45593999997E+02  0.45594000000E+02  0.51100000000E-03 0. -1.
    9900012    2    1    2    0    0  0.76995912106E+01  0.32579032470E+02 -0.27621487634E+02  0.47787266819E+02  0.19999980737E+02 0.  0.
        -12    1    1    2    0    0 -0.76995912106E+01 -0.32579032470E+02  0.27621487634E+02  0.43400733181E+02  0.00000000000E+00 0.  1.
         11    1    3    3    0    0  0.12033422367E+02  0.19099631189E+02 -0.15163369280E+02  0.27194244495E+02  0.51100000000E-03 0. -1.
        -11    1    3    3    0    0 -0.34582185902E+01  0.66138206318E+00 -0.31902438476E+01  0.47512480591E+01  0.51100000000E-03 0.  1.
         12    1    3    3    0    0 -0.87561256669E+00  0.12818019217E+02 -0.92678745061E+01  0.15841774266E+02  0.00000000000E+00 0. -1.
</event>
<event>
 7    1  0.2685294E-009  0.4778727E+02  0.7816164E-02  0.1312668E+00
        -11   -1    0    0    0    0  0.00000000000E+00  0.00000000000E+00  0.45593999997E+02  0.45594000000E+02  0.51100000000E-03 0. -1.
         11   -1    0    0    0    0 -0.00000000000E+00 -0.00000000000E+00 -0.45593999997E+02  0.45594000000E+02  0.51100000000E-03 0.  1.
    9900012    2    1    2    0    0  0.34748594724E+02 -0.16343113899E+02  0.20225253731E+02  0.47787273097E+02  0.20000009360E+02 0.  0.
        -12    1    1    2    0    0 -0.34748594724E+02  0.16343113899E+02 -0.20225253731E+02  0.43400726903E+02  0.00000000000E+00 0.  1.
         11    1    3    3    0    0  0.34524807357E+02 -0.17949235388E+02  0.19621908574E+02  0.43579314708E+02  0.51100000000E-03 0. -1.
        -11    1    3    3    0    0 -0.12635430932E+01 -0.24964283766E-01  0.13768850243E+01  0.18689507739E+01  0.51100000000E-03 0.  1.
         12    1    3    3    0    0  0.14873304602E+01  0.16310857734E+01 -0.77353986757E+00  0.23390076153E+01  0.00000000000E+00 0. -1.
</event>
<event>
 7    1  0.2685294E-009  0.4778727E+02  0.7816164E-02  0.1312668E+00
        -11   -1    0    0    0    0  0.00000000000E+00  0.00000000000E+00  0.45593999997E+02  0.45594000000E+02  0.51100000000E-03 0.  1.
         11   -1    0    0    0    0 -0.00000000000E+00 -0.00000000000E+00 -0.45593999997E+02  0.45594000000E+02  0.51100000000E-03 0. -1.
    9900012    2    1    2    0    0 -0.18432536726E+02 -0.79892169571E+01 -0.38471249586E+02  0.47787273711E+02  0.20000012156E+02 0.  0.
        -12    1    1    2    0    0  0.18432536726E+02  0.79892169571E+01  0.38471249586E+02  0.43400726289E+02  0.00000000000E+00 0.  1.
         11    1    3    3    0    0 -0.25486490965E+01 -0.92671275172E+01 -0.14631026198E+02  0.17505490353E+02  0.51100000000E-03 0.  1.
        -11    1    3    3    0    0 -0.38842722325E+01  0.25987501543E+00 -0.14578875260E+02  0.15089688861E+02  0.51100000000E-03 0. -1.
         12    1    3    3    0    0 -0.11999615397E+02  0.10180355447E+01 -0.92613481271E+01  0.15192094496E+02  0.00000000000E+00 0. -1.
</event>
<event>
 7    1  0.2685294E-009  0.4778727E+02  0.7816164E-02  0.1312668E+00
        -11   -1    0    0    0    0  0.00000000000E+00  0.00000000000E+00  0.45593999997E+02  0.45594000000E+02  0.51100000000E-03 0. -1.
         11   -1    0    0    0    0 -0.00000000000E+00 -0.00000000000E+00 -0.45593999997E+02  0.45594000000E+02  0.51100000000E-03 0.  1.
    9900012    2    1    2    0    0 -0.43242046227E+02  0.17631668343E+00 -0.37036955410E+01  0.47787274083E+02  0.20000013855E+02 0.  0.
        -12    1    1    2    0    0  0.43242046227E+02 -0.17631668343E+00  0.37036955410E+01  0.43400725917E+02  0.00000000000E+00 0.  1.
         11    1    3    3    0    0 -0.26898037301E+02  0.43363965102E+01  0.61963979538E+01  0.27941082535E+02  0.51100000000E-03 0. -1.
        -11    1    3    3    0    0 -0.68056295203E+01 -0.18205487980E+00 -0.47343343195E+01  0.82923855951E+01  0.51100000000E-03 0.  1.
         12    1    3    3    0    0 -0.95383794051E+01 -0.39780249469E+01 -0.51657591753E+01  0.11553805953E+02  0.00000000000E+00 0. -1.
</event>
<event>
 7    1  0.2685294E-009  0.4778727E+02  0.7816164E-02  0.1312668E+00
        -11   -1    0    0    0    0  0.00000000000E+00  0.00000000000E+00  0.45593999997E+02  0.45594000000E+02  0.51100000000E-03 0.  1.
         11   -1    0    0    0    0 -0.00000000000E+00 -0.00000000000E+00 -0.45593999997E+02  0.45594000000E+02  0.51100000000E-03 0. -1.
    9900012    2    1    2    0    0  0.23455896714E+01 -0.42991674328E+02 -0.54623618200E+01  0.47787271330E+02  0.20000001302E+02 0.  0.
        -12    1    1    2    0    0 -0.23455896714E+01  0.42991674328E+02  0.54623618200E+01  0.43400728670E+02  0.00000000000E+00 0.  1.
         11    1    3    3    0    0 -0.28114729363E+00 -0.17445984442E+01 -0.54353852429E+01  0.57154247901E+01  0.51100000000E-03 0. -1.
        -11    1    3    3    0    0  0.37312014817E+01 -0.25854042582E+02 -0.31976873396E+01  0.26316887865E+02  0.51100000000E-03 0.  1.
         12    1    3    3    0    0 -0.11044645167E+01 -0.15393033302E+02  0.31707107625E+01  0.15754958675E+02  0.00000000000E+00 0. -1.
</event>
<event>
 7    1  0.2685294E-009  0.4778727E+02  0.7816164E-02  0.1312668E+00
        -11   -1    0    0    0    0  0.00000000000E+00  0.00000000000E+00  0.45593999997E+02  0.45594000000E+02  0.51100000000E-03 0.  1.
         11   -1    0    0    0    0 -0.00000000000E+00 -0.00000000000E+00 -0.45593999997E+02  0.45594000000E+02  0.51100000000E-03 0. -1.
    9900012    2    1    2    0    0 -0.42924641811E+02 -0.36196240088E+01  0.52911896026E+01  0.47787271435E+02  0.20000001780E+02 0.  0.
        -12    1    1    2    0    0  0.42924641811E+02  0.36196240088E+01 -0.52911896026E+01  0.43400728565E+02  0.00000000000E+00 0.  1.
         11    1    3    3    0    0 -0.16489011685E+02  0.31292414170E+01 -0.45180207052E+01  0.17380798876E+02  0.51100000000E-03 0. -1.
        -11    1    3    3    0    0 -0.38482470534E+01 -0.36146131282E+01  0.46293375762E+01  0.70217661671E+01  0.51100000000E-03 0.  1.
         12    1    3    3    0    0 -0.22587383073E+02 -0.31342522977E+01  0.51798727315E+01  0.23384706392E+02  0.00000000000E+00 0. -1.
</event>
<event>
 7    1  0.2685294E-009  0.4778727E+02  0.7816164E-02  0.1312668E+00
        -11   -1    0    0    0    0  0.00000000000E+00  0.00000000000E+00  0.45593999997E+02  0.45594000000E+02  0.51100000000E-03 0.  1.
         11   -1    0    0    0    0 -0.00000000000E+00 -0.00000000000E+00 -0.45593999997E+02  0.45594000000E+02  0.51100000000E-03 0. -1.
    9900012    2    1    2    0    0 -0.22072747367E+01 -0.18169201019E+02 -0.39352655863E+02  0.47787269005E+02  0.19999990701E+02 0.  0.
        -12    1    1    2    0    0  0.22072747367E+01  0.18169201019E+02  0.39352655863E+02  0.43400730995E+02  0.00000000000E+00 0.  1.
         11    1    3    3    0    0 -0.11973838045E+01 -0.14490889066E+02 -0.21288238036E+02  0.25780005292E+02  0.51100000000E-03 0. -1.
        -11    1    3    3    0    0  0.27739982756E+01  0.13583419083E+01 -0.14382746956E+02  0.14710661761E+02  0.51100000000E-03 0.  1.
         12    1    3    3    0    0 -0.37838892078E+01 -0.50366538610E+01 -0.36816708707E+01  0.72966019525E+01  0.00000000000E+00 0. -1.
</event>
<event>
 7    1  0.2835346E-009  0.4778727E+02  0.7816164E-02  0.1312668E+00
        -11   -1    0    0    0    0  0.00000000000E+00  0.00000000000E+00  0.45593999997E+02  0.45594000000E+02  0.51100000000E-03 0. -1.
         11   -1    0    0    0    0 -0.00000000000E+00 -0.00000000000E+00 -0.45593999997E+02  0.45594000000E+02  0.51100000000E-03 0.  1.
    9900012    2    1    2    0    0 -0.85827467314E+00 -0.78398896724E+01  0.42678130223E+02  0.47787270688E+02  0.19999998376E+02 0.  0.
        -12    1    1    2    0    0  0.85827467314E+00  0.78398896724E+01 -0.42678130223E+02  0.43400729312E+02  0.00000000000E+00 0.  1.
         11    1    3    3    0    0  0.40341621487E+01  0.29044148624E+00  0.24964337981E+02  0.25289859461E+02  0.51100000000E-03 0. -1.
        -11    1    3    3    0    0 -0.28867720794E+01 -0.10375092165E+02  0.14838660731E+02  0.18334716879E+02  0.51100000000E-03 0.  1.
        -12    1    3    3    0    0 -0.20056647425E+01  0.22447610060E+01  0.28751315108E+01  0.41626943483E+01  0.00000000000E+00 0.  1.
</event>
<event>
 7    1  0.2685294E-009  0.4778727E+02  0.7816164E-02  0.1312668E+00
        -11   -1    0    0    0    0  0.00000000000E+00  0.00000000000E+00  0.45593999997E+02  0.45594000000E+02  0.51100000000E-03 0. -1.
         11   -1    0    0    0    0 -0.00000000000E+00 -0.00000000000E+00 -0.45593999997E+02  0.45594000000E+02  0.51100000000E-03 0.  1.
    9900012    2    1    2    0    0  0.16255487653E+02 -0.14216661504E+02  0.37646635201E+02  0.47787268611E+02  0.19999988904E+02 0.  0.
        -12    1    1    2    0    0 -0.16255487653E+02  0.14216661504E+02 -0.37646635201E+02  0.43400731389E+02  0.00000000000E+00 0.  1.
         11    1    3    3    0    0  0.61093456359E+01 -0.14583994874E+02  0.13231681939E+02  0.20617817968E+02  0.51100000000E-03 0. -1.
        -11    1    3    3    0    0  0.74159763733E+01  0.24758987061E+01  0.12313425614E+02  0.14585857211E+02  0.51100000000E-03 0.  1.
         12    1    3    3    0    0  0.27301656437E+01 -0.21085653359E+01  0.12101527649E+02  0.12583593432E+02  0.00000000000E+00 0. -1.
</event>
<event>
 7    1  0.2685294E-009  0.4778730E+02  0.7816164E-02  0.1312668E+00
        -11   -1    0    0    0    0  0.00000000000E+00  0.00000000000E+00  0.45593999997E+02  0.45594000000E+02  0.51100000000E-03 0.  1.
         11   -1    0    0    0    0 -0.00000000000E+00 -0.00000000000E+00 -0.45593999997E+02  0.45594000000E+02  0.51100000000E-03 0. -1.
    9900012    2    1    2    0    0 -0.40170334995E+02 -0.22913964011E+01 -0.16270040399E+02  0.47787302705E+02  0.20000144355E+02 0.  0.
        -12    1    1    2    0    0  0.40170334995E+02  0.22913964011E+01  0.16270040399E+02  0.43400697295E+02  0.00000000000E+00 0.  1.
         11    1    3    3    0    0 -0.20520806368E+02  0.53488256410E+01 -0.35327995869E+01  0.21498700028E+02  0.51100000000E-03 0. -1.
        -11    1    3    3    0    0 -0.52577380276E+01  0.20457101232E+01 -0.28396126960E+01  0.63160224508E+01  0.51100000000E-03 0.  1.
         12    1    3    3    0    0 -0.14391790599E+02 -0.96859321653E+01 -0.98976281163E+01  0.19972580226E+02  0.00000000000E+00 0. -1.
</event>
<event>
 7    1  0.2685294E-009  0.4778727E+02  0.7816164E-02  0.1312668E+00
        -11   -1    0    0    0    0  0.00000000000E+00  0.00000000000E+00  0.45593999997E+02  0.45594000000E+02  0.51100000000E-03 0. -1.
         11   -1    0    0    0    0 -0.00000000000E+00 -0.00000000000E+00 -0.45593999997E+02  0.45594000000E+02  0.51100000000E-03 0.  1.
    9900012    2    1    2    0    0  0.54374764443E+01  0.49206691593E+01  0.42776678057E+02  0.47787270506E+02  0.19999997545E+02 0.  0.
        -12    1    1    2    0    0 -0.54374764443E+01 -0.49206691593E+01 -0.42776678057E+02  0.43400729494E+02  0.00000000000E+00 0.  1.
         11    1    3    3    0    0 -0.26243975921E+00  0.40959038628E+01  0.21702053248E+02  0.22086747577E+02  0.51100000000E-03 0. -1.
        -11    1    3    3    0    0  0.56579044350E+01 -0.40569704452E+01  0.41931492116E+01  0.81273238130E+01  0.51100000000E-03 0.  1.
        -12    1    3    3    0    0  0.42011768465E-01  0.48817357418E+01  0.16881475597E+02  0.17573199116E+02  0.00000000000E+00 0.  1.
</event>
<event>
 7    1  0.2685294E-009  0.4778727E+02  0.7816164E-02  0.1312668E+00
        -11   -1    0    0    0    0  0.00000000000E+00  0.00000000000E+00  0.45593999997E+02  0.45594000000E+02  0.51100000000E-03 0.  1.
         11   -1    0    0    0    0 -0.00000000000E+00 -0.00000000000E+00 -0.45593999997E+02  0.45594000000E+02  0.51100000000E-03 0. -1.
    9900012    2    1    2    0    0  0.91257516368E+01 -0.96048323282E+01 -0.41329060009E+02  0.47787270188E+02  0.19999996093E+02 0.  0.
        -12    1    1    2    0    0 -0.91257516368E+01  0.96048323282E+01  0.41329060009E+02  0.43400729812E+02  0.00000000000E+00 0.  1.
         11    1    3    3    0    0  0.29265184698E+01 -0.12657721919E+02 -0.18955535832E+02  0.22980312737E+02  0.51100000000E-03 0. -1.
        -11    1    3    3    0    0  0.71456364838E+01  0.32751738567E-01 -0.18319487091E+02  0.19663794165E+02  0.51100000000E-03 0.  1.
        -12    1    3    3    0    0 -0.94640331687E+00  0.30201378522E+01 -0.40540370859E+01  0.51431632852E+01  0.00000000000E+00 0.  1.
</event>
<event>
 7    1  0.2685294E-009  0.4778728E+02  0.7816164E-02  0.1312668E+00
        -11   -1    0    0    0    0  0.00000000000E+00  0.00000000000E+00  0.45593999997E+02  0.45594000000E+02  0.51100000000E-03 0.  1.
         11   -1    0    0    0    0 -0.00000000000E+00 -0.00000000000E+00 -0.45593999997E+02  0.45594000000E+02  0.51100000000E-03 0. -1.
    9900012    2    1    2    0    0 -0.20687856358E+01 -0.82241924812E+00 -0.43343586640E+02  0.47787277077E+02  0.20000027506E+02 0.  0.
        -12    1    1    2    0    0  0.20687856358E+01  0.82241924812E+00  0.43343586640E+02  0.43400722923E+02  0.00000000000E+00 0.  1.
         11    1    3    3    0    0 -0.13837261284E+01  0.11581230411E+01 -0.72603958165E+01  0.74812629048E+01  0.51100000000E-03 0. -1.
        -11    1    3    3    0    0  0.39011421341E+01  0.43354143457E+01 -0.29571209522E+02  0.30140855336E+02  0.51100000000E-03 0.  1.
        -12    1    3    3    0    0 -0.45862016414E+01 -0.63159566350E+01 -0.65119813008E+01  0.10165158837E+02  0.00000000000E+00 0.  1.
</event>
<event>
 7    1  0.2685294E-009  0.4778726E+02  0.7816164E-02  0.1312668E+00
        -11   -1    0    0    0    0  0.00000000000E+00  0.00000000000E+00  0.45593999997E+02  0.45594000000E+02  0.51100000000E-03 0.  1.
         11   -1    0    0    0    0 -0.00000000000E+00 -0.00000000000E+00 -0.45593999997E+02  0.45594000000E+02  0.51100000000E-03 0. -1.
    9900012    2    1    2    0    0 -0.32801380970E+02  0.27607614999E+02  0.67463339985E+01  0.47787262426E+02  0.19999960707E+02 0.  0.
        -12    1    1    2    0    0  0.32801380970E+02 -0.27607614999E+02 -0.67463339985E+01  0.43400737574E+02  0.00000000000E+00 0.  1.
         11    1    3    3    0    0 -0.31172028522E+02  0.20869257107E+02  0.49202143728E+01  0.37834240631E+02  0.51100000000E-03 0. -1.
        -11    1    3    3    0    0 -0.13289363666E+01  0.81892068934E+01  0.14224966554E+01  0.84174033054E+01  0.51100000000E-03 0.  1.
         12    1    3    3    0    0 -0.30041608192E+00 -0.14508490011E+01  0.40362297020E+00  0.15356184905E+01  0.00000000000E+00 0. -1.
</event>
<event>
 7    1  0.2685294E-009  0.4778727E+02  0.7816164E-02  0.1312668E+00
        -11   -1    0    0    0    0  0.00000000000E+00  0.00000000000E+00  0.45593999997E+02  0.45594000000E+02  0.51100000000E-03 0.  1.
         11   -1    0    0    0    0 -0.00000000000E+00 -0.00000000000E+00 -0.45593999997E+02  0.45594000000E+02  0.51100000000E-03 0. -1.
    9900012    2    1    2    0    0  0.22696168354E+02  0.18094479480E+02 -0.32266033052E+02  0.47787272650E+02  0.20000007320E+02 0.  0.
        -12    1    1    2    0    0 -0.22696168354E+02 -0.18094479480E+02  0.32266033052E+02  0.43400727350E+02  0.00000000000E+00 0.  1.
         11    1    3    3    0    0  0.11508206101E+02 -0.99422349796E+00 -0.13934488419E+02  0.18099647947E+02  0.51100000000E-03 0. -1.
        -11    1    3    3    0    0  0.16085782943E+01  0.81053583383E+01 -0.97270023222E+01  0.12763186607E+02  0.51100000000E-03 0.  1.
        -12    1    3    3    0    0  0.95793839586E+01  0.10983344640E+02 -0.86045423106E+01  0.16924438096E+02  0.00000000000E+00 0.  1.
</event>
<event>
 7    1  0.2685294E-009  0.4778727E+02  0.7816164E-02  0.1312668E+00
        -11   -1    0    0    0    0  0.00000000000E+00  0.00000000000E+00  0.45593999997E+02  0.45594000000E+02  0.51100000000E-03 0.  1.
         11   -1    0    0    0    0 -0.00000000000E+00 -0.00000000000E+00 -0.45593999997E+02  0.45594000000E+02  0.51100000000E-03 0. -1.
    9900012    2    1    2    0    0 -0.46093163311E+01 -0.32929897331E+02 -0.27892639308E+02  0.47787271172E+02  0.20000000580E+02 0.  0.
        -12    1    1    2    0    0  0.46093163311E+01  0.32929897331E+02  0.27892639308E+02  0.43400728828E+02  0.00000000000E+00 0.  1.
         11    1    3    3    0    0  0.25114322599E+01 -0.44542378235E+01 -0.99388797359E+01  0.11177157834E+02  0.51100000000E-03 0. -1.
        -11    1    3    3    0    0 -0.10742990854E+02 -0.20600098902E+02 -0.13326424008E+02  0.26783754486E+02  0.51100000000E-03 0.  1.
        -12    1    3    3    0    0  0.36222422625E+01 -0.78755606055E+01 -0.46273355644E+01  0.98263588518E+01  0.00000000000E+00 0.  1.
</event>
<event>
 7    1  0.2685294E-009  0.4778727E+02  0.7816164E-02  0.1312668E+00
        -11   -1    0    0    0    0  0.00000000000E+00  0.00000000000E+00  0.45593999997E+02  0.45594000000E+02  0.51100000000E-03 0.  1.
         11   -1    0    0    0    0 -0.00000000000E+00 -0.00000000000E+00 -0.45593999997E+02  0.45594000000E+02  0.51100000000E-03 0. -1.
    9900012    2    1    2    0    0  0.27060172115E+02 -0.33836830959E+02 -0.25375959992E+01  0.47787269157E+02  0.19999991394E+02 0.  0.
        -12    1    1    2    0    0 -0.27060172115E+02  0.33836830959E+02  0.25375959992E+01  0.43400730843E+02  0.00000000000E+00 0.  1.
         11    1    3    3    0    0  0.16420579625E+02 -0.30647029782E+02 -0.49608317356E+00  0.34772431156E+02  0.51100000000E-03 0. -1.
        -11    1    3    3    0    0  0.81718295705E+01 -0.14629286995E+01 -0.42054062878E+01  0.93061485704E+01  0.51100000000E-03 0.  1.
         12    1    3    3    0    0  0.24677629191E+01 -0.17268724779E+01  0.21638934621E+01  0.37086894309E+01  0.00000000000E+00 0. -1.
</event>
<event>
 7    1  0.2685294E-009  0.4778727E+02  0.7816164E-02  0.1312668E+00
        -11   -1    0    0    0    0  0.00000000000E+00  0.00000000000E+00  0.45593999997E+02  0.45594000000E+02  0.51100000000E-03 0.  1.
         11   -1    0    0    0    0 -0.00000000000E+00 -0.00000000000E+00 -0.45593999997E+02  0.45594000000E+02  0.51100000000E-03 0. -1.
    9900012    2    1    2    0    0  0.20634876650E+02 -0.38059738726E+02  0.30465578895E+01  0.47787270038E+02  0.19999995412E+02 0.  0.
        -12    1    1    2    0    0 -0.20634876650E+02  0.38059738726E+02 -0.30465578895E+01  0.43400729962E+02  0.00000000000E+00 0.  1.
         11    1    3    3    0    0  0.40521071749E+01 -0.21817812431E+02  0.12397565404E+01  0.22225514805E+02  0.51100000000E-03 0. -1.
        -11    1    3    3    0    0  0.16996305802E+02 -0.17361069856E+02  0.18654409072E+01  0.24367212140E+02  0.51100000000E-03 0.  1.
        -12    1    3    3    0    0 -0.41353632682E+00  0.11191435603E+01 -0.58639558144E-01  0.11945430926E+01  0.00000000000E+00 0.  1.
</event>
<event>
 7    1  0.2685294E-009  0.4778727E+02  0.7816164E-02  0.1312668E+00
        -11   -1    0    0    0    0  0.00000000000E+00  0.00000000000E+00  0.45593999997E+02  0.45594000000E+02  0.51100000000E-03 0.  1.
         11   -1    0    0    0    0 -0.00000000000E+00 -0.00000000000E+00 -0.45593999997E+02  0.45594000000E+02  0.51100000000E-03 0. -1.
    9900012    2    1    2    0    0 -0.16915741984E+02  0.23829627499E+02 -0.32087842699E+02  0.47787272786E+02  0.20000007942E+02 0.  0.
        -12    1    1    2    0    0  0.16915741984E+02 -0.23829627499E+02  0.32087842699E+02  0.43400727214E+02  0.00000000000E+00 0.  1.
         11    1    3    3    0    0 -0.11425189727E+02  0.14688551546E+02 -0.89039826540E+01  0.20629333828E+02  0.51100000000E-03 0. -1.
        -11    1    3    3    0    0 -0.47059011009E+01  0.45404223510E+01 -0.21019926875E+02  0.22013592765E+02  0.51100000000E-03 0.  1.
        -12    1    3    3    0    0 -0.78465115605E+00  0.46006536016E+01 -0.21639331694E+01  0.51443461937E+01  0.00000000000E+00 0.  1.
</event>
<event>
 7    1  0.2685294E-009  0.4778727E+02  0.7816164E-02  0.1312668E+00
        -11   -1    0    0    0    0  0.00000000000E+00  0.00000000000E+00  0.45593999997E+02  0.45594000000E+02  0.51100000000E-03 0.  1.
         11   -1    0    0    0    0 -0.00000000000E+00 -0.00000000000E+00 -0.45593999997E+02  0.45594000000E+02  0.51100000000E-03 0. -1.
    9900012    2    1    2    0    0 -0.31185804098E+01  0.17349669102E+02 -0.39659635140E+02  0.47787271652E+02  0.20000002772E+02 0.  0.
        -12    1    1    2    0    0  0.31185804098E+01 -0.17349669102E+02  0.39659635140E+02  0.43400728348E+02  0.00000000000E+00 0.  1.
         11    1    3    3    0    0 -0.38766318040E+01  0.68956033929E+01 -0.26308299436E+02  0.27471880892E+02  0.51100000000E-03 0. -1.
        -11    1    3    3    0    0 -0.41810100559E+01  0.82529124441E+01 -0.54392567695E+01  0.10732051219E+02  0.51100000000E-03 0.  1.
        -12    1    3    3    0    0  0.49390614501E+01  0.22011532646E+01 -0.79120789344E+01  0.95833395414E+01  0.00000000000E+00 0.  1.
</event>
<event>
 7    1  0.2685294E-009  0.4778727E+02  0.7816164E-02  0.1312668E+00
        -11   -1    0    0    0    0  0.00000000000E+00  0.00000000000E+00  0.45593999997E+02  0.45594000000E+02  0.51100000000E-03 0.  1.
         11   -1    0    0    0    0 -0.00000000000E+00 -0.00000000000E+00 -0.45593999997E+02  0.45594000000E+02  0.51100000000E-03 0. -1.
    9900012    2    1    2    0    0  0.40264148273E+02  0.12701362642E+02 -0.10054712147E+02  0.47787268607E+02  0.19999988887E+02 0.  0.
        -12    1    1    2    0    0 -0.40264148273E+02 -0.12701362642E+02  0.10054712147E+02  0.43400731393E+02  0.00000000000E+00 0.  1.
         11    1    3    3    0    0  0.22314524184E+02  0.14288941528E+02 -0.72133240875E+01  0.27461680287E+02  0.51100000000E-03 0. -1.
        -11    1    3    3    0    0  0.10555891469E+01 -0.26910406878E+00  0.23604831240E+01  0.25997242713E+01  0.51100000000E-03 0.  1.
         12    1    3    3    0    0  0.16894034942E+02 -0.13184748172E+01 -0.52018711836E+01  0.17725864049E+02  0.00000000000E+00 0. -1.
</event>
<event>
 7    1  0.2685294E-009  0.4778727E+02  0.7816164E-02  0.1312668E+00
        -11   -1    0    0    0    0  0.00000000000E+00  0.00000000000E+00  0.45593999997E+02  0.45594000000E+02  0.51100000000E-03 0.  1.
         11   -1    0    0    0    0 -0.00000000000E+00 -0.00000000000E+00 -0.45593999997E+02  0.45594000000E+02  0.51100000000E-03 0. -1.
    9900012    2    1    2    0    0  0.83605335897E+00 -0.16013060829E+02 -0.40329969329E+02  0.47787268112E+02  0.19999986630E+02 0.  0.
        -12    1    1    2    0    0 -0.83605335897E+00  0.16013060829E+02  0.40329969329E+02  0.43400731888E+02  0.00000000000E+00 0.  1.
         11    1    3    3    0    0 -0.24850021041E+01 -0.26573612495E+01 -0.64124709072E+01  0.73726920229E+01  0.51100000000E-03 0. -1.
        -11    1    3    3    0    0  0.10302610563E+02 -0.66806443546E+01 -0.17801241798E+02  0.21625424926E+02  0.51100000000E-03 0.  1.
        -12    1    3    3    0    0 -0.69815551003E+01 -0.66750552247E+01 -0.16116256624E+02  0.18789151163E+02  0.00000000000E+00 0.  1.
</event>
<event>
 7    1  0.2685294E-009  0.4778727E+02  0.7816164E-02  0.1312668E+00
        -11   -1    0    0    0    0  0.00000000000E+00  0.00000000000E+00  0.45593999997E+02  0.45594000000E+02  0.51100000000E-03 0. -1.
         11   -1    0    0    0    0 -0.00000000000E+00 -0.00000000000E+00 -0.45593999997E+02  0.45594000000E+02  0.51100000000E-03 0.  1.
    9900012    2    1    2    0    0 -0.12629240526E+02 -0.17174813081E+02  0.37804123382E+02  0.47787266535E+02  0.19999979439E+02 0.  0.
        -12    1    1    2    0    0  0.12629240526E+02  0.17174813081E+02 -0.37804123382E+02  0.43400733465E+02  0.00000000000E+00 0.  1.
         11    1    3    3    0    0 -0.13097324399E+02 -0.28575079359E+01  0.14525075612E+02  0.19765704637E+02  0.51100000000E-03 0. -1.
        -11    1    3    3    0    0  0.13096912015E+01 -0.23676764764E+01  0.13269491240E+01  0.30136318918E+01  0.51100000000E-03 0.  1.
         12    1    3    3    0    0 -0.84160732829E+00 -0.11949628669E+02  0.21952098646E+02  0.25007930006E+02  0.00000000000E+00 0. -1.
</event>
<event>
 7    1  0.2685294E-009  0.4778727E+02  0.7816164E-02  0.1312668E+00
        -11   -1    0    0    0    0  0.00000000000E+00  0.00000000000E+00  0.45593999997E+02  0.45594000000E+02  0.51100000000E-03 0.  1.
         11   -1    0    0    0    0 -0.00000000000E+00 -0.00000000000E+00 -0.45593999997E+02  0.45594000000E+02  0.51100000000E-03 0. -1.
    9900012    2    1    2    0    0 -0.26105715251E+02  0.34658801068E+02  0.93924265420E+00  0.47787273773E+02  0.20000012443E+02 0.  0.
        -12    1    1    2    0    0  0.26105715251E+02 -0.34658801068E+02 -0.93924265420E+00  0.43400726227E+02  0.00000000000E+00 0.  1.
         11    1    3    3    0    0 -0.30100200097E+01  0.48139497480E+01  0.68302390471E+01  0.88818071549E+01  0.51100000000E-03 0.  1.
        -11    1    3    3    0    0 -0.17318088169E+02  0.17900086215E+02 -0.60706390875E+01  0.25635559747E+02  0.51100000000E-03 0. -1.
        -12    1    3    3    0    0 -0.57776070724E+01  0.11944765105E+02  0.17964269458E+00  0.13269906872E+02  0.00000000000E+00 0.  1.
</event>
<event>
 7    1  0.2685294E-009  0.4778727E+02  0.7816164E-02  0.1312668E+00
        -11   -1    0    0    0    0  0.00000000000E+00  0.00000000000E+00  0.45593999997E+02  0.45594000000E+02  0.51100000000E-03 0.  1.
         11   -1    0    0    0    0 -0.00000000000E+00 -0.00000000000E+00 -0.45593999997E+02  0.45594000000E+02  0.51100000000E-03 0. -1.
    9900012    2    1    2    0    0  0.22172472908E+02 -0.11784326589E+02 -0.35399639530E+02  0.47787269743E+02  0.19999994065E+02 0.  0.
        -12    1    1    2    0    0 -0.22172472908E+02  0.11784326589E+02  0.35399639530E+02  0.43400730257E+02  0.00000000000E+00 0.  1.
         11    1    3    3    0    0  0.77609964936E+01 -0.13444987069E+02 -0.20334286057E+02  0.25582883605E+02  0.51100000000E-03 0. -1.
        -11    1    3    3    0    0 -0.63183544052E+00 -0.29943484857E+00  0.15351318468E+00  0.71585180829E+00  0.51100000000E-03 0.  1.
         12    1    3    3    0    0  0.15043311855E+02  0.19600953288E+01 -0.15218866658E+02  0.21488534329E+02  0.00000000000E+00 0. -1.
</event>
<event>
 7    1  0.2685294E-009  0.4778727E+02  0.7816164E-02  0.1312668E+00
        -11   -1    0    0    0    0  0.00000000000E+00  0.00000000000E+00  0.45593999997E+02  0.45594000000E+02  0.51100000000E-03 0. -1.
         11   -1    0    0    0    0 -0.00000000000E+00 -0.00000000000E+00 -0.45593999997E+02  0.45594000000E+02  0.51100000000E-03 0.  1.
    9900012    2    1    2    0    0  0.19455390563E+01 -0.35804135854E+02  0.24452028869E+02  0.47787274404E+02  0.20000015316E+02 0.  0.
        -12    1    1    2    0    0 -0.19455390563E+01  0.35804135854E+02 -0.24452028869E+02  0.43400725596E+02  0.00000000000E+00 0.  1.
         11    1    3    3    0    0 -0.34712019576E+01 -0.13297959124E+02  0.76255745541E+01  0.15717326345E+02  0.51100000000E-03 0. -1.
        -11    1    3    3    0    0  0.10004990540E+02 -0.18181306415E+02  0.14638770066E+02  0.25395931327E+02  0.51100000000E-03 0.  1.
        -12    1    3    3    0    0 -0.45882495264E+01 -0.43248703155E+01  0.21876842492E+01  0.66740167318E+01  0.00000000000E+00 0.  1.
</event>
<event>
 7    1  0.2685294E-009  0.4778727E+02  0.7816164E-02  0.1312668E+00
        -11   -1    0    0    0    0  0.00000000000E+00  0.00000000000E+00  0.45593999997E+02  0.45594000000E+02  0.51100000000E-03 0. -1.
         11   -1    0    0    0    0 -0.00000000000E+00 -0.00000000000E+00 -0.45593999997E+02  0.45594000000E+02  0.51100000000E-03 0.  1.
    9900012    2    1    2    0    0  0.41134968965E+02  0.91299978700E+01  0.10401003059E+02  0.47787269620E+02  0.19999993508E+02 0.  0.
        -12    1    1    2    0    0 -0.41134968965E+02 -0.91299978700E+01 -0.10401003059E+02  0.43400730380E+02  0.00000000000E+00 0.  1.
         11    1    3    3    0    0  0.43173235807E+00  0.24414800368E+01  0.10468054503E+01  0.26912858472E+01  0.51100000000E-03 0.  1.
        -11    1    3    3    0    0  0.13793986045E+02 -0.75454590039E+00  0.10186139239E+02  0.17163939623E+02  0.51100000000E-03 0. -1.
        -12    1    3    3    0    0  0.26909250562E+02  0.74430637336E+01 -0.83194163038E+00  0.27932044150E+02  0.00000000000E+00 0.  1.
</event>
<event>
 7    1  0.2685294E-009  0.4778727E+02  0.7816164E-02  0.1312668E+00
        -11   -1    0    0    0    0  0.00000000000E+00  0.00000000000E+00  0.45593999997E+02  0.45594000000E+02  0.51100000000E-03 0.  1.
         11   -1    0    0    0    0 -0.00000000000E+00 -0.00000000000E+00 -0.45593999997E+02  0.45594000000E+02  0.51100000000E-03 0. -1.
    9900012    2    1    2    0    0 -0.14273580756E+02 -0.12383144424E+02 -0.39071037283E+02  0.47787270423E+02  0.19999997166E+02 0.  0.
        -12    1    1    2    0    0  0.14273580756E+02  0.12383144424E+02  0.39071037283E+02  0.43400729577E+02  0.00000000000E+00 0.  1.
         11    1    3    3    0    0 -0.49100659570E+01 -0.46728228550E+01 -0.42421464612E+01  0.79962383654E+01  0.51100000000E-03 0. -1.
        -11    1    3    3    0    0 -0.12624935262E+02 -0.57817205750E+01 -0.32503543061E+02  0.35345404156E+02  0.51100000000E-03 0.  1.
        -12    1    3    3    0    0  0.32614204627E+01 -0.19286009940E+01 -0.23253477611E+01  0.44456279015E+01  0.00000000000E+00 0.  1.
</event>
<event>
 7    1  0.2685294E-009  0.4778727E+02  0.7816164E-02  0.1312668E+00
        -11   -1    0    0    0    0  0.00000000000E+00  0.00000000000E+00  0.45593999997E+02  0.45594000000E+02  0.51100000000E-03 0.  1.
         11   -1    0    0    0    0 -0.00000000000E+00 -0.00000000000E+00 -0.45593999997E+02  0.45594000000E+02  0.51100000000E-03 0. -1.
    9900012    2    1    2    0    0 -0.23700809166E+02 -0.28972629245E+02 -0.21965463528E+02  0.47787272029E+02  0.20000004488E+02 0.  0.
        -12    1    1    2    0    0  0.23700809166E+02  0.28972629245E+02  0.21965463528E+02  0.43400727971E+02  0.00000000000E+00 0.  1.
         11    1    3    3    0    0 -0.89088452519E+01 -0.15281440927E+02 -0.84489844879E+01  0.19602941097E+02  0.51100000000E-03 0. -1.
        -11    1    3    3    0    0 -0.16472961064E+02 -0.83341043305E+01 -0.12930598706E+02  0.22539213038E+02  0.51100000000E-03 0.  1.
        -12    1    3    3    0    0  0.16809971505E+01 -0.53570839874E+01 -0.58588033423E+00  0.56451178937E+01  0.00000000000E+00 0.  1.
</event>
<event>
 7    1  0.2685294E-009  0.4778726E+02  0.7816164E-02  0.1312668E+00
        -11   -1    0    0    0    0  0.00000000000E+00  0.00000000000E+00  0.45593999997E+02  0.45594000000E+02  0.51100000000E-03 0. -1.
         11   -1    0    0    0    0 -0.00000000000E+00 -0.00000000000E+00 -0.45593999997E+02  0.45594000000E+02  0.51100000000E-03 0.  1.
    9900012    2    1    2    0    0  0.31879202883E+02  0.28625998898E+02  0.69204384559E+01  0.47787264317E+02  0.19999969326E+02 0.  0.
        -12    1    1    2    0    0 -0.31879202883E+02 -0.28625998898E+02 -0.69204384559E+01  0.43400735683E+02  0.00000000000E+00 0.  1.
         11    1    3    3    0    0 -0.11268541015E+00 -0.21620566270E+01  0.13877262221E+01  0.25715697908E+01  0.51100000000E-03 0. -1.
        -11    1    3    3    0    0  0.17654878691E+02  0.20977991743E+02  0.20253407976E+01  0.27493142504E+02  0.51100000000E-03 0.  1.
         12    1    3    3    0    0  0.14337009603E+02  0.98100637825E+01  0.35073714362E+01  0.17722552022E+02  0.00000000000E+00 0. -1.
</event>
<event>
 7    1  0.2685294E-009  0.4778727E+02  0.7816164E-02  0.1312668E+00
        -11   -1    0    0    0    0  0.00000000000E+00  0.00000000000E+00  0.45593999997E+02  0.45594000000E+02  0.51100000000E-03 0. -1.
         11   -1    0    0    0    0 -0.00000000000E+00 -0.00000000000E+00 -0.45593999997E+02  0.45594000000E+02  0.51100000000E-03 0.  1.
    9900012    2    1    2    0    0  0.16614553328E+02  0.40093724217E+02  0.27041020246E+00  0.47787271601E+02  0.20000002539E+02 0.  0.
        -12    1    1    2    0    0 -0.16614553328E+02 -0.40093724217E+02 -0.27041020246E+00  0.43400728399E+02  0.00000000000E+00 0.  1.
         11    1    3    3    0    0  0.18530713215E+02  0.31442323872E+02  0.24086263476E+00  0.36497466731E+02  0.51100000000E-03 0. -1.
        -11    1    3    3    0    0 -0.25681973631E+01  0.91425405849E+01 -0.14436987768E+01  0.96055167722E+01  0.51100000000E-03 0.  1.
        -12    1    3    3    0    0  0.65203747553E+00 -0.49114023982E+00  0.14732463445E+01  0.16842880977E+01  0.00000000000E+00 0.  1.
</event>
<event>
 7    1  0.3044550E-009  0.4778727E+02  0.7816164E-02  0.1312668E+00
        -11   -1    0    0    0    0  0.00000000000E+00  0.00000000000E+00  0.45593999997E+02  0.45594000000E+02  0.51100000000E-03 0. -1.
         11   -1    0    0    0    0 -0.00000000000E+00 -0.00000000000E+00 -0.45593999997E+02  0.45594000000E+02  0.51100000000E-03 0.  1.
    9900012    2    1    2    0    0  0.34434107939E+02 -0.16617550632E+02 -0.20537092125E+02  0.47787274988E+02  0.20000017982E+02 0.  0.
        -12    1    1    2    0    0 -0.34434107939E+02  0.16617550632E+02  0.20537092125E+02  0.43400725012E+02  0.00000000000E+00 0.  1.
         11    1    3    3    0    0  0.74616810407E+01 -0.39895868219E+01 -0.73797792912E+01  0.11227405293E+02  0.51100000000E-03 0. -1.
        -11    1    3    3    0    0  0.29319990134E+02 -0.11970222375E+02 -0.12092395333E+02  0.33899470060E+02  0.51100000000E-03 0.  1.
        -12    1    3    3    0    0 -0.23475632354E+01 -0.65774143559E+00 -0.10649175002E+01  0.26603996359E+01  0.00000000000E+00 0.  1.
</event>
<event>
 7    1  0.2685294E-009  0.4778727E+02  0.7816164E-02  0.1312668E+00
        -11   -1    0    0    0    0  0.00000000000E+00  0.00000000000E+00  0.45593999997E+02  0.45594000000E+02  0.51100000000E-03 0. -1.
         11   -1    0    0    0    0 -0.00000000000E+00 -0.00000000000E+00 -0.45593999997E+02  0.45594000000E+02  0.51100000000E-03 0.  1.
    9900012    2    1    2    0    0  0.31521383050E+02  0.29282135907E+02  0.57080748928E+01  0.47787271991E+02  0.20000004318E+02 0.  0.
        -12    1    1    2    0    0 -0.31521383050E+02 -0.29282135907E+02 -0.57080748928E+01  0.43400728009E+02  0.00000000000E+00 0.  1.
         11    1    3    3    0    0  0.29667313286E+02  0.27435185984E+02  0.28774311554E+01  0.40510721024E+02  0.51100000000E-03 0. -1.
        -11    1    3    3    0    0 -0.26915478804E+00  0.35224358425E+01  0.29006305371E+01  0.45709579235E+01  0.51100000000E-03 0.  1.
         12    1    3    3    0    0  0.21232245523E+01 -0.16754859194E+01 -0.69986799739E-01  0.27055930436E+01  0.00000000000E+00 0. -1.
</event>
<event>
 7    1  0.2685294E-009  0.4778728E+02  0.7816164E-02  0.1312668E+00
        -11   -1    0    0    0    0  0.00000000000E+00  0.00000000000E+00  0.45593999997E+02  0.45594000000E+02  0.51100000000E-03 0.  1.
         11   -1    0    0    0    0 -0.00000000000E+00 -0.00000000000E+00 -0.45593999997E+02  0.45594000000E+02  0.51100000000E-03 0. -1.
    9900012    2    1    2    0    0 -0.75263465092E+01  0.42615918366E+02  0.32954512234E+01  0.47787281242E+02  0.20000046496E+02 0.  0.
        -12    1    1    2    0    0  0.75263465092E+01 -0.42615918366E+02 -0.32954512234E+01  0.43400718758E+02  0.00000000000E+00 0.  1.
         11    1    3    3    0    0 -0.50781747496E+01  0.10269960157E+02 -0.29988791768E+01  0.11842855103E+02  0.51100000000E-03 0. -1.
        -11    1    3    3    0    0  0.47791832525E+01  0.21162317335E+02  0.13389713271E+01  0.21736538639E+02  0.51100000000E-03 0.  1.
        -12    1    3    3    0    0 -0.72273550121E+01  0.11183640874E+02  0.49553590731E+01  0.14207887500E+02  0.00000000000E+00 0.  1.
</event>
<event>
 7    1  0.3853733E-009  0.4778727E+02  0.7816164E-02  0.1312668E+00
        -11   -1    0    0    0    0  0.00000000000E+00  0.00000000000E+00  0.45593999997E+02  0.45594000000E+02  0.51100000000E-03 0. -1.
         11   -1    0    0    0    0 -0.00000000000E+00 -0.00000000000E+00 -0.45593999997E+02  0.45594000000E+02  0.51100000000E-03 0.  1.
    9900012    2    1    2    0    0  0.27505161661E+02 -0.32271221844E+02 -0.92551287869E+01  0.47787273208E+02  0.20000009863E+02 0.  0.
        -12    1    1    2    0    0 -0.27505161661E+02  0.32271221844E+02  0.92551287869E+01  0.43400726792E+02  0.00000000000E+00 0.  1.
         11    1    3    3    0    0  0.16180732623E+02 -0.25110677535E+02 -0.49532537621E+01  0.30280306432E+02  0.51100000000E-03 0. -1.
        -11    1    3    3    0    0  0.11021714670E+02 -0.46591833285E+01 -0.69612009206E+01  0.13843572590E+02  0.51100000000E-03 0.  1.
        -12    1    3    3    0    0  0.30271436822E+00 -0.25013609795E+01  0.26593258958E+01  0.36633941856E+01  0.00000000000E+00 0.  1.
</event>
<event>
 7    1  0.2685294E-009  0.4778727E+02  0.7816164E-02  0.1312668E+00
        -11   -1    0    0    0    0  0.00000000000E+00  0.00000000000E+00  0.45593999997E+02  0.45594000000E+02  0.51100000000E-03 0.  1.
         11   -1    0    0    0    0 -0.00000000000E+00 -0.00000000000E+00 -0.45593999997E+02  0.45594000000E+02  0.51100000000E-03 0. -1.
    9900012    2    1    2    0    0  0.26446673289E+02 -0.32924122888E+02 -0.10009939814E+02  0.47787270846E+02  0.19999999096E+02 0.  0.
        -12    1    1    2    0    0 -0.26446673289E+02  0.32924122888E+02  0.10009939814E+02  0.43400729154E+02  0.00000000000E+00 0.  1.
         11    1    3    3    0    0  0.25406429572E+01 -0.86311538243E+00 -0.62169819624E+01  0.67713144796E+01  0.51100000000E-03 0. -1.
        -11    1    3    3    0    0  0.12453810866E+02 -0.22717775210E+02 -0.70627362917E+00  0.25917051111E+02  0.51100000000E-03 0.  1.
        -12    1    3    3    0    0  0.11452219467E+02 -0.93432322954E+01 -0.30866842226E+01  0.15098905256E+02  0.00000000000E+00 0.  1.
</event>
<event>
 7    1  0.2685294E-009  0.4778727E+02  0.7816164E-02  0.1312668E+00
        -11   -1    0    0    0    0  0.00000000000E+00  0.00000000000E+00  0.45593999997E+02  0.45594000000E+02  0.51100000000E-03 0.  1.
         11   -1    0    0    0    0 -0.00000000000E+00 -0.00000000000E+00 -0.45593999997E+02  0.45594000000E+02  0.51100000000E-03 0. -1.
    9900012    2    1    2    0    0  0.20071130698E+02  0.13300803903E+02 -0.36109025758E+02  0.47787269440E+02  0.19999992683E+02 0.  0.
        -12    1    1    2    0    0 -0.20071130698E+02 -0.13300803903E+02  0.36109025758E+02  0.43400730560E+02  0.00000000000E+00 0.  1.
         11    1    3    3    0    0  0.19369716339E+02  0.89834387286E+01 -0.27887190874E+02  0.35122407343E+02  0.51100000000E-03 0. -1.
        -11    1    3    3    0    0 -0.30119429603E+01  0.14685886366E+01 -0.17442603476E+00  0.33554400132E+01  0.51100000000E-03 0.  1.
        -12    1    3    3    0    0  0.37133573191E+01  0.28487765377E+01 -0.80474088493E+01  0.93094220835E+01  0.00000000000E+00 0.  1.
</event>
<event>
 7    1  0.2685295E-009  0.4778727E+02  0.7816164E-02  0.1312668E+00
        -11   -1    0    0    0    0  0.00000000000E+00  0.00000000000E+00  0.45593999997E+02  0.45594000000E+02  0.51100000000E-03 0.  1.
         11   -1    0    0    0    0 -0.00000000000E+00 -0.00000000000E+00 -0.45593999997E+02  0.45594000000E+02  0.51100000000E-03 0. -1.
    9900012    2    1    2    0    0  0.25111818990E+02  0.22710942018E+02 -0.27152032640E+02  0.47787271702E+02  0.20000002996E+02 0.  0.
        -12    1    1    2    0    0 -0.25111818990E+02 -0.22710942018E+02  0.27152032640E+02  0.43400728298E+02  0.00000000000E+00 0.  1.
         11    1    3    3    0    0  0.16884429819E+02  0.16947615621E+02 -0.21729159534E+02  0.32318137630E+02  0.51100000000E-03 0. -1.
        -11    1    3    3    0    0  0.51077628537E+01 -0.24695048608E+01 -0.24061181750E+01  0.61625563332E+01  0.51100000000E-03 0.  1.
        -12    1    3    3    0    0  0.31196263174E+01  0.82328312586E+01 -0.30167549308E+01  0.93065777387E+01  0.00000000000E+00 0.  1.
</event>
<event>
 7    1  0.2685294E-009  0.4778727E+02  0.7816164E-02  0.1312668E+00
        -11   -1    0    0    0    0  0.00000000000E+00  0.00000000000E+00  0.45593999997E+02  0.45594000000E+02  0.51100000000E-03 0.  1.
         11   -1    0    0    0    0 -0.00000000000E+00 -0.00000000000E+00 -0.45593999997E+02  0.45594000000E+02  0.51100000000E-03 0. -1.
    9900012    2    1    2    0    0  0.18800204144E+02 -0.36776492847E+02 -0.13329107646E+02  0.47787271751E+02  0.20000003219E+02 0.  0.
        -12    1    1    2    0    0 -0.18800204144E+02  0.36776492847E+02  0.13329107646E+02  0.43400728249E+02  0.00000000000E+00 0.  1.
         11    1    3    3    0    0  0.89469308554E+01 -0.24166871859E+02 -0.65316835197E+01  0.26584735414E+02  0.51100000000E-03 0. -1.
        -11    1    3    3    0    0 -0.58218094186E+00  0.15005910021E+01 -0.27587925540E+01  0.31940013497E+01  0.51100000000E-03 0.  1.
        -12    1    3    3    0    0  0.10435454230E+02 -0.14110211990E+02 -0.40386315725E+01  0.18008534987E+02  0.00000000000E+00 0.  1.
</event>
<event>
 7    1  0.2685294E-009  0.4778729E+02  0.7816164E-02  0.1312668E+00
        -11   -1    0    0    0    0  0.00000000000E+00  0.00000000000E+00  0.45593999997E+02  0.45594000000E+02  0.51100000000E-03 0.  1.
         11   -1    0    0    0    0 -0.00000000000E+00 -0.00000000000E+00 -0.45593999997E+02  0.45594000000E+02  0.51100000000E-03 0. -1.
    9900012    2    1    2    0    0 -0.27228012420E+02 -0.14001590610E+02 -0.30760564303E+02  0.47787291294E+02  0.20000092325E+02 0.  0.
        -12    1    1    2    0    0  0.27228012420E+02  0.14001590610E+02  0.30760564303E+02  0.43400708706E+02  0.00000000000E+00 0.  1.
         11    1    3    3    0    0 -0.10272905209E+02 -0.32996148541E+01 -0.17752683160E+02  0.20774450636E+02  0.51100000000E-03 0. -1.
        -11    1    3    3    0    0 -0.18684209153E+02 -0.92725234479E+01 -0.13318515418E+02  0.24747973977E+02  0.51100000000E-03 0.  1.
        -12    1    3    3    0    0  0.17291019414E+01 -0.14294523083E+01  0.31063427547E+00  0.22648666801E+01  0.00000000000E+00 0.  1.
</event>
<event>
 7    1  0.2685294E-009  0.4778727E+02  0.7816164E-02  0.1312668E+00
        -11   -1    0    0    0    0  0.00000000000E+00  0.00000000000E+00  0.45593999997E+02  0.45594000000E+02  0.51100000000E-03 0.  1.
         11   -1    0    0    0    0 -0.00000000000E+00 -0.00000000000E+00 -0.45593999997E+02  0.45594000000E+02  0.51100000000E-03 0. -1.
    9900012    2    1    2    0    0  0.21895435620E+02 -0.37161545628E+02 -0.48200601675E+01  0.47787267812E+02  0.19999985263E+02 0.  0.
        -12    1    1    2    0    0 -0.21895435620E+02  0.37161545628E+02  0.48200601675E+01  0.43400732188E+02  0.00000000000E+00 0.  1.
         11    1    3    3    0    0  0.31850096923E+01 -0.62841968141E+01 -0.20539438243E+01  0.73385354010E+01  0.51100000000E-03 0. -1.
        -11    1    3    3    0    0  0.20762660150E+02 -0.31654837600E+02 -0.14385393939E+01  0.37883851386E+02  0.51100000000E-03 0.  1.
        -12    1    3    3    0    0 -0.20522342221E+01  0.77748878690E+00 -0.13275769493E+01  0.25648810250E+01  0.00000000000E+00 0.  1.
</event>
<event>
 7    1  0.2685294E-009  0.4778727E+02  0.7816164E-02  0.1312668E+00
        -11   -1    0    0    0    0  0.00000000000E+00  0.00000000000E+00  0.45593999997E+02  0.45594000000E+02  0.51100000000E-03 0. -1.
         11   -1    0    0    0    0 -0.00000000000E+00 -0.00000000000E+00 -0.45593999997E+02  0.45594000000E+02  0.51100000000E-03 0.  1.
    9900012    2    1    2    0    0 -0.58684119308E+01  0.37899058846E+02  0.20318624383E+02  0.47787269398E+02  0.19999992492E+02 0.  0.
        -12    1    1    2    0    0  0.58684119308E+01 -0.37899058846E+02 -0.20318624383E+02  0.43400730602E+02  0.00000000000E+00 0.  1.
         11    1    3    3    0    0 -0.70504447678E+01  0.30263685774E+02  0.22428477533E+02  0.38322787644E+02  0.51100000000E-03 0. -1.
        -11    1    3    3    0    0  0.19370932600E+01  0.23642371227E+01 -0.27368968870E+01  0.41027493589E+01  0.51100000000E-03 0.  1.
         12    1    3    3    0    0 -0.75506042304E+00  0.52711359486E+01  0.62704373743E+00  0.53617323954E+01  0.00000000000E+00 0. -1.
</event>
<event>
 7    1  0.2685294E-009  0.4778727E+02  0.7816164E-02  0.1312668E+00
        -11   -1    0    0    0    0  0.00000000000E+00  0.00000000000E+00  0.45593999997E+02  0.45594000000E+02  0.51100000000E-03 0. -1.
         11   -1    0    0    0    0 -0.00000000000E+00 -0.00000000000E+00 -0.45593999997E+02  0.45594000000E+02  0.51100000000E-03 0.  1.
    9900012    2    1    2    0    0  0.20683909065E+02  0.14475361446E+02  0.35302451846E+02  0.47787270864E+02  0.19999999176E+02 0.  0.
        -12    1    1    2    0    0 -0.20683909065E+02 -0.14475361446E+02 -0.35302451846E+02  0.43400729136E+02  0.00000000000E+00 0.  1.
         11    1    3    3    0    0  0.10502218544E+02  0.76634314854E+01  0.10066251130E+02  0.16442450807E+02  0.51100000000E-03 0. -1.
        -11    1    3    3    0    0  0.34621966135E+00  0.70843770504E+01  0.17321165719E+02  0.18717132483E+02  0.51100000000E-03 0.  1.
        -12    1    3    3    0    0  0.98354708606E+01 -0.27244708977E+00  0.79150349970E+01  0.12627687574E+02  0.00000000000E+00 0.  1.
</event>
<event>
 7    1  0.2685294E-009  0.4778727E+02  0.7816164E-02  0.1312668E+00
        -11   -1    0    0    0    0  0.00000000000E+00  0.00000000000E+00  0.45593999997E+02  0.45594000000E+02  0.51100000000E-03 0.  1.
         11   -1    0    0    0    0 -0.00000000000E+00 -0.00000000000E+00 -0.45593999997E+02  0.45594000000E+02  0.51100000000E-03 0. -1.
    9900012    2    1    2    0    0 -0.19163446442E+02  0.22811981914E+02 -0.31559454728E+02  0.47787269809E+02  0.19999994369E+02 0.  0.
        -12    1    1    2    0    0  0.19163446442E+02 -0.22811981914E+02  0.31559454728E+02  0.43400730191E+02  0.00000000000E+00 0.  1.
         11    1    3    3    0    0 -0.18941537618E+02  0.22644924789E+02 -0.23911378447E+02  0.37991163256E+02  0.51100000000E-03 0. -1.
        -11    1    3    3    0    0  0.27075030007E+01  0.76912250206E+00 -0.52726454382E+01  0.59768647383E+01  0.51100000000E-03 0.  1.
         12    1    3    3    0    0 -0.29294118240E+01 -0.60206537730E+00 -0.23754308429E+01  0.38192418152E+01  0.00000000000E+00 0. -1.
</event>
<event>
 7    1  0.2685294E-009  0.4778728E+02  0.7816164E-02  0.1312668E+00
        -11   -1    0    0    0    0  0.00000000000E+00  0.00000000000E+00  0.45593999997E+02  0.45594000000E+02  0.51100000000E-03 0. -1.
         11   -1    0    0    0    0 -0.00000000000E+00 -0.00000000000E+00 -0.45593999997E+02  0.45594000000E+02  0.51100000000E-03 0.  1.
    9900012    2    1    2    0    0  0.26840098132E+01  0.20449147832E+01  0.43269354128E+02  0.47787278902E+02  0.20000035827E+02 0.  0.
        -12    1    1    2    0    0 -0.26840098132E+01 -0.20449147832E+01 -0.43269354128E+02  0.43400721098E+02  0.00000000000E+00 0.  1.
         11    1    3    3    0    0  0.67509795957E+01 -0.11905807676E+00  0.11196336143E+02  0.13074702429E+02  0.51100000000E-03 0. -1.
        -11    1    3    3    0    0 -0.73949223553E+01 -0.81633022024E+00  0.26739845648E+02  0.27755551107E+02  0.51100000000E-03 0.  1.
        -12    1    3    3    0    0  0.33279525729E+01  0.29803030802E+01  0.53331723370E+01  0.69570253667E+01  0.00000000000E+00 0.  1.
</event>
<event>
 7    1  0.2685294E-009  0.4778724E+02  0.7816164E-02  0.1312668E+00
        -11   -1    0    0    0    0  0.00000000000E+00  0.00000000000E+00  0.45593999997E+02  0.45594000000E+02  0.51100000000E-03 0. -1.
         11   -1    0    0    0    0 -0.00000000000E+00 -0.00000000000E+00 -0.45593999997E+02  0.45594000000E+02  0.51100000000E-03 0.  1.
    9900012    2    1    2    0    0 -0.22383429532E+02  0.33108196853E+02 -0.16924982415E+02  0.47787243713E+02  0.19999875386E+02 0.  0.
        -12    1    1    2    0    0  0.22383429532E+02 -0.33108196853E+02  0.16924982415E+02  0.43400756287E+02  0.00000000000E+00 0.  1.
         11    1    3    3    0    0 -0.77789984449E+01  0.95792755561E+01 -0.44147717978E+01  0.13105935574E+02  0.51100000000E-03 0. -1.
        -11    1    3    3    0    0 -0.49008103722E+01  0.12819458026E+02 -0.14647347071E+02  0.20072399529E+02  0.51100000000E-03 0.  1.
        -12    1    3    3    0    0 -0.97036207150E+01  0.10709463272E+02  0.21371364541E+01  0.14608908610E+02  0.00000000000E+00 0.  1.
</event>
<event>
 7    1  0.2685294E-009  0.4778727E+02  0.7816164E-02  0.1312668E+00
        -11   -1    0    0    0    0  0.00000000000E+00  0.00000000000E+00  0.45593999997E+02  0.45594000000E+02  0.51100000000E-03 0.  1.
         11   -1    0    0    0    0 -0.00000000000E+00 -0.00000000000E+00 -0.45593999997E+02  0.45594000000E+02  0.51100000000E-03 0. -1.
    9900012    2    1    2    0    0  0.15621861477E+02  0.40284800371E+02  0.40884591276E+01  0.47787271954E+02  0.20000004146E+02 0.  0.
        -12    1    1    2    0    0 -0.15621861477E+02 -0.40284800371E+02 -0.40884591276E+01  0.43400728046E+02  0.00000000000E+00 0.  1.
         11    1    3    3    0    0 -0.13300831694E+01  0.67174133008E+01 -0.52649353312E+01  0.86378415703E+01  0.51100000000E-03 0. -1.
        -11    1    3    3    0    0  0.47831205603E+01  0.86953218777E+01  0.50252803561E+01  0.11123862089E+02  0.51100000000E-03 0.  1.
         12    1    3    3    0    0  0.12168824086E+02  0.24872065192E+02  0.43281141027E+01  0.28025568295E+02  0.00000000000E+00 0. -1.
</event>
<event>
 7    1  0.2685294E-009  0.4778727E+02  0.7816164E-02  0.1312668E+00
        -11   -1    0    0    0    0  0.00000000000E+00  0.00000000000E+00  0.45593999997E+02  0.45594000000E+02  0.51100000000E-03 0. -1.
         11   -1    0    0    0    0 -0.00000000000E+00 -0.00000000000E+00 -0.45593999997E+02  0.45594000000E+02  0.51100000000E-03 0.  1.
    9900012    2    1    2    0    0 -0.16760799759E+02 -0.22677432022E+02  0.32991409886E+02  0.47787268924E+02  0.19999990333E+02 0.  0.
        -12    1    1    2    0    0  0.16760799759E+02  0.22677432022E+02 -0.32991409886E+02  0.43400731076E+02  0.00000000000E+00 0.  1.
         11    1    3    3    0    0 -0.76423356484E+01 -0.51161501983E+01  0.78532900867E+00  0.92302236662E+01  0.51100000000E-03 0.  1.
        -11    1    3    3    0    0 -0.47726973484E+01 -0.89366323557E+01  0.23351700284E+02  0.25454743060E+02  0.51100000000E-03 0. -1.
        -12    1    3    3    0    0 -0.43457667618E+01 -0.86246494680E+01  0.88543805930E+01  0.13102302198E+02  0.00000000000E+00 0.  1.
</event>
<event>
 7    1  0.2685294E-009  0.4778727E+02  0.7816164E-02  0.1312668E+00
        -11   -1    0    0    0    0  0.00000000000E+00  0.00000000000E+00  0.45593999997E+02  0.45594000000E+02  0.51100000000E-03 0.  1.
         11   -1    0    0    0    0 -0.00000000000E+00 -0.00000000000E+00 -0.45593999997E+02  0.45594000000E+02  0.51100000000E-03 0. -1.
    9900012    2    1    2    0    0  0.31124003830E+02 -0.57654484377E+01 -0.29693088682E+02  0.47787268145E+02  0.19999986779E+02 0.  0.
        -12    1    1    2    0    0 -0.31124003830E+02  0.57654484377E+01  0.29693088682E+02  0.43400731855E+02  0.00000000000E+00 0.  1.
         11    1    3    3    0    0  0.14762878383E+02 -0.32008570341E+01 -0.61988874100E+01  0.16328327204E+02  0.51100000000E-03 0. -1.
        -11    1    3    3    0    0  0.44326593319E+01  0.10013393514E+01 -0.16634723397E+02  0.17244279400E+02  0.51100000000E-03 0.  1.
        -12    1    3    3    0    0  0.11928466115E+02 -0.35659307550E+01 -0.68594778749E+01  0.14214661541E+02  0.00000000000E+00 0.  1.
</event>
<event>
 7    1  0.2685294E-009  0.4778727E+02  0.7816164E-02  0.1312668E+00
        -11   -1    0    0    0    0  0.00000000000E+00  0.00000000000E+00  0.45593999997E+02  0.45594000000E+02  0.51100000000E-03 0.  1.
         11   -1    0    0    0    0 -0.00000000000E+00 -0.00000000000E+00 -0.45593999997E+02  0.45594000000E+02  0.51100000000E-03 0. -1.
    9900012    2    1    2    0    0  0.17132246235E+02 -0.16583821840E+02 -0.36264122253E+02  0.47787267625E+02  0.19999984409E+02 0.  0.
        -12    1    1    2    0    0 -0.17132246235E+02  0.16583821840E+02  0.36264122253E+02  0.43400732375E+02  0.00000000000E+00 0.  1.
         11    1    3    3    0    0  0.48493081384E+01 -0.49415510516E+01 -0.35942848068E+01  0.78008717302E+01  0.51100000000E-03 0. -1.
        -11    1    3    3    0    0  0.94625517809E+01 -0.15521645629E+02 -0.24415207611E+02  0.30439509395E+02  0.51100000000E-03 0.  1.
        -12    1    3    3    0    0  0.28203863154E+01  0.38793748402E+01 -0.82546298358E+01  0.95468865000E+01  0.00000000000E+00 0.  1.
</event>
<event>
 7    1  0.2685294E-009  0.4778727E+02  0.7816164E-02  0.1312668E+00
        -11   -1    0    0    0    0  0.00000000000E+00  0.00000000000E+00  0.45593999997E+02  0.45594000000E+02  0.51100000000E-03 0.  1.
         11   -1    0    0    0    0 -0.00000000000E+00 -0.00000000000E+00 -0.45593999997E+02  0.45594000000E+02  0.51100000000E-03 0. -1.
    9900012    2    1    2    0    0  0.34711438690E+02 -0.48172841514E+01 -0.25603381819E+02  0.47787270017E+02  0.19999995314E+02 0.  0.
        -12    1    1    2    0    0 -0.34711438690E+02  0.48172841514E+01  0.25603381819E+02  0.43400729983E+02  0.00000000000E+00 0.  1.
         11    1    3    3    0    0  0.70589508667E+01  0.16308234449E+01 -0.11149315949E+02  0.13296451363E+02  0.51100000000E-03 0. -1.
        -11    1    3    3    0    0  0.23372389954E+02 -0.79370794612E+00 -0.75014212581E+01  0.24559517618E+02  0.51100000000E-03 0.  1.
        -12    1    3    3    0    0  0.42800978693E+01 -0.56543996502E+01 -0.69526446115E+01  0.99313010361E+01  0.00000000000E+00 0.  1.
</event>
<event>
 7    1  0.2685294E-009  0.4778727E+02  0.7816164E-02  0.1312668E+00
        -11   -1    0    0    0    0  0.00000000000E+00  0.00000000000E+00  0.45593999997E+02  0.45594000000E+02  0.51100000000E-03 0.  1.
         11   -1    0    0    0    0 -0.00000000000E+00 -0.00000000000E+00 -0.45593999997E+02  0.45594000000E+02  0.51100000000E-03 0. -1.
    9900012    2    1    2    0    0  0.27139409194E+02 -0.15521167125E+02 -0.30102643670E+02  0.47787270557E+02  0.19999997777E+02 0.  0.
        -12    1    1    2    0    0 -0.27139409194E+02  0.15521167125E+02  0.30102643670E+02  0.43400729443E+02  0.00000000000E+00 0.  1.
         11    1    3    3    0    0  0.48017697138E+01 -0.55746838067E+01 -0.16764838740E+02  0.18308301674E+02  0.51100000000E-03 0. -1.
        -11    1    3    3    0    0  0.19537027857E+02 -0.92424147568E+01 -0.73453425323E+01  0.22826995974E+02  0.51100000000E-03 0.  1.
        -12    1    3    3    0    0  0.28006116229E+01 -0.70406856145E+00 -0.59924623973E+01  0.66519729091E+01  0.00000000000E+00 0.  1.
</event>
<event>
 7    1  0.2685294E-009  0.4778727E+02  0.7816164E-02  0.1312668E+00
        -11   -1    0    0    0    0  0.00000000000E+00  0.00000000000E+00  0.45593999997E+02  0.45594000000E+02  0.51100000000E-03 0.  1.
         11   -1    0    0    0    0 -0.00000000000E+00 -0.00000000000E+00 -0.45593999997E+02  0.45594000000E+02  0.51100000000E-03 0. -1.
    9900012    2    1    2    0    0  0.12949016759E+02 -0.31279786168E+02 -0.27157346143E+02  0.47787268356E+02  0.19999987740E+02 0.  0.
        -12    1    1    2    0    0 -0.12949016759E+02  0.31279786168E+02  0.27157346143E+02  0.43400731644E+02  0.00000000000E+00 0.  1.
         11    1    3    3    0    0  0.28566028497E+01 -0.91259619691E+01 -0.12736478227E+02  0.15926746046E+02  0.51100000000E-03 0. -1.
        -11    1    3    3    0    0  0.18866606391E+01 -0.15311995628E+02 -0.21282087594E+01  0.15573887481E+02  0.51100000000E-03 0.  1.
        -12    1    3    3    0    0  0.82057532700E+01 -0.68418285710E+01 -0.12292659156E+02  0.16286634829E+02  0.00000000000E+00 0.  1.
</event>
<event>
 7    1  0.2685294E-009  0.4778727E+02  0.7816164E-02  0.1312668E+00
        -11   -1    0    0    0    0  0.00000000000E+00  0.00000000000E+00  0.45593999997E+02  0.45594000000E+02  0.51100000000E-03 0.  1.
         11   -1    0    0    0    0 -0.00000000000E+00 -0.00000000000E+00 -0.45593999997E+02  0.45594000000E+02  0.51100000000E-03 0. -1.
    9900012    2    1    2    0    0  0.28121483664E+02  0.31017329590E+02 -0.11433752794E+02  0.47787270959E+02  0.19999999611E+02 0.  0.
        -12    1    1    2    0    0 -0.28121483664E+02 -0.31017329590E+02  0.11433752794E+02  0.43400729041E+02  0.00000000000E+00 0.  1.
         11    1    3    3    0    0  0.56842787868E+01 -0.17371993211E+01 -0.18677535573E+01  0.62303603764E+01  0.51100000000E-03 0.  1.
        -11    1    3    3    0    0  0.18721987529E+02  0.25035210921E+02 -0.44440910209E+01  0.31575695529E+02  0.51100000000E-03 0. -1.
        -12    1    3    3    0    0  0.37152173484E+01  0.77193179897E+01 -0.51219082161E+01  0.99812150536E+01  0.00000000000E+00 0.  1.
</event>
<event>
 7    1  0.2685294E-009  0.4778727E+02  0.7816164E-02  0.1312668E+00
        -11   -1    0    0    0    0  0.00000000000E+00  0.00000000000E+00  0.45593999997E+02  0.45594000000E+02  0.51100000000E-03 0.  1.
         11   -1    0    0    0    0 -0.00000000000E+00 -0.00000000000E+00 -0.45593999997E+02  0.45594000000E+02  0.51100000000E-03 0. -1.
    9900012    2    1    2    0    0 -0.39320548335E+02  0.18321442397E+02 -0.13573916229E+01  0.47787270917E+02  0.19999999420E+02 0.  0.
        -12    1    1    2    0    0  0.39320548335E+02 -0.18321442397E+02  0.13573916229E+01  0.43400729083E+02  0.00000000000E+00 0.  1.
         11    1    3    3    0    0 -0.29040549818E+02  0.94571627732E+01 -0.16919163643E+01  0.30588462575E+02  0.51100000000E-03 0. -1.
        -11    1    3    3    0    0 -0.48996863721E+01  0.10483381543E+02  0.42029331565E+00  0.11579501797E+02  0.51100000000E-03 0.  1.
        -12    1    3    3    0    0 -0.53803121454E+01 -0.16191019198E+01 -0.85768574219E-01  0.56193065459E+01  0.00000000000E+00 0.  1.
</event>
<event>
 7    1  0.2685294E-009  0.4778727E+02  0.7816164E-02  0.1312668E+00
        -11   -1    0    0    0    0  0.00000000000E+00  0.00000000000E+00  0.45593999997E+02  0.45594000000E+02  0.51100000000E-03 0.  1.
         11   -1    0    0    0    0 -0.00000000000E+00 -0.00000000000E+00 -0.45593999997E+02  0.45594000000E+02  0.51100000000E-03 0. -1.
    9900012    2    1    2    0    0 -0.23866364823E+02  0.30332251890E+02 -0.19848786890E+02  0.47787271716E+02  0.20000003063E+02 0.  0.
        -12    1    1    2    0    0  0.23866364823E+02 -0.30332251890E+02  0.19848786890E+02  0.43400728284E+02  0.00000000000E+00 0.  1.
         11    1    3    3    0    0  0.30930478765E+01  0.31068497597E+01 -0.45361961954E+01  0.63084496337E+01  0.51100000000E-03 0. -1.
        -11    1    3    3    0    0 -0.12770645292E+02  0.10057200644E+02 -0.71370631657E+01  0.17753150055E+02  0.51100000000E-03 0.  1.
         12    1    3    3    0    0 -0.14188767407E+02  0.17168201486E+02 -0.81755275292E+01  0.23725672028E+02  0.00000000000E+00 0. -1.
</event>
<event>
 7    1  0.2685294E-009  0.4778728E+02  0.7816164E-02  0.1312668E+00
        -11   -1    0    0    0    0  0.00000000000E+00  0.00000000000E+00  0.45593999997E+02  0.45594000000E+02  0.51100000000E-03 0.  1.
         11   -1    0    0    0    0 -0.00000000000E+00 -0.00000000000E+00 -0.45593999997E+02  0.45594000000E+02  0.51100000000E-03 0. -1.
    9900012    2    1    2    0    0  0.11881924088E+01 -0.42341188455E+02  0.94569656498E+01  0.47787282952E+02  0.20000054290E+02 0.  0.
        -12    1    1    2    0    0 -0.11881924088E+01  0.42341188455E+02 -0.94569656498E+01  0.43400717048E+02  0.00000000000E+00 0.  1.
         11    1    3    3    0    0  0.40303936410E+01 -0.18047048913E+02 -0.37370090495E+01  0.18865452135E+02  0.51100000000E-03 0. -1.
        -11    1    3    3    0    0 -0.55561537654E+01 -0.15915457765E+02  0.96833302623E+01  0.19440666804E+02  0.51100000000E-03 0.  1.
        -12    1    3    3    0    0  0.27139525332E+01 -0.83786817769E+01  0.35106444369E+01  0.94811640125E+01  0.00000000000E+00 0.  1.
</event>
<event>
 7    1  0.2685294E-009  0.4778727E+02  0.7816164E-02  0.1312668E+00
        -11   -1    0    0    0    0  0.00000000000E+00  0.00000000000E+00  0.45593999997E+02  0.45594000000E+02  0.51100000000E-03 0. -1.
         11   -1    0    0    0    0 -0.00000000000E+00 -0.00000000000E+00 -0.45593999997E+02  0.45594000000E+02  0.51100000000E-03 0.  1.
    9900012    2    1    2    0    0  0.19800497740E+02  0.38334209717E+02 -0.46959716925E+01  0.47787268491E+02  0.19999988360E+02 0.  0.
        -12    1    1    2    0    0 -0.19800497740E+02 -0.38334209717E+02  0.46959716925E+01  0.43400731509E+02  0.00000000000E+00 0.  1.
         11    1    3    3    0    0 -0.67081809747E+00 -0.24167976318E+00 -0.38303211979E+01  0.38961220166E+01  0.51100000000E-03 0.  1.
        -11    1    3    3    0    0  0.20358652752E+02  0.36743840720E+02 -0.45097981307E+00  0.42009379379E+02  0.51100000000E-03 0. -1.
         12    1    3    3    0    0  0.11266308491E+00  0.18320487597E+01 -0.41467068157E+00  0.18817670958E+01  0.00000000000E+00 0. -1.
</event>
<event>
 7    1  0.2685294E-009  0.4778727E+02  0.7816164E-02  0.1312668E+00
        -11   -1    0    0    0    0  0.00000000000E+00  0.00000000000E+00  0.45593999997E+02  0.45594000000E+02  0.51100000000E-03 0. -1.
         11   -1    0    0    0    0 -0.00000000000E+00 -0.00000000000E+00 -0.45593999997E+02  0.45594000000E+02  0.51100000000E-03 0.  1.
    9900012    2    1    2    0    0  0.31953340184E+02 -0.25538461368E+02  0.14504969112E+02  0.47787273199E+02  0.20000009822E+02 0.  0.
        -12    1    1    2    0    0 -0.31953340184E+02  0.25538461368E+02 -0.14504969112E+02  0.43400726801E+02  0.00000000000E+00 0.  1.
         11    1    3    3    0    0  0.34122574581E+02 -0.21134456089E+02  0.10708913329E+02  0.41541499192E+02  0.51100000000E-03 0. -1.
        -11    1    3    3    0    0 -0.15300872333E+01 -0.27343134828E+01  0.20343855799E+01  0.37358214776E+01  0.51100000000E-03 0.  1.
         12    1    3    3    0    0 -0.63914716370E+00 -0.16696917968E+01  0.17616702037E+01  0.25099525293E+01  0.00000000000E+00 0. -1.
</event>
<event>
 7    1  0.2685294E-009  0.4778727E+02  0.7816164E-02  0.1312668E+00
        -11   -1    0    0    0    0  0.00000000000E+00  0.00000000000E+00  0.45593999997E+02  0.45594000000E+02  0.51100000000E-03 0.  1.
         11   -1    0    0    0    0 -0.00000000000E+00 -0.00000000000E+00 -0.45593999997E+02  0.45594000000E+02  0.51100000000E-03 0. -1.
    9900012    2    1    2    0    0  0.55236888943E+01 -0.18093342278E+02 -0.39060764887E+02  0.47787268125E+02  0.19999986687E+02 0.  0.
        -12    1    1    2    0    0 -0.55236888943E+01  0.18093342278E+02  0.39060764887E+02  0.43400731875E+02  0.00000000000E+00 0.  1.
         11    1    3    3    0    0 -0.12498276954E+01 -0.17068142408E+01 -0.20607515319E+02  0.20715814538E+02  0.51100000000E-03 0. -1.
        -11    1    3    3    0    0  0.32715476427E+01 -0.10788551810E+02 -0.55254427955E+01  0.12554934985E+02  0.51100000000E-03 0.  1.
         12    1    3    3    0    0  0.35019689471E+01 -0.55979762273E+01 -0.12927806773E+02  0.14516518601E+02  0.00000000000E+00 0. -1.
</event>
<event>
 7    1  0.2685294E-009  0.4778727E+02  0.7816164E-02  0.1312668E+00
        -11   -1    0    0    0    0  0.00000000000E+00  0.00000000000E+00  0.45593999997E+02  0.45594000000E+02  0.51100000000E-03 0. -1.
         11   -1    0    0    0    0 -0.00000000000E+00 -0.00000000000E+00 -0.45593999997E+02  0.45594000000E+02  0.51100000000E-03 0.  1.
    9900012    2    1    2    0    0  0.32212998504E+02 -0.24377100573E+02  0.15865151331E+02  0.47787270378E+02  0.19999996961E+02 0.  0.
        -12    1    1    2    0    0 -0.32212998504E+02  0.24377100573E+02 -0.15865151331E+02  0.43400729622E+02  0.00000000000E+00 0.  1.
         11    1    3    3    0    0  0.17291393514E+01 -0.36094706770E+01 -0.38887728600E+01  0.55803903163E+01  0.51100000000E-03 0. -1.
        -11    1    3    3    0    0  0.22594710792E+02 -0.12341471047E+02  0.13176436325E+02  0.28921468460E+02  0.51100000000E-03 0.  1.
         12    1    3    3    0    0  0.78891483602E+01 -0.84261588486E+01  0.65774878665E+01  0.13285411602E+02  0.00000000000E+00 0. -1.
</event>
<event>
 7    1  0.2685294E-009  0.4778727E+02  0.7816164E-02  0.1312668E+00
        -11   -1    0    0    0    0  0.00000000000E+00  0.00000000000E+00  0.45593999997E+02  0.45594000000E+02  0.51100000000E-03 0. -1.
         11   -1    0    0    0    0 -0.00000000000E+00 -0.00000000000E+00 -0.45593999997E+02  0.45594000000E+02  0.51100000000E-03 0.  1.
    9900012    2    1    2    0    0  0.36033054644E+02  0.11709394770E+02  0.21169138001E+02  0.47787270092E+02  0.19999995656E+02 0.  0.
        -12    1    1    2    0    0 -0.36033054644E+02 -0.11709394770E+02 -0.21169138001E+02  0.43400729908E+02  0.00000000000E+00 0.  1.
         11    1    3    3    0    0  0.83212359114E+01  0.22103835383E+01  0.57762495653E+01  0.10367922732E+02  0.51100000000E-03 0. -1.
        -11    1    3    3    0    0  0.11499708121E+02  0.63152429363E+01 -0.21797536907E+01  0.13299507759E+02  0.51100000000E-03 0.  1.
        -12    1    3    3    0    0  0.16212110612E+02  0.31837682952E+01  0.17572642127E+02  0.24119839601E+02  0.00000000000E+00 0.  1.
</event>
<event>
 7    1  0.2685294E-009  0.4778728E+02  0.7816164E-02  0.1312668E+00
        -11   -1    0    0    0    0  0.00000000000E+00  0.00000000000E+00  0.45593999997E+02  0.45594000000E+02  0.51100000000E-03 0.  1.
         11   -1    0    0    0    0 -0.00000000000E+00 -0.00000000000E+00 -0.45593999997E+02  0.45594000000E+02  0.51100000000E-03 0. -1.
    9900012    2    1    2    0    0  0.76563746867E+01  0.35538980060E+02 -0.23706196305E+02  0.47787275118E+02  0.20000018571E+02 0.  0.
        -12    1    1    2    0    0 -0.76563746867E+01 -0.35538980060E+02  0.23706196305E+02  0.43400724882E+02  0.00000000000E+00 0.  1.
         11    1    3    3    0    0  0.12985744824E+02  0.21556880794E+02 -0.12769851047E+02  0.28220520445E+02  0.51100000000E-03 0. -1.
        -11    1    3    3    0    0 -0.38637736504E+01  0.10267810221E+02 -0.42225273144E+01  0.11755271615E+02  0.51100000000E-03 0.  1.
        -12    1    3    3    0    0 -0.14655964872E+01  0.37142890459E+01 -0.67138179433E+01  0.78114830574E+01  0.00000000000E+00 0.  1.
</event>
<event>
 7    1  0.2685294E-009  0.4778725E+02  0.7816164E-02  0.1312668E+00
        -11   -1    0    0    0    0  0.00000000000E+00  0.00000000000E+00  0.45593999997E+02  0.45594000000E+02  0.51100000000E-03 0. -1.
         11   -1    0    0    0    0 -0.00000000000E+00 -0.00000000000E+00 -0.45593999997E+02  0.45594000000E+02  0.51100000000E-03 0.  1.
    9900012    2    1    2    0    0  0.11573275225E+02 -0.37781670805E+02  0.17950755999E+02  0.47787251283E+02  0.19999909898E+02 0.  0.
        -12    1    1    2    0    0 -0.11573275225E+02  0.37781670805E+02 -0.17950755999E+02  0.43400748717E+02  0.00000000000E+00 0.  1.
         11    1    3    3    0    0  0.10471055860E+02 -0.15135301096E+02  0.15566009036E+02  0.24104376940E+02  0.51100000000E-03 0. -1.
        -11    1    3    3    0    0  0.21920885220E+01 -0.21452091466E+02  0.33156403682E+01  0.21817216864E+02  0.51100000000E-03 0.  1.
        -12    1    3    3    0    0 -0.10898691561E+01 -0.11942782432E+01 -0.93089340486E+00  0.18656574795E+01  0.00000000000E+00 0.  1.
</event>
<event>
 7    1  0.2685294E-009  0.4778727E+02  0.7816164E-02  0.1312668E+00
        -11   -1    0    0    0    0  0.00000000000E+00  0.00000000000E+00  0.45593999997E+02  0.45594000000E+02  0.51100000000E-03 0.  1.
         11   -1    0    0    0    0 -0.00000000000E+00 -0.00000000000E+00 -0.45593999997E+02  0.45594000000E+02  0.51100000000E-03 0. -1.
    9900012    2    1    2    0    0 -0.41095998599E+02  0.13627267456E+02  0.30065876080E+01  0.47787273184E+02  0.20000009754E+02 0.  0.
        -12    1    1    2    0    0  0.41095998599E+02 -0.13627267456E+02 -0.30065876080E+01  0.43400726816E+02  0.00000000000E+00 0.  1.
         11    1    3    3    0    0 -0.19940854595E+02  0.13589040211E+02 -0.32077572994E+01  0.24343159265E+02  0.51100000000E-03 0. -1.
        -11    1    3    3    0    0 -0.11023433631E+02 -0.10522235217E+01  0.71966917329E+01  0.13206651185E+02  0.51100000000E-03 0.  1.
         12    1    3    3    0    0 -0.10131710373E+02  0.10904507664E+01 -0.98234682550E+00  0.10237462735E+02  0.00000000000E+00 0. -1.
</event>
<event>
 7    1  0.2685294E-009  0.4778727E+02  0.7816164E-02  0.1312668E+00
        -11   -1    0    0    0    0  0.00000000000E+00  0.00000000000E+00  0.45593999997E+02  0.45594000000E+02  0.51100000000E-03 0.  1.
         11   -1    0    0    0    0 -0.00000000000E+00 -0.00000000000E+00 -0.45593999997E+02  0.45594000000E+02  0.51100000000E-03 0. -1.
    9900012    2    1    2    0    0  0.10046307114E+02  0.41095065384E+02 -0.96897100239E+01  0.47787272288E+02  0.20000005671E+02 0.  0.
        -12    1    1    2    0    0 -0.10046307114E+02 -0.41095065384E+02  0.96897100239E+01  0.43400727712E+02  0.00000000000E+00 0.  1.
         11    1    3    3    0    0  0.14436008827E+02  0.27538482876E+02 -0.53378418121E+01  0.31547724886E+02  0.51100000000E-03 0. -1.
        -11    1    3    3    0    0 -0.51606912705E+01  0.86577548853E+01 -0.74342658966E+00  0.10106539338E+02  0.51100000000E-03 0.  1.
        -12    1    3    3    0    0  0.77098955738E+00  0.48988276227E+01 -0.36084416222E+01  0.61330080641E+01  0.00000000000E+00 0.  1.
</event>
<event>
 7    1  0.2685294E-009  0.4778727E+02  0.7816164E-02  0.1312668E+00
        -11   -1    0    0    0    0  0.00000000000E+00  0.00000000000E+00  0.45593999997E+02  0.45594000000E+02  0.51100000000E-03 0.  1.
         11   -1    0    0    0    0 -0.00000000000E+00 -0.00000000000E+00 -0.45593999997E+02  0.45594000000E+02  0.51100000000E-03 0. -1.
    9900012    2    1    2    0    0  0.12779986413E+02 -0.30164646158E+02 -0.28467333993E+02  0.47787273794E+02  0.20000012536E+02 0.  0.
        -12    1    1    2    0    0 -0.12779986413E+02  0.30164646158E+02  0.28467333993E+02  0.43400726206E+02  0.00000000000E+00 0.  1.
         11    1    3    3    0    0 -0.21415498637E+01 -0.12982940417E+02 -0.13476842192E+02  0.18835292762E+02  0.51100000000E-03 0. -1.
        -11    1    3    3    0    0  0.12731858357E+02 -0.18310988894E+02 -0.13631572759E+02  0.26138330239E+02  0.51100000000E-03 0.  1.
        -12    1    3    3    0    0  0.21896779187E+01  0.11292831528E+01 -0.13589190415E+01  0.28136507936E+01  0.00000000000E+00 0.  1.
</event>
<event>
 7    1  0.2685294E-009  0.4778727E+02  0.7816164E-02  0.1312668E+00
        -11   -1    0    0    0    0  0.00000000000E+00  0.00000000000E+00  0.45593999997E+02  0.45594000000E+02  0.51100000000E-03 0. -1.
         11   -1    0    0    0    0 -0.00000000000E+00 -0.00000000000E+00 -0.45593999997E+02  0.45594000000E+02  0.51100000000E-03 0.  1.
    9900012    2    1    2    0    0 -0.31512301786E+01 -0.23526969520E+02  0.36334208202E+02  0.47787271526E+02  0.20000002195E+02 0.  0.
        -12    1    1    2    0    0  0.31512301786E+01  0.23526969520E+02 -0.36334208202E+02  0.43400728474E+02  0.00000000000E+00 0.  1.
         11    1    3    3    0    0 -0.45117209779E+01 -0.19108710689E+02  0.23175341873E+02  0.30374247671E+02  0.51100000000E-03 0. -1.
        -11    1    3    3    0    0 -0.19524016473E+01 -0.58760857904E+01  0.35325855876E+01  0.71287739201E+01  0.51100000000E-03 0.  1.
         12    1    3    3    0    0  0.33128924467E+01  0.14578269602E+01  0.96262807414E+01  0.10284249935E+02  0.00000000000E+00 0. -1.
</event>
<event>
 7    1  0.2685294E-009  0.4778727E+02  0.7816164E-02  0.1312668E+00
        -11   -1    0    0    0    0  0.00000000000E+00  0.00000000000E+00  0.45593999997E+02  0.45594000000E+02  0.51100000000E-03 0. -1.
         11   -1    0    0    0    0 -0.00000000000E+00 -0.00000000000E+00 -0.45593999997E+02  0.45594000000E+02  0.51100000000E-03 0.  1.
    9900012    2    1    2    0    0 -0.32949280311E+02 -0.27825532888E+02 -0.48690597531E+01  0.47787273089E+02  0.20000009322E+02 0.  0.
        -12    1    1    2    0    0  0.32949280311E+02  0.27825532888E+02  0.48690597531E+01  0.43400726911E+02  0.00000000000E+00 0.  1.
         11    1    3    3    0    0 -0.22741341237E+02 -0.16912926308E+02  0.10793632315E+01  0.28361606140E+02  0.51100000000E-03 0. -1.
        -11    1    3    3    0    0 -0.14192236533E+01 -0.69291136102E+01 -0.67059764309E+01  0.97466369254E+01  0.51100000000E-03 0.  1.
        -12    1    3    3    0    0 -0.87887154203E+01 -0.39834929700E+01  0.75755344632E+00  0.96790300239E+01  0.00000000000E+00 0.  1.
</event>
<event>
 7    1  0.2685294E-009  0.4778726E+02  0.7816164E-02  0.1312668E+00
        -11   -1    0    0    0    0  0.00000000000E+00  0.00000000000E+00  0.45593999997E+02  0.45594000000E+02  0.51100000000E-03 0. -1.
         11   -1    0    0    0    0 -0.00000000000E+00 -0.00000000000E+00 -0.45593999997E+02  0.45594000000E+02  0.51100000000E-03 0.  1.
    9900012    2    1    2    0    0 -0.32093169275E+02 -0.93750963332E+01  0.27672366471E+02  0.47787264851E+02  0.19999971762E+02 0.  0.
        -12    1    1    2    0    0  0.32093169275E+02  0.93750963332E+01 -0.27672366471E+02  0.43400735149E+02  0.00000000000E+00 0.  1.
         11    1    3    3    0    0 -0.25623105616E+02 -0.81022500974E+01  0.16523743375E+02  0.31547172511E+02  0.51100000000E-03 0. -1.
        -11    1    3    3    0    0  0.39705594588E+00  0.28510206763E+01  0.61708047477E+01  0.68091705674E+01  0.51100000000E-03 0.  1.
         12    1    3    3    0    0 -0.68671196054E+01 -0.41238669120E+01  0.49778183481E+01  0.94309217731E+01  0.00000000000E+00 0. -1.
</event>
<event>
 7    1  0.2685294E-009  0.4778727E+02  0.7816164E-02  0.1312668E+00
        -11   -1    0    0    0    0  0.00000000000E+00  0.00000000000E+00  0.45593999997E+02  0.45594000000E+02  0.51100000000E-03 0.  1.
         11   -1    0    0    0    0 -0.00000000000E+00 -0.00000000000E+00 -0.45593999997E+02  0.45594000000E+02  0.51100000000E-03 0. -1.
    9900012    2    1    2    0    0 -0.20712464061E+01 -0.16901554914E+01 -0.43318315149E+02  0.47787272880E+02  0.20000008367E+02 0.  0.
        -12    1    1    2    0    0  0.20712464061E+01  0.16901554914E+01  0.43318315149E+02  0.43400727120E+02  0.00000000000E+00 0.  1.
         11    1    3    3    0    0 -0.29803343122E+00 -0.59665313221E+01 -0.38125201808E+02  0.38590404676E+02  0.51100000000E-03 0. -1.
        -11    1    3    3    0    0 -0.10635504220E+01  0.16830339514E+01  0.11558116133E+01  0.23020954646E+01  0.51100000000E-03 0.  1.
         12    1    3    3    0    0 -0.70966255289E+00  0.25933418793E+01 -0.63489249544E+01  0.68947727387E+01  0.00000000000E+00 0. -1.
</event>
<event>
 7    1  0.2685294E-009  0.4778727E+02  0.7816164E-02  0.1312668E+00
        -11   -1    0    0    0    0  0.00000000000E+00  0.00000000000E+00  0.45593999997E+02  0.45594000000E+02  0.51100000000E-03 0. -1.
         11   -1    0    0    0    0 -0.00000000000E+00 -0.00000000000E+00 -0.45593999997E+02  0.45594000000E+02  0.51100000000E-03 0.  1.
    9900012    2    1    2    0    0 -0.40631656345E+02  0.69403182317E+01 -0.13583964760E+02  0.47787267136E+02  0.19999982181E+02 0.  0.
        -12    1    1    2    0    0  0.40631656345E+02 -0.69403182317E+01  0.13583964760E+02  0.43400732864E+02  0.00000000000E+00 0.  1.
         11    1    3    3    0    0 -0.64263245581E+01 -0.14646617749E+01 -0.16786435696E+01  0.68015237952E+01  0.51100000000E-03 0. -1.
        -11    1    3    3    0    0 -0.10688529862E+02 -0.61979495078E+00  0.37312047311E+01  0.11338020347E+02  0.51100000000E-03 0.  1.
        -12    1    3    3    0    0 -0.23516801925E+02  0.90247749574E+01 -0.15636525921E+02  0.29647722994E+02  0.00000000000E+00 0.  1.
</event>
<event>
 7    1  0.2685294E-009  0.4778730E+02  0.7816164E-02  0.1312668E+00
        -11   -1    0    0    0    0  0.00000000000E+00  0.00000000000E+00  0.45593999997E+02  0.45594000000E+02  0.51100000000E-03 0.  1.
         11   -1    0    0    0    0 -0.00000000000E+00 -0.00000000000E+00 -0.45593999997E+02  0.45594000000E+02  0.51100000000E-03 0. -1.
    9900012    2    1    2    0    0  0.25229506015E+02  0.17831475189E+02 -0.30481661119E+02  0.47787295561E+02  0.20000111783E+02 0.  0.
        -12    1    1    2    0    0 -0.25229506015E+02 -0.17831475189E+02  0.30481661119E+02  0.43400704439E+02  0.00000000000E+00 0.  1.
         11    1    3    3    0    0  0.21016728089E+02  0.15452519245E+02 -0.15745386650E+02  0.30469663793E+02  0.51100000000E-03 0. -1.
        -11    1    3    3    0    0  0.50180189517E+01 -0.37045794444E+00 -0.13066050983E+02  0.14001408566E+02  0.51100000000E-03 0.  1.
         12    1    3    3    0    0 -0.80524102607E+00  0.27494138875E+01 -0.16702234863E+01  0.33162232026E+01  0.00000000000E+00 0. -1.
</event>
<event>
 7    1  0.2685294E-009  0.4778727E+02  0.7816164E-02  0.1312668E+00
        -11   -1    0    0    0    0  0.00000000000E+00  0.00000000000E+00  0.45593999997E+02  0.45594000000E+02  0.51100000000E-03 0.  1.
         11   -1    0    0    0    0 -0.00000000000E+00 -0.00000000000E+00 -0.45593999997E+02  0.45594000000E+02  0.51100000000E-03 0. -1.
    9900012    2    1    2    0    0  0.13320514163E+02  0.16092997709E+02 -0.38042119866E+02  0.47787267786E+02  0.19999985142E+02 0.  0.
        -12    1    1    2    0    0 -0.13320514163E+02 -0.16092997709E+02  0.38042119866E+02  0.43400732214E+02  0.00000000000E+00 0.  1.
         11    1    3    3    0    0 -0.20799895294E+01  0.10762001455E+01  0.41193744235E+00  0.23778679344E+01  0.51100000000E-03 0. -1.
        -11    1    3    3    0    0  0.70818631641E+00  0.21088125066E+00  0.71782074614E+00  0.10301774824E+01  0.51100000000E-03 0.  1.
         12    1    3    3    0    0  0.14692317376E+02  0.14805916313E+02 -0.39171878055E+02  0.44379222369E+02  0.00000000000E+00 0. -1.
</event>
<event>
 7    1  0.2685294E-009  0.4778727E+02  0.7816164E-02  0.1312668E+00
        -11   -1    0    0    0    0  0.00000000000E+00  0.00000000000E+00  0.45593999997E+02  0.45594000000E+02  0.51100000000E-03 0. -1.
         11   -1    0    0    0    0 -0.00000000000E+00 -0.00000000000E+00 -0.45593999997E+02  0.45594000000E+02  0.51100000000E-03 0.  1.
    9900012    2    1    2    0    0  0.13003883010E+02  0.17188438684E+02  0.37670678562E+02  0.47787269349E+02  0.19999992271E+02 0.  0.
        -12    1    1    2    0    0 -0.13003883010E+02 -0.17188438684E+02 -0.37670678562E+02  0.43400730651E+02  0.00000000000E+00 0.  1.
         11    1    3    3    0    0  0.16003237699E+02  0.86187700504E+01  0.19335352033E+02  0.26537570585E+02  0.51100000000E-03 0. -1.
        -11    1    3    3    0    0 -0.24314723075E+01  0.46518370014E+01  0.46808384798E+01  0.70329150574E+01  0.51100000000E-03 0.  1.
         12    1    3    3    0    0 -0.56788238210E+00  0.39178316322E+01  0.13654488049E+02  0.14216783707E+02  0.00000000000E+00 0. -1.
</event>
<event>
 7    1  0.2685294E-009  0.4778728E+02  0.7816164E-02  0.1312668E+00
        -11   -1    0    0    0    0  0.00000000000E+00  0.00000000000E+00  0.45593999997E+02  0.45594000000E+02  0.51100000000E-03 0.  1.
         11   -1    0    0    0    0 -0.00000000000E+00 -0.00000000000E+00 -0.45593999997E+02  0.45594000000E+02  0.51100000000E-03 0. -1.
    9900012    2    1    2    0    0  0.14231753687E+02 -0.40509258568E+01 -0.40800368791E+02  0.47787275273E+02  0.20000019280E+02 0.  0.
        -12    1    1    2    0    0 -0.14231753687E+02  0.40509258568E+01  0.40800368791E+02  0.43400724727E+02  0.00000000000E+00 0.  1.
         11    1    3    3    0    0  0.47996455043E+01 -0.72605804046E+01 -0.27654659217E+02  0.28991943734E+02  0.51100000000E-03 0. -1.
        -11    1    3    3    0    0  0.74218105120E+00  0.15236046520E+01  0.11021151743E+01  0.20215988640E+01  0.51100000000E-03 0.  1.
        -12    1    3    3    0    0  0.86899271318E+01  0.16860498957E+01 -0.14247824748E+02  0.16773732675E+02  0.00000000000E+00 0.  1.
</event>
<event>
 7    1  0.2685294E-009  0.4778724E+02  0.7816164E-02  0.1312668E+00
        -11   -1    0    0    0    0  0.00000000000E+00  0.00000000000E+00  0.45593999997E+02  0.45594000000E+02  0.51100000000E-03 0. -1.
         11   -1    0    0    0    0 -0.00000000000E+00 -0.00000000000E+00 -0.45593999997E+02  0.45594000000E+02  0.51100000000E-03 0.  1.
    9900012    2    1    2    0    0  0.22280916860E+02  0.26171318732E+02  0.26499973009E+02  0.47787242520E+02  0.19999869945E+02 0.  0.
        -12    1    1    2    0    0 -0.22280916860E+02 -0.26171318732E+02 -0.26499973009E+02  0.43400757480E+02  0.00000000000E+00 0.  1.
         11    1    3    3    0    0  0.30912544803E+01  0.60324590692E+01  0.22243040255E+01  0.71339992530E+01  0.51100000000E-03 0. -1.
        -11    1    3    3    0    0 -0.20393115692E+01 -0.36518533355E+00 -0.48554656081E+00  0.21278880910E+01  0.51100000000E-03 0.  1.
        -12    1    3    3    0    0  0.21228973949E+02  0.20504044997E+02  0.24761215545E+02  0.38525355176E+02  0.00000000000E+00 0.  1.
</event>
<event>
 7    1  0.2685294E-009  0.4778727E+02  0.7816164E-02  0.1312668E+00
        -11   -1    0    0    0    0  0.00000000000E+00  0.00000000000E+00  0.45593999997E+02  0.45594000000E+02  0.51100000000E-03 0.  1.
         11   -1    0    0    0    0 -0.00000000000E+00 -0.00000000000E+00 -0.45593999997E+02  0.45594000000E+02  0.51100000000E-03 0. -1.
    9900012    2    1    2    0    0 -0.42408412192E+02  0.19516209165E+01  0.90189303741E+01  0.47787270122E+02  0.19999995796E+02 0.  0.
        -12    1    1    2    0    0  0.42408412192E+02 -0.19516209165E+01 -0.90189303741E+01  0.43400729878E+02  0.00000000000E+00 0.  1.
         11    1    3    3    0    0 -0.20172344340E+02 -0.55030094397E+00  0.13509314478E+02  0.24284313563E+02  0.51100000000E-03 0. -1.
        -11    1    3    3    0    0 -0.11037234505E+02 -0.15812504116E+01 -0.22035844280E+01  0.11365592064E+02  0.51100000000E-03 0.  1.
         12    1    3    3    0    0 -0.11198833346E+02  0.40831722721E+01 -0.22867996760E+01  0.12137364495E+02  0.00000000000E+00 0. -1.
</event>
<event>
 7    1  0.2685294E-009  0.4778727E+02  0.7816164E-02  0.1312668E+00
        -11   -1    0    0    0    0  0.00000000000E+00  0.00000000000E+00  0.45593999997E+02  0.45594000000E+02  0.51100000000E-03 0.  1.
         11   -1    0    0    0    0 -0.00000000000E+00 -0.00000000000E+00 -0.45593999997E+02  0.45594000000E+02  0.51100000000E-03 0. -1.
    9900012    2    1    2    0    0 -0.39060230443E+02 -0.18266222156E+02 -0.49261105712E+01  0.47787273745E+02  0.20000012314E+02 0.  0.
        -12    1    1    2    0    0  0.39060230443E+02  0.18266222156E+02  0.49261105712E+01  0.43400726255E+02  0.00000000000E+00 0.  1.
         11    1    3    3    0    0 -0.32723709832E+02 -0.13617263565E+02 -0.98572013786E+01  0.36789067282E+02  0.51100000000E-03 0. -1.
        -11    1    3    3    0    0 -0.38851059049E+01 -0.34015437427E+01  0.61150704454E+01  0.80036638198E+01  0.51100000000E-03 0.  1.
        -12    1    3    3    0    0 -0.24514147058E+01 -0.12474148476E+01 -0.11839796380E+01  0.29945426437E+01  0.00000000000E+00 0.  1.
</event>
<event>
 7    1  0.2685294E-009  0.4778726E+02  0.7816164E-02  0.1312668E+00
        -11   -1    0    0    0    0  0.00000000000E+00  0.00000000000E+00  0.45593999997E+02  0.45594000000E+02  0.51100000000E-03 0.  1.
         11   -1    0    0    0    0 -0.00000000000E+00 -0.00000000000E+00 -0.45593999997E+02  0.45594000000E+02  0.51100000000E-03 0. -1.
    9900012    2    1    2    0    0 -0.13902433074E+02 -0.32752132292E+02 -0.24852446816E+02  0.47787263511E+02  0.19999965653E+02 0.  0.
        -12    1    1    2    0    0  0.13902433074E+02  0.32752132292E+02  0.24852446816E+02  0.43400736489E+02  0.00000000000E+00 0.  1.
         11    1    3    3    0    0 -0.13370370989E+02 -0.11304001806E+02 -0.65937184114E+01  0.18708939039E+02  0.51100000000E-03 0. -1.
        -11    1    3    3    0    0  0.17471262653E+01 -0.12410558219E+02 -0.66403675384E+01  0.14183401806E+02  0.51100000000E-03 0.  1.
         12    1    3    3    0    0 -0.22791883507E+01 -0.90375722669E+01 -0.11618360866E+02  0.14894922666E+02  0.00000000000E+00 0. -1.
</event>
<event>
 7    1  0.3487604E-009  0.4778730E+02  0.7816164E-02  0.1312668E+00
        -11   -1    0    0    0    0  0.00000000000E+00  0.00000000000E+00  0.45593999997E+02  0.45594000000E+02  0.51100000000E-03 0.  1.
         11   -1    0    0    0    0 -0.00000000000E+00 -0.00000000000E+00 -0.45593999997E+02  0.45594000000E+02  0.51100000000E-03 0. -1.
    9900012    2    1    2    0    0  0.17207257708E+02  0.30426198914E+02 -0.25725043568E+02  0.47787295343E+02  0.20000110786E+02 0.  0.
        -12    1    1    2    0    0 -0.17207257708E+02 -0.30426198914E+02  0.25725043568E+02  0.43400704657E+02  0.00000000000E+00 0.  1.
         11    1    3    3    0    0  0.12872123225E+02  0.26431763030E+02 -0.16792682687E+02  0.33857404586E+02  0.51100000000E-03 0. -1.
        -11    1    3    3    0    0  0.41560367316E+00  0.19416311969E+01 -0.92815567235E+01  0.94915727670E+01  0.51100000000E-03 0.  1.
        -12    1    3    3    0    0  0.39195308091E+01  0.20528046867E+01  0.34919584222E+00  0.44383179902E+01  0.00000000000E+00 0.  1.
</event>
<event>
 7    1  0.2685294E-009  0.4778724E+02  0.7816164E-02  0.1312668E+00
        -11   -1    0    0    0    0  0.00000000000E+00  0.00000000000E+00  0.45593999997E+02  0.45594000000E+02  0.51100000000E-03 0.  1.
         11   -1    0    0    0    0 -0.00000000000E+00 -0.00000000000E+00 -0.45593999997E+02  0.45594000000E+02  0.51100000000E-03 0. -1.
    9900012    2    1    2    0    0 -0.16017710633E+02 -0.12066228631E+02 -0.38489800786E+02  0.47787243188E+02  0.19999872990E+02 0.  0.
        -12    1    1    2    0    0  0.16017710633E+02  0.12066228631E+02  0.38489800786E+02  0.43400756812E+02  0.00000000000E+00 0.  1.
         11    1    3    3    0    0  0.15134282632E+01 -0.53095044026E+01 -0.28131420302E+01  0.61963755900E+01  0.51100000000E-03 0. -1.
        -11    1    3    3    0    0  0.12758668386E+01  0.17557501115E+00 -0.15720003818E+01  0.20322028038E+01  0.51100000000E-03 0.  1.
         12    1    3    3    0    0 -0.18807005735E+02 -0.69322992391E+01 -0.34104658374E+02  0.39558664794E+02  0.00000000000E+00 0. -1.
</event>
<event>
 7    1  0.2685294E-009  0.4778727E+02  0.7816164E-02  0.1312668E+00
        -11   -1    0    0    0    0  0.00000000000E+00  0.00000000000E+00  0.45593999997E+02  0.45594000000E+02  0.51100000000E-03 0. -1.
         11   -1    0    0    0    0 -0.00000000000E+00 -0.00000000000E+00 -0.45593999997E+02  0.45594000000E+02  0.51100000000E-03 0.  1.
    9900012    2    1    2    0    0 -0.29269161896E+02 -0.20478074531E+02  0.24649294989E+02  0.47787272839E+02  0.20000008184E+02 0.  0.
        -12    1    1    2    0    0  0.29269161896E+02  0.20478074531E+02 -0.24649294989E+02  0.43400727161E+02  0.00000000000E+00 0.  1.
         11    1    3    3    0    0 -0.11240422222E+02 -0.12302736194E+02  0.76279449589E+00  0.16681914318E+02  0.51100000000E-03 0. -1.
        -11    1    3    3    0    0 -0.69582797840E+01 -0.43654441739E+01  0.96163185751E+01  0.12647068577E+02  0.51100000000E-03 0.  1.
         12    1    3    3    0    0 -0.11070459890E+02 -0.38098941624E+01  0.14270181918E+02  0.18458289945E+02  0.00000000000E+00 0. -1.
</event>
<event>
 7    1  0.2685294E-009  0.4778727E+02  0.7816164E-02  0.1312668E+00
        -11   -1    0    0    0    0  0.00000000000E+00  0.00000000000E+00  0.45593999997E+02  0.45594000000E+02  0.51100000000E-03 0.  1.
         11   -1    0    0    0    0 -0.00000000000E+00 -0.00000000000E+00 -0.45593999997E+02  0.45594000000E+02  0.51100000000E-03 0. -1.
    9900012    2    1    2    0    0 -0.81277918479E+01  0.73345286778E+01 -0.41997223216E+02  0.47787273403E+02  0.20000010754E+02 0.  0.
        -12    1    1    2    0    0  0.81277918479E+01 -0.73345286778E+01  0.41997223216E+02  0.43400726597E+02  0.00000000000E+00 0.  1.
         11    1    3    3    0    0 -0.70772038046E+01  0.81356843137E+01 -0.40261304106E+02  0.41680316476E+02  0.51100000000E-03 0. -1.
        -11    1    3    3    0    0  0.23297825186E+01  0.16567164259E+00 -0.59029190818E+00  0.24091032512E+01  0.51100000000E-03 0.  1.
         12    1    3    3    0    0 -0.33803705619E+01 -0.96682727851E+00 -0.11456272019E+01  0.36978536759E+01  0.00000000000E+00 0. -1.
</event>
<event>
 7    1  0.2685294E-009  0.4778727E+02  0.7816164E-02  0.1312668E+00
        -11   -1    0    0    0    0  0.00000000000E+00  0.00000000000E+00  0.45593999997E+02  0.45594000000E+02  0.51100000000E-03 0. -1.
         11   -1    0    0    0    0 -0.00000000000E+00 -0.00000000000E+00 -0.45593999997E+02  0.45594000000E+02  0.51100000000E-03 0.  1.
    9900012    2    1    2    0    0 -0.23053446272E+02  0.36742228418E+02  0.14732876173E+01  0.47787270622E+02  0.19999998073E+02 0.  0.
        -12    1    1    2    0    0  0.23053446272E+02 -0.36742228418E+02 -0.14732876173E+01  0.43400729378E+02  0.00000000000E+00 0.  1.
         11    1    3    3    0    0 -0.22723669394E+02  0.25709053954E+02  0.35045344948E+01  0.34490612755E+02  0.51100000000E-03 0. -1.
        -11    1    3    3    0    0 -0.88258955126E+00  0.50603368662E+01 -0.44817552129E+01  0.68170450758E+01  0.51100000000E-03 0.  1.
         12    1    3    3    0    0  0.55281267236E+00  0.59728375980E+01  0.24505083354E+01  0.64796127912E+01  0.00000000000E+00 0. -1.
</event>
<event>
 7    1  0.2685294E-009  0.4778727E+02  0.7816164E-02  0.1312668E+00
        -11   -1    0    0    0    0  0.00000000000E+00  0.00000000000E+00  0.45593999997E+02  0.45594000000E+02  0.51100000000E-03 0.  1.
         11   -1    0    0    0    0 -0.00000000000E+00 -0.00000000000E+00 -0.45593999997E+02  0.45594000000E+02  0.51100000000E-03 0. -1.
    9900012    2    1    2    0    0  0.26967499838E+02  0.16270888838E+02 -0.29860269895E+02  0.47787267411E+02  0.19999983433E+02 0.  0.
        -12    1    1    2    0    0 -0.26967499838E+02 -0.16270888838E+02  0.29860269895E+02  0.43400732589E+02  0.00000000000E+00 0.  1.
         11    1    3    3    0    0  0.21793788569E+02  0.17996386475E+02 -0.24205013709E+02  0.37211850737E+02  0.51100000000E-03 0. -1.
        -11    1    3    3    0    0 -0.28411709337E+00 -0.16399725998E+01 -0.47617736759E+01  0.50442761079E+01  0.51100000000E-03 0.  1.
         12    1    3    3    0    0  0.54578283628E+01 -0.85525036621E-01 -0.89348250945E+00  0.55311405663E+01  0.00000000000E+00 0. -1.
</event>
<event>
 7    1  0.2685294E-009  0.4778727E+02  0.7816164E-02  0.1312668E+00
        -11   -1    0    0    0    0  0.00000000000E+00  0.00000000000E+00  0.45593999997E+02  0.45594000000E+02  0.51100000000E-03 0.  1.
         11   -1    0    0    0    0 -0.00000000000E+00 -0.00000000000E+00 -0.45593999997E+02  0.45594000000E+02  0.51100000000E-03 0. -1.
    9900012    2    1    2    0    0  0.35875929612E+01  0.12799708570E+02 -0.41314888221E+02  0.47787270151E+02  0.19999995925E+02 0.  0.
        -12    1    1    2    0    0 -0.35875929612E+01 -0.12799708570E+02  0.41314888221E+02  0.43400729849E+02  0.00000000000E+00 0.  1.
         11    1    3    3    0    0 -0.44152500131E+01  0.37302445771E+01 -0.19466645623E+02  0.20306635599E+02  0.51100000000E-03 0. -1.
        -11    1    3    3    0    0  0.81266901242E+01  0.11304786687E+02 -0.15949774982E+02  0.21171599294E+02  0.51100000000E-03 0.  1.
        -12    1    3    3    0    0 -0.12384714983E+00 -0.22353226946E+01 -0.58984676155E+01  0.63090352572E+01  0.00000000000E+00 0.  1.
</event>
<event>
 7    1  0.2685294E-009  0.4778728E+02  0.7816164E-02  0.1312668E+00
        -11   -1    0    0    0    0  0.00000000000E+00  0.00000000000E+00  0.45593999997E+02  0.45594000000E+02  0.51100000000E-03 0. -1.
         11   -1    0    0    0    0 -0.00000000000E+00 -0.00000000000E+00 -0.45593999997E+02  0.45594000000E+02  0.51100000000E-03 0.  1.
    9900012    2    1    2    0    0  0.92380690475E+01  0.27267471025E+02  0.32477156443E+02  0.47787278964E+02  0.20000036108E+02 0.  0.
        -12    1    1    2    0    0 -0.92380690475E+01 -0.27267471025E+02 -0.32477156443E+02  0.43400721036E+02  0.00000000000E+00 0.  1.
         11    1    3    3    0    0  0.90747867209E+01  0.15407007916E+02  0.11884318419E+02  0.21470087831E+02  0.51100000000E-03 0. -1.
        -11    1    3    3    0    0 -0.28400457009E+01  0.27700281153E+00  0.97846775072E+01  0.10192276700E+02  0.51100000000E-03 0.  1.
        -12    1    3    3    0    0  0.30033280274E+01  0.11583460298E+02  0.10808160517E+02  0.16124914433E+02  0.00000000000E+00 0.  1.
</event>
<event>
 7    1  0.2685294E-009  0.4778727E+02  0.7816164E-02  0.1312668E+00
        -11   -1    0    0    0    0  0.00000000000E+00  0.00000000000E+00  0.45593999997E+02  0.45594000000E+02  0.51100000000E-03 0.  1.
         11   -1    0    0    0    0 -0.00000000000E+00 -0.00000000000E+00 -0.45593999997E+02  0.45594000000E+02  0.51100000000E-03 0. -1.
    9900012    2    1    2    0    0  0.20772583022E+02 -0.21514835131E+02 -0.31452113448E+02  0.47787265254E+02  0.19999973599E+02 0.  0.
        -12    1    1    2    0    0 -0.20772583022E+02  0.21514835131E+02  0.31452113448E+02  0.43400734746E+02  0.00000000000E+00 0.  1.
         11    1    3    3    0    0  0.12813755563E+02 -0.76611087012E+01 -0.64664497602E+01  0.16269600208E+02  0.51100000000E-03 0. -1.
        -11    1    3    3    0    0 -0.23351695232E+01 -0.18099935022E+01 -0.67028999139E+01  0.73251594315E+01  0.51100000000E-03 0.  1.
         12    1    3    3    0    0  0.10293996983E+02 -0.12043732928E+02 -0.18282763774E+02  0.24192505615E+02  0.00000000000E+00 0. -1.
</event>
<event>
 7    1  0.2685294E-009  0.4778727E+02  0.7816164E-02  0.1312668E+00
        -11   -1    0    0    0    0  0.00000000000E+00  0.00000000000E+00  0.45593999997E+02  0.45594000000E+02  0.51100000000E-03 0.  1.
         11   -1    0    0    0    0 -0.00000000000E+00 -0.00000000000E+00 -0.45593999997E+02  0.45594000000E+02  0.51100000000E-03 0. -1.
    9900012    2    1    2    0    0 -0.30233795465E+02 -0.30066257527E+02 -0.80969682924E+01  0.47787272755E+02  0.20000007798E+02 0.  0.
        -12    1    1    2    0    0  0.30233795465E+02  0.30066257527E+02  0.80969682924E+01  0.43400727245E+02  0.00000000000E+00 0.  1.
         11    1    3    3    0    0 -0.11768193246E+02 -0.53113835694E+01 -0.31547210549E+01  0.13291103524E+02  0.51100000000E-03 0. -1.
        -11    1    3    3    0    0 -0.89984233404E+00 -0.12355905132E+02 -0.38272515879E+01  0.12966339608E+02  0.51100000000E-03 0.  1.
        -12    1    3    3    0    0 -0.17565759885E+02 -0.12398968826E+02 -0.11149956497E+01  0.21529829623E+02  0.00000000000E+00 0.  1.
</event>
<event>
 7    1  0.2685294E-009  0.4778727E+02  0.7816164E-02  0.1312668E+00
        -11   -1    0    0    0    0  0.00000000000E+00  0.00000000000E+00  0.45593999997E+02  0.45594000000E+02  0.51100000000E-03 0.  1.
         11   -1    0    0    0    0 -0.00000000000E+00 -0.00000000000E+00 -0.45593999997E+02  0.45594000000E+02  0.51100000000E-03 0. -1.
    9900012    2    1    2    0    0 -0.16068520686E+02  0.40313463874E+02  0.50044139591E+00  0.47787272262E+02  0.20000005553E+02 0.  0.
        -12    1    1    2    0    0  0.16068520686E+02 -0.40313463874E+02 -0.50044139591E+00  0.43400727738E+02  0.00000000000E+00 0.  1.
         11    1    3    3    0    0 -0.15253322103E+02  0.34587451642E+02 -0.19753626129E+01  0.37853106927E+02  0.51100000000E-03 0. -1.
        -11    1    3    3    0    0 -0.24635114963E+01  0.39941074108E+01  0.47194071641E+01  0.66554178789E+01  0.51100000000E-03 0.  1.
         12    1    3    3    0    0  0.16483129130E+01  0.17319048206E+01 -0.22436031553E+01  0.32787474568E+01  0.00000000000E+00 0. -1.
</event>
<event>
 7    1  0.2685294E-009  0.4778727E+02  0.7816164E-02  0.1312668E+00
        -11   -1    0    0    0    0  0.00000000000E+00  0.00000000000E+00  0.45593999997E+02  0.45594000000E+02  0.51100000000E-03 0.  1.
         11   -1    0    0    0    0 -0.00000000000E+00 -0.00000000000E+00 -0.45593999997E+02  0.45594000000E+02  0.51100000000E-03 0. -1.
    9900012    2    1    2    0    0 -0.31674604517E+02 -0.26601903107E+02 -0.13140833757E+02  0.47787270374E+02  0.19999996945E+02 0.  0.
        -12    1    1    2    0    0  0.31674604517E+02  0.26601903107E+02  0.13140833757E+02  0.43400729626E+02  0.00000000000E+00 0.  1.
         11    1    3    3    0    0 -0.24874700770E+02 -0.23374057066E+02 -0.10279025440E+02  0.35647659760E+02  0.51100000000E-03 0. -1.
        -11    1    3    3    0    0 -0.22395162491E+01 -0.52751398765E+00 -0.56862379769E+01  0.61340856391E+01  0.51100000000E-03 0.  1.
         12    1    3    3    0    0 -0.45603874975E+01 -0.27003320529E+01  0.28244296593E+01  0.60055249748E+01  0.00000000000E+00 0. -1.
</event>
<event>
 7    1  0.2685294E-009  0.4778727E+02  0.7816164E-02  0.1312668E+00
        -11   -1    0    0    0    0  0.00000000000E+00  0.00000000000E+00  0.45593999997E+02  0.45594000000E+02  0.51100000000E-03 0.  1.
         11   -1    0    0    0    0 -0.00000000000E+00 -0.00000000000E+00 -0.45593999997E+02  0.45594000000E+02  0.51100000000E-03 0. -1.
    9900012    2    1    2    0    0  0.43090169556E+02 -0.22133071270E+01 -0.46863396583E+01  0.47787271663E+02  0.20000002819E+02 0.  0.
        -12    1    1    2    0    0 -0.43090169556E+02  0.22133071270E+01  0.46863396583E+01  0.43400728337E+02  0.00000000000E+00 0.  1.
         11    1    3    3    0    0  0.19573248419E+02  0.70365904787E+01 -0.43208765001E+01  0.21243719854E+02  0.51100000000E-03 0. -1.
        -11    1    3    3    0    0  0.79684468915E+01 -0.69417045066E+01 -0.19449688917E+01  0.10745525188E+02  0.51100000000E-03 0.  1.
         12    1    3    3    0    0  0.15548474246E+02 -0.23081930992E+01  0.15795057335E+01  0.15798026621E+02  0.00000000000E+00 0. -1.
</event>
<event>
 7    1  0.2685294E-009  0.4778723E+02  0.7816164E-02  0.1312668E+00
        -11   -1    0    0    0    0  0.00000000000E+00  0.00000000000E+00  0.45593999997E+02  0.45594000000E+02  0.51100000000E-03 0.  1.
         11   -1    0    0    0    0 -0.00000000000E+00 -0.00000000000E+00 -0.45593999997E+02  0.45594000000E+02  0.51100000000E-03 0. -1.
    9900012    2    1    2    0    0 -0.36020342760E+02  0.21617987851E+02 -0.10900674834E+02  0.47787225777E+02  0.19999793608E+02 0.  0.
        -12    1    1    2    0    0  0.36020342760E+02 -0.21617987851E+02  0.10900674834E+02  0.43400774223E+02  0.00000000000E+00 0.  1.
         11    1    3    3    0    0 -0.21669421178E+02  0.50941753620E+01 -0.73572226779E+01  0.23444469765E+02  0.51100000000E-03 0. -1.
        -11    1    3    3    0    0 -0.14085627315E+02  0.16737496262E+02 -0.11295094221E+01  0.21904896023E+02  0.51100000000E-03 0.  1.
        -12    1    3    3    0    0 -0.26529426822E+00 -0.21368377302E+00 -0.24139427340E+01  0.24378599892E+01  0.00000000000E+00 0.  1.
</event>
<event>
 7    1  0.2685294E-009  0.4778727E+02  0.7816164E-02  0.1312668E+00
        -11   -1    0    0    0    0  0.00000000000E+00  0.00000000000E+00  0.45593999997E+02  0.45594000000E+02  0.51100000000E-03 0.  1.
         11   -1    0    0    0    0 -0.00000000000E+00 -0.00000000000E+00 -0.45593999997E+02  0.45594000000E+02  0.51100000000E-03 0. -1.
    9900012    2    1    2    0    0  0.36348204910E+02  0.16577954952E+02  0.16958857072E+02  0.47787269317E+02  0.19999992126E+02 0.  0.
        -12    1    1    2    0    0 -0.36348204910E+02 -0.16577954952E+02 -0.16958857072E+02  0.43400730683E+02  0.00000000000E+00 0.  1.
         11    1    3    3    0    0  0.15321986183E+02  0.18147466562E+01  0.81008410322E+01  0.17426422229E+02  0.51100000000E-03 0. -1.
        -11    1    3    3    0    0  0.19931161273E+02  0.17224205801E+02  0.78921484963E+01  0.27499281142E+02  0.51100000000E-03 0.  1.
        -12    1    3    3    0    0  0.10950574540E+01 -0.24609975060E+01  0.96586754383E+00  0.28615659461E+01  0.00000000000E+00 0.  1.
</event>
<event>
 7    1  0.2685294E-009  0.4778726E+02  0.7816164E-02  0.1312668E+00
        -11   -1    0    0    0    0  0.00000000000E+00  0.00000000000E+00  0.45593999997E+02  0.45594000000E+02  0.51100000000E-03 0.  1.
         11   -1    0    0    0    0 -0.00000000000E+00 -0.00000000000E+00 -0.45593999997E+02  0.45594000000E+02  0.51100000000E-03 0. -1.
    9900012    2    1    2    0    0 -0.34361833253E+02  0.15172667908E+02 -0.21741169176E+02  0.47787264141E+02  0.19999968526E+02 0.  0.
        -12    1    1    2    0    0  0.34361833253E+02 -0.15172667908E+02  0.21741169176E+02  0.43400735859E+02  0.00000000000E+00 0.  1.
         11    1    3    3    0    0 -0.23733239882E+02  0.85125595872E+01 -0.11013322103E+02  0.27514062042E+02  0.51100000000E-03 0. -1.
        -11    1    3    3    0    0  0.16374692172E+00 -0.24776285027E+01  0.65063769126E-01  0.24838859891E+01  0.51100000000E-03 0.  1.
        -12    1    3    3    0    0 -0.10792340292E+02  0.91377368235E+01 -0.10792910842E+02  0.17789316111E+02  0.00000000000E+00 0.  1.
</event>
<event>
 7    1  0.2685294E-009  0.4778727E+02  0.7816164E-02  0.1312668E+00
        -11   -1    0    0    0    0  0.00000000000E+00  0.00000000000E+00  0.45593999997E+02  0.45594000000E+02  0.51100000000E-03 0.  1.
         11   -1    0    0    0    0 -0.00000000000E+00 -0.00000000000E+00 -0.45593999997E+02  0.45594000000E+02  0.51100000000E-03 0. -1.
    9900012    2    1    2    0    0 -0.24226484140E+02 -0.33538760543E+02 -0.13109263866E+02  0.47787265079E+02  0.19999972802E+02 0.  0.
        -12    1    1    2    0    0  0.24226484140E+02  0.33538760543E+02  0.13109263866E+02  0.43400734921E+02  0.00000000000E+00 0.  1.
         11    1    3    3    0    0 -0.11027744046E+02 -0.16141410578E+02 -0.14118736833E+02  0.24114207518E+02  0.51100000000E-03 0. -1.
        -11    1    3    3    0    0 -0.11535820318E+02 -0.89020302018E+01  0.27883210939E+01  0.14835633687E+02  0.51100000000E-03 0.  1.
        -12    1    3    3    0    0 -0.16629197754E+01 -0.84953197640E+01 -0.17788481269E+01  0.88374238741E+01  0.00000000000E+00 0.  1.
</event>
<event>
 7    1  0.2685294E-009  0.4778727E+02  0.7816164E-02  0.1312668E+00
        -11   -1    0    0    0    0  0.00000000000E+00  0.00000000000E+00  0.45593999997E+02  0.45594000000E+02  0.51100000000E-03 0.  1.
         11   -1    0    0    0    0 -0.00000000000E+00 -0.00000000000E+00 -0.45593999997E+02  0.45594000000E+02  0.51100000000E-03 0. -1.
    9900012    2    1    2    0    0  0.29170639947E+02 -0.13092138166E+02 -0.29347798860E+02  0.47787267119E+02  0.19999982103E+02 0.  0.
        -12    1    1    2    0    0 -0.29170639947E+02  0.13092138166E+02  0.29347798860E+02  0.43400732881E+02  0.00000000000E+00 0.  1.
         11    1    3    3    0    0  0.18010624356E+02 -0.47194287191E+01 -0.14583463544E+02  0.23650222120E+02  0.51100000000E-03 0. -1.
        -11    1    3    3    0    0  0.87275194675E+01  0.37771610619E+00 -0.29187487287E+01  0.92103941237E+01  0.51100000000E-03 0.  1.
         12    1    3    3    0    0  0.24324961233E+01 -0.87504255534E+01 -0.11845586587E+02  0.14926650875E+02  0.00000000000E+00 0. -1.
</event>
<event>
 7    1  0.2685294E-009  0.4778726E+02  0.7816164E-02  0.1312668E+00
        -11   -1    0    0    0    0  0.00000000000E+00  0.00000000000E+00  0.45593999997E+02  0.45594000000E+02  0.51100000000E-03 0. -1.
         11   -1    0    0    0    0 -0.00000000000E+00 -0.00000000000E+00 -0.45593999997E+02  0.45594000000E+02  0.51100000000E-03 0.  1.
    9900012    2    1    2    0    0 -0.25772655024E+02  0.34905750852E+02  0.99128511565E+00  0.47787264572E+02  0.19999970487E+02 0.  0.
        -12    1    1    2    0    0  0.25772655024E+02 -0.34905750852E+02 -0.99128511565E+00  0.43400735428E+02  0.00000000000E+00 0.  1.
         11    1    3    3    0    0 -0.20543319195E+02  0.29047686640E+02  0.23942348808E+01  0.35658497215E+02  0.51100000000E-03 0. -1.
        -11    1    3    3    0    0  0.85347472394E+00  0.35133215313E+01 -0.37414830279E+01  0.52029359784E+01  0.51100000000E-03 0.  1.
         12    1    3    3    0    0 -0.60828105523E+01  0.23447426809E+01  0.23385332627E+01  0.69258313779E+01  0.00000000000E+00 0. -1.
</event>
<event>
 7    1  0.2685294E-009  0.4778727E+02  0.7816164E-02  0.1312668E+00
        -11   -1    0    0    0    0  0.00000000000E+00  0.00000000000E+00  0.45593999997E+02  0.45594000000E+02  0.51100000000E-03 0.  1.
         11   -1    0    0    0    0 -0.00000000000E+00 -0.00000000000E+00 -0.45593999997E+02  0.45594000000E+02  0.51100000000E-03 0. -1.
    9900012    2    1    2    0    0 -0.12600897726E+02  0.33897645658E+02 -0.23995631026E+02  0.47787270593E+02  0.19999997944E+02 0.  0.
        -12    1    1    2    0    0  0.12600897726E+02 -0.33897645658E+02  0.23995631026E+02  0.43400729407E+02  0.00000000000E+00 0.  1.
         11    1    3    3    0    0 -0.42105678215E+00  0.23310021098E+02 -0.81261394631E+01  0.24689441372E+02  0.51100000000E-03 0. -1.
        -11    1    3    3    0    0 -0.92536583900E+01  0.94714945523E+01 -0.14622022327E+02  0.19726706259E+02  0.51100000000E-03 0.  1.
        -12    1    3    3    0    0 -0.29261825536E+01  0.11161300075E+01 -0.12474692365E+01  0.33711229623E+01  0.00000000000E+00 0.  1.
</event>
<event>
 7    1  0.2685294E-009  0.4778727E+02  0.7816164E-02  0.1312668E+00
        -11   -1    0    0    0    0  0.00000000000E+00  0.00000000000E+00  0.45593999997E+02  0.45594000000E+02  0.51100000000E-03 0.  1.
         11   -1    0    0    0    0 -0.00000000000E+00 -0.00000000000E+00 -0.45593999997E+02  0.45594000000E+02  0.51100000000E-03 0. -1.
    9900012    2    1    2    0    0  0.32962862558E+02  0.14145615523E+02 -0.24433070575E+02  0.47787266317E+02  0.19999978444E+02 0.  0.
        -12    1    1    2    0    0 -0.32962862558E+02 -0.14145615523E+02  0.24433070575E+02  0.43400733683E+02  0.00000000000E+00 0.  1.
         11    1    3    3    0    0 -0.15673273855E+01  0.87206238361E+00 -0.62530688545E+00  0.18994780589E+01  0.51100000000E-03 0.  1.
        -11    1    3    3    0    0  0.29101298432E+02  0.10320629231E+02 -0.24831843436E+02  0.39623495641E+02  0.51100000000E-03 0. -1.
        -12    1    3    3    0    0  0.54288915114E+01  0.29529239088E+01  0.10240797466E+01  0.62642926162E+01  0.00000000000E+00 0.  1.
</event>
<event>
 7    1  0.2685294E-009  0.4778728E+02  0.7816164E-02  0.1312668E+00
        -11   -1    0    0    0    0  0.00000000000E+00  0.00000000000E+00  0.45593999997E+02  0.45594000000E+02  0.51100000000E-03 0.  1.
         11   -1    0    0    0    0 -0.00000000000E+00 -0.00000000000E+00 -0.45593999997E+02  0.45594000000E+02  0.51100000000E-03 0. -1.
    9900012    2    1    2    0    0  0.27879881675E+02  0.33239582255E+02 -0.12103308379E+01  0.47787279598E+02  0.20000038998E+02 0.  0.
        -12    1    1    2    0    0 -0.27879881675E+02 -0.33239582255E+02  0.12103308379E+01  0.43400720402E+02  0.00000000000E+00 0.  1.
         11    1    3    3    0    0  0.82473570056E+01  0.15947259126E+02  0.16835600839E+01  0.18032424851E+02  0.51100000000E-03 0. -1.
        -11    1    3    3    0    0 -0.17834267061E+01  0.11231982630E+01 -0.20000818504E+01  0.29056002518E+01  0.51100000000E-03 0.  1.
        -12    1    3    3    0    0  0.21415951376E+02  0.16169124866E+02 -0.89380907145E+00  0.26849254495E+02  0.00000000000E+00 0.  1.
</event>
<event>
 7    1  0.2685294E-009  0.4778727E+02  0.7816164E-02  0.1312668E+00
        -11   -1    0    0    0    0  0.00000000000E+00  0.00000000000E+00  0.45593999997E+02  0.45594000000E+02  0.51100000000E-03 0.  1.
         11   -1    0    0    0    0 -0.00000000000E+00 -0.00000000000E+00 -0.45593999997E+02  0.45594000000E+02  0.51100000000E-03 0. -1.
    9900012    2    1    2    0    0  0.22569041026E+02  0.79704477871E+00 -0.37062465962E+02  0.47787271016E+02  0.19999999869E+02 0.  0.
        -12    1    1    2    0    0 -0.22569041026E+02 -0.79704477871E+00  0.37062465962E+02  0.43400728984E+02  0.00000000000E+00 0.  1.
         11    1    3    3    0    0  0.21906327095E+02 -0.46788593038E-01 -0.32906440394E+02  0.39531293625E+02  0.51100000000E-03 0. -1.
        -11    1    3    3    0    0  0.18961117854E+01  0.34932649530E+01 -0.13318308978E+01  0.41918866559E+01  0.51100000000E-03 0.  1.
         12    1    3    3    0    0 -0.12333978546E+01 -0.26494315812E+01 -0.28241946696E+01  0.40640907351E+01  0.00000000000E+00 0. -1.
</event>
<event>
 7    1  0.2685294E-009  0.4778731E+02  0.7816164E-02  0.1312668E+00
        -11   -1    0    0    0    0  0.00000000000E+00  0.00000000000E+00  0.45593999997E+02  0.45594000000E+02  0.51100000000E-03 0. -1.
         11   -1    0    0    0    0 -0.00000000000E+00 -0.00000000000E+00 -0.45593999997E+02  0.45594000000E+02  0.51100000000E-03 0.  1.
    9900012    2    1    2    0    0 -0.34651882545E+02  0.13580091701E+02  0.22325953717E+02  0.47787308025E+02  0.20000168609E+02 0.  0.
        -12    1    1    2    0    0  0.34651882545E+02 -0.13580091701E+02 -0.22325953717E+02  0.43400691975E+02  0.00000000000E+00 0.  1.
         11    1    3    3    0    0 -0.64439812182E+01  0.45031851744E+01  0.14830878756E+02  0.16785664586E+02  0.51100000000E-03 0.  1.
        -11    1    3    3    0    0 -0.17522021003E+02  0.33824951688E+01  0.30568594608E+01  0.18105437957E+02  0.51100000000E-03 0. -1.
        -12    1    3    3    0    0 -0.10685880324E+02  0.56944113578E+01  0.44382155002E+01  0.12896205482E+02  0.00000000000E+00 0.  1.
</event>
<event>
 7    1  0.2685294E-009  0.4778727E+02  0.7816164E-02  0.1312668E+00
        -11   -1    0    0    0    0  0.00000000000E+00  0.00000000000E+00  0.45593999997E+02  0.45594000000E+02  0.51100000000E-03 0.  1.
         11   -1    0    0    0    0 -0.00000000000E+00 -0.00000000000E+00 -0.45593999997E+02  0.45594000000E+02  0.51100000000E-03 0. -1.
    9900012    2    1    2    0    0  0.32883174035E+02  0.84281683094E+01 -0.27042302698E+02  0.47787270849E+02  0.19999999108E+02 0.  0.
        -12    1    1    2    0    0 -0.32883174035E+02 -0.84281683094E+01  0.27042302698E+02  0.43400729151E+02  0.00000000000E+00 0.  1.
         11    1    3    3    0    0  0.14357258589E+02 -0.96402973169E+00 -0.46954495393E+01  0.15136296580E+02  0.51100000000E-03 0. -1.
        -11    1    3    3    0    0  0.15672567107E+02  0.11196512834E+02 -0.22025991704E+02  0.29259794431E+02  0.51100000000E-03 0.  1.
        -12    1    3    3    0    0  0.28533483391E+01 -0.18043147932E+01 -0.32086145467E+00  0.33911798375E+01  0.00000000000E+00 0.  1.
</event>
<event>
 7    1  0.2685294E-009  0.4778727E+02  0.7816164E-02  0.1312668E+00
        -11   -1    0    0    0    0  0.00000000000E+00  0.00000000000E+00  0.45593999997E+02  0.45594000000E+02  0.51100000000E-03 0. -1.
         11   -1    0    0    0    0 -0.00000000000E+00 -0.00000000000E+00 -0.45593999997E+02  0.45594000000E+02  0.51100000000E-03 0.  1.
    9900012    2    1    2    0    0 -0.34768497262E+02 -0.84428070114E+01  0.24566112032E+02  0.47787271291E+02  0.20000001125E+02 0.  0.
        -12    1    1    2    0    0  0.34768497262E+02  0.84428070114E+01 -0.24566112032E+02  0.43400728709E+02  0.00000000000E+00 0.  1.
         11    1    3    3    0    0 -0.25960716323E+02 -0.72647075838E+01  0.97516609907E+01  0.28667571586E+02  0.51100000000E-03 0. -1.
        -11    1    3    3    0    0 -0.35008632907E+01  0.35243476396E+01  0.54601408745E+01  0.73817483495E+01  0.51100000000E-03 0.  1.
         12    1    3    3    0    0 -0.53069176486E+01 -0.47024470672E+01  0.93543101665E+01  0.11737951356E+02  0.00000000000E+00 0. -1.
</event>
<event>
 7    1  0.2685294E-009  0.4778726E+02  0.7816164E-02  0.1312668E+00
        -11   -1    0    0    0    0  0.00000000000E+00  0.00000000000E+00  0.45593999997E+02  0.45594000000E+02  0.51100000000E-03 0.  1.
         11   -1    0    0    0    0 -0.00000000000E+00 -0.00000000000E+00 -0.45593999997E+02  0.45594000000E+02  0.51100000000E-03 0. -1.
    9900012    2    1    2    0    0 -0.53195581755E+01  0.28257457083E+02 -0.32509116901E+02  0.47787259664E+02  0.19999948114E+02 0.  0.
        -12    1    1    2    0    0  0.53195581755E+01 -0.28257457083E+02  0.32509116901E+02  0.43400740336E+02  0.00000000000E+00 0.  1.
         11    1    3    3    0    0  0.65229583089E+01  0.60010134057E+01 -0.83465539443E+01  0.12174814578E+02  0.51100000000E-03 0. -1.
        -11    1    3    3    0    0 -0.54885728177E+01  0.60781827027E+01 -0.11454492037E+02  0.14080984505E+02  0.51100000000E-03 0.  1.
         12    1    3    3    0    0 -0.63539436667E+01  0.16178260974E+02 -0.12708070920E+02  0.21531460582E+02  0.00000000000E+00 0. -1.
</event>
<event>
 7    1  0.2685294E-009  0.4778723E+02  0.7816164E-02  0.1312668E+00
        -11   -1    0    0    0    0  0.00000000000E+00  0.00000000000E+00  0.45593999997E+02  0.45594000000E+02  0.51100000000E-03 0.  1.
         11   -1    0    0    0    0 -0.00000000000E+00 -0.00000000000E+00 -0.45593999997E+02  0.45594000000E+02  0.51100000000E-03 0. -1.
    9900012    2    1    2    0    0  0.18387673640E+02  0.35482312487E+01 -0.39152649942E+02  0.47787234058E+02  0.19999831362E+02 0.  0.
        -12    1    1    2    0    0 -0.18387673640E+02 -0.35482312487E+01  0.39152649942E+02  0.43400765942E+02  0.00000000000E+00 0.  1.
         11    1    3    3    0    0  0.12625484039E+02  0.14584894761E+01 -0.31329461788E+02  0.33809247477E+02  0.51100000000E-03 0. -1.
        -11    1    3    3    0    0 -0.26868863771E+01  0.63419884923E+00 -0.74319815514E+00  0.28590051317E+01  0.51100000000E-03 0.  1.
         12    1    3    3    0    0  0.84490759776E+01  0.14555429234E+01 -0.70799899995E+01  0.11118981449E+02  0.00000000000E+00 0. -1.
</event>
<event>
 7    1  0.2685294E-009  0.4778726E+02  0.7816164E-02  0.1312668E+00
        -11   -1    0    0    0    0  0.00000000000E+00  0.00000000000E+00  0.45593999997E+02  0.45594000000E+02  0.51100000000E-03 0.  1.
         11   -1    0    0    0    0 -0.00000000000E+00 -0.00000000000E+00 -0.45593999997E+02  0.45594000000E+02  0.51100000000E-03 0. -1.
    9900012    2    1    2    0    0  0.19031134749E+02  0.27643452151E+02 -0.27518711048E+02  0.47787262744E+02  0.19999962153E+02 0.  0.
        -12    1    1    2    0    0 -0.19031134749E+02 -0.27643452151E+02  0.27518711048E+02  0.43400737256E+02  0.00000000000E+00 0.  1.
         11    1    3    3    0    0  0.13606505470E+02  0.26045342514E+02 -0.25364047367E+02  0.38817930867E+02  0.51100000000E-03 0. -1.
        -11    1    3    3    0    0  0.66590837926E+00 -0.19540222256E+01  0.94541329738E+00  0.22705601494E+01  0.51100000000E-03 0.  1.
         12    1    3    3    0    0  0.47587208994E+01  0.35521318635E+01 -0.31000769784E+01  0.66987717267E+01  0.00000000000E+00 0. -1.
</event>
<event>
 7    1  0.2685294E-009  0.4778727E+02  0.7816164E-02  0.1312668E+00
        -11   -1    0    0    0    0  0.00000000000E+00  0.00000000000E+00  0.45593999997E+02  0.45594000000E+02  0.51100000000E-03 0. -1.
         11   -1    0    0    0    0 -0.00000000000E+00 -0.00000000000E+00 -0.45593999997E+02  0.45594000000E+02  0.51100000000E-03 0.  1.
    9900012    2    1    2    0    0 -0.31147008364E+02 -0.30022062310E+02  0.34875393108E+01  0.47787270907E+02  0.19999999372E+02 0.  0.
        -12    1    1    2    0    0  0.31147008364E+02  0.30022062310E+02 -0.34875393108E+01  0.43400729093E+02  0.00000000000E+00 0.  1.
         11    1    3    3    0    0 -0.31973921048E+02 -0.28130870525E+02  0.20731957277E+01  0.42637725602E+02  0.51100000000E-03 0. -1.
        -11    1    3    3    0    0 -0.64046267537E-01  0.10847793055E+01  0.17131521968E+01  0.20287283644E+01  0.51100000000E-03 0.  1.
         12    1    3    3    0    0  0.89095895194E+00 -0.29759710909E+01 -0.29880861379E+00  0.31208169404E+01  0.00000000000E+00 0. -1.
</event>
<event>
 7    1  0.3082691E-009  0.4778728E+02  0.7816164E-02  0.1312668E+00
        -11   -1    0    0    0    0  0.00000000000E+00  0.00000000000E+00  0.45593999997E+02  0.45594000000E+02  0.51100000000E-03 0. -1.
         11   -1    0    0    0    0 -0.00000000000E+00 -0.00000000000E+00 -0.45593999997E+02  0.45594000000E+02  0.51100000000E-03 0.  1.
    9900012    2    1    2    0    0 -0.41993212199E+02  0.48336615578E+01 -0.98401288992E+01  0.47787282360E+02  0.20000051594E+02 0.  0.
        -12    1    1    2    0    0  0.41993212199E+02 -0.48336615578E+01  0.98401288992E+01  0.43400717640E+02  0.00000000000E+00 0.  1.
         11    1    3    3    0    0 -0.17629357698E+02  0.26015500402E+01 -0.43390524228E+01  0.18340929411E+02  0.51100000000E-03 0. -1.
        -11    1    3    3    0    0 -0.85670324623E+01  0.25926562388E+01 -0.95969758334E+01  0.13123180140E+02  0.51100000000E-03 0.  1.
        -12    1    3    3    0    0 -0.15796822039E+02 -0.36054472131E+00  0.40958993570E+01  0.16323172809E+02  0.00000000000E+00 0.  1.
</event>
<event>
 7    1  0.2685294E-009  0.4778727E+02  0.7816164E-02  0.1312668E+00
        -11   -1    0    0    0    0  0.00000000000E+00  0.00000000000E+00  0.45593999997E+02  0.45594000000E+02  0.51100000000E-03 0. -1.
         11   -1    0    0    0    0 -0.00000000000E+00 -0.00000000000E+00 -0.45593999997E+02  0.45594000000E+02  0.51100000000E-03 0.  1.
    9900012    2    1    2    0    0 -0.37977719670E+02 -0.12499216922E+02  0.16884488404E+02  0.47787267706E+02  0.19999984780E+02 0.  0.
        -12    1    1    2    0    0  0.37977719670E+02  0.12499216922E+02 -0.16884488404E+02  0.43400732294E+02  0.00000000000E+00 0.  1.
         11    1    3    3    0    0 -0.27880300831E+02 -0.13334053400E+02  0.16149010576E+02  0.34869738992E+02  0.51100000000E-03 0. -1.
        -11    1    3    3    0    0  0.60634548291E+00  0.19612945176E+01  0.65333815874E+00  0.21543402795E+01  0.51100000000E-03 0.  1.
         12    1    3    3    0    0 -0.10703764321E+02 -0.11264580398E+01  0.82139669311E-01  0.10763188435E+02  0.00000000000E+00 0. -1.
</event>
<event>
 7    1  0.2685294E-009  0.4778728E+02  0.7816164E-02  0.1312668E+00
        -11   -1    0    0    0    0  0.00000000000E+00  0.00000000000E+00  0.45593999997E+02  0.45594000000E+02  0.51100000000E-03 0.  1.
         11   -1    0    0    0    0 -0.00000000000E+00 -0.00000000000E+00 -0.45593999997E+02  0.45594000000E+02  0.51100000000E-03 0. -1.
    9900012    2    1    2    0    0  0.14190509270E+02 -0.56749897962E+01 -0.40620768796E+02  0.47787275120E+02  0.20000018581E+02 0.  0.
        -12    1    1    2    0    0 -0.14190509270E+02  0.56749897962E+01  0.40620768796E+02  0.43400724880E+02  0.00000000000E+00 0.  1.
         11    1    3    3    0    0  0.14348621215E+02 -0.66951020892E+01 -0.17715251691E+02  0.23759997170E+02  0.51100000000E-03 0. -1.
        -11    1    3    3    0    0  0.18011081706E+01  0.16240650790E+01 -0.23742874987E+01  0.33939386280E+01  0.51100000000E-03 0.  1.
         12    1    3    3    0    0 -0.19592201157E+01 -0.60395278605E+00 -0.20531229606E+02  0.20633339322E+02  0.00000000000E+00 0. -1.
</event>
<event>
 7    1  0.2685294E-009  0.4778727E+02  0.7816164E-02  0.1312668E+00
        -11   -1    0    0    0    0  0.00000000000E+00  0.00000000000E+00  0.45593999997E+02  0.45594000000E+02  0.51100000000E-03 0.  1.
         11   -1    0    0    0    0 -0.00000000000E+00 -0.00000000000E+00 -0.45593999997E+02  0.45594000000E+02  0.51100000000E-03 0. -1.
    9900012    2    1    2    0    0 -0.12710929093E+02 -0.38081206357E+02 -0.16488702009E+02  0.47787270859E+02  0.19999999153E+02 0.  0.
        -12    1    1    2    0    0  0.12710929093E+02  0.38081206357E+02  0.16488702009E+02  0.43400729141E+02  0.00000000000E+00 0.  1.
         11    1    3    3    0    0 -0.18286589752E+01 -0.12219920276E+02 -0.41205973472E+01  0.13024967100E+02  0.51100000000E-03 0. -1.
        -11    1    3    3    0    0 -0.98834227340E+00 -0.19425449983E+02 -0.12196280145E+02  0.22958096113E+02  0.51100000000E-03 0.  1.
        -12    1    3    3    0    0 -0.98939278444E+01 -0.64358360987E+01 -0.17182451708E+00  0.11804207646E+02  0.00000000000E+00 0.  1.
</event>
<event>
 7    1  0.2685294E-009  0.4778728E+02  0.7816164E-02  0.1312668E+00
        -11   -1    0    0    0    0  0.00000000000E+00  0.00000000000E+00  0.45593999997E+02  0.45594000000E+02  0.51100000000E-03 0.  1.
         11   -1    0    0    0    0 -0.00000000000E+00 -0.00000000000E+00 -0.45593999997E+02  0.45594000000E+02  0.51100000000E-03 0. -1.
    9900012    2    1    2    0    0  0.16351293723E+02  0.37209959424E+02  0.15220924457E+02  0.47787280788E+02  0.20000044426E+02 0.  0.
        -12    1    1    2    0    0 -0.16351293723E+02 -0.37209959424E+02 -0.15220924457E+02  0.43400719212E+02  0.00000000000E+00 0.  1.
         11    1    3    3    0    0  0.31457188386E+01  0.82839488254E-01  0.39999914275E+00  0.31721300363E+01  0.51100000000E-03 0. -1.
        -11    1    3    3    0    0  0.67656355105E+01  0.34052577420E+02  0.10493439621E+02  0.36269327650E+02  0.51100000000E-03 0.  1.
        -12    1    3    3    0    0  0.64399393743E+01  0.30745425157E+01  0.43274856936E+01  0.83458231022E+01  0.00000000000E+00 0.  1.
</event>
<event>
 7    1  0.2685294E-009  0.4778725E+02  0.7816164E-02  0.1312668E+00
        -11   -1    0    0    0    0  0.00000000000E+00  0.00000000000E+00  0.45593999997E+02  0.45594000000E+02  0.51100000000E-03 0.  1.
         11   -1    0    0    0    0 -0.00000000000E+00 -0.00000000000E+00 -0.45593999997E+02  0.45594000000E+02  0.51100000000E-03 0. -1.
    9900012    2    1    2    0    0 -0.28722517263E+02 -0.11603520540E+02 -0.30397374946E+02  0.47787250116E+02  0.19999904580E+02 0.  0.
        -12    1    1    2    0    0  0.28722517263E+02  0.11603520540E+02  0.30397374946E+02  0.43400749884E+02  0.00000000000E+00 0.  1.
         11    1    3    3    0    0 -0.18673358716E+02  0.12010046781E+01 -0.19936204392E+02  0.27342073510E+02  0.51100000000E-03 0.  1.
        -11    1    3    3    0    0 -0.10946837202E+02 -0.11944844397E+02 -0.90264859080E+01  0.18546967421E+02  0.51100000000E-03 0. -1.
         12    1    3    3    0    0  0.89767865466E+00 -0.85968082113E+00 -0.14346846456E+01  0.18982091859E+01  0.00000000000E+00 0. -1.
</event>
<event>
 7    1  0.2685294E-009  0.4778727E+02  0.7816164E-02  0.1312668E+00
        -11   -1    0    0    0    0  0.00000000000E+00  0.00000000000E+00  0.45593999997E+02  0.45594000000E+02  0.51100000000E-03 0.  1.
         11   -1    0    0    0    0 -0.00000000000E+00 -0.00000000000E+00 -0.45593999997E+02  0.45594000000E+02  0.51100000000E-03 0. -1.
    9900012    2    1    2    0    0 -0.37914436108E+02 -0.69632938245E+01 -0.19940707724E+02  0.47787265550E+02  0.19999974950E+02 0.  0.
        -12    1    1    2    0    0  0.37914436108E+02  0.69632938245E+01  0.19940707724E+02  0.43400734450E+02  0.00000000000E+00 0.  1.
         11    1    3    3    0    0 -0.73773567957E+01 -0.59922511532E+01 -0.13543277855E+02  0.16545478008E+02  0.51100000000E-03 0. -1.
        -11    1    3    3    0    0 -0.14969053314E+02 -0.84115087179E+00 -0.36821596814E+01  0.15438212076E+02  0.51100000000E-03 0.  1.
         12    1    3    3    0    0 -0.15568025998E+02 -0.12989179951E+00 -0.27152701871E+01  0.15803575467E+02  0.00000000000E+00 0. -1.
</event>
<event>
 7    1  0.2685294E-009  0.4778727E+02  0.7816164E-02  0.1312668E+00
        -11   -1    0    0    0    0  0.00000000000E+00  0.00000000000E+00  0.45593999997E+02  0.45594000000E+02  0.51100000000E-03 0.  1.
         11   -1    0    0    0    0 -0.00000000000E+00 -0.00000000000E+00 -0.45593999997E+02  0.45594000000E+02  0.51100000000E-03 0. -1.
    9900012    2    1    2    0    0  0.24694610319E+02 -0.52302738542E+00 -0.35686491314E+02  0.47787274214E+02  0.20000014451E+02 0.  0.
        -12    1    1    2    0    0 -0.24694610319E+02  0.52302738542E+00  0.35686491314E+02  0.43400725786E+02  0.00000000000E+00 0.  1.
         11    1    3    3    0    0  0.25185311125E+02 -0.47161469848E+01 -0.28579143594E+02  0.38383712531E+02  0.51100000000E-03 0. -1.
        -11    1    3    3    0    0 -0.52715974236E+00  0.22777951120E+01 -0.33060701856E+00  0.23612600933E+01  0.51100000000E-03 0.  1.
         12    1    3    3    0    0  0.36458936329E-01  0.19153244874E+01 -0.67767407016E+01  0.70423015898E+01  0.00000000000E+00 0. -1.
</event>
<event>
 7    1  0.2685294E-009  0.4778728E+02  0.7816164E-02  0.1312668E+00
        -11   -1    0    0    0    0  0.00000000000E+00  0.00000000000E+00  0.45593999997E+02  0.45594000000E+02  0.51100000000E-03 0.  1.
         11   -1    0    0    0    0 -0.00000000000E+00 -0.00000000000E+00 -0.45593999997E+02  0.45594000000E+02  0.51100000000E-03 0. -1.
    9900012    2    1    2    0    0  0.29309268703E+02  0.32008984991E+02 -0.11828315055E+00  0.47787281769E+02  0.20000048898E+02 0.  0.
        -12    1    1    2    0    0 -0.29309268703E+02 -0.32008984991E+02  0.11828315055E+00  0.43400718231E+02  0.00000000000E+00 0.  1.
         11    1    3    3    0    0  0.30245894247E+02  0.26863261940E+02 -0.37306581362E+01  0.40624706414E+02  0.51100000000E-03 0. -1.
        -11    1    3    3    0    0  0.43832702977E+00  0.30196368288E+01  0.34784551875E+01  0.46270928146E+01  0.51100000000E-03 0.  1.
         12    1    3    3    0    0 -0.13749525731E+01  0.21260862215E+01  0.13391979818E+00  0.25354825402E+01  0.00000000000E+00 0. -1.
</event>
<event>
 7    1  0.2685294E-009  0.4778727E+02  0.7816164E-02  0.1312668E+00
        -11   -1    0    0    0    0  0.00000000000E+00  0.00000000000E+00  0.45593999997E+02  0.45594000000E+02  0.51100000000E-03 0. -1.
         11   -1    0    0    0    0 -0.00000000000E+00 -0.00000000000E+00 -0.45593999997E+02  0.45594000000E+02  0.51100000000E-03 0.  1.
    9900012    2    1    2    0    0  0.26080573094E+02 -0.25079780872E+02  0.23967298978E+02  0.47787272796E+02  0.20000007987E+02 0.  0.
        -12    1    1    2    0    0 -0.26080573094E+02  0.25079780872E+02 -0.23967298978E+02  0.43400727204E+02  0.00000000000E+00 0.  1.
         11    1    3    3    0    0  0.48915698318E+01 -0.10357720991E+02  0.94738815386E+01  0.14864867010E+02  0.51100000000E-03 0. -1.
        -11    1    3    3    0    0  0.14340492837E+02 -0.14077578430E+01  0.53024861131E+01  0.15354083372E+02  0.51100000000E-03 0.  1.
        -12    1    3    3    0    0  0.68485104250E+01 -0.13314302038E+02  0.91909313263E+01  0.17568322414E+02  0.00000000000E+00 0.  1.
</event>
<event>
 7    1  0.2685294E-009  0.4778727E+02  0.7816164E-02  0.1312668E+00
        -11   -1    0    0    0    0  0.00000000000E+00  0.00000000000E+00  0.45593999997E+02  0.45594000000E+02  0.51100000000E-03 0.  1.
         11   -1    0    0    0    0 -0.00000000000E+00 -0.00000000000E+00 -0.45593999997E+02  0.45594000000E+02  0.51100000000E-03 0. -1.
    9900012    2    1    2    0    0 -0.15392162042E+01  0.12139647571E+02 -0.41639922016E+02  0.47787270338E+02  0.19999996780E+02 0.  0.
        -12    1    1    2    0    0  0.15392162042E+01 -0.12139647571E+02  0.41639922016E+02  0.43400729662E+02  0.00000000000E+00 0.  1.
         11    1    3    3    0    0  0.31893985839E+01  0.11985583559E+01 -0.27357277415E+02  0.27568631327E+02  0.51100000000E-03 0. -1.
        -11    1    3    3    0    0 -0.16986891925E+01  0.45279437217E+01 -0.68783777955E+00  0.48847661553E+01  0.51100000000E-03 0.  1.
         12    1    3    3    0    0 -0.30299255955E+01  0.64131454930E+01 -0.13594806822E+02  0.15333872856E+02  0.00000000000E+00 0. -1.
</event>
<event>
 7    1  0.2685294E-009  0.4778727E+02  0.7816164E-02  0.1312668E+00
        -11   -1    0    0    0    0  0.00000000000E+00  0.00000000000E+00  0.45593999997E+02  0.45594000000E+02  0.51100000000E-03 0.  1.
         11   -1    0    0    0    0 -0.00000000000E+00 -0.00000000000E+00 -0.45593999997E+02  0.45594000000E+02  0.51100000000E-03 0. -1.
    9900012    2    1    2    0    0 -0.30089849623E+01  0.43227232758E+02  0.24444778652E+01  0.47787272881E+02  0.20000008376E+02 0.  0.
        -12    1    1    2    0    0  0.30089849623E+01 -0.43227232758E+02 -0.24444778652E+01  0.43400727119E+02  0.00000000000E+00 0.  1.
         11    1    3    3    0    0  0.57152209535E+01  0.18776965073E+02  0.47946821500E+01  0.20204631773E+02  0.51100000000E-03 0. -1.
        -11    1    3    3    0    0 -0.93906279419E+01  0.22962301633E+02 -0.41512953170E+01  0.25153219327E+02  0.51100000000E-03 0.  1.
        -12    1    3    3    0    0  0.66642202611E+00  0.14879660515E+01  0.18010910322E+01  0.24294217818E+01  0.00000000000E+00 0.  1.
</event>
<event>
 7    1  0.2685294E-009  0.4778727E+02  0.7816164E-02  0.1312668E+00
        -11   -1    0    0    0    0  0.00000000000E+00  0.00000000000E+00  0.45593999997E+02  0.45594000000E+02  0.51100000000E-03 0.  1.
         11   -1    0    0    0    0 -0.00000000000E+00 -0.00000000000E+00 -0.45593999997E+02  0.45594000000E+02  0.51100000000E-03 0. -1.
    9900012    2    1    2    0    0  0.55654055973E+01  0.37950412846E+02 -0.20308019023E+02  0.47787271765E+02  0.20000003286E+02 0.  0.
        -12    1    1    2    0    0 -0.55654055973E+01 -0.37950412846E+02  0.20308019023E+02  0.43400728235E+02  0.00000000000E+00 0.  1.
         11    1    3    3    0    0  0.85289106274E+01  0.24240616836E+02 -0.57835015118E+01  0.26340059056E+02  0.51100000000E-03 0. -1.
        -11    1    3    3    0    0 -0.15484967478E+01  0.13633012076E+02 -0.10797081434E+02  0.17459491063E+02  0.51100000000E-03 0.  1.
        -12    1    3    3    0    0 -0.14150082824E+01  0.76783934457E-01 -0.37274360775E+01  0.39877216457E+01  0.00000000000E+00 0.  1.
</event>
<event>
 7    1  0.2685294E-009  0.4778727E+02  0.7816164E-02  0.1312668E+00
        -11   -1    0    0    0    0  0.00000000000E+00  0.00000000000E+00  0.45593999997E+02  0.45594000000E+02  0.51100000000E-03 0.  1.
         11   -1    0    0    0    0 -0.00000000000E+00 -0.00000000000E+00 -0.45593999997E+02  0.45594000000E+02  0.51100000000E-03 0. -1.
    9900012    2    1    2    0    0 -0.18202671706E+02  0.31933157155E+02 -0.23077257370E+02  0.47787267393E+02  0.19999983350E+02 0.  0.
        -12    1    1    2    0    0  0.18202671706E+02 -0.31933157155E+02  0.23077257370E+02  0.43400732607E+02  0.00000000000E+00 0.  1.
         11    1    3    3    0    0 -0.31990406064E+01  0.12883873808E+02 -0.16117564139E+02  0.20880707343E+02  0.51100000000E-03 0. -1.
        -11    1    3    3    0    0 -0.10232396427E+02  0.16423776505E+02 -0.18498516188E+01  0.19438732536E+02  0.51100000000E-03 0.  1.
        -12    1    3    3    0    0 -0.47712346728E+01  0.26255068422E+01 -0.51098416120E+01  0.74678275141E+01  0.00000000000E+00 0.  1.
</event>
<event>
 7    1  0.2685294E-009  0.4778727E+02  0.7816164E-02  0.1312668E+00
        -11   -1    0    0    0    0  0.00000000000E+00  0.00000000000E+00  0.45593999997E+02  0.45594000000E+02  0.51100000000E-03 0.  1.
         11   -1    0    0    0    0 -0.00000000000E+00 -0.00000000000E+00 -0.45593999997E+02  0.45594000000E+02  0.51100000000E-03 0. -1.
    9900012    2    1    2    0    0 -0.49225726651E+01 -0.12206069489E+01 -0.43103385983E+02  0.47787268599E+02  0.19999988849E+02 0.  0.
        -12    1    1    2    0    0  0.49225726651E+01  0.12206069489E+01  0.43103385983E+02  0.43400731401E+02  0.00000000000E+00 0.  1.
         11    1    3    3    0    0 -0.37831592020E+01  0.66950019249E+01 -0.16090327629E+02  0.17833507445E+02  0.51100000000E-03 0. -1.
        -11    1    3    3    0    0 -0.29934964283E+01 -0.89081115026E+01 -0.25946087963E+02  0.27595560373E+02  0.51100000000E-03 0.  1.
         12    1    3    3    0    0  0.18540829653E+01  0.99250262880E+00 -0.10669703907E+01  0.23582007813E+01  0.00000000000E+00 0. -1.
</event>
<event>
 7    1  0.2685294E-009  0.4778727E+02  0.7816164E-02  0.1312668E+00
        -11   -1    0    0    0    0  0.00000000000E+00  0.00000000000E+00  0.45593999997E+02  0.45594000000E+02  0.51100000000E-03 0.  1.
         11   -1    0    0    0    0 -0.00000000000E+00 -0.00000000000E+00 -0.45593999997E+02  0.45594000000E+02  0.51100000000E-03 0. -1.
    9900012    2    1    2    0    0 -0.22518762500E+02  0.21709053618E+02 -0.30087299385E+02  0.47787271229E+02  0.20000000842E+02 0.  0.
        -12    1    1    2    0    0  0.22518762500E+02 -0.21709053618E+02  0.30087299385E+02  0.43400728771E+02  0.00000000000E+00 0.  1.
         11    1    3    3    0    0 -0.19555091532E+02  0.18286969354E+02 -0.22465878591E+02  0.34950401344E+02  0.51100000000E-03 0. -1.
        -11    1    3    3    0    0 -0.38891991022E+00 -0.17662298278E+01 -0.67396355593E+01  0.69780738198E+01  0.51100000000E-03 0.  1.
        -12    1    3    3    0    0 -0.25747510576E+01  0.51883140925E+01 -0.88178523483E+00  0.58587960651E+01  0.00000000000E+00 0.  1.
</event>
<event>
 7    1  0.2685294E-009  0.4778727E+02  0.7816164E-02  0.1312668E+00
        -11   -1    0    0    0    0  0.00000000000E+00  0.00000000000E+00  0.45593999997E+02  0.45594000000E+02  0.51100000000E-03 0.  1.
         11   -1    0    0    0    0 -0.00000000000E+00 -0.00000000000E+00 -0.45593999997E+02  0.45594000000E+02  0.51100000000E-03 0. -1.
    9900012    2    1    2    0    0 -0.42379056268E+02 -0.92935671625E+01 -0.11263034960E+01  0.47787270049E+02  0.19999995460E+02 0.  0.
        -12    1    1    2    0    0  0.42379056268E+02  0.92935671625E+01  0.11263034960E+01  0.43400729951E+02  0.00000000000E+00 0.  1.
         11    1    3    3    0    0 -0.16009403631E+02 -0.19502732999E+01  0.63291797599E+01  0.17325215360E+02  0.51100000000E-03 0. -1.
        -11    1    3    3    0    0 -0.21640025617E+02 -0.10532867993E+01 -0.55163647150E+01  0.22356887120E+02  0.51100000000E-03 0.  1.
         12    1    3    3    0    0 -0.47296270201E+01 -0.62900070633E+01 -0.19391185409E+01  0.81051675689E+01  0.00000000000E+00 0. -1.
</event>
<event>
 7    1  0.2685294E-009  0.4778727E+02  0.7816164E-02  0.1312668E+00
        -11   -1    0    0    0    0  0.00000000000E+00  0.00000000000E+00  0.45593999997E+02  0.45594000000E+02  0.51100000000E-03 0.  1.
         11   -1    0    0    0    0 -0.00000000000E+00 -0.00000000000E+00 -0.45593999997E+02  0.45594000000E+02  0.51100000000E-03 0. -1.
    9900012    2    1    2    0    0  0.80261349299E+01  0.83352614019E+01 -0.41829746284E+02  0.47787273062E+02  0.20000009198E+02 0.  0.
        -12    1    1    2    0    0 -0.80261349299E+01 -0.83352614019E+01  0.41829746284E+02  0.43400726938E+02  0.00000000000E+00 0.  1.
         11    1    3    3    0    0  0.11915140952E+01  0.64041578868E+01 -0.32387609600E+02  0.33036195301E+02  0.51100000000E-03 0. -1.
        -11    1    3    3    0    0  0.19387189960E+01  0.35681612823E+01 -0.81915112811E-01  0.40616642684E+01  0.51100000000E-03 0.  1.
         12    1    3    3    0    0  0.48959018387E+01 -0.16370577673E+01 -0.93602215714E+01  0.10689413492E+02  0.00000000000E+00 0. -1.
</event>
<event>
 7    1  0.2685294E-009  0.4778728E+02  0.7816164E-02  0.1312668E+00
        -11   -1    0    0    0    0  0.00000000000E+00  0.00000000000E+00  0.45593999997E+02  0.45594000000E+02  0.51100000000E-03 0. -1.
         11   -1    0    0    0    0 -0.00000000000E+00 -0.00000000000E+00 -0.45593999997E+02  0.45594000000E+02  0.51100000000E-03 0.  1.
    9900012    2    1    2    0    0  0.41217907576E+02  0.46869640869E+01 -0.12756931210E+02  0.47787276144E+02  0.20000023252E+02 0.  0.
        -12    1    1    2    0    0 -0.41217907576E+02 -0.46869640869E+01  0.12756931210E+02  0.43400723856E+02  0.00000000000E+00 0.  1.
         11    1    3    3    0    0  0.12503849168E+02 -0.19318363477E+01 -0.12656651587E+02  0.17896062845E+02  0.51100000000E-03 0. -1.
        -11    1    3    3    0    0  0.18528478925E+02  0.58278962146E+01  0.17747819768E+01  0.19504326620E+02  0.51100000000E-03 0.  1.
        -12    1    3    3    0    0  0.10185579483E+02  0.79090422000E+00 -0.18750615991E+01  0.10386886679E+02  0.00000000000E+00 0.  1.
</event>
<event>
 7    1  0.2685294E-009  0.4778727E+02  0.7816164E-02  0.1312668E+00
        -11   -1    0    0    0    0  0.00000000000E+00  0.00000000000E+00  0.45593999997E+02  0.45594000000E+02  0.51100000000E-03 0.  1.
         11   -1    0    0    0    0 -0.00000000000E+00 -0.00000000000E+00 -0.45593999997E+02  0.45594000000E+02  0.51100000000E-03 0. -1.
    9900012    2    1    2    0    0  0.40282369551E+01 -0.14083136007E+02 -0.40854153431E+02  0.47787271143E+02  0.20000000448E+02 0.  0.
        -12    1    1    2    0    0 -0.40282369551E+01  0.14083136007E+02  0.40854153431E+02  0.43400728857E+02  0.00000000000E+00 0.  1.
         11    1    3    3    0    0  0.41455283579E+01 -0.20544037849E+01 -0.96375696943E+01  0.10690590730E+02  0.51100000000E-03 0.  1.
        -11    1    3    3    0    0  0.34243824340E+01 -0.14150715972E+02 -0.17458978707E+02  0.22732907762E+02  0.51100000000E-03 0. -1.
        -12    1    3    3    0    0 -0.35416738367E+01  0.21219837497E+01 -0.13757605030E+02  0.14363772651E+02  0.00000000000E+00 0.  1.
</event>
<event>
 7    1  0.2685294E-009  0.4778727E+02  0.7816164E-02  0.1312668E+00
        -11   -1    0    0    0    0  0.00000000000E+00  0.00000000000E+00  0.45593999997E+02  0.45594000000E+02  0.51100000000E-03 0.  1.
         11   -1    0    0    0    0 -0.00000000000E+00 -0.00000000000E+00 -0.45593999997E+02  0.45594000000E+02  0.51100000000E-03 0. -1.
    9900012    2    1    2    0    0 -0.11388106421E+02 -0.18416814449E+02 -0.37613236617E+02  0.47787267390E+02  0.19999983338E+02 0.  0.
        -12    1    1    2    0    0  0.11388106421E+02  0.18416814449E+02  0.37613236617E+02  0.43400732610E+02  0.00000000000E+00 0.  1.
         11    1    3    3    0    0 -0.57161401323E+01 -0.12193594445E+02 -0.10282933726E+02  0.16943928995E+02  0.51100000000E-03 0. -1.
        -11    1    3    3    0    0 -0.42240450651E+01 -0.19532586568E-01 -0.22381342203E+02  0.22776466304E+02  0.51100000000E-03 0.  1.
        -12    1    3    3    0    0 -0.14479212239E+01 -0.62036874179E+01 -0.49489606872E+01  0.80668720910E+01  0.00000000000E+00 0.  1.
</event>
<event>
 7    1  0.2685294E-009  0.4778727E+02  0.7816164E-02  0.1312668E+00
        -11   -1    0    0    0    0  0.00000000000E+00  0.00000000000E+00  0.45593999997E+02  0.45594000000E+02  0.51100000000E-03 0. -1.
         11   -1    0    0    0    0 -0.00000000000E+00 -0.00000000000E+00 -0.45593999997E+02  0.45594000000E+02  0.51100000000E-03 0.  1.
    9900012    2    1    2    0    0  0.14850254243E+02  0.39975584628E+02 -0.80651087936E+01  0.47787269622E+02  0.19999993516E+02 0.  0.
        -12    1    1    2    0    0 -0.14850254243E+02 -0.39975584628E+02  0.80651087936E+01  0.43400730378E+02  0.00000000000E+00 0.  1.
         11    1    3    3    0    0  0.61194476058E+01  0.12192837701E+02  0.27089980683E+01  0.13908687969E+02  0.51100000000E-03 0. -1.
        -11    1    3    3    0    0 -0.30439927920E+01  0.11331649626E+02 -0.55746287624E+01  0.12990329537E+02  0.51100000000E-03 0.  1.
        -12    1    3    3    0    0  0.11774799429E+02  0.16451097301E+02 -0.51994780995E+01  0.20888252117E+02  0.00000000000E+00 0.  1.
</event>
<event>
 7    1  0.2685294E-009  0.4778727E+02  0.7816164E-02  0.1312668E+00
        -11   -1    0    0    0    0  0.00000000000E+00  0.00000000000E+00  0.45593999997E+02  0.45594000000E+02  0.51100000000E-03 0. -1.
         11   -1    0    0    0    0 -0.00000000000E+00 -0.00000000000E+00 -0.45593999997E+02  0.45594000000E+02  0.51100000000E-03 0.  1.
    9900012    2    1    2    0    0  0.24290885126E+02 -0.28373482895E+01  0.35854225944E+02  0.47787272315E+02  0.20000005795E+02 0.  0.
        -12    1    1    2    0    0 -0.24290885126E+02  0.28373482895E+01 -0.35854225944E+02  0.43400727685E+02  0.00000000000E+00 0.  1.
         11    1    3    3    0    0  0.31505633663E+01  0.33141417564E+01  0.97400776741E+01  0.10760051044E+02  0.51100000000E-03 0. -1.
        -11    1    3    3    0    0  0.15847707233E+02 -0.10327638258E+02  0.22440865604E+02  0.29349657338E+02  0.51100000000E-03 0.  1.
        -12    1    3    3    0    0  0.52926145266E+01  0.41761482118E+01  0.36732826659E+01  0.76775639338E+01  0.00000000000E+00 0.  1.
</event>
<event>
 7    1  0.2685294E-009  0.4778727E+02  0.7816164E-02  0.1312668E+00
        -11   -1    0    0    0    0  0.00000000000E+00  0.00000000000E+00  0.45593999997E+02  0.45594000000E+02  0.51100000000E-03 0.  1.
         11   -1    0    0    0    0 -0.00000000000E+00 -0.00000000000E+00 -0.45593999997E+02  0.45594000000E+02  0.51100000000E-03 0. -1.
    9900012    2    1    2    0    0 -0.10097811769E+02 -0.10033298633E+02 -0.40999881139E+02  0.47787272617E+02  0.20000007170E+02 0.  0.
        -12    1    1    2    0    0  0.10097811769E+02  0.10033298633E+02  0.40999881139E+02  0.43400727383E+02  0.00000000000E+00 0.  1.
         11    1    3    3    0    0 -0.85886821749E+01 -0.88270323669E+01 -0.12431639667E+02  0.17499360759E+02  0.51100000000E-03 0. -1.
        -11    1    3    3    0    0 -0.24327017268E+01  0.37386656157E+01 -0.18535863902E+02  0.19064991716E+02  0.51100000000E-03 0.  1.
        -12    1    3    3    0    0  0.92357213316E+00 -0.49449318823E+01 -0.10032377570E+02  0.11222920142E+02  0.00000000000E+00 0.  1.
</event>
<event>
 7    1  0.2685294E-009  0.4778728E+02  0.7816164E-02  0.1312668E+00
        -11   -1    0    0    0    0  0.00000000000E+00  0.00000000000E+00  0.45593999997E+02  0.45594000000E+02  0.51100000000E-03 0.  1.
         11   -1    0    0    0    0 -0.00000000000E+00 -0.00000000000E+00 -0.45593999997E+02  0.45594000000E+02  0.51100000000E-03 0. -1.
    9900012    2    1    2    0    0  0.20459827643E+02 -0.67053349662E+01 -0.37683639783E+02  0.47787276832E+02  0.20000026389E+02 0.  0.
        -12    1    1    2    0    0 -0.20459827643E+02  0.67053349662E+01  0.37683639783E+02  0.43400723168E+02  0.00000000000E+00 0.  1.
         11    1    3    3    0    0  0.96375596006E+01 -0.83995078186E+01 -0.26873397846E+02  0.29759264082E+02  0.51100000000E-03 0. -1.
        -11    1    3    3    0    0  0.99784967479E+01  0.48886208225E+01 -0.86326191886E+01  0.14070931924E+02  0.51100000000E-03 0.  1.
         12    1    3    3    0    0  0.84377129412E+00 -0.31944479700E+01 -0.21776227489E+01  0.39570808264E+01  0.00000000000E+00 0. -1.
</event>
<event>
 7    1  0.2685294E-009  0.4778727E+02  0.7816164E-02  0.1312668E+00
        -11   -1    0    0    0    0  0.00000000000E+00  0.00000000000E+00  0.45593999997E+02  0.45594000000E+02  0.51100000000E-03 0. -1.
         11   -1    0    0    0    0 -0.00000000000E+00 -0.00000000000E+00 -0.45593999997E+02  0.45594000000E+02  0.51100000000E-03 0.  1.
    9900012    2    1    2    0    0 -0.34218732488E+02  0.15545997855E+02  0.21703083723E+02  0.47787267915E+02  0.19999985733E+02 0.  0.
        -12    1    1    2    0    0  0.34218732488E+02 -0.15545997855E+02 -0.21703083723E+02  0.43400732085E+02  0.00000000000E+00 0.  1.
         11    1    3    3    0    0 -0.30520174120E+02  0.12658627372E+02  0.24664265127E+02  0.41231636516E+02  0.51100000000E-03 0. -1.
        -11    1    3    3    0    0 -0.37023669484E+01  0.33140394597E+01 -0.17444596457E+01  0.52662622682E+01  0.51100000000E-03 0.  1.
         12    1    3    3    0    0  0.38085808738E-02 -0.42666897593E+00 -0.12167217580E+01  0.12893691313E+01  0.00000000000E+00 0. -1.
</event>
<event>
 7    1  0.2685294E-009  0.4778728E+02  0.7816164E-02  0.1312668E+00
        -11   -1    0    0    0    0  0.00000000000E+00  0.00000000000E+00  0.45593999997E+02  0.45594000000E+02  0.51100000000E-03 0.  1.
         11   -1    0    0    0    0 -0.00000000000E+00 -0.00000000000E+00 -0.45593999997E+02  0.45594000000E+02  0.51100000000E-03 0. -1.
    9900012    2    1    2    0    0  0.39479547805E+01  0.28019412876E+02 -0.32908178736E+02  0.47787284884E+02  0.20000063100E+02 0.  0.
        -12    1    1    2    0    0 -0.39479547805E+01 -0.28019412876E+02  0.32908178736E+02  0.43400715116E+02  0.00000000000E+00 0.  1.
         11    1    3    3    0    0  0.12057949182E+01  0.21996750016E+02 -0.13509154217E+02  0.25841985229E+02  0.51100000000E-03 0. -1.
        -11    1    3    3    0    0 -0.25904660394E+01  0.95617649073E+00 -0.70510349162E+01  0.75724422371E+01  0.51100000000E-03 0.  1.
         12    1    3    3    0    0  0.53326259017E+01  0.50664863694E+01 -0.12347989602E+02  0.14372857418E+02  0.00000000000E+00 0. -1.
</event>
<event>
 7    1  0.2685294E-009  0.4778727E+02  0.7816164E-02  0.1312668E+00
        -11   -1    0    0    0    0  0.00000000000E+00  0.00000000000E+00  0.45593999997E+02  0.45594000000E+02  0.51100000000E-03 0. -1.
         11   -1    0    0    0    0 -0.00000000000E+00 -0.00000000000E+00 -0.45593999997E+02  0.45594000000E+02  0.51100000000E-03 0.  1.
    9900012    2    1    2    0    0 -0.34752442249E+02 -0.25579118537E+02  0.46475798467E+01  0.47787267911E+02  0.19999985715E+02 0.  0.
        -12    1    1    2    0    0  0.34752442249E+02  0.25579118537E+02 -0.46475798467E+01  0.43400732089E+02  0.00000000000E+00 0.  1.
         11    1    3    3    0    0 -0.92825549404E+01 -0.34887705314E+01  0.39614151987E+00  0.99244281652E+01  0.51100000000E-03 0. -1.
        -11    1    3    3    0    0 -0.21615531566E+01  0.62742164389E+00  0.48093889831E+01  0.53100087213E+01  0.51100000000E-03 0.  1.
        -12    1    3    3    0    0 -0.23308334152E+02 -0.22717769649E+02 -0.55795065629E+00  0.32552831025E+02  0.00000000000E+00 0.  1.
</event>
<event>
 7    1  0.2685294E-009  0.4778727E+02  0.7816164E-02  0.1312668E+00
        -11   -1    0    0    0    0  0.00000000000E+00  0.00000000000E+00  0.45593999997E+02  0.45594000000E+02  0.51100000000E-03 0. -1.
         11   -1    0    0    0    0 -0.00000000000E+00 -0.00000000000E+00 -0.45593999997E+02  0.45594000000E+02  0.51100000000E-03 0.  1.
    9900012    2    1    2    0    0  0.29793196879E+02  0.23811716227E+02  0.20712095379E+02  0.47787270686E+02  0.19999998366E+02 0.  0.
        -12    1    1    2    0    0 -0.29793196879E+02 -0.23811716227E+02 -0.20712095379E+02  0.43400729314E+02  0.00000000000E+00 0.  1.
         11    1    3    3    0    0  0.97475497125E+01  0.12899644420E+02  0.50665316582E+01  0.16943591557E+02  0.51100000000E-03 0. -1.
        -11    1    3    3    0    0  0.34758163283E+01  0.22219875879E+01  0.10733961801E+02  0.11499411472E+02  0.51100000000E-03 0.  1.
        -12    1    3    3    0    0  0.16569830839E+02  0.86900842193E+01  0.49116019196E+01  0.19344267657E+02  0.00000000000E+00 0.  1.
</event>
<event>
 7    1  0.2685294E-009  0.4778728E+02  0.7816164E-02  0.1312668E+00
        -11   -1    0    0    0    0  0.00000000000E+00  0.00000000000E+00  0.45593999997E+02  0.45594000000E+02  0.51100000000E-03 0. -1.
         11   -1    0    0    0    0 -0.00000000000E+00 -0.00000000000E+00 -0.45593999997E+02  0.45594000000E+02  0.51100000000E-03 0.  1.
    9900012    2    1    2    0    0  0.17691125971E+02  0.36840377889E+02 -0.14609343543E+02  0.47787282265E+02  0.20000051158E+02 0.  0.
        -12    1    1    2    0    0 -0.17691125971E+02 -0.36840377889E+02  0.14609343543E+02  0.43400717735E+02  0.00000000000E+00 0.  1.
         11    1    3    3    0    0  0.60209470797E+01  0.17578660900E+02 -0.72437473257E+01  0.19943244429E+02  0.51100000000E-03 0. -1.
        -11    1    3    3    0    0  0.84862885253E+01  0.18153977495E+02 -0.11022053869E+02  0.22870716289E+02  0.51100000000E-03 0.  1.
        -12    1    3    3    0    0  0.31838903664E+01  0.11077394943E+01  0.36564576512E+01  0.49733215468E+01  0.00000000000E+00 0.  1.
</event>
<event>
 7    1  0.2685294E-009  0.4778727E+02  0.7816164E-02  0.1312668E+00
        -11   -1    0    0    0    0  0.00000000000E+00  0.00000000000E+00  0.45593999997E+02  0.45594000000E+02  0.51100000000E-03 0. -1.
         11   -1    0    0    0    0 -0.00000000000E+00 -0.00000000000E+00 -0.45593999997E+02  0.45594000000E+02  0.51100000000E-03 0.  1.
    9900012    2    1    2    0    0 -0.17699424141E+01  0.32109648808E+02  0.29145514099E+02  0.47787271494E+02  0.20000002050E+02 0.  0.
        -12    1    1    2    0    0  0.17699424141E+01 -0.32109648808E+02 -0.29145514099E+02  0.43400728506E+02  0.00000000000E+00 0.  1.
         11    1    3    3    0    0 -0.53497288291E+01  0.96555751489E+00  0.77685205049E+01  0.94816565513E+01  0.51100000000E-03 0. -1.
        -11    1    3    3    0    0  0.28628378981E+01  0.23163609003E+02  0.18533717296E+02  0.29803477984E+02  0.51100000000E-03 0.  1.
         12    1    3    3    0    0  0.71694851695E+00  0.79804822902E+01  0.28432762986E+01  0.85021369590E+01  0.00000000000E+00 0. -1.
</event>
<event>
 7    1  0.2685294E-009  0.4778728E+02  0.7816164E-02  0.1312668E+00
        -11   -1    0    0    0    0  0.00000000000E+00  0.00000000000E+00  0.45593999997E+02  0.45594000000E+02  0.51100000000E-03 0.  1.
         11   -1    0    0    0    0 -0.00000000000E+00 -0.00000000000E+00 -0.45593999997E+02  0.45594000000E+02  0.51100000000E-03 0. -1.
    9900012    2    1    2    0    0 -0.39802767768E+02 -0.17021094310E+02 -0.31056225727E+01  0.47787275754E+02  0.20000021474E+02 0.  0.
        -12    1    1    2    0    0  0.39802767768E+02  0.17021094310E+02  0.31056225727E+01  0.43400724246E+02  0.00000000000E+00 0.  1.
         11    1    3    3    0    0 -0.23385795399E+02 -0.10672732454E+02  0.55002476470E+01  0.26287932002E+02  0.51100000000E-03 0. -1.
        -11    1    3    3    0    0 -0.69232196721E+01 -0.22026774696E+01 -0.84431137247E+01  0.11138623267E+02  0.51100000000E-03 0.  1.
         12    1    3    3    0    0 -0.94937526965E+01 -0.41456843857E+01 -0.16275649503E+00  0.10360720485E+02  0.00000000000E+00 0. -1.
</event>
<event>
 7    1  0.2685294E-009  0.4778725E+02  0.7816164E-02  0.1312668E+00
        -11   -1    0    0    0    0  0.00000000000E+00  0.00000000000E+00  0.45593999997E+02  0.45594000000E+02  0.51100000000E-03 0.  1.
         11   -1    0    0    0    0 -0.00000000000E+00 -0.00000000000E+00 -0.45593999997E+02  0.45594000000E+02  0.51100000000E-03 0. -1.
    9900012    2    1    2    0    0  0.46534688084E+01 -0.87463838487E+01 -0.42254834848E+02  0.47787250348E+02  0.19999905635E+02 0.  0.
        -12    1    1    2    0    0 -0.46534688084E+01  0.87463838487E+01  0.42254834848E+02  0.43400749652E+02  0.00000000000E+00 0.  1.
         11    1    3    3    0    0  0.47693689069E+01 -0.11584308750E+02 -0.36465773326E+02  0.38557693312E+02  0.51100000000E-03 0. -1.
        -11    1    3    3    0    0  0.18736579791E+01  0.12765059371E+01  0.61086886449E+00  0.23480252684E+01  0.51100000000E-03 0.  1.
         12    1    3    3    0    0 -0.19895580776E+01  0.15614189638E+01 -0.63999303859E+01  0.68815317676E+01  0.00000000000E+00 0. -1.
</event>
<event>
 7    1  0.2685294E-009  0.4778726E+02  0.7816164E-02  0.1312668E+00
        -11   -1    0    0    0    0  0.00000000000E+00  0.00000000000E+00  0.45593999997E+02  0.45594000000E+02  0.51100000000E-03 0.  1.
         11   -1    0    0    0    0 -0.00000000000E+00 -0.00000000000E+00 -0.45593999997E+02  0.45594000000E+02  0.51100000000E-03 0. -1.
    9900012    2    1    2    0    0 -0.27839311150E+02  0.71551866056E+01 -0.32517688703E+02  0.47787262458E+02  0.19999960849E+02 0.  0.
        -12    1    1    2    0    0  0.27839311150E+02 -0.71551866056E+01  0.32517688703E+02  0.43400737542E+02  0.00000000000E+00 0.  1.
         11    1    3    3    0    0 -0.57949082546E+01  0.68531985407E+01 -0.10594884522E+02  0.13885203283E+02  0.51100000000E-03 0. -1.
        -11    1    3    3    0    0 -0.39647048107E+01 -0.55427498533E+01 -0.66795163533E+01  0.95423738738E+01  0.51100000000E-03 0.  1.
        -12    1    3    3    0    0 -0.18079698085E+02  0.58447379182E+01 -0.15243287827E+02  0.24359685301E+02  0.00000000000E+00 0.  1.
</event>
<event>
 7    1  0.2685294E-009  0.4778727E+02  0.7816164E-02  0.1312668E+00
        -11   -1    0    0    0    0  0.00000000000E+00  0.00000000000E+00  0.45593999997E+02  0.45594000000E+02  0.51100000000E-03 0.  1.
         11   -1    0    0    0    0 -0.00000000000E+00 -0.00000000000E+00 -0.45593999997E+02  0.45594000000E+02  0.51100000000E-03 0. -1.
    9900012    2    1    2    0    0  0.34827084840E+02  0.23789397261E+02 -0.10235328425E+02  0.47787271798E+02  0.20000003434E+02 0.  0.
        -12    1    1    2    0    0 -0.34827084840E+02 -0.23789397261E+02  0.10235328425E+02  0.43400728202E+02  0.00000000000E+00 0.  1.
         11    1    3    3    0    0  0.19352198201E+02  0.79488145368E+01 -0.40091609539E+01  0.21301751092E+02  0.51100000000E-03 0. -1.
        -11    1    3    3    0    0  0.56375934455E+00 -0.17420268766E+01 -0.25514253668E+01  0.31404225672E+01  0.51100000000E-03 0.  1.
        -12    1    3    3    0    0  0.14911127295E+02  0.17582609601E+02 -0.36747421048E+01  0.23345098139E+02  0.00000000000E+00 0.  1.
</event>
<event>
 7    1  0.2685294E-009  0.4778727E+02  0.7816164E-02  0.1312668E+00
        -11   -1    0    0    0    0  0.00000000000E+00  0.00000000000E+00  0.45593999997E+02  0.45594000000E+02  0.51100000000E-03 0. -1.
         11   -1    0    0    0    0 -0.00000000000E+00 -0.00000000000E+00 -0.45593999997E+02  0.45594000000E+02  0.51100000000E-03 0.  1.
    9900012    2    1    2    0    0  0.36355282730E+02  0.18804566101E+02  0.14432787730E+02  0.47787266708E+02  0.19999980229E+02 0.  0.
        -12    1    1    2    0    0 -0.36355282730E+02 -0.18804566101E+02 -0.14432787730E+02  0.43400733292E+02  0.00000000000E+00 0.  1.
         11    1    3    3    0    0  0.20830177104E+02  0.70746819486E+01  0.14493794475E+02  0.26344211535E+02  0.51100000000E-03 0. -1.
        -11    1    3    3    0    0  0.16673748292E+02  0.10625439386E+02  0.42818043658E+00  0.19776177158E+02  0.51100000000E-03 0.  1.
         12    1    3    3    0    0 -0.11486426664E+01  0.11044447667E+01 -0.48918718112E+00  0.16668780147E+01  0.00000000000E+00 0. -1.
</event>
<event>
 7    1  0.2685294E-009  0.4778726E+02  0.7816164E-02  0.1312668E+00
        -11   -1    0    0    0    0  0.00000000000E+00  0.00000000000E+00  0.45593999997E+02  0.45594000000E+02  0.51100000000E-03 0.  1.
         11   -1    0    0    0    0 -0.00000000000E+00 -0.00000000000E+00 -0.45593999997E+02  0.45594000000E+02  0.51100000000E-03 0. -1.
    9900012    2    1    2    0    0  0.32242819375E+02  0.16707714321E+02 -0.23767137973E+02  0.47787263065E+02  0.19999963618E+02 0.  0.
        -12    1    1    2    0    0 -0.32242819375E+02 -0.16707714321E+02  0.23767137973E+02  0.43400736935E+02  0.00000000000E+00 0.  1.
         11    1    3    3    0    0  0.17033141794E+02  0.81182553781E+01 -0.20249328957E+02  0.27677957172E+02  0.51100000000E-03 0. -1.
        -11    1    3    3    0    0  0.15234190242E+02  0.67005844700E+01 -0.62507433597E+00  0.16654401903E+02  0.51100000000E-03 0.  1.
        -12    1    3    3    0    0 -0.24512661252E-01  0.18888744729E+01 -0.28927346807E+01  0.34549039897E+01  0.00000000000E+00 0.  1.
</event>
<event>
 7    1  0.2685294E-009  0.4778727E+02  0.7816164E-02  0.1312668E+00
        -11   -1    0    0    0    0  0.00000000000E+00  0.00000000000E+00  0.45593999997E+02  0.45594000000E+02  0.51100000000E-03 0.  1.
         11   -1    0    0    0    0 -0.00000000000E+00 -0.00000000000E+00 -0.45593999997E+02  0.45594000000E+02  0.51100000000E-03 0. -1.
    9900012    2    1    2    0    0 -0.30519457306E+02  0.69206702471E+01 -0.30071421626E+02  0.47787270173E+02  0.19999996026E+02 0.  0.
        -12    1    1    2    0    0  0.30519457306E+02 -0.69206702471E+01  0.30071421626E+02  0.43400729827E+02  0.00000000000E+00 0.  1.
         11    1    3    3    0    0 -0.39799017143E+01  0.77772166569E+01 -0.59756468903E+01  0.10584567662E+02  0.51100000000E-03 0. -1.
        -11    1    3    3    0    0 -0.62035368324E+00 -0.20873135624E+01 -0.32792331076E+01  0.39363798896E+01  0.51100000000E-03 0.  1.
         12    1    3    3    0    0 -0.25919201908E+02  0.12307671527E+01 -0.20816541628E+02  0.33266322621E+02  0.00000000000E+00 0. -1.
</event>
<event>
 7    1  0.2685294E-009  0.4778727E+02  0.7816164E-02  0.1312668E+00
        -11   -1    0    0    0    0  0.00000000000E+00  0.00000000000E+00  0.45593999997E+02  0.45594000000E+02  0.51100000000E-03 0.  1.
         11   -1    0    0    0    0 -0.00000000000E+00 -0.00000000000E+00 -0.45593999997E+02  0.45594000000E+02  0.51100000000E-03 0. -1.
    9900012    2    1    2    0    0 -0.82508458234E+01  0.34685718290E+02 -0.24747683307E+02  0.47787270292E+02  0.19999996570E+02 0.  0.
        -12    1    1    2    0    0  0.82508458234E+01 -0.34685718290E+02  0.24747683307E+02  0.43400729708E+02  0.00000000000E+00 0.  1.
         11    1    3    3    0    0 -0.90353141137E+01  0.24566160253E+02 -0.15109890667E+02  0.30223201798E+02  0.51100000000E-03 0. -1.
        -11    1    3    3    0    0  0.29668358185E+00 -0.10701792912E+01  0.14348507090E+01  0.18144149694E+01  0.51100000000E-03 0.  1.
        -12    1    3    3    0    0  0.48778470845E+00  0.11189737329E+02 -0.11072643349E+02  0.15749653525E+02  0.00000000000E+00 0.  1.
</event>
<event>
 7    1  0.2685294E-009  0.4778727E+02  0.7816164E-02  0.1312668E+00
        -11   -1    0    0    0    0  0.00000000000E+00  0.00000000000E+00  0.45593999997E+02  0.45594000000E+02  0.51100000000E-03 0.  1.
         11   -1    0    0    0    0 -0.00000000000E+00 -0.00000000000E+00 -0.45593999997E+02  0.45594000000E+02  0.51100000000E-03 0. -1.
    9900012    2    1    2    0    0 -0.36460246537E+02  0.34590905300E+01 -0.23287513589E+02  0.47787272195E+02  0.20000005246E+02 0.  0.
        -12    1    1    2    0    0  0.36460246537E+02 -0.34590905300E+01  0.23287513589E+02  0.43400727805E+02  0.00000000000E+00 0.  1.
         11    1    3    3    0    0 -0.33672583613E+02  0.13447874317E+01 -0.17625623738E+02  0.38030434560E+02  0.51100000000E-03 0. -1.
        -11    1    3    3    0    0 -0.32381506307E+00 -0.79119818751E+00  0.14532432026E+01  0.16860506617E+01  0.51100000000E-03 0.  1.
         12    1    3    3    0    0 -0.24638478614E+01  0.29055012857E+01 -0.71151330530E+01  0.80707869732E+01  0.00000000000E+00 0. -1.
</event>
<event>
 7    1  0.2685294E-009  0.4778727E+02  0.7816164E-02  0.1312668E+00
        -11   -1    0    0    0    0  0.00000000000E+00  0.00000000000E+00  0.45593999997E+02  0.45594000000E+02  0.51100000000E-03 0.  1.
         11   -1    0    0    0    0 -0.00000000000E+00 -0.00000000000E+00 -0.45593999997E+02  0.45594000000E+02  0.51100000000E-03 0. -1.
    9900012    2    1    2    0    0 -0.76481164987E+01 -0.42681581027E+02 -0.18472513381E+01  0.47787269793E+02  0.19999994295E+02 0.  0.
        -12    1    1    2    0    0  0.76481164987E+01  0.42681581027E+02  0.18472513381E+01  0.43400730207E+02  0.00000000000E+00 0.  1.
         11    1    3    3    0    0  0.23770126550E+01 -0.28939485442E+02  0.36423768545E+01  0.29264499247E+02  0.51100000000E-03 0. -1.
        -11    1    3    3    0    0 -0.66742402667E+01 -0.90845642276E+01 -0.11549227036E+01  0.11331753485E+02  0.51100000000E-03 0.  1.
         12    1    3    3    0    0 -0.33508888870E+01 -0.46575313583E+01 -0.43347054891E+01  0.71910170604E+01  0.00000000000E+00 0. -1.
</event>
<event>
 7    1  0.2685294E-009  0.4778727E+02  0.7816164E-02  0.1312668E+00
        -11   -1    0    0    0    0  0.00000000000E+00  0.00000000000E+00  0.45593999997E+02  0.45594000000E+02  0.51100000000E-03 0. -1.
         11   -1    0    0    0    0 -0.00000000000E+00 -0.00000000000E+00 -0.45593999997E+02  0.45594000000E+02  0.51100000000E-03 0.  1.
    9900012    2    1    2    0    0 -0.93472190350E+01 -0.38578752549E+02  0.17548002846E+02  0.47787273557E+02  0.20000011454E+02 0.  0.
        -12    1    1    2    0    0  0.93472190350E+01  0.38578752549E+02 -0.17548002846E+02  0.43400726443E+02  0.00000000000E+00 0.  1.
         11    1    3    3    0    0 -0.35781756166E+00 -0.16789766138E+02 -0.78174450662E+00  0.16811763891E+02  0.51100000000E-03 0.  1.
        -11    1    3    3    0    0 -0.24260928485E+01 -0.14822972685E+02  0.13757716438E+02  0.20368632934E+02  0.51100000000E-03 0. -1.
         12    1    3    3    0    0 -0.65633086248E+01 -0.69660137256E+01  0.45720309144E+01  0.10606876732E+02  0.00000000000E+00 0. -1.
</event>
<event>
 7    1  0.2685294E-009  0.4778727E+02  0.7816164E-02  0.1312668E+00
        -11   -1    0    0    0    0  0.00000000000E+00  0.00000000000E+00  0.45593999997E+02  0.45594000000E+02  0.51100000000E-03 0.  1.
         11   -1    0    0    0    0 -0.00000000000E+00 -0.00000000000E+00 -0.45593999997E+02  0.45594000000E+02  0.51100000000E-03 0. -1.
    9900012    2    1    2    0    0 -0.52390449567E+01 -0.10393070870E+02 -0.41811002827E+02  0.47787268767E+02  0.19999989615E+02 0.  0.
        -12    1    1    2    0    0  0.52390449567E+01  0.10393070870E+02  0.41811002827E+02  0.43400731233E+02  0.00000000000E+00 0.  1.
         11    1    3    3    0    0 -0.53881461616E+01  0.39629622127E+01 -0.58453434040E+01  0.88828614945E+01  0.51100000000E-03 0.  1.
        -11    1    3    3    0    0 -0.11686517404E+01 -0.89109771514E+01 -0.25438065148E+02  0.26978999600E+02  0.51100000000E-03 0. -1.
        -12    1    3    3    0    0  0.13177529453E+01 -0.54450559317E+01 -0.10527594275E+02  0.11925407672E+02  0.00000000000E+00 0.  1.
</event>
<event>
 7    1  0.2685294E-009  0.4778728E+02  0.7816164E-02  0.1312668E+00
        -11   -1    0    0    0    0  0.00000000000E+00  0.00000000000E+00  0.45593999997E+02  0.45594000000E+02  0.51100000000E-03 0.  1.
         11   -1    0    0    0    0 -0.00000000000E+00 -0.00000000000E+00 -0.45593999997E+02  0.45594000000E+02  0.51100000000E-03 0. -1.
    9900012    2    1    2    0    0 -0.30905328445E+02  0.10788193460E+02 -0.28497327516E+02  0.47787284338E+02  0.20000060610E+02 0.  0.
        -12    1    1    2    0    0  0.30905328445E+02 -0.10788193460E+02  0.28497327516E+02  0.43400715662E+02  0.00000000000E+00 0.  1.
         11    1    3    3    0    0 -0.79326487409E+01  0.10024728802E+02 -0.40454013560E+01  0.13408481495E+02  0.51100000000E-03 0. -1.
        -11    1    3    3    0    0  0.82128492152E-01  0.90692112711E+00 -0.19999206695E+01  0.21974835529E+01  0.51100000000E-03 0.  1.
         12    1    3    3    0    0 -0.23054808196E+02 -0.14345646862E+00 -0.22452005491E+02  0.32181319290E+02  0.00000000000E+00 0. -1.
</event>
<event>
 7    1  0.2685294E-009  0.4778729E+02  0.7816164E-02  0.1312668E+00
        -11   -1    0    0    0    0  0.00000000000E+00  0.00000000000E+00  0.45593999997E+02  0.45594000000E+02  0.51100000000E-03 0.  1.
         11   -1    0    0    0    0 -0.00000000000E+00 -0.00000000000E+00 -0.45593999997E+02  0.45594000000E+02  0.51100000000E-03 0. -1.
    9900012    2    1    2    0    0 -0.21238026730E+02  0.17706122197E+02 -0.33452369452E+02  0.47787290737E+02  0.20000089784E+02 0.  0.
        -12    1    1    2    0    0  0.21238026730E+02 -0.17706122197E+02  0.33452369452E+02  0.43400709263E+02  0.00000000000E+00 0.  1.
         11    1    3    3    0    0 -0.16376299478E+02  0.10753793045E+02 -0.28723254362E+02  0.34768557503E+02  0.51100000000E-03 0. -1.
        -11    1    3    3    0    0 -0.62097584204E+01  0.56782201076E+01 -0.53347120667E+00  0.84313625838E+01  0.51100000000E-03 0.  1.
        -12    1    3    3    0    0  0.13480311679E+01  0.12741090437E+01 -0.41956438826E+01  0.45873706493E+01  0.00000000000E+00 0.  1.
</event>
<event>
 7    1  0.2685294E-009  0.4778727E+02  0.7816164E-02  0.1312668E+00
        -11   -1    0    0    0    0  0.00000000000E+00  0.00000000000E+00  0.45593999997E+02  0.45594000000E+02  0.51100000000E-03 0.  1.
         11   -1    0    0    0    0 -0.00000000000E+00 -0.00000000000E+00 -0.45593999997E+02  0.45594000000E+02  0.51100000000E-03 0. -1.
    9900012    2    1    2    0    0 -0.36420612716E+02 -0.12931940252E+02 -0.19746566479E+02  0.47787274234E+02  0.20000014542E+02 0.  0.
        -12    1    1    2    0    0  0.36420612716E+02  0.12931940252E+02  0.19746566479E+02  0.43400725766E+02  0.00000000000E+00 0.  1.
         11    1    3    3    0    0 -0.81388278941E+01 -0.17718590432E+01 -0.12708685285E+02  0.15195087558E+02  0.51100000000E-03 0. -1.
        -11    1    3    3    0    0 -0.61980186264E+01 -0.36980388324E+01  0.21585437296E+01  0.75332753430E+01  0.51100000000E-03 0.  1.
         12    1    3    3    0    0 -0.22083766196E+02 -0.74620423767E+01 -0.91964249232E+01  0.25058911333E+02  0.00000000000E+00 0. -1.
</event>
<event>
 7    1  0.2685294E-009  0.4778727E+02  0.7816164E-02  0.1312668E+00
        -11   -1    0    0    0    0  0.00000000000E+00  0.00000000000E+00  0.45593999997E+02  0.45594000000E+02  0.51100000000E-03 0. -1.
         11   -1    0    0    0    0 -0.00000000000E+00 -0.00000000000E+00 -0.45593999997E+02  0.45594000000E+02  0.51100000000E-03 0.  1.
    9900012    2    1    2    0    0 -0.36322295844E+01  0.31183334254E+02  0.29967144072E+02  0.47787272462E+02  0.20000006465E+02 0.  0.
        -12    1    1    2    0    0  0.36322295844E+01 -0.31183334254E+02 -0.29967144072E+02  0.43400727538E+02  0.00000000000E+00 0.  1.
         11    1    3    3    0    0 -0.43683551951E+01  0.23805890989E+02  0.19685156770E+02  0.31197890477E+02  0.51100000000E-03 0. -1.
        -11    1    3    3    0    0  0.23689238660E+00 -0.28046101164E+01  0.19627765866E+01  0.34313915687E+01  0.51100000000E-03 0.  1.
        -12    1    3    3    0    0  0.49923322406E+00  0.10182053382E+02  0.83192107156E+01  0.13157990417E+02  0.00000000000E+00 0.  1.
</event>
<event>
 7    1  0.2685294E-009  0.4778728E+02  0.7816164E-02  0.1312668E+00
        -11   -1    0    0    0    0  0.00000000000E+00  0.00000000000E+00  0.45593999997E+02  0.45594000000E+02  0.51100000000E-03 0. -1.
         11   -1    0    0    0    0 -0.00000000000E+00 -0.00000000000E+00 -0.45593999997E+02  0.45594000000E+02  0.51100000000E-03 0.  1.
    9900012    2    1    2    0    0 -0.26980122734E+02  0.33958296608E+02  0.15904652379E+01  0.47787279833E+02  0.20000040073E+02 0.  0.
        -12    1    1    2    0    0  0.26980122734E+02 -0.33958296608E+02 -0.15904652379E+01  0.43400720167E+02  0.00000000000E+00 0.  1.
         11    1    3    3    0    0 -0.23728729175E+01  0.13150647215E+02 -0.46401181890E+01  0.14145697053E+02  0.51100000000E-03 0. -1.
        -11    1    3    3    0    0 -0.23457954446E+02  0.19068668444E+02  0.75698622420E+01  0.31163962483E+02  0.51100000000E-03 0.  1.
        -12    1    3    3    0    0 -0.11492953708E+01  0.17389809496E+01 -0.13392788152E+01  0.24776202972E+01  0.00000000000E+00 0.  1.
</event>
<event>
 7    1  0.2685294E-009  0.4778727E+02  0.7816164E-02  0.1312668E+00
        -11   -1    0    0    0    0  0.00000000000E+00  0.00000000000E+00  0.45593999997E+02  0.45594000000E+02  0.51100000000E-03 0.  1.
         11   -1    0    0    0    0 -0.00000000000E+00 -0.00000000000E+00 -0.45593999997E+02  0.45594000000E+02  0.51100000000E-03 0. -1.
    9900012    2    1    2    0    0 -0.25735604548E+02 -0.30847325854E+02 -0.16423893129E+02  0.47787272825E+02  0.20000008120E+02 0.  0.
        -12    1    1    2    0    0  0.25735604548E+02  0.30847325854E+02  0.16423893129E+02  0.43400727175E+02  0.00000000000E+00 0.  1.
         11    1    3    3    0    0 -0.21310150078E+02 -0.16305403301E+02 -0.83983370157E+01  0.28116200633E+02  0.51100000000E-03 0. -1.
        -11    1    3    3    0    0 -0.64512945329E+01 -0.12245767092E+02 -0.36214888814E+01  0.14307102949E+02  0.51100000000E-03 0.  1.
         12    1    3    3    0    0  0.20258400628E+01 -0.22961554611E+01 -0.44040672314E+01  0.53639692431E+01  0.00000000000E+00 0. -1.
</event>
<event>
 7    1  0.2685294E-009  0.4778727E+02  0.7816164E-02  0.1312668E+00
        -11   -1    0    0    0    0  0.00000000000E+00  0.00000000000E+00  0.45593999997E+02  0.45594000000E+02  0.51100000000E-03 0. -1.
         11   -1    0    0    0    0 -0.00000000000E+00 -0.00000000000E+00 -0.45593999997E+02  0.45594000000E+02  0.51100000000E-03 0.  1.
    9900012    2    1    2    0    0 -0.16082384598E+02 -0.40290102345E+02  0.12990798669E+01  0.47787273626E+02  0.20000011770E+02 0.  0.
        -12    1    1    2    0    0  0.16082384598E+02  0.40290102345E+02 -0.12990798669E+01  0.43400726374E+02  0.00000000000E+00 0.  1.
         11    1    3    3    0    0 -0.55353757628E+01 -0.16148421066E+02  0.70125536949E+01  0.18455020925E+02  0.51100000000E-03 0. -1.
        -11    1    3    3    0    0 -0.27756040058E+01 -0.98222290761E+01 -0.78823022305E+01  0.12896156417E+02  0.51100000000E-03 0.  1.
        -12    1    3    3    0    0 -0.77714048296E+01 -0.14319452202E+02  0.21688284025E+01  0.16436096283E+02  0.00000000000E+00 0.  1.
</event>
<event>
 7    1  0.2685294E-009  0.4778727E+02  0.7816164E-02  0.1312668E+00
        -11   -1    0    0    0    0  0.00000000000E+00  0.00000000000E+00  0.45593999997E+02  0.45594000000E+02  0.51100000000E-03 0.  1.
         11   -1    0    0    0    0 -0.00000000000E+00 -0.00000000000E+00 -0.45593999997E+02  0.45594000000E+02  0.51100000000E-03 0. -1.
    9900012    2    1    2    0    0  0.27877454735E+02  0.24117983476E+02 -0.22908372001E+02  0.47787272849E+02  0.20000008229E+02 0.  0.
        -12    1    1    2    0    0 -0.27877454735E+02 -0.24117983476E+02  0.22908372001E+02  0.43400727151E+02  0.00000000000E+00 0.  1.
         11    1    3    3    0    0  0.74151161353E+01  0.20545294873E+01 -0.12594322906E+02  0.14758794274E+02  0.51100000000E-03 0. -1.
        -11    1    3    3    0    0  0.10175241031E+02  0.15555608242E+02 -0.93782162767E+01  0.20819784308E+02  0.51100000000E-03 0.  1.
         12    1    3    3    0    0  0.10287097568E+02  0.65078457469E+01 -0.93583281877E+00  0.12208694267E+02  0.00000000000E+00 0. -1.
</event>
<event>
 7    1  0.2685294E-009  0.4778727E+02  0.7816164E-02  0.1312668E+00
        -11   -1    0    0    0    0  0.00000000000E+00  0.00000000000E+00  0.45593999997E+02  0.45594000000E+02  0.51100000000E-03 0.  1.
         11   -1    0    0    0    0 -0.00000000000E+00 -0.00000000000E+00 -0.45593999997E+02  0.45594000000E+02  0.51100000000E-03 0. -1.
    9900012    2    1    2    0    0 -0.43095636274E+02  0.48994222111E+01  0.15443126362E+01  0.47787272985E+02  0.20000008849E+02 0.  0.
        -12    1    1    2    0    0  0.43095636274E+02 -0.48994222111E+01 -0.15443126362E+01  0.43400727015E+02  0.00000000000E+00 0.  1.
         11    1    3    3    0    0 -0.35812793248E+02  0.59285901449E+00 -0.84166497705E+00  0.35827587726E+02  0.51100000000E-03 0. -1.
        -11    1    3    3    0    0 -0.92809309168E+00 -0.13740234111E+01  0.29854752761E+01  0.34150197667E+01  0.51100000000E-03 0.  1.
        -12    1    3    3    0    0 -0.63547499345E+01  0.56805866078E+01 -0.59949766293E+00  0.85446654929E+01  0.00000000000E+00 0.  1.
</event>
<event>
 7    1  0.2685294E-009  0.4778727E+02  0.7816164E-02  0.1312668E+00
        -11   -1    0    0    0    0  0.00000000000E+00  0.00000000000E+00  0.45593999997E+02  0.45594000000E+02  0.51100000000E-03 0.  1.
         11   -1    0    0    0    0 -0.00000000000E+00 -0.00000000000E+00 -0.45593999997E+02  0.45594000000E+02  0.51100000000E-03 0. -1.
    9900012    2    1    2    0    0  0.11054670011E+02  0.41768802347E+02  0.40968987656E+01  0.47787272379E+02  0.20000006083E+02 0.  0.
        -12    1    1    2    0    0 -0.11054670011E+02 -0.41768802347E+02 -0.40968987656E+01  0.43400727621E+02  0.00000000000E+00 0.  1.
         11    1    3    3    0    0  0.74524074970E+01  0.89669932409E+01 -0.54141044672E+01  0.12855266342E+02  0.51100000000E-03 0. -1.
        -11    1    3    3    0    0  0.28472441815E+01  0.12859481165E+02  0.67040668624E+01  0.14778956932E+02  0.51100000000E-03 0.  1.
         12    1    3    3    0    0  0.75501833275E+00  0.19942327941E+02  0.28069363704E+01  0.20153049104E+02  0.00000000000E+00 0. -1.
</event>
<event>
 7    1  0.2685294E-009  0.4778727E+02  0.7816164E-02  0.1312668E+00
        -11   -1    0    0    0    0  0.00000000000E+00  0.00000000000E+00  0.45593999997E+02  0.45594000000E+02  0.51100000000E-03 0. -1.
         11   -1    0    0    0    0 -0.00000000000E+00 -0.00000000000E+00 -0.45593999997E+02  0.45594000000E+02  0.51100000000E-03 0.  1.
    9900012    2    1    2    0    0  0.37168570686E+02 -0.15425681539E+02 -0.16253272754E+02  0.47787272206E+02  0.20000005298E+02 0.  0.
        -12    1    1    2    0    0 -0.37168570686E+02  0.15425681539E+02  0.16253272754E+02  0.43400727794E+02  0.00000000000E+00 0.  1.
         11    1    3    3    0    0  0.18475818304E+02 -0.18184803560E+02 -0.77509171396E+01  0.27057709793E+02  0.51100000000E-03 0. -1.
        -11    1    3    3    0    0  0.43823242546E+01  0.91610191489E+00 -0.20066681172E+01  0.49061925955E+01  0.51100000000E-03 0.  1.
         12    1    3    3    0    0  0.14310428128E+02  0.18430201061E+01 -0.64956874976E+01  0.15823369818E+02  0.00000000000E+00 0. -1.
</event>
<event>
 7    1  0.2685294E-009  0.4778723E+02  0.7816164E-02  0.1312668E+00
        -11   -1    0    0    0    0  0.00000000000E+00  0.00000000000E+00  0.45593999997E+02  0.45594000000E+02  0.51100000000E-03 0.  1.
         11   -1    0    0    0    0 -0.00000000000E+00 -0.00000000000E+00 -0.45593999997E+02  0.45594000000E+02  0.51100000000E-03 0. -1.
    9900012    2    1    2    0    0  0.16438017441E+02  0.36278057337E+02 -0.17242988811E+02  0.47787233593E+02  0.19999829244E+02 0.  0.
        -12    1    1    2    0    0 -0.16438017441E+02 -0.36278057337E+02  0.17242988811E+02  0.43400766407E+02  0.00000000000E+00 0.  1.
         11    1    3    3    0    0  0.28641206846E+01  0.15858916178E+02 -0.15883671394E+02  0.22627404334E+02  0.51100000000E-03 0. -1.
        -11    1    3    3    0    0  0.57655547930E+01  0.49406753713E+01  0.10191107383E+01  0.76609713584E+01  0.51100000000E-03 0.  1.
         12    1    3    3    0    0  0.78083419635E+01  0.15478465788E+02 -0.23784281551E+01  0.17498857901E+02  0.00000000000E+00 0. -1.
</event>
<event>
 7    1  0.2685294E-009  0.4778726E+02  0.7816164E-02  0.1312668E+00
        -11   -1    0    0    0    0  0.00000000000E+00  0.00000000000E+00  0.45593999997E+02  0.45594000000E+02  0.51100000000E-03 0. -1.
         11   -1    0    0    0    0 -0.00000000000E+00 -0.00000000000E+00 -0.45593999997E+02  0.45594000000E+02  0.51100000000E-03 0.  1.
    9900012    2    1    2    0    0  0.27258775739E+02  0.30728509947E+02  0.14012197239E+02  0.47787264410E+02  0.19999969749E+02 0.  0.
        -12    1    1    2    0    0 -0.27258775739E+02 -0.30728509947E+02 -0.14012197239E+02  0.43400735590E+02  0.00000000000E+00 0.  1.
         11    1    3    3    0    0  0.93730223891E+00  0.98842179780E+00  0.22641906567E+01  0.26423612033E+01  0.51100000000E-03 0. -1.
        -11    1    3    3    0    0  0.18535287532E+02  0.74498470555E+01  0.56053468746E+01  0.20747940112E+02  0.51100000000E-03 0.  1.
        -12    1    3    3    0    0  0.77861859677E+01  0.22290241093E+02  0.61426597074E+01  0.24396963094E+02  0.00000000000E+00 0.  1.
</event>
<event>
 7    1  0.2685294E-009  0.4778727E+02  0.7816164E-02  0.1312668E+00
        -11   -1    0    0    0    0  0.00000000000E+00  0.00000000000E+00  0.45593999997E+02  0.45594000000E+02  0.51100000000E-03 0.  1.
         11   -1    0    0    0    0 -0.00000000000E+00 -0.00000000000E+00 -0.45593999997E+02  0.45594000000E+02  0.51100000000E-03 0. -1.
    9900012    2    1    2    0    0  0.39779951924E+02  0.16664391619E+02  0.48452836382E+01  0.47787270782E+02  0.19999998803E+02 0.  0.
        -12    1    1    2    0    0 -0.39779951924E+02 -0.16664391619E+02 -0.48452836382E+01  0.43400729218E+02  0.00000000000E+00 0.  1.
         11    1    3    3    0    0  0.21257995808E+02  0.14419461678E+02  0.33466859404E+01  0.25904122604E+02  0.51100000000E-03 0. -1.
        -11    1    3    3    0    0 -0.48347941105E+00 -0.21599100249E+01  0.82563398507E+00  0.23623368504E+01  0.51100000000E-03 0.  1.
         12    1    3    3    0    0  0.19005435528E+02  0.44048399660E+01  0.67296371270E+00  0.19520811327E+02  0.00000000000E+00 0. -1.
</event>
<event>
 7    1  0.2685294E-009  0.4778727E+02  0.7816164E-02  0.1312668E+00
        -11   -1    0    0    0    0  0.00000000000E+00  0.00000000000E+00  0.45593999997E+02  0.45594000000E+02  0.51100000000E-03 0.  1.
         11   -1    0    0    0    0 -0.00000000000E+00 -0.00000000000E+00 -0.45593999997E+02  0.45594000000E+02  0.51100000000E-03 0. -1.
    9900012    2    1    2    0    0 -0.30802063813E+02 -0.90168877427E+00 -0.30562120268E+02  0.47787269902E+02  0.19999994790E+02 0.  0.
        -12    1    1    2    0    0  0.30802063813E+02  0.90168877427E+00  0.30562120268E+02  0.43400730098E+02  0.00000000000E+00 0.  1.
         11    1    3    3    0    0 -0.98180481041E+01  0.76696483464E+01 -0.14938463736E+02  0.19451870692E+02  0.51100000000E-03 0. -1.
        -11    1    3    3    0    0 -0.64608260078E+01 -0.29477393239E+01 -0.13885972856E+01  0.72359963037E+01  0.51100000000E-03 0.  1.
         12    1    3    3    0    0 -0.14523189701E+02 -0.56235977968E+01 -0.14235059246E+02  0.21099402906E+02  0.00000000000E+00 0. -1.
</event>
<event>
 7    1  0.2685294E-009  0.4778727E+02  0.7816164E-02  0.1312668E+00
        -11   -1    0    0    0    0  0.00000000000E+00  0.00000000000E+00  0.45593999997E+02  0.45594000000E+02  0.51100000000E-03 0.  1.
         11   -1    0    0    0    0 -0.00000000000E+00 -0.00000000000E+00 -0.45593999997E+02  0.45594000000E+02  0.51100000000E-03 0. -1.
    9900012    2    1    2    0    0  0.32649572436E+01  0.38162653867E+02 -0.20410173621E+02  0.47787270937E+02  0.19999999508E+02 0.  0.
        -12    1    1    2    0    0 -0.32649572436E+01 -0.38162653867E+02  0.20410173621E+02  0.43400729063E+02  0.00000000000E+00 0.  1.
         11    1    3    3    0    0  0.39795989162E+01  0.38969358751E+00 -0.28592687836E+01  0.49157386895E+01  0.51100000000E-03 0. -1.
        -11    1    3    3    0    0 -0.57989703425E+00  0.27419217524E+02 -0.17469372298E+02  0.32516591749E+02  0.51100000000E-03 0.  1.
        -12    1    3    3    0    0 -0.13474463834E+00  0.10353742756E+02 -0.81532539208E-01  0.10354940498E+02  0.00000000000E+00 0.  1.
</event>
<event>
 7    1  0.2685294E-009  0.4778727E+02  0.7816164E-02  0.1312668E+00
        -11   -1    0    0    0    0  0.00000000000E+00  0.00000000000E+00  0.45593999997E+02  0.45594000000E+02  0.51100000000E-03 0.  1.
         11   -1    0    0    0    0 -0.00000000000E+00 -0.00000000000E+00 -0.45593999997E+02  0.45594000000E+02  0.51100000000E-03 0. -1.
    9900012    2    1    2    0    0 -0.10340477950E+02  0.62299855230E+01 -0.41687948423E+02  0.47787271347E+02  0.20000001381E+02 0.  0.
        -12    1    1    2    0    0  0.10340477950E+02 -0.62299855230E+01  0.41687948423E+02  0.43400728653E+02  0.00000000000E+00 0.  1.
         11    1    3    3    0    0 -0.75277962638E+01  0.62854495880E+00 -0.23190671369E+02  0.24389957445E+02  0.51100000000E-03 0. -1.
        -11    1    3    3    0    0  0.30617387006E+01 -0.99524264008E+00 -0.38048610515E+00  0.32418392497E+01  0.51100000000E-03 0.  1.
        -12    1    3    3    0    0 -0.58744203871E+01  0.65966832043E+01 -0.18116790949E+02  0.20155474652E+02  0.00000000000E+00 0.  1.
</event>
<event>
 7    1  0.2685294E-009  0.4778727E+02  0.7816164E-02  0.1312668E+00
        -11   -1    0    0    0    0  0.00000000000E+00  0.00000000000E+00  0.45593999997E+02  0.45594000000E+02  0.51100000000E-03 0.  1.
         11   -1    0    0    0    0 -0.00000000000E+00 -0.00000000000E+00 -0.45593999997E+02  0.45594000000E+02  0.51100000000E-03 0. -1.
    9900012    2    1    2    0    0  0.38141270375E+02  0.79222183783E+00  0.20693937007E+02  0.47787272470E+02  0.20000006499E+02 0.  0.
        -12    1    1    2    0    0 -0.38141270375E+02 -0.79222183783E+00 -0.20693937007E+02  0.43400727530E+02  0.00000000000E+00 0.  1.
         11    1    3    3    0    0  0.12407383691E+02 -0.54882567436E+01  0.13826943521E+02  0.19371331899E+02  0.51100000000E-03 0. -1.
        -11    1    3    3    0    0  0.16142178189E+02  0.75845804304E+01  0.35630283237E+01  0.18187659225E+02  0.51100000000E-03 0.  1.
        -12    1    3    3    0    0  0.95917084947E+01 -0.13041018490E+01  0.33039651621E+01  0.10228281345E+02  0.00000000000E+00 0.  1.
</event>
<event>
 7    1  0.2685294E-009  0.4778727E+02  0.7816164E-02  0.1312668E+00
        -11   -1    0    0    0    0  0.00000000000E+00  0.00000000000E+00  0.45593999997E+02  0.45594000000E+02  0.51100000000E-03 0.  1.
         11   -1    0    0    0    0 -0.00000000000E+00 -0.00000000000E+00 -0.45593999997E+02  0.45594000000E+02  0.51100000000E-03 0. -1.
    9900012    2    1    2    0    0 -0.42789265337E+00  0.25401075532E+02 -0.35188430905E+02  0.47787269593E+02  0.19999993383E+02 0.  0.
        -12    1    1    2    0    0  0.42789265337E+00 -0.25401075532E+02  0.35188430905E+02  0.43400730407E+02  0.00000000000E+00 0.  1.
         11    1    3    3    0    0 -0.49378711904E+01  0.20441585699E+02 -0.28444150744E+02  0.35373870436E+02  0.51100000000E-03 0. -1.
        -11    1    3    3    0    0  0.23342144187E+01 -0.54588079556E+00  0.10574216747E+01  0.26200541320E+01  0.51100000000E-03 0.  1.
        -12    1    3    3    0    0  0.21757641183E+01  0.55053706288E+01 -0.78017018350E+01  0.97933450251E+01  0.00000000000E+00 0.  1.
</event>
<event>
 7    1  0.2685294E-009  0.4778727E+02  0.7816164E-02  0.1312668E+00
        -11   -1    0    0    0    0  0.00000000000E+00  0.00000000000E+00  0.45593999997E+02  0.45594000000E+02  0.51100000000E-03 0.  1.
         11   -1    0    0    0    0 -0.00000000000E+00 -0.00000000000E+00 -0.45593999997E+02  0.45594000000E+02  0.51100000000E-03 0. -1.
    9900012    2    1    2    0    0 -0.11341279705E+02  0.15630149394E+02 -0.38867683929E+02  0.47787273630E+02  0.20000011788E+02 0.  0.
        -12    1    1    2    0    0  0.11341279705E+02 -0.15630149394E+02  0.38867683929E+02  0.43400726370E+02  0.00000000000E+00 0.  1.
         11    1    3    3    0    0  0.50398918100E+00  0.36177904767E+01 -0.52219801711E+01  0.63727145077E+01  0.51100000000E-03 0. -1.
        -11    1    3    3    0    0  0.21909029285E+01  0.78642491967E+01 -0.19137844536E+02  0.20806334728E+02  0.51100000000E-03 0.  1.
        -12    1    3    3    0    0 -0.14036171815E+02  0.41481097207E+01 -0.14507859222E+02  0.20608224394E+02  0.00000000000E+00 0.  1.
</event>
<event>
 7    1  0.2766279E-009  0.4778726E+02  0.7816164E-02  0.1312668E+00
        -11   -1    0    0    0    0  0.00000000000E+00  0.00000000000E+00  0.45593999997E+02  0.45594000000E+02  0.51100000000E-03 0. -1.
         11   -1    0    0    0    0 -0.00000000000E+00 -0.00000000000E+00 -0.45593999997E+02  0.45594000000E+02  0.51100000000E-03 0.  1.
    9900012    2    1    2    0    0  0.14022474261E+02 -0.41072393922E+02  0.22915712313E+00  0.47787264524E+02  0.19999970269E+02 0.  0.
        -12    1    1    2    0    0 -0.14022474261E+02  0.41072393922E+02 -0.22915712313E+00  0.43400735476E+02  0.00000000000E+00 0.  1.
         11    1    3    3    0    0  0.52443080264E+01 -0.16002439290E+02 -0.18057548197E+01  0.16936398101E+02  0.51100000000E-03 0. -1.
        -11    1    3    3    0    0  0.18467790783E+00 -0.51948716781E+01 -0.58323461668E+01  0.78126218232E+01  0.51100000000E-03 0.  1.
        -12    1    3    3    0    0  0.85934883265E+01 -0.19875082954E+02  0.78672581096E+01  0.23038244599E+02  0.00000000000E+00 0.  1.
</event>
<event>
 7    1  0.2685294E-009  0.4778727E+02  0.7816164E-02  0.1312668E+00
        -11   -1    0    0    0    0  0.00000000000E+00  0.00000000000E+00  0.45593999997E+02  0.45594000000E+02  0.51100000000E-03 0.  1.
         11   -1    0    0    0    0 -0.00000000000E+00 -0.00000000000E+00 -0.45593999997E+02  0.45594000000E+02  0.51100000000E-03 0. -1.
    9900012    2    1    2    0    0 -0.36688936450E+02  0.13738170358E+02 -0.18676394983E+02  0.47787272908E+02  0.20000008495E+02 0.  0.
        -12    1    1    2    0    0  0.36688936450E+02 -0.13738170358E+02  0.18676394983E+02  0.43400727092E+02  0.00000000000E+00 0.  1.
         11    1    3    3    0    0 -0.22220356813E+01 -0.28492419658E+00  0.17716978059E+00  0.22472235668E+01  0.51100000000E-03 0. -1.
        -11    1    3    3    0    0 -0.55339705395E+01  0.69824299493E+00  0.35364670013E+01  0.66044660892E+01  0.51100000000E-03 0.  1.
        -12    1    3    3    0    0 -0.28932930229E+02  0.13324851560E+02 -0.22390031764E+02  0.38935583252E+02  0.00000000000E+00 0.  1.
</event>
<event>
 7    1  0.2685294E-009  0.4778727E+02  0.7816164E-02  0.1312668E+00
        -11   -1    0    0    0    0  0.00000000000E+00  0.00000000000E+00  0.45593999997E+02  0.45594000000E+02  0.51100000000E-03 0.  1.
         11   -1    0    0    0    0 -0.00000000000E+00 -0.00000000000E+00 -0.45593999997E+02  0.45594000000E+02  0.51100000000E-03 0. -1.
    9900012    2    1    2    0    0  0.11350351647E+02  0.41482273155E+02 -0.58321565526E+01  0.47787268225E+02  0.19999987143E+02 0.  0.
        -12    1    1    2    0    0 -0.11350351647E+02 -0.41482273155E+02  0.58321565526E+01  0.43400731775E+02  0.00000000000E+00 0.  1.
         11    1    3    3    0    0  0.10175372418E+02  0.22732208014E+02 -0.95457268142E+01  0.26672314967E+02  0.51100000000E-03 0. -1.
        -11    1    3    3    0    0  0.11245988571E+01  0.17003928752E+02  0.33261811354E-01  0.17041109770E+02  0.51100000000E-03 0.  1.
         12    1    3    3    0    0  0.50380372715E-01  0.17461363883E+01  0.36803084502E+01  0.40738434871E+01  0.00000000000E+00 0. -1.
</event>
<event>
 7    1  0.2685294E-009  0.4778727E+02  0.7816164E-02  0.1312668E+00
        -11   -1    0    0    0    0  0.00000000000E+00  0.00000000000E+00  0.45593999997E+02  0.45594000000E+02  0.51100000000E-03 0. -1.
         11   -1    0    0    0    0 -0.00000000000E+00 -0.00000000000E+00 -0.45593999997E+02  0.45594000000E+02  0.51100000000E-03 0.  1.
    9900012    2    1    2    0    0 -0.15542645454E+02  0.40138464364E+02  0.55635690008E+01  0.47787269024E+02  0.19999990788E+02 0.  0.
        -12    1    1    2    0    0  0.15542645454E+02 -0.40138464364E+02 -0.55635690008E+01  0.43400730976E+02  0.00000000000E+00 0.  1.
         11    1    3    3    0    0 -0.76389667080E+01  0.60352317111E+01  0.65021110551E+01  0.11707061228E+02  0.51100000000E-03 0. -1.
        -11    1    3    3    0    0 -0.25419975961E+00  0.62113248650E+01 -0.33433600693E+01  0.70585572825E+01  0.51100000000E-03 0.  1.
         12    1    3    3    0    0 -0.76494789863E+01  0.27891907788E+02  0.24048180150E+01  0.29021650513E+02  0.00000000000E+00 0. -1.
</event>
<event>
 7    1  0.2685294E-009  0.4778727E+02  0.7816164E-02  0.1312668E+00
        -11   -1    0    0    0    0  0.00000000000E+00  0.00000000000E+00  0.45593999997E+02  0.45594000000E+02  0.51100000000E-03 0.  1.
         11   -1    0    0    0    0 -0.00000000000E+00 -0.00000000000E+00 -0.45593999997E+02  0.45594000000E+02  0.51100000000E-03 0. -1.
    9900012    2    1    2    0    0  0.30371562788E+01  0.12031315672E+01 -0.43277608854E+02  0.47787271066E+02  0.20000000100E+02 0.  0.
        -12    1    1    2    0    0 -0.30371562788E+01 -0.12031315672E+01  0.43277608854E+02  0.43400728934E+02  0.00000000000E+00 0.  1.
         11    1    3    3    0    0  0.67806107987E+01  0.49208924088E+01 -0.32493238553E+02  0.33555959483E+02  0.51100000000E-03 0. -1.
        -11    1    3    3    0    0 -0.49557546273E+01 -0.55686707398E+00 -0.92622863469E+01  0.10519484469E+02  0.51100000000E-03 0.  1.
         12    1    3    3    0    0  0.12123001073E+01 -0.31608937676E+01 -0.15220839538E+01  0.37118271138E+01  0.00000000000E+00 0. -1.
</event>
<event>
 7    1  0.2685294E-009  0.4778727E+02  0.7816164E-02  0.1312668E+00
        -11   -1    0    0    0    0  0.00000000000E+00  0.00000000000E+00  0.45593999997E+02  0.45594000000E+02  0.51100000000E-03 0.  1.
         11   -1    0    0    0    0 -0.00000000000E+00 -0.00000000000E+00 -0.45593999997E+02  0.45594000000E+02  0.51100000000E-03 0. -1.
    9900012    2    1    2    0    0  0.30056968344E+02  0.76399010136E+01 -0.30361719587E+02  0.47787269018E+02  0.19999990762E+02 0.  0.
        -12    1    1    2    0    0 -0.30056968344E+02 -0.76399010136E+01  0.30361719587E+02  0.43400730982E+02  0.00000000000E+00 0.  1.
         11    1    3    3    0    0  0.14428845125E+02 -0.64309353576E-01 -0.12107373344E+02  0.18835715991E+02  0.51100000000E-03 0. -1.
        -11    1    3    3    0    0  0.22266260757E+01  0.21006858543E+01  0.22671755354E+01  0.38093083242E+01  0.51100000000E-03 0.  1.
        -12    1    3    3    0    0  0.13401497143E+02  0.56035245128E+01 -0.20521521778E+02  0.25142244703E+02  0.00000000000E+00 0.  1.
</event>
<event>
 7    1  0.2685294E-009  0.4778727E+02  0.7816164E-02  0.1312668E+00
        -11   -1    0    0    0    0  0.00000000000E+00  0.00000000000E+00  0.45593999997E+02  0.45594000000E+02  0.51100000000E-03 0. -1.
         11   -1    0    0    0    0 -0.00000000000E+00 -0.00000000000E+00 -0.45593999997E+02  0.45594000000E+02  0.51100000000E-03 0.  1.
    9900012    2    1    2    0    0 -0.21750868255E+02 -0.36590144554E+02  0.84666458380E+01  0.47787273738E+02  0.20000012282E+02 0.  0.
        -12    1    1    2    0    0  0.21750868255E+02  0.36590144554E+02 -0.84666458380E+01  0.43400726262E+02  0.00000000000E+00 0.  1.
         11    1    3    3    0    0 -0.56851035416E+01 -0.23658859876E+02  0.50353660609E+01  0.24847876460E+02  0.51100000000E-03 0. -1.
        -11    1    3    3    0    0 -0.81687442709E+01 -0.46142039457E+01 -0.29244780667E+01  0.98270968877E+01  0.51100000000E-03 0.  1.
         12    1    3    3    0    0 -0.78970204424E+01 -0.83170807317E+01  0.63557578438E+01  0.13112300391E+02  0.00000000000E+00 0. -1.
</event>
<event>
 7    1  0.2685294E-009  0.4778727E+02  0.7816164E-02  0.1312668E+00
        -11   -1    0    0    0    0  0.00000000000E+00  0.00000000000E+00  0.45593999997E+02  0.45594000000E+02  0.51100000000E-03 0.  1.
         11   -1    0    0    0    0 -0.00000000000E+00 -0.00000000000E+00 -0.45593999997E+02  0.45594000000E+02  0.51100000000E-03 0. -1.
    9900012    2    1    2    0    0 -0.33086631050E+02  0.98706068995E+01 -0.26295803321E+02  0.47787270662E+02  0.19999998256E+02 0.  0.
        -12    1    1    2    0    0  0.33086631050E+02 -0.98706068995E+01  0.26295803321E+02  0.43400729338E+02  0.00000000000E+00 0.  1.
         11    1    3    3    0    0 -0.32037350982E+02  0.87676303332E+01 -0.18142231390E+02  0.37847110322E+02  0.51100000000E-03 0. -1.
        -11    1    3    3    0    0  0.14660907885E-01 -0.21291683928E+01 -0.43066807563E+01  0.48042764684E+01  0.51100000000E-03 0.  1.
        -12    1    3    3    0    0 -0.10639409752E+01  0.32321449592E+01 -0.38468911744E+01  0.51358838717E+01  0.00000000000E+00 0.  1.
</event>
<event>
 7    1  0.2685294E-009  0.4778725E+02  0.7816164E-02  0.1312668E+00
        -11   -1    0    0    0    0  0.00000000000E+00  0.00000000000E+00  0.45593999997E+02  0.45594000000E+02  0.51100000000E-03 0.  1.
         11   -1    0    0    0    0 -0.00000000000E+00 -0.00000000000E+00 -0.45593999997E+02  0.45594000000E+02  0.51100000000E-03 0. -1.
    9900012    2    1    2    0    0  0.36561176434E+01 -0.38337707969E+02 -0.20011941686E+02  0.47787252788E+02  0.19999916760E+02 0.  0.
        -12    1    1    2    0    0 -0.36561176434E+01  0.38337707969E+02  0.20011941686E+02  0.43400747212E+02  0.00000000000E+00 0.  1.
         11    1    3    3    0    0  0.83870296974E+01 -0.26073589923E+02 -0.11268904275E+02  0.29616930334E+02  0.51100000000E-03 0. -1.
        -11    1    3    3    0    0 -0.19100314086E+01 -0.23724046848E+01 -0.71368666371E+01  0.77595998369E+01  0.51100000000E-03 0.  1.
         12    1    3    3    0    0 -0.28208806454E+01 -0.98917133615E+01 -0.16061707739E+01  0.10410722616E+02  0.00000000000E+00 0. -1.
</event>
<event>
 7    1  0.2837394E-009  0.4778727E+02  0.7816164E-02  0.1312668E+00
        -11   -1    0    0    0    0  0.00000000000E+00  0.00000000000E+00  0.45593999997E+02  0.45594000000E+02  0.51100000000E-03 0.  1.
         11   -1    0    0    0    0 -0.00000000000E+00 -0.00000000000E+00 -0.45593999997E+02  0.45594000000E+02  0.51100000000E-03 0. -1.
    9900012    2    1    2    0    0  0.40655435849E+02  0.12420229668E+02  0.87462425332E+01  0.47787270426E+02  0.19999997180E+02 0.  0.
        -12    1    1    2    0    0 -0.40655435849E+02 -0.12420229668E+02 -0.87462425332E+01  0.43400729574E+02  0.00000000000E+00 0.  1.
         11    1    3    3    0    0  0.35424105910E+02  0.83688790356E+01  0.77771238185E+01  0.37220815023E+02  0.51100000000E-03 0. -1.
        -11    1    3    3    0    0  0.31752773215E+01  0.40492561018E+01 -0.30999920060E+01  0.60073964198E+01  0.51100000000E-03 0.  1.
        -12    1    3    3    0    0  0.20560526184E+01  0.20945307906E-02  0.40691107207E+01  0.45590589834E+01  0.00000000000E+00 0.  1.
</event>
<event>
 7    1  0.2685294E-009  0.4778728E+02  0.7816164E-02  0.1312668E+00
        -11   -1    0    0    0    0  0.00000000000E+00  0.00000000000E+00  0.45593999997E+02  0.45594000000E+02  0.51100000000E-03 0.  1.
         11   -1    0    0    0    0 -0.00000000000E+00 -0.00000000000E+00 -0.45593999997E+02  0.45594000000E+02  0.51100000000E-03 0. -1.
    9900012    2    1    2    0    0 -0.21002951836E+01 -0.43348016264E+02  0.40112395264E+00  0.47787278182E+02  0.20000032544E+02 0.  0.
        -12    1    1    2    0    0  0.21002951836E+01  0.43348016264E+02 -0.40112395264E+00  0.43400721818E+02  0.00000000000E+00 0.  1.
         11    1    3    3    0    0 -0.69792748138E+01 -0.11514607848E+02 -0.60899772499E+01  0.14777831166E+02  0.51100000000E-03 0. -1.
        -11    1    3    3    0    0  0.48666849603E+01 -0.22052721883E+02  0.46427392523E+01  0.23055632565E+02  0.51100000000E-03 0.  1.
         12    1    3    3    0    0  0.12294669963E-01 -0.97806865336E+01  0.18483619502E+01  0.99538144511E+01  0.00000000000E+00 0. -1.
</event>
<event>
 7    1  0.2685294E-009  0.4778727E+02  0.7816164E-02  0.1312668E+00
        -11   -1    0    0    0    0  0.00000000000E+00  0.00000000000E+00  0.45593999997E+02  0.45594000000E+02  0.51100000000E-03 0.  1.
         11   -1    0    0    0    0 -0.00000000000E+00 -0.00000000000E+00 -0.45593999997E+02  0.45594000000E+02  0.51100000000E-03 0. -1.
    9900012    2    1    2    0    0 -0.11254627756E+02 -0.70145662230E+01 -0.41324965122E+02  0.47787268122E+02  0.19999986675E+02 0.  0.
        -12    1    1    2    0    0  0.11254627756E+02  0.70145662230E+01  0.41324965122E+02  0.43400731878E+02  0.00000000000E+00 0.  1.
         11    1    3    3    0    0 -0.84343833692E-01  0.28274815391E+01 -0.22568507782E+01  0.36187209664E+01  0.51100000000E-03 0. -1.
        -11    1    3    3    0    0 -0.79436409778E+01 -0.12021372110E+02 -0.37112283400E+02  0.39811259698E+02  0.51100000000E-03 0.  1.
        -12    1    3    3    0    0 -0.32266429443E+01  0.21793243475E+01 -0.19558309442E+01  0.43572874571E+01  0.00000000000E+00 0.  1.
</event>
<event>
 7    1  0.2835784E-009  0.4778728E+02  0.7816164E-02  0.1312668E+00
        -11   -1    0    0    0    0  0.00000000000E+00  0.00000000000E+00  0.45593999997E+02  0.45594000000E+02  0.51100000000E-03 0.  1.
         11   -1    0    0    0    0 -0.00000000000E+00 -0.00000000000E+00 -0.45593999997E+02  0.45594000000E+02  0.51100000000E-03 0. -1.
    9900012    2    1    2    0    0 -0.98742379515E+01 -0.38528503015E+02  0.17368845896E+02  0.47787275035E+02  0.20000018196E+02 0.  0.
        -12    1    1    2    0    0  0.98742379515E+01  0.38528503015E+02 -0.17368845896E+02  0.43400724965E+02  0.00000000000E+00 0.  1.
         11    1    3    3    0    0  0.85397425076E+00 -0.12687485529E+02 -0.63250309040E-01  0.12716350182E+02  0.51100000000E-03 0. -1.
        -11    1    3    3    0    0 -0.69247239594E+01 -0.24530287827E+02  0.17711194579E+02  0.31038254404E+02  0.51100000000E-03 0.  1.
        -12    1    3    3    0    0 -0.38034882428E+01 -0.13107296587E+01 -0.27909837414E+00  0.40326704495E+01  0.00000000000E+00 0.  1.
</event>
<event>
 7    1  0.2685294E-009  0.4778727E+02  0.7816164E-02  0.1312668E+00
        -11   -1    0    0    0    0  0.00000000000E+00  0.00000000000E+00  0.45593999997E+02  0.45594000000E+02  0.51100000000E-03 0.  1.
         11   -1    0    0    0    0 -0.00000000000E+00 -0.00000000000E+00 -0.45593999997E+02  0.45594000000E+02  0.51100000000E-03 0. -1.
    9900012    2    1    2    0    0 -0.15768554595E+02 -0.14211761303E+01 -0.40409853211E+02  0.47787270834E+02  0.19999999038E+02 0.  0.
        -12    1    1    2    0    0  0.15768554595E+02  0.14211761303E+01  0.40409853211E+02  0.43400729166E+02  0.00000000000E+00 0.  1.
         11    1    3    3    0    0  0.56436620866E-01  0.88485664329E+00 -0.50580064954E+00  0.10207795695E+01  0.51100000000E-03 0. -1.
        -11    1    3    3    0    0 -0.12895974386E+01  0.53135358431E+01 -0.21151246835E+02  0.21846555052E+02  0.51100000000E-03 0.  1.
        -12    1    3    3    0    0 -0.14535393778E+02 -0.76195686167E+01 -0.18752805727E+02  0.24919936212E+02  0.00000000000E+00 0.  1.
</event>
<event>
 7    1  0.2685294E-009  0.4778725E+02  0.7816164E-02  0.1312668E+00
        -11   -1    0    0    0    0  0.00000000000E+00  0.00000000000E+00  0.45593999997E+02  0.45594000000E+02  0.51100000000E-03 0.  1.
         11   -1    0    0    0    0 -0.00000000000E+00 -0.00000000000E+00 -0.45593999997E+02  0.45594000000E+02  0.51100000000E-03 0. -1.
    9900012    2    1    2    0    0  0.95079180185E+01  0.10595747542E+02 -0.40999446489E+02  0.47787251349E+02  0.19999910201E+02 0.  0.
        -12    1    1    2    0    0 -0.95079180185E+01 -0.10595747542E+02  0.40999446489E+02  0.43400748651E+02  0.00000000000E+00 0.  1.
         11    1    3    3    0    0 -0.85337575059E+00  0.32074629192E+01 -0.77106147069E+01  0.83946201802E+01  0.51100000000E-03 0. -1.
        -11    1    3    3    0    0 -0.36824401332E+01  0.58474051387E+01 -0.10059351706E+02  0.12204223416E+02  0.51100000000E-03 0.  1.
        -12    1    3    3    0    0  0.14043733902E+02  0.15408794843E+01 -0.23229480076E+02  0.27188407753E+02  0.00000000000E+00 0.  1.
</event>
<event>
 7    1  0.2685294E-009  0.4778727E+02  0.7816164E-02  0.1312668E+00
        -11   -1    0    0    0    0  0.00000000000E+00  0.00000000000E+00  0.45593999997E+02  0.45594000000E+02  0.51100000000E-03 0.  1.
         11   -1    0    0    0    0 -0.00000000000E+00 -0.00000000000E+00 -0.45593999997E+02  0.45594000000E+02  0.51100000000E-03 0. -1.
    9900012    2    1    2    0    0 -0.43055131456E+02 -0.38109189752E+01 -0.39186758753E+01  0.47787268799E+02  0.19999989764E+02 0.  0.
        -12    1    1    2    0    0  0.43055131456E+02  0.38109189752E+01  0.39186758753E+01  0.43400731201E+02  0.00000000000E+00 0.  1.
         11    1    3    3    0    0 -0.19066379834E+02  0.41899201754E+01 -0.65037051460E+00  0.19532159459E+02  0.51100000000E-03 0. -1.
        -11    1    3    3    0    0 -0.17687407091E+02 -0.11253234257E+02 -0.27772736511E+01  0.21146935949E+02  0.51100000000E-03 0.  1.
        -12    1    3    3    0    0 -0.63013445303E+01  0.32523951063E+01 -0.49103170959E+00  0.71081733910E+01  0.00000000000E+00 0.  1.
</event>
<event>
 7    1  0.2685294E-009  0.4778727E+02  0.7816164E-02  0.1312668E+00
        -11   -1    0    0    0    0  0.00000000000E+00  0.00000000000E+00  0.45593999997E+02  0.45594000000E+02  0.51100000000E-03 0. -1.
         11   -1    0    0    0    0 -0.00000000000E+00 -0.00000000000E+00 -0.45593999997E+02  0.45594000000E+02  0.51100000000E-03 0.  1.
    9900012    2    1    2    0    0 -0.32613694292E+02  0.27137142481E+02  0.91403267215E+01  0.47787272702E+02  0.20000007558E+02 0.  0.
        -12    1    1    2    0    0  0.32613694292E+02 -0.27137142481E+02 -0.91403267215E+01  0.43400727298E+02  0.00000000000E+00 0.  1.
         11    1    3    3    0    0 -0.43370558359E+01  0.10596895981E+02  0.74082061976E+01  0.13637660250E+02  0.51100000000E-03 0. -1.
        -11    1    3    3    0    0 -0.17459298325E+02  0.49441418796E+01 -0.38972068662E+00  0.18150028083E+02  0.51100000000E-03 0.  1.
         12    1    3    3    0    0 -0.10817340131E+02  0.11596104620E+02  0.21218412105E+01  0.15999584369E+02  0.00000000000E+00 0. -1.
</event>
<event>
 7    1  0.2685294E-009  0.4778727E+02  0.7816164E-02  0.1312668E+00
        -11   -1    0    0    0    0  0.00000000000E+00  0.00000000000E+00  0.45593999997E+02  0.45594000000E+02  0.51100000000E-03 0.  1.
         11   -1    0    0    0    0 -0.00000000000E+00 -0.00000000000E+00 -0.45593999997E+02  0.45594000000E+02  0.51100000000E-03 0. -1.
    9900012    2    1    2    0    0  0.24636564645E+02  0.16819330929E+01 -0.35690813124E+02  0.47787270076E+02  0.19999995586E+02 0.  0.
        -12    1    1    2    0    0 -0.24636564645E+02 -0.16819330929E+01  0.35690813124E+02  0.43400729924E+02  0.00000000000E+00 0.  1.
         11    1    3    3    0    0  0.15162421396E+01 -0.22636137447E+00 -0.13995242208E+02  0.14078957149E+02  0.51100000000E-03 0. -1.
        -11    1    3    3    0    0  0.23164039145E+00 -0.64436293006E+00  0.11052753053E+01  0.13001902238E+01  0.51100000000E-03 0.  1.
         12    1    3    3    0    0  0.22888682114E+02  0.25526573974E+01 -0.22800846222E+02  0.32408122703E+02  0.00000000000E+00 0. -1.
</event>
<event>
 7    1  0.2685294E-009  0.4778727E+02  0.7816164E-02  0.1312668E+00
        -11   -1    0    0    0    0  0.00000000000E+00  0.00000000000E+00  0.45593999997E+02  0.45594000000E+02  0.51100000000E-03 0.  1.
         11   -1    0    0    0    0 -0.00000000000E+00 -0.00000000000E+00 -0.45593999997E+02  0.45594000000E+02  0.51100000000E-03 0. -1.
    9900012    2    1    2    0    0 -0.13543293633E+00 -0.35748446231E+02 -0.24610029244E+02  0.47787270866E+02  0.19999999185E+02 0.  0.
        -12    1    1    2    0    0  0.13543293633E+00  0.35748446231E+02  0.24610029244E+02  0.43400729134E+02  0.00000000000E+00 0.  1.
         11    1    3    3    0    0 -0.41308207459E+01 -0.21259887241E+02 -0.14958591614E+02  0.26321207208E+02  0.51100000000E-03 0. -1.
        -11    1    3    3    0    0  0.42182528914E+01 -0.15815393553E+02 -0.57658182573E+01  0.17354105887E+02  0.51100000000E-03 0.  1.
         12    1    3    3    0    0 -0.22286508177E+00  0.13268345633E+01 -0.38856193725E+01  0.41119577711E+01  0.00000000000E+00 0. -1.
</event>
<event>
 7    1  0.2685294E-009  0.4778727E+02  0.7816164E-02  0.1312668E+00
        -11   -1    0    0    0    0  0.00000000000E+00  0.00000000000E+00  0.45593999997E+02  0.45594000000E+02  0.51100000000E-03 0.  1.
         11   -1    0    0    0    0 -0.00000000000E+00 -0.00000000000E+00 -0.45593999997E+02  0.45594000000E+02  0.51100000000E-03 0. -1.
    9900012    2    1    2    0    0  0.29158418531E+02 -0.10593593343E+02 -0.30351038083E+02  0.47787273003E+02  0.20000008930E+02 0.  0.
        -12    1    1    2    0    0 -0.29158418531E+02  0.10593593343E+02  0.30351038083E+02  0.43400726997E+02  0.00000000000E+00 0.  1.
         11    1    3    3    0    0  0.18052263413E+02 -0.26565473800E+01 -0.69727170092E+01  0.19533567034E+02  0.51100000000E-03 0. -1.
        -11    1    3    3    0    0  0.21323824581E+00 -0.16077370294E+01 -0.89652353284E+01  0.91107482492E+01  0.51100000000E-03 0.  1.
         12    1    3    3    0    0  0.10892916872E+02 -0.63293089339E+01 -0.14413085745E+02  0.19142957720E+02  0.00000000000E+00 0. -1.
</event>
<event>
 7    1  0.2685294E-009  0.4778727E+02  0.7816164E-02  0.1312668E+00
        -11   -1    0    0    0    0  0.00000000000E+00  0.00000000000E+00  0.45593999997E+02  0.45594000000E+02  0.51100000000E-03 0.  1.
         11   -1    0    0    0    0 -0.00000000000E+00 -0.00000000000E+00 -0.45593999997E+02  0.45594000000E+02  0.51100000000E-03 0. -1.
    9900012    2    1    2    0    0  0.33992081454E+01  0.70500585881E+01 -0.42689172216E+02  0.47787269977E+02  0.19999995131E+02 0.  0.
        -12    1    1    2    0    0 -0.33992081454E+01 -0.70500585881E+01  0.42689172216E+02  0.43400730023E+02  0.00000000000E+00 0.  1.
         11    1    3    3    0    0 -0.55237832463E+01 -0.27122871144E+01 -0.19331751186E+02  0.20287564834E+02  0.51100000000E-03 0. -1.
        -11    1    3    3    0    0  0.16102422493E+01  0.23170605493E+01 -0.13178275362E+01  0.31142124794E+01  0.51100000000E-03 0.  1.
         12    1    3    3    0    0  0.73127491424E+01  0.74452851532E+01 -0.22039593494E+02  0.24385492663E+02  0.00000000000E+00 0. -1.
</event>
<event>
 7    1  0.2685294E-009  0.4778726E+02  0.7816164E-02  0.1312668E+00
        -11   -1    0    0    0    0  0.00000000000E+00  0.00000000000E+00  0.45593999997E+02  0.45594000000E+02  0.51100000000E-03 0.  1.
         11   -1    0    0    0    0 -0.00000000000E+00 -0.00000000000E+00 -0.45593999997E+02  0.45594000000E+02  0.51100000000E-03 0. -1.
    9900012    2    1    2    0    0 -0.16730386765E+01  0.13375149115E+02 -0.41254458094E+02  0.47787262853E+02  0.19999962652E+02 0.  0.
        -12    1    1    2    0    0  0.16730386765E+01 -0.13375149115E+02  0.41254458094E+02  0.43400737147E+02  0.00000000000E+00 0.  1.
         11    1    3    3    0    0 -0.24567474907E+01  0.62684737974E+01 -0.21412010746E+02  0.22445569194E+02  0.51100000000E-03 0. -1.
        -11    1    3    3    0    0  0.54059119282E+01 -0.17237567819E+01 -0.87548489019E+01  0.10432765730E+02  0.51100000000E-03 0.  1.
        -12    1    3    3    0    0 -0.46222031140E+01  0.88304321000E+01 -0.11087598446E+02  0.14908927929E+02  0.00000000000E+00 0.  1.
</event>
<event>
 7    1  0.2685294E-009  0.4778726E+02  0.7816164E-02  0.1312668E+00
        -11   -1    0    0    0    0  0.00000000000E+00  0.00000000000E+00  0.45593999997E+02  0.45594000000E+02  0.51100000000E-03 0.  1.
         11   -1    0    0    0    0 -0.00000000000E+00 -0.00000000000E+00 -0.45593999997E+02  0.45594000000E+02  0.51100000000E-03 0. -1.
    9900012    2    1    2    0    0 -0.14574346516E+02  0.22104334040E+02 -0.34389106894E+02  0.47787264606E+02  0.19999970646E+02 0.  0.
        -12    1    1    2    0    0  0.14574346516E+02 -0.22104334040E+02  0.34389106894E+02  0.43400735394E+02  0.00000000000E+00 0.  1.
         11    1    3    3    0    0 -0.38758711045E-01  0.64510221257E+01 -0.57729626118E+01  0.86570368073E+01  0.51100000000E-03 0. -1.
        -11    1    3    3    0    0 -0.10143186724E-01  0.98322485869E+01 -0.17011104817E+02  0.19648178097E+02  0.51100000000E-03 0.  1.
        -12    1    3    3    0    0 -0.14525444618E+02  0.58210633273E+01 -0.11605039466E+02  0.19482049703E+02  0.00000000000E+00 0.  1.
</event>
<event>
 7    1  0.2685294E-009  0.4778730E+02  0.7816164E-02  0.1312668E+00
        -11   -1    0    0    0    0  0.00000000000E+00  0.00000000000E+00  0.45593999997E+02  0.45594000000E+02  0.51100000000E-03 0.  1.
         11   -1    0    0    0    0 -0.00000000000E+00 -0.00000000000E+00 -0.45593999997E+02  0.45594000000E+02  0.51100000000E-03 0. -1.
    9900012    2    1    2    0    0  0.18904575776E+02  0.35019904697E+02 -0.17316013348E+02  0.47787296912E+02  0.20000117942E+02 0.  0.
        -12    1    1    2    0    0 -0.18904575776E+02 -0.35019904697E+02  0.17316013348E+02  0.43400703088E+02  0.00000000000E+00 0.  1.
         11    1    3    3    0    0  0.56868104916E+00  0.15038496779E+02 -0.12134661192E+02  0.19332092127E+02  0.51100000000E-03 0. -1.
        -11    1    3    3    0    0  0.11811243115E+01  0.35524566849E+01  0.10699158393E+01  0.38935489340E+01  0.51100000000E-03 0.  1.
         12    1    3    3    0    0  0.17154770415E+02  0.16428951232E+02 -0.62512679957E+01  0.24561655851E+02  0.00000000000E+00 0. -1.
</event>
<event>
 7    1  0.2685294E-009  0.4778727E+02  0.7816164E-02  0.1312668E+00
        -11   -1    0    0    0    0  0.00000000000E+00  0.00000000000E+00  0.45593999997E+02  0.45594000000E+02  0.51100000000E-03 0. -1.
         11   -1    0    0    0    0 -0.00000000000E+00 -0.00000000000E+00 -0.45593999997E+02  0.45594000000E+02  0.51100000000E-03 0.  1.
    9900012    2    1    2    0    0  0.41924005573E+01 -0.20018688707E+02  0.38279229689E+02  0.47787267914E+02  0.19999985729E+02 0.  0.
        -12    1    1    2    0    0 -0.41924005573E+01  0.20018688707E+02 -0.38279229689E+02  0.43400732086E+02  0.00000000000E+00 0.  1.
         11    1    3    3    0    0 -0.64272652793E+01 -0.58858628247E+01  0.15831723122E+02  0.18071983218E+02  0.51100000000E-03 0. -1.
        -11    1    3    3    0    0  0.81875675007E+01 -0.42195812455E+01  0.95617463498E+01  0.13276600506E+02  0.51100000000E-03 0.  1.
         12    1    3    3    0    0  0.24320983360E+01 -0.99132446369E+01  0.12885760217E+02  0.16438684190E+02  0.00000000000E+00 0. -1.
</event>
<event>
 7    1  0.2685294E-009  0.4778727E+02  0.7816164E-02  0.1312668E+00
        -11   -1    0    0    0    0  0.00000000000E+00  0.00000000000E+00  0.45593999997E+02  0.45594000000E+02  0.51100000000E-03 0. -1.
         11   -1    0    0    0    0 -0.00000000000E+00 -0.00000000000E+00 -0.45593999997E+02  0.45594000000E+02  0.51100000000E-03 0.  1.
    9900012    2    1    2    0    0 -0.41362866333E+02  0.87447155425E+01 -0.98115509464E+01  0.47787270822E+02  0.19999998985E+02 0.  0.
        -12    1    1    2    0    0  0.41362866333E+02 -0.87447155425E+01  0.98115509464E+01  0.43400729178E+02  0.00000000000E+00 0.  1.
         11    1    3    3    0    0 -0.14336543261E+02 -0.19293120824E+01 -0.33880954893E+01  0.14857251062E+02  0.51100000000E-03 0. -1.
        -11    1    3    3    0    0 -0.11121289737E+01  0.53426489406E+01 -0.30699196291E+01  0.62614004302E+01  0.51100000000E-03 0.  1.
        -12    1    3    3    0    0 -0.25914194098E+02  0.53313786842E+01 -0.33535358280E+01  0.26668619330E+02  0.00000000000E+00 0.  1.
</event>
<event>
 7    1  0.2685294E-009  0.4778727E+02  0.7816164E-02  0.1312668E+00
        -11   -1    0    0    0    0  0.00000000000E+00  0.00000000000E+00  0.45593999997E+02  0.45594000000E+02  0.51100000000E-03 0. -1.
         11   -1    0    0    0    0 -0.00000000000E+00 -0.00000000000E+00 -0.45593999997E+02  0.45594000000E+02  0.51100000000E-03 0.  1.
    9900012    2    1    2    0    0  0.36873355439E+02  0.16924931111E+02  0.15411867807E+02  0.47787270700E+02  0.19999998430E+02 0.  0.
        -12    1    1    2    0    0 -0.36873355439E+02 -0.16924931111E+02 -0.15411867807E+02  0.43400729300E+02  0.00000000000E+00 0.  1.
         11    1    3    3    0    0  0.21717557606E+02  0.79783333270E+01  0.31823410987E+00  0.23138871715E+02  0.51100000000E-03 0. -1.
        -11    1    3    3    0    0  0.17763778291E+00  0.28160113222E+01  0.44795042860E+01  0.52940942434E+01  0.51100000000E-03 0.  1.
         12    1    3    3    0    0  0.14978160051E+02  0.61305864617E+01  0.10614129411E+02  0.19354304741E+02  0.00000000000E+00 0. -1.
</event>
<event>
 7    1  0.2685294E-009  0.4778728E+02  0.7816164E-02  0.1312668E+00
        -11   -1    0    0    0    0  0.00000000000E+00  0.00000000000E+00  0.45593999997E+02  0.45594000000E+02  0.51100000000E-03 0.  1.
         11   -1    0    0    0    0 -0.00000000000E+00 -0.00000000000E+00 -0.45593999997E+02  0.45594000000E+02  0.51100000000E-03 0. -1.
    9900012    2    1    2    0    0 -0.16586402180E+02  0.34968550325E+02 -0.19639612235E+02  0.47787278603E+02  0.20000034461E+02 0.  0.
        -12    1    1    2    0    0  0.16586402180E+02 -0.34968550325E+02  0.19639612235E+02  0.43400721397E+02  0.00000000000E+00 0.  1.
         11    1    3    3    0    0  0.58747783975E+00  0.12918432107E+02 -0.24933871358E+01  0.13169965755E+02  0.51100000000E-03 0. -1.
        -11    1    3    3    0    0 -0.71720326387E+01  0.33191226815E+01 -0.87310846293E+01  0.11776521838E+02  0.51100000000E-03 0.  1.
         12    1    3    3    0    0 -0.10001847381E+02  0.18730995536E+02 -0.84151404698E+01  0.22840791009E+02  0.00000000000E+00 0. -1.
</event>
<event>
 7    1  0.2685294E-009  0.4778727E+02  0.7816164E-02  0.1312668E+00
        -11   -1    0    0    0    0  0.00000000000E+00  0.00000000000E+00  0.45593999997E+02  0.45594000000E+02  0.51100000000E-03 0. -1.
         11   -1    0    0    0    0 -0.00000000000E+00 -0.00000000000E+00 -0.45593999997E+02  0.45594000000E+02  0.51100000000E-03 0.  1.
    9900012    2    1    2    0    0 -0.95907593805E+01 -0.26689690558E+02  0.32852712559E+02  0.47787274545E+02  0.20000015958E+02 0.  0.
        -12    1    1    2    0    0  0.95907593805E+01  0.26689690558E+02 -0.32852712559E+02  0.43400725455E+02  0.00000000000E+00 0.  1.
         11    1    3    3    0    0 -0.84595797609E+01 -0.22992592157E+02  0.30698049457E+02  0.39275870767E+02  0.51100000000E-03 0. -1.
        -11    1    3    3    0    0 -0.92931610891E+00 -0.14593071886E+01 -0.26743964000E+01  0.31852162040E+01  0.51100000000E-03 0.  1.
        -12    1    3    3    0    0 -0.20186351072E+00 -0.22377912124E+01  0.48290595025E+01  0.53261875733E+01  0.00000000000E+00 0.  1.
</event>
<event>
 7    1  0.2685294E-009  0.4778727E+02  0.7816164E-02  0.1312668E+00
        -11   -1    0    0    0    0  0.00000000000E+00  0.00000000000E+00  0.45593999997E+02  0.45594000000E+02  0.51100000000E-03 0.  1.
         11   -1    0    0    0    0 -0.00000000000E+00 -0.00000000000E+00 -0.45593999997E+02  0.45594000000E+02  0.51100000000E-03 0. -1.
    9900012    2    1    2    0    0 -0.42913875113E+02  0.64442415193E+01  0.70306005643E+00  0.47787271671E+02  0.20000002859E+02 0.  0.
        -12    1    1    2    0    0  0.42913875113E+02 -0.64442415193E+01 -0.70306005643E+00  0.43400728329E+02  0.00000000000E+00 0.  1.
         11    1    3    3    0    0 -0.31447440680E+02 -0.14043764768E+01 -0.64572567836E+01  0.32134249082E+02  0.51100000000E-03 0. -1.
        -11    1    3    3    0    0 -0.10386488117E+02  0.72044811235E+01  0.62544831418E+01  0.14103270660E+02  0.51100000000E-03 0.  1.
         12    1    3    3    0    0 -0.10799463160E+01  0.64413687257E+00  0.90583369825E+00  0.15497519301E+01  0.00000000000E+00 0. -1.
</event>
<event>
 7    1  0.2685294E-009  0.4778728E+02  0.7816164E-02  0.1312668E+00
        -11   -1    0    0    0    0  0.00000000000E+00  0.00000000000E+00  0.45593999997E+02  0.45594000000E+02  0.51100000000E-03 0.  1.
         11   -1    0    0    0    0 -0.00000000000E+00 -0.00000000000E+00 -0.45593999997E+02  0.45594000000E+02  0.51100000000E-03 0. -1.
    9900012    2    1    2    0    0 -0.21489802272E+02 -0.97187738212E+01 -0.36432905773E+02  0.47787276627E+02  0.20000025451E+02 0.  0.
        -12    1    1    2    0    0  0.21489802272E+02  0.97187738212E+01  0.36432905773E+02  0.43400723373E+02  0.00000000000E+00 0.  1.
         11    1    3    3    0    0 -0.21850484535E+01 -0.56195565001E+01 -0.11673137219E+02  0.13138340260E+02  0.51100000000E-03 0. -1.
        -11    1    3    3    0    0 -0.19945593963E+02  0.65578587980E-01 -0.21451665439E+02  0.29291721859E+02  0.51100000000E-03 0.  1.
        -12    1    3    3    0    0  0.64084014496E+00 -0.41647959091E+01 -0.33081031150E+01  0.53572145072E+01  0.00000000000E+00 0.  1.
</event>
<event>
 7    1  0.2685294E-009  0.4778727E+02  0.7816164E-02  0.1312668E+00
        -11   -1    0    0    0    0  0.00000000000E+00  0.00000000000E+00  0.45593999997E+02  0.45594000000E+02  0.51100000000E-03 0.  1.
         11   -1    0    0    0    0 -0.00000000000E+00 -0.00000000000E+00 -0.45593999997E+02  0.45594000000E+02  0.51100000000E-03 0. -1.
    9900012    2    1    2    0    0 -0.15646852629E+02 -0.35106856223E+02 -0.20157088405E+02  0.47787267702E+02  0.19999984761E+02 0.  0.
        -12    1    1    2    0    0  0.15646852629E+02  0.35106856223E+02  0.20157088405E+02  0.43400732298E+02  0.00000000000E+00 0.  1.
         11    1    3    3    0    0 -0.82973309375E+01 -0.17766353100E+02 -0.19081647419E+02  0.27360523965E+02  0.51100000000E-03 0. -1.
        -11    1    3    3    0    0 -0.75967714176E+01 -0.18073593023E+02 -0.86203978313E+00  0.19624189501E+02  0.51100000000E-03 0.  1.
        -12    1    3    3    0    0  0.24724972638E+00  0.73308989984E+00 -0.21340120280E+00  0.80255423605E+00  0.00000000000E+00 0.  1.
</event>
<event>
 7    1  0.2685294E-009  0.4778727E+02  0.7816164E-02  0.1312668E+00
        -11   -1    0    0    0    0  0.00000000000E+00  0.00000000000E+00  0.45593999997E+02  0.45594000000E+02  0.51100000000E-03 0.  1.
         11   -1    0    0    0    0 -0.00000000000E+00 -0.00000000000E+00 -0.45593999997E+02  0.45594000000E+02  0.51100000000E-03 0. -1.
    9900012    2    1    2    0    0 -0.35151888262E+02  0.42716336533E+00 -0.25451631050E+02  0.47787271434E+02  0.20000001777E+02 0.  0.
        -12    1    1    2    0    0  0.35151888262E+02 -0.42716336533E+00  0.25451631050E+02  0.43400728566E+02  0.00000000000E+00 0.  1.
         11    1    3    3    0    0 -0.12323047606E+02  0.23460872244E+01 -0.76820819942E+01  0.14709725068E+02  0.51100000000E-03 0. -1.
        -11    1    3    3    0    0 -0.87123008578E+01  0.37630878147E+01 -0.14787634455E+02  0.17570974623E+02  0.51100000000E-03 0.  1.
        -12    1    3    3    0    0 -0.14116539798E+02 -0.56820116738E+01 -0.29819146008E+01  0.15506571743E+02  0.00000000000E+00 0.  1.
</event>
<event>
 7    1  0.2685294E-009  0.4778726E+02  0.7816164E-02  0.1312668E+00
        -11   -1    0    0    0    0  0.00000000000E+00  0.00000000000E+00  0.45593999997E+02  0.45594000000E+02  0.51100000000E-03 0. -1.
         11   -1    0    0    0    0 -0.00000000000E+00 -0.00000000000E+00 -0.45593999997E+02  0.45594000000E+02  0.51100000000E-03 0.  1.
    9900012    2    1    2    0    0  0.39960891767E+01 -0.43081674486E+02  0.34095106309E+01  0.47787260744E+02  0.19999953037E+02 0.  0.
        -12    1    1    2    0    0 -0.39960891767E+01  0.43081674486E+02 -0.34095106309E+01  0.43400739256E+02  0.00000000000E+00 0.  1.
         11    1    3    3    0    0  0.14101317253E+01 -0.74310478693E+00  0.39232232649E+01  0.42346614096E+01  0.51100000000E-03 0. -1.
        -11    1    3    3    0    0  0.50229575282E+01 -0.38329144451E+02  0.85088781633E+00  0.38666231094E+02  0.51100000000E-03 0.  1.
        -12    1    3    3    0    0 -0.24370000768E+01 -0.40094252484E+01 -0.13646004503E+01  0.48863682409E+01  0.00000000000E+00 0.  1.
</event>
<event>
 7    1  0.2685294E-009  0.4778726E+02  0.7816164E-02  0.1312668E+00
        -11   -1    0    0    0    0  0.00000000000E+00  0.00000000000E+00  0.45593999997E+02  0.45594000000E+02  0.51100000000E-03 0.  1.
         11   -1    0    0    0    0 -0.00000000000E+00 -0.00000000000E+00 -0.45593999997E+02  0.45594000000E+02  0.51100000000E-03 0. -1.
    9900012    2    1    2    0    0  0.10257040569E+02 -0.21606348298E+02 -0.36215782228E+02  0.47787262099E+02  0.19999959215E+02 0.  0.
        -12    1    1    2    0    0 -0.10257040569E+02  0.21606348298E+02  0.36215782228E+02  0.43400737901E+02  0.00000000000E+00 0.  1.
         11    1    3    3    0    0  0.81329929512E+01 -0.11036388968E+02 -0.22389675940E+02  0.26253476812E+02  0.51100000000E-03 0. -1.
        -11    1    3    3    0    0  0.12544525352E+01 -0.10062607976E+02 -0.28800916129E+01  0.10541568119E+02  0.51100000000E-03 0.  1.
         12    1    3    3    0    0  0.86959508210E+00 -0.50735135364E+00 -0.10946014675E+02  0.10992217168E+02  0.00000000000E+00 0. -1.
</event>
<event>
 7    1  0.2685294E-009  0.4778728E+02  0.7816164E-02  0.1312668E+00
        -11   -1    0    0    0    0  0.00000000000E+00  0.00000000000E+00  0.45593999997E+02  0.45594000000E+02  0.51100000000E-03 0.  1.
         11   -1    0    0    0    0 -0.00000000000E+00 -0.00000000000E+00 -0.45593999997E+02  0.45594000000E+02  0.51100000000E-03 0. -1.
    9900012    2    1    2    0    0 -0.33583842641E+02  0.26058787138E+02 -0.87571629829E+01  0.47787276767E+02  0.20000026090E+02 0.  0.
        -12    1    1    2    0    0  0.33583842641E+02 -0.26058787138E+02  0.87571629829E+01  0.43400723233E+02  0.00000000000E+00 0.  1.
         11    1    3    3    0    0 -0.27730549438E+02  0.17085004151E+02 -0.20169771691E+01  0.32633555371E+02  0.51100000000E-03 0. -1.
        -11    1    3    3    0    0 -0.39152900011E+00  0.37840266157E+01 -0.66003723484E+01  0.76182063365E+01  0.51100000000E-03 0.  1.
        -12    1    3    3    0    0 -0.54617642030E+01  0.51897563715E+01 -0.13981346539E+00  0.75355150594E+01  0.00000000000E+00 0.  1.
</event>
<event>
 7    1  0.2685294E-009  0.4778728E+02  0.7816164E-02  0.1312668E+00
        -11   -1    0    0    0    0  0.00000000000E+00  0.00000000000E+00  0.45593999997E+02  0.45594000000E+02  0.51100000000E-03 0. -1.
         11   -1    0    0    0    0 -0.00000000000E+00 -0.00000000000E+00 -0.45593999997E+02  0.45594000000E+02  0.51100000000E-03 0.  1.
    9900012    2    1    2    0    0 -0.24695446820E+02 -0.14843929837E+02  0.32456352286E+02  0.47787283988E+02  0.20000059014E+02 0.  0.
        -12    1    1    2    0    0  0.24695446820E+02  0.14843929837E+02 -0.32456352286E+02  0.43400716012E+02  0.00000000000E+00 0.  1.
         11    1    3    3    0    0 -0.13378186286E+02  0.21471078020E+01  0.13891750234E+02  0.19405325688E+02  0.51100000000E-03 0. -1.
        -11    1    3    3    0    0 -0.22597578768E+01 -0.55074266325E+01  0.19895591262E+01  0.62766710565E+01  0.51100000000E-03 0.  1.
         12    1    3    3    0    0 -0.90575026569E+01 -0.11483611006E+02  0.16575042926E+02  0.22105287244E+02  0.00000000000E+00 0. -1.
</event>
<event>
 7    1  0.2685294E-009  0.4778727E+02  0.7816164E-02  0.1312668E+00
        -11   -1    0    0    0    0  0.00000000000E+00  0.00000000000E+00  0.45593999997E+02  0.45594000000E+02  0.51100000000E-03 0. -1.
         11   -1    0    0    0    0 -0.00000000000E+00 -0.00000000000E+00 -0.45593999997E+02  0.45594000000E+02  0.51100000000E-03 0.  1.
    9900012    2    1    2    0    0  0.28244361697E+02 -0.26208095744E+02  0.19975359005E+02  0.47787271693E+02  0.20000002957E+02 0.  0.
        -12    1    1    2    0    0 -0.28244361697E+02  0.26208095744E+02 -0.19975359005E+02  0.43400728307E+02  0.00000000000E+00 0.  1.
         11    1    3    3    0    0  0.18457618651E+02 -0.13196311098E+02  0.17495956461E+02  0.28651959891E+02  0.51100000000E-03 0. -1.
        -11    1    3    3    0    0 -0.85703466427E+00 -0.30240287865E+01 -0.21667616969E+01  0.38176059291E+01  0.51100000000E-03 0.  1.
        -12    1    3    3    0    0  0.10643777710E+02 -0.99877558595E+01  0.46461642416E+01  0.15317705873E+02  0.00000000000E+00 0.  1.
</event>
<event>
 7    1  0.2685294E-009  0.4778727E+02  0.7816164E-02  0.1312668E+00
        -11   -1    0    0    0    0  0.00000000000E+00  0.00000000000E+00  0.45593999997E+02  0.45594000000E+02  0.51100000000E-03 0.  1.
         11   -1    0    0    0    0 -0.00000000000E+00 -0.00000000000E+00 -0.45593999997E+02  0.45594000000E+02  0.51100000000E-03 0. -1.
    9900012    2    1    2    0    0  0.37654158736E+02 -0.20698052182E+02 -0.61137979312E+01  0.47787267755E+02  0.19999985004E+02 0.  0.
        -12    1    1    2    0    0 -0.37654158736E+02  0.20698052182E+02  0.61137979312E+01  0.43400732245E+02  0.00000000000E+00 0.  1.
         11    1    3    3    0    0  0.33477949963E+02 -0.16946369357E+02 -0.92888636294E+00  0.37534189724E+02  0.51100000000E-03 0. -1.
        -11    1    3    3    0    0 -0.80236146245E+00 -0.37158095144E+01 -0.28662992006E+01  0.47609553277E+01  0.51100000000E-03 0.  1.
         12    1    3    3    0    0  0.49785702347E+01 -0.35873311034E-01 -0.23186123676E+01  0.54921227032E+01  0.00000000000E+00 0. -1.
</event>
<event>
 7    1  0.2685294E-009  0.4778727E+02  0.7816164E-02  0.1312668E+00
        -11   -1    0    0    0    0  0.00000000000E+00  0.00000000000E+00  0.45593999997E+02  0.45594000000E+02  0.51100000000E-03 0.  1.
         11   -1    0    0    0    0 -0.00000000000E+00 -0.00000000000E+00 -0.45593999997E+02  0.45594000000E+02  0.51100000000E-03 0. -1.
    9900012    2    1    2    0    0  0.13850429002E+02  0.34522254970E+02 -0.22360746304E+02  0.47787269050E+02  0.19999990906E+02 0.  0.
        -12    1    1    2    0    0 -0.13850429002E+02 -0.34522254970E+02  0.22360746304E+02  0.43400730950E+02  0.00000000000E+00 0.  1.
         11    1    3    3    0    0  0.79184338594E+01  0.11787015969E+02 -0.12076753563E+02  0.18640904407E+02  0.51100000000E-03 0. -1.
        -11    1    3    3    0    0  0.92656988479E+01  0.86737008297E+01 -0.62218909738E+01  0.14134998719E+02  0.51100000000E-03 0.  1.
        -12    1    3    3    0    0 -0.33337037050E+01  0.14061538171E+02 -0.40621017669E+01  0.15011365924E+02  0.00000000000E+00 0.  1.
</event>
<event>
 7    1  0.2685294E-009  0.4778727E+02  0.7816164E-02  0.1312668E+00
        -11   -1    0    0    0    0  0.00000000000E+00  0.00000000000E+00  0.45593999997E+02  0.45594000000E+02  0.51100000000E-03 0. -1.
         11   -1    0    0    0    0 -0.00000000000E+00 -0.00000000000E+00 -0.45593999997E+02  0.45594000000E+02  0.51100000000E-03 0.  1.
    9900012    2    1    2    0    0 -0.99498839142E+01  0.17198525018E+02  0.38585412788E+02  0.47787268063E+02  0.19999986404E+02 0.  0.
        -12    1    1    2    0    0  0.99498839142E+01 -0.17198525018E+02 -0.38585412788E+02  0.43400731937E+02  0.00000000000E+00 0.  1.
         11    1    3    3    0    0 -0.67884132778E+01  0.10357492595E+02  0.10101725766E+02  0.15981397667E+02  0.51100000000E-03 0. -1.
        -11    1    3    3    0    0 -0.23667788902E+00  0.60544772981E+01  0.42917507071E+01  0.74250815598E+01  0.51100000000E-03 0.  1.
         12    1    3    3    0    0 -0.29247927474E+01  0.78655512484E+00  0.24191936315E+02  0.24380788836E+02  0.00000000000E+00 0. -1.
</event>
<event>
 7    1  0.2685294E-009  0.4778727E+02  0.7816164E-02  0.1312668E+00
        -11   -1    0    0    0    0  0.00000000000E+00  0.00000000000E+00  0.45593999997E+02  0.45594000000E+02  0.51100000000E-03 0.  1.
         11   -1    0    0    0    0 -0.00000000000E+00 -0.00000000000E+00 -0.45593999997E+02  0.45594000000E+02  0.51100000000E-03 0. -1.
    9900012    2    1    2    0    0 -0.12585136424E+02 -0.23454984815E+02 -0.34279755650E+02  0.47787267070E+02  0.19999981878E+02 0.  0.
        -12    1    1    2    0    0  0.12585136424E+02  0.23454984815E+02  0.34279755650E+02  0.43400732930E+02  0.00000000000E+00 0.  1.
         11    1    3    3    0    0 -0.34564702905E+01 -0.20241289138E+02 -0.22629243002E+02  0.30557153205E+02  0.51100000000E-03 0. -1.
        -11    1    3    3    0    0 -0.96502178921E+01 -0.39961544650E+01 -0.72114768731E+01  0.12692570852E+02  0.51100000000E-03 0.  1.
         12    1    3    3    0    0  0.52155175843E+00  0.78245878893E+00 -0.44390357744E+01  0.45375430135E+01  0.00000000000E+00 0. -1.
</event>
<event>
 7    1  0.2685294E-009  0.4778728E+02  0.7816164E-02  0.1312668E+00
        -11   -1    0    0    0    0  0.00000000000E+00  0.00000000000E+00  0.45593999997E+02  0.45594000000E+02  0.51100000000E-03 0. -1.
         11   -1    0    0    0    0 -0.00000000000E+00 -0.00000000000E+00 -0.45593999997E+02  0.45594000000E+02  0.51100000000E-03 0.  1.
    9900012    2    1    2    0    0  0.32844739219E+02  0.13961278392E+02  0.24696734313E+02  0.47787275646E+02  0.20000020981E+02 0.  0.
        -12    1    1    2    0    0 -0.32844739219E+02 -0.13961278392E+02 -0.24696734313E+02  0.43400724354E+02  0.00000000000E+00 0.  1.
         11    1    3    3    0    0  0.44743045215E+01  0.92014827847E+01  0.10169724153E+02  0.14426017330E+02  0.51100000000E-03 0.  1.
        -11    1    3    3    0    0  0.19578565002E+01 -0.25584812936E+00  0.40530925071E+01  0.45084608763E+01  0.51100000000E-03 0. -1.
         12    1    3    3    0    0  0.26412578197E+02  0.50156437363E+01  0.10473917653E+02  0.28852797440E+02  0.00000000000E+00 0. -1.
</event>
<event>
 7    1  0.2685294E-009  0.4778727E+02  0.7816164E-02  0.1312668E+00
        -11   -1    0    0    0    0  0.00000000000E+00  0.00000000000E+00  0.45593999997E+02  0.45594000000E+02  0.51100000000E-03 0. -1.
         11   -1    0    0    0    0 -0.00000000000E+00 -0.00000000000E+00 -0.45593999997E+02  0.45594000000E+02  0.51100000000E-03 0.  1.
    9900012    2    1    2    0    0 -0.34954787912E+02  0.16121009440E+02 -0.20047425674E+02  0.47787269367E+02  0.19999992352E+02 0.  0.
        -12    1    1    2    0    0  0.34954787912E+02 -0.16121009440E+02  0.20047425674E+02  0.43400730633E+02  0.00000000000E+00 0.  1.
         11    1    3    3    0    0 -0.48817379381E+01  0.57260295000E+01  0.19308419825E+01  0.77683286590E+01  0.51100000000E-03 0. -1.
        -11    1    3    3    0    0 -0.76439957258E+01  0.22589196470E+00 -0.10124082775E+02  0.12687740150E+02  0.51100000000E-03 0.  1.
         12    1    3    3    0    0 -0.22429054248E+02  0.10169087975E+02 -0.11854184882E+02  0.27331200558E+02  0.00000000000E+00 0. -1.
</event>
<event>
 7    1  0.2685294E-009  0.4778727E+02  0.7816164E-02  0.1312668E+00
        -11   -1    0    0    0    0  0.00000000000E+00  0.00000000000E+00  0.45593999997E+02  0.45594000000E+02  0.51100000000E-03 0. -1.
         11   -1    0    0    0    0 -0.00000000000E+00 -0.00000000000E+00 -0.45593999997E+02  0.45594000000E+02  0.51100000000E-03 0.  1.
    9900012    2    1    2    0    0  0.11818423670E+02  0.31333630281E+02  0.27607103741E+02  0.47787266117E+02  0.19999977532E+02 0.  0.
        -12    1    1    2    0    0 -0.11818423670E+02 -0.31333630281E+02 -0.27607103741E+02  0.43400733883E+02  0.00000000000E+00 0.  1.
         11    1    3    3    0    0  0.10045148223E+02  0.17694306936E+02  0.60249382796E+01  0.21220117396E+02  0.51100000000E-03 0. -1.
        -11    1    3    3    0    0 -0.94911177755E+00  0.71714315423E+00 -0.85143174368E-01  0.11926261322E+01  0.51100000000E-03 0.  1.
         12    1    3    3    0    0  0.27223872250E+01  0.12922180191E+02  0.21667308636E+02  0.25374522589E+02  0.00000000000E+00 0. -1.
</event>
<event>
 7    1  0.2685294E-009  0.4778727E+02  0.7816164E-02  0.1312668E+00
        -11   -1    0    0    0    0  0.00000000000E+00  0.00000000000E+00  0.45593999997E+02  0.45594000000E+02  0.51100000000E-03 0. -1.
         11   -1    0    0    0    0 -0.00000000000E+00 -0.00000000000E+00 -0.45593999997E+02  0.45594000000E+02  0.51100000000E-03 0.  1.
    9900012    2    1    2    0    0 -0.10404293812E+02  0.11082774327E+02  0.40651517022E+02  0.47787273593E+02  0.20000011618E+02 0.  0.
        -12    1    1    2    0    0  0.10404293812E+02 -0.11082774327E+02 -0.40651517022E+02  0.43400726407E+02  0.00000000000E+00 0.  1.
         11    1    3    3    0    0 -0.39967839068E+01 -0.19559550425E+01  0.62565039600E+01  0.76774920246E+01  0.51100000000E-03 0. -1.
        -11    1    3    3    0    0 -0.66082501069E+01  0.15289124574E+02  0.33937633548E+02  0.37804619703E+02  0.51100000000E-03 0.  1.
        -12    1    3    3    0    0  0.20074020212E+00 -0.22503952048E+01  0.45737951360E+00  0.23051618654E+01  0.00000000000E+00 0.  1.
</event>
<event>
 7    1  0.2685294E-009  0.4778727E+02  0.7816164E-02  0.1312668E+00
        -11   -1    0    0    0    0  0.00000000000E+00  0.00000000000E+00  0.45593999997E+02  0.45594000000E+02  0.51100000000E-03 0. -1.
         11   -1    0    0    0    0 -0.00000000000E+00 -0.00000000000E+00 -0.45593999997E+02  0.45594000000E+02  0.51100000000E-03 0.  1.
    9900012    2    1    2    0    0  0.23921045846E+02  0.13860091639E+02  0.33456011482E+02  0.47787270986E+02  0.19999999735E+02 0.  0.
        -12    1    1    2    0    0 -0.23921045846E+02 -0.13860091639E+02 -0.33456011482E+02  0.43400729014E+02  0.00000000000E+00 0.  1.
         11    1    3    3    0    0 -0.33180393163E+00  0.50701141499E+00  0.36055526614E+01  0.36561133296E+01  0.51100000000E-03 0. -1.
        -11    1    3    3    0    0  0.16677351523E+02  0.83114049337E+01  0.29662179551E+02  0.35029393397E+02  0.51100000000E-03 0.  1.
        -12    1    3    3    0    0  0.75754982554E+01  0.50416752900E+01  0.18827926953E+00  0.91017642592E+01  0.00000000000E+00 0.  1.
</event>
<event>
 7    1  0.2685294E-009  0.4778727E+02  0.7816164E-02  0.1312668E+00
        -11   -1    0    0    0    0  0.00000000000E+00  0.00000000000E+00  0.45593999997E+02  0.45594000000E+02  0.51100000000E-03 0.  1.
         11   -1    0    0    0    0 -0.00000000000E+00 -0.00000000000E+00 -0.45593999997E+02  0.45594000000E+02  0.51100000000E-03 0. -1.
    9900012    2    1    2    0    0  0.27804742263E+02  0.21100515117E+02 -0.25793177243E+02  0.47787269329E+02  0.19999992178E+02 0.  0.
        -12    1    1    2    0    0 -0.27804742263E+02 -0.21100515117E+02  0.25793177243E+02  0.43400730671E+02  0.00000000000E+00 0.  1.
         11    1    3    3    0    0  0.10219793438E+02  0.14744394432E+01 -0.13383825078E+02  0.16903991350E+02  0.51100000000E-03 0. -1.
        -11    1    3    3    0    0  0.18268984409E+02  0.16610733554E+02 -0.89999011231E+01  0.26280610363E+02  0.51100000000E-03 0.  1.
        -12    1    3    3    0    0 -0.68403558412E+00  0.30153421197E+01 -0.34094510416E+01  0.46026676161E+01  0.00000000000E+00 0.  1.
</event>
<event>
 7    1  0.2685294E-009  0.4778727E+02  0.7816164E-02  0.1312668E+00
        -11   -1    0    0    0    0  0.00000000000E+00  0.00000000000E+00  0.45593999997E+02  0.45594000000E+02  0.51100000000E-03 0.  1.
         11   -1    0    0    0    0 -0.00000000000E+00 -0.00000000000E+00 -0.45593999997E+02  0.45594000000E+02  0.51100000000E-03 0. -1.
    9900012    2    1    2    0    0 -0.35233728867E+02  0.23390831930E+02 -0.97507287858E+01  0.47787269821E+02  0.19999994420E+02 0.  0.
        -12    1    1    2    0    0  0.35233728867E+02 -0.23390831930E+02  0.97507287858E+01  0.43400730179E+02  0.00000000000E+00 0.  1.
         11    1    3    3    0    0 -0.11160674178E+01  0.50379184299E+01 -0.59474086260E+01  0.78738744093E+01  0.51100000000E-03 0. -1.
        -11    1    3    3    0    0 -0.35662086003E+01 -0.50869357045E+00  0.86973750158E+00  0.37058138799E+01  0.51100000000E-03 0.  1.
         12    1    3    3    0    0 -0.30551452849E+02  0.18861607071E+02 -0.46730576613E+01  0.36207581531E+02  0.00000000000E+00 0. -1.
</event>
<event>
 7    1  0.2685294E-009  0.4778727E+02  0.7816164E-02  0.1312668E+00
        -11   -1    0    0    0    0  0.00000000000E+00  0.00000000000E+00  0.45593999997E+02  0.45594000000E+02  0.51100000000E-03 0.  1.
         11   -1    0    0    0    0 -0.00000000000E+00 -0.00000000000E+00 -0.45593999997E+02  0.45594000000E+02  0.51100000000E-03 0. -1.
    9900012    2    1    2    0    0  0.20021525488E+02 -0.36454206994E+01 -0.38333701692E+02  0.47787271200E+02  0.20000000709E+02 0.  0.
        -12    1    1    2    0    0 -0.20021525488E+02  0.36454206994E+01  0.38333701692E+02  0.43400728800E+02  0.00000000000E+00 0.  1.
         11    1    3    3    0    0  0.43736406500E+01  0.28513689808E+01 -0.19544038242E+02  0.20229396152E+02  0.51100000000E-03 0. -1.
        -11    1    3    3    0    0  0.15980771756E+02 -0.29643401381E+01 -0.17216750409E+02  0.23676758082E+02  0.51100000000E-03 0.  1.
         12    1    3    3    0    0 -0.33288691805E+00 -0.35324495421E+01 -0.15729130408E+01  0.38811169657E+01  0.00000000000E+00 0. -1.
</event>
<event>
 7    1  0.4059962E-009  0.4778727E+02  0.7816164E-02  0.1312668E+00
        -11   -1    0    0    0    0  0.00000000000E+00  0.00000000000E+00  0.45593999997E+02  0.45594000000E+02  0.51100000000E-03 0.  1.
         11   -1    0    0    0    0 -0.00000000000E+00 -0.00000000000E+00 -0.45593999997E+02  0.45594000000E+02  0.51100000000E-03 0. -1.
    9900012    2    1    2    0    0 -0.10465222359E+02 -0.42103790135E+02  0.11718248340E+01  0.47787271939E+02  0.20000004080E+02 0.  0.
        -12    1    1    2    0    0  0.10465222359E+02  0.42103790135E+02 -0.11718248340E+01  0.43400728061E+02  0.00000000000E+00 0.  1.
         11    1    3    3    0    0 -0.66206914586E+01 -0.14883926939E+02 -0.33073019496E+01  0.16622366948E+02  0.51100000000E-03 0. -1.
        -11    1    3    3    0    0  0.41006016340E+01 -0.16177320254E+02 -0.45177488504E+00  0.16695050918E+02  0.51100000000E-03 0.  1.
        -12    1    3    3    0    0 -0.79451325346E+01 -0.11042542942E+02  0.49309016687E+01  0.14469854073E+02  0.00000000000E+00 0.  1.
</event>
<event>
 7    1  0.2685294E-009  0.4778727E+02  0.7816164E-02  0.1312668E+00
        -11   -1    0    0    0    0  0.00000000000E+00  0.00000000000E+00  0.45593999997E+02  0.45594000000E+02  0.51100000000E-03 0.  1.
         11   -1    0    0    0    0 -0.00000000000E+00 -0.00000000000E+00 -0.45593999997E+02  0.45594000000E+02  0.51100000000E-03 0. -1.
    9900012    2    1    2    0    0 -0.88987428657E+01 -0.39805421552E+02 -0.14831185026E+02  0.47787271218E+02  0.20000000792E+02 0.  0.
        -12    1    1    2    0    0  0.88987428657E+01  0.39805421552E+02  0.14831185026E+02  0.43400728782E+02  0.00000000000E+00 0.  1.
         11    1    3    3    0    0  0.15695814111E+01 -0.16983835387E+02 -0.13914607226E+02  0.22012054533E+02  0.51100000000E-03 0. -1.
        -11    1    3    3    0    0 -0.80315353614E+01 -0.14705496217E+02 -0.30632858353E+01  0.17033522819E+02  0.51100000000E-03 0.  1.
         12    1    3    3    0    0 -0.24367889154E+01 -0.81160899481E+01  0.21467080352E+01  0.87416938663E+01  0.00000000000E+00 0. -1.
</event>
<event>
 7    1  0.2685294E-009  0.4778727E+02  0.7816164E-02  0.1312668E+00
        -11   -1    0    0    0    0  0.00000000000E+00  0.00000000000E+00  0.45593999997E+02  0.45594000000E+02  0.51100000000E-03 0. -1.
         11   -1    0    0    0    0 -0.00000000000E+00 -0.00000000000E+00 -0.45593999997E+02  0.45594000000E+02  0.51100000000E-03 0.  1.
    9900012    2    1    2    0    0  0.35512128937E+02  0.20702145447E+02  0.13925985098E+02  0.47787272025E+02  0.20000004473E+02 0.  0.
        -12    1    1    2    0    0 -0.35512128937E+02 -0.20702145447E+02 -0.13925985098E+02  0.43400727975E+02  0.00000000000E+00 0.  1.
         11    1    3    3    0    0  0.22246229541E+02  0.14991636373E+02  0.14988473694E+02  0.30729435951E+02  0.51100000000E-03 0.  1.
        -11    1    3    3    0    0  0.11684293716E+02  0.36912980125E+01 -0.42471977489E+01  0.12968696528E+02  0.51100000000E-03 0. -1.
        -12    1    3    3    0    0  0.15816056801E+01  0.20192110611E+01  0.31847091532E+01  0.40891395460E+01  0.00000000000E+00 0.  1.
</event>
<event>
 7    1  0.2685294E-009  0.4778727E+02  0.7816164E-02  0.1312668E+00
        -11   -1    0    0    0    0  0.00000000000E+00  0.00000000000E+00  0.45593999997E+02  0.45594000000E+02  0.51100000000E-03 0.  1.
         11   -1    0    0    0    0 -0.00000000000E+00 -0.00000000000E+00 -0.45593999997E+02  0.45594000000E+02  0.51100000000E-03 0. -1.
    9900012    2    1    2    0    0  0.13721084927E+02 -0.39072932002E+02 -0.12986949644E+02  0.47787273649E+02  0.20000011873E+02 0.  0.
        -12    1    1    2    0    0 -0.13721084927E+02  0.39072932002E+02  0.12986949644E+02  0.43400726351E+02  0.00000000000E+00 0.  1.
         11    1    3    3    0    0 -0.26320655895E+01  0.48100341696E+00 -0.16527447077E+01  0.31449481530E+01  0.51100000000E-03 0. -1.
        -11    1    3    3    0    0  0.21045352214E+01 -0.71352736268E+01 -0.41176393743E+01  0.85027144199E+01  0.51100000000E-03 0.  1.
         12    1    3    3    0    0  0.14248615295E+02 -0.32418661792E+02 -0.72165655616E+01  0.36139611076E+02  0.00000000000E+00 0. -1.
</event>
<event>
 7    1  0.2685294E-009  0.4778727E+02  0.7816164E-02  0.1312668E+00
        -11   -1    0    0    0    0  0.00000000000E+00  0.00000000000E+00  0.45593999997E+02  0.45594000000E+02  0.51100000000E-03 0. -1.
         11   -1    0    0    0    0 -0.00000000000E+00 -0.00000000000E+00 -0.45593999997E+02  0.45594000000E+02  0.51100000000E-03 0.  1.
    9900012    2    1    2    0    0  0.33703939223E+02 -0.25647981076E+02  0.94788739853E+01  0.47787268388E+02  0.19999987889E+02 0.  0.
        -12    1    1    2    0    0 -0.33703939223E+02  0.25647981076E+02 -0.94788739853E+01  0.43400731612E+02  0.00000000000E+00 0.  1.
         11    1    3    3    0    0  0.31379061510E+01 -0.98190974969E+01 -0.28078508512E+01  0.10683873704E+02  0.51100000000E-03 0. -1.
        -11    1    3    3    0    0  0.11751858320E+02 -0.33556039168E+01  0.62994593765E+01  0.13749525094E+02  0.51100000000E-03 0.  1.
         12    1    3    3    0    0  0.18814174752E+02 -0.12473279662E+02  0.59872654600E+01  0.23353869590E+02  0.00000000000E+00 0. -1.
</event>
<event>
 7    1  0.2685294E-009  0.4778727E+02  0.7816164E-02  0.1312668E+00
        -11   -1    0    0    0    0  0.00000000000E+00  0.00000000000E+00  0.45593999997E+02  0.45594000000E+02  0.51100000000E-03 0.  1.
         11   -1    0    0    0    0 -0.00000000000E+00 -0.00000000000E+00 -0.45593999997E+02  0.45594000000E+02  0.51100000000E-03 0. -1.
    9900012    2    1    2    0    0 -0.94013561538E+01  0.32232565375E+02 -0.27500896025E+02  0.47787273620E+02  0.20000011741E+02 0.  0.
        -12    1    1    2    0    0  0.94013561538E+01 -0.32232565375E+02  0.27500896025E+02  0.43400726380E+02  0.00000000000E+00 0.  1.
         11    1    3    3    0    0 -0.16439036722E+01  0.19558906133E+02 -0.15627469923E+02  0.25089261544E+02  0.51100000000E-03 0. -1.
        -11    1    3    3    0    0 -0.99802655745E+01  0.48535936582E+01 -0.80740240108E+01  0.13724173430E+02  0.51100000000E-03 0.  1.
        -12    1    3    3    0    0  0.22228130930E+01  0.78200655840E+01 -0.37994020913E+01  0.89738386455E+01  0.00000000000E+00 0.  1.
</event>
<event>
 7    1  0.2685294E-009  0.4778727E+02  0.7816164E-02  0.1312668E+00
        -11   -1    0    0    0    0  0.00000000000E+00  0.00000000000E+00  0.45593999997E+02  0.45594000000E+02  0.51100000000E-03 0. -1.
         11   -1    0    0    0    0 -0.00000000000E+00 -0.00000000000E+00 -0.45593999997E+02  0.45594000000E+02  0.51100000000E-03 0.  1.
    9900012    2    1    2    0    0  0.13424780788E+02 -0.29528287747E+02  0.28835374054E+02  0.47787270590E+02  0.19999997928E+02 0.  0.
        -12    1    1    2    0    0 -0.13424780788E+02  0.29528287747E+02 -0.28835374054E+02  0.43400729410E+02  0.00000000000E+00 0.  1.
         11    1    3    3    0    0 -0.49239438771E+00  0.18398764183E+01  0.32335716903E+01  0.37528100944E+01  0.51100000000E-03 0.  1.
        -11    1    3    3    0    0  0.93714602545E+01 -0.23564282684E+02  0.12907383830E+02  0.28455232266E+02  0.51100000000E-03 0. -1.
        -12    1    3    3    0    0  0.45457149215E+01 -0.78038814821E+01  0.12694418533E+02  0.15579228230E+02  0.00000000000E+00 0.  1.
</event>
<event>
 7    1  0.2685294E-009  0.4778727E+02  0.7816164E-02  0.1312668E+00
        -11   -1    0    0    0    0  0.00000000000E+00  0.00000000000E+00  0.45593999997E+02  0.45594000000E+02  0.51100000000E-03 0.  1.
         11   -1    0    0    0    0 -0.00000000000E+00 -0.00000000000E+00 -0.45593999997E+02  0.45594000000E+02  0.51100000000E-03 0. -1.
    9900012    2    1    2    0    0 -0.39296369491E+02 -0.18160817611E+02  0.30989603995E+01  0.47787268359E+02  0.19999987755E+02 0.  0.
        -12    1    1    2    0    0  0.39296369491E+02  0.18160817611E+02 -0.30989603995E+01  0.43400731641E+02  0.00000000000E+00 0.  1.
         11    1    3    3    0    0 -0.12723270097E+02  0.15394493448E+01  0.27122369635E+01  0.13099913582E+02  0.51100000000E-03 0. -1.
        -11    1    3    3    0    0 -0.53978280073E+01 -0.77784057657E+00  0.29028518678E+01  0.61780362889E+01  0.51100000000E-03 0.  1.
         12    1    3    3    0    0 -0.21175271386E+02 -0.18922426379E+02 -0.25161284318E+01  0.28509318488E+02  0.00000000000E+00 0. -1.
</event>
<event>
 7    1  0.2685294E-009  0.4778727E+02  0.7816164E-02  0.1312668E+00
        -11   -1    0    0    0    0  0.00000000000E+00  0.00000000000E+00  0.45593999997E+02  0.45594000000E+02  0.51100000000E-03 0.  1.
         11   -1    0    0    0    0 -0.00000000000E+00 -0.00000000000E+00 -0.45593999997E+02  0.45594000000E+02  0.51100000000E-03 0. -1.
    9900012    2    1    2    0    0 -0.13692401739E+02  0.18972656253E+02 -0.36553797410E+02  0.47787266645E+02  0.19999979942E+02 0.  0.
        -12    1    1    2    0    0  0.13692401739E+02 -0.18972656253E+02  0.36553797410E+02  0.43400733355E+02  0.00000000000E+00 0.  1.
         11    1    3    3    0    0 -0.13870472526E+02  0.16520741483E+02 -0.30969444596E+02  0.37741640215E+02  0.51100000000E-03 0. -1.
        -11    1    3    3    0    0 -0.12759491779E+01 -0.26186223250E+01 -0.10717094159E+01  0.31038348085E+01  0.51100000000E-03 0.  1.
        -12    1    3    3    0    0  0.14540199650E+01  0.50705370942E+01 -0.45126433975E+01  0.69417916214E+01  0.00000000000E+00 0.  1.
</event>
<event>
 7    1  0.2685294E-009  0.4778726E+02  0.7816164E-02  0.1312668E+00
        -11   -1    0    0    0    0  0.00000000000E+00  0.00000000000E+00  0.45593999997E+02  0.45594000000E+02  0.51100000000E-03 0.  1.
         11   -1    0    0    0    0 -0.00000000000E+00 -0.00000000000E+00 -0.45593999997E+02  0.45594000000E+02  0.51100000000E-03 0. -1.
    9900012    2    1    2    0    0 -0.69708665994E+00 -0.60408055394E+00 -0.43390935818E+02  0.47787260902E+02  0.19999953755E+02 0.  0.
        -12    1    1    2    0    0  0.69708665994E+00  0.60408055394E+00  0.43390935818E+02  0.43400739098E+02  0.00000000000E+00 0.  1.
         11    1    3    3    0    0 -0.19732698465E+01 -0.76486192421E+01 -0.10157703899E+02  0.12867560723E+02  0.51100000000E-03 0.  1.
        -11    1    3    3    0    0  0.29078113620E+01  0.38629352994E+01 -0.73958061049E+01  0.88360389455E+01  0.51100000000E-03 0. -1.
         12    1    3    3    0    0 -0.16316281755E+01  0.31816033888E+01 -0.25837425814E+02  0.26083661233E+02  0.00000000000E+00 0. -1.
</event>
<event>
 7    1  0.2685294E-009  0.4778727E+02  0.7816164E-02  0.1312668E+00
        -11   -1    0    0    0    0  0.00000000000E+00  0.00000000000E+00  0.45593999997E+02  0.45594000000E+02  0.51100000000E-03 0.  1.
         11   -1    0    0    0    0 -0.00000000000E+00 -0.00000000000E+00 -0.45593999997E+02  0.45594000000E+02  0.51100000000E-03 0. -1.
    9900012    2    1    2    0    0 -0.26864686085E+02  0.23679707888E+02 -0.24519048847E+02  0.47787266360E+02  0.19999978643E+02 0.  0.
        -12    1    1    2    0    0  0.26864686085E+02 -0.23679707888E+02  0.24519048847E+02  0.43400733640E+02  0.00000000000E+00 0.  1.
         11    1    3    3    0    0 -0.56123224431E+01  0.11902856476E+02 -0.31632886145E+01  0.13534494841E+02  0.51100000000E-03 0. -1.
        -11    1    3    3    0    0 -0.12727944157E+02  0.62603222037E+00 -0.10314556171E+02  0.16394588987E+02  0.51100000000E-03 0.  1.
        -12    1    3    3    0    0 -0.85244194849E+01  0.11150819191E+02 -0.11041204062E+02  0.17858182532E+02  0.00000000000E+00 0.  1.
</event>
<event>
 7    1  0.2685294E-009  0.4778727E+02  0.7816164E-02  0.1312668E+00
        -11   -1    0    0    0    0  0.00000000000E+00  0.00000000000E+00  0.45593999997E+02  0.45594000000E+02  0.51100000000E-03 0. -1.
         11   -1    0    0    0    0 -0.00000000000E+00 -0.00000000000E+00 -0.45593999997E+02  0.45594000000E+02  0.51100000000E-03 0.  1.
    9900012    2    1    2    0    0 -0.17291315704E+01  0.40286019948E+02  0.16052095415E+02  0.47787273434E+02  0.20000010895E+02 0.  0.
        -12    1    1    2    0    0  0.17291315704E+01 -0.40286019948E+02 -0.16052095415E+02  0.43400726566E+02  0.00000000000E+00 0.  1.
         11    1    3    3    0    0  0.56799261824E+01  0.26888273913E+01  0.39124306564E+01  0.74025987383E+01  0.51100000000E-03 0. -1.
        -11    1    3    3    0    0 -0.40823415408E+01  0.16799101329E+02  0.36116639042E+01  0.17661241020E+02  0.51100000000E-03 0.  1.
         12    1    3    3    0    0 -0.33267162120E+01  0.20798091227E+02  0.85280008543E+01  0.22723433676E+02  0.00000000000E+00 0. -1.
</event>
<event>
 7    1  0.2685294E-009  0.4778726E+02  0.7816164E-02  0.1312668E+00
        -11   -1    0    0    0    0  0.00000000000E+00  0.00000000000E+00  0.45593999997E+02  0.45594000000E+02  0.51100000000E-03 0.  1.
         11   -1    0    0    0    0 -0.00000000000E+00 -0.00000000000E+00 -0.45593999997E+02  0.45594000000E+02  0.51100000000E-03 0. -1.
    9900012    2    1    2    0    0 -0.16732181535E+02  0.49444208656E+01 -0.39739289582E+02  0.47787258842E+02  0.19999944363E+02 0.  0.
        -12    1    1    2    0    0  0.16732181535E+02 -0.49444208656E+01  0.39739289582E+02  0.43400741158E+02  0.00000000000E+00 0.  1.
         11    1    3    3    0    0 -0.13681169933E+02 -0.25205382393E+01 -0.23890808375E+02  0.27645944527E+02  0.51100000000E-03 0. -1.
        -11    1    3    3    0    0 -0.15325387972E+01 -0.12324349970E+01  0.37250679730E-01  0.19669669699E+01  0.51100000000E-03 0.  1.
         12    1    3    3    0    0 -0.15184728053E+01  0.86973941018E+01 -0.15885731887E+02  0.18174347345E+02  0.00000000000E+00 0. -1.
</event>
<event>
 7    1  0.3935934E-009  0.4778725E+02  0.7816164E-02  0.1312668E+00
        -11   -1    0    0    0    0  0.00000000000E+00  0.00000000000E+00  0.45593999997E+02  0.45594000000E+02  0.51100000000E-03 0.  1.
         11   -1    0    0    0    0 -0.00000000000E+00 -0.00000000000E+00 -0.45593999997E+02  0.45594000000E+02  0.51100000000E-03 0. -1.
    9900012    2    1    2    0    0 -0.41842050484E+02 -0.86091108912E+01 -0.76648999441E+01  0.47787254958E+02  0.19999926655E+02 0.  0.
        -12    1    1    2    0    0  0.41842050484E+02  0.86091108912E+01  0.76648999441E+01  0.43400745042E+02  0.00000000000E+00 0.  1.
         11    1    3    3    0    0 -0.12201647366E+02 -0.15262254112E+01 -0.38981042378E+01  0.12899797648E+02  0.51100000000E-03 0. -1.
        -11    1    3    3    0    0 -0.21845732194E+02 -0.12161664164E+02 -0.50149799821E+01  0.25500825767E+02  0.51100000000E-03 0.  1.
        -12    1    3    3    0    0 -0.77946709243E+01  0.50787786839E+01  0.12481842759E+01  0.93866315431E+01  0.00000000000E+00 0.  1.
</event>
<event>
 7    1  0.2685294E-009  0.4778727E+02  0.7816164E-02  0.1312668E+00
        -11   -1    0    0    0    0  0.00000000000E+00  0.00000000000E+00  0.45593999997E+02  0.45594000000E+02  0.51100000000E-03 0.  1.
         11   -1    0    0    0    0 -0.00000000000E+00 -0.00000000000E+00 -0.45593999997E+02  0.45594000000E+02  0.51100000000E-03 0. -1.
    9900012    2    1    2    0    0 -0.19160869724E+02  0.13440416846E+02 -0.36549141868E+02  0.47787268383E+02  0.19999987865E+02 0.  0.
        -12    1    1    2    0    0  0.19160869724E+02 -0.13440416846E+02  0.36549141868E+02  0.43400731617E+02  0.00000000000E+00 0.  1.
         11    1    3    3    0    0 -0.72182496471E+01  0.88549970777E+01 -0.25788576367E+02  0.28205757790E+02  0.51100000000E-03 0. -1.
        -11    1    3    3    0    0 -0.23471727063E+01 -0.34156273650E+00 -0.81437956115E+01  0.84821749592E+01  0.51100000000E-03 0.  1.
         12    1    3    3    0    0 -0.95954473710E+01  0.49269825048E+01 -0.26167698902E+01  0.11099335634E+02  0.00000000000E+00 0. -1.
</event>
<event>
 7    1  0.2685294E-009  0.4778727E+02  0.7816164E-02  0.1312668E+00
        -11   -1    0    0    0    0  0.00000000000E+00  0.00000000000E+00  0.45593999997E+02  0.45594000000E+02  0.51100000000E-03 0.  1.
         11   -1    0    0    0    0 -0.00000000000E+00 -0.00000000000E+00 -0.45593999997E+02  0.45594000000E+02  0.51100000000E-03 0. -1.
    9900012    2    1    2    0    0 -0.29635183805E+02  0.14870267457E+02 -0.28004542780E+02  0.47787269710E+02  0.19999993916E+02 0.  0.
        -12    1    1    2    0    0  0.29635183805E+02 -0.14870267457E+02  0.28004542780E+02  0.43400730290E+02  0.00000000000E+00 0.  1.
         11    1    3    3    0    0 -0.97802730508E+01 -0.25599651449E+01 -0.38381764632E+01  0.10813822697E+02  0.51100000000E-03 0. -1.
        -11    1    3    3    0    0 -0.40366354775E+01  0.15707195344E+01 -0.88045088332E+01  0.98122862722E+01  0.51100000000E-03 0.  1.
         12    1    3    3    0    0 -0.15818275277E+02  0.15859513067E+02 -0.15361857484E+02  0.27161160741E+02  0.00000000000E+00 0. -1.
</event>
<event>
 7    1  0.2685294E-009  0.4778727E+02  0.7816164E-02  0.1312668E+00
        -11   -1    0    0    0    0  0.00000000000E+00  0.00000000000E+00  0.45593999997E+02  0.45594000000E+02  0.51100000000E-03 0.  1.
         11   -1    0    0    0    0 -0.00000000000E+00 -0.00000000000E+00 -0.45593999997E+02  0.45594000000E+02  0.51100000000E-03 0. -1.
    9900012    2    1    2    0    0  0.34577352089E+02  0.12904638096E+00 -0.26230009901E+02  0.47787270169E+02  0.19999996007E+02 0.  0.
        -12    1    1    2    0    0 -0.34577352089E+02 -0.12904638096E+00  0.26230009901E+02  0.43400729831E+02  0.00000000000E+00 0.  1.
         11    1    3    3    0    0  0.10037763241E+02  0.41734038989E+01 -0.16144548066E+02  0.19463309675E+02  0.51100000000E-03 0. -1.
        -11    1    3    3    0    0  0.58586008991E+01 -0.44934065780E+00 -0.68537076956E+01  0.90276475873E+01  0.51100000000E-03 0.  1.
         12    1    3    3    0    0  0.18680987949E+02 -0.35950168601E+01 -0.32317541401E+01  0.19296312907E+02  0.00000000000E+00 0. -1.
</event>
<event>
 7    1  0.2685294E-009  0.4778727E+02  0.7816164E-02  0.1312668E+00
        -11   -1    0    0    0    0  0.00000000000E+00  0.00000000000E+00  0.45593999997E+02  0.45594000000E+02  0.51100000000E-03 0.  1.
         11   -1    0    0    0    0 -0.00000000000E+00 -0.00000000000E+00 -0.45593999997E+02  0.45594000000E+02  0.51100000000E-03 0. -1.
    9900012    2    1    2    0    0  0.58552208856E+01  0.30513342832E+01 -0.42895558601E+02  0.47787271893E+02  0.20000003868E+02 0.  0.
        -12    1    1    2    0    0 -0.58552208856E+01 -0.30513342832E+01  0.42895558601E+02  0.43400728107E+02  0.00000000000E+00 0.  1.
         11    1    3    3    0    0  0.60532751042E-01  0.48580800785E+01 -0.48861416572E+01  0.68904997510E+01  0.51100000000E-03 0. -1.
        -11    1    3    3    0    0  0.13072437680E+01 -0.73859594873E+01 -0.14558096118E+02  0.16376795982E+02  0.51100000000E-03 0.  1.
        -12    1    3    3    0    0  0.44874443666E+01  0.55792136921E+01 -0.23451320826E+02  0.24519976160E+02  0.00000000000E+00 0.  1.
</event>
<event>
 7    1  0.2685294E-009  0.4778727E+02  0.7816164E-02  0.1312668E+00
        -11   -1    0    0    0    0  0.00000000000E+00  0.00000000000E+00  0.45593999997E+02  0.45594000000E+02  0.51100000000E-03 0.  1.
         11   -1    0    0    0    0 -0.00000000000E+00 -0.00000000000E+00 -0.45593999997E+02  0.45594000000E+02  0.51100000000E-03 0. -1.
    9900012    2    1    2    0    0 -0.33439371362E+02 -0.26687175474E+02 -0.72956363047E+01  0.47787271885E+02  0.20000003831E+02 0.  0.
        -12    1    1    2    0    0  0.33439371362E+02  0.26687175474E+02  0.72956363047E+01  0.43400728115E+02  0.00000000000E+00 0.  1.
         11    1    3    3    0    0 -0.16510044017E+02 -0.14560890456E+02 -0.11737555421E+02  0.24947370439E+02  0.51100000000E-03 0. -1.
        -11    1    3    3    0    0 -0.74348258475E+01 -0.92733910001E+01  0.50350935837E+01  0.12908314517E+02  0.51100000000E-03 0.  1.
        -12    1    3    3    0    0 -0.94945014973E+01 -0.28528940178E+01 -0.59317446765E+00  0.99315869280E+01  0.00000000000E+00 0.  1.
</event>
<event>
 7    1  0.2685294E-009  0.4778727E+02  0.7816164E-02  0.1312668E+00
        -11   -1    0    0    0    0  0.00000000000E+00  0.00000000000E+00  0.45593999997E+02  0.45594000000E+02  0.51100000000E-03 0.  1.
         11   -1    0    0    0    0 -0.00000000000E+00 -0.00000000000E+00 -0.45593999997E+02  0.45594000000E+02  0.51100000000E-03 0. -1.
    9900012    2    1    2    0    0  0.89799895891E-01 -0.37766510529E+02  0.21384708869E+02  0.47787272414E+02  0.20000006246E+02 0.  0.
        -12    1    1    2    0    0 -0.89799895891E-01  0.37766510529E+02 -0.21384708869E+02  0.43400727586E+02  0.00000000000E+00 0.  1.
         11    1    3    3    0    0  0.67184840472E+01 -0.23835241126E+02  0.92753431427E+01  0.26444068108E+02  0.51100000000E-03 0. -1.
        -11    1    3    3    0    0 -0.30880019983E+01 -0.60166383762E+01  0.10553149131E+02  0.12534139402E+02  0.51100000000E-03 0.  1.
         12    1    3    3    0    0 -0.35406821530E+01 -0.79146310272E+01  0.15562165945E+01  0.88090649047E+01  0.00000000000E+00 0. -1.
</event>
<event>
 7    1  0.2685294E-009  0.4778727E+02  0.7816164E-02  0.1312668E+00
        -11   -1    0    0    0    0  0.00000000000E+00  0.00000000000E+00  0.45593999997E+02  0.45594000000E+02  0.51100000000E-03 0.  1.
         11   -1    0    0    0    0 -0.00000000000E+00 -0.00000000000E+00 -0.45593999997E+02  0.45594000000E+02  0.51100000000E-03 0. -1.
    9900012    2    1    2    0    0  0.37486186479E+02  0.59876245993E+01  0.21037056235E+02  0.47787267747E+02  0.19999984964E+02 0.  0.
        -12    1    1    2    0    0 -0.37486186479E+02 -0.59876245993E+01 -0.21037056235E+02  0.43400732253E+02  0.00000000000E+00 0.  1.
         11    1    3    3    0    0  0.24400029659E+01  0.34680687608E+01 -0.51239704944E+00  0.42712605166E+01  0.51100000000E-03 0. -1.
        -11    1    3    3    0    0  0.25978032788E+02 -0.38228651781E+01  0.18219791336E+02  0.31959869873E+02  0.51100000000E-03 0.  1.
        -12    1    3    3    0    0  0.90681507251E+01  0.63424210166E+01  0.33296619481E+01  0.11556137357E+02  0.00000000000E+00 0.  1.
</event>
<event>
 7    1  0.2685294E-009  0.4778727E+02  0.7816164E-02  0.1312668E+00
        -11   -1    0    0    0    0  0.00000000000E+00  0.00000000000E+00  0.45593999997E+02  0.45594000000E+02  0.51100000000E-03 0. -1.
         11   -1    0    0    0    0 -0.00000000000E+00 -0.00000000000E+00 -0.45593999997E+02  0.45594000000E+02  0.51100000000E-03 0.  1.
    9900012    2    1    2    0    0 -0.23942027962E+02  0.76978684105E+01  0.35371533064E+02  0.47787271523E+02  0.20000002183E+02 0.  0.
        -12    1    1    2    0    0  0.23942027962E+02 -0.76978684105E+01 -0.35371533064E+02  0.43400728477E+02  0.00000000000E+00 0.  1.
         11    1    3    3    0    0 -0.74293222553E+00  0.73004182214E+01  0.99423786116E+01  0.12357141547E+02  0.51100000000E-03 0. -1.
        -11    1    3    3    0    0 -0.23407896989E+02 -0.40457007631E+00  0.22822699484E+02  0.32695090310E+02  0.51100000000E-03 0.  1.
        -12    1    3    3    0    0  0.20880125255E+00  0.80202026539E+00  0.26064549689E+01  0.27350396659E+01  0.00000000000E+00 0.  1.
</event>
<event>
 7    1  0.2685294E-009  0.4778729E+02  0.7816164E-02  0.1312668E+00
        -11   -1    0    0    0    0  0.00000000000E+00  0.00000000000E+00  0.45593999997E+02  0.45594000000E+02  0.51100000000E-03 0. -1.
         11   -1    0    0    0    0 -0.00000000000E+00 -0.00000000000E+00 -0.45593999997E+02  0.45594000000E+02  0.51100000000E-03 0.  1.
    9900012    2    1    2    0    0 -0.28744499192E+02  0.28833687374E+02  0.15033087845E+02  0.47787291578E+02  0.20000093622E+02 0.  0.
        -12    1    1    2    0    0  0.28744499192E+02 -0.28833687374E+02 -0.15033087845E+02  0.43400708422E+02  0.00000000000E+00 0.  1.
         11    1    3    3    0    0 -0.86274656134E+01  0.54100273410E+01  0.61203745655E+00  0.10201771849E+02  0.51100000000E-03 0. -1.
        -11    1    3    3    0    0 -0.43591162689E+00  0.11689808030E+02  0.35557381252E+01  0.12226401948E+02  0.51100000000E-03 0.  1.
        -12    1    3    3    0    0 -0.19681121951E+02  0.11733852004E+02  0.10865312263E+02  0.25359117782E+02  0.00000000000E+00 0.  1.
</event>
<event>
 7    1  0.2685294E-009  0.4778727E+02  0.7816164E-02  0.1312668E+00
        -11   -1    0    0    0    0  0.00000000000E+00  0.00000000000E+00  0.45593999997E+02  0.45594000000E+02  0.51100000000E-03 0.  1.
         11   -1    0    0    0    0 -0.00000000000E+00 -0.00000000000E+00 -0.45593999997E+02  0.45594000000E+02  0.51100000000E-03 0. -1.
    9900012    2    1    2    0    0 -0.15349912894E+02  0.30437189741E+02 -0.26862257648E+02  0.47787271537E+02  0.20000002246E+02 0.  0.
        -12    1    1    2    0    0  0.15349912894E+02 -0.30437189741E+02  0.26862257648E+02  0.43400728463E+02  0.00000000000E+00 0.  1.
         11    1    3    3    0    0 -0.96219448748E+01  0.73960927531E+01 -0.15999172507E+02  0.20081273176E+02  0.51100000000E-03 0. -1.
        -11    1    3    3    0    0  0.56736765819E+00 -0.71372390388E+00 -0.34434613922E+00  0.97461910265E+00  0.51100000000E-03 0.  1.
         12    1    3    3    0    0 -0.62953356774E+01  0.23754820891E+02 -0.10518739002E+02  0.26731379258E+02  0.00000000000E+00 0. -1.
</event>
<event>
 7    1  0.3727817E-009  0.4778725E+02  0.7816164E-02  0.1312668E+00
        -11   -1    0    0    0    0  0.00000000000E+00  0.00000000000E+00  0.45593999997E+02  0.45594000000E+02  0.51100000000E-03 0. -1.
         11   -1    0    0    0    0 -0.00000000000E+00 -0.00000000000E+00 -0.45593999997E+02  0.45594000000E+02  0.51100000000E-03 0.  1.
    9900012    2    1    2    0    0  0.29056079794E+02  0.93889615744E+01  0.30841795201E+02  0.47787254573E+02  0.19999924899E+02 0.  0.
        -12    1    1    2    0    0 -0.29056079794E+02 -0.93889615744E+01 -0.30841795201E+02  0.43400745427E+02  0.00000000000E+00 0.  1.
         11    1    3    3    0    0  0.54860524144E+01  0.32651975554E+01  0.61101498784E+01  0.88369801384E+01  0.51100000000E-03 0. -1.
        -11    1    3    3    0    0  0.16652551762E+02  0.12379516108E+02  0.16499431361E+02  0.26510208123E+02  0.51100000000E-03 0.  1.
        -12    1    3    3    0    0  0.69174756176E+01 -0.62557520887E+01  0.82322139615E+01  0.12440066311E+02  0.00000000000E+00 0.  1.
</event>
<event>
 7    1  0.2685294E-009  0.4778727E+02  0.7816164E-02  0.1312668E+00
        -11   -1    0    0    0    0  0.00000000000E+00  0.00000000000E+00  0.45593999997E+02  0.45594000000E+02  0.51100000000E-03 0. -1.
         11   -1    0    0    0    0 -0.00000000000E+00 -0.00000000000E+00 -0.45593999997E+02  0.45594000000E+02  0.51100000000E-03 0.  1.
    9900012    2    1    2    0    0  0.12318355402E+02  0.41467135564E+02  0.35153744718E+01  0.47787273401E+02  0.20000010744E+02 0.  0.
        -12    1    1    2    0    0 -0.12318355402E+02 -0.41467135564E+02 -0.35153744718E+01  0.43400726599E+02  0.00000000000E+00 0.  1.
         11    1    3    3    0    0  0.28036209211E+01  0.16119798551E+02  0.23424098688E+01  0.16528613973E+02  0.51100000000E-03 0.  1.
        -11    1    3    3    0    0  0.74126262466E+01  0.18348548195E+02  0.79173998968E+01  0.21314348926E+02  0.51100000000E-03 0. -1.
        -12    1    3    3    0    0  0.21021082343E+01  0.69987888175E+01 -0.67444352938E+01  0.99443105026E+01  0.00000000000E+00 0.  1.
</event>
<event>
 7    1  0.2685294E-009  0.4778727E+02  0.7816164E-02  0.1312668E+00
        -11   -1    0    0    0    0  0.00000000000E+00  0.00000000000E+00  0.45593999997E+02  0.45594000000E+02  0.51100000000E-03 0.  1.
         11   -1    0    0    0    0 -0.00000000000E+00 -0.00000000000E+00 -0.45593999997E+02  0.45594000000E+02  0.51100000000E-03 0. -1.
    9900012    2    1    2    0    0 -0.20309119924E+02  0.28586249792E+02 -0.25573211662E+02  0.47787272081E+02  0.20000004725E+02 0.  0.
        -12    1    1    2    0    0  0.20309119924E+02 -0.28586249792E+02  0.25573211662E+02  0.43400727919E+02  0.00000000000E+00 0.  1.
         11    1    3    3    0    0 -0.15366657770E+01  0.16198146134E+02 -0.69320762591E+01  0.17686010330E+02  0.51100000000E-03 0. -1.
        -11    1    3    3    0    0 -0.10582640919E+02  0.31592535432E+01 -0.11002844844E+02  0.15589604444E+02  0.51100000000E-03 0.  1.
        -12    1    3    3    0    0 -0.81898132274E+01  0.92288501147E+01 -0.76382905584E+01  0.14511657307E+02  0.00000000000E+00 0.  1.
</event>
<event>
 7    1  0.2685294E-009  0.4778727E+02  0.7816164E-02  0.1312668E+00
        -11   -1    0    0    0    0  0.00000000000E+00  0.00000000000E+00  0.45593999997E+02  0.45594000000E+02  0.51100000000E-03 0.  1.
         11   -1    0    0    0    0 -0.00000000000E+00 -0.00000000000E+00 -0.45593999997E+02  0.45594000000E+02  0.51100000000E-03 0. -1.
    9900012    2    1    2    0    0  0.39049377200E+02 -0.14058509391E+02 -0.12693611960E+02  0.47787270391E+02  0.19999997019E+02 0.  0.
        -12    1    1    2    0    0 -0.39049377200E+02  0.14058509391E+02  0.12693611960E+02  0.43400729609E+02  0.00000000000E+00 0.  1.
         11    1    3    3    0    0 -0.13753992484E+01  0.90494530702E+00 -0.13869668251E+01  0.21527485539E+01  0.51100000000E-03 0. -1.
        -11    1    3    3    0    0  0.90221655063E+01 -0.54622678812E+01 -0.67230437578E+01  0.12507404145E+02  0.51100000000E-03 0.  1.
         12    1    3    3    0    0  0.31402610943E+02 -0.95011868171E+01 -0.45836013772E+01  0.33127117691E+02  0.00000000000E+00 0. -1.
</event>
<event>
 7    1  0.2685294E-009  0.4778728E+02  0.7816164E-02  0.1312668E+00
        -11   -1    0    0    0    0  0.00000000000E+00  0.00000000000E+00  0.45593999997E+02  0.45594000000E+02  0.51100000000E-03 0. -1.
         11   -1    0    0    0    0 -0.00000000000E+00 -0.00000000000E+00 -0.45593999997E+02  0.45594000000E+02  0.51100000000E-03 0.  1.
    9900012    2    1    2    0    0  0.10777934991E+02  0.39683857778E+01  0.41853445389E+02  0.47787275821E+02  0.20000021777E+02 0.  0.
        -12    1    1    2    0    0 -0.10777934991E+02 -0.39683857778E+01 -0.41853445389E+02  0.43400724179E+02  0.00000000000E+00 0.  1.
         11    1    3    3    0    0  0.82992362548E+00  0.12941840870E+01  0.18307591207E+02  0.18372032597E+02  0.51100000000E-03 0. -1.
        -11    1    3    3    0    0  0.69657859729E+00 -0.14850299951E+01  0.17561868572E+02  0.17638303882E+02  0.51100000000E-03 0.  1.
        -12    1    3    3    0    0  0.92514327682E+01  0.41592316859E+01  0.59839856099E+01  0.11776939342E+02  0.00000000000E+00 0.  1.
</event>
<event>
 7    1  0.2685294E-009  0.4778727E+02  0.7816164E-02  0.1312668E+00
        -11   -1    0    0    0    0  0.00000000000E+00  0.00000000000E+00  0.45593999997E+02  0.45594000000E+02  0.51100000000E-03 0. -1.
         11   -1    0    0    0    0 -0.00000000000E+00 -0.00000000000E+00 -0.45593999997E+02  0.45594000000E+02  0.51100000000E-03 0.  1.
    9900012    2    1    2    0    0  0.14501154471E+02 -0.18228711570E+02  0.36620403821E+02  0.47787269793E+02  0.19999994293E+02 0.  0.
        -12    1    1    2    0    0 -0.14501154471E+02  0.18228711570E+02 -0.36620403821E+02  0.43400730207E+02  0.00000000000E+00 0.  1.
         11    1    3    3    0    0  0.32055009007E+01 -0.13629895031E+02  0.12635209511E+02  0.18859952127E+02  0.51100000000E-03 0. -1.
        -11    1    3    3    0    0  0.10410779072E+02  0.71033538299E+00  0.18515223591E+02  0.21253291560E+02  0.51100000000E-03 0.  1.
        -12    1    3    3    0    0  0.88487449865E+00 -0.53091519223E+01  0.54699707184E+01  0.76740261058E+01  0.00000000000E+00 0.  1.
</event>
<event>
 7    1  0.2685294E-009  0.4778729E+02  0.7816164E-02  0.1312668E+00
        -11   -1    0    0    0    0  0.00000000000E+00  0.00000000000E+00  0.45593999997E+02  0.45594000000E+02  0.51100000000E-03 0. -1.
         11   -1    0    0    0    0 -0.00000000000E+00 -0.00000000000E+00 -0.45593999997E+02  0.45594000000E+02  0.51100000000E-03 0.  1.
    9900012    2    1    2    0    0  0.35067798688E+02  0.24910286715E+02  0.57748505503E+01  0.47787288163E+02  0.20000078052E+02 0.  0.
        -12    1    1    2    0    0 -0.35067798688E+02 -0.24910286715E+02 -0.57748505503E+01  0.43400711837E+02  0.00000000000E+00 0.  1.
         11    1    3    3    0    0  0.18527606130E+02  0.64400856919E+01  0.41275599939E+01  0.20044541511E+02  0.51100000000E-03 0. -1.
        -11    1    3    3    0    0  0.25583031658E+01  0.92468987253E+01  0.47533172543E+01  0.10707197407E+02  0.51100000000E-03 0.  1.
        -12    1    3    3    0    0  0.13981889392E+02  0.92233022981E+01 -0.31060266979E+01  0.17035549245E+02  0.00000000000E+00 0.  1.
</event>
<event>
 7    1  0.2685294E-009  0.4778729E+02  0.7816164E-02  0.1312668E+00
        -11   -1    0    0    0    0  0.00000000000E+00  0.00000000000E+00  0.45593999997E+02  0.45594000000E+02  0.51100000000E-03 0.  1.
         11   -1    0    0    0    0 -0.00000000000E+00 -0.00000000000E+00 -0.45593999997E+02  0.45594000000E+02  0.51100000000E-03 0. -1.
    9900012    2    1    2    0    0 -0.70259791572E-01  0.12418565456E+02 -0.41586010792E+02  0.47787285743E+02  0.20000067016E+02 0.  0.
        -12    1    1    2    0    0  0.70259791572E-01 -0.12418565456E+02  0.41586010792E+02  0.43400714257E+02  0.00000000000E+00 0.  1.
         11    1    3    3    0    0 -0.95825176477E-01  0.13520829604E+01 -0.22854676737E+02  0.22894836968E+02  0.51100000000E-03 0. -1.
        -11    1    3    3    0    0  0.33543912356E+00  0.75022170066E+01 -0.19841973213E+01  0.77674203369E+01  0.51100000000E-03 0.  1.
        -12    1    3    3    0    0 -0.30987373865E+00  0.35642654890E+01 -0.16747136734E+02  0.17125028438E+02  0.00000000000E+00 0.  1.
</event>
<event>
 7    1  0.2685294E-009  0.4778726E+02  0.7816164E-02  0.1312668E+00
        -11   -1    0    0    0    0  0.00000000000E+00  0.00000000000E+00  0.45593999997E+02  0.45594000000E+02  0.51100000000E-03 0.  1.
         11   -1    0    0    0    0 -0.00000000000E+00 -0.00000000000E+00 -0.45593999997E+02  0.45594000000E+02  0.51100000000E-03 0. -1.
    9900012    2    1    2    0    0  0.32267541333E+01  0.38346021598E+02  0.20069745787E+02  0.47787262557E+02  0.19999961303E+02 0.  0.
        -12    1    1    2    0    0 -0.32267541333E+01 -0.38346021598E+02 -0.20069745787E+02  0.43400737443E+02  0.00000000000E+00 0.  1.
         11    1    3    3    0    0  0.44041240574E+01  0.10046922803E+02  0.29651607707E+01  0.11363500569E+02  0.51100000000E-03 0. -1.
        -11    1    3    3    0    0  0.29936192833E+01  0.83361067975E+01  0.12823692599E+02  0.15585234200E+02  0.51100000000E-03 0.  1.
        -12    1    3    3    0    0 -0.41709892075E+01  0.19962991998E+02  0.42808924173E+01  0.20838527788E+02  0.00000000000E+00 0.  1.
</event>
<event>
 7    1  0.2685294E-009  0.4778727E+02  0.7816164E-02  0.1312668E+00
        -11   -1    0    0    0    0  0.00000000000E+00  0.00000000000E+00  0.45593999997E+02  0.45594000000E+02  0.51100000000E-03 0. -1.
         11   -1    0    0    0    0 -0.00000000000E+00 -0.00000000000E+00 -0.45593999997E+02  0.45594000000E+02  0.51100000000E-03 0.  1.
    9900012    2    1    2    0    0  0.94992344019E+00  0.36527859167E+02  0.23418715495E+02  0.47787273217E+02  0.20000009907E+02 0.  0.
        -12    1    1    2    0    0 -0.94992344019E+00 -0.36527859167E+02 -0.23418715495E+02  0.43400726783E+02  0.00000000000E+00 0.  1.
         11    1    3    3    0    0  0.63861257273E+01  0.97804346494E+01  0.14213766680E+02  0.18397572319E+02  0.51100000000E-03 0. -1.
        -11    1    3    3    0    0 -0.22699169227E+01  0.85529809284E+01  0.21924321230E+00  0.88517836307E+01  0.51100000000E-03 0.  1.
         12    1    3    3    0    0 -0.31662853644E+01  0.18194443589E+02  0.89857056020E+01  0.20537917267E+02  0.00000000000E+00 0. -1.
</event>
<event>
 7    1  0.2685294E-009  0.4778726E+02  0.7816164E-02  0.1312668E+00
        -11   -1    0    0    0    0  0.00000000000E+00  0.00000000000E+00  0.45593999997E+02  0.45594000000E+02  0.51100000000E-03 0.  1.
         11   -1    0    0    0    0 -0.00000000000E+00 -0.00000000000E+00 -0.45593999997E+02  0.45594000000E+02  0.51100000000E-03 0. -1.
    9900012    2    1    2    0    0  0.17986542594E+02 -0.10239024719E+02 -0.38148014686E+02  0.47787258461E+02  0.19999942626E+02 0.  0.
        -12    1    1    2    0    0 -0.17986542594E+02  0.10239024719E+02  0.38148014686E+02  0.43400741539E+02  0.00000000000E+00 0.  1.
         11    1    3    3    0    0  0.66654557711E+01 -0.12075070530E+02 -0.22666383093E+02  0.26533008720E+02  0.51100000000E-03 0. -1.
        -11    1    3    3    0    0  0.10491213678E+02  0.47615364954E+01 -0.12299030184E+02  0.16852416384E+02  0.51100000000E-03 0.  1.
        -12    1    3    3    0    0  0.82987314548E+00 -0.29254906841E+01 -0.31826014086E+01  0.44018333574E+01  0.00000000000E+00 0.  1.
</event>
<event>
 7    1  0.2685294E-009  0.4778727E+02  0.7816164E-02  0.1312668E+00
        -11   -1    0    0    0    0  0.00000000000E+00  0.00000000000E+00  0.45593999997E+02  0.45594000000E+02  0.51100000000E-03 0. -1.
         11   -1    0    0    0    0 -0.00000000000E+00 -0.00000000000E+00 -0.45593999997E+02  0.45594000000E+02  0.51100000000E-03 0.  1.
    9900012    2    1    2    0    0  0.62543757944E+01 -0.24548012887E+02  0.35240616891E+02  0.47787271526E+02  0.20000002194E+02 0.  0.
        -12    1    1    2    0    0 -0.62543757944E+01  0.24548012887E+02 -0.35240616891E+02  0.43400728474E+02  0.00000000000E+00 0.  1.
         11    1    3    3    0    0  0.56522822503E+01 -0.24679591922E+02  0.34687960806E+02  0.42945141485E+02  0.51100000000E-03 0. -1.
        -11    1    3    3    0    0 -0.19204996066E+01  0.86467777607E+00 -0.18298698394E+00  0.21141123180E+01  0.51100000000E-03 0.  1.
         12    1    3    3    0    0  0.25225931508E+01 -0.73309874144E+00  0.73564306870E+00  0.27280177224E+01  0.00000000000E+00 0. -1.
</event>
<event>
 7    1  0.2685294E-009  0.4778727E+02  0.7816164E-02  0.1312668E+00
        -11   -1    0    0    0    0  0.00000000000E+00  0.00000000000E+00  0.45593999997E+02  0.45594000000E+02  0.51100000000E-03 0. -1.
         11   -1    0    0    0    0 -0.00000000000E+00 -0.00000000000E+00 -0.45593999997E+02  0.45594000000E+02  0.51100000000E-03 0.  1.
    9900012    2    1    2    0    0  0.83504395229E+01 -0.42112846805E+02 -0.63562332284E+01  0.47787269510E+02  0.19999993002E+02 0.  0.
        -12    1    1    2    0    0 -0.83504395229E+01  0.42112846805E+02  0.63562332284E+01  0.43400730490E+02  0.00000000000E+00 0.  1.
         11    1    3    3    0    0  0.80850698695E+01 -0.24274138393E+02  0.15994452259E+01  0.25635139454E+02  0.51100000000E-03 0. -1.
        -11    1    3    3    0    0  0.10120242649E+00 -0.18739038226E+02 -0.89788778597E+01  0.20779365809E+02  0.51100000000E-03 0.  1.
         12    1    3    3    0    0  0.16416722686E+00  0.90032981407E+00  0.10231994054E+01  0.13727642462E+01  0.00000000000E+00 0. -1.
</event>
<event>
 7    1  0.2685294E-009  0.4778727E+02  0.7816164E-02  0.1312668E+00
        -11   -1    0    0    0    0  0.00000000000E+00  0.00000000000E+00  0.45593999997E+02  0.45594000000E+02  0.51100000000E-03 0. -1.
         11   -1    0    0    0    0 -0.00000000000E+00 -0.00000000000E+00 -0.45593999997E+02  0.45594000000E+02  0.51100000000E-03 0.  1.
    9900012    2    1    2    0    0 -0.26376995940E+02 -0.24490792109E+02  0.24250334856E+02  0.47787267823E+02  0.19999985310E+02 0.  0.
        -12    1    1    2    0    0  0.26376995940E+02  0.24490792109E+02 -0.24250334856E+02  0.43400732177E+02  0.00000000000E+00 0.  1.
         11    1    3    3    0    0 -0.59368927745E+01 -0.15206543135E+02  0.84532604623E+01  0.18383233194E+02  0.51100000000E-03 0. -1.
        -11    1    3    3    0    0 -0.20463303016E+02 -0.10266457305E+02  0.16478873144E+02  0.28208157973E+02  0.51100000000E-03 0.  1.
        -12    1    3    3    0    0  0.23199850112E-01  0.98220833144E+00 -0.68179875044E+00  0.11958766556E+01  0.00000000000E+00 0.  1.
</event>
<event>
 7    1  0.2685294E-009  0.4778727E+02  0.7816164E-02  0.1312668E+00
        -11   -1    0    0    0    0  0.00000000000E+00  0.00000000000E+00  0.45593999997E+02  0.45594000000E+02  0.51100000000E-03 0.  1.
         11   -1    0    0    0    0 -0.00000000000E+00 -0.00000000000E+00 -0.45593999997E+02  0.45594000000E+02  0.51100000000E-03 0. -1.
    9900012    2    1    2    0    0 -0.56121383508E+01 -0.10110720452E+02 -0.41831810983E+02  0.47787272183E+02  0.20000005191E+02 0.  0.
        -12    1    1    2    0    0  0.56121383508E+01  0.10110720452E+02  0.41831810983E+02  0.43400727817E+02  0.00000000000E+00 0.  1.
         11    1    3    3    0    0 -0.73380886726E+00 -0.72573505163E+01 -0.10233363041E+02  0.12566993728E+02  0.51100000000E-03 0. -1.
        -11    1    3    3    0    0 -0.54468034191E+01  0.50613277921E+01 -0.18012067904E+02  0.19486387478E+02  0.51100000000E-03 0.  1.
        -12    1    3    3    0    0  0.56847393555E+00 -0.79146977276E+01 -0.13586380038E+02  0.15733890977E+02  0.00000000000E+00 0.  1.
</event>
<event>
 7    1  0.2685294E-009  0.4778727E+02  0.7816164E-02  0.1312668E+00
        -11   -1    0    0    0    0  0.00000000000E+00  0.00000000000E+00  0.45593999997E+02  0.45594000000E+02  0.51100000000E-03 0.  1.
         11   -1    0    0    0    0 -0.00000000000E+00 -0.00000000000E+00 -0.45593999997E+02  0.45594000000E+02  0.51100000000E-03 0. -1.
    9900012    2    1    2    0    0  0.45825075522E+01 -0.31151431466E+02 -0.29869920961E+02  0.47787271480E+02  0.20000001987E+02 0.  0.
        -12    1    1    2    0    0 -0.45825075522E+01  0.31151431466E+02  0.29869920961E+02  0.43400728520E+02  0.00000000000E+00 0.  1.
         11    1    3    3    0    0  0.83270186051E+01 -0.63068146074E+01 -0.14183210332E+02  0.17614726933E+02  0.51100000000E-03 0. -1.
        -11    1    3    3    0    0 -0.15133698938E+01 -0.19909450542E+02 -0.10042688654E+02  0.22350214876E+02  0.51100000000E-03 0.  1.
        -12    1    3    3    0    0 -0.22311411591E+01 -0.49351663165E+01 -0.56440219744E+01  0.78223296716E+01  0.00000000000E+00 0.  1.
</event>
<event>
 7    1  0.2685294E-009  0.4778727E+02  0.7816164E-02  0.1312668E+00
        -11   -1    0    0    0    0  0.00000000000E+00  0.00000000000E+00  0.45593999997E+02  0.45594000000E+02  0.51100000000E-03 0.  1.
         11   -1    0    0    0    0 -0.00000000000E+00 -0.00000000000E+00 -0.45593999997E+02  0.45594000000E+02  0.51100000000E-03 0. -1.
    9900012    2    1    2    0    0  0.14268695332E+02  0.36964786307E+01 -0.40821118060E+02  0.47787270738E+02  0.19999998605E+02 0.  0.
        -12    1    1    2    0    0 -0.14268695332E+02 -0.36964786307E+01  0.40821118060E+02  0.43400729262E+02  0.00000000000E+00 0.  1.
         11    1    3    3    0    0  0.14408037666E+02  0.97417898538E+00 -0.37938337716E+02  0.40593817793E+02  0.51100000000E-03 0. -1.
        -11    1    3    3    0    0  0.20857305531E+01  0.27764707865E+01 -0.34516025201E+01  0.48961844518E+01  0.51100000000E-03 0.  1.
         12    1    3    3    0    0 -0.22250728865E+01 -0.54171141154E-01  0.56882217636E+00  0.22972684935E+01  0.00000000000E+00 0. -1.
</event>
<event>
 7    1  0.2685294E-009  0.4778729E+02  0.7816164E-02  0.1312668E+00
        -11   -1    0    0    0    0  0.00000000000E+00  0.00000000000E+00  0.45593999997E+02  0.45594000000E+02  0.51100000000E-03 0.  1.
         11   -1    0    0    0    0 -0.00000000000E+00 -0.00000000000E+00 -0.45593999997E+02  0.45594000000E+02  0.51100000000E-03 0. -1.
    9900012    2    1    2    0    0 -0.25773204103E+02 -0.23713289127E+02 -0.25632860719E+02  0.47787289411E+02  0.20000083742E+02 0.  0.
        -12    1    1    2    0    0  0.25773204103E+02  0.23713289127E+02  0.25632860719E+02  0.43400710589E+02  0.00000000000E+00 0.  1.
         11    1    3    3    0    0  0.31115275516E+01 -0.22613944416E+01 -0.36974545900E+01  0.53354174374E+01  0.51100000000E-03 0. -1.
        -11    1    3    3    0    0 -0.18374088456E+02 -0.10532914961E+02 -0.13294698933E+02  0.25005968170E+02  0.51100000000E-03 0.  1.
         12    1    3    3    0    0 -0.10510643199E+02 -0.10918979724E+02 -0.86407071967E+01  0.17445903804E+02  0.00000000000E+00 0. -1.
</event>
<event>
 7    1  0.2685294E-009  0.4778727E+02  0.7816164E-02  0.1312668E+00
        -11   -1    0    0    0    0  0.00000000000E+00  0.00000000000E+00  0.45593999997E+02  0.45594000000E+02  0.51100000000E-03 0. -1.
         11   -1    0    0    0    0 -0.00000000000E+00 -0.00000000000E+00 -0.45593999997E+02  0.45594000000E+02  0.51100000000E-03 0.  1.
    9900012    2    1    2    0    0 -0.27699384832E+02 -0.33361418418E+02  0.18393262509E+01  0.47787270974E+02  0.19999999678E+02 0.  0.
        -12    1    1    2    0    0  0.27699384832E+02  0.33361418418E+02 -0.18393262509E+01  0.43400729026E+02  0.00000000000E+00 0.  1.
         11    1    3    3    0    0 -0.94081445434E+01 -0.22349716212E+02 -0.60964198972E+01  0.25003786400E+02  0.51100000000E-03 0. -1.
        -11    1    3    3    0    0 -0.98642112789E+01 -0.62375676985E+01  0.42633796904E+01  0.12425229237E+02  0.51100000000E-03 0.  1.
         12    1    3    3    0    0 -0.84270290095E+01 -0.47741345080E+01  0.36723664577E+01  0.10358255337E+02  0.00000000000E+00 0. -1.
</event>
<event>
 7    1  0.2685294E-009  0.4778727E+02  0.7816164E-02  0.1312668E+00
        -11   -1    0    0    0    0  0.00000000000E+00  0.00000000000E+00  0.45593999997E+02  0.45594000000E+02  0.51100000000E-03 0.  1.
         11   -1    0    0    0    0 -0.00000000000E+00 -0.00000000000E+00 -0.45593999997E+02  0.45594000000E+02  0.51100000000E-03 0. -1.
    9900012    2    1    2    0    0  0.86261026725E+01  0.17053418010E+02 -0.38966581051E+02  0.47787272449E+02  0.20000006404E+02 0.  0.
        -12    1    1    2    0    0 -0.86261026725E+01 -0.17053418010E+02  0.38966581051E+02  0.43400727551E+02  0.00000000000E+00 0.  1.
         11    1    3    3    0    0 -0.13798278392E+01  0.11887780388E+02 -0.31487397362E+02  0.33685003196E+02  0.51100000000E-03 0. -1.
        -11    1    3    3    0    0  0.43355152812E+01  0.13567582628E+01 -0.92601810947E+00  0.46362695713E+01  0.51100000000E-03 0.  1.
         12    1    3    3    0    0  0.56704152305E+01  0.38088793600E+01 -0.65531655795E+01  0.94659996819E+01  0.00000000000E+00 0. -1.
</event>
<event>
 7    1  0.2685294E-009  0.4778727E+02  0.7816164E-02  0.1312668E+00
        -11   -1    0    0    0    0  0.00000000000E+00  0.00000000000E+00  0.45593999997E+02  0.45594000000E+02  0.51100000000E-03 0.  1.
         11   -1    0    0    0    0 -0.00000000000E+00 -0.00000000000E+00 -0.45593999997E+02  0.45594000000E+02  0.51100000000E-03 0. -1.
    9900012    2    1    2    0    0 -0.87536430294E+01  0.72646591988E+01 -0.41883427604E+02  0.47787273654E+02  0.20000011896E+02 0.  0.
        -12    1    1    2    0    0  0.87536430294E+01 -0.72646591988E+01  0.41883427604E+02  0.43400726346E+02  0.00000000000E+00 0.  1.
         11    1    3    3    0    0  0.46251359952E+00  0.23382691185E+01 -0.98048763980E+01  0.10090442148E+02  0.51100000000E-03 0.  1.
        -11    1    3    3    0    0 -0.12923411280E+02  0.48331287354E+01 -0.30842109652E+02  0.33787711087E+02  0.51100000000E-03 0. -1.
        -12    1    3    3    0    0  0.37072546513E+01  0.93261344920E-01 -0.12364415540E+01  0.39091204183E+01  0.00000000000E+00 0.  1.
</event>
<event>
 7    1  0.2685294E-009  0.4778727E+02  0.7816164E-02  0.1312668E+00
        -11   -1    0    0    0    0  0.00000000000E+00  0.00000000000E+00  0.45593999997E+02  0.45594000000E+02  0.51100000000E-03 0.  1.
         11   -1    0    0    0    0 -0.00000000000E+00 -0.00000000000E+00 -0.45593999997E+02  0.45594000000E+02  0.51100000000E-03 0. -1.
    9900012    2    1    2    0    0  0.88256765415E+01  0.41045138996E+02 -0.11001245934E+02  0.47787269433E+02  0.19999992653E+02 0.  0.
        -12    1    1    2    0    0 -0.88256765415E+01 -0.41045138996E+02  0.11001245934E+02  0.43400730567E+02  0.00000000000E+00 0.  1.
         11    1    3    3    0    0  0.21883019586E+01  0.73555856820E+01 -0.95528891458E+01  0.12253611610E+02  0.51100000000E-03 0. -1.
        -11    1    3    3    0    0  0.17289146508E+00  0.14856037751E+01  0.20103659257E+01  0.25056898155E+01  0.51100000000E-03 0.  1.
         12    1    3    3    0    0  0.64644831178E+01  0.32203949539E+02 -0.34587227142E+01  0.33027968008E+02  0.00000000000E+00 0. -1.
</event>
<event>
 7    1  0.2685294E-009  0.4778726E+02  0.7816164E-02  0.1312668E+00
        -11   -1    0    0    0    0  0.00000000000E+00  0.00000000000E+00  0.45593999997E+02  0.45594000000E+02  0.51100000000E-03 0. -1.
         11   -1    0    0    0    0 -0.00000000000E+00 -0.00000000000E+00 -0.45593999997E+02  0.45594000000E+02  0.51100000000E-03 0.  1.
    9900012    2    1    2    0    0 -0.54108110168E+01 -0.42994071995E+02  0.24201094678E+01  0.47787262306E+02  0.19999960159E+02 0.  0.
        -12    1    1    2    0    0  0.54108110168E+01  0.42994071995E+02 -0.24201094678E+01  0.43400737694E+02  0.00000000000E+00 0.  1.
         11    1    3    3    0    0 -0.12442690676E+01  0.14146505993E+01 -0.68945877818E+00  0.20061892978E+01  0.51100000000E-03 0. -1.
        -11    1    3    3    0    0 -0.75464593111E+00 -0.75494700563E+01 -0.31928808625E+01  0.82315537462E+01  0.51100000000E-03 0.  1.
         12    1    3    3    0    0 -0.34118960181E+01 -0.36859252537E+02  0.63024491084E+01  0.37549519262E+02  0.00000000000E+00 0. -1.
</event>
<event>
 7    1  0.2685294E-009  0.4778727E+02  0.7816164E-02  0.1312668E+00
        -11   -1    0    0    0    0  0.00000000000E+00  0.00000000000E+00  0.45593999997E+02  0.45594000000E+02  0.51100000000E-03 0.  1.
         11   -1    0    0    0    0 -0.00000000000E+00 -0.00000000000E+00 -0.45593999997E+02  0.45594000000E+02  0.51100000000E-03 0. -1.
    9900012    2    1    2    0    0  0.12489784117E+02 -0.89081558723E+01 -0.40598932736E+02  0.47787270886E+02  0.19999999276E+02 0.  0.
        -12    1    1    2    0    0 -0.12489784117E+02  0.89081558723E+01  0.40598932736E+02  0.43400729114E+02  0.00000000000E+00 0.  1.
         11    1    3    3    0    0 -0.40214838669E+01 -0.44572323675E+01 -0.73163992628E+01  0.94640874522E+01  0.51100000000E-03 0. -1.
        -11    1    3    3    0    0  0.87186924378E+00  0.10519330290E+01 -0.28636605377E+00  0.13959673540E+01  0.51100000000E-03 0.  1.
         12    1    3    3    0    0  0.15639398741E+02 -0.55028565337E+01 -0.32996167419E+02  0.36927216079E+02  0.00000000000E+00 0. -1.
</event>
<event>
 7    1  0.2685294E-009  0.4778727E+02  0.7816164E-02  0.1312668E+00
        -11   -1    0    0    0    0  0.00000000000E+00  0.00000000000E+00  0.45593999997E+02  0.45594000000E+02  0.51100000000E-03 0.  1.
         11   -1    0    0    0    0 -0.00000000000E+00 -0.00000000000E+00 -0.45593999997E+02  0.45594000000E+02  0.51100000000E-03 0. -1.
    9900012    2    1    2    0    0 -0.25608011018E+02 -0.74109278049E+01 -0.34248078819E+02  0.47787274407E+02  0.20000015330E+02 0.  0.
        -12    1    1    2    0    0  0.25608011018E+02  0.74109278049E+01  0.34248078819E+02  0.43400725593E+02  0.00000000000E+00 0.  1.
         11    1    3    3    0    0 -0.27083266566E+02 -0.52366708764E+01 -0.32438518307E+02  0.42581492693E+02  0.51100000000E-03 0. -1.
        -11    1    3    3    0    0  0.18822154849E+01 -0.32164896950E+01 -0.16497309828E+01  0.40755556267E+01  0.51100000000E-03 0.  1.
        -12    1    3    3    0    0 -0.40695993658E+00  0.10422327664E+01 -0.15982952932E+00  0.11302260870E+01  0.00000000000E+00 0.  1.
</event>
<event>
 7    1  0.2685294E-009  0.4778727E+02  0.7816164E-02  0.1312668E+00
        -11   -1    0    0    0    0  0.00000000000E+00  0.00000000000E+00  0.45593999997E+02  0.45594000000E+02  0.51100000000E-03 0.  1.
         11   -1    0    0    0    0 -0.00000000000E+00 -0.00000000000E+00 -0.45593999997E+02  0.45594000000E+02  0.51100000000E-03 0. -1.
    9900012    2    1    2    0    0  0.84449752243E+01 -0.14106296623E+02 -0.40166131106E+02  0.47787270755E+02  0.19999998682E+02 0.  0.
        -12    1    1    2    0    0 -0.84449752243E+01  0.14106296623E+02  0.40166131106E+02  0.43400729245E+02  0.00000000000E+00 0.  1.
         11    1    3    3    0    0  0.52802773332E+01 -0.12720052916E+02 -0.36195289903E+02  0.38726994284E+02  0.51100000000E-03 0. -1.
        -11    1    3    3    0    0  0.20354710295E+01  0.29743743571E+01 -0.21847100751E+01  0.42146178358E+01  0.51100000000E-03 0.  1.
        -12    1    3    3    0    0  0.11292268616E+01 -0.43606180638E+01 -0.17861311283E+01  0.48456586354E+01  0.00000000000E+00 0.  1.
</event>
<event>
 7    1  0.2685294E-009  0.4778731E+02  0.7816164E-02  0.1312668E+00
        -11   -1    0    0    0    0  0.00000000000E+00  0.00000000000E+00  0.45593999997E+02  0.45594000000E+02  0.51100000000E-03 0.  1.
         11   -1    0    0    0    0 -0.00000000000E+00 -0.00000000000E+00 -0.45593999997E+02  0.45594000000E+02  0.51100000000E-03 0. -1.
    9900012    2    1    2    0    0 -0.17930148567E+01  0.34121067421E+02 -0.26761117891E+02  0.47787313658E+02  0.20000194290E+02 0.  0.
        -12    1    1    2    0    0  0.17930148567E+01 -0.34121067421E+02  0.26761117891E+02  0.43400686342E+02  0.00000000000E+00 0.  1.
         11    1    3    3    0    0 -0.79644840052E+01  0.15364333024E+02 -0.89349922218E+01  0.19476391375E+02  0.51100000000E-03 0. -1.
        -11    1    3    3    0    0  0.31413305814E+01  0.16125593599E+02 -0.17901100720E+02  0.24297163086E+02  0.51100000000E-03 0.  1.
         12    1    3    3    0    0  0.30301385671E+01  0.26311407981E+01  0.74975051247E-01  0.40137591973E+01  0.00000000000E+00 0. -1.
</event>
<event>
 7    1  0.2685294E-009  0.4778727E+02  0.7816164E-02  0.1312668E+00
        -11   -1    0    0    0    0  0.00000000000E+00  0.00000000000E+00  0.45593999997E+02  0.45594000000E+02  0.51100000000E-03 0.  1.
         11   -1    0    0    0    0 -0.00000000000E+00 -0.00000000000E+00 -0.45593999997E+02  0.45594000000E+02  0.51100000000E-03 0. -1.
    9900012    2    1    2    0    0  0.30668229686E+02 -0.66638852704E+01 -0.29977923067E+02  0.47787267859E+02  0.19999985477E+02 0.  0.
        -12    1    1    2    0    0 -0.30668229686E+02  0.66638852704E+01  0.29977923067E+02  0.43400732141E+02  0.00000000000E+00 0.  1.
         11    1    3    3    0    0  0.11802662207E+01 -0.19903846034E+01 -0.93544398667E+01  0.96363999867E+01  0.51100000000E-03 0. -1.
        -11    1    3    3    0    0  0.15416983547E+02 -0.38543621962E+01 -0.40598144913E+01  0.16401877441E+02  0.51100000000E-03 0.  1.
        -12    1    3    3    0    0  0.14070979918E+02 -0.81913847086E+00 -0.16563668709E+02  0.21748990431E+02  0.00000000000E+00 0.  1.
</event>
<event>
 7    1  0.2685294E-009  0.4778727E+02  0.7816164E-02  0.1312668E+00
        -11   -1    0    0    0    0  0.00000000000E+00  0.00000000000E+00  0.45593999997E+02  0.45594000000E+02  0.51100000000E-03 0.  1.
         11   -1    0    0    0    0 -0.00000000000E+00 -0.00000000000E+00 -0.45593999997E+02  0.45594000000E+02  0.51100000000E-03 0. -1.
    9900012    2    1    2    0    0  0.26003154197E+02  0.18735843602E-01 -0.34748509913E+02  0.47787270508E+02  0.19999997555E+02 0.  0.
        -12    1    1    2    0    0 -0.26003154197E+02 -0.18735843602E-01  0.34748509913E+02  0.43400729492E+02  0.00000000000E+00 0.  1.
         11    1    3    3    0    0  0.15051354524E+02 -0.46533069130E+01 -0.24809293646E+02  0.29388732359E+02  0.51100000000E-03 0. -1.
        -11    1    3    3    0    0  0.75687161916E+00  0.43224106207E+01 -0.60665063119E+01  0.74872282799E+01  0.51100000000E-03 0.  1.
        -12    1    3    3    0    0  0.10194928054E+02  0.34963213589E+00 -0.38727099559E+01  0.10911309869E+02  0.00000000000E+00 0.  1.
</event>
<event>
 7    1  0.2685294E-009  0.4778727E+02  0.7816164E-02  0.1312668E+00
        -11   -1    0    0    0    0  0.00000000000E+00  0.00000000000E+00  0.45593999997E+02  0.45594000000E+02  0.51100000000E-03 0.  1.
         11   -1    0    0    0    0 -0.00000000000E+00 -0.00000000000E+00 -0.45593999997E+02  0.45594000000E+02  0.51100000000E-03 0. -1.
    9900012    2    1    2    0    0 -0.66382840157E+01 -0.42356774621E+02 -0.67424221725E+01  0.47787269272E+02  0.19999991917E+02 0.  0.
        -12    1    1    2    0    0  0.66382840157E+01  0.42356774621E+02  0.67424221725E+01  0.43400730728E+02  0.00000000000E+00 0.  1.
         11    1    3    3    0    0  0.65130282883E+01 -0.17208906265E+02 -0.13374102514E+01  0.18448703444E+02  0.51100000000E-03 0. -1.
        -11    1    3    3    0    0 -0.83844450672E+01 -0.16572373839E+02 -0.10447410252E+01  0.18601988545E+02  0.51100000000E-03 0.  1.
        -12    1    3    3    0    0 -0.47668672368E+01 -0.85754945174E+01 -0.43602708959E+01  0.10736577283E+02  0.00000000000E+00 0.  1.
</event>
<event>
 7    1  0.2685294E-009  0.4778724E+02  0.7816164E-02  0.1312668E+00
        -11   -1    0    0    0    0  0.00000000000E+00  0.00000000000E+00  0.45593999997E+02  0.45594000000E+02  0.51100000000E-03 0.  1.
         11   -1    0    0    0    0 -0.00000000000E+00 -0.00000000000E+00 -0.45593999997E+02  0.45594000000E+02  0.51100000000E-03 0. -1.
    9900012    2    1    2    0    0 -0.18286502817E+02 -0.35924788449E+02 -0.16082258089E+02  0.47787243836E+02  0.19999875945E+02 0.  0.
        -12    1    1    2    0    0  0.18286502817E+02  0.35924788449E+02  0.16082258089E+02  0.43400756164E+02  0.00000000000E+00 0.  1.
         11    1    3    3    0    0  0.78416578946E+00 -0.86336332881E+01 -0.41126446507E+01  0.95952272523E+01  0.51100000000E-03 0. -1.
        -11    1    3    3    0    0 -0.21378877782E+02 -0.23385610897E+02 -0.98203567992E+01  0.33172015618E+02  0.51100000000E-03 0.  1.
        -12    1    3    3    0    0  0.23082091755E+01 -0.39055442636E+01 -0.21492566387E+01  0.50200009653E+01  0.00000000000E+00 0.  1.
</event>
<event>
 7    1  0.2685294E-009  0.4778727E+02  0.7816164E-02  0.1312668E+00
        -11   -1    0    0    0    0  0.00000000000E+00  0.00000000000E+00  0.45593999997E+02  0.45594000000E+02  0.51100000000E-03 0.  1.
         11   -1    0    0    0    0 -0.00000000000E+00 -0.00000000000E+00 -0.45593999997E+02  0.45594000000E+02  0.51100000000E-03 0. -1.
    9900012    2    1    2    0    0 -0.39139610171E+02  0.68573860380E+01 -0.17455390714E+02  0.47787268524E+02  0.19999988510E+02 0.  0.
        -12    1    1    2    0    0  0.39139610171E+02 -0.68573860380E+01  0.17455390714E+02  0.43400731476E+02  0.00000000000E+00 0.  1.
         11    1    3    3    0    0 -0.38491869254E+02  0.80018622180E+01 -0.19920045637E+02  0.44073370827E+02  0.51100000000E-03 0. -1.
        -11    1    3    3    0    0  0.50773096919E+00 -0.29604646509E+00  0.21729211179E+01  0.22510043741E+01  0.51100000000E-03 0.  1.
         12    1    3    3    0    0 -0.11554718871E+01 -0.84842971486E+00  0.29173380547E+00  0.14628933236E+01  0.00000000000E+00 0. -1.
</event>
<event>
 7    1  0.2685294E-009  0.4778727E+02  0.7816164E-02  0.1312668E+00
        -11   -1    0    0    0    0  0.00000000000E+00  0.00000000000E+00  0.45593999997E+02  0.45594000000E+02  0.51100000000E-03 0.  1.
         11   -1    0    0    0    0 -0.00000000000E+00 -0.00000000000E+00 -0.45593999997E+02  0.45594000000E+02  0.51100000000E-03 0. -1.
    9900012    2    1    2    0    0  0.23196855363E+02  0.35128954968E+01 -0.36512858308E+02  0.47787270106E+02  0.19999995722E+02 0.  0.
        -12    1    1    2    0    0 -0.23196855363E+02 -0.35128954968E+01  0.36512858308E+02  0.43400729894E+02  0.00000000000E+00 0.  1.
         11    1    3    3    0    0  0.45801215005E+01 -0.10126409168E+01 -0.17366262608E+02  0.17988608390E+02  0.51100000000E-03 0. -1.
        -11    1    3    3    0    0  0.87546788407E+01 -0.25715230942E+01 -0.30285367088E+01  0.96140089185E+01  0.51100000000E-03 0.  1.
         12    1    3    3    0    0  0.98620550218E+01  0.70970595078E+01 -0.16118058991E+02  0.20184652797E+02  0.00000000000E+00 0. -1.
</event>
<event>
 7    1  0.2795522E-009  0.4778727E+02  0.7816164E-02  0.1312668E+00
        -11   -1    0    0    0    0  0.00000000000E+00  0.00000000000E+00  0.45593999997E+02  0.45594000000E+02  0.51100000000E-03 0. -1.
         11   -1    0    0    0    0 -0.00000000000E+00 -0.00000000000E+00 -0.45593999997E+02  0.45594000000E+02  0.51100000000E-03 0.  1.
    9900012    2    1    2    0    0 -0.35980902774E+02 -0.37716765842E+01  0.23974416426E+02  0.47787267844E+02  0.19999985409E+02 0.  0.
        -12    1    1    2    0    0  0.35980902774E+02  0.37716765842E+01 -0.23974416426E+02  0.43400732156E+02  0.00000000000E+00 0.  1.
         11    1    3    3    0    0 -0.16700455097E+02 -0.67464705300E+01  0.16848358057E+02  0.24663479773E+02  0.51100000000E-03 0. -1.
        -11    1    3    3    0    0 -0.16561288838E+02 -0.60503332647E-01  0.21630120636E+01  0.16702052870E+02  0.51100000000E-03 0.  1.
        -12    1    3    3    0    0 -0.27191588394E+01  0.30352972785E+01  0.49630463049E+01  0.64217352007E+01  0.00000000000E+00 0.  1.
</event>
<event>
 7    1  0.2685294E-009  0.4778727E+02  0.7816164E-02  0.1312668E+00
        -11   -1    0    0    0    0  0.00000000000E+00  0.00000000000E+00  0.45593999997E+02  0.45594000000E+02  0.51100000000E-03 0. -1.
         11   -1    0    0    0    0 -0.00000000000E+00 -0.00000000000E+00 -0.45593999997E+02  0.45594000000E+02  0.51100000000E-03 0.  1.
    9900012    2    1    2    0    0 -0.46873271972E+01 -0.11336001489E+02  0.41631083678E+02  0.47787273114E+02  0.20000009435E+02 0.  0.
        -12    1    1    2    0    0  0.46873271972E+01  0.11336001489E+02 -0.41631083678E+02  0.43400726886E+02  0.00000000000E+00 0.  1.
         11    1    3    3    0    0 -0.43287395844E+01  0.30861500528E+01  0.44157930558E+01  0.69109722261E+01  0.51100000000E-03 0. -1.
        -11    1    3    3    0    0  0.23338102803E+01 -0.83685261649E+01  0.12062006326E+02  0.14865089891E+02  0.51100000000E-03 0.  1.
         12    1    3    3    0    0 -0.26923978932E+01 -0.60536253773E+01  0.25153284296E+02  0.26011210996E+02  0.00000000000E+00 0. -1.
</event>
<event>
 7    1  0.2685294E-009  0.4778727E+02  0.7816164E-02  0.1312668E+00
        -11   -1    0    0    0    0  0.00000000000E+00  0.00000000000E+00  0.45593999997E+02  0.45594000000E+02  0.51100000000E-03 0.  1.
         11   -1    0    0    0    0 -0.00000000000E+00 -0.00000000000E+00 -0.45593999997E+02  0.45594000000E+02  0.51100000000E-03 0. -1.
    9900012    2    1    2    0    0 -0.34826432251E+02 -0.19148957615E+02 -0.17437334883E+02  0.47787267185E+02  0.19999982402E+02 0.  0.
        -12    1    1    2    0    0  0.34826432251E+02  0.19148957615E+02  0.17437334883E+02  0.43400732815E+02  0.00000000000E+00 0.  1.
         11    1    3    3    0    0 -0.25965713422E+02 -0.60185635833E+01 -0.15997735489E+02  0.31086474908E+02  0.51100000000E-03 0. -1.
        -11    1    3    3    0    0 -0.75350170267E+01 -0.68960971374E+01 -0.25225186707E+00  0.10217449221E+02  0.51100000000E-03 0.  1.
         12    1    3    3    0    0 -0.13257018024E+01 -0.62342968941E+01 -0.11873475264E+01  0.64833430560E+01  0.00000000000E+00 0. -1.
</event>
<event>
 7    1  0.2685294E-009  0.4778727E+02  0.7816164E-02  0.1312668E+00
        -11   -1    0    0    0    0  0.00000000000E+00  0.00000000000E+00  0.45593999997E+02  0.45594000000E+02  0.51100000000E-03 0.  1.
         11   -1    0    0    0    0 -0.00000000000E+00 -0.00000000000E+00 -0.45593999997E+02  0.45594000000E+02  0.51100000000E-03 0. -1.
    9900012    2    1    2    0    0 -0.37501612157E+01  0.95527001096E+01 -0.42169964696E+02  0.47787266008E+02  0.19999977038E+02 0.  0.
        -12    1    1    2    0    0  0.37501612157E+01 -0.95527001096E+01  0.42169964696E+02  0.43400733992E+02  0.00000000000E+00 0.  1.
         11    1    3    3    0    0 -0.79339401853E+01  0.76368303636E+00 -0.10732538598E+02  0.13368545308E+02  0.51100000000E-03 0. -1.
        -11    1    3    3    0    0  0.53589354190E+01  0.59851767736E+01 -0.10293929963E+02  0.13057776388E+02  0.51100000000E-03 0.  1.
         12    1    3    3    0    0 -0.11751564494E+01  0.28038402996E+01 -0.21143496135E+02  0.21360944312E+02  0.00000000000E+00 0. -1.
</event>
<event>
 7    1  0.2685294E-009  0.4778727E+02  0.7816164E-02  0.1312668E+00
        -11   -1    0    0    0    0  0.00000000000E+00  0.00000000000E+00  0.45593999997E+02  0.45594000000E+02  0.51100000000E-03 0.  1.
         11   -1    0    0    0    0 -0.00000000000E+00 -0.00000000000E+00 -0.45593999997E+02  0.45594000000E+02  0.51100000000E-03 0. -1.
    9900012    2    1    2    0    0 -0.90479920003E+01 -0.34584204243E+02 -0.24610778605E+02  0.47787265376E+02  0.19999974157E+02 0.  0.
        -12    1    1    2    0    0  0.90479920003E+01  0.34584204243E+02  0.24610778605E+02  0.43400734624E+02  0.00000000000E+00 0.  1.
         11    1    3    3    0    0 -0.38145879895E+01 -0.51789514755E+01 -0.10351662412E+02  0.12187269377E+02  0.51100000000E-03 0. -1.
        -11    1    3    3    0    0 -0.63441676672E+01 -0.24351644152E+02 -0.60259567143E+01  0.25875919131E+02  0.51100000000E-03 0.  1.
        -12    1    3    3    0    0  0.11107636564E+01 -0.50536086149E+01 -0.82331594789E+01  0.97240768682E+01  0.00000000000E+00 0.  1.
</event>
<event>
 7    1  0.2685294E-009  0.4778727E+02  0.7816164E-02  0.1312668E+00
        -11   -1    0    0    0    0  0.00000000000E+00  0.00000000000E+00  0.45593999997E+02  0.45594000000E+02  0.51100000000E-03 0. -1.
         11   -1    0    0    0    0 -0.00000000000E+00 -0.00000000000E+00 -0.45593999997E+02  0.45594000000E+02  0.51100000000E-03 0.  1.
    9900012    2    1    2    0    0  0.22007883434E+02 -0.32418233445E+02  0.18663723096E+02  0.47787270136E+02  0.19999995858E+02 0.  0.
        -12    1    1    2    0    0 -0.22007883434E+02  0.32418233445E+02 -0.18663723096E+02  0.43400729864E+02  0.00000000000E+00 0.  1.
         11    1    3    3    0    0  0.15820898781E+02 -0.24687954230E+02  0.16254476803E+02  0.33526167969E+02  0.51100000000E-03 0. -1.
        -11    1    3    3    0    0  0.46232135814E+01 -0.49439009134E+01 -0.34424766795E+01  0.75938729257E+01  0.51100000000E-03 0.  1.
         12    1    3    3    0    0  0.15637710713E+01 -0.27863783018E+01  0.58517229730E+01  0.66672292413E+01  0.00000000000E+00 0. -1.
</event>
<event>
 7    1  0.2685294E-009  0.4778727E+02  0.7816164E-02  0.1312668E+00
        -11   -1    0    0    0    0  0.00000000000E+00  0.00000000000E+00  0.45593999997E+02  0.45594000000E+02  0.51100000000E-03 0.  1.
         11   -1    0    0    0    0 -0.00000000000E+00 -0.00000000000E+00 -0.45593999997E+02  0.45594000000E+02  0.51100000000E-03 0. -1.
    9900012    2    1    2    0    0  0.19486729196E+02 -0.96554512786E+01 -0.37558795384E+02  0.47787268844E+02  0.19999989968E+02 0.  0.
        -12    1    1    2    0    0 -0.19486729196E+02  0.96554512786E+01  0.37558795384E+02  0.43400731156E+02  0.00000000000E+00 0.  1.
         11    1    3    3    0    0  0.48999488413E+01 -0.61054966577E+01 -0.62171354531E+01  0.99969676196E+01  0.51100000000E-03 0. -1.
        -11    1    3    3    0    0  0.13904516026E+02 -0.46481848539E+01 -0.13587195235E+02  0.19988823451E+02  0.51100000000E-03 0.  1.
        -12    1    3    3    0    0  0.68226432836E+00  0.10982302331E+01 -0.17754464696E+02  0.17801477773E+02  0.00000000000E+00 0.  1.
</event>
<event>
 7    1  0.2685294E-009  0.4778727E+02  0.7816164E-02  0.1312668E+00
        -11   -1    0    0    0    0  0.00000000000E+00  0.00000000000E+00  0.45593999997E+02  0.45594000000E+02  0.51100000000E-03 0. -1.
         11   -1    0    0    0    0 -0.00000000000E+00 -0.00000000000E+00 -0.45593999997E+02  0.45594000000E+02  0.51100000000E-03 0.  1.
    9900012    2    1    2    0    0  0.17878300027E+02 -0.15541227439E+02  0.36365640822E+02  0.47787271958E+02  0.20000004164E+02 0.  0.
        -12    1    1    2    0    0 -0.17878300027E+02  0.15541227439E+02 -0.36365640822E+02  0.43400728042E+02  0.00000000000E+00 0.  1.
         11    1    3    3    0    0  0.50560324664E+01 -0.26045486927E+01 -0.21574797581E+00  0.56915451016E+01  0.51100000000E-03 0.  1.
        -11    1    3    3    0    0  0.10143814485E+02 -0.14422951859E+02  0.29305641312E+02  0.34201449174E+02  0.51100000000E-03 0. -1.
         12    1    3    3    0    0  0.26784530759E+01  0.14862731118E+01  0.72757474859E+01  0.78942776821E+01  0.00000000000E+00 0. -1.
</event>
<event>
 7    1  0.2685294E-009  0.4778727E+02  0.7816164E-02  0.1312668E+00
        -11   -1    0    0    0    0  0.00000000000E+00  0.00000000000E+00  0.45593999997E+02  0.45594000000E+02  0.51100000000E-03 0.  1.
         11   -1    0    0    0    0 -0.00000000000E+00 -0.00000000000E+00 -0.45593999997E+02  0.45594000000E+02  0.51100000000E-03 0. -1.
    9900012    2    1    2    0    0 -0.43183753823E+02  0.21544385185E+01 -0.37609893552E+01  0.47787271429E+02  0.20000001755E+02 0.  0.
        -12    1    1    2    0    0  0.43183753823E+02 -0.21544385185E+01  0.37609893552E+01  0.43400728571E+02  0.00000000000E+00 0.  1.
         11    1    3    3    0    0 -0.43973322522E+02  0.99840496358E+00 -0.55110930256E+01  0.44328569261E+02  0.51100000000E-03 0. -1.
        -11    1    3    3    0    0  0.16177592612E+01  0.19434567612E+00  0.13838921981E+01  0.21377729407E+01  0.51100000000E-03 0.  1.
         12    1    3    3    0    0 -0.82819056171E+00  0.96168787880E+00  0.36621147227E+00  0.13209292279E+01  0.00000000000E+00 0. -1.
</event>
<event>
 7    1  0.2685294E-009  0.4778727E+02  0.7816164E-02  0.1312668E+00
        -11   -1    0    0    0    0  0.00000000000E+00  0.00000000000E+00  0.45593999997E+02  0.45594000000E+02  0.51100000000E-03 0. -1.
         11   -1    0    0    0    0 -0.00000000000E+00 -0.00000000000E+00 -0.45593999997E+02  0.45594000000E+02  0.51100000000E-03 0.  1.
    9900012    2    1    2    0    0 -0.41067328927E+02 -0.12912753670E+02 -0.55098549721E+01  0.47787271730E+02  0.20000003126E+02 0.  0.
        -12    1    1    2    0    0  0.41067328927E+02  0.12912753670E+02  0.55098549721E+01  0.43400728270E+02  0.00000000000E+00 0.  1.
         11    1    3    3    0    0 -0.16214044705E+02  0.14695068915E+01  0.26241645276E+01  0.16490631762E+02  0.51100000000E-03 0. -1.
        -11    1    3    3    0    0 -0.14288069348E+02 -0.13142241842E+02 -0.68288757765E+01  0.20579139705E+02  0.51100000000E-03 0.  1.
        -12    1    3    3    0    0 -0.10565214874E+02 -0.12400187190E+01 -0.13051437232E+01  0.10717500263E+02  0.00000000000E+00 0.  1.
</event>
<event>
 7    1  0.2685294E-009  0.4778727E+02  0.7816164E-02  0.1312668E+00
        -11   -1    0    0    0    0  0.00000000000E+00  0.00000000000E+00  0.45593999997E+02  0.45594000000E+02  0.51100000000E-03 0.  1.
         11   -1    0    0    0    0 -0.00000000000E+00 -0.00000000000E+00 -0.45593999997E+02  0.45594000000E+02  0.51100000000E-03 0. -1.
    9900012    2    1    2    0    0 -0.22383476034E+02 -0.20079468188E+02 -0.31295657964E+02  0.47787271326E+02  0.20000001282E+02 0.  0.
        -12    1    1    2    0    0  0.22383476034E+02  0.20079468188E+02  0.31295657964E+02  0.43400728674E+02  0.00000000000E+00 0.  1.
         11    1    3    3    0    0 -0.12344135864E+02 -0.77893698340E+01 -0.19178712125E+02  0.24101347922E+02  0.51100000000E-03 0. -1.
        -11    1    3    3    0    0 -0.15781425768E+01 -0.11070636639E+02 -0.39403158880E+01  0.11856458964E+02  0.51100000000E-03 0.  1.
        -12    1    3    3    0    0 -0.84611975932E+01 -0.12194617148E+01 -0.81766299505E+01  0.11829464440E+02  0.00000000000E+00 0.  1.
</event>
<event>
 7    1  0.2685294E-009  0.4778727E+02  0.7816164E-02  0.1312668E+00
        -11   -1    0    0    0    0  0.00000000000E+00  0.00000000000E+00  0.45593999997E+02  0.45594000000E+02  0.51100000000E-03 0. -1.
         11   -1    0    0    0    0 -0.00000000000E+00 -0.00000000000E+00 -0.45593999997E+02  0.45594000000E+02  0.51100000000E-03 0.  1.
    9900012    2    1    2    0    0  0.12070847917E+02 -0.34822328618E+02  0.22919934490E+02  0.47787270319E+02  0.19999996691E+02 0.  0.
        -12    1    1    2    0    0 -0.12070847917E+02  0.34822328618E+02 -0.22919934490E+02  0.43400729681E+02  0.00000000000E+00 0.  1.
         11    1    3    3    0    0  0.13252052678E+00 -0.10547887507E+02  0.25800982109E+01  0.10859668484E+02  0.51100000000E-03 0. -1.
        -11    1    3    3    0    0  0.10005424653E+02 -0.91701625360E+01  0.16226855471E+02  0.21154461519E+02  0.51100000000E-03 0.  1.
        -12    1    3    3    0    0  0.19329027372E+01 -0.15104278575E+02  0.41129808079E+01  0.15773140315E+02  0.00000000000E+00 0.  1.
</event>
<event>
 7    1  0.2685294E-009  0.4778726E+02  0.7816164E-02  0.1312668E+00
        -11   -1    0    0    0    0  0.00000000000E+00  0.00000000000E+00  0.45593999997E+02  0.45594000000E+02  0.51100000000E-03 0.  1.
         11   -1    0    0    0    0 -0.00000000000E+00 -0.00000000000E+00 -0.45593999997E+02  0.45594000000E+02  0.51100000000E-03 0. -1.
    9900012    2    1    2    0    0  0.97421946845E+01 -0.13881077678E+02 -0.39950341570E+02  0.47787257306E+02  0.19999937362E+02 0.  0.
        -12    1    1    2    0    0 -0.97421946845E+01  0.13881077678E+02  0.39950341570E+02  0.43400742694E+02  0.00000000000E+00 0.  1.
         11    1    3    3    0    0  0.24882966657E+01 -0.37222403457E+01 -0.38623358532E+01  0.59130645178E+01  0.51100000000E-03 0. -1.
        -11    1    3    3    0    0 -0.23537270352E+01  0.26127506814E+01 -0.16007566627E+01  0.38637959617E+01  0.51100000000E-03 0.  1.
        -12    1    3    3    0    0  0.96076250539E+01 -0.12771588014E+02 -0.34487249055E+02  0.38010396827E+02  0.00000000000E+00 0.  1.
</event>
<event>
 7    1  0.2685294E-009  0.4778727E+02  0.7816164E-02  0.1312668E+00
        -11   -1    0    0    0    0  0.00000000000E+00  0.00000000000E+00  0.45593999997E+02  0.45594000000E+02  0.51100000000E-03 0.  1.
         11   -1    0    0    0    0 -0.00000000000E+00 -0.00000000000E+00 -0.45593999997E+02  0.45594000000E+02  0.51100000000E-03 0. -1.
    9900012    2    1    2    0    0 -0.40402771209E+02 -0.15245075225E+02  0.43390109865E+01  0.47787271246E+02  0.20000000920E+02 0.  0.
        -12    1    1    2    0    0  0.40402771209E+02  0.15245075225E+02 -0.43390109865E+01  0.43400728754E+02  0.00000000000E+00 0.  1.
         11    1    3    3    0    0 -0.18098863726E+02 -0.16541385786E+02  0.63459742698E+01  0.25327015252E+02  0.51100000000E-03 0. -1.
        -11    1    3    3    0    0 -0.14821287526E+02  0.13892267802E+01 -0.12373952764E+01  0.14937592253E+02  0.51100000000E-03 0.  1.
         12    1    3    3    0    0 -0.74826199566E+01 -0.92916219623E-01 -0.76956800695E+00  0.75226637407E+01  0.00000000000E+00 0. -1.
</event>
<event>
 7    1  0.2685294E-009  0.4778728E+02  0.7816164E-02  0.1312668E+00
        -11   -1    0    0    0    0  0.00000000000E+00  0.00000000000E+00  0.45593999997E+02  0.45594000000E+02  0.51100000000E-03 0. -1.
         11   -1    0    0    0    0 -0.00000000000E+00 -0.00000000000E+00 -0.45593999997E+02  0.45594000000E+02  0.51100000000E-03 0.  1.
    9900012    2    1    2    0    0  0.34285837621E+02 -0.26255580711E+02 -0.43299355160E+01  0.47787279713E+02  0.20000039525E+02 0.  0.
        -12    1    1    2    0    0 -0.34285837621E+02  0.26255580711E+02  0.43299355160E+01  0.43400720287E+02  0.00000000000E+00 0.  1.
         11    1    3    3    0    0  0.33310408674E+02 -0.21710186144E+02  0.77553550226E+00  0.39768290936E+02  0.51100000000E-03 0. -1.
        -11    1    3    3    0    0  0.16149665255E+01 -0.18145889022E+01 -0.45528685051E+01  0.51603741772E+01  0.51100000000E-03 0.  1.
         12    1    3    3    0    0 -0.63953757865E+00 -0.27308056647E+01 -0.55260251317E+00  0.28586145998E+01  0.00000000000E+00 0. -1.
</event>
<event>
 7    1  0.2685294E-009  0.4778727E+02  0.7816164E-02  0.1312668E+00
        -11   -1    0    0    0    0  0.00000000000E+00  0.00000000000E+00  0.45593999997E+02  0.45594000000E+02  0.51100000000E-03 0.  1.
         11   -1    0    0    0    0 -0.00000000000E+00 -0.00000000000E+00 -0.45593999997E+02  0.45594000000E+02  0.51100000000E-03 0. -1.
    9900012    2    1    2    0    0 -0.42394724177E+02  0.71050923272E+01 -0.59856665252E+01  0.47787272140E+02  0.20000004997E+02 0.  0.
        -12    1    1    2    0    0  0.42394724177E+02 -0.71050923272E+01  0.59856665252E+01  0.43400727860E+02  0.00000000000E+00 0.  1.
         11    1    3    3    0    0 -0.21335593908E+02  0.45857467607E+01  0.53031297079E+01  0.22457956846E+02  0.51100000000E-03 0. -1.
        -11    1    3    3    0    0 -0.19274049595E+02  0.45843105485E+01 -0.89699944366E+01  0.21747774402E+02  0.51100000000E-03 0.  1.
        -12    1    3    3    0    0 -0.17850806743E+01 -0.20649649820E+01 -0.23188017965E+01  0.35815408921E+01  0.00000000000E+00 0.  1.
</event>
<event>
 7    1  0.2685294E-009  0.4778725E+02  0.7816164E-02  0.1312668E+00
        -11   -1    0    0    0    0  0.00000000000E+00  0.00000000000E+00  0.45593999997E+02  0.45594000000E+02  0.51100000000E-03 0. -1.
         11   -1    0    0    0    0 -0.00000000000E+00 -0.00000000000E+00 -0.45593999997E+02  0.45594000000E+02  0.51100000000E-03 0.  1.
    9900012    2    1    2    0    0  0.74797857719E+01  0.38938239482E+02 -0.17649120267E+02  0.47787249599E+02  0.19999902223E+02 0.  0.
        -12    1    1    2    0    0 -0.74797857719E+01 -0.38938239482E+02  0.17649120267E+02  0.43400750401E+02  0.00000000000E+00 0.  1.
         11    1    3    3    0    0  0.11375784053E+02  0.14098100118E+02 -0.36854604970E+01  0.18486414176E+02  0.51100000000E-03 0. -1.
        -11    1    3    3    0    0 -0.51736718019E+01  0.21742425055E+02 -0.12789748190E+02  0.25750292935E+02  0.51100000000E-03 0.  1.
        -12    1    3    3    0    0  0.12776735205E+01  0.30977143090E+01 -0.11739115795E+01  0.35505424884E+01  0.00000000000E+00 0.  1.
</event>
<event>
 7    1  0.2685294E-009  0.4778727E+02  0.7816164E-02  0.1312668E+00
        -11   -1    0    0    0    0  0.00000000000E+00  0.00000000000E+00  0.45593999997E+02  0.45594000000E+02  0.51100000000E-03 0. -1.
         11   -1    0    0    0    0 -0.00000000000E+00 -0.00000000000E+00 -0.45593999997E+02  0.45594000000E+02  0.51100000000E-03 0.  1.
    9900012    2    1    2    0    0 -0.11583010587E+02  0.32774477359E+02  0.25986361225E+02  0.47787268783E+02  0.19999989690E+02 0.  0.
        -12    1    1    2    0    0  0.11583010587E+02 -0.32774477359E+02 -0.25986361225E+02  0.43400731217E+02  0.00000000000E+00 0.  1.
         11    1    3    3    0    0 -0.67686455237E+01  0.13116741146E+01  0.40769308730E+01  0.80097700848E+01  0.51100000000E-03 0. -1.
        -11    1    3    3    0    0  0.11030844194E+00 -0.32646000599E+00  0.18177631835E+01  0.18501371139E+01  0.51100000000E-03 0.  1.
         12    1    3    3    0    0 -0.49246735056E+01  0.31789263251E+02  0.20091667168E+02  0.37927361585E+02  0.00000000000E+00 0. -1.
</event>
<event>
 7    1  0.2685294E-009  0.4778727E+02  0.7816164E-02  0.1312668E+00
        -11   -1    0    0    0    0  0.00000000000E+00  0.00000000000E+00  0.45593999997E+02  0.45594000000E+02  0.51100000000E-03 0. -1.
         11   -1    0    0    0    0 -0.00000000000E+00 -0.00000000000E+00 -0.45593999997E+02  0.45594000000E+02  0.51100000000E-03 0.  1.
    9900012    2    1    2    0    0  0.80692202770E+01 -0.31548627883E+02 -0.28691374619E+02  0.47787271726E+02  0.20000003109E+02 0.  0.
        -12    1    1    2    0    0 -0.80692202770E+01  0.31548627883E+02  0.28691374619E+02  0.43400728274E+02  0.00000000000E+00 0.  1.
         11    1    3    3    0    0  0.66695417025E+01 -0.30357806528E+02 -0.29922029985E+02  0.43144027192E+02  0.51100000000E-03 0. -1.
        -11    1    3    3    0    0  0.56116862136E+00 -0.19889435109E+00  0.26518928427E+01  0.27179045412E+01  0.51100000000E-03 0.  1.
        -12    1    3    3    0    0  0.83850995309E+00 -0.99192700347E+00 -0.14212374771E+01  0.19253399928E+01  0.00000000000E+00 0.  1.
</event>
<event>
 7    1  0.2685294E-009  0.4778728E+02  0.7816164E-02  0.1312668E+00
        -11   -1    0    0    0    0  0.00000000000E+00  0.00000000000E+00  0.45593999997E+02  0.45594000000E+02  0.51100000000E-03 0.  1.
         11   -1    0    0    0    0 -0.00000000000E+00 -0.00000000000E+00 -0.45593999997E+02  0.45594000000E+02  0.51100000000E-03 0. -1.
    9900012    2    1    2    0    0  0.25161359158E+02  0.54582736782E+01 -0.34939027315E+02  0.47787281389E+02  0.20000047164E+02 0.  0.
        -12    1    1    2    0    0 -0.25161359158E+02 -0.54582736782E+01  0.34939027315E+02  0.43400718611E+02  0.00000000000E+00 0.  1.
         11    1    3    3    0    0  0.19745150829E+01  0.45710349013E+01 -0.19337274188E-01  0.49793015648E+01  0.51100000000E-03 0.  1.
        -11    1    3    3    0    0  0.14894454496E+02  0.46487818362E+01 -0.20682114859E+02  0.25907640236E+02  0.51100000000E-03 0. -1.
         12    1    3    3    0    0  0.82923895793E+01 -0.37615430593E+01 -0.14237575182E+02  0.16900339588E+02  0.00000000000E+00 0. -1.
</event>
<event>
 7    1  0.2685294E-009  0.4778727E+02  0.7816164E-02  0.1312668E+00
        -11   -1    0    0    0    0  0.00000000000E+00  0.00000000000E+00  0.45593999997E+02  0.45594000000E+02  0.51100000000E-03 0. -1.
         11   -1    0    0    0    0 -0.00000000000E+00 -0.00000000000E+00 -0.45593999997E+02  0.45594000000E+02  0.51100000000E-03 0.  1.
    9900012    2    1    2    0    0  0.35535172727E+02  0.60744570222E+00  0.24909952616E+02  0.47787271546E+02  0.20000002285E+02 0.  0.
        -12    1    1    2    0    0 -0.35535172727E+02 -0.60744570222E+00 -0.24909952616E+02  0.43400728454E+02  0.00000000000E+00 0.  1.
         11    1    3    3    0    0  0.82104482318E+01 -0.22733765367E+01  0.72508960559E+01  0.11187278262E+02  0.51100000000E-03 0. -1.
        -11    1    3    3    0    0  0.28047791118E+02  0.39251725720E+01  0.19484336456E+02  0.34376226286E+02  0.51100000000E-03 0.  1.
        -12    1    3    3    0    0 -0.72306662242E+00 -0.10443503331E+01 -0.18252798958E+01  0.22237669969E+01  0.00000000000E+00 0.  1.
</event>
<event>
 7    1  0.2685294E-009  0.4778728E+02  0.7816164E-02  0.1312668E+00
        -11   -1    0    0    0    0  0.00000000000E+00  0.00000000000E+00  0.45593999997E+02  0.45594000000E+02  0.51100000000E-03 0. -1.
         11   -1    0    0    0    0 -0.00000000000E+00 -0.00000000000E+00 -0.45593999997E+02  0.45594000000E+02  0.51100000000E-03 0.  1.
    9900012    2    1    2    0    0 -0.27955563786E+02  0.31536241362E+02  0.10371828669E+02  0.47787275400E+02  0.20000019860E+02 0.  0.
        -12    1    1    2    0    0  0.27955563786E+02 -0.31536241362E+02 -0.10371828669E+02  0.43400724600E+02  0.00000000000E+00 0.  1.
         11    1    3    3    0    0 -0.34836017150E+01  0.63383532251E+01  0.35388853522E+01  0.80519508389E+01  0.51100000000E-03 0. -1.
        -11    1    3    3    0    0  0.22043881580E+01  0.24546285707E+01  0.30207889330E+01  0.44732197140E+01  0.51100000000E-03 0.  1.
        -12    1    3    3    0    0 -0.26676350228E+02  0.22743259567E+02  0.38121543841E+01  0.35262104847E+02  0.00000000000E+00 0.  1.
</event>
<event>
 7    1  0.2685294E-009  0.4778726E+02  0.7816164E-02  0.1312668E+00
        -11   -1    0    0    0    0  0.00000000000E+00  0.00000000000E+00  0.45593999997E+02  0.45594000000E+02  0.51100000000E-03 0.  1.
         11   -1    0    0    0    0 -0.00000000000E+00 -0.00000000000E+00 -0.45593999997E+02  0.45594000000E+02  0.51100000000E-03 0. -1.
    9900012    2    1    2    0    0 -0.24543398888E+02 -0.10075926157E+02 -0.34347077152E+02  0.47787257773E+02  0.19999939492E+02 0.  0.
        -12    1    1    2    0    0  0.24543398888E+02  0.10075926157E+02  0.34347077152E+02  0.43400742227E+02  0.00000000000E+00 0.  1.
         11    1    3    3    0    0 -0.61233109455E+01  0.11693982470E+01 -0.12976957650E+02  0.14396661395E+02  0.51100000000E-03 0. -1.
        -11    1    3    3    0    0 -0.98606111101E+01 -0.13432606408E+02 -0.12160676743E+02  0.20628829959E+02  0.51100000000E-03 0.  1.
        -12    1    3    3    0    0 -0.85594768324E+01  0.21872820040E+01 -0.92094427596E+01  0.12761766420E+02  0.00000000000E+00 0.  1.
</event>
<event>
 7    1  0.2685294E-009  0.4778727E+02  0.7816164E-02  0.1312668E+00
        -11   -1    0    0    0    0  0.00000000000E+00  0.00000000000E+00  0.45593999997E+02  0.45594000000E+02  0.51100000000E-03 0.  1.
         11   -1    0    0    0    0 -0.00000000000E+00 -0.00000000000E+00 -0.45593999997E+02  0.45594000000E+02  0.51100000000E-03 0. -1.
    9900012    2    1    2    0    0 -0.16863428597E+02 -0.27268537608E+02 -0.29251923311E+02  0.47787269767E+02  0.19999994177E+02 0.  0.
        -12    1    1    2    0    0  0.16863428597E+02  0.27268537608E+02  0.29251923311E+02  0.43400730233E+02  0.00000000000E+00 0.  1.
         11    1    3    3    0    0 -0.13094909737E+02 -0.17461762517E+02 -0.10088552487E+02  0.24045138860E+02  0.51100000000E-03 0. -1.
        -11    1    3    3    0    0 -0.19600469048E+01 -0.10778630174E+02 -0.11815972638E+02  0.16113282159E+02  0.51100000000E-03 0.  1.
         12    1    3    3    0    0 -0.18084719551E+01  0.97185508342E+00 -0.73473981862E+01  0.76288487482E+01  0.00000000000E+00 0. -1.
</event>
<event>
 7    1  0.2685294E-009  0.4778725E+02  0.7816164E-02  0.1312668E+00
        -11   -1    0    0    0    0  0.00000000000E+00  0.00000000000E+00  0.45593999997E+02  0.45594000000E+02  0.51100000000E-03 0.  1.
         11   -1    0    0    0    0 -0.00000000000E+00 -0.00000000000E+00 -0.45593999997E+02  0.45594000000E+02  0.51100000000E-03 0. -1.
    9900012    2    1    2    0    0  0.32284052841E+02  0.14703001068E+01 -0.28968997512E+02  0.47787254994E+02  0.19999926820E+02 0.  0.
        -12    1    1    2    0    0 -0.32284052841E+02 -0.14703001068E+01  0.28968997512E+02  0.43400745006E+02  0.00000000000E+00 0.  1.
         11    1    3    3    0    0  0.15672264868E+02  0.12604648813E+01 -0.18457389807E+02  0.24246317175E+02  0.51100000000E-03 0. -1.
        -11    1    3    3    0    0  0.31571885416E+01 -0.41534613501E+01  0.99016555074E+00  0.53103209651E+01  0.51100000000E-03 0.  1.
        -12    1    3    3    0    0  0.13454599431E+02  0.43632965755E+01 -0.11501773256E+02  0.18230616854E+02  0.00000000000E+00 0.  1.
</event>
<event>
 7    1  0.2685294E-009  0.4778727E+02  0.7816164E-02  0.1312668E+00
        -11   -1    0    0    0    0  0.00000000000E+00  0.00000000000E+00  0.45593999997E+02  0.45594000000E+02  0.51100000000E-03 0.  1.
         11   -1    0    0    0    0 -0.00000000000E+00 -0.00000000000E+00 -0.45593999997E+02  0.45594000000E+02  0.51100000000E-03 0. -1.
    9900012    2    1    2    0    0  0.68878952003E+01  0.31001425715E+02 -0.29581948838E+02  0.47787271968E+02  0.20000004210E+02 0.  0.
        -12    1    1    2    0    0 -0.68878952003E+01 -0.31001425715E+02  0.29581948838E+02  0.43400728032E+02  0.00000000000E+00 0.  1.
         11    1    3    3    0    0  0.61788392266E+01  0.52571751528E+01 -0.15270502183E+02  0.17291737390E+02  0.51100000000E-03 0. -1.
        -11    1    3    3    0    0 -0.28957555981E+01  0.10323940728E+02 -0.82899114037E+01  0.13553294211E+02  0.51100000000E-03 0.  1.
         12    1    3    3    0    0  0.36048115718E+01  0.15420309835E+02 -0.60215352519E+01  0.16942240367E+02  0.00000000000E+00 0. -1.
</event>
<event>
 7    1  0.2685294E-009  0.4778727E+02  0.7816164E-02  0.1312668E+00
        -11   -1    0    0    0    0  0.00000000000E+00  0.00000000000E+00  0.45593999997E+02  0.45594000000E+02  0.51100000000E-03 0.  1.
         11   -1    0    0    0    0 -0.00000000000E+00 -0.00000000000E+00 -0.45593999997E+02  0.45594000000E+02  0.51100000000E-03 0. -1.
    9900012    2    1    2    0    0  0.62414736798E+01  0.77014626482E+01 -0.42253459357E+02  0.47787270187E+02  0.19999996093E+02 0.  0.
        -12    1    1    2    0    0 -0.62414736798E+01 -0.77014626482E+01  0.42253459357E+02  0.43400729813E+02  0.00000000000E+00 0.  1.
         11    1    3    3    0    0 -0.43580148526E+00  0.79336218553E+01 -0.26334857420E+02  0.27507398901E+02  0.51100000000E-03 0. -1.
        -11    1    3    3    0    0  0.55895824852E+01 -0.37487190106E+01 -0.15066808531E+02  0.16501667981E+02  0.51100000000E-03 0.  1.
        -12    1    3    3    0    0  0.10876926799E+01  0.35165598034E+01 -0.85179340632E+00  0.37782033063E+01  0.00000000000E+00 0.  1.
</event>
<event>
 7    1  0.2685294E-009  0.4778727E+02  0.7816164E-02  0.1312668E+00
        -11   -1    0    0    0    0  0.00000000000E+00  0.00000000000E+00  0.45593999997E+02  0.45594000000E+02  0.51100000000E-03 0. -1.
         11   -1    0    0    0    0 -0.00000000000E+00 -0.00000000000E+00 -0.45593999997E+02  0.45594000000E+02  0.51100000000E-03 0.  1.
    9900012    2    1    2    0    0  0.39790722114E+02 -0.30501400276E+01  0.17059260174E+02  0.47787270994E+02  0.19999999770E+02 0.  0.
        -12    1    1    2    0    0 -0.39790722114E+02  0.30501400276E+01 -0.17059260174E+02  0.43400729006E+02  0.00000000000E+00 0.  1.
         11    1    3    3    0    0  0.14963006590E+02  0.25323410850E+01  0.39682138864E-01  0.15175832514E+02  0.51100000000E-03 0. -1.
        -11    1    3    3    0    0  0.26596302773E+01  0.25450807572E+01  0.32706829907E+00  0.36956789912E+01  0.51100000000E-03 0.  1.
         12    1    3    3    0    0  0.22168085247E+02 -0.81275618698E+01  0.16692509737E+02  0.28915759488E+02  0.00000000000E+00 0. -1.
</event>
<event>
 7    1 -0.2685294E-009  0.4778727E+02  0.7816164E-02  0.1312668E+00
        -11   -1    0    0    0    0  0.00000000000E+00  0.00000000000E+00  0.45593999997E+02  0.45594000000E+02  0.51100000000E-03 0. -1.
         11   -1    0    0    0    0 -0.00000000000E+00 -0.00000000000E+00 -0.45593999997E+02  0.45594000000E+02  0.51100000000E-03 0.  1.
    9900012    2    1    2    0    0 -0.13965855714E+02  0.20644084334E+02  0.35530263823E+02  0.47787274302E+02  0.20000014852E+02 0.  0.
        -12    1    1    2    0    0  0.13965855714E+02 -0.20644084334E+02 -0.35530263823E+02  0.43400725698E+02  0.00000000000E+00 0.  1.
         11    1    3    3    0    0 -0.92868483789E+01  0.10425921768E+02  0.28461230654E+02  0.31701530690E+02  0.51100000000E-03 0. -1.
        -11    1    3    3    0    0 -0.31810556747E+01 -0.82980430999E+00  0.18955423086E+01  0.37948348190E+01  0.51100000000E-03 0.  1.
         12    1    3    3    0    0 -0.14979516601E+01  0.11047966876E+02  0.51734908606E+01  0.12290908792E+02  0.00000000000E+00 0. -1.
</event>
<event>
 7    1  0.2685294E-009  0.4778727E+02  0.7816164E-02  0.1312668E+00
        -11   -1    0    0    0    0  0.00000000000E+00  0.00000000000E+00  0.45593999997E+02  0.45594000000E+02  0.51100000000E-03 0.  1.
         11   -1    0    0    0    0 -0.00000000000E+00 -0.00000000000E+00 -0.45593999997E+02  0.45594000000E+02  0.51100000000E-03 0. -1.
    9900012    2    1    2    0    0 -0.19616477214E+02  0.26575686697E+02 -0.28152259071E+02  0.47787274286E+02  0.20000014778E+02 0.  0.
        -12    1    1    2    0    0  0.19616477214E+02 -0.26575686697E+02  0.28152259071E+02  0.43400725714E+02  0.00000000000E+00 0.  1.
         11    1    3    3    0    0 -0.10404257735E+02  0.12508298522E+02 -0.25549558790E+02  0.30290032446E+02  0.51100000000E-03 0. -1.
        -11    1    3    3    0    0 -0.80469429369E+01  0.11135700326E+02 -0.58284725778E+00  0.13751248073E+02  0.51100000000E-03 0.  1.
        -12    1    3    3    0    0 -0.11652765426E+01  0.29316878491E+01 -0.20198530232E+01  0.37459937668E+01  0.00000000000E+00 0.  1.
</event>
<event>
 7    1  0.2685294E-009  0.4778727E+02  0.7816164E-02  0.1312668E+00
        -11   -1    0    0    0    0  0.00000000000E+00  0.00000000000E+00  0.45593999997E+02  0.45594000000E+02  0.51100000000E-03 0. -1.
         11   -1    0    0    0    0 -0.00000000000E+00 -0.00000000000E+00 -0.45593999997E+02  0.45594000000E+02  0.51100000000E-03 0.  1.
    9900012    2    1    2    0    0 -0.13284243935E+02  0.27739605479E+02  0.30621339190E+02  0.47787271171E+02  0.20000000578E+02 0.  0.
        -12    1    1    2    0    0  0.13284243935E+02 -0.27739605479E+02 -0.30621339190E+02  0.43400728829E+02  0.00000000000E+00 0.  1.
         11    1    3    3    0    0 -0.94088505961E+01  0.29631153703E+02  0.22720563272E+02  0.38506567426E+02  0.51100000000E-03 0. -1.
        -11    1    3    3    0    0 -0.23597064510E+01 -0.17306682645E+01  0.67928802048E+01  0.73963943185E+01  0.51100000000E-03 0.  1.
         12    1    3    3    0    0 -0.15156868877E+01 -0.16087995871E+00  0.11078957130E+01  0.18843094261E+01  0.00000000000E+00 0. -1.
</event>
<event>
 7    1  0.2685294E-009  0.4778727E+02  0.7816164E-02  0.1312668E+00
        -11   -1    0    0    0    0  0.00000000000E+00  0.00000000000E+00  0.45593999997E+02  0.45594000000E+02  0.51100000000E-03 0.  1.
         11   -1    0    0    0    0 -0.00000000000E+00 -0.00000000000E+00 -0.45593999997E+02  0.45594000000E+02  0.51100000000E-03 0. -1.
    9900012    2    1    2    0    0 -0.22429512213E+02 -0.37093076943E+02 -0.21549727551E+01  0.47787270941E+02  0.19999999530E+02 0.  0.
        -12    1    1    2    0    0  0.22429512213E+02  0.37093076943E+02  0.21549727551E+01  0.43400729059E+02  0.00000000000E+00 0.  1.
         11    1    3    3    0    0 -0.16774721702E+01 -0.77636649982E+01 -0.80265671515E+01  0.11292218010E+02  0.51100000000E-03 0. -1.
        -11    1    3    3    0    0 -0.91563420814E+01 -0.11280249359E+02  0.31933910667E+01  0.14875495712E+02  0.51100000000E-03 0.  1.
         12    1    3    3    0    0 -0.11595697962E+02 -0.18049162587E+02  0.26782033297E+01  0.21619557219E+02  0.00000000000E+00 0. -1.
</event>
<event>
 7    1  0.2685294E-009  0.4778727E+02  0.7816164E-02  0.1312668E+00
        -11   -1    0    0    0    0  0.00000000000E+00  0.00000000000E+00  0.45593999997E+02  0.45594000000E+02  0.51100000000E-03 0. -1.
         11   -1    0    0    0    0 -0.00000000000E+00 -0.00000000000E+00 -0.45593999997E+02  0.45594000000E+02  0.51100000000E-03 0.  1.
    9900012    2    1    2    0    0  0.15726898607E+02  0.17497728584E+02  0.36470773748E+02  0.47787272089E+02  0.20000004764E+02 0.  0.
        -12    1    1    2    0    0 -0.15726898607E+02 -0.17497728584E+02 -0.36470773748E+02  0.43400727911E+02  0.00000000000E+00 0.  1.
         11    1    3    3    0    0  0.49286530666E+01  0.15105016681E+02  0.15731354677E+02  0.22359084736E+02  0.51100000000E-03 0. -1.
        -11    1    3    3    0    0  0.81758889094E+01 -0.59974473387E+00  0.19667201760E+02  0.21307362074E+02  0.51100000000E-03 0.  1.
        -12    1    3    3    0    0  0.26223566309E+01  0.29924566372E+01  0.10722173106E+01  0.41208252797E+01  0.00000000000E+00 0.  1.
</event>
<event>
 7    1  0.2685294E-009  0.4778727E+02  0.7816164E-02  0.1312668E+00
        -11   -1    0    0    0    0  0.00000000000E+00  0.00000000000E+00  0.45593999997E+02  0.45594000000E+02  0.51100000000E-03 0.  1.
         11   -1    0    0    0    0 -0.00000000000E+00 -0.00000000000E+00 -0.45593999997E+02  0.45594000000E+02  0.51100000000E-03 0. -1.
    9900012    2    1    2    0    0  0.40108598078E+02  0.11856130292E+02 -0.11591200320E+02  0.47787269705E+02  0.19999993894E+02 0.  0.
        -12    1    1    2    0    0 -0.40108598078E+02 -0.11856130292E+02  0.11591200320E+02  0.43400730295E+02  0.00000000000E+00 0.  1.
         11    1    3    3    0    0  0.20445654521E+02  0.12609531762E+02 -0.16398856389E+01  0.24077257012E+02  0.51100000000E-03 0. -1.
        -11    1    3    3    0    0  0.62575878301E+00 -0.22680137578E+01 -0.51463102657E+00  0.24083824062E+01  0.51100000000E-03 0.  1.
         12    1    3    3    0    0  0.19037184773E+02  0.15146122876E+01 -0.94366836546E+01  0.21301630287E+02  0.00000000000E+00 0. -1.
</event>
<event>
 7    1  0.2685294E-009  0.4778727E+02  0.7816164E-02  0.1312668E+00
        -11   -1    0    0    0    0  0.00000000000E+00  0.00000000000E+00  0.45593999997E+02  0.45594000000E+02  0.51100000000E-03 0.  1.
         11   -1    0    0    0    0 -0.00000000000E+00 -0.00000000000E+00 -0.45593999997E+02  0.45594000000E+02  0.51100000000E-03 0. -1.
    9900012    2    1    2    0    0  0.42811730238E+02 -0.16261125209E+01 -0.69379291548E+01  0.47787270180E+02  0.19999996059E+02 0.  0.
        -12    1    1    2    0    0 -0.42811730238E+02  0.16261125209E+01  0.69379291548E+01  0.43400729820E+02  0.00000000000E+00 0.  1.
         11    1    3    3    0    0  0.18175625923E+02  0.25321249704E+01 -0.32378499511E+01  0.18634610464E+02  0.51100000000E-03 0. -1.
        -11    1    3    3    0    0  0.77003760787E+01 -0.84305022604E+01 -0.21409951100E+01  0.11616928184E+02  0.51100000000E-03 0.  1.
        -12    1    3    3    0    0  0.16935728236E+02  0.42722647690E+01 -0.15590840936E+01  0.17535731532E+02  0.00000000000E+00 0.  1.
</event>
<event>
 7    1  0.2685294E-009  0.4778727E+02  0.7816164E-02  0.1312668E+00
        -11   -1    0    0    0    0  0.00000000000E+00  0.00000000000E+00  0.45593999997E+02  0.45594000000E+02  0.51100000000E-03 0.  1.
         11   -1    0    0    0    0 -0.00000000000E+00 -0.00000000000E+00 -0.45593999997E+02  0.45594000000E+02  0.51100000000E-03 0. -1.
    9900012    2    1    2    0    0  0.11026357201E+02 -0.25341388311E+02 -0.33464262289E+02  0.47787269992E+02  0.19999995204E+02 0.  0.
        -12    1    1    2    0    0 -0.11026357201E+02  0.25341388311E+02  0.33464262289E+02  0.43400730008E+02  0.00000000000E+00 0.  1.
         11    1    3    3    0    0  0.40958667808E+01 -0.57827493754E+01 -0.10454733839E+02  0.12630034637E+02  0.51100000000E-03 0. -1.
        -11    1    3    3    0    0  0.69322538900E+01 -0.22278919949E+02 -0.18044886062E+02  0.29496174860E+02  0.51100000000E-03 0.  1.
        -12    1    3    3    0    0 -0.17634699629E-02  0.27202810133E+01 -0.49646423878E+01  0.56610604960E+01  0.00000000000E+00 0.  1.
</event>
<event>
 7    1  0.2685294E-009  0.4778727E+02  0.7816164E-02  0.1312668E+00
        -11   -1    0    0    0    0  0.00000000000E+00  0.00000000000E+00  0.45593999997E+02  0.45594000000E+02  0.51100000000E-03 0.  1.
         11   -1    0    0    0    0 -0.00000000000E+00 -0.00000000000E+00 -0.45593999997E+02  0.45594000000E+02  0.51100000000E-03 0. -1.
    9900012    2    1    2    0    0  0.19666611987E+01 -0.83912508599E+01 -0.42536365020E+02  0.47787271937E+02  0.20000004070E+02 0.  0.
        -12    1    1    2    0    0 -0.19666611987E+01  0.83912508599E+01  0.42536365020E+02  0.43400728063E+02  0.00000000000E+00 0.  1.
         11    1    3    3    0    0  0.42551951125E+01 -0.39138136644E+01 -0.38510449737E+02  0.38941999975E+02  0.51100000000E-03 0. -1.
        -11    1    3    3    0    0 -0.31837920933E+01 -0.47851392137E+01 -0.49030377705E+01  0.75547249472E+01  0.51100000000E-03 0.  1.
         12    1    3    3    0    0  0.89525817948E+00  0.30770201822E+00  0.87712248721E+00  0.12905470148E+01  0.00000000000E+00 0. -1.
</event>
<event>
 7    1  0.2685294E-009  0.4778727E+02  0.7816164E-02  0.1312668E+00
        -11   -1    0    0    0    0  0.00000000000E+00  0.00000000000E+00  0.45593999997E+02  0.45594000000E+02  0.51100000000E-03 0. -1.
         11   -1    0    0    0    0 -0.00000000000E+00 -0.00000000000E+00 -0.45593999997E+02  0.45594000000E+02  0.51100000000E-03 0.  1.
    9900012    2    1    2    0    0  0.12468422263E+02  0.22418124755E+02  0.35008417983E+02  0.47787271884E+02  0.20000003829E+02 0.  0.
        -12    1    1    2    0    0 -0.12468422263E+02 -0.22418124755E+02 -0.35008417983E+02  0.43400728116E+02  0.00000000000E+00 0.  1.
         11    1    3    3    0    0  0.80200247596E+00  0.90647215824E+01  0.17583721966E+02  0.19798981382E+02  0.51100000000E-03 0. -1.
        -11    1    3    3    0    0  0.11262318867E+02  0.36358192146E+01  0.70862197177E+01  0.13793966716E+02  0.51100000000E-03 0.  1.
        -12    1    3    3    0    0  0.40410092063E+00  0.97175839584E+01  0.10338476299E+02  0.14194323786E+02  0.00000000000E+00 0.  1.
</event>
<event>
 7    1  0.2685294E-009  0.4778729E+02  0.7816164E-02  0.1312668E+00
        -11   -1    0    0    0    0  0.00000000000E+00  0.00000000000E+00  0.45593999997E+02  0.45594000000E+02  0.51100000000E-03 0.  1.
         11   -1    0    0    0    0 -0.00000000000E+00 -0.00000000000E+00 -0.45593999997E+02  0.45594000000E+02  0.51100000000E-03 0. -1.
    9900012    2    1    2    0    0  0.85677220824E+01  0.18181998332E+02 -0.38465965035E+02  0.47787292735E+02  0.20000098896E+02 0.  0.
        -12    1    1    2    0    0 -0.85677220824E+01 -0.18181998332E+02  0.38465965035E+02  0.43400707265E+02  0.00000000000E+00 0.  1.
         11    1    3    3    0    0  0.50375424718E+01  0.38497788237E+01 -0.37267759924E+01  0.73543518209E+01  0.51100000000E-03 0. -1.
        -11    1    3    3    0    0 -0.26745382339E+01  0.12966738824E+02 -0.28966515391E+02  0.31848838042E+02  0.51100000000E-03 0.  1.
        -12    1    3    3    0    0  0.62047178445E+01  0.13654806850E+01 -0.57726736518E+01  0.85841028722E+01  0.00000000000E+00 0.  1.
</event>
<event>
 7    1  0.2685294E-009  0.4778727E+02  0.7816164E-02  0.1312668E+00
        -11   -1    0    0    0    0  0.00000000000E+00  0.00000000000E+00  0.45593999997E+02  0.45594000000E+02  0.51100000000E-03 0.  1.
         11   -1    0    0    0    0 -0.00000000000E+00 -0.00000000000E+00 -0.45593999997E+02  0.45594000000E+02  0.51100000000E-03 0. -1.
    9900012    2    1    2    0    0  0.10591630635E+01 -0.70798686313E+01 -0.42806276186E+02  0.47787266745E+02  0.19999980395E+02 0.  0.
        -12    1    1    2    0    0 -0.10591630635E+01  0.70798686313E+01  0.42806276186E+02  0.43400733255E+02  0.00000000000E+00 0.  1.
         11    1    3    3    0    0  0.42994337056E+01 -0.50519432429E+01 -0.49267899707E+01  0.82632027927E+01  0.51100000000E-03 0. -1.
        -11    1    3    3    0    0 -0.67082996568E+01  0.85487127326E+00 -0.21891981817E+02  0.22912681146E+02  0.51100000000E-03 0.  1.
         12    1    3    3    0    0  0.34680290147E+01 -0.28827966617E+01 -0.15987504398E+02  0.16611382805E+02  0.00000000000E+00 0. -1.
</event>
<event>
 7    1  0.2685294E-009  0.4778728E+02  0.7816164E-02  0.1312668E+00
        -11   -1    0    0    0    0  0.00000000000E+00  0.00000000000E+00  0.45593999997E+02  0.45594000000E+02  0.51100000000E-03 0. -1.
         11   -1    0    0    0    0 -0.00000000000E+00 -0.00000000000E+00 -0.45593999997E+02  0.45594000000E+02  0.51100000000E-03 0.  1.
    9900012    2    1    2    0    0 -0.41874809485E+02 -0.92860530258E+01  0.66251214521E+01  0.47787277835E+02  0.20000030959E+02 0.  0.
        -12    1    1    2    0    0  0.41874809485E+02  0.92860530258E+01 -0.66251214521E+01  0.43400722165E+02  0.00000000000E+00 0.  1.
         11    1    3    3    0    0 -0.86637489713E+00 -0.76252878402E+00  0.15872644098E+01  0.19625147583E+01  0.51100000000E-03 0. -1.
        -11    1    3    3    0    0 -0.22243322654E+02 -0.10752408300E+02 -0.37420998409E+01  0.24987656922E+02  0.51100000000E-03 0.  1.
        -12    1    3    3    0    0 -0.18765111934E+02  0.22288840579E+01  0.87799568832E+01  0.20837106155E+02  0.00000000000E+00 0.  1.
</event>
<event>
 7    1  0.2685294E-009  0.4778728E+02  0.7816164E-02  0.1312668E+00
        -11   -1    0    0    0    0  0.00000000000E+00  0.00000000000E+00  0.45593999997E+02  0.45594000000E+02  0.51100000000E-03 0.  1.
         11   -1    0    0    0    0 -0.00000000000E+00 -0.00000000000E+00 -0.45593999997E+02  0.45594000000E+02  0.51100000000E-03 0. -1.
    9900012    2    1    2    0    0 -0.12430256026E+02 -0.28335802794E+02 -0.30433432674E+02  0.47787276399E+02  0.20000024412E+02 0.  0.
        -12    1    1    2    0    0  0.12430256026E+02  0.28335802794E+02  0.30433432674E+02  0.43400723601E+02  0.00000000000E+00 0.  1.
         11    1    3    3    0    0 -0.33661001757E+01 -0.10096810959E+02 -0.22831368251E+02  0.25190228233E+02  0.51100000000E-03 0. -1.
        -11    1    3    3    0    0 -0.82460901755E+01 -0.11838149122E+02 -0.31771866713E+01  0.14772755099E+02  0.51100000000E-03 0.  1.
         12    1    3    3    0    0 -0.81806567429E+00 -0.64008427126E+01 -0.44248777512E+01  0.78242930666E+01  0.00000000000E+00 0. -1.
</event>
<event>
 7    1  0.2685294E-009  0.4778726E+02  0.7816164E-02  0.1312668E+00
        -11   -1    0    0    0    0  0.00000000000E+00  0.00000000000E+00  0.45593999997E+02  0.45594000000E+02  0.51100000000E-03 0. -1.
         11   -1    0    0    0    0 -0.00000000000E+00 -0.00000000000E+00 -0.45593999997E+02  0.45594000000E+02  0.51100000000E-03 0.  1.
    9900012    2    1    2    0    0  0.66303742497E+01 -0.32067506267E+02  0.28483986043E+02  0.47787259433E+02  0.19999947059E+02 0.  0.
        -12    1    1    2    0    0 -0.66303742497E+01  0.32067506267E+02 -0.28483986043E+02  0.43400740567E+02  0.00000000000E+00 0.  1.
         11    1    3    3    0    0 -0.78004785333E+00 -0.29039986140E+02  0.18760532838E+02  0.34581597163E+02  0.51100000000E-03 0. -1.
        -11    1    3    3    0    0  0.66715574905E+01 -0.10787599816E+01  0.81890078637E+01  0.10617591653E+02  0.51100000000E-03 0.  1.
        -12    1    3    3    0    0  0.73886461256E+00 -0.19487601446E+01  0.15344453414E+01  0.25880706178E+01  0.00000000000E+00 0.  1.
</event>
<event>
 7    1  0.2685294E-009  0.4778727E+02  0.7816164E-02  0.1312668E+00
        -11   -1    0    0    0    0  0.00000000000E+00  0.00000000000E+00  0.45593999997E+02  0.45594000000E+02  0.51100000000E-03 0.  1.
         11   -1    0    0    0    0 -0.00000000000E+00 -0.00000000000E+00 -0.45593999997E+02  0.45594000000E+02  0.51100000000E-03 0. -1.
    9900012    2    1    2    0    0  0.26933229532E+02 -0.34984047217E+01 -0.33852411538E+02  0.47787268951E+02  0.19999990456E+02 0.  0.
        -12    1    1    2    0    0 -0.26933229532E+02  0.34984047217E+01  0.33852411538E+02  0.43400731049E+02  0.00000000000E+00 0.  1.
         11    1    3    3    0    0 -0.10284095874E+01 -0.27352364051E+01 -0.94178154197E+01  0.98607500735E+01  0.51100000000E-03 0. -1.
        -11    1    3    3    0    0  0.21666574699E+02 -0.29864414344E+01 -0.15654487367E+02  0.26896510306E+02  0.51100000000E-03 0.  1.
        -12    1    3    3    0    0  0.62950644207E+01  0.22232731178E+01 -0.87801087512E+01  0.11030008572E+02  0.00000000000E+00 0.  1.
</event>
<event>
 7    1  0.2685294E-009  0.4778727E+02  0.7816164E-02  0.1312668E+00
        -11   -1    0    0    0    0  0.00000000000E+00  0.00000000000E+00  0.45593999997E+02  0.45594000000E+02  0.51100000000E-03 0.  1.
         11   -1    0    0    0    0 -0.00000000000E+00 -0.00000000000E+00 -0.45593999997E+02  0.45594000000E+02  0.51100000000E-03 0. -1.
    9900012    2    1    2    0    0 -0.13559350926E+02 -0.24090710125E+02 -0.33457510673E+02  0.47787270372E+02  0.19999996932E+02 0.  0.
        -12    1    1    2    0    0  0.13559350926E+02  0.24090710125E+02  0.33457510673E+02  0.43400729628E+02  0.00000000000E+00 0.  1.
         11    1    3    3    0    0 -0.12686514342E+02 -0.16473618763E+02 -0.27165706176E+02  0.34209696777E+02  0.51100000000E-03 0. -1.
        -11    1    3    3    0    0 -0.41265985893E+01 -0.19693600524E+01 -0.79215484335E-01  0.45731247837E+01  0.51100000000E-03 0.  1.
         12    1    3    3    0    0  0.32537620058E+01 -0.56477313105E+01 -0.62125890121E+01  0.90044488104E+01  0.00000000000E+00 0. -1.
</event>
<event>
 7    1  0.2685294E-009  0.4778726E+02  0.7816164E-02  0.1312668E+00
        -11   -1    0    0    0    0  0.00000000000E+00  0.00000000000E+00  0.45593999997E+02  0.45594000000E+02  0.51100000000E-03 0.  1.
         11   -1    0    0    0    0 -0.00000000000E+00 -0.00000000000E+00 -0.45593999997E+02  0.45594000000E+02  0.51100000000E-03 0. -1.
    9900012    2    1    2    0    0  0.11583512567E+02  0.18700454300E+02 -0.37413093096E+02  0.47787259345E+02  0.19999946656E+02 0.  0.
        -12    1    1    2    0    0 -0.11583512567E+02 -0.18700454300E+02  0.37413093096E+02  0.43400740655E+02  0.00000000000E+00 0.  1.
         11    1    3    3    0    0  0.18567994968E+01  0.45184153349E+01 -0.11688770724E+02  0.12668509889E+02  0.51100000000E-03 0. -1.
        -11    1    3    3    0    0  0.12060005738E+02  0.16430175013E+02 -0.20083973739E+02  0.28613989424E+02  0.51100000000E-03 0.  1.
        -12    1    3    3    0    0 -0.23332926674E+01 -0.22481360480E+01 -0.56403486333E+01  0.65047600315E+01  0.00000000000E+00 0.  1.
</event>
<event>
 7    1  0.2685294E-009  0.4778728E+02  0.7816164E-02  0.1312668E+00
        -11   -1    0    0    0    0  0.00000000000E+00  0.00000000000E+00  0.45593999997E+02  0.45594000000E+02  0.51100000000E-03 0.  1.
         11   -1    0    0    0    0 -0.00000000000E+00 -0.00000000000E+00 -0.45593999997E+02  0.45594000000E+02  0.51100000000E-03 0. -1.
    9900012    2    1    2    0    0 -0.16544342368E+02  0.32035697049E+02 -0.24158264924E+02  0.47787275192E+02  0.20000018909E+02 0.  0.
        -12    1    1    2    0    0  0.16544342368E+02 -0.32035697049E+02  0.24158264924E+02  0.43400724808E+02  0.00000000000E+00 0.  1.
         11    1    3    3    0    0 -0.60521606790E+01  0.13356441104E+02 -0.45661792835E+01  0.15358162694E+02  0.51100000000E-03 0. -1.
        -11    1    3    3    0    0 -0.11777889294E+02  0.15764358831E+02 -0.95101929160E+01  0.21855833435E+02  0.51100000000E-03 0.  1.
        -12    1    3    3    0    0  0.12857076054E+01  0.29148971141E+01 -0.10081892724E+02  0.10573279062E+02  0.00000000000E+00 0.  1.
</event>
<event>
 7    1  0.2685294E-009  0.4778727E+02  0.7816164E-02  0.1312668E+00
        -11   -1    0    0    0    0  0.00000000000E+00  0.00000000000E+00  0.45593999997E+02  0.45594000000E+02  0.51100000000E-03 0.  1.
         11   -1    0    0    0    0 -0.00000000000E+00 -0.00000000000E+00 -0.45593999997E+02  0.45594000000E+02  0.51100000000E-03 0. -1.
    9900012    2    1    2    0    0  0.90185319118E+00  0.24225959922E+02 -0.35998784685E+02  0.47787274521E+02  0.20000015850E+02 0.  0.
        -12    1    1    2    0    0 -0.90185319118E+00 -0.24225959922E+02  0.35998784685E+02  0.43400725479E+02  0.00000000000E+00 0.  1.
         11    1    3    3    0    0 -0.19617103645E+01  0.63146402984E+01 -0.16396501118E+02  0.17679599510E+02  0.51100000000E-03 0. -1.
        -11    1    3    3    0    0 -0.36326115853E+00  0.18048307274E+02 -0.11547175847E+02  0.21429200275E+02  0.51100000000E-03 0.  1.
        -12    1    3    3    0    0  0.32268247143E+01 -0.13698765100E+00 -0.80551077199E+01  0.86784747354E+01  0.00000000000E+00 0.  1.
</event>
<event>
 7    1  0.2685294E-009  0.4778727E+02  0.7816164E-02  0.1312668E+00
        -11   -1    0    0    0    0  0.00000000000E+00  0.00000000000E+00  0.45593999997E+02  0.45594000000E+02  0.51100000000E-03 0.  1.
         11   -1    0    0    0    0 -0.00000000000E+00 -0.00000000000E+00 -0.45593999997E+02  0.45594000000E+02  0.51100000000E-03 0. -1.
    9900012    2    1    2    0    0 -0.24285112800E+02  0.21944801755E+02 -0.28500564229E+02  0.47787272021E+02  0.20000004451E+02 0.  0.
        -12    1    1    2    0    0  0.24285112800E+02 -0.21944801755E+02  0.28500564229E+02  0.43400727979E+02  0.00000000000E+00 0.  1.
         11    1    3    3    0    0 -0.65350233280E+01  0.11021385962E+02 -0.11345798247E+01  0.12863310229E+02  0.51100000000E-03 0.  1.
        -11    1    3    3    0    0 -0.83043030454E+01  0.48515396002E+01 -0.17535674782E+02  0.19999969397E+02  0.51100000000E-03 0. -1.
        -12    1    3    3    0    0 -0.94457864265E+01  0.60718761936E+01 -0.98303096219E+01  0.14923992394E+02  0.00000000000E+00 0.  1.
</event>
<event>
 7    1  0.2685294E-009  0.4778726E+02  0.7816164E-02  0.1312668E+00
        -11   -1    0    0    0    0  0.00000000000E+00  0.00000000000E+00  0.45593999997E+02  0.45594000000E+02  0.51100000000E-03 0.  1.
         11   -1    0    0    0    0 -0.00000000000E+00 -0.00000000000E+00 -0.45593999997E+02  0.45594000000E+02  0.51100000000E-03 0. -1.
    9900012    2    1    2    0    0  0.35454334300E+01  0.16047057420E+02 -0.40168966593E+02  0.47787262366E+02  0.19999960432E+02 0.  0.
        -12    1    1    2    0    0 -0.35454334300E+01 -0.16047057420E+02  0.40168966593E+02  0.43400737634E+02  0.00000000000E+00 0.  1.
         11    1    3    3    0    0 -0.23639316757E+01  0.13428098668E+02 -0.22295043569E+02  0.26133713376E+02  0.51100000000E-03 0. -1.
        -11    1    3    3    0    0  0.87109714472E+01  0.30017447846E+01 -0.15122232520E+02  0.17708004178E+02  0.51100000000E-03 0.  1.
        -12    1    3    3    0    0 -0.28016063415E+01 -0.38278603255E+00 -0.27516905033E+01  0.39455448122E+01  0.00000000000E+00 0.  1.
</event>
<event>
 7    1  0.2685294E-009  0.4778727E+02  0.7816164E-02  0.1312668E+00
        -11   -1    0    0    0    0  0.00000000000E+00  0.00000000000E+00  0.45593999997E+02  0.45594000000E+02  0.51100000000E-03 0.  1.
         11   -1    0    0    0    0 -0.00000000000E+00 -0.00000000000E+00 -0.45593999997E+02  0.45594000000E+02  0.51100000000E-03 0. -1.
    9900012    2    1    2    0    0  0.15064532622E+02 -0.36907565959E+02 -0.17161428408E+02  0.47787271975E+02  0.20000004242E+02 0.  0.
        -12    1    1    2    0    0 -0.15064532622E+02  0.36907565959E+02  0.17161428408E+02  0.43400728025E+02  0.00000000000E+00 0.  1.
         11    1    3    3    0    0  0.12937841984E+02 -0.29317367588E+02 -0.15944981293E+02  0.35792991300E+02  0.51100000000E-03 0. -1.
        -11    1    3    3    0    0  0.52791125811E+01 -0.50896191998E+01 -0.25368088700E+01  0.77594234803E+01  0.51100000000E-03 0.  1.
         12    1    3    3    0    0 -0.31524219427E+01 -0.25005791709E+01  0.13203617555E+01  0.42348571948E+01  0.00000000000E+00 0. -1.
</event>
<event>
 7    1  0.2685294E-009  0.4778727E+02  0.7816164E-02  0.1312668E+00
        -11   -1    0    0    0    0  0.00000000000E+00  0.00000000000E+00  0.45593999997E+02  0.45594000000E+02  0.51100000000E-03 0.  1.
         11   -1    0    0    0    0 -0.00000000000E+00 -0.00000000000E+00 -0.45593999997E+02  0.45594000000E+02  0.51100000000E-03 0. -1.
    9900012    2    1    2    0    0  0.38869911183E+01  0.43182490178E+02 -0.19460825893E+01  0.47787269644E+02  0.19999993617E+02 0.  0.
        -12    1    1    2    0    0 -0.38869911183E+01 -0.43182490178E+02  0.19460825893E+01  0.43400730356E+02  0.00000000000E+00 0.  1.
         11    1    3    3    0    0 -0.33422066162E+01  0.17888635883E+02 -0.73084867894E+01  0.19610905594E+02  0.51100000000E-03 0. -1.
        -11    1    3    3    0    0  0.66460932185E+01  0.82478508723E+01  0.24760634631E+01  0.10877889943E+02  0.51100000000E-03 0.  1.
         12    1    3    3    0    0  0.58310451594E+00  0.17046003423E+02  0.28863407370E+01  0.17298474107E+02  0.00000000000E+00 0. -1.
</event>
<event>
 7    1  0.2685294E-009  0.4778727E+02  0.7816164E-02  0.1312668E+00
        -11   -1    0    0    0    0  0.00000000000E+00  0.00000000000E+00  0.45593999997E+02  0.45594000000E+02  0.51100000000E-03 0. -1.
         11   -1    0    0    0    0 -0.00000000000E+00 -0.00000000000E+00 -0.45593999997E+02  0.45594000000E+02  0.51100000000E-03 0.  1.
    9900012    2    1    2    0    0  0.40421718142E+02 -0.14844135133E+01  0.15732278856E+02  0.47787269833E+02  0.19999994476E+02 0.  0.
        -12    1    1    2    0    0 -0.40421718142E+02  0.14844135133E+01 -0.15732278856E+02  0.43400730167E+02  0.00000000000E+00 0.  1.
         11    1    3    3    0    0  0.22935733854E+02 -0.57914916346E+00  0.16663846783E+02  0.28356076792E+02  0.51100000000E-03 0. -1.
        -11    1    3    3    0    0  0.23818875396E+01  0.28428971914E+01 -0.10984690156E+01  0.38680857192E+01  0.51100000000E-03 0.  1.
         12    1    3    3    0    0  0.15104096748E+02 -0.37481615412E+01  0.16690108838E+00  0.15563107321E+02  0.00000000000E+00 0. -1.
</event>
<event>
 7    1  0.2685294E-009  0.4778727E+02  0.7816164E-02  0.1312668E+00
        -11   -1    0    0    0    0  0.00000000000E+00  0.00000000000E+00  0.45593999997E+02  0.45594000000E+02  0.51100000000E-03 0.  1.
         11   -1    0    0    0    0 -0.00000000000E+00 -0.00000000000E+00 -0.45593999997E+02  0.45594000000E+02  0.51100000000E-03 0. -1.
    9900012    2    1    2    0    0  0.78425285047E+01  0.94244017621E+01 -0.41632901201E+02  0.47787273459E+02  0.20000011007E+02 0.  0.
        -12    1    1    2    0    0 -0.78425285047E+01 -0.94244017621E+01  0.41632901201E+02  0.43400726541E+02  0.00000000000E+00 0.  1.
         11    1    3    3    0    0  0.33082081996E+01  0.65534947033E+01 -0.68406932160E+01  0.10034322013E+02  0.51100000000E-03 0.  1.
        -11    1    3    3    0    0 -0.70016358840E-01 -0.52678419025E+01 -0.11284575248E+02  0.12453782533E+02  0.51100000000E-03 0. -1.
        -12    1    3    3    0    0  0.46043366640E+01  0.81387489613E+01 -0.23507632737E+02  0.25299168912E+02  0.00000000000E+00 0.  1.
</event>
<event>
 7    1  0.2685294E-009  0.4778727E+02  0.7816164E-02  0.1312668E+00
        -11   -1    0    0    0    0  0.00000000000E+00  0.00000000000E+00  0.45593999997E+02  0.45594000000E+02  0.51100000000E-03 0. -1.
         11   -1    0    0    0    0 -0.00000000000E+00 -0.00000000000E+00 -0.45593999997E+02  0.45594000000E+02  0.51100000000E-03 0.  1.
    9900012    2    1    2    0    0 -0.31801494421E+02  0.28253270795E+02  0.86047068237E+01  0.47787270311E+02  0.19999996654E+02 0.  0.
        -12    1    1    2    0    0  0.31801494421E+02 -0.28253270795E+02 -0.86047068237E+01  0.43400729689E+02  0.00000000000E+00 0.  1.
         11    1    3    3    0    0 -0.45505902628E+01  0.74482586377E+00  0.29986681463E+01  0.55004225492E+01  0.51100000000E-03 0. -1.
        -11    1    3    3    0    0 -0.26042790021E+02  0.17052619009E+02  0.62167051252E+01  0.31743757654E+02  0.51100000000E-03 0.  1.
        -12    1    3    3    0    0 -0.12081141375E+01  0.10455825923E+02 -0.61066644786E+00  0.10543090107E+02  0.00000000000E+00 0.  1.
</event>
<event>
 7    1  0.2685294E-009  0.4778727E+02  0.7816164E-02  0.1312668E+00
        -11   -1    0    0    0    0  0.00000000000E+00  0.00000000000E+00  0.45593999997E+02  0.45594000000E+02  0.51100000000E-03 0. -1.
         11   -1    0    0    0    0 -0.00000000000E+00 -0.00000000000E+00 -0.45593999997E+02  0.45594000000E+02  0.51100000000E-03 0.  1.
    9900012    2    1    2    0    0 -0.21911827127E+02 -0.10059329656E+02  0.36087469346E+02  0.47787265848E+02  0.19999976307E+02 0.  0.
        -12    1    1    2    0    0  0.21911827127E+02  0.10059329656E+02 -0.36087469346E+02  0.43400734152E+02  0.00000000000E+00 0.  1.
         11    1    3    3    0    0 -0.91010417364E+00 -0.45219082512E+01  0.15014850469E+02  0.15707376570E+02  0.51100000000E-03 0. -1.
        -11    1    3    3    0    0 -0.13765261810E+00  0.14794958575E+01  0.38618976339E+01  0.41378871217E+01  0.51100000000E-03 0.  1.
         12    1    3    3    0    0 -0.20864070335E+02 -0.70169172625E+01  0.17210721243E+02  0.27942002156E+02  0.00000000000E+00 0. -1.
</event>
<event>
 7    1  0.2685294E-009  0.4778727E+02  0.7816164E-02  0.1312668E+00
        -11   -1    0    0    0    0  0.00000000000E+00  0.00000000000E+00  0.45593999997E+02  0.45594000000E+02  0.51100000000E-03 0.  1.
         11   -1    0    0    0    0 -0.00000000000E+00 -0.00000000000E+00 -0.45593999997E+02  0.45594000000E+02  0.51100000000E-03 0. -1.
    9900012    2    1    2    0    0 -0.13744359218E+02 -0.58158314485E+01 -0.40754044416E+02  0.47787269108E+02  0.19999991170E+02 0.  0.
        -12    1    1    2    0    0  0.13744359218E+02  0.58158314485E+01  0.40754044416E+02  0.43400730892E+02  0.00000000000E+00 0.  1.
         11    1    3    3    0    0 -0.32289542712E+01 -0.66750461057E+01 -0.27034209528E+02  0.28032675064E+02  0.51100000000E-03 0. -1.
        -11    1    3    3    0    0 -0.12223158594E+02  0.13017475893E+01 -0.10903077317E+02  0.16430984390E+02  0.51100000000E-03 0.  1.
        -12    1    3    3    0    0  0.17077536472E+01 -0.44253293216E+00 -0.28167575708E+01  0.33236096534E+01  0.00000000000E+00 0.  1.
</event>
<event>
 7    1  0.2685294E-009  0.4778727E+02  0.7816164E-02  0.1312668E+00
        -11   -1    0    0    0    0  0.00000000000E+00  0.00000000000E+00  0.45593999997E+02  0.45594000000E+02  0.51100000000E-03 0.  1.
         11   -1    0    0    0    0 -0.00000000000E+00 -0.00000000000E+00 -0.45593999997E+02  0.45594000000E+02  0.51100000000E-03 0. -1.
    9900012    2    1    2    0    0 -0.33695753963E+02 -0.58846401850E+01 -0.26713117271E+02  0.47787268906E+02  0.19999990248E+02 0.  0.
        -12    1    1    2    0    0  0.33695753963E+02  0.58846401850E+01  0.26713117271E+02  0.43400731094E+02  0.00000000000E+00 0.  1.
         11    1    3    3    0    0 -0.16920284464E+02 -0.11434765936E+02 -0.18229216784E+02  0.27374335484E+02  0.51100000000E-03 0. -1.
        -11    1    3    3    0    0 -0.15003933707E+02  0.54570389037E+01 -0.53977982706E+01  0.16853294239E+02  0.51100000000E-03 0.  1.
        -12    1    3    3    0    0 -0.17715357912E+01  0.93086847562E-01 -0.30861022160E+01  0.35596391824E+01  0.00000000000E+00 0.  1.
</event>
<event>
 7    1  0.2685294E-009  0.4778727E+02  0.7816164E-02  0.1312668E+00
        -11   -1    0    0    0    0  0.00000000000E+00  0.00000000000E+00  0.45593999997E+02  0.45594000000E+02  0.51100000000E-03 0.  1.
         11   -1    0    0    0    0 -0.00000000000E+00 -0.00000000000E+00 -0.45593999997E+02  0.45594000000E+02  0.51100000000E-03 0. -1.
    9900012    2    1    2    0    0  0.15554724590E+01 -0.40952743505E+02 -0.14285534994E+02  0.47787271836E+02  0.20000003607E+02 0.  0.
        -12    1    1    2    0    0 -0.15554724590E+01  0.40952743505E+02  0.14285534994E+02  0.43400728164E+02  0.00000000000E+00 0.  1.
         11    1    3    3    0    0  0.13184912741E+01 -0.35845253592E+02 -0.59355038962E+01  0.36357266551E+02  0.51100000000E-03 0. -1.
        -11    1    3    3    0    0 -0.19946238234E+01 -0.38056533739E+01 -0.76155942528E+01  0.87440721568E+01  0.51100000000E-03 0.  1.
         12    1    3    3    0    0  0.22316050083E+01 -0.13018365390E+01 -0.73443684504E+00  0.26859331277E+01  0.00000000000E+00 0. -1.
</event>
<event>
 7    1  0.3304729E-009  0.4778727E+02  0.7816164E-02  0.1312668E+00
        -11   -1    0    0    0    0  0.00000000000E+00  0.00000000000E+00  0.45593999997E+02  0.45594000000E+02  0.51100000000E-03 0.  1.
         11   -1    0    0    0    0 -0.00000000000E+00 -0.00000000000E+00 -0.45593999997E+02  0.45594000000E+02  0.51100000000E-03 0. -1.
    9900012    2    1    2    0    0  0.40214176963E+02 -0.16293430662E+02 -0.98353262135E+00  0.47787271343E+02  0.20000001361E+02 0.  0.
        -12    1    1    2    0    0 -0.40214176963E+02  0.16293430662E+02  0.98353262135E+00  0.43400728657E+02  0.00000000000E+00 0.  1.
         11    1    3    3    0    0  0.14561159724E+02 -0.35467194337E+01  0.15178171943E+00  0.14987649222E+02  0.51100000000E-03 0. -1.
        -11    1    3    3    0    0  0.24671888074E+02 -0.15331188063E+02 -0.33736908353E+01  0.29242591860E+02  0.51100000000E-03 0.  1.
        -12    1    3    3    0    0  0.98112916516E+00  0.25844768350E+01  0.22383764945E+01  0.35570302614E+01  0.00000000000E+00 0.  1.
</event>
<event>
 7    1  0.2685294E-009  0.4778727E+02  0.7816164E-02  0.1312668E+00
        -11   -1    0    0    0    0  0.00000000000E+00  0.00000000000E+00  0.45593999997E+02  0.45594000000E+02  0.51100000000E-03 0.  1.
         11   -1    0    0    0    0 -0.00000000000E+00 -0.00000000000E+00 -0.45593999997E+02  0.45594000000E+02  0.51100000000E-03 0. -1.
    9900012    2    1    2    0    0 -0.35896882375E+02  0.88834556383E+01 -0.22718305346E+02  0.47787270212E+02  0.19999996206E+02 0.  0.
        -12    1    1    2    0    0  0.35896882375E+02 -0.88834556383E+01  0.22718305346E+02  0.43400729788E+02  0.00000000000E+00 0.  1.
         11    1    3    3    0    0 -0.25119908488E+02  0.77264041982E+01 -0.14935543334E+02  0.30228754179E+02  0.51100000000E-03 0. -1.
        -11    1    3    3    0    0 -0.73970515901E+01 -0.43658774577E+01 -0.18713015182E+01  0.87908490964E+01  0.51100000000E-03 0.  1.
        -12    1    3    3    0    0 -0.33799222970E+01  0.55229288978E+01 -0.59114604943E+01  0.87676669371E+01  0.00000000000E+00 0.  1.
</event>
<event>
 7    1  0.2685294E-009  0.4778727E+02  0.7816164E-02  0.1312668E+00
        -11   -1    0    0    0    0  0.00000000000E+00  0.00000000000E+00  0.45593999997E+02  0.45594000000E+02  0.51100000000E-03 0.  1.
         11   -1    0    0    0    0 -0.00000000000E+00 -0.00000000000E+00 -0.45593999997E+02  0.45594000000E+02  0.51100000000E-03 0. -1.
    9900012    2    1    2    0    0 -0.21087126671E+02  0.37874344884E+02  0.21190844189E+01  0.47787269241E+02  0.19999991779E+02 0.  0.
        -12    1    1    2    0    0  0.21087126671E+02 -0.37874344884E+02 -0.21190844189E+01  0.43400730759E+02  0.00000000000E+00 0.  1.
         11    1    3    3    0    0 -0.43266096651E+01  0.90251240954E+01 -0.27346973060E+01  0.10375499301E+02  0.51100000000E-03 0. -1.
        -11    1    3    3    0    0 -0.95809687807E+01  0.21940650293E+02 -0.37675720542E+01  0.24235958770E+02  0.51100000000E-03 0.  1.
        -12    1    3    3    0    0 -0.71795482252E+01  0.69085704957E+01  0.86213537791E+01  0.13175811170E+02  0.00000000000E+00 0.  1.
</event>
<event>
 7    1  0.2685294E-009  0.4778728E+02  0.7816164E-02  0.1312668E+00
        -11   -1    0    0    0    0  0.00000000000E+00  0.00000000000E+00  0.45593999997E+02  0.45594000000E+02  0.51100000000E-03 0.  1.
         11   -1    0    0    0    0 -0.00000000000E+00 -0.00000000000E+00 -0.45593999997E+02  0.45594000000E+02  0.51100000000E-03 0. -1.
    9900012    2    1    2    0    0  0.30357086584E+02  0.13032373578E+02 -0.28146531994E+02  0.47787277308E+02  0.20000028557E+02 0.  0.
        -12    1    1    2    0    0 -0.30357086584E+02 -0.13032373578E+02  0.28146531994E+02  0.43400722692E+02  0.00000000000E+00 0.  1.
         11    1    3    3    0    0  0.56076996793E+01  0.28568989622E+01 -0.61258146224E+01  0.87825834709E+01  0.51100000000E-03 0. -1.
        -11    1    3    3    0    0  0.11851761127E+02 -0.39345510137E+01 -0.51488720686E+01  0.13507620713E+02  0.51100000000E-03 0.  1.
        -12    1    3    3    0    0  0.12897625777E+02  0.14110025630E+02 -0.16871845303E+02  0.25497073124E+02  0.00000000000E+00 0.  1.
</event>
<event>
 7    1  0.2685294E-009  0.4778726E+02  0.7816164E-02  0.1312668E+00
        -11   -1    0    0    0    0  0.00000000000E+00  0.00000000000E+00  0.45593999997E+02  0.45594000000E+02  0.51100000000E-03 0.  1.
         11   -1    0    0    0    0 -0.00000000000E+00 -0.00000000000E+00 -0.45593999997E+02  0.45594000000E+02  0.51100000000E-03 0. -1.
    9900012    2    1    2    0    0  0.34098102469E+02  0.43510323366E+01 -0.26495506292E+02  0.47787263508E+02  0.19999965638E+02 0.  0.
        -12    1    1    2    0    0 -0.34098102469E+02 -0.43510323366E+01  0.26495506292E+02  0.43400736492E+02  0.00000000000E+00 0.  1.
         11    1    3    3    0    0  0.92706493166E+01  0.13860625809E+01 -0.19362307896E+02  0.21511975166E+02  0.51100000000E-03 0. -1.
        -11    1    3    3    0    0  0.20112449311E+02  0.37683576569E+01 -0.63758109183E+01  0.21432734353E+02  0.51100000000E-03 0.  1.
         12    1    3    3    0    0  0.47150038408E+01 -0.80338790124E+00 -0.75738747816E+00  0.48425539885E+01  0.00000000000E+00 0. -1.
</event>
<event>
 7    1  0.2685294E-009  0.4778725E+02  0.7816164E-02  0.1312668E+00
        -11   -1    0    0    0    0  0.00000000000E+00  0.00000000000E+00  0.45593999997E+02  0.45594000000E+02  0.51100000000E-03 0.  1.
         11   -1    0    0    0    0 -0.00000000000E+00 -0.00000000000E+00 -0.45593999997E+02  0.45594000000E+02  0.51100000000E-03 0. -1.
    9900012    2    1    2    0    0  0.26420986733E+02  0.25141118570E+02  0.23526169695E+02  0.47787250658E+02  0.19999907051E+02 0.  0.
        -12    1    1    2    0    0 -0.26420986733E+02 -0.25141118570E+02 -0.23526169695E+02  0.43400749342E+02  0.00000000000E+00 0.  1.
         11    1    3    3    0    0  0.61517165979E+01  0.31544237194E+01  0.99090972498E+01  0.12082392754E+02  0.51100000000E-03 0. -1.
        -11    1    3    3    0    0  0.15985749086E+02  0.20402949094E+02  0.56600357779E+01  0.26530369595E+02  0.51100000000E-03 0.  1.
        -12    1    3    3    0    0  0.42835210491E+01  0.15837457567E+01  0.79570366676E+01  0.91744883089E+01  0.00000000000E+00 0.  1.
</event>
<event>
 7    1  0.2685294E-009  0.4778728E+02  0.7816164E-02  0.1312668E+00
        -11   -1    0    0    0    0  0.00000000000E+00  0.00000000000E+00  0.45593999997E+02  0.45594000000E+02  0.51100000000E-03 0.  1.
         11   -1    0    0    0    0 -0.00000000000E+00 -0.00000000000E+00 -0.45593999997E+02  0.45594000000E+02  0.51100000000E-03 0. -1.
    9900012    2    1    2    0    0  0.27368927431E+02 -0.95026531949E+01 -0.32315078804E+02  0.47787275069E+02  0.20000018349E+02 0.  0.
        -12    1    1    2    0    0 -0.27368927431E+02  0.95026531949E+01  0.32315078804E+02  0.43400724931E+02  0.00000000000E+00 0.  1.
         11    1    3    3    0    0  0.15660720977E+01 -0.18693360226E+00 -0.18425873651E+01  0.24254184063E+01  0.51100000000E-03 0. -1.
        -11    1    3    3    0    0  0.94348528388E+01 -0.96447682811E+01 -0.37165415893E+01  0.13994666303E+02  0.51100000000E-03 0.  1.
        -12    1    3    3    0    0  0.16368002494E+02  0.32904868852E+00 -0.26755949850E+02  0.31367190359E+02  0.00000000000E+00 0.  1.
</event>
<event>
 7    1  0.2685294E-009  0.4778727E+02  0.7816164E-02  0.1312668E+00
        -11   -1    0    0    0    0  0.00000000000E+00  0.00000000000E+00  0.45593999997E+02  0.45594000000E+02  0.51100000000E-03 0.  1.
         11   -1    0    0    0    0 -0.00000000000E+00 -0.00000000000E+00 -0.45593999997E+02  0.45594000000E+02  0.51100000000E-03 0. -1.
    9900012    2    1    2    0    0 -0.13036479213E+02  0.38359291850E+02 -0.15564003734E+02  0.47787271046E+02  0.20000000008E+02 0.  0.
        -12    1    1    2    0    0  0.13036479213E+02 -0.38359291850E+02  0.15564003734E+02  0.43400728954E+02  0.00000000000E+00 0.  1.
         11    1    3    3    0    0 -0.11496013881E+02  0.19871115253E+02 -0.10890361791E+02  0.25409044389E+02  0.51100000000E-03 0. -1.
        -11    1    3    3    0    0  0.50836170076E+00  0.70904574368E+01  0.37699353341E+01  0.80464545588E+01  0.51100000000E-03 0.  1.
        -12    1    3    3    0    0 -0.20488270334E+01  0.11397719160E+02 -0.84435772768E+01  0.14331772099E+02  0.00000000000E+00 0.  1.
</event>
<event>
 7    1  0.2685294E-009  0.4778728E+02  0.7816164E-02  0.1312668E+00
        -11   -1    0    0    0    0  0.00000000000E+00  0.00000000000E+00  0.45593999997E+02  0.45594000000E+02  0.51100000000E-03 0. -1.
         11   -1    0    0    0    0 -0.00000000000E+00 -0.00000000000E+00 -0.45593999997E+02  0.45594000000E+02  0.51100000000E-03 0.  1.
    9900012    2    1    2    0    0  0.53405604052E+01  0.39283603286E+02 -0.17660686590E+02  0.47787275082E+02  0.20000018410E+02 0.  0.
        -12    1    1    2    0    0 -0.53405604052E+01 -0.39283603286E+02  0.17660686590E+02  0.43400724918E+02  0.00000000000E+00 0.  1.
         11    1    3    3    0    0 -0.70957081580E+01  0.14360218111E+02 -0.60472083017E+01  0.17121146777E+02  0.51100000000E-03 0. -1.
        -11    1    3    3    0    0  0.64103384860E+01  0.14314913175E+02 -0.93419689705E+01  0.18256000746E+02  0.51100000000E-03 0.  1.
        -12    1    3    3    0    0  0.60259300772E+01  0.10608471999E+02 -0.22715093178E+01  0.12410127559E+02  0.00000000000E+00 0.  1.
</event>
<event>
 7    1  0.2685294E-009  0.4778727E+02  0.7816164E-02  0.1312668E+00
        -11   -1    0    0    0    0  0.00000000000E+00  0.00000000000E+00  0.45593999997E+02  0.45594000000E+02  0.51100000000E-03 0.  1.
         11   -1    0    0    0    0 -0.00000000000E+00 -0.00000000000E+00 -0.45593999997E+02  0.45594000000E+02  0.51100000000E-03 0. -1.
    9900012    2    1    2    0    0 -0.10421936140E+02 -0.32407908943E+02 -0.26920883990E+02  0.47787270631E+02  0.19999998114E+02 0.  0.
        -12    1    1    2    0    0  0.10421936140E+02  0.32407908943E+02  0.26920883990E+02  0.43400729369E+02  0.00000000000E+00 0.  1.
         11    1    3    3    0    0 -0.11192795240E+02 -0.14560073119E+02 -0.18924121992E+02  0.26370377091E+02  0.51100000000E-03 0. -1.
        -11    1    3    3    0    0  0.16711951984E+01 -0.51117107125E+01 -0.66880288188E+01  0.85820865494E+01  0.51100000000E-03 0.  1.
         12    1    3    3    0    0 -0.90033609821E+00 -0.12736125111E+02 -0.13087331797E+01  0.12834806990E+02  0.00000000000E+00 0. -1.
</event>
<event>
 7    1  0.2685294E-009  0.4778728E+02  0.7816164E-02  0.1312668E+00
        -11   -1    0    0    0    0  0.00000000000E+00  0.00000000000E+00  0.45593999997E+02  0.45594000000E+02  0.51100000000E-03 0.  1.
         11   -1    0    0    0    0 -0.00000000000E+00 -0.00000000000E+00 -0.45593999997E+02  0.45594000000E+02  0.51100000000E-03 0. -1.
    9900012    2    1    2    0    0  0.38328845391E+00 -0.81611542415E+01 -0.42624768043E+02  0.47787283423E+02  0.20000056441E+02 0.  0.
        -12    1    1    2    0    0 -0.38328845391E+00  0.81611542415E+01  0.42624768043E+02  0.43400716577E+02  0.00000000000E+00 0.  1.
         11    1    3    3    0    0  0.73962559253E+01 -0.64665637492E+01 -0.13038924488E+02  0.16325887434E+02  0.51100000000E-03 0. -1.
        -11    1    3    3    0    0 -0.69693882862E+01 -0.41576731759E+01 -0.24525229499E+02  0.25833031211E+02  0.51100000000E-03 0.  1.
         12    1    3    3    0    0 -0.43579185172E-01  0.24630826835E+01 -0.50606140560E+01  0.56283647781E+01  0.00000000000E+00 0. -1.
</event>
<event>
 7    1  0.2685294E-009  0.4778727E+02  0.7816164E-02  0.1312668E+00
        -11   -1    0    0    0    0  0.00000000000E+00  0.00000000000E+00  0.45593999997E+02  0.45594000000E+02  0.51100000000E-03 0.  1.
         11   -1    0    0    0    0 -0.00000000000E+00 -0.00000000000E+00 -0.45593999997E+02  0.45594000000E+02  0.51100000000E-03 0. -1.
    9900012    2    1    2    0    0  0.78414514321E+01  0.37386144411E+02 -0.20601237391E+02  0.47787272627E+02  0.20000007215E+02 0.  0.
        -12    1    1    2    0    0 -0.78414514321E+01 -0.37386144411E+02  0.20601237391E+02  0.43400727373E+02  0.00000000000E+00 0.  1.
         11    1    3    3    0    0  0.74467251572E+01  0.15434606732E+02 -0.10377889547E+02  0.20034505041E+02  0.51100000000E-03 0. -1.
        -11    1    3    3    0    0 -0.49792344314E+01  0.18284748287E+02 -0.55636453221E+01  0.19750416324E+02  0.51100000000E-03 0.  1.
        -12    1    3    3    0    0  0.53739607063E+01  0.36667893916E+01 -0.46597025224E+01  0.80023512615E+01  0.00000000000E+00 0.  1.
</event>
<event>
 7    1  0.2685294E-009  0.4778728E+02  0.7816164E-02  0.1312668E+00
        -11   -1    0    0    0    0  0.00000000000E+00  0.00000000000E+00  0.45593999997E+02  0.45594000000E+02  0.51100000000E-03 0. -1.
         11   -1    0    0    0    0 -0.00000000000E+00 -0.00000000000E+00 -0.45593999997E+02  0.45594000000E+02  0.51100000000E-03 0.  1.
    9900012    2    1    2    0    0  0.17521344221E+01  0.41309412746E+02  0.13194125079E+02  0.47787280040E+02  0.20000041012E+02 0.  0.
        -12    1    1    2    0    0 -0.17521344221E+01 -0.41309412746E+02 -0.13194125079E+02  0.43400719960E+02  0.00000000000E+00 0.  1.
         11    1    3    3    0    0  0.66160134790E+01  0.11855477523E+02  0.27897036225E+01  0.13860246326E+02  0.51100000000E-03 0.  1.
        -11    1    3    3    0    0 -0.84298378749E+01  0.16059861421E+02  0.36220265053E+01  0.18495956091E+02  0.51100000000E-03 0. -1.
         12    1    3    3    0    0  0.35659588180E+01  0.13394073802E+02  0.67823949513E+01  0.15431077622E+02  0.00000000000E+00 0. -1.
</event>
<event>
 7    1  0.2685294E-009  0.4778727E+02  0.7816164E-02  0.1312668E+00
        -11   -1    0    0    0    0  0.00000000000E+00  0.00000000000E+00  0.45593999997E+02  0.45594000000E+02  0.51100000000E-03 0.  1.
         11   -1    0    0    0    0 -0.00000000000E+00 -0.00000000000E+00 -0.45593999997E+02  0.45594000000E+02  0.51100000000E-03 0. -1.
    9900012    2    1    2    0    0  0.22182103114E+02  0.24508158355E+02 -0.28123439539E+02  0.47787269867E+02  0.19999994634E+02 0.  0.
        -12    1    1    2    0    0 -0.22182103114E+02 -0.24508158355E+02  0.28123439539E+02  0.43400730133E+02  0.00000000000E+00 0.  1.
         11    1    3    3    0    0  0.16241971290E+01  0.12942060760E+02 -0.15740857354E+02  0.20442835995E+02  0.51100000000E-03 0. -1.
        -11    1    3    3    0    0  0.14120988820E+02  0.66072010991E+01 -0.11052831790E+02  0.19110795966E+02  0.51100000000E-03 0.  1.
         12    1    3    3    0    0  0.64369171658E+01  0.49588964965E+01 -0.13297503948E+01  0.82336379065E+01  0.00000000000E+00 0. -1.
</event>
<event>
 7    1  0.2685294E-009  0.4778724E+02  0.7816164E-02  0.1312668E+00
        -11   -1    0    0    0    0  0.00000000000E+00  0.00000000000E+00  0.45593999997E+02  0.45594000000E+02  0.51100000000E-03 0. -1.
         11   -1    0    0    0    0 -0.00000000000E+00 -0.00000000000E+00 -0.45593999997E+02  0.45594000000E+02  0.51100000000E-03 0.  1.
    9900012    2    1    2    0    0  0.25926599983E+01  0.36516792101E+02  0.23311534918E+02  0.47787243654E+02  0.19999875115E+02 0.  0.
        -12    1    1    2    0    0 -0.25926599983E+01 -0.36516792101E+02 -0.23311534918E+02  0.43400756346E+02  0.00000000000E+00 0.  1.
         11    1    3    3    0    0 -0.36187061380E+01  0.96141222578E+01  0.16667582700E+01  0.10406943081E+02  0.51100000000E-03 0.  1.
        -11    1    3    3    0    0  0.34925343710E+01  0.24638867581E+02  0.22705327945E+02  0.33686844752E+02  0.51100000000E-03 0. -1.
        -12    1    3    3    0    0  0.27188317652E+01  0.22638022616E+01 -0.10605512964E+01  0.36934558207E+01  0.00000000000E+00 0.  1.
</event>
<event>
 7    1  0.2685294E-009  0.4778727E+02  0.7816164E-02  0.1312668E+00
        -11   -1    0    0    0    0  0.00000000000E+00  0.00000000000E+00  0.45593999997E+02  0.45594000000E+02  0.51100000000E-03 0.  1.
         11   -1    0    0    0    0 -0.00000000000E+00 -0.00000000000E+00 -0.45593999997E+02  0.45594000000E+02  0.51100000000E-03 0. -1.
    9900012    2    1    2    0    0  0.27408985523E+02 -0.33163964304E+02  0.57028140912E+01  0.47787272998E+02  0.20000008906E+02 0.  0.
        -12    1    1    2    0    0 -0.27408985523E+02  0.33163964304E+02 -0.57028140912E+01  0.43400727002E+02  0.00000000000E+00 0.  1.
         11    1    3    3    0    0  0.10624421388E+02 -0.23588923530E+02 -0.67714199357E+00  0.25879995454E+02  0.51100000000E-03 0. -1.
        -11    1    3    3    0    0  0.59979156455E+01 -0.51633865271E+01 -0.12005626026E+01  0.80048050159E+01  0.51100000000E-03 0.  1.
         12    1    3    3    0    0  0.10786648489E+02 -0.44116542467E+01  0.75805186874E+01  0.13902472528E+02  0.00000000000E+00 0. -1.
</event>
<event>
 7    1  0.2685294E-009  0.4778727E+02  0.7816164E-02  0.1312668E+00
        -11   -1    0    0    0    0  0.00000000000E+00  0.00000000000E+00  0.45593999997E+02  0.45594000000E+02  0.51100000000E-03 0.  1.
         11   -1    0    0    0    0 -0.00000000000E+00 -0.00000000000E+00 -0.45593999997E+02  0.45594000000E+02  0.51100000000E-03 0. -1.
    9900012    2    1    2    0    0  0.11887327673E+02  0.36776104305E+02 -0.19744187326E+02  0.47787270280E+02  0.19999996516E+02 0.  0.
        -12    1    1    2    0    0 -0.11887327673E+02 -0.36776104305E+02  0.19744187326E+02  0.43400729720E+02  0.00000000000E+00 0.  1.
         11    1    3    3    0    0  0.65964255787E+00  0.65409919685E+01 -0.72982427395E+00  0.66145557650E+01  0.51100000000E-03 0. -1.
        -11    1    3    3    0    0  0.17403528019E+01  0.25683190648E+02 -0.15645966099E+02  0.30123933428E+02  0.51100000000E-03 0.  1.
        -12    1    3    3    0    0  0.94873323136E+01  0.45519216884E+01 -0.33683969526E+01  0.11048781087E+02  0.00000000000E+00 0.  1.
</event>
<event>
 7    1  0.2685294E-009  0.4778727E+02  0.7816164E-02  0.1312668E+00
        -11   -1    0    0    0    0  0.00000000000E+00  0.00000000000E+00  0.45593999997E+02  0.45594000000E+02  0.51100000000E-03 0.  1.
         11   -1    0    0    0    0 -0.00000000000E+00 -0.00000000000E+00 -0.45593999997E+02  0.45594000000E+02  0.51100000000E-03 0. -1.
    9900012    2    1    2    0    0 -0.34906716684E+02  0.22833428028E+02 -0.11990795437E+02  0.47787268665E+02  0.19999989152E+02 0.  0.
        -12    1    1    2    0    0  0.34906716684E+02 -0.22833428028E+02  0.11990795437E+02  0.43400731335E+02  0.00000000000E+00 0.  1.
         11    1    3    3    0    0 -0.22654210735E+02  0.66997423244E+01 -0.62429931530E+01  0.24435113567E+02  0.51100000000E-03 0. -1.
        -11    1    3    3    0    0 -0.68371236457E+01  0.10637740926E+02  0.15398540449E+01  0.12738875245E+02  0.51100000000E-03 0.  1.
        -12    1    3    3    0    0 -0.54153823033E+01  0.54959447770E+01 -0.72876563288E+01  0.10613279854E+02  0.00000000000E+00 0.  1.
</event>
<event>
 7    1  0.2685294E-009  0.4778727E+02  0.7816164E-02  0.1312668E+00
        -11   -1    0    0    0    0  0.00000000000E+00  0.00000000000E+00  0.45593999997E+02  0.45594000000E+02  0.51100000000E-03 0. -1.
         11   -1    0    0    0    0 -0.00000000000E+00 -0.00000000000E+00 -0.45593999997E+02  0.45594000000E+02  0.51100000000E-03 0.  1.
    9900012    2    1    2    0    0  0.37412747464E+02  0.15171464013E+02  0.15929103300E+02  0.47787270455E+02  0.19999997312E+02 0.  0.
        -12    1    1    2    0    0 -0.37412747464E+02 -0.15171464013E+02 -0.15929103300E+02  0.43400729545E+02  0.00000000000E+00 0.  1.
         11    1    3    3    0    0  0.13836516784E+02  0.12099071151E+02  0.12051453879E+02  0.21978950391E+02  0.51100000000E-03 0. -1.
        -11    1    3    3    0    0  0.85023916619E+01  0.12069329562E-02 -0.29200294840E+01  0.89898408149E+01  0.51100000000E-03 0.  1.
        -12    1    3    3    0    0  0.15073839019E+02  0.30711859295E+01  0.67976789041E+01  0.16818479249E+02  0.00000000000E+00 0.  1.
</event>
<event>
 7    1  0.2685294E-009  0.4778728E+02  0.7816164E-02  0.1312668E+00
        -11   -1    0    0    0    0  0.00000000000E+00  0.00000000000E+00  0.45593999997E+02  0.45594000000E+02  0.51100000000E-03 0.  1.
         11   -1    0    0    0    0 -0.00000000000E+00 -0.00000000000E+00 -0.45593999997E+02  0.45594000000E+02  0.51100000000E-03 0. -1.
    9900012    2    1    2    0    0 -0.70024676432E+01 -0.35977704719E+02  0.23242055114E+02  0.47787275169E+02  0.20000018806E+02 0.  0.
        -12    1    1    2    0    0  0.70024676432E+01  0.35977704719E+02 -0.23242055114E+02  0.43400724831E+02  0.00000000000E+00 0.  1.
         11    1    3    3    0    0 -0.42731720814E+01 -0.74465089201E+01 -0.48825632443E+00  0.85993540010E+01  0.51100000000E-03 0. -1.
        -11    1    3    3    0    0 -0.24457931634E+01 -0.17822380868E+02  0.21864847108E+02  0.28314143168E+02  0.51100000000E-03 0.  1.
        -12    1    3    3    0    0 -0.28350239836E+00 -0.10708814931E+02  0.18654643299E+01  0.10873778001E+02  0.00000000000E+00 0.  1.
</event>
<event>
 7    1  0.2685294E-009  0.4778727E+02  0.7816164E-02  0.1312668E+00
        -11   -1    0    0    0    0  0.00000000000E+00  0.00000000000E+00  0.45593999997E+02  0.45594000000E+02  0.51100000000E-03 0.  1.
         11   -1    0    0    0    0 -0.00000000000E+00 -0.00000000000E+00 -0.45593999997E+02  0.45594000000E+02  0.51100000000E-03 0. -1.
    9900012    2    1    2    0    0  0.80548540364E+01 -0.33156393528E+01 -0.42517636455E+02  0.47787267891E+02  0.19999985623E+02 0.  0.
        -12    1    1    2    0    0 -0.80548540364E+01  0.33156393528E+01  0.42517636455E+02  0.43400732109E+02  0.00000000000E+00 0.  1.
         11    1    3    3    0    0 -0.13568106735E+01  0.44561613810E+01 -0.13190700188E+02  0.13989027170E+02  0.51100000000E-03 0. -1.
        -11    1    3    3    0    0  0.47970921489E+01 -0.71929611431E+01 -0.27456294388E+02  0.28785393602E+02  0.51100000000E-03 0.  1.
        -12    1    3    3    0    0  0.46145725610E+01 -0.57883959066E+00 -0.18706418793E+01  0.50128471184E+01  0.00000000000E+00 0.  1.
</event>
<event>
 7    1  0.2910910E-009  0.4778727E+02  0.7816164E-02  0.1312668E+00
        -11   -1    0    0    0    0  0.00000000000E+00  0.00000000000E+00  0.45593999997E+02  0.45594000000E+02  0.51100000000E-03 0.  1.
         11   -1    0    0    0    0 -0.00000000000E+00 -0.00000000000E+00 -0.45593999997E+02  0.45594000000E+02  0.51100000000E-03 0. -1.
    9900012    2    1    2    0    0 -0.18509494340E+02 -0.36620772071E+02  0.14140039081E+02  0.47787273819E+02  0.20000012651E+02 0.  0.
        -12    1    1    2    0    0  0.18509494340E+02  0.36620772071E+02 -0.14140039081E+02  0.43400726181E+02  0.00000000000E+00 0.  1.
         11    1    3    3    0    0 -0.85057631794E+01 -0.13769746789E+02  0.62760139752E+01  0.17359213276E+02  0.51100000000E-03 0. -1.
        -11    1    3    3    0    0 -0.48429290181E+01 -0.20364108603E+02  0.29325897960E+00  0.20934108096E+02  0.51100000000E-03 0.  1.
        -12    1    3    3    0    0 -0.51608021426E+01 -0.24869166788E+01  0.75707661267E+01  0.94939524470E+01  0.00000000000E+00 0.  1.
</event>
<event>
 7    1  0.2685294E-009  0.4778727E+02  0.7816164E-02  0.1312668E+00
        -11   -1    0    0    0    0  0.00000000000E+00  0.00000000000E+00  0.45593999997E+02  0.45594000000E+02  0.51100000000E-03 0. -1.
         11   -1    0    0    0    0 -0.00000000000E+00 -0.00000000000E+00 -0.45593999997E+02  0.45594000000E+02  0.51100000000E-03 0.  1.
    9900012    2    1    2    0    0  0.39865233820E+02  0.11941931026E+02  0.12319785162E+02  0.47787266244E+02  0.19999978113E+02 0.  0.
        -12    1    1    2    0    0 -0.39865233820E+02 -0.11941931026E+02 -0.12319785162E+02  0.43400733756E+02  0.00000000000E+00 0.  1.
         11    1    3    3    0    0  0.16079496296E+02 -0.10964211485E+01  0.22488314218E+01  0.16272970948E+02  0.51100000000E-03 0. -1.
        -11    1    3    3    0    0  0.14983653790E+02  0.97276596520E+01  0.12497767915E+02  0.21802097292E+02  0.51100000000E-03 0.  1.
         12    1    3    3    0    0  0.88020837338E+01  0.33106925226E+01 -0.24268141748E+01  0.97121980043E+01  0.00000000000E+00 0. -1.
</event>
<event>
 7    1  0.2685294E-009  0.4778728E+02  0.7816164E-02  0.1312668E+00
        -11   -1    0    0    0    0  0.00000000000E+00  0.00000000000E+00  0.45593999997E+02  0.45594000000E+02  0.51100000000E-03 0. -1.
         11   -1    0    0    0    0 -0.00000000000E+00 -0.00000000000E+00 -0.45593999997E+02  0.45594000000E+02  0.51100000000E-03 0.  1.
    9900012    2    1    2    0    0  0.22391025556E+02  0.36124304570E+02 -0.87920001987E+01  0.47787277960E+02  0.20000031531E+02 0.  0.
        -12    1    1    2    0    0 -0.22391025556E+02 -0.36124304570E+02  0.87920001987E+01  0.43400722040E+02  0.00000000000E+00 0.  1.
         11    1    3    3    0    0  0.96311633127E+01  0.28074543895E+02 -0.40965660296E+01  0.29961995514E+02  0.51100000000E-03 0. -1.
        -11    1    3    3    0    0  0.88014798706E+01  0.67315732536E+01 -0.69530976301E+01  0.13081501951E+02  0.51100000000E-03 0.  1.
        -12    1    3    3    0    0  0.39583823725E+01  0.13181874214E+01  0.22576634610E+01  0.47437804953E+01  0.00000000000E+00 0.  1.
</event>
<event>
 7    1  0.2685294E-009  0.4778729E+02  0.7816164E-02  0.1312668E+00
        -11   -1    0    0    0    0  0.00000000000E+00  0.00000000000E+00  0.45593999997E+02  0.45594000000E+02  0.51100000000E-03 0.  1.
         11   -1    0    0    0    0 -0.00000000000E+00 -0.00000000000E+00 -0.45593999997E+02  0.45594000000E+02  0.51100000000E-03 0. -1.
    9900012    2    1    2    0    0 -0.17815540284E+02  0.32405812886E+02 -0.22717654317E+02  0.47787285696E+02  0.20000066803E+02 0.  0.
        -12    1    1    2    0    0  0.17815540284E+02 -0.32405812886E+02  0.22717654317E+02  0.43400714304E+02  0.00000000000E+00 0.  1.
         11    1    3    3    0    0 -0.20509219400E+02  0.29883995690E+02 -0.21328221602E+02  0.42054420883E+02  0.51100000000E-03 0. -1.
        -11    1    3    3    0    0  0.32693083547E+01  0.57282438340E+00 -0.16094945600E+01  0.36887637349E+01  0.51100000000E-03 0.  1.
         12    1    3    3    0    0 -0.57562923899E+00  0.19489928124E+01  0.22006184496E+00  0.20441010786E+01  0.00000000000E+00 0. -1.
</event>
<event>
 7    1  0.2685294E-009  0.4778727E+02  0.7816164E-02  0.1312668E+00
        -11   -1    0    0    0    0  0.00000000000E+00  0.00000000000E+00  0.45593999997E+02  0.45594000000E+02  0.51100000000E-03 0.  1.
         11   -1    0    0    0    0 -0.00000000000E+00 -0.00000000000E+00 -0.45593999997E+02  0.45594000000E+02  0.51100000000E-03 0. -1.
    9900012    2    1    2    0    0  0.15672200364E+02  0.89002525022E+01 -0.39481523685E+02  0.47787273378E+02  0.20000010640E+02 0.  0.
        -12    1    1    2    0    0 -0.15672200364E+02 -0.89002525022E+01  0.39481523685E+02  0.43400726622E+02  0.00000000000E+00 0.  1.
         11    1    3    3    0    0  0.13630902605E+02  0.13349331247E+02 -0.24414029941E+02  0.30984689910E+02  0.51100000000E-03 0. -1.
        -11    1    3    3    0    0  0.21516373517E+01 -0.16960700182E+01 -0.13182650016E+02  0.13464340255E+02  0.51100000000E-03 0.  1.
         12    1    3    3    0    0 -0.11033959228E+00 -0.27530087269E+01 -0.18848437274E+01  0.33382432135E+01  0.00000000000E+00 0. -1.
</event>
<event>
 7    1  0.2685294E-009  0.4778729E+02  0.7816164E-02  0.1312668E+00
        -11   -1    0    0    0    0  0.00000000000E+00  0.00000000000E+00  0.45593999997E+02  0.45594000000E+02  0.51100000000E-03 0. -1.
         11   -1    0    0    0    0 -0.00000000000E+00 -0.00000000000E+00 -0.45593999997E+02  0.45594000000E+02  0.51100000000E-03 0.  1.
    9900012    2    1    2    0    0  0.17552393378E+02 -0.39467968674E+02 -0.42207698079E+01  0.47787286154E+02  0.20000068891E+02 0.  0.
        -12    1    1    2    0    0 -0.17552393378E+02  0.39467968674E+02  0.42207698079E+01  0.43400713846E+02  0.00000000000E+00 0.  1.
         11    1    3    3    0    0  0.31892093212E+01 -0.34966035041E+01 -0.41887740485E+00  0.47510788985E+01  0.51100000000E-03 0. -1.
        -11    1    3    3    0    0  0.12068126768E+02 -0.73049452677E+01 -0.14903915422E+01  0.14185315515E+02  0.51100000000E-03 0.  1.
        -12    1    3    3    0    0  0.22950572887E+01 -0.28666419903E+02 -0.23115008608E+01  0.28850891741E+02  0.00000000000E+00 0.  1.
</event>
<event>
 7    1  0.2685294E-009  0.4778725E+02  0.7816164E-02  0.1312668E+00
        -11   -1    0    0    0    0  0.00000000000E+00  0.00000000000E+00  0.45593999997E+02  0.45594000000E+02  0.51100000000E-03 0.  1.
         11   -1    0    0    0    0 -0.00000000000E+00 -0.00000000000E+00 -0.45593999997E+02  0.45594000000E+02  0.51100000000E-03 0. -1.
    9900012    2    1    2    0    0 -0.75568011736E+01 -0.30770024623E+02 -0.29660169558E+02  0.47787247501E+02  0.19999892658E+02 0.  0.
        -12    1    1    2    0    0  0.75568011736E+01  0.30770024623E+02  0.29660169558E+02  0.43400752499E+02  0.00000000000E+00 0.  1.
         11    1    3    3    0    0 -0.30362906786E+01 -0.46081948435E+01  0.17071979214E+01  0.57765946546E+01  0.51100000000E-03 0. -1.
        -11    1    3    3    0    0 -0.17297459442E+01 -0.84317260802E+01 -0.45355019303E+01  0.97291728191E+01  0.51100000000E-03 0.  1.
         12    1    3    3    0    0 -0.27907645509E+01 -0.17730103699E+02 -0.26831865549E+02  0.32281480028E+02  0.00000000000E+00 0. -1.
</event>
<event>
 7    1  0.2685294E-009  0.4778727E+02  0.7816164E-02  0.1312668E+00
        -11   -1    0    0    0    0  0.00000000000E+00  0.00000000000E+00  0.45593999997E+02  0.45594000000E+02  0.51100000000E-03 0.  1.
         11   -1    0    0    0    0 -0.00000000000E+00 -0.00000000000E+00 -0.45593999997E+02  0.45594000000E+02  0.51100000000E-03 0. -1.
    9900012    2    1    2    0    0 -0.19105988387E+02 -0.30350872194E+02 -0.24441955683E+02  0.47787269214E+02  0.19999991652E+02 0.  0.
        -12    1    1    2    0    0  0.19105988387E+02  0.30350872194E+02  0.24441955683E+02  0.43400730786E+02  0.00000000000E+00 0.  1.
         11    1    3    3    0    0  0.28870270848E+01 -0.10177037327E+02 -0.49305037732E+01  0.11671198819E+02  0.51100000000E-03 0. -1.
        -11    1    3    3    0    0 -0.14614889080E+02 -0.16742125259E+02 -0.13548886250E+02  0.26028178190E+02  0.51100000000E-03 0.  1.
         12    1    3    3    0    0 -0.73781263922E+01 -0.34317096077E+01 -0.59625656592E+01  0.10087892205E+02  0.00000000000E+00 0. -1.
</event>
<event>
 7    1  0.2685294E-009  0.4778727E+02  0.7816164E-02  0.1312668E+00
        -11   -1    0    0    0    0  0.00000000000E+00  0.00000000000E+00  0.45593999997E+02  0.45594000000E+02  0.51100000000E-03 0.  1.
         11   -1    0    0    0    0 -0.00000000000E+00 -0.00000000000E+00 -0.45593999997E+02  0.45594000000E+02  0.51100000000E-03 0. -1.
    9900012    2    1    2    0    0 -0.20757947156E+02  0.36316218367E+02 -0.11569920079E+02  0.47787272618E+02  0.20000007176E+02 0.  0.
        -12    1    1    2    0    0  0.20757947156E+02 -0.36316218367E+02  0.11569920079E+02  0.43400727382E+02  0.00000000000E+00 0.  1.
         11    1    3    3    0    0 -0.39165286945E+01  0.10770089397E+02 -0.38232769978E+01  0.12081037617E+02  0.51100000000E-03 0. -1.
        -11    1    3    3    0    0 -0.46423486109E+00  0.98461699389E+01 -0.84866579899E+01  0.13007149594E+02  0.51100000000E-03 0.  1.
        -12    1    3    3    0    0 -0.16377183601E+02  0.15699959031E+02  0.74001490841E+00  0.22699085407E+02  0.00000000000E+00 0.  1.
</event>
<event>
 7    1  0.2685294E-009  0.4778727E+02  0.7816164E-02  0.1312668E+00
        -11   -1    0    0    0    0  0.00000000000E+00  0.00000000000E+00  0.45593999997E+02  0.45594000000E+02  0.51100000000E-03 0.  1.
         11   -1    0    0    0    0 -0.00000000000E+00 -0.00000000000E+00 -0.45593999997E+02  0.45594000000E+02  0.51100000000E-03 0. -1.
    9900012    2    1    2    0    0  0.10387589344E+01  0.24438311984E+02 -0.35851265083E+02  0.47787270504E+02  0.19999997536E+02 0.  0.
        -12    1    1    2    0    0 -0.10387589344E+01 -0.24438311984E+02  0.35851265083E+02  0.43400729496E+02  0.00000000000E+00 0.  1.
         11    1    3    3    0    0  0.79208750546E+01  0.17897299624E+02 -0.24686141951E+02  0.31503320462E+02  0.51100000000E-03 0. -1.
        -11    1    3    3    0    0  0.72416102998E+00 -0.43903629615E+00  0.25971637679E+00  0.88578491981E+00  0.51100000000E-03 0.  1.
         12    1    3    3    0    0 -0.76062771502E+01  0.69800486563E+01 -0.11424839508E+02  0.15398165122E+02  0.00000000000E+00 0. -1.
</event>
<event>
 7    1  0.2685294E-009  0.4778725E+02  0.7816164E-02  0.1312668E+00
        -11   -1    0    0    0    0  0.00000000000E+00  0.00000000000E+00  0.45593999997E+02  0.45594000000E+02  0.51100000000E-03 0.  1.
         11   -1    0    0    0    0 -0.00000000000E+00 -0.00000000000E+00 -0.45593999997E+02  0.45594000000E+02  0.51100000000E-03 0. -1.
    9900012    2    1    2    0    0 -0.42250164717E+00  0.42439334250E+02  0.90746509913E+01  0.47787252427E+02  0.19999915116E+02 0.  0.
        -12    1    1    2    0    0  0.42250164717E+00 -0.42439334250E+02 -0.90746509913E+01  0.43400747573E+02  0.00000000000E+00 0.  1.
         11    1    3    3    0    0 -0.22273164615E-01  0.18277610089E+02  0.18151802639E+01  0.18367536751E+02  0.51100000000E-03 0. -1.
        -11    1    3    3    0    0 -0.99779639263E+00 -0.16763592760E+01  0.24486973891E+01  0.31307981774E+01  0.51100000000E-03 0.  1.
        -12    1    3    3    0    0  0.59756791007E+00  0.25838083437E+02  0.48107733383E+01  0.26288917498E+02  0.00000000000E+00 0.  1.
</event>
<event>
 7    1  0.2685294E-009  0.4778727E+02  0.7816164E-02  0.1312668E+00
        -11   -1    0    0    0    0  0.00000000000E+00  0.00000000000E+00  0.45593999997E+02  0.45594000000E+02  0.51100000000E-03 0.  1.
         11   -1    0    0    0    0 -0.00000000000E+00 -0.00000000000E+00 -0.45593999997E+02  0.45594000000E+02  0.51100000000E-03 0. -1.
    9900012    2    1    2    0    0  0.28129070630E+02  0.27126383143E+02 -0.18882214577E+02  0.47787270694E+02  0.19999998403E+02 0.  0.
        -12    1    1    2    0    0 -0.28129070630E+02 -0.27126383143E+02  0.18882214577E+02  0.43400729306E+02  0.00000000000E+00 0.  1.
         11    1    3    3    0    0  0.13314473846E+02  0.31015271773E+01 -0.41690979505E+01  0.14292517714E+02  0.51100000000E-03 0. -1.
        -11    1    3    3    0    0 -0.13812350049E+00  0.80595879747E+01 -0.24865790462E+01  0.84355860518E+01  0.51100000000E-03 0.  1.
        -12    1    3    3    0    0  0.14952720284E+02  0.15965267991E+02 -0.12226537580E+02  0.25059166928E+02  0.00000000000E+00 0.  1.
</event>
<event>
 7    1  0.2685294E-009  0.4778727E+02  0.7816164E-02  0.1312668E+00
        -11   -1    0    0    0    0  0.00000000000E+00  0.00000000000E+00  0.45593999997E+02  0.45594000000E+02  0.51100000000E-03 0. -1.
         11   -1    0    0    0    0 -0.00000000000E+00 -0.00000000000E+00 -0.45593999997E+02  0.45594000000E+02  0.51100000000E-03 0.  1.
    9900012    2    1    2    0    0 -0.39495445648E+02  0.17047186455E+02  0.57555777765E+01  0.47787268802E+02  0.19999989777E+02 0.  0.
        -12    1    1    2    0    0  0.39495445648E+02 -0.17047186455E+02 -0.57555777765E+01  0.43400731198E+02  0.00000000000E+00 0.  1.
         11    1    3    3    0    0 -0.45237535080E+00  0.51936334525E+01  0.19587472604E+01  0.55691258729E+01  0.51100000000E-03 0. -1.
        -11    1    3    3    0    0 -0.62006246046E+01  0.37529210083E+01 -0.27713128780E+01  0.77596608760E+01  0.51100000000E-03 0.  1.
         12    1    3    3    0    0 -0.32842445693E+02  0.81006319938E+01  0.65681433941E+01  0.34458482053E+02  0.00000000000E+00 0. -1.
</event>
<event>
 7    1  0.2685294E-009  0.4778727E+02  0.7816164E-02  0.1312668E+00
        -11   -1    0    0    0    0  0.00000000000E+00  0.00000000000E+00  0.45593999997E+02  0.45594000000E+02  0.51100000000E-03 0.  1.
         11   -1    0    0    0    0 -0.00000000000E+00 -0.00000000000E+00 -0.45593999997E+02  0.45594000000E+02  0.51100000000E-03 0. -1.
    9900012    2    1    2    0    0 -0.67485241349E+01  0.34467700602E+02 -0.25496241517E+02  0.47787270809E+02  0.19999998927E+02 0.  0.
        -12    1    1    2    0    0  0.67485241349E+01 -0.34467700602E+02  0.25496241517E+02  0.43400729191E+02  0.00000000000E+00 0.  1.
         11    1    3    3    0    0 -0.25447397735E+01  0.31035390401E+02 -0.20596329647E+02  0.37334701727E+02  0.51100000000E-03 0. -1.
        -11    1    3    3    0    0 -0.39163216979E+01 -0.33977496798E+00 -0.53542455845E+01  0.66423616817E+01  0.51100000000E-03 0.  1.
        -12    1    3    3    0    0 -0.28746266354E+00  0.37720851693E+01  0.45433371471E+00  0.38102074001E+01  0.00000000000E+00 0.  1.
</event>
<event>
 7    1  0.2685294E-009  0.4778727E+02  0.7816164E-02  0.1312668E+00
        -11   -1    0    0    0    0  0.00000000000E+00  0.00000000000E+00  0.45593999997E+02  0.45594000000E+02  0.51100000000E-03 0. -1.
         11   -1    0    0    0    0 -0.00000000000E+00 -0.00000000000E+00 -0.45593999997E+02  0.45594000000E+02  0.51100000000E-03 0.  1.
    9900012    2    1    2    0    0  0.29340473631E+02 -0.30948513952E+02  0.80591411497E+01  0.47787266540E+02  0.19999979464E+02 0.  0.
        -12    1    1    2    0    0 -0.29340473631E+02  0.30948513952E+02 -0.80591411497E+01  0.43400733460E+02  0.00000000000E+00 0.  1.
         11    1    3    3    0    0  0.15806256851E+02 -0.13384568486E+02 -0.41797920486E+01  0.21129483927E+02  0.51100000000E-03 0. -1.
        -11    1    3    3    0    0 -0.36975037258E+00 -0.20127070178E+01  0.34714026709E+01  0.40296825734E+01  0.51100000000E-03 0.  1.
         12    1    3    3    0    0  0.13903967152E+02 -0.15551238448E+02  0.87675305274E+01  0.22628100040E+02  0.00000000000E+00 0. -1.
</event>
<event>
 7    1  0.2685294E-009  0.4778725E+02  0.7816164E-02  0.1312668E+00
        -11   -1    0    0    0    0  0.00000000000E+00  0.00000000000E+00  0.45593999997E+02  0.45594000000E+02  0.51100000000E-03 0.  1.
         11   -1    0    0    0    0 -0.00000000000E+00 -0.00000000000E+00 -0.45593999997E+02  0.45594000000E+02  0.51100000000E-03 0. -1.
    9900012    2    1    2    0    0 -0.42106060372E+01 -0.34520154587E+02 -0.25966413066E+02  0.47787252502E+02  0.19999915457E+02 0.  0.
        -12    1    1    2    0    0  0.42106060372E+01  0.34520154587E+02  0.25966413066E+02  0.43400747498E+02  0.00000000000E+00 0.  1.
         11    1    3    3    0    0  0.10298150579E+01 -0.14654695147E+02 -0.10353263395E+01  0.14727270955E+02  0.51100000000E-03 0. -1.
        -11    1    3    3    0    0 -0.56463192079E+01 -0.18609434018E+02 -0.19765650875E+02  0.27728557659E+02  0.51100000000E-03 0.  1.
        -12    1    3    3    0    0  0.40589811284E+00 -0.12560254218E+01 -0.51654358515E+01  0.53314238880E+01  0.00000000000E+00 0.  1.
</event>
<event>
 7    1  0.2685294E-009  0.4778727E+02  0.7816164E-02  0.1312668E+00
        -11   -1    0    0    0    0  0.00000000000E+00  0.00000000000E+00  0.45593999997E+02  0.45594000000E+02  0.51100000000E-03 0.  1.
         11   -1    0    0    0    0 -0.00000000000E+00 -0.00000000000E+00 -0.45593999997E+02  0.45594000000E+02  0.51100000000E-03 0. -1.
    9900012    2    1    2    0    0  0.19299501465E+02 -0.27100410040E+02 -0.27869703951E+02  0.47787269828E+02  0.19999994453E+02 0.  0.
        -12    1    1    2    0    0 -0.19299501465E+02  0.27100410040E+02  0.27869703951E+02  0.43400730172E+02  0.00000000000E+00 0.  1.
         11    1    3    3    0    0  0.23545005186E+01 -0.15678349379E+02 -0.14612939418E+02  0.21561361521E+02  0.51100000000E-03 0. -1.
        -11    1    3    3    0    0 -0.83895477778E+00 -0.18246742568E+01  0.85825603099E-01  0.20101362038E+01  0.51100000000E-03 0.  1.
         12    1    3    3    0    0  0.17783955724E+02 -0.95973864044E+01 -0.13342590136E+02  0.24215772103E+02  0.00000000000E+00 0. -1.
</event>
<event>
 7    1  0.2685294E-009  0.4778727E+02  0.7816164E-02  0.1312668E+00
        -11   -1    0    0    0    0  0.00000000000E+00  0.00000000000E+00  0.45593999997E+02  0.45594000000E+02  0.51100000000E-03 0. -1.
         11   -1    0    0    0    0 -0.00000000000E+00 -0.00000000000E+00 -0.45593999997E+02  0.45594000000E+02  0.51100000000E-03 0.  1.
    9900012    2    1    2    0    0 -0.16840716470E+02 -0.24268318902E+02  0.31797208132E+02  0.47787268686E+02  0.19999989249E+02 0.  0.
        -12    1    1    2    0    0  0.16840716470E+02  0.24268318902E+02 -0.31797208132E+02  0.43400731314E+02  0.00000000000E+00 0.  1.
         11    1    3    3    0    0 -0.55670973896E+01 -0.61044400806E+01  0.20130021728E+02  0.21759470055E+02  0.51100000000E-03 0. -1.
        -11    1    3    3    0    0 -0.22342042416E+01 -0.82976578719E+01  0.51481058084E+00  0.86085901835E+01  0.51100000000E-03 0.  1.
         12    1    3    3    0    0 -0.90394148385E+01 -0.98662209493E+01  0.11152375824E+02  0.17419208448E+02  0.00000000000E+00 0. -1.
</event>
<event>
 7    1  0.2685294E-009  0.4778727E+02  0.7816164E-02  0.1312668E+00
        -11   -1    0    0    0    0  0.00000000000E+00  0.00000000000E+00  0.45593999997E+02  0.45594000000E+02  0.51100000000E-03 0. -1.
         11   -1    0    0    0    0 -0.00000000000E+00 -0.00000000000E+00 -0.45593999997E+02  0.45594000000E+02  0.51100000000E-03 0.  1.
    9900012    2    1    2    0    0  0.81573939625E+01  0.23950610592E+02  0.35262562991E+02  0.47787272210E+02  0.20000005314E+02 0.  0.
        -12    1    1    2    0    0 -0.81573939625E+01 -0.23950610592E+02 -0.35262562991E+02  0.43400727790E+02  0.00000000000E+00 0.  1.
         11    1    3    3    0    0  0.37132604354E+01  0.55693569100E+01 -0.16351900007E+00  0.66957283530E+01  0.51100000000E-03 0. -1.
        -11    1    3    3    0    0 -0.19863342116E+01  0.89035571610E+00  0.33555638421E+01  0.39997582253E+01  0.51100000000E-03 0.  1.
         12    1    3    3    0    0  0.64304677388E+01  0.17490897966E+02  0.32070518149E+02  0.37091785632E+02  0.00000000000E+00 0. -1.
</event>
<event>
 7    1  0.2685294E-009  0.4778728E+02  0.7816164E-02  0.1312668E+00
        -11   -1    0    0    0    0  0.00000000000E+00  0.00000000000E+00  0.45593999997E+02  0.45594000000E+02  0.51100000000E-03 0. -1.
         11   -1    0    0    0    0 -0.00000000000E+00 -0.00000000000E+00 -0.45593999997E+02  0.45594000000E+02  0.51100000000E-03 0.  1.
    9900012    2    1    2    0    0 -0.15540493146E+02 -0.32918530962E+02 -0.23632312910E+02  0.47787276257E+02  0.20000023766E+02 0.  0.
        -12    1    1    2    0    0  0.15540493146E+02  0.32918530962E+02  0.23632312910E+02  0.43400723743E+02  0.00000000000E+00 0.  1.
         11    1    3    3    0    0  0.28995374752E+01 -0.95191744816E+01 -0.12615028837E+01  0.10030622621E+02  0.51100000000E-03 0. -1.
        -11    1    3    3    0    0 -0.87092467966E+01 -0.12473829602E+02 -0.15037824816E+02  0.21391203335E+02  0.51100000000E-03 0.  1.
         12    1    3    3    0    0 -0.97307838250E+01 -0.10925526879E+02 -0.73329852112E+01  0.16365450300E+02  0.00000000000E+00 0. -1.
</event>
<event>
 7    1  0.2685294E-009  0.4778726E+02  0.7816164E-02  0.1312668E+00
        -11   -1    0    0    0    0  0.00000000000E+00  0.00000000000E+00  0.45593999997E+02  0.45594000000E+02  0.51100000000E-03 0. -1.
         11   -1    0    0    0    0 -0.00000000000E+00 -0.00000000000E+00 -0.45593999997E+02  0.45594000000E+02  0.51100000000E-03 0.  1.
    9900012    2    1    2    0    0  0.20393851395E+02 -0.35681932434E+02  0.13946855845E+02  0.47787259627E+02  0.19999947945E+02 0.  0.
        -12    1    1    2    0    0 -0.20393851395E+02  0.35681932434E+02 -0.13946855845E+02  0.43400740373E+02  0.00000000000E+00 0.  1.
         11    1    3    3    0    0  0.20639750286E+02 -0.30988713466E+02  0.89097865221E+01  0.38284251988E+02  0.51100000000E-03 0. -1.
        -11    1    3    3    0    0 -0.11225087157E+01  0.16777182961E+00  0.43745336543E+01  0.45193714339E+01  0.51100000000E-03 0.  1.
         12    1    3    3    0    0  0.87660982516E+00 -0.48609907977E+01  0.66253566828E+00  0.49836362059E+01  0.00000000000E+00 0. -1.
</event>
<event>
 7    1  0.2685294E-009  0.4778727E+02  0.7816164E-02  0.1312668E+00
        -11   -1    0    0    0    0  0.00000000000E+00  0.00000000000E+00  0.45593999997E+02  0.45594000000E+02  0.51100000000E-03 0.  1.
         11   -1    0    0    0    0 -0.00000000000E+00 -0.00000000000E+00 -0.45593999997E+02  0.45594000000E+02  0.51100000000E-03 0. -1.
    9900012    2    1    2    0    0  0.15019774665E+02  0.22851531420E+01 -0.40654736923E+02  0.47787272009E+02  0.20000004398E+02 0.  0.
        -12    1    1    2    0    0 -0.15019774665E+02 -0.22851531420E+01  0.40654736923E+02  0.43400727991E+02  0.00000000000E+00 0.  1.
         11    1    3    3    0    0 -0.57097356700E+00  0.56275262762E+01 -0.39109997468E+01  0.68768439043E+01  0.51100000000E-03 0. -1.
        -11    1    3    3    0    0  0.36066520722E+01 -0.34018248887E+01 -0.52859647084E+01  0.72471908284E+01  0.51100000000E-03 0.  1.
         12    1    3    3    0    0  0.11984096159E+02  0.59451754496E-01 -0.31457772468E+02  0.33663237276E+02  0.00000000000E+00 0. -1.
</event>
<event>
 7    1  0.2685294E-009  0.4778728E+02  0.7816164E-02  0.1312668E+00
        -11   -1    0    0    0    0  0.00000000000E+00  0.00000000000E+00  0.45593999997E+02  0.45594000000E+02  0.51100000000E-03 0.  1.
         11   -1    0    0    0    0 -0.00000000000E+00 -0.00000000000E+00 -0.45593999997E+02  0.45594000000E+02  0.51100000000E-03 0. -1.
    9900012    2    1    2    0    0  0.31874451654E+02 -0.22730038960E+02 -0.18734657391E+02  0.47787277345E+02  0.20000028728E+02 0.  0.
        -12    1    1    2    0    0 -0.31874451654E+02  0.22730038960E+02  0.18734657391E+02  0.43400722655E+02  0.00000000000E+00 0.  1.
         11    1    3    3    0    0  0.17654551769E+02 -0.21264836873E+01 -0.58290277681E+01  0.18713169054E+02  0.51100000000E-03 0. -1.
        -11    1    3    3    0    0  0.22513464888E+01 -0.93275576957E+01 -0.43024048175E+01  0.10515825267E+02  0.51100000000E-03 0.  1.
         12    1    3    3    0    0  0.11968553396E+02 -0.11275997577E+02 -0.86032248057E+01  0.18558283024E+02  0.00000000000E+00 0. -1.
</event>
<event>
 7    1  0.2685294E-009  0.4778727E+02  0.7816164E-02  0.1312668E+00
        -11   -1    0    0    0    0  0.00000000000E+00  0.00000000000E+00  0.45593999997E+02  0.45594000000E+02  0.51100000000E-03 0.  1.
         11   -1    0    0    0    0 -0.00000000000E+00 -0.00000000000E+00 -0.45593999997E+02  0.45594000000E+02  0.51100000000E-03 0. -1.
    9900012    2    1    2    0    0  0.15167420655E+02  0.96810041972E+01 -0.39494946694E+02  0.47787270675E+02  0.19999998315E+02 0.  0.
        -12    1    1    2    0    0 -0.15167420655E+02 -0.96810041972E+01  0.39494946694E+02  0.43400729325E+02  0.00000000000E+00 0.  1.
         11    1    3    3    0    0  0.66842339926E+00  0.29638815363E+01 -0.27157645313E+02  0.27327076002E+02  0.51100000000E-03 0. -1.
        -11    1    3    3    0    0  0.37053877840E+01  0.36139931939E+00 -0.36719528320E+01  0.52291247795E+01  0.51100000000E-03 0.  1.
         12    1    3    3    0    0  0.10793609472E+02  0.63557233415E+01 -0.86653485486E+01  0.15231069893E+02  0.00000000000E+00 0. -1.
</event>
<event>
 7    1  0.2685294E-009  0.4778727E+02  0.7816164E-02  0.1312668E+00
        -11   -1    0    0    0    0  0.00000000000E+00  0.00000000000E+00  0.45593999997E+02  0.45594000000E+02  0.51100000000E-03 0. -1.
         11   -1    0    0    0    0 -0.00000000000E+00 -0.00000000000E+00 -0.45593999997E+02  0.45594000000E+02  0.51100000000E-03 0.  1.
    9900012    2    1    2    0    0  0.18140064391E+02 -0.37259684974E+02  0.12894864580E+02  0.47787267368E+02  0.19999983238E+02 0.  0.
        -12    1    1    2    0    0 -0.18140064391E+02  0.37259684974E+02 -0.12894864580E+02  0.43400732632E+02  0.00000000000E+00 0.  1.
         11    1    3    3    0    0  0.82493807105E+01 -0.29080502953E+02  0.94369726070E+01  0.31666771013E+02  0.51100000000E-03 0. -1.
        -11    1    3    3    0    0  0.10247609562E+02 -0.61593198738E+01  0.55579882992E+01  0.13184914002E+02  0.51100000000E-03 0.  1.
         12    1    3    3    0    0 -0.35692588113E+00 -0.20198621467E+01 -0.21000963261E+01  0.29355823536E+01  0.00000000000E+00 0. -1.
</event>
<event>
 7    1  0.2685294E-009  0.4778728E+02  0.7816164E-02  0.1312668E+00
        -11   -1    0    0    0    0  0.00000000000E+00  0.00000000000E+00  0.45593999997E+02  0.45594000000E+02  0.51100000000E-03 0.  1.
         11   -1    0    0    0    0 -0.00000000000E+00 -0.00000000000E+00 -0.45593999997E+02  0.45594000000E+02  0.51100000000E-03 0. -1.
    9900012    2    1    2    0    0 -0.34225530157E+01 -0.29657625112E+02 -0.31501332088E+02  0.47787279732E+02  0.20000039610E+02 0.  0.
        -12    1    1    2    0    0  0.34225530157E+01  0.29657625112E+02  0.31501332088E+02  0.43400720268E+02  0.00000000000E+00 0.  1.
         11    1    3    3    0    0 -0.79753340438E+01 -0.18853125916E+02 -0.14508965728E+02  0.25090962450E+02  0.51100000000E-03 0. -1.
        -11    1    3    3    0    0  0.51038697870E+01 -0.59684150777E+01 -0.39814036039E+01  0.88047169325E+01  0.51100000000E-03 0.  1.
        -12    1    3    3    0    0 -0.55108875887E+00 -0.48360841184E+01 -0.13010962756E+02  0.13891600349E+02  0.00000000000E+00 0.  1.
</event>
<event>
 7    1  0.2685294E-009  0.4778726E+02  0.7816164E-02  0.1312668E+00
        -11   -1    0    0    0    0  0.00000000000E+00  0.00000000000E+00  0.45593999997E+02  0.45594000000E+02  0.51100000000E-03 0.  1.
         11   -1    0    0    0    0 -0.00000000000E+00 -0.00000000000E+00 -0.45593999997E+02  0.45594000000E+02  0.51100000000E-03 0. -1.
    9900012    2    1    2    0    0 -0.15285776273E+01 -0.72630936822E+01 -0.42761373317E+02  0.47787261212E+02  0.19999955169E+02 0.  0.
        -12    1    1    2    0    0  0.15285776273E+01  0.72630936822E+01  0.42761373317E+02  0.43400738788E+02  0.00000000000E+00 0.  1.
         11    1    3    3    0    0 -0.53449629457E+01 -0.12608800997E+02 -0.27952548414E+02  0.31127085546E+02  0.51100000000E-03 0. -1.
        -11    1    3    3    0    0  0.42636752539E+01  0.35266271582E+01 -0.90823159686E+01  0.10635059445E+02  0.51100000000E-03 0.  1.
         12    1    3    3    0    0 -0.44728993547E+00  0.18190801563E+01 -0.57265089344E+01  0.60251162210E+01  0.00000000000E+00 0. -1.
</event>
<event>
 7    1  0.2685294E-009  0.4778727E+02  0.7816164E-02  0.1312668E+00
        -11   -1    0    0    0    0  0.00000000000E+00  0.00000000000E+00  0.45593999997E+02  0.45594000000E+02  0.51100000000E-03 0. -1.
         11   -1    0    0    0    0 -0.00000000000E+00 -0.00000000000E+00 -0.45593999997E+02  0.45594000000E+02  0.51100000000E-03 0.  1.
    9900012    2    1    2    0    0 -0.37381881618E+02 -0.21892906737E+02 -0.26303404439E+01  0.47787272708E+02  0.20000007583E+02 0.  0.
        -12    1    1    2    0    0  0.37381881618E+02  0.21892906737E+02  0.26303404439E+01  0.43400727292E+02  0.00000000000E+00 0.  1.
         11    1    3    3    0    0 -0.26640829412E+02 -0.13403911891E+02  0.60332593746E+00  0.29828889490E+02  0.51100000000E-03 0. -1.
        -11    1    3    3    0    0  0.10238012605E+01 -0.53801288708E+01 -0.13952936308E+01  0.56516192604E+01  0.51100000000E-03 0.  1.
         12    1    3    3    0    0 -0.11764853466E+02 -0.31088659749E+01 -0.18383727506E+01  0.12306763957E+02  0.00000000000E+00 0. -1.
</event>
<event>
 7    1  0.2685294E-009  0.4778727E+02  0.7816164E-02  0.1312668E+00
        -11   -1    0    0    0    0  0.00000000000E+00  0.00000000000E+00  0.45593999997E+02  0.45594000000E+02  0.51100000000E-03 0.  1.
         11   -1    0    0    0    0 -0.00000000000E+00 -0.00000000000E+00 -0.45593999997E+02  0.45594000000E+02  0.51100000000E-03 0. -1.
    9900012    2    1    2    0    0 -0.83772973457E+01 -0.40753024475E+02  0.12354549041E+02  0.47787274238E+02  0.20000014559E+02 0.  0.
        -12    1    1    2    0    0  0.83772973457E+01  0.40753024475E+02 -0.12354549041E+02  0.43400725762E+02  0.00000000000E+00 0.  1.
         11    1    3    3    0    0 -0.24243224458E+01 -0.89938811943E+01  0.20527358423E+01  0.95383941499E+01  0.51100000000E-03 0. -1.
        -11    1    3    3    0    0 -0.35683142226E+01 -0.10229209700E+02  0.12423394506E+02  0.16483638215E+02  0.51100000000E-03 0.  1.
        -12    1    3    3    0    0 -0.23846606773E+01 -0.21529933581E+02 -0.21215813075E+01  0.21765241873E+02  0.00000000000E+00 0.  1.
</event>
<event>
 7    1  0.2685294E-009  0.4778726E+02  0.7816164E-02  0.1312668E+00
        -11   -1    0    0    0    0  0.00000000000E+00  0.00000000000E+00  0.45593999997E+02  0.45594000000E+02  0.51100000000E-03 0.  1.
         11   -1    0    0    0    0 -0.00000000000E+00 -0.00000000000E+00 -0.45593999997E+02  0.45594000000E+02  0.51100000000E-03 0. -1.
    9900012    2    1    2    0    0  0.36147151841E+02  0.23758439331E+02 -0.35417468500E+01  0.47787262720E+02  0.19999962048E+02 0.  0.
        -12    1    1    2    0    0 -0.36147151841E+02 -0.23758439331E+02  0.35417468500E+01  0.43400737280E+02  0.00000000000E+00 0.  1.
         11    1    3    3    0    0  0.16265929696E+02  0.91770045416E+01  0.68109340907E+01  0.19879303426E+02  0.51100000000E-03 0. -1.
        -11    1    3    3    0    0  0.10923149489E+02  0.12720906273E+02 -0.66291040817E+01  0.18030021418E+02  0.51100000000E-03 0.  1.
         12    1    3    3    0    0  0.89580726557E+01  0.18605285166E+01 -0.37235768590E+01  0.98779378764E+01  0.00000000000E+00 0. -1.
</event>
<event>
 7    1  0.2685294E-009  0.4778730E+02  0.7816164E-02  0.1312668E+00
        -11   -1    0    0    0    0  0.00000000000E+00  0.00000000000E+00  0.45593999997E+02  0.45594000000E+02  0.51100000000E-03 0.  1.
         11   -1    0    0    0    0 -0.00000000000E+00 -0.00000000000E+00 -0.45593999997E+02  0.45594000000E+02  0.51100000000E-03 0. -1.
    9900012    2    1    2    0    0 -0.20415011652E+02  0.26842388173E+02 -0.27319126731E+02  0.47787295064E+02  0.20000109516E+02 0.  0.
        -12    1    1    2    0    0  0.20415011652E+02 -0.26842388173E+02  0.27319126731E+02  0.43400704936E+02  0.00000000000E+00 0.  1.
         11    1    3    3    0    0 -0.63156302758E+01  0.88253743972E+01 -0.21426449284E+02  0.24018058794E+02  0.51100000000E-03 0. -1.
        -11    1    3    3    0    0 -0.46646463995E+01  0.78064581366E+01 -0.29361753767E+01  0.95561938435E+01  0.51100000000E-03 0.  1.
         12    1    3    3    0    0 -0.94347349770E+01  0.10210555639E+02 -0.29565020698E+01  0.14213042427E+02  0.00000000000E+00 0. -1.
</event>
<event>
 7    1  0.2685294E-009  0.4778727E+02  0.7816164E-02  0.1312668E+00
        -11   -1    0    0    0    0  0.00000000000E+00  0.00000000000E+00  0.45593999997E+02  0.45594000000E+02  0.51100000000E-03 0.  1.
         11   -1    0    0    0    0 -0.00000000000E+00 -0.00000000000E+00 -0.45593999997E+02  0.45594000000E+02  0.51100000000E-03 0. -1.
    9900012    2    1    2    0    0  0.22200216639E+02 -0.20095436624E+02 -0.31415713962E+02  0.47787271024E+02  0.19999999907E+02 0.  0.
        -12    1    1    2    0    0 -0.22200216639E+02  0.20095436624E+02  0.31415713962E+02  0.43400728976E+02  0.00000000000E+00 0.  1.
         11    1    3    3    0    0  0.62408358404E+01 -0.65642923516E+01 -0.11559525418E+01  0.91309469720E+01  0.51100000000E-03 0. -1.
        -11    1    3    3    0    0  0.30348929670E+01 -0.16118145936E+01  0.24770610536E+00  0.34452692465E+01  0.51100000000E-03 0.  1.
         12    1    3    3    0    0  0.12924487832E+02 -0.11919329679E+02 -0.30507467525E+02  0.35211054805E+02  0.00000000000E+00 0. -1.
</event>
<event>
 7    1  0.2685294E-009  0.4778727E+02  0.7816164E-02  0.1312668E+00
        -11   -1    0    0    0    0  0.00000000000E+00  0.00000000000E+00  0.45593999997E+02  0.45594000000E+02  0.51100000000E-03 0.  1.
         11   -1    0    0    0    0 -0.00000000000E+00 -0.00000000000E+00 -0.45593999997E+02  0.45594000000E+02  0.51100000000E-03 0. -1.
    9900012    2    1    2    0    0  0.38103534443E+02 -0.13198367403E+01 -0.20736483585E+02  0.47787273537E+02  0.20000011364E+02 0.  0.
        -12    1    1    2    0    0 -0.38103534443E+02  0.13198367403E+01  0.20736483585E+02  0.43400726463E+02  0.00000000000E+00 0.  1.
         11    1    3    3    0    0  0.12973516094E+02 -0.30572599545E+01 -0.92232708753E+01  0.16208876709E+02  0.51100000000E-03 0. -1.
        -11    1    3    3    0    0  0.15037609693E+02  0.58999549855E+01 -0.12766767153E+02  0.20589548755E+02  0.51100000000E-03 0.  1.
        -12    1    3    3    0    0  0.10092408656E+02 -0.41625317713E+01  0.12535544441E+01  0.10988848073E+02  0.00000000000E+00 0.  1.
</event>
<event>
 7    1  0.2685294E-009  0.4778727E+02  0.7816164E-02  0.1312668E+00
        -11   -1    0    0    0    0  0.00000000000E+00  0.00000000000E+00  0.45593999997E+02  0.45594000000E+02  0.51100000000E-03 0.  1.
         11   -1    0    0    0    0 -0.00000000000E+00 -0.00000000000E+00 -0.45593999997E+02  0.45594000000E+02  0.51100000000E-03 0. -1.
    9900012    2    1    2    0    0  0.49007968273E+01 -0.10354390141E+02 -0.41861583517E+02  0.47787269830E+02  0.19999994463E+02 0.  0.
        -12    1    1    2    0    0 -0.49007968273E+01  0.10354390141E+02  0.41861583517E+02  0.43400730170E+02  0.00000000000E+00 0.  1.
         11    1    3    3    0    0  0.41189114473E-02 -0.13053448303E+02 -0.22602513173E+02  0.26101075295E+02  0.51100000000E-03 0. -1.
        -11    1    3    3    0    0  0.28346591681E+01  0.42877557080E+01 -0.18137558819E+02  0.18851821710E+02  0.51100000000E-03 0.  1.
         12    1    3    3    0    0  0.20620187478E+01 -0.15886975459E+01 -0.11215115243E+01  0.28343728244E+01  0.00000000000E+00 0. -1.
</event>
<event>
 7    1  0.2685294E-009  0.4778731E+02  0.7816164E-02  0.1312668E+00
        -11   -1    0    0    0    0  0.00000000000E+00  0.00000000000E+00  0.45593999997E+02  0.45594000000E+02  0.51100000000E-03 0.  1.
         11   -1    0    0    0    0 -0.00000000000E+00 -0.00000000000E+00 -0.45593999997E+02  0.45594000000E+02  0.51100000000E-03 0. -1.
    9900012    2    1    2    0    0  0.19701218016E+02  0.16108059859E+02 -0.35156962377E+02  0.47787313516E+02  0.20000193645E+02 0.  0.
        -12    1    1    2    0    0 -0.19701218016E+02 -0.16108059859E+02  0.35156962377E+02  0.43400686484E+02  0.00000000000E+00 0.  1.
         11    1    3    3    0    0  0.30289524860E+01 -0.40187765578E+01 -0.75815656148E+01  0.90997393158E+01  0.51100000000E-03 0. -1.
        -11    1    3    3    0    0 -0.40898692798E+00  0.22802470876E+01 -0.14553397053E+01  0.27358382640E+01  0.51100000000E-03 0.  1.
         12    1    3    3    0    0  0.17081252458E+02  0.17846589329E+02 -0.26120057056E+02  0.35951735936E+02  0.00000000000E+00 0. -1.
</event>
<event>
 7    1  0.2685294E-009  0.4778725E+02  0.7816164E-02  0.1312668E+00
        -11   -1    0    0    0    0  0.00000000000E+00  0.00000000000E+00  0.45593999997E+02  0.45594000000E+02  0.51100000000E-03 0. -1.
         11   -1    0    0    0    0 -0.00000000000E+00 -0.00000000000E+00 -0.45593999997E+02  0.45594000000E+02  0.51100000000E-03 0.  1.
    9900012    2    1    2    0    0  0.11834799171E+02  0.33624261257E+02  0.24758263105E+02  0.47787251061E+02  0.19999908888E+02 0.  0.
        -12    1    1    2    0    0 -0.11834799171E+02 -0.33624261257E+02 -0.24758263105E+02  0.43400748939E+02  0.00000000000E+00 0.  1.
         11    1    3    3    0    0 -0.38412024721E+01  0.73316423248E+01  0.10183113690E+02  0.13122637703E+02  0.51100000000E-03 0. -1.
        -11    1    3    3    0    0  0.11698786187E+02  0.20722412974E+02  0.14407336653E+02  0.27818183755E+02  0.51100000000E-03 0.  1.
         12    1    3    3    0    0  0.39772154553E+01  0.55702059581E+01  0.16781276273E+00  0.68464296036E+01  0.00000000000E+00 0. -1.
</event>
<event>
 7    1  0.2685294E-009  0.4778727E+02  0.7816164E-02  0.1312668E+00
        -11   -1    0    0    0    0  0.00000000000E+00  0.00000000000E+00  0.45593999997E+02  0.45594000000E+02  0.51100000000E-03 0. -1.
         11   -1    0    0    0    0 -0.00000000000E+00 -0.00000000000E+00 -0.45593999997E+02  0.45594000000E+02  0.51100000000E-03 0.  1.
    9900012    2    1    2    0    0  0.98627301451E+01  0.58546330140E+01  0.41857771059E+02  0.47787272222E+02  0.20000005367E+02 0.  0.
        -12    1    1    2    0    0 -0.98627301451E+01 -0.58546330140E+01 -0.41857771059E+02  0.43400727778E+02  0.00000000000E+00 0.  1.
         11    1    3    3    0    0  0.50007028223E+01  0.40570724938E+01  0.53034168764E+01  0.83422477045E+01  0.51100000000E-03 0. -1.
        -11    1    3    3    0    0  0.55342219402E+00  0.46641963629E+01  0.31807912506E+01  0.56726040826E+01  0.51100000000E-03 0.  1.
         12    1    3    3    0    0  0.43086051288E+01 -0.28666358427E+01  0.33373562932E+02  0.33772420435E+02  0.00000000000E+00 0. -1.
</event>
<event>
 7    1  0.2685294E-009  0.4778727E+02  0.7816164E-02  0.1312668E+00
        -11   -1    0    0    0    0  0.00000000000E+00  0.00000000000E+00  0.45593999997E+02  0.45594000000E+02  0.51100000000E-03 0.  1.
         11   -1    0    0    0    0 -0.00000000000E+00 -0.00000000000E+00 -0.45593999997E+02  0.45594000000E+02  0.51100000000E-03 0. -1.
    9900012    2    1    2    0    0  0.13383660367E+02 -0.32127213029E+02 -0.25929578424E+02  0.47787271676E+02  0.20000002878E+02 0.  0.
        -12    1    1    2    0    0 -0.13383660367E+02  0.32127213029E+02  0.25929578424E+02  0.43400728324E+02  0.00000000000E+00 0.  1.
         11    1    3    3    0    0  0.60813232704E+01 -0.17939747268E+02 -0.15611453352E+02  0.24546578189E+02  0.51100000000E-03 0. -1.
        -11    1    3    3    0    0 -0.92185353290E+00 -0.84402162841E+01  0.47584474595E+00  0.85037340823E+01  0.51100000000E-03 0.  1.
        -12    1    3    3    0    0  0.82241906293E+01 -0.57472494773E+01 -0.10793969818E+02  0.14736959404E+02  0.00000000000E+00 0.  1.
</event>
<event>
 7    1  0.2685294E-009  0.4778727E+02  0.7816164E-02  0.1312668E+00
        -11   -1    0    0    0    0  0.00000000000E+00  0.00000000000E+00  0.45593999997E+02  0.45594000000E+02  0.51100000000E-03 0. -1.
         11   -1    0    0    0    0 -0.00000000000E+00 -0.00000000000E+00 -0.45593999997E+02  0.45594000000E+02  0.51100000000E-03 0.  1.
    9900012    2    1    2    0    0  0.12281360383E+02  0.18029062526E+02  0.37519920345E+02  0.47787270385E+02  0.19999996992E+02 0.  0.
        -12    1    1    2    0    0 -0.12281360383E+02 -0.18029062526E+02 -0.37519920345E+02  0.43400729615E+02  0.00000000000E+00 0.  1.
         11    1    3    3    0    0  0.21574768583E+01  0.16775530859E+01  0.10436825005E+02  0.10788707392E+02  0.51100000000E-03 0. -1.
        -11    1    3    3    0    0  0.40343718458E+01  0.78053146552E+01  0.24729611048E+02  0.26244099449E+02  0.51100000000E-03 0.  1.
        -12    1    3    3    0    0  0.60895116788E+01  0.85461947849E+01  0.23534842927E+01  0.10754463543E+02  0.00000000000E+00 0.  1.
</event>
<event>
 7    1  0.2685294E-009  0.4778721E+02  0.7816164E-02  0.1312668E+00
        -11   -1    0    0    0    0  0.00000000000E+00  0.00000000000E+00  0.45593999997E+02  0.45594000000E+02  0.51100000000E-03 0. -1.
         11   -1    0    0    0    0 -0.00000000000E+00 -0.00000000000E+00 -0.45593999997E+02  0.45594000000E+02  0.51100000000E-03 0.  1.
    9900012    2    1    2    0    0 -0.82152449089E-01  0.21868171270E+02  0.37488727582E+02  0.47787212456E+02  0.19999732870E+02 0.  0.
        -12    1    1    2    0    0  0.82152449089E-01 -0.21868171270E+02 -0.37488727582E+02  0.43400787544E+02  0.00000000000E+00 0.  1.
         11    1    3    3    0    0 -0.12304722355E+01  0.60999910978E+01 -0.10296432889E+00  0.62237091216E+01  0.51100000000E-03 0. -1.
        -11    1    3    3    0    0  0.19018498580E+01  0.14974006008E+02  0.27143649878E+02  0.31058261667E+02  0.51100000000E-03 0.  1.
        -12    1    3    3    0    0 -0.75353007157E+00  0.79417416399E+00  0.10448042033E+02  0.10505241668E+02  0.00000000000E+00 0.  1.
</event>
<event>
 7    1  0.2685294E-009  0.4778727E+02  0.7816164E-02  0.1312668E+00
        -11   -1    0    0    0    0  0.00000000000E+00  0.00000000000E+00  0.45593999997E+02  0.45594000000E+02  0.51100000000E-03 0. -1.
         11   -1    0    0    0    0 -0.00000000000E+00 -0.00000000000E+00 -0.45593999997E+02  0.45594000000E+02  0.51100000000E-03 0.  1.
    9900012    2    1    2    0    0 -0.30538190859E+02 -0.26030761400E+02  0.16536070177E+02  0.47787271240E+02  0.20000000894E+02 0.  0.
        -12    1    1    2    0    0  0.30538190859E+02  0.26030761400E+02 -0.16536070177E+02  0.43400728760E+02  0.00000000000E+00 0.  1.
         11    1    3    3    0    0 -0.28817755975E+02 -0.19797676108E+02  0.11980875986E+02  0.36958793654E+02  0.51100000000E-03 0. -1.
        -11    1    3    3    0    0 -0.12008055177E+01  0.70177081309E+00 -0.11724966543E+01  0.18191110002E+01  0.51100000000E-03 0.  1.
         12    1    3    3    0    0 -0.51962936646E+00 -0.69348561048E+01  0.57276908455E+01  0.90093665868E+01  0.00000000000E+00 0. -1.
</event>
<event>
 7    1  0.2685294E-009  0.4778727E+02  0.7816164E-02  0.1312668E+00
        -11   -1    0    0    0    0  0.00000000000E+00  0.00000000000E+00  0.45593999997E+02  0.45594000000E+02  0.51100000000E-03 0. -1.
         11   -1    0    0    0    0 -0.00000000000E+00 -0.00000000000E+00 -0.45593999997E+02  0.45594000000E+02  0.51100000000E-03 0.  1.
    9900012    2    1    2    0    0 -0.29409790184E+02  0.30168953585E+02  0.10417401417E+02  0.47787265313E+02  0.19999973870E+02 0.  0.
        -12    1    1    2    0    0  0.29409790184E+02 -0.30168953585E+02 -0.10417401417E+02  0.43400734687E+02  0.00000000000E+00 0.  1.
         11    1    3    3    0    0 -0.55530830181E+01  0.30635848399E+01 -0.37215283081E+00  0.63530135423E+01  0.51100000000E-03 0.  1.
        -11    1    3    3    0    0 -0.18731042754E+02  0.18261567382E+02 -0.55259718932E+00  0.26165667769E+02  0.51100000000E-03 0. -1.
        -12    1    3    3    0    0 -0.51256644121E+01  0.88438013625E+01  0.11342151437E+02  0.15268584002E+02  0.00000000000E+00 0.  1.
</event>
<event>
 7    1  0.2685294E-009  0.4778727E+02  0.7816164E-02  0.1312668E+00
        -11   -1    0    0    0    0  0.00000000000E+00  0.00000000000E+00  0.45593999997E+02  0.45594000000E+02  0.51100000000E-03 0.  1.
         11   -1    0    0    0    0 -0.00000000000E+00 -0.00000000000E+00 -0.45593999997E+02  0.45594000000E+02  0.51100000000E-03 0. -1.
    9900012    2    1    2    0    0 -0.31066712493E+02 -0.27801296004E+02  0.12065250881E+02  0.47787274620E+02  0.20000016304E+02 0.  0.
        -12    1    1    2    0    0  0.31066712493E+02  0.27801296004E+02 -0.12065250881E+02  0.43400725380E+02  0.00000000000E+00 0.  1.
         11    1    3    3    0    0  0.12519272609E+01 -0.65860875580E+00 -0.18054807813E+01  0.22936539566E+01  0.51100000000E-03 0. -1.
        -11    1    3    3    0    0 -0.75187532384E+00  0.46827258381E+00  0.15460189610E+01  0.17817885969E+01  0.51100000000E-03 0.  1.
         12    1    3    3    0    0 -0.31566764430E+02 -0.27610959832E+02  0.12324712701E+02  0.43711832067E+02  0.00000000000E+00 0. -1.
</event>
<event>
 7    1  0.2685294E-009  0.4778727E+02  0.7816164E-02  0.1312668E+00
        -11   -1    0    0    0    0  0.00000000000E+00  0.00000000000E+00  0.45593999997E+02  0.45594000000E+02  0.51100000000E-03 0. -1.
         11   -1    0    0    0    0 -0.00000000000E+00 -0.00000000000E+00 -0.45593999997E+02  0.45594000000E+02  0.51100000000E-03 0.  1.
    9900012    2    1    2    0    0  0.39565738054E+02  0.13585569957E+02 -0.11558883514E+02  0.47787272738E+02  0.20000007722E+02 0.  0.
        -12    1    1    2    0    0 -0.39565738054E+02 -0.13585569957E+02  0.11558883514E+02  0.43400727262E+02  0.00000000000E+00 0.  1.
         11    1    3    3    0    0  0.82651294734E+01  0.38963922623E+00  0.39754700417E+01  0.91797900985E+01  0.51100000000E-03 0. -1.
        -11    1    3    3    0    0  0.29019601938E+02  0.11057715847E+02 -0.10692972609E+02  0.32844330407E+02  0.51100000000E-03 0.  1.
         12    1    3    3    0    0  0.22810066423E+01  0.21382148838E+01 -0.48413809465E+01  0.57631522330E+01  0.00000000000E+00 0. -1.
</event>
<event>
 7    1  0.2685294E-009  0.4778727E+02  0.7816164E-02  0.1312668E+00
        -11   -1    0    0    0    0  0.00000000000E+00  0.00000000000E+00  0.45593999997E+02  0.45594000000E+02  0.51100000000E-03 0. -1.
         11   -1    0    0    0    0 -0.00000000000E+00 -0.00000000000E+00 -0.45593999997E+02  0.45594000000E+02  0.51100000000E-03 0.  1.
    9900012    2    1    2    0    0 -0.23853455937E+02  0.35554544344E+02  0.71070610483E+01  0.47787270739E+02  0.19999998606E+02 0.  0.
        -12    1    1    2    0    0  0.23853455937E+02 -0.35554544344E+02 -0.71070610483E+01  0.43400729261E+02  0.00000000000E+00 0.  1.
         11    1    3    3    0    0 -0.12940481457E+02  0.26172396652E+02  0.75161336694E+01  0.30148676131E+02  0.51100000000E-03 0. -1.
        -11    1    3    3    0    0 -0.98525182801E+01  0.77968591785E+01 -0.43208904660E+01  0.13286580606E+02  0.51100000000E-03 0.  1.
         12    1    3    3    0    0 -0.10604562000E+01  0.15852885135E+01  0.39118178449E+01  0.43520140022E+01  0.00000000000E+00 0. -1.
</event>
<event>
 7    1  0.2685294E-009  0.4778727E+02  0.7816164E-02  0.1312668E+00
        -11   -1    0    0    0    0  0.00000000000E+00  0.00000000000E+00  0.45593999997E+02  0.45594000000E+02  0.51100000000E-03 0.  1.
         11   -1    0    0    0    0 -0.00000000000E+00 -0.00000000000E+00 -0.45593999997E+02  0.45594000000E+02  0.51100000000E-03 0. -1.
    9900012    2    1    2    0    0 -0.14559496273E+02 -0.25494627042E+02 -0.31963551498E+02  0.47787267701E+02  0.19999984757E+02 0.  0.
        -12    1    1    2    0    0  0.14559496273E+02  0.25494627042E+02  0.31963551498E+02  0.43400732299E+02  0.00000000000E+00 0.  1.
         11    1    3    3    0    0 -0.80526702570E+01 -0.17313775775E+02 -0.94888558235E+01  0.21322540068E+02  0.51100000000E-03 0. -1.
        -11    1    3    3    0    0 -0.83242296048E+01 -0.66380851311E+01 -0.13580023448E+02  0.17256129631E+02  0.51100000000E-03 0.  1.
         12    1    3    3    0    0  0.18174035888E+01 -0.15427661353E+01 -0.88946722261E+01  0.92085980020E+01  0.00000000000E+00 0. -1.
</event>
<event>
 7    1  0.2685294E-009  0.4778727E+02  0.7816164E-02  0.1312668E+00
        -11   -1    0    0    0    0  0.00000000000E+00  0.00000000000E+00  0.45593999997E+02  0.45594000000E+02  0.51100000000E-03 0.  1.
         11   -1    0    0    0    0 -0.00000000000E+00 -0.00000000000E+00 -0.45593999997E+02  0.45594000000E+02  0.51100000000E-03 0. -1.
    9900012    2    1    2    0    0 -0.22050961319E+02 -0.36215431662E+02 -0.92639609787E+01  0.47787270069E+02  0.19999995552E+02 0.  0.
        -12    1    1    2    0    0  0.22050961319E+02  0.36215431662E+02  0.92639609787E+01  0.43400729931E+02  0.00000000000E+00 0.  1.
         11    1    3    3    0    0 -0.53013167999E+01 -0.25706602355E+02 -0.27577862683E+01  0.26392020571E+02  0.51100000000E-03 0. -1.
        -11    1    3    3    0    0 -0.99279303161E+01 -0.39451048166E+01 -0.50525278882E+01  0.11817600886E+02  0.51100000000E-03 0.  1.
         12    1    3    3    0    0 -0.68217142035E+01 -0.65637244900E+01 -0.14536468222E+01  0.95776486122E+01  0.00000000000E+00 0. -1.
</event>
<event>
 7    1  0.2685294E-009  0.4778727E+02  0.7816164E-02  0.1312668E+00
        -11   -1    0    0    0    0  0.00000000000E+00  0.00000000000E+00  0.45593999997E+02  0.45594000000E+02  0.51100000000E-03 0. -1.
         11   -1    0    0    0    0 -0.00000000000E+00 -0.00000000000E+00 -0.45593999997E+02  0.45594000000E+02  0.51100000000E-03 0.  1.
    9900012    2    1    2    0    0  0.27875470731E+02 -0.18541651154E+02  0.27618627149E+02  0.47787271186E+02  0.20000000645E+02 0.  0.
        -12    1    1    2    0    0 -0.27875470731E+02  0.18541651154E+02 -0.27618627149E+02  0.43400728814E+02  0.00000000000E+00 0.  1.
         11    1    3    3    0    0 -0.14735649521E+01  0.17018436089E+01  0.35064435165E+01  0.41668707363E+01  0.51100000000E-03 0. -1.
        -11    1    3    3    0    0  0.18951175677E+02 -0.89085525242E+01  0.13053135232E+02  0.24675771665E+02  0.51100000000E-03 0.  1.
         12    1    3    3    0    0  0.10397860006E+02 -0.11334942239E+02  0.11059048400E+02  0.18944628784E+02  0.00000000000E+00 0. -1.
</event>
<event>
 7    1  0.2685294E-009  0.4778728E+02  0.7816164E-02  0.1312668E+00
        -11   -1    0    0    0    0  0.00000000000E+00  0.00000000000E+00  0.45593999997E+02  0.45594000000E+02  0.51100000000E-03 0. -1.
         11   -1    0    0    0    0 -0.00000000000E+00 -0.00000000000E+00 -0.45593999997E+02  0.45594000000E+02  0.51100000000E-03 0.  1.
    9900012    2    1    2    0    0 -0.17611417105E+02  0.34844982005E+02  0.18954883471E+02  0.47787281218E+02  0.20000046387E+02 0.  0.
        -12    1    1    2    0    0  0.17611417105E+02 -0.34844982005E+02 -0.18954883471E+02  0.43400718782E+02  0.00000000000E+00 0.  1.
         11    1    3    3    0    0 -0.18680654238E+02  0.31111134303E+02  0.10586977140E+02  0.37801502690E+02  0.51100000000E-03 0. -1.
        -11    1    3    3    0    0  0.79334182906E+00 -0.64022730403E+00  0.11090370764E+01  0.15064015920E+01  0.51100000000E-03 0.  1.
         12    1    3    3    0    0  0.27589530403E+00  0.43740750058E+01  0.72588692549E+01  0.84793769367E+01  0.00000000000E+00 0. -1.
</event>
<event>
 7    1  0.2685294E-009  0.4778727E+02  0.7816164E-02  0.1312668E+00
        -11   -1    0    0    0    0  0.00000000000E+00  0.00000000000E+00  0.45593999997E+02  0.45594000000E+02  0.51100000000E-03 0.  1.
         11   -1    0    0    0    0 -0.00000000000E+00 -0.00000000000E+00 -0.45593999997E+02  0.45594000000E+02  0.51100000000E-03 0. -1.
    9900012    2    1    2    0    0 -0.24343891232E+02 -0.35547873904E+02  0.52294042064E+01  0.47787273649E+02  0.20000011877E+02 0.  0.
        -12    1    1    2    0    0  0.24343891232E+02  0.35547873904E+02 -0.52294042064E+01  0.43400726351E+02  0.00000000000E+00 0.  1.
         11    1    3    3    0    0 -0.71643115322E+01 -0.99136597140E+01 -0.52170318567E+00  0.12242556234E+02  0.51100000000E-03 0. -1.
        -11    1    3    3    0    0 -0.17260053223E+02 -0.27604728293E+02  0.68753439122E+01  0.33274627204E+02  0.51100000000E-03 0.  1.
        -12    1    3    3    0    0  0.80473522704E-01  0.19705141030E+01 -0.11242365201E+01  0.22700902121E+01  0.00000000000E+00 0.  1.
</event>
<event>
 7    1  0.2685294E-009  0.4778727E+02  0.7816164E-02  0.1312668E+00
        -11   -1    0    0    0    0  0.00000000000E+00  0.00000000000E+00  0.45593999997E+02  0.45594000000E+02  0.51100000000E-03 0.  1.
         11   -1    0    0    0    0 -0.00000000000E+00 -0.00000000000E+00 -0.45593999997E+02  0.45594000000E+02  0.51100000000E-03 0. -1.
    9900012    2    1    2    0    0  0.11347038225E+02  0.17225049298E+01 -0.41855714312E+02  0.47787272814E+02  0.20000008068E+02 0.  0.
        -12    1    1    2    0    0 -0.11347038225E+02 -0.17225049298E+01  0.41855714312E+02  0.43400727186E+02  0.00000000000E+00 0.  1.
         11    1    3    3    0    0  0.41590842340E+01  0.12270792071E+01 -0.31340482023E+02  0.31639050535E+02  0.51100000000E-03 0. -1.
        -11    1    3    3    0    0  0.50131223514E+00 -0.11319569590E+01 -0.90216309121E+01  0.91061773039E+01  0.51100000000E-03 0.  1.
         12    1    3    3    0    0  0.66866417555E+01  0.16273826817E+01 -0.14936013770E+01  0.70420449752E+01  0.00000000000E+00 0. -1.
</event>
<event>
 7    1  0.2685294E-009  0.4778727E+02  0.7816164E-02  0.1312668E+00
        -11   -1    0    0    0    0  0.00000000000E+00  0.00000000000E+00  0.45593999997E+02  0.45594000000E+02  0.51100000000E-03 0.  1.
         11   -1    0    0    0    0 -0.00000000000E+00 -0.00000000000E+00 -0.45593999997E+02  0.45594000000E+02  0.51100000000E-03 0. -1.
    9900012    2    1    2    0    0  0.88162207956E+00 -0.43187399892E+02  0.42064930081E+01  0.47787270163E+02  0.19999995983E+02 0.  0.
        -12    1    1    2    0    0 -0.88162207956E+00  0.43187399892E+02 -0.42064930081E+01  0.43400729837E+02  0.00000000000E+00 0.  1.
         11    1    3    3    0    0  0.39251608728E+01 -0.18885299866E+02 -0.54693198808E+01  0.20049311687E+02  0.51100000000E-03 0. -1.
        -11    1    3    3    0    0 -0.60095389865E+01 -0.18862199848E+02  0.75570699244E+01  0.21189772251E+02  0.51100000000E-03 0.  1.
        -12    1    3    3    0    0  0.29660001933E+01 -0.54399001776E+01  0.21187429645E+01  0.65481862251E+01  0.00000000000E+00 0.  1.
</event>
<event>
 7    1  0.2685294E-009  0.4778727E+02  0.7816164E-02  0.1312668E+00
        -11   -1    0    0    0    0  0.00000000000E+00  0.00000000000E+00  0.45593999997E+02  0.45594000000E+02  0.51100000000E-03 0.  1.
         11   -1    0    0    0    0 -0.00000000000E+00 -0.00000000000E+00 -0.45593999997E+02  0.45594000000E+02  0.51100000000E-03 0. -1.
    9900012    2    1    2    0    0  0.48817339196E+01  0.42823064946E+02 -0.50967741309E+01  0.47787270468E+02  0.19999997371E+02 0.  0.
        -12    1    1    2    0    0 -0.48817339196E+01 -0.42823064946E+02  0.50967741309E+01  0.43400729532E+02  0.00000000000E+00 0.  1.
         11    1    3    3    0    0 -0.27627355614E+01  0.30558547868E+01 -0.17764110114E+01  0.44862671123E+01  0.51100000000E-03 0. -1.
        -11    1    3    3    0    0  0.11943007782E+02  0.32394913747E+02 -0.14056957567E+01  0.34554910684E+02  0.51100000000E-03 0.  1.
        -12    1    3    3    0    0 -0.42985383010E+01  0.73722964119E+01 -0.19146673628E+01  0.87460926716E+01  0.00000000000E+00 0.  1.
</event>
<event>
 7    1  0.2685294E-009  0.4778727E+02  0.7816164E-02  0.1312668E+00
        -11   -1    0    0    0    0  0.00000000000E+00  0.00000000000E+00  0.45593999997E+02  0.45594000000E+02  0.51100000000E-03 0.  1.
         11   -1    0    0    0    0 -0.00000000000E+00 -0.00000000000E+00 -0.45593999997E+02  0.45594000000E+02  0.51100000000E-03 0. -1.
    9900012    2    1    2    0    0  0.72206055487E+01  0.16502073499E+02 -0.39486299220E+02  0.47787269588E+02  0.19999993359E+02 0.  0.
        -12    1    1    2    0    0 -0.72206055487E+01 -0.16502073499E+02  0.39486299220E+02  0.43400730412E+02  0.00000000000E+00 0.  1.
         11    1    3    3    0    0  0.35373053991E+01  0.12914007926E+02 -0.29600266175E+02  0.32487842158E+02  0.51100000000E-03 0. -1.
        -11    1    3    3    0    0  0.28978986826E+00 -0.36609386491E+01 -0.30920822648E+01  0.48007731621E+01  0.51100000000E-03 0.  1.
         12    1    3    3    0    0  0.33935102813E+01  0.72490042216E+01 -0.67939507800E+01  0.10498654268E+02  0.00000000000E+00 0. -1.
</event>
<event>
 7    1  0.2685294E-009  0.4778727E+02  0.7816164E-02  0.1312668E+00
        -11   -1    0    0    0    0  0.00000000000E+00  0.00000000000E+00  0.45593999997E+02  0.45594000000E+02  0.51100000000E-03 0. -1.
         11   -1    0    0    0    0 -0.00000000000E+00 -0.00000000000E+00 -0.45593999997E+02  0.45594000000E+02  0.51100000000E-03 0.  1.
    9900012    2    1    2    0    0  0.23410448973E+02  0.36213859562E+02 -0.49122950357E+01  0.47787269729E+02  0.19999994004E+02 0.  0.
        -12    1    1    2    0    0 -0.23410448973E+02 -0.36213859562E+02  0.49122950357E+01  0.43400730271E+02  0.00000000000E+00 0.  1.
         11    1    3    3    0    0  0.59557334889E+00  0.97856088405E+01 -0.39847046264E+01  0.10582566759E+02  0.51100000000E-03 0. -1.
        -11    1    3    3    0    0  0.75709956503E+01  0.16977985974E+02 -0.39811464021E+01  0.19011089127E+02  0.51100000000E-03 0.  1.
         12    1    3    3    0    0  0.15243879974E+02  0.94502647473E+01  0.30535559929E+01  0.18193613843E+02  0.00000000000E+00 0. -1.
</event>
<event>
 7    1  0.2685294E-009  0.4778728E+02  0.7816164E-02  0.1312668E+00
        -11   -1    0    0    0    0  0.00000000000E+00  0.00000000000E+00  0.45593999997E+02  0.45594000000E+02  0.51100000000E-03 0.  1.
         11   -1    0    0    0    0 -0.00000000000E+00 -0.00000000000E+00 -0.45593999997E+02  0.45594000000E+02  0.51100000000E-03 0. -1.
    9900012    2    1    2    0    0  0.18194753333E+02 -0.31577373880E+02 -0.23567838488E+02  0.47787278796E+02  0.20000035344E+02 0.  0.
        -12    1    1    2    0    0 -0.18194753333E+02  0.31577373880E+02  0.23567838488E+02  0.43400721204E+02  0.00000000000E+00 0.  1.
         11    1    3    3    0    0 -0.88573646758E+00 -0.10587065636E+02 -0.77149770061E+01  0.13129788968E+02  0.51100000000E-03 0. -1.
        -11    1    3    3    0    0  0.17717406850E+02 -0.14766860420E+02 -0.77110122922E+01  0.24319259507E+02  0.51100000000E-03 0.  1.
        -12    1    3    3    0    0  0.13630829509E+01 -0.62234478243E+01 -0.81418491898E+01  0.10338230322E+02  0.00000000000E+00 0.  1.
</event>
<event>
 7    1  0.2685294E-009  0.4778728E+02  0.7816164E-02  0.1312668E+00
        -11   -1    0    0    0    0  0.00000000000E+00  0.00000000000E+00  0.45593999997E+02  0.45594000000E+02  0.51100000000E-03 0.  1.
         11   -1    0    0    0    0 -0.00000000000E+00 -0.00000000000E+00 -0.45593999997E+02  0.45594000000E+02  0.51100000000E-03 0. -1.
    9900012    2    1    2    0    0 -0.42742191724E+02  0.74432514567E+01 -0.11514877410E+01  0.47787275701E+02  0.20000021233E+02 0.  0.
        -12    1    1    2    0    0  0.42742191724E+02 -0.74432514567E+01  0.11514877410E+01  0.43400724299E+02  0.00000000000E+00 0.  1.
         11    1    3    3    0    0 -0.92402563958E+01  0.19559713541E+01 -0.70130291905E+01  0.11763959405E+02  0.51100000000E-03 0. -1.
        -11    1    3    3    0    0 -0.31655229086E+02  0.71399435302E+01  0.71519660822E+01  0.33229248279E+02  0.51100000000E-03 0.  1.
        -12    1    3    3    0    0 -0.18467062425E+01 -0.16526634276E+01 -0.12904246327E+01  0.27940680171E+01  0.00000000000E+00 0.  1.
</event>
<event>
 7    1  0.2685294E-009  0.4778727E+02  0.7816164E-02  0.1312668E+00
        -11   -1    0    0    0    0  0.00000000000E+00  0.00000000000E+00  0.45593999997E+02  0.45594000000E+02  0.51100000000E-03 0. -1.
         11   -1    0    0    0    0 -0.00000000000E+00 -0.00000000000E+00 -0.45593999997E+02  0.45594000000E+02  0.51100000000E-03 0.  1.
    9900012    2    1    2    0    0  0.18286371607E+02  0.36654938475E+02 -0.14340405721E+02  0.47787272617E+02  0.20000007169E+02 0.  0.
        -12    1    1    2    0    0 -0.18286371607E+02 -0.36654938475E+02  0.14340405721E+02  0.43400727383E+02  0.00000000000E+00 0.  1.
         11    1    3    3    0    0  0.44896099090E+01 -0.25522256382E+00 -0.31362118574E+01  0.54824776122E+01  0.51100000000E-03 0. -1.
        -11    1    3    3    0    0  0.33835955885E+01  0.88816365231E+01 -0.76368673200E+01  0.12192371761E+02  0.51100000000E-03 0.  1.
         12    1    3    3    0    0  0.10413166110E+02  0.28028524515E+02 -0.35673265438E+01  0.30112423244E+02  0.00000000000E+00 0. -1.
</event>
<event>
 7    1  0.2685294E-009  0.4778727E+02  0.7816164E-02  0.1312668E+00
        -11   -1    0    0    0    0  0.00000000000E+00  0.00000000000E+00  0.45593999997E+02  0.45594000000E+02  0.51100000000E-03 0.  1.
         11   -1    0    0    0    0 -0.00000000000E+00 -0.00000000000E+00 -0.45593999997E+02  0.45594000000E+02  0.51100000000E-03 0. -1.
    9900012    2    1    2    0    0  0.16354560185E+02 -0.18715080765E+02 -0.35579448031E+02  0.47787274095E+02  0.20000013908E+02 0.  0.
        -12    1    1    2    0    0 -0.16354560185E+02  0.18715080765E+02  0.35579448031E+02  0.43400725905E+02  0.00000000000E+00 0.  1.
         11    1    3    3    0    0  0.11950062552E+02 -0.90719188666E+01 -0.10633821785E+02  0.18389721938E+02  0.51100000000E-03 0. -1.
        -11    1    3    3    0    0 -0.37862755087E+00  0.10471214064E+01 -0.11552704136E+02  0.11606239494E+02  0.51100000000E-03 0.  1.
         12    1    3    3    0    0  0.47831251841E+01 -0.10690283305E+02 -0.13392922110E+02  0.17791312664E+02  0.00000000000E+00 0. -1.
</event>
<event>
 7    1  0.2685294E-009  0.4778728E+02  0.7816164E-02  0.1312668E+00
        -11   -1    0    0    0    0  0.00000000000E+00  0.00000000000E+00  0.45593999997E+02  0.45594000000E+02  0.51100000000E-03 0.  1.
         11   -1    0    0    0    0 -0.00000000000E+00 -0.00000000000E+00 -0.45593999997E+02  0.45594000000E+02  0.51100000000E-03 0. -1.
    9900012    2    1    2    0    0 -0.14246011912E+02  0.19437255240E+02 -0.36095243234E+02  0.47787281909E+02  0.20000049538E+02 0.  0.
        -12    1    1    2    0    0  0.14246011912E+02 -0.19437255240E+02  0.36095243234E+02  0.43400718091E+02  0.00000000000E+00 0.  1.
         11    1    3    3    0    0 -0.17132813196E+02  0.96821961986E+01 -0.19697350886E+02  0.27843560178E+02  0.51100000000E-03 0. -1.
        -11    1    3    3    0    0  0.30498725406E+01  0.51056085804E+01 -0.12618474983E+02  0.13949726615E+02  0.51100000000E-03 0.  1.
         12    1    3    3    0    0 -0.16307125668E+00  0.46494504613E+01 -0.37794173651E+01  0.59939951157E+01  0.00000000000E+00 0. -1.
</event>
<event>
 7    1  0.2685294E-009  0.4778729E+02  0.7816164E-02  0.1312668E+00
        -11   -1    0    0    0    0  0.00000000000E+00  0.00000000000E+00  0.45593999997E+02  0.45594000000E+02  0.51100000000E-03 0.  1.
         11   -1    0    0    0    0 -0.00000000000E+00 -0.00000000000E+00 -0.45593999997E+02  0.45594000000E+02  0.51100000000E-03 0. -1.
    9900012    2    1    2    0    0  0.18325245358E+02  0.24824542407E+02 -0.30521291205E+02  0.47787288716E+02  0.20000080570E+02 0.  0.
        -12    1    1    2    0    0 -0.18325245358E+02 -0.24824542407E+02  0.30521291205E+02  0.43400711284E+02  0.00000000000E+00 0.  1.
         11    1    3    3    0    0  0.11000028584E+02  0.89853793037E+01 -0.11244386349E+02  0.18115570505E+02  0.51100000000E-03 0. -1.
        -11    1    3    3    0    0  0.31746133995E+01  0.14163648354E+02 -0.60810932637E+01  0.15737433097E+02  0.51100000000E-03 0.  1.
        -12    1    3    3    0    0  0.41506033742E+01  0.16755147493E+01 -0.13195811592E+02  0.13934285114E+02  0.00000000000E+00 0.  1.
</event>
<event>
 7    1  0.2685294E-009  0.4778727E+02  0.7816164E-02  0.1312668E+00
        -11   -1    0    0    0    0  0.00000000000E+00  0.00000000000E+00  0.45593999997E+02  0.45594000000E+02  0.51100000000E-03 0.  1.
         11   -1    0    0    0    0 -0.00000000000E+00 -0.00000000000E+00 -0.45593999997E+02  0.45594000000E+02  0.51100000000E-03 0. -1.
    9900012    2    1    2    0    0  0.35538452118E+01  0.41626105002E+02 -0.11758429352E+02  0.47787273114E+02  0.20000009436E+02 0.  0.
        -12    1    1    2    0    0 -0.35538452118E+01 -0.41626105002E+02  0.11758429352E+02  0.43400726886E+02  0.00000000000E+00 0.  1.
         11    1    3    3    0    0 -0.41466829741E+00  0.41123189869E+02 -0.11829723788E+02  0.42792885623E+02  0.51100000000E-03 0. -1.
        -11    1    3    3    0    0  0.19891378056E+01  0.19344877758E+00 -0.14581243093E+01  0.24739075168E+01  0.51100000000E-03 0.  1.
         12    1    3    3    0    0  0.19793757036E+01  0.30946635477E+00  0.15294187450E+01  0.25204799738E+01  0.00000000000E+00 0. -1.
</event>
<event>
 7    1  0.2685294E-009  0.4778727E+02  0.7816164E-02  0.1312668E+00
        -11   -1    0    0    0    0  0.00000000000E+00  0.00000000000E+00  0.45593999997E+02  0.45594000000E+02  0.51100000000E-03 0.  1.
         11   -1    0    0    0    0 -0.00000000000E+00 -0.00000000000E+00 -0.45593999997E+02  0.45594000000E+02  0.51100000000E-03 0. -1.
    9900012    2    1    2    0    0  0.31607256789E+02 -0.16781284473E+02 -0.24555923496E+02  0.47787267644E+02  0.19999984496E+02 0.  0.
        -12    1    1    2    0    0 -0.31607256789E+02  0.16781284473E+02  0.24555923496E+02  0.43400732356E+02  0.00000000000E+00 0.  1.
         11    1    3    3    0    0  0.19658496141E+02 -0.71266407470E+01 -0.53452836357E+01  0.21582806497E+02  0.51100000000E-03 0. -1.
        -11    1    3    3    0    0  0.82716451120E+01 -0.10071873967E+02 -0.18168669760E+02  0.22359859551E+02  0.51100000000E-03 0.  1.
        -12    1    3    3    0    0  0.36771155360E+01  0.41723024054E+00 -0.10419701003E+01  0.38446015956E+01  0.00000000000E+00 0.  1.
</event>
<event>
 7    1  0.2685294E-009  0.4778726E+02  0.7816164E-02  0.1312668E+00
        -11   -1    0    0    0    0  0.00000000000E+00  0.00000000000E+00  0.45593999997E+02  0.45594000000E+02  0.51100000000E-03 0.  1.
         11   -1    0    0    0    0 -0.00000000000E+00 -0.00000000000E+00 -0.45593999997E+02  0.45594000000E+02  0.51100000000E-03 0. -1.
    9900012    2    1    2    0    0 -0.35193249797E+01 -0.32623184180E+02 -0.28407148027E+02  0.47787264368E+02  0.19999969561E+02 0.  0.
        -12    1    1    2    0    0  0.35193249797E+01  0.32623184180E+02  0.28407148027E+02  0.43400735632E+02  0.00000000000E+00 0.  1.
         11    1    3    3    0    0 -0.77974236176E+01 -0.25357161052E+02 -0.17242524424E+02  0.31640007593E+02  0.51100000000E-03 0.  1.
        -11    1    3    3    0    0 -0.24081577574E+01 -0.22819712739E+01 -0.34583742285E+01  0.47923865918E+01  0.51100000000E-03 0. -1.
         12    1    3    3    0    0  0.66862563953E+01 -0.49840518537E+01 -0.77062493748E+01  0.11354870184E+02  0.00000000000E+00 0. -1.
</event>
<event>
 7    1  0.2685294E-009  0.4778727E+02  0.7816164E-02  0.1312668E+00
        -11   -1    0    0    0    0  0.00000000000E+00  0.00000000000E+00  0.45593999997E+02  0.45594000000E+02  0.51100000000E-03 0.  1.
         11   -1    0    0    0    0 -0.00000000000E+00 -0.00000000000E+00 -0.45593999997E+02  0.45594000000E+02  0.51100000000E-03 0. -1.
    9900012    2    1    2    0    0  0.67147844973E-01  0.43149472492E+02 -0.46628074060E+01  0.47787271227E+02  0.20000000830E+02 0.  0.
        -12    1    1    2    0    0 -0.67147844973E-01 -0.43149472492E+02  0.46628074060E+01  0.43400728773E+02  0.00000000000E+00 0.  1.
         11    1    3    3    0    0 -0.48930151806E+01  0.42493885695E+01  0.21421773562E+01  0.68255274418E+01  0.51100000000E-03 0. -1.
        -11    1    3    3    0    0  0.75142926118E+01  0.23584340420E+02 -0.26883553918E+01  0.24898051359E+02  0.51100000000E-03 0.  1.
        -12    1    3    3    0    0 -0.25541295862E+01  0.15315743503E+02 -0.41166293704E+01  0.16063692426E+02  0.00000000000E+00 0.  1.
</event>
<event>
 7    1  0.2685294E-009  0.4778727E+02  0.7816164E-02  0.1312668E+00
        -11   -1    0    0    0    0  0.00000000000E+00  0.00000000000E+00  0.45593999997E+02  0.45594000000E+02  0.51100000000E-03 0. -1.
         11   -1    0    0    0    0 -0.00000000000E+00 -0.00000000000E+00 -0.45593999997E+02  0.45594000000E+02  0.51100000000E-03 0.  1.
    9900012    2    1    2    0    0  0.34616455665E+02 -0.23475271076E+02  0.11586043901E+02  0.47787265350E+02  0.19999974037E+02 0.  0.
        -12    1    1    2    0    0 -0.34616455665E+02  0.23475271076E+02 -0.11586043901E+02  0.43400734650E+02  0.00000000000E+00 0.  1.
         11    1    3    3    0    0  0.85864136586E+01 -0.12998237565E+02 -0.31697391700E+01  0.15897418847E+02  0.51100000000E-03 0. -1.
        -11    1    3    3    0    0  0.21759308124E+02 -0.78604122890E+01  0.10931105057E+02  0.25587939139E+02  0.51100000000E-03 0.  1.
         12    1    3    3    0    0  0.42707338826E+01 -0.26166212216E+01  0.38246780139E+01  0.63019073639E+01  0.00000000000E+00 0. -1.
</event>
<event>
 7    1  0.2685294E-009  0.4778727E+02  0.7816164E-02  0.1312668E+00
        -11   -1    0    0    0    0  0.00000000000E+00  0.00000000000E+00  0.45593999997E+02  0.45594000000E+02  0.51100000000E-03 0. -1.
         11   -1    0    0    0    0 -0.00000000000E+00 -0.00000000000E+00 -0.45593999997E+02  0.45594000000E+02  0.51100000000E-03 0.  1.
    9900012    2    1    2    0    0 -0.12311252545E+02 -0.33529216539E+02  0.24654580412E+02  0.47787266870E+02  0.19999980965E+02 0.  0.
        -12    1    1    2    0    0  0.12311252545E+02  0.33529216539E+02 -0.24654580412E+02  0.43400733130E+02  0.00000000000E+00 0.  1.
         11    1    3    3    0    0 -0.16386047834E-01 -0.38937026880E+01  0.75025281296E+01  0.84527579950E+01  0.51100000000E-03 0. -1.
        -11    1    3    3    0    0 -0.35841466090E+01 -0.15425929234E+02  0.60487333173E+00  0.15848383881E+02  0.51100000000E-03 0.  1.
        -12    1    3    3    0    0 -0.87107198880E+01 -0.14209584617E+02  0.16547178951E+02  0.23486124993E+02  0.00000000000E+00 0.  1.
</event>
<event>
 7    1  0.2685294E-009  0.4778727E+02  0.7816164E-02  0.1312668E+00
        -11   -1    0    0    0    0  0.00000000000E+00  0.00000000000E+00  0.45593999997E+02  0.45594000000E+02  0.51100000000E-03 0. -1.
         11   -1    0    0    0    0 -0.00000000000E+00 -0.00000000000E+00 -0.45593999997E+02  0.45594000000E+02  0.51100000000E-03 0.  1.
    9900012    2    1    2    0    0 -0.83485673508E+01  0.10170193006E+02  0.41358098265E+02  0.47787266197E+02  0.19999977897E+02 0.  0.
        -12    1    1    2    0    0  0.83485673508E+01 -0.10170193006E+02 -0.41358098265E+02  0.43400733803E+02  0.00000000000E+00 0.  1.
         11    1    3    3    0    0 -0.84138697373E+01  0.10188770786E+02  0.11920061794E+02  0.17795845794E+02  0.51100000000E-03 0.  1.
        -11    1    3    3    0    0 -0.66851821240E+00  0.11611450804E+01  0.27846787307E+02  0.27879001741E+02  0.51100000000E-03 0. -1.
        -12    1    3    3    0    0  0.73382059884E+00 -0.11797228608E+01  0.15912491642E+01  0.21124186617E+01  0.00000000000E+00 0.  1.
</event>
<event>
 7    1  0.2685294E-009  0.4778727E+02  0.7816164E-02  0.1312668E+00
        -11   -1    0    0    0    0  0.00000000000E+00  0.00000000000E+00  0.45593999997E+02  0.45594000000E+02  0.51100000000E-03 0. -1.
         11   -1    0    0    0    0 -0.00000000000E+00 -0.00000000000E+00 -0.45593999997E+02  0.45594000000E+02  0.51100000000E-03 0.  1.
    9900012    2    1    2    0    0 -0.11516965569E+02  0.34036389211E+02  0.24341475743E+02  0.47787265815E+02  0.19999976156E+02 0.  0.
        -12    1    1    2    0    0  0.11516965569E+02 -0.34036389211E+02 -0.24341475743E+02  0.43400734185E+02  0.00000000000E+00 0.  1.
         11    1    3    3    0    0 -0.31124054763E+01  0.11571984222E+02 -0.88741008712E-01  0.11983562154E+02  0.51100000000E-03 0. -1.
        -11    1    3    3    0    0  0.10689697011E+01  0.63560982876E-01 -0.30554701258E+00  0.11135957338E+01  0.51100000000E-03 0.  1.
         12    1    3    3    0    0 -0.94735297939E+01  0.22400844006E+02  0.24735763765E+02  0.34690107927E+02  0.00000000000E+00 0. -1.
</event>
<event>
 7    1  0.2685294E-009  0.4778727E+02  0.7816164E-02  0.1312668E+00
        -11   -1    0    0    0    0  0.00000000000E+00  0.00000000000E+00  0.45593999997E+02  0.45594000000E+02  0.51100000000E-03 0.  1.
         11   -1    0    0    0    0 -0.00000000000E+00 -0.00000000000E+00 -0.45593999997E+02  0.45594000000E+02  0.51100000000E-03 0. -1.
    9900012    2    1    2    0    0  0.14406862653E+02  0.20559994749E+02 -0.35402714958E+02  0.47787270721E+02  0.19999998523E+02 0.  0.
        -12    1    1    2    0    0 -0.14406862653E+02 -0.20559994749E+02  0.35402714958E+02  0.43400729279E+02  0.00000000000E+00 0.  1.
         11    1    3    3    0    0  0.12204623640E+02  0.16916458643E+02 -0.15882464674E+02  0.26217782049E+02  0.51100000000E-03 0. -1.
        -11    1    3    3    0    0  0.47194691308E-01  0.20850309558E+01 -0.23163827032E+00  0.20983893764E+01  0.51100000000E-03 0.  1.
         12    1    3    3    0    0  0.21550443217E+01  0.15585051509E+01 -0.19288612014E+02  0.19471099295E+02  0.00000000000E+00 0. -1.
</event>
<event>
 7    1  0.2685294E-009  0.4778733E+02  0.7816164E-02  0.1312667E+00
        -11   -1    0    0    0    0  0.00000000000E+00  0.00000000000E+00  0.45593999997E+02  0.45594000000E+02  0.51100000000E-03 0. -1.
         11   -1    0    0    0    0 -0.00000000000E+00 -0.00000000000E+00 -0.45593999997E+02  0.45594000000E+02  0.51100000000E-03 0.  1.
    9900012    2    1    2    0    0 -0.34756913029E+02 -0.11656944554E+02  0.23231240574E+02  0.47787332974E+02  0.20000282362E+02 0.  0.
        -12    1    1    2    0    0  0.34756913029E+02  0.11656944554E+02 -0.23231240574E+02  0.43400667026E+02  0.00000000000E+00 0.  1.
         11    1    3    3    0    0 -0.20875438941E+02  0.80297756410E-01  0.15014493388E+02  0.25714303620E+02  0.51100000000E-03 0. -1.
        -11    1    3    3    0    0 -0.16913010323E+01 -0.69865644278E+01  0.44664345438E+01  0.84629557177E+01  0.51100000000E-03 0.  1.
         12    1    3    3    0    0 -0.12190173056E+02 -0.47506778827E+01  0.37503126420E+01  0.13610073636E+02  0.00000000000E+00 0. -1.
</event>
<event>
 7    1  0.2685294E-009  0.4778727E+02  0.7816164E-02  0.1312668E+00
        -11   -1    0    0    0    0  0.00000000000E+00  0.00000000000E+00  0.45593999997E+02  0.45594000000E+02  0.51100000000E-03 0. -1.
         11   -1    0    0    0    0 -0.00000000000E+00 -0.00000000000E+00 -0.45593999997E+02  0.45594000000E+02  0.51100000000E-03 0.  1.
    9900012    2    1    2    0    0  0.40103334270E+02 -0.87781046669E+01  0.14081581540E+02  0.47787268672E+02  0.19999989185E+02 0.  0.
        -12    1    1    2    0    0 -0.40103334270E+02  0.87781046669E+01 -0.14081581540E+02  0.43400731328E+02  0.00000000000E+00 0.  1.
         11    1    3    3    0    0  0.92705129277E+01 -0.51231400037E+01 -0.25639870161E+01  0.10897843967E+02  0.51100000000E-03 0. -1.
        -11    1    3    3    0    0  0.18010265785E+02  0.40320740170E+00  0.14798676310E+02  0.23313795715E+02  0.51100000000E-03 0.  1.
        -12    1    3    3    0    0  0.12822555557E+02 -0.40581720648E+01  0.18468922465E+01  0.13575628991E+02  0.00000000000E+00 0.  1.
</event>
<event>
 7    1  0.2685294E-009  0.4778727E+02  0.7816164E-02  0.1312668E+00
        -11   -1    0    0    0    0  0.00000000000E+00  0.00000000000E+00  0.45593999997E+02  0.45594000000E+02  0.51100000000E-03 0.  1.
         11   -1    0    0    0    0 -0.00000000000E+00 -0.00000000000E+00 -0.45593999997E+02  0.45594000000E+02  0.51100000000E-03 0. -1.
    9900012    2    1    2    0    0 -0.16403008591E+01  0.19012395481E+02 -0.38980270814E+02  0.47787270956E+02  0.19999999595E+02 0.  0.
        -12    1    1    2    0    0  0.16403008591E+01 -0.19012395481E+02  0.38980270814E+02  0.43400729044E+02  0.00000000000E+00 0.  1.
         11    1    3    3    0    0 -0.84909427866E+01  0.12602055020E+02 -0.16494365026E+02  0.22427036764E+02  0.51100000000E-03 0. -1.
        -11    1    3    3    0    0  0.51309855626E+01  0.94947743597E+00 -0.15342894455E+02  0.16205953560E+02  0.51100000000E-03 0.  1.
        -12    1    3    3    0    0  0.17196563649E+01  0.54608630248E+01 -0.71430113329E+01  0.91542806321E+01  0.00000000000E+00 0.  1.
</event>
<event>
 7    1  0.2685294E-009  0.4778727E+02  0.7816164E-02  0.1312668E+00
        -11   -1    0    0    0    0  0.00000000000E+00  0.00000000000E+00  0.45593999997E+02  0.45594000000E+02  0.51100000000E-03 0.  1.
         11   -1    0    0    0    0 -0.00000000000E+00 -0.00000000000E+00 -0.45593999997E+02  0.45594000000E+02  0.51100000000E-03 0. -1.
    9900012    2    1    2    0    0 -0.66165274346E+00 -0.22726903627E+02 -0.36968541110E+02  0.47787274607E+02  0.20000016242E+02 0.  0.
        -12    1    1    2    0    0  0.66165274346E+00  0.22726903627E+02  0.36968541110E+02  0.43400725393E+02  0.00000000000E+00 0.  1.
         11    1    3    3    0    0 -0.19379743627E+01 -0.60353368448E+01 -0.13986831778E+02  0.15356187643E+02  0.51100000000E-03 0.  1.
        -11    1    3    3    0    0 -0.56320810822E+01 -0.39963590064E+01 -0.13445704907E+02  0.15115495471E+02  0.51100000000E-03 0. -1.
        -12    1    3    3    0    0  0.69084027014E+01 -0.12695207776E+02 -0.95360044248E+01  0.17315591493E+02  0.00000000000E+00 0.  1.
</event>
<event>
 7    1  0.2685294E-009  0.4778727E+02  0.7816164E-02  0.1312668E+00
        -11   -1    0    0    0    0  0.00000000000E+00  0.00000000000E+00  0.45593999997E+02  0.45594000000E+02  0.51100000000E-03 0.  1.
         11   -1    0    0    0    0 -0.00000000000E+00 -0.00000000000E+00 -0.45593999997E+02  0.45594000000E+02  0.51100000000E-03 0. -1.
    9900012    2    1    2    0    0 -0.36384488203E+02 -0.59997501466E+01 -0.22886577314E+02  0.47787269537E+02  0.19999993125E+02 0.  0.
        -12    1    1    2    0    0  0.36384488203E+02  0.59997501466E+01  0.22886577314E+02  0.43400730463E+02  0.00000000000E+00 0.  1.
         11    1    3    3    0    0 -0.10304342479E+02 -0.54876052361E+01 -0.63147092219E+01  0.13272860956E+02  0.51100000000E-03 0. -1.
        -11    1    3    3    0    0 -0.84737484611E+01 -0.74358691116E+01 -0.74358391279E+01  0.13505120000E+02  0.51100000000E-03 0.  1.
        -12    1    3    3    0    0 -0.17606397263E+02  0.69237242011E+01 -0.91360289638E+01  0.21009288580E+02  0.00000000000E+00 0.  1.
</event>
<event>
 7    1  0.2685294E-009  0.4778727E+02  0.7816164E-02  0.1312668E+00
        -11   -1    0    0    0    0  0.00000000000E+00  0.00000000000E+00  0.45593999997E+02  0.45594000000E+02  0.51100000000E-03 0.  1.
         11   -1    0    0    0    0 -0.00000000000E+00 -0.00000000000E+00 -0.45593999997E+02  0.45594000000E+02  0.51100000000E-03 0. -1.
    9900012    2    1    2    0    0 -0.54158800194E+01 -0.72087772353E+00 -0.43055449947E+02  0.47787271997E+02  0.20000004342E+02 0.  0.
        -12    1    1    2    0    0  0.54158800194E+01  0.72087772353E+00  0.43055449947E+02  0.43400728003E+02  0.00000000000E+00 0.  1.
         11    1    3    3    0    0 -0.60280911954E+01 -0.14505334048E+01 -0.23449846752E+02  0.24255664154E+02  0.51100000000E-03 0. -1.
        -11    1    3    3    0    0  0.55275257103E-01  0.16173248988E+01  0.16143421846E+01  0.22858031702E+01  0.51100000000E-03 0.  1.
        -12    1    3    3    0    0  0.55693591890E+00 -0.88766921752E+00 -0.21219945380E+02  0.21245804672E+02  0.00000000000E+00 0.  1.
</event>
<event>
 7    1  0.2685294E-009  0.4778727E+02  0.7816164E-02  0.1312668E+00
        -11   -1    0    0    0    0  0.00000000000E+00  0.00000000000E+00  0.45593999997E+02  0.45594000000E+02  0.51100000000E-03 0. -1.
         11   -1    0    0    0    0 -0.00000000000E+00 -0.00000000000E+00 -0.45593999997E+02  0.45594000000E+02  0.51100000000E-03 0.  1.
    9900012    2    1    2    0    0 -0.27416560378E+02 -0.32546124487E+02 -0.85267303672E+01  0.47787272670E+02  0.20000007410E+02 0.  0.
        -12    1    1    2    0    0  0.27416560378E+02  0.32546124487E+02  0.85267303672E+01  0.43400727330E+02  0.00000000000E+00 0.  1.
         11    1    3    3    0    0 -0.17277742825E+02 -0.10405688651E+02 -0.60049780949E+01  0.21044203849E+02  0.51100000000E-03 0. -1.
        -11    1    3    3    0    0 -0.99941861882E+01 -0.14108049534E+02 -0.55489452695E+01  0.18157962801E+02  0.51100000000E-03 0.  1.
         12    1    3    3    0    0 -0.14463136418E+00 -0.80323863015E+01  0.30271929973E+01  0.85851060197E+01  0.00000000000E+00 0. -1.
</event>
<event>
 7    1  0.2685294E-009  0.4778727E+02  0.7816164E-02  0.1312668E+00
        -11   -1    0    0    0    0  0.00000000000E+00  0.00000000000E+00  0.45593999997E+02  0.45594000000E+02  0.51100000000E-03 0.  1.
         11   -1    0    0    0    0 -0.00000000000E+00 -0.00000000000E+00 -0.45593999997E+02  0.45594000000E+02  0.51100000000E-03 0. -1.
    9900012    2    1    2    0    0 -0.39381451276E+02  0.11372104439E+02 -0.14261827591E+02  0.47787272008E+02  0.20000004395E+02 0.  0.
        -12    1    1    2    0    0  0.39381451276E+02 -0.11372104439E+02  0.14261827591E+02  0.43400727992E+02  0.00000000000E+00 0.  1.
         11    1    3    3    0    0 -0.99441456411E+01 -0.24264823550E+01 -0.10513628082E+02  0.14673453065E+02  0.51100000000E-03 0. -1.
        -11    1    3    3    0    0 -0.20498458738E+02  0.12023603431E+02 -0.21528781401E+01  0.23861867795E+02  0.51100000000E-03 0.  1.
         12    1    3    3    0    0 -0.89388468962E+01  0.17749833632E+01 -0.15953213686E+01  0.92519511479E+01  0.00000000000E+00 0. -1.
</event>
<event>
 7    1  0.2685294E-009  0.4778727E+02  0.7816164E-02  0.1312668E+00
        -11   -1    0    0    0    0  0.00000000000E+00  0.00000000000E+00  0.45593999997E+02  0.45594000000E+02  0.51100000000E-03 0. -1.
         11   -1    0    0    0    0 -0.00000000000E+00 -0.00000000000E+00 -0.45593999997E+02  0.45594000000E+02  0.51100000000E-03 0.  1.
    9900012    2    1    2    0    0  0.74014728532E+01 -0.24440178602E+02  0.35093005821E+02  0.47787272033E+02  0.20000004507E+02 0.  0.
        -12    1    1    2    0    0 -0.74014728532E+01  0.24440178602E+02 -0.35093005821E+02  0.43400727967E+02  0.00000000000E+00 0.  1.
         11    1    3    3    0    0  0.74310048936E+01 -0.96037511426E+00  0.12266536939E+02  0.14373937624E+02  0.51100000000E-03 0. -1.
        -11    1    3    3    0    0 -0.12658547809E+01 -0.15362307115E+02  0.18667409013E+02  0.24208986508E+02  0.51100000000E-03 0.  1.
         12    1    3    3    0    0  0.12363227404E+01 -0.81174963728E+01  0.41590598690E+01  0.92043479006E+01  0.00000000000E+00 0. -1.
</event>
<event>
 7    1  0.2685294E-009  0.4778726E+02  0.7816164E-02  0.1312668E+00
        -11   -1    0    0    0    0  0.00000000000E+00  0.00000000000E+00  0.45593999997E+02  0.45594000000E+02  0.51100000000E-03 0. -1.
         11   -1    0    0    0    0 -0.00000000000E+00 -0.00000000000E+00 -0.45593999997E+02  0.45594000000E+02  0.51100000000E-03 0.  1.
    9900012    2    1    2    0    0 -0.29650072540E+02 -0.22914235322E+02  0.21896012912E+02  0.47787258492E+02  0.19999942767E+02 0.  0.
        -12    1    1    2    0    0  0.29650072540E+02  0.22914235322E+02 -0.21896012912E+02  0.43400741508E+02  0.00000000000E+00 0.  1.
         11    1    3    3    0    0 -0.77758738876E+01  0.11193897402E+01  0.40578338162E+01  0.88421300402E+01  0.51100000000E-03 0.  1.
        -11    1    3    3    0    0 -0.18732484919E+02 -0.22792673470E+02  0.19310207906E+02  0.35260403923E+02  0.51100000000E-03 0. -1.
         12    1    3    3    0    0 -0.31417137332E+01 -0.12409515926E+01 -0.14720288101E+01  0.36847245290E+01  0.00000000000E+00 0. -1.
</event>
<event>
 7    1  0.2685294E-009  0.4778727E+02  0.7816164E-02  0.1312668E+00
        -11   -1    0    0    0    0  0.00000000000E+00  0.00000000000E+00  0.45593999997E+02  0.45594000000E+02  0.51100000000E-03 0. -1.
         11   -1    0    0    0    0 -0.00000000000E+00 -0.00000000000E+00 -0.45593999997E+02  0.45594000000E+02  0.51100000000E-03 0.  1.
    9900012    2    1    2    0    0  0.35053764680E+02  0.17543606534E+01  0.25529962549E+02  0.47787272041E+02  0.20000004546E+02 0.  0.
        -12    1    1    2    0    0 -0.35053764680E+02 -0.17543606534E+01 -0.25529962549E+02  0.43400727959E+02  0.00000000000E+00 0.  1.
         11    1    3    3    0    0  0.28432378475E+02  0.10476852587E+01  0.22641658624E+02  0.36361277421E+02  0.51100000000E-03 0. -1.
        -11    1    3    3    0    0  0.82799087293E+01 -0.13743528686E+01  0.21407819387E+01  0.86619098323E+01  0.51100000000E-03 0.  1.
         12    1    3    3    0    0 -0.16585225245E+01  0.20810282633E+01  0.74752198684E+00  0.27640847885E+01  0.00000000000E+00 0. -1.
</event>
<event>
 7    1  0.2685294E-009  0.4778727E+02  0.7816164E-02  0.1312668E+00
        -11   -1    0    0    0    0  0.00000000000E+00  0.00000000000E+00  0.45593999997E+02  0.45594000000E+02  0.51100000000E-03 0.  1.
         11   -1    0    0    0    0 -0.00000000000E+00 -0.00000000000E+00 -0.45593999997E+02  0.45594000000E+02  0.51100000000E-03 0. -1.
    9900012    2    1    2    0    0  0.28479423287E+02  0.20660690654E+02 -0.25410266490E+02  0.47787270373E+02  0.19999996938E+02 0.  0.
        -12    1    1    2    0    0 -0.28479423287E+02 -0.20660690654E+02  0.25410266490E+02  0.43400729627E+02  0.00000000000E+00 0.  1.
         11    1    3    3    0    0  0.16599111508E+02  0.19737108039E+01 -0.14379278269E+02  0.22049709318E+02  0.51100000000E-03 0. -1.
        -11    1    3    3    0    0 -0.22989459455E+00  0.18511204952E+00 -0.17187964231E+01  0.17439551028E+01  0.51100000000E-03 0.  1.
         12    1    3    3    0    0  0.12110206373E+02  0.18501867801E+02 -0.93121917984E+01  0.23993605952E+02  0.00000000000E+00 0. -1.
</event>
<event>
 7    1  0.2685294E-009  0.4778727E+02  0.7816164E-02  0.1312668E+00
        -11   -1    0    0    0    0  0.00000000000E+00  0.00000000000E+00  0.45593999997E+02  0.45594000000E+02  0.51100000000E-03 0.  1.
         11   -1    0    0    0    0 -0.00000000000E+00 -0.00000000000E+00 -0.45593999997E+02  0.45594000000E+02  0.51100000000E-03 0. -1.
    9900012    2    1    2    0    0 -0.37145540994E+02 -0.19546295410E+02 -0.11035141299E+02  0.47787271625E+02  0.20000002649E+02 0.  0.
        -12    1    1    2    0    0  0.37145540994E+02  0.19546295410E+02  0.11035141299E+02  0.43400728375E+02  0.00000000000E+00 0.  1.
         11    1    3    3    0    0 -0.34417525923E+02 -0.20473800675E+02 -0.13704010694E+02  0.42326617088E+02  0.51100000000E-03 0. -1.
        -11    1    3    3    0    0  0.29416621079E+00  0.53240718476E+00  0.23134787469E+01  0.23921068838E+01  0.51100000000E-03 0.  1.
         12    1    3    3    0    0 -0.30221812813E+01  0.39509808075E+00  0.35539064790E+00  0.30685476537E+01  0.00000000000E+00 0. -1.
</event>
<event>
 7    1  0.2685294E-009  0.4778727E+02  0.7816164E-02  0.1312668E+00
        -11   -1    0    0    0    0  0.00000000000E+00  0.00000000000E+00  0.45593999997E+02  0.45594000000E+02  0.51100000000E-03 0. -1.
         11   -1    0    0    0    0 -0.00000000000E+00 -0.00000000000E+00 -0.45593999997E+02  0.45594000000E+02  0.51100000000E-03 0.  1.
    9900012    2    1    2    0    0 -0.34595157252E+02  0.92996169116E+01  0.24501340661E+02  0.47787268737E+02  0.19999989478E+02 0.  0.
        -12    1    1    2    0    0  0.34595157252E+02 -0.92996169116E+01 -0.24501340661E+02  0.43400731263E+02  0.00000000000E+00 0.  1.
         11    1    3    3    0    0 -0.17149428705E+02  0.55391589419E+01  0.18868714730E+02  0.26092404690E+02  0.51100000000E-03 0. -1.
        -11    1    3    3    0    0 -0.10347660446E+02  0.61848044656E+01 -0.41133462720E+00  0.12062134115E+02  0.51100000000E-03 0.  1.
        -12    1    3    3    0    0 -0.70980681018E+01 -0.24243464958E+01  0.60439605582E+01  0.96327299318E+01  0.00000000000E+00 0.  1.
</event>
<event>
 7    1  0.2685294E-009  0.4778727E+02  0.7816164E-02  0.1312668E+00
        -11   -1    0    0    0    0  0.00000000000E+00  0.00000000000E+00  0.45593999997E+02  0.45594000000E+02  0.51100000000E-03 0. -1.
         11   -1    0    0    0    0 -0.00000000000E+00 -0.00000000000E+00 -0.45593999997E+02  0.45594000000E+02  0.51100000000E-03 0.  1.
    9900012    2    1    2    0    0  0.23395115391E+02  0.17353667647E+01  0.36514112045E+02  0.47787270739E+02  0.19999998607E+02 0.  0.
        -12    1    1    2    0    0 -0.23395115391E+02 -0.17353667647E+01 -0.36514112045E+02  0.43400729261E+02  0.00000000000E+00 0.  1.
         11    1    3    3    0    0  0.11815023809E+02  0.99556552024E+01  0.21950807523E+02  0.26843021612E+02  0.51100000000E-03 0. -1.
        -11    1    3    3    0    0  0.75166857958E+01 -0.77619990914E+01  0.11851073440E+02  0.16037366903E+02  0.51100000000E-03 0.  1.
         12    1    3    3    0    0  0.40634057872E+01 -0.45828934626E+00  0.27122310819E+01  0.49068822237E+01  0.00000000000E+00 0. -1.
</event>
<event>
 7    1  0.2685294E-009  0.4778727E+02  0.7816164E-02  0.1312668E+00
        -11   -1    0    0    0    0  0.00000000000E+00  0.00000000000E+00  0.45593999997E+02  0.45594000000E+02  0.51100000000E-03 0.  1.
         11   -1    0    0    0    0 -0.00000000000E+00 -0.00000000000E+00 -0.45593999997E+02  0.45594000000E+02  0.51100000000E-03 0. -1.
    9900012    2    1    2    0    0 -0.27326378798E+02 -0.31735362263E+02 -0.11391171502E+02  0.47787274380E+02  0.20000015207E+02 0.  0.
        -12    1    1    2    0    0  0.27326378798E+02  0.31735362263E+02  0.11391171502E+02  0.43400725620E+02  0.00000000000E+00 0.  1.
         11    1    3    3    0    0  0.15593709806E+01 -0.10910900333E+01  0.17811413397E+01  0.26066415268E+01  0.51100000000E-03 0.  1.
        -11    1    3    3    0    0 -0.17630189241E+02 -0.18718978467E+02 -0.30124122081E+01  0.25890120801E+02  0.51100000000E-03 0. -1.
         12    1    3    3    0    0 -0.11255560538E+02 -0.11925293763E+02 -0.10159900634E+02  0.19290512052E+02  0.00000000000E+00 0. -1.
</event>
<event>
 7    1  0.2685294E-009  0.4778727E+02  0.7816164E-02  0.1312668E+00
        -11   -1    0    0    0    0  0.00000000000E+00  0.00000000000E+00  0.45593999997E+02  0.45594000000E+02  0.51100000000E-03 0.  1.
         11   -1    0    0    0    0 -0.00000000000E+00 -0.00000000000E+00 -0.45593999997E+02  0.45594000000E+02  0.51100000000E-03 0. -1.
    9900012    2    1    2    0    0 -0.43769044841E+01  0.35138267081E+02 -0.25095176106E+02  0.47787274544E+02  0.20000015956E+02 0.  0.
        -12    1    1    2    0    0  0.43769044841E+01 -0.35138267081E+02  0.25095176106E+02  0.43400725456E+02  0.00000000000E+00 0.  1.
         11    1    3    3    0    0 -0.10884835868E+01  0.23436883025E+01 -0.93683450203E+01  0.97182076567E+01  0.51100000000E-03 0. -1.
        -11    1    3    3    0    0 -0.51176293479E+01  0.24264317882E+02 -0.70875458069E+01  0.25791094553E+02  0.51100000000E-03 0.  1.
        -12    1    3    3    0    0  0.18292084505E+01  0.85302608965E+01 -0.86392852791E+01  0.12277972335E+02  0.00000000000E+00 0.  1.
</event>
<event>
 7    1  0.2685294E-009  0.4778727E+02  0.7816164E-02  0.1312668E+00
        -11   -1    0    0    0    0  0.00000000000E+00  0.00000000000E+00  0.45593999997E+02  0.45594000000E+02  0.51100000000E-03 0. -1.
         11   -1    0    0    0    0 -0.00000000000E+00 -0.00000000000E+00 -0.45593999997E+02  0.45594000000E+02  0.51100000000E-03 0.  1.
    9900012    2    1    2    0    0 -0.22956088727E+02  0.35487934012E+02 -0.98614319051E+01  0.47787270637E+02  0.19999998142E+02 0.  0.
        -12    1    1    2    0    0  0.22956088727E+02 -0.35487934012E+02  0.98614319051E+01  0.43400729363E+02  0.00000000000E+00 0.  1.
         11    1    3    3    0    0 -0.14497150988E+02  0.33755707291E+02 -0.82180633540E+01  0.37645075734E+02  0.51100000000E-03 0. -1.
        -11    1    3    3    0    0 -0.29981600798E+01 -0.66265709654E+00  0.14825170605E+01  0.34096825933E+01  0.51100000000E-03 0.  1.
         12    1    3    3    0    0 -0.54607776589E+01  0.23948838169E+01 -0.31258856116E+01  0.67325123092E+01  0.00000000000E+00 0. -1.
</event>
<event>
 7    1  0.2685294E-009  0.4778727E+02  0.7816164E-02  0.1312668E+00
        -11   -1    0    0    0    0  0.00000000000E+00  0.00000000000E+00  0.45593999997E+02  0.45594000000E+02  0.51100000000E-03 0.  1.
         11   -1    0    0    0    0 -0.00000000000E+00 -0.00000000000E+00 -0.45593999997E+02  0.45594000000E+02  0.51100000000E-03 0. -1.
    9900012    2    1    2    0    0 -0.13899974313E+02 -0.40092147386E+02 -0.91122708987E+01  0.47787273637E+02  0.20000011818E+02 0.  0.
        -12    1    1    2    0    0  0.13899974313E+02  0.40092147386E+02  0.91122708987E+01  0.43400726363E+02  0.00000000000E+00 0.  1.
         11    1    3    3    0    0 -0.37383338721E+01 -0.21248098948E+02 -0.11744208078E+02  0.24563861111E+02  0.51100000000E-03 0. -1.
        -11    1    3    3    0    0  0.50473630176E+00 -0.72581576221E+01  0.15440689700E+01  0.74377254619E+01  0.51100000000E-03 0.  1.
         12    1    3    3    0    0 -0.10666376743E+02 -0.11585890816E+02  0.10878682095E+01  0.15785687064E+02  0.00000000000E+00 0. -1.
</event>
<event>
 7    1  0.2685294E-009  0.4778727E+02  0.7816164E-02  0.1312668E+00
        -11   -1    0    0    0    0  0.00000000000E+00  0.00000000000E+00  0.45593999997E+02  0.45594000000E+02  0.51100000000E-03 0. -1.
         11   -1    0    0    0    0 -0.00000000000E+00 -0.00000000000E+00 -0.45593999997E+02  0.45594000000E+02  0.51100000000E-03 0.  1.
    9900012    2    1    2    0    0 -0.20233770956E+02  0.18813399224E+02  0.33470490406E+02  0.47787271832E+02  0.20000003593E+02 0.  0.
        -12    1    1    2    0    0  0.20233770956E+02 -0.18813399224E+02 -0.33470490406E+02  0.43400728168E+02  0.00000000000E+00 0.  1.
         11    1    3    3    0    0 -0.12369351989E+02  0.12283897269E+02  0.10005383981E+02  0.20099818646E+02  0.51100000000E-03 0. -1.
        -11    1    3    3    0    0 -0.10189052789E+00 -0.69225806301E+00  0.12191296975E+02  0.12211360494E+02  0.51100000000E-03 0.  1.
         12    1    3    3    0    0 -0.77625284394E+01  0.72217600187E+01  0.11273809450E+02  0.15476092693E+02  0.00000000000E+00 0. -1.
</event>
<event>
 7    1  0.2685294E-009  0.4778727E+02  0.7816164E-02  0.1312668E+00
        -11   -1    0    0    0    0  0.00000000000E+00  0.00000000000E+00  0.45593999997E+02  0.45594000000E+02  0.51100000000E-03 0.  1.
         11   -1    0    0    0    0 -0.00000000000E+00 -0.00000000000E+00 -0.45593999997E+02  0.45594000000E+02  0.51100000000E-03 0. -1.
    9900012    2    1    2    0    0  0.33556560526E+02  0.24235705669E+01 -0.27417274479E+02  0.47787269724E+02  0.19999993981E+02 0.  0.
        -12    1    1    2    0    0 -0.33556560526E+02 -0.24235705669E+01  0.27417274479E+02  0.43400730276E+02  0.00000000000E+00 0.  1.
         11    1    3    3    0    0  0.62070408904E+01 -0.20146911700E+01 -0.34030977103E+01  0.73598513173E+01  0.51100000000E-03 0. -1.
        -11    1    3    3    0    0  0.24011490959E+02 -0.31286809226E+01 -0.18730026245E+02  0.30612974795E+02  0.51100000000E-03 0.  1.
        -12    1    3    3    0    0  0.33380286758E+01  0.75669426595E+01 -0.52841505237E+01  0.98144436118E+01  0.00000000000E+00 0.  1.
</event>
<event>
 7    1  0.2911212E-009  0.4778727E+02  0.7816164E-02  0.1312668E+00
        -11   -1    0    0    0    0  0.00000000000E+00  0.00000000000E+00  0.45593999997E+02  0.45594000000E+02  0.51100000000E-03 0. -1.
         11   -1    0    0    0    0 -0.00000000000E+00 -0.00000000000E+00 -0.45593999997E+02  0.45594000000E+02  0.51100000000E-03 0.  1.
    9900012    2    1    2    0    0  0.21085787833E+01 -0.36856548850E+02  0.22820427649E+02  0.47787271715E+02  0.20000003057E+02 0.  0.
        -12    1    1    2    0    0 -0.21085787833E+01  0.36856548850E+02 -0.22820427649E+02  0.43400728285E+02  0.00000000000E+00 0.  1.
         11    1    3    3    0    0  0.61600006689E+00 -0.22185588117E+02  0.13945598163E+02  0.26211819559E+02  0.51100000000E-03 0. -1.
        -11    1    3    3    0    0  0.63408639782E+00 -0.20818193352E+01 -0.33575795363E+01  0.40011720667E+01  0.51100000000E-03 0.  1.
        -12    1    3    3    0    0  0.85849231864E+00 -0.12589141397E+02  0.12232409022E+02  0.17574280089E+02  0.00000000000E+00 0.  1.
</event>
<event>
 7    1  0.2685294E-009  0.4778727E+02  0.7816164E-02  0.1312668E+00
        -11   -1    0    0    0    0  0.00000000000E+00  0.00000000000E+00  0.45593999997E+02  0.45594000000E+02  0.51100000000E-03 0. -1.
         11   -1    0    0    0    0 -0.00000000000E+00 -0.00000000000E+00 -0.45593999997E+02  0.45594000000E+02  0.51100000000E-03 0.  1.
    9900012    2    1    2    0    0 -0.32771954179E+02  0.26103852951E+02 -0.11323046340E+02  0.47787268463E+02  0.19999988228E+02 0.  0.
        -12    1    1    2    0    0  0.32771954179E+02 -0.26103852951E+02  0.11323046340E+02  0.43400731537E+02  0.00000000000E+00 0.  1.
         11    1    3    3    0    0 -0.13485778053E+02  0.78469462445E+01 -0.40189074768E+01  0.16111871171E+02  0.51100000000E-03 0. -1.
        -11    1    3    3    0    0 -0.83645306853E+01  0.53595034211E+01 -0.10522650659E+02  0.14471206849E+02  0.51100000000E-03 0.  1.
        -12    1    3    3    0    0 -0.10921645440E+02  0.12897403285E+02  0.32185117955E+01  0.17204190443E+02  0.00000000000E+00 0.  1.
</event>
<event>
 7    1  0.2685294E-009  0.4778728E+02  0.7816164E-02  0.1312668E+00
        -11   -1    0    0    0    0  0.00000000000E+00  0.00000000000E+00  0.45593999997E+02  0.45594000000E+02  0.51100000000E-03 0. -1.
         11   -1    0    0    0    0 -0.00000000000E+00 -0.00000000000E+00 -0.45593999997E+02  0.45594000000E+02  0.51100000000E-03 0.  1.
    9900012    2    1    2    0    0  0.24739055838E+02 -0.25980413818E+02  0.24425796521E+02  0.47787282015E+02  0.20000050018E+02 0.  0.
        -12    1    1    2    0    0 -0.24739055838E+02  0.25980413818E+02 -0.24425796521E+02  0.43400717985E+02  0.00000000000E+00 0.  1.
         11    1    3    3    0    0  0.15994191986E+02 -0.19928622374E+02  0.23139024101E+02  0.34472867645E+02  0.51100000000E-03 0. -1.
        -11    1    3    3    0    0  0.82875633894E+01 -0.78363163065E+01  0.99246953643E+00  0.11448867028E+02  0.51100000000E-03 0.  1.
         12    1    3    3    0    0  0.45730046274E+00  0.17845248624E+01  0.29430288381E+00  0.18655473420E+01  0.00000000000E+00 0. -1.
</event>
<event>
 7    1  0.2685294E-009  0.4778727E+02  0.7816164E-02  0.1312668E+00
        -11   -1    0    0    0    0  0.00000000000E+00  0.00000000000E+00  0.45593999997E+02  0.45594000000E+02  0.51100000000E-03 0.  1.
         11   -1    0    0    0    0 -0.00000000000E+00 -0.00000000000E+00 -0.45593999997E+02  0.45594000000E+02  0.51100000000E-03 0. -1.
    9900012    2    1    2    0    0  0.11899276567E+02 -0.19736390003E+02 -0.36776424059E+02  0.47787271438E+02  0.20000001793E+02 0.  0.
        -12    1    1    2    0    0 -0.11899276567E+02  0.19736390003E+02  0.36776424059E+02  0.43400728562E+02  0.00000000000E+00 0.  1.
         11    1    3    3    0    0  0.14232178098E+02 -0.12077459607E+02 -0.24511003972E+02  0.30809239523E+02  0.51100000000E-03 0. -1.
        -11    1    3    3    0    0 -0.47052657356E+01 -0.50629675184E+01 -0.11439819776E+02  0.13365726411E+02  0.51100000000E-03 0.  1.
        -12    1    3    3    0    0  0.23723642052E+01 -0.25959628769E+01 -0.82560031096E+00  0.36123055040E+01  0.00000000000E+00 0.  1.
</event>
<event>
 7    1  0.2685294E-009  0.4778727E+02  0.7816164E-02  0.1312668E+00
        -11   -1    0    0    0    0  0.00000000000E+00  0.00000000000E+00  0.45593999997E+02  0.45594000000E+02  0.51100000000E-03 0.  1.
         11   -1    0    0    0    0 -0.00000000000E+00 -0.00000000000E+00 -0.45593999997E+02  0.45594000000E+02  0.51100000000E-03 0. -1.
    9900012    2    1    2    0    0 -0.30365274317E+02  0.31003764948E+02  0.58292699067E+00  0.47787272712E+02  0.20000007603E+02 0.  0.
        -12    1    1    2    0    0  0.30365274317E+02 -0.31003764948E+02 -0.58292699067E+00  0.43400727288E+02  0.00000000000E+00 0.  1.
         11    1    3    3    0    0 -0.10537728063E+02  0.17402398739E+02 -0.69180549925E+01  0.21488291690E+02  0.51100000000E-03 0. -1.
        -11    1    3    3    0    0 -0.89665642947E+00 -0.30240599262E+00  0.19445140586E+01  0.21625395539E+01  0.51100000000E-03 0.  1.
         12    1    3    3    0    0 -0.18930889824E+02  0.13903772201E+02  0.55564679245E+01  0.24136441468E+02  0.00000000000E+00 0. -1.
</event>
<event>
 7    1  0.2685294E-009  0.4778727E+02  0.7816164E-02  0.1312668E+00
        -11   -1    0    0    0    0  0.00000000000E+00  0.00000000000E+00  0.45593999997E+02  0.45594000000E+02  0.51100000000E-03 0.  1.
         11   -1    0    0    0    0 -0.00000000000E+00 -0.00000000000E+00 -0.45593999997E+02  0.45594000000E+02  0.51100000000E-03 0. -1.
    9900012    2    1    2    0    0 -0.12774153344E+02  0.29007829360E+02 -0.29647768952E+02  0.47787270033E+02  0.19999995387E+02 0.  0.
        -12    1    1    2    0    0  0.12774153344E+02 -0.29007829360E+02  0.29647768952E+02  0.43400729967E+02  0.00000000000E+00 0.  1.
         11    1    3    3    0    0 -0.78136301168E+01  0.22553063425E+02 -0.23465444801E+02  0.33471190380E+02  0.51100000000E-03 0. -1.
        -11    1    3    3    0    0  0.23713016141E+01  0.72706628619E+00  0.88387057286E+00  0.26330446598E+01  0.51100000000E-03 0.  1.
         12    1    3    3    0    0 -0.73318248418E+01  0.57276996493E+01 -0.70661947236E+01  0.11683034993E+02  0.00000000000E+00 0. -1.
</event>
<event>
 7    1  0.3209972E-009  0.4778727E+02  0.7816164E-02  0.1312668E+00
        -11   -1    0    0    0    0  0.00000000000E+00  0.00000000000E+00  0.45593999997E+02  0.45594000000E+02  0.51100000000E-03 0.  1.
         11   -1    0    0    0    0 -0.00000000000E+00 -0.00000000000E+00 -0.45593999997E+02  0.45594000000E+02  0.51100000000E-03 0. -1.
    9900012    2    1    2    0    0  0.35350215462E+02  0.10939364110E+02 -0.22678543204E+02  0.47787265649E+02  0.19999975399E+02 0.  0.
        -12    1    1    2    0    0 -0.35350215462E+02 -0.10939364110E+02  0.22678543204E+02  0.43400734351E+02  0.00000000000E+00 0.  1.
         11    1    3    3    0    0  0.19904649693E+02  0.47456999289E+01 -0.13085191973E+02  0.24288659832E+02  0.51100000000E-03 0. -1.
        -11    1    3    3    0    0  0.31424917969E+01  0.75521392551E+01 -0.71877597082E+01  0.10889166722E+02  0.51100000000E-03 0.  1.
        -12    1    3    3    0    0  0.12303073973E+02 -0.13584750744E+01 -0.24055915234E+01  0.12609439095E+02  0.00000000000E+00 0.  1.
</event>
<event>
 7    1  0.2685294E-009  0.4778727E+02  0.7816164E-02  0.1312668E+00
        -11   -1    0    0    0    0  0.00000000000E+00  0.00000000000E+00  0.45593999997E+02  0.45594000000E+02  0.51100000000E-03 0.  1.
         11   -1    0    0    0    0 -0.00000000000E+00 -0.00000000000E+00 -0.45593999997E+02  0.45594000000E+02  0.51100000000E-03 0. -1.
    9900012    2    1    2    0    0  0.11051922452E+02  0.38705050677E+02 -0.16229524192E+02  0.47787269669E+02  0.19999993729E+02 0.  0.
        -12    1    1    2    0    0 -0.11051922452E+02 -0.38705050677E+02  0.16229524192E+02  0.43400730331E+02  0.00000000000E+00 0.  1.
         11    1    3    3    0    0  0.75459650246E+01  0.18370311341E+02 -0.98280867174E+01  0.22158547238E+02  0.51100000000E-03 0. -1.
        -11    1    3    3    0    0 -0.53155407624E+01  0.74572354651E+01 -0.15905130061E+01  0.92948946343E+01  0.51100000000E-03 0.  1.
        -12    1    3    3    0    0  0.88214981899E+01  0.12877503871E+02 -0.48109244687E+01  0.16333827797E+02  0.00000000000E+00 0.  1.
</event>
<event>
 7    1  0.2685294E-009  0.4778726E+02  0.7816164E-02  0.1312668E+00
        -11   -1    0    0    0    0  0.00000000000E+00  0.00000000000E+00  0.45593999997E+02  0.45594000000E+02  0.51100000000E-03 0. -1.
         11   -1    0    0    0    0 -0.00000000000E+00 -0.00000000000E+00 -0.45593999997E+02  0.45594000000E+02  0.51100000000E-03 0.  1.
    9900012    2    1    2    0    0 -0.26986529291E+02  0.24302730028E+02  0.23764025854E+02  0.47787258361E+02  0.19999942172E+02 0.  0.
        -12    1    1    2    0    0  0.26986529291E+02 -0.24302730028E+02 -0.23764025854E+02  0.43400741639E+02  0.00000000000E+00 0.  1.
         11    1    3    3    0    0 -0.82645467632E+01  0.59707742329E+01  0.49373481318E+01  0.11328295767E+02  0.51100000000E-03 0. -1.
        -11    1    3    3    0    0 -0.12877548989E+02  0.20857172917E+02  0.12631097946E+02  0.27575307172E+02  0.51100000000E-03 0.  1.
        -12    1    3    3    0    0 -0.58444335394E+01 -0.25252171216E+01  0.61955797760E+01  0.88836554227E+01  0.00000000000E+00 0.  1.
</event>
<event>
 7    1  0.2685294E-009  0.4778728E+02  0.7816164E-02  0.1312668E+00
        -11   -1    0    0    0    0  0.00000000000E+00  0.00000000000E+00  0.45593999997E+02  0.45594000000E+02  0.51100000000E-03 0.  1.
         11   -1    0    0    0    0 -0.00000000000E+00 -0.00000000000E+00 -0.45593999997E+02  0.45594000000E+02  0.51100000000E-03 0. -1.
    9900012    2    1    2    0    0  0.17861941834E+02 -0.84090424930E+01 -0.38650506366E+02  0.47787278761E+02  0.20000035183E+02 0.  0.
        -12    1    1    2    0    0 -0.17861941834E+02  0.84090424930E+01  0.38650506366E+02  0.43400721239E+02  0.00000000000E+00 0.  1.
         11    1    3    3    0    0  0.19628600744E+02 -0.29617657794E+01 -0.26107757747E+02  0.32797393777E+02  0.51100000000E-03 0. -1.
        -11    1    3    3    0    0 -0.24735641966E+00  0.12022468084E+01 -0.10033929645E+01  0.15853644026E+01  0.51100000000E-03 0.  1.
         12    1    3    3    0    0 -0.15193024898E+01 -0.66495235220E+01 -0.11539355654E+02  0.13404520582E+02  0.00000000000E+00 0. -1.
</event>
<event>
 7    1  0.2685294E-009  0.4778727E+02  0.7816164E-02  0.1312668E+00
        -11   -1    0    0    0    0  0.00000000000E+00  0.00000000000E+00  0.45593999997E+02  0.45594000000E+02  0.51100000000E-03 0.  1.
         11   -1    0    0    0    0 -0.00000000000E+00 -0.00000000000E+00 -0.45593999997E+02  0.45594000000E+02  0.51100000000E-03 0. -1.
    9900012    2    1    2    0    0  0.17860991415E+02 -0.82999671906E+01 -0.38674526087E+02  0.47787269156E+02  0.19999991391E+02 0.  0.
        -12    1    1    2    0    0 -0.17860991415E+02  0.82999671906E+01  0.38674526087E+02  0.43400730844E+02  0.00000000000E+00 0.  1.
         11    1    3    3    0    0  0.23743663757E+01  0.33082165740E+01  0.10590756958E-01  0.40721032663E+01  0.51100000000E-03 0. -1.
        -11    1    3    3    0    0  0.37078170949E+01 -0.36753620569E+01 -0.53207827115E+01  0.74543224228E+01  0.51100000000E-03 0.  1.
         12    1    3    3    0    0  0.11778807944E+02 -0.79328217077E+01 -0.33364334133E+02  0.36260843467E+02  0.00000000000E+00 0. -1.
</event>
<event>
 7    1  0.2685294E-009  0.4778727E+02  0.7816164E-02  0.1312668E+00
        -11   -1    0    0    0    0  0.00000000000E+00  0.00000000000E+00  0.45593999997E+02  0.45594000000E+02  0.51100000000E-03 0.  1.
         11   -1    0    0    0    0 -0.00000000000E+00 -0.00000000000E+00 -0.45593999997E+02  0.45594000000E+02  0.51100000000E-03 0. -1.
    9900012    2    1    2    0    0  0.31884414262E+02 -0.99400232653E+01 -0.27716479097E+02  0.47787272484E+02  0.20000006566E+02 0.  0.
        -12    1    1    2    0    0 -0.31884414262E+02  0.99400232653E+01  0.27716479097E+02  0.43400727516E+02  0.00000000000E+00 0.  1.
         11    1    3    3    0    0  0.81047275411E+01  0.28659979366E+01 -0.24810510672E+01  0.89474112092E+01  0.51100000000E-03 0. -1.
        -11    1    3    3    0    0  0.15342194331E+02 -0.12024115506E+02 -0.11302122338E+02  0.22532204734E+02  0.51100000000E-03 0.  1.
        -12    1    3    3    0    0  0.84374923896E+01 -0.78190569591E+00 -0.13933305692E+02  0.16307656541E+02  0.00000000000E+00 0.  1.
</event>
<event>
 7    1  0.2685294E-009  0.4778727E+02  0.7816164E-02  0.1312668E+00
        -11   -1    0    0    0    0  0.00000000000E+00  0.00000000000E+00  0.45593999997E+02  0.45594000000E+02  0.51100000000E-03 0.  1.
         11   -1    0    0    0    0 -0.00000000000E+00 -0.00000000000E+00 -0.45593999997E+02  0.45594000000E+02  0.51100000000E-03 0. -1.
    9900012    2    1    2    0    0 -0.38405763584E+01  0.16571537964E+02 -0.39928155420E+02  0.47787268525E+02  0.19999988515E+02 0.  0.
        -12    1    1    2    0    0  0.38405763584E+01 -0.16571537964E+02  0.39928155420E+02  0.43400731475E+02  0.00000000000E+00 0.  1.
         11    1    3    3    0    0  0.79900857809E+01  0.85993753304E+01 -0.16057985784E+02  0.19890943531E+02  0.51100000000E-03 0. -1.
        -11    1    3    3    0    0 -0.56566201002E+01  0.26118861854E+01 -0.94396723417E+01  0.11310469247E+02  0.51100000000E-03 0.  1.
         12    1    3    3    0    0 -0.61740420390E+01  0.53602764480E+01 -0.14430497295E+02  0.16585855747E+02  0.00000000000E+00 0. -1.
</event>
<event>
 7    1  0.2685294E-009  0.4778728E+02  0.7816164E-02  0.1312668E+00
        -11   -1    0    0    0    0  0.00000000000E+00  0.00000000000E+00  0.45593999997E+02  0.45594000000E+02  0.51100000000E-03 0. -1.
         11   -1    0    0    0    0 -0.00000000000E+00 -0.00000000000E+00 -0.45593999997E+02  0.45594000000E+02  0.51100000000E-03 0.  1.
    9900012    2    1    2    0    0  0.41813573167E+02  0.11163322395E+02  0.32599959014E+01  0.47787282942E+02  0.20000054244E+02 0.  0.
        -12    1    1    2    0    0 -0.41813573167E+02 -0.11163322395E+02 -0.32599959014E+01  0.43400717058E+02  0.00000000000E+00 0.  1.
         11    1    3    3    0    0  0.18999751493E+02  0.72474784021E+01 -0.10618429126E+01  0.20362809497E+02  0.51100000000E-03 0. -1.
        -11    1    3    3    0    0  0.21341260825E+02 -0.12286469595E+01  0.52045705343E+01  0.22001057740E+02  0.51100000000E-03 0.  1.
        -12    1    3    3    0    0  0.14725608487E+01  0.51444909527E+01 -0.88273172031E+00  0.54234157047E+01  0.00000000000E+00 0.  1.
</event>
<event>
 7    1  0.2685294E-009  0.4778727E+02  0.7816164E-02  0.1312668E+00
        -11   -1    0    0    0    0  0.00000000000E+00  0.00000000000E+00  0.45593999997E+02  0.45594000000E+02  0.51100000000E-03 0. -1.
         11   -1    0    0    0    0 -0.00000000000E+00 -0.00000000000E+00 -0.45593999997E+02  0.45594000000E+02  0.51100000000E-03 0.  1.
    9900012    2    1    2    0    0 -0.39850720931E+02 -0.13291973776E+02 -0.10902607025E+02  0.47787269988E+02  0.19999995184E+02 0.  0.
        -12    1    1    2    0    0  0.39850720931E+02  0.13291973776E+02  0.10902607025E+02  0.43400730012E+02  0.00000000000E+00 0.  1.
         11    1    3    3    0    0 -0.19485337389E+02  0.26578885055E+01 -0.81503360098E+01  0.21287806881E+02  0.51100000000E-03 0. -1.
        -11    1    3    3    0    0 -0.16816457657E+02 -0.12791577985E+02 -0.41814625563E+01  0.21538392346E+02  0.51100000000E-03 0.  1.
         12    1    3    3    0    0 -0.35489258860E+01 -0.31582842968E+01  0.14291915407E+01  0.49610707618E+01  0.00000000000E+00 0. -1.
</event>
<event>
 7    1  0.2685294E-009  0.4778726E+02  0.7816164E-02  0.1312668E+00
        -11   -1    0    0    0    0  0.00000000000E+00  0.00000000000E+00  0.45593999997E+02  0.45594000000E+02  0.51100000000E-03 0.  1.
         11   -1    0    0    0    0 -0.00000000000E+00 -0.00000000000E+00 -0.45593999997E+02  0.45594000000E+02  0.51100000000E-03 0. -1.
    9900012    2    1    2    0    0  0.21860952254E+02 -0.10699707143E+02 -0.35933812633E+02  0.47787264329E+02  0.19999969383E+02 0.  0.
        -12    1    1    2    0    0 -0.21860952254E+02  0.10699707143E+02  0.35933812633E+02  0.43400735671E+02  0.00000000000E+00 0.  1.
         11    1    3    3    0    0  0.11320776731E+02 -0.81999786440E+00 -0.23814153669E+02  0.26380794104E+02  0.51100000000E-03 0. -1.
        -11    1    3    3    0    0 -0.10944267643E+01 -0.42072697728E+00  0.95496503421E+00  0.15121969480E+01  0.51100000000E-03 0.  1.
         12    1    3    3    0    0  0.11634602287E+02 -0.94589823010E+01 -0.13074623998E+02  0.19894273278E+02  0.00000000000E+00 0. -1.
</event>
<event>
 7    1  0.2685294E-009  0.4778728E+02  0.7816164E-02  0.1312668E+00
        -11   -1    0    0    0    0  0.00000000000E+00  0.00000000000E+00  0.45593999997E+02  0.45594000000E+02  0.51100000000E-03 0.  1.
         11   -1    0    0    0    0 -0.00000000000E+00 -0.00000000000E+00 -0.45593999997E+02  0.45594000000E+02  0.51100000000E-03 0. -1.
    9900012    2    1    2    0    0  0.16490935737E+02  0.22150816163E+02 -0.33481533632E+02  0.47787277511E+02  0.20000029486E+02 0.  0.
        -12    1    1    2    0    0 -0.16490935737E+02 -0.22150816163E+02  0.33481533632E+02  0.43400722489E+02  0.00000000000E+00 0.  1.
         11    1    3    3    0    0  0.17832391712E+01  0.96405660709E+00  0.22115160358E+01  0.30000250867E+01  0.51100000000E-03 0. -1.
        -11    1    3    3    0    0  0.32577377616E+01  0.10675925318E+02 -0.11455811185E+02  0.15994494268E+02  0.51100000000E-03 0.  1.
         12    1    3    3    0    0  0.11449958804E+02  0.10510834238E+02 -0.24237238483E+02  0.28792758157E+02  0.00000000000E+00 0. -1.
</event>
<event>
 7    1  0.2685294E-009  0.4778728E+02  0.7816164E-02  0.1312668E+00
        -11   -1    0    0    0    0  0.00000000000E+00  0.00000000000E+00  0.45593999997E+02  0.45594000000E+02  0.51100000000E-03 0.  1.
         11   -1    0    0    0    0 -0.00000000000E+00 -0.00000000000E+00 -0.45593999997E+02  0.45594000000E+02  0.51100000000E-03 0. -1.
    9900012    2    1    2    0    0 -0.74735460999E+01  0.24200063582E+02 -0.35243806704E+02  0.47787275586E+02  0.20000020706E+02 0.  0.
        -12    1    1    2    0    0  0.74735460999E+01 -0.24200063582E+02  0.35243806704E+02  0.43400724414E+02  0.00000000000E+00 0.  1.
         11    1    3    3    0    0 -0.23473770492E+01 -0.13572043145E+01  0.52788669315E+00  0.27623988098E+01  0.51100000000E-03 0. -1.
        -11    1    3    3    0    0 -0.16921334662E+01  0.16721594154E+01 -0.74925549972E+00  0.24941565394E+01  0.51100000000E-03 0.  1.
         12    1    3    3    0    0 -0.34340355845E+01  0.23885108481E+02 -0.35022437898E+02  0.42530720237E+02  0.00000000000E+00 0. -1.
</event>
<event>
 7    1  0.2685294E-009  0.4778729E+02  0.7816164E-02  0.1312668E+00
        -11   -1    0    0    0    0  0.00000000000E+00  0.00000000000E+00  0.45593999997E+02  0.45594000000E+02  0.51100000000E-03 0.  1.
         11   -1    0    0    0    0 -0.00000000000E+00 -0.00000000000E+00 -0.45593999997E+02  0.45594000000E+02  0.51100000000E-03 0. -1.
    9900012    2    1    2    0    0  0.31497244641E+02  0.13140418168E+02 -0.26811837516E+02  0.47787289861E+02  0.20000085792E+02 0.  0.
        -12    1    1    2    0    0 -0.31497244641E+02 -0.13140418168E+02  0.26811837516E+02  0.43400710139E+02  0.00000000000E+00 0.  1.
         11    1    3    3    0    0  0.24818928640E+02  0.69527671201E+01 -0.25334385328E+02  0.36140714848E+02  0.51100000000E-03 0. -1.
        -11    1    3    3    0    0  0.63849708103E+01  0.60653749203E+01 -0.35900090048E+01  0.95102465839E+01  0.51100000000E-03 0.  1.
         12    1    3    3    0    0  0.29334518994E+00  0.12227612731E+00  0.21125568170E+01  0.21363284291E+01  0.00000000000E+00 0. -1.
</event>
<event>
 7    1  0.2685294E-009  0.4778727E+02  0.7816164E-02  0.1312668E+00
        -11   -1    0    0    0    0  0.00000000000E+00  0.00000000000E+00  0.45593999997E+02  0.45594000000E+02  0.51100000000E-03 0.  1.
         11   -1    0    0    0    0 -0.00000000000E+00 -0.00000000000E+00 -0.45593999997E+02  0.45594000000E+02  0.51100000000E-03 0. -1.
    9900012    2    1    2    0    0 -0.24015061494E+02 -0.35687879670E+02 -0.57684637819E+01  0.47787272952E+02  0.20000008696E+02 0.  0.
        -12    1    1    2    0    0  0.24015061494E+02  0.35687879670E+02  0.57684637819E+01  0.43400727048E+02  0.00000000000E+00 0.  1.
         11    1    3    3    0    0 -0.13106777090E+02 -0.12856722548E+02 -0.90395862858E+01  0.20464531289E+02  0.51100000000E-03 0. -1.
        -11    1    3    3    0    0 -0.12478073111E+02 -0.19661726060E+02  0.42073262621E+01  0.23664052374E+02  0.51100000000E-03 0.  1.
        -12    1    3    3    0    0  0.15697887069E+01 -0.31694310619E+01 -0.93620375816E+00  0.36586892895E+01  0.00000000000E+00 0.  1.
</event>
<event>
 7    1  0.4076634E-009  0.4778725E+02  0.7816164E-02  0.1312668E+00
        -11   -1    0    0    0    0  0.00000000000E+00  0.00000000000E+00  0.45593999997E+02  0.45594000000E+02  0.51100000000E-03 0. -1.
         11   -1    0    0    0    0 -0.00000000000E+00 -0.00000000000E+00 -0.45593999997E+02  0.45594000000E+02  0.51100000000E-03 0.  1.
    9900012    2    1    2    0    0 -0.40954382485E+02 -0.69900969792E+01  0.12549997020E+02  0.47787247406E+02  0.19999892224E+02 0.  0.
        -12    1    1    2    0    0  0.40954382485E+02  0.69900969792E+01 -0.12549997020E+02  0.43400752594E+02  0.00000000000E+00 0.  1.
         11    1    3    3    0    0 -0.23609815188E+02 -0.61611918875E+01  0.10520285254E+02  0.26571790696E+02  0.51100000000E-03 0. -1.
        -11    1    3    3    0    0  0.15431339833E+01  0.10101604913E+00  0.17053377361E+01  0.23020955211E+01  0.51100000000E-03 0.  1.
        -12    1    3    3    0    0 -0.18887701280E+02 -0.92992114074E+00  0.32437402993E+00  0.18913361189E+02  0.00000000000E+00 0.  1.
</event>
<event>
 7    1  0.2685294E-009  0.4778730E+02  0.7816164E-02  0.1312668E+00
        -11   -1    0    0    0    0  0.00000000000E+00  0.00000000000E+00  0.45593999997E+02  0.45594000000E+02  0.51100000000E-03 0.  1.
         11   -1    0    0    0    0 -0.00000000000E+00 -0.00000000000E+00 -0.45593999997E+02  0.45594000000E+02  0.51100000000E-03 0. -1.
    9900012    2    1    2    0    0 -0.17898871359E+02 -0.21651861810E+02 -0.33082448378E+02  0.47787296015E+02  0.20000113850E+02 0.  0.
        -12    1    1    2    0    0  0.17898871359E+02  0.21651861810E+02  0.33082448378E+02  0.43400703985E+02  0.00000000000E+00 0.  1.
         11    1    3    3    0    0 -0.11405970222E+01 -0.59948907040E+01  0.68395537293E+00  0.61406409546E+01  0.51100000000E-03 0. -1.
        -11    1    3    3    0    0 -0.54019896878E+01 -0.16571649902E+01 -0.12828414904E+02  0.14017700153E+02  0.51100000000E-03 0.  1.
         12    1    3    3    0    0 -0.11356284649E+02 -0.13999806116E+02 -0.20937988847E+02  0.27628954907E+02  0.00000000000E+00 0. -1.
</event>
<event>
 7    1  0.2685294E-009  0.4778727E+02  0.7816164E-02  0.1312668E+00
        -11   -1    0    0    0    0  0.00000000000E+00  0.00000000000E+00  0.45593999997E+02  0.45594000000E+02  0.51100000000E-03 0. -1.
         11   -1    0    0    0    0 -0.00000000000E+00 -0.00000000000E+00 -0.45593999997E+02  0.45594000000E+02  0.51100000000E-03 0.  1.
    9900012    2    1    2    0    0  0.34630315700E+02 -0.25108051005E+02 -0.73451180515E+01  0.47787265560E+02  0.19999974994E+02 0.  0.
        -12    1    1    2    0    0 -0.34630315700E+02  0.25108051005E+02  0.73451180515E+01  0.43400734440E+02  0.00000000000E+00 0.  1.
         11    1    3    3    0    0  0.26106883084E+02 -0.11348667741E+02 -0.29526280247E+00  0.28468382185E+02  0.51100000000E-03 0. -1.
        -11    1    3    3    0    0  0.45297397191E+01 -0.13095663177E+02 -0.46699059686E+01  0.14622686415E+02  0.51100000000E-03 0.  1.
         12    1    3    3    0    0  0.39936928971E+01 -0.66372008673E+00 -0.23799492804E+01  0.46961969600E+01  0.00000000000E+00 0. -1.
</event>
<event>
 7    1  0.2685294E-009  0.4778727E+02  0.7816164E-02  0.1312668E+00
        -11   -1    0    0    0    0  0.00000000000E+00  0.00000000000E+00  0.45593999997E+02  0.45594000000E+02  0.51100000000E-03 0.  1.
         11   -1    0    0    0    0 -0.00000000000E+00 -0.00000000000E+00 -0.45593999997E+02  0.45594000000E+02  0.51100000000E-03 0. -1.
    9900012    2    1    2    0    0 -0.41487180468E+02 -0.75767008243E+01 -0.10248445269E+02  0.47787272253E+02  0.20000005509E+02 0.  0.
        -12    1    1    2    0    0  0.41487180468E+02  0.75767008243E+01  0.10248445269E+02  0.43400727747E+02  0.00000000000E+00 0.  1.
         11    1    3    3    0    0 -0.22615197187E+02 -0.64045130415E+01 -0.11545997194E+02  0.26187305752E+02  0.51100000000E-03 0. -1.
        -11    1    3    3    0    0 -0.13295379622E+02 -0.44837095490E+00  0.56857230357E+01  0.14467052309E+02  0.51100000000E-03 0.  1.
        -12    1    3    3    0    0 -0.55766036595E+01 -0.72381682787E+00 -0.43881711109E+01  0.71329141922E+01  0.00000000000E+00 0.  1.
</event>
<event>
 7    1  0.2685294E-009  0.4778726E+02  0.7816164E-02  0.1312668E+00
        -11   -1    0    0    0    0  0.00000000000E+00  0.00000000000E+00  0.45593999997E+02  0.45594000000E+02  0.51100000000E-03 0. -1.
         11   -1    0    0    0    0 -0.00000000000E+00 -0.00000000000E+00 -0.45593999997E+02  0.45594000000E+02  0.51100000000E-03 0.  1.
    9900012    2    1    2    0    0 -0.24573779655E+02  0.34452246583E+02  0.96330806455E+01  0.47787260561E+02  0.19999952201E+02 0.  0.
        -12    1    1    2    0    0  0.24573779655E+02 -0.34452246583E+02 -0.96330806455E+01  0.43400739439E+02  0.00000000000E+00 0.  1.
         11    1    3    3    0    0 -0.37018519053E+01  0.67096837976E+01  0.31919042671E+01  0.83013141914E+01  0.51100000000E-03 0. -1.
        -11    1    3    3    0    0 -0.16214650274E+02  0.13417799477E+02  0.11000891622E+02  0.23748091356E+02  0.51100000000E-03 0.  1.
        -12    1    3    3    0    0 -0.46572774757E+01  0.14324763309E+02 -0.45597152434E+01  0.15737855014E+02  0.00000000000E+00 0.  1.
</event>
<event>
 7    1  0.2685294E-009  0.4778728E+02  0.7816164E-02  0.1312668E+00
        -11   -1    0    0    0    0  0.00000000000E+00  0.00000000000E+00  0.45593999997E+02  0.45594000000E+02  0.51100000000E-03 0. -1.
         11   -1    0    0    0    0 -0.00000000000E+00 -0.00000000000E+00 -0.45593999997E+02  0.45594000000E+02  0.51100000000E-03 0.  1.
    9900012    2    1    2    0    0  0.25679927146E+02  0.34815478747E+02  0.34707964461E+01  0.47787278272E+02  0.20000032952E+02 0.  0.
        -12    1    1    2    0    0 -0.25679927146E+02 -0.34815478747E+02 -0.34707964461E+01  0.43400721728E+02  0.00000000000E+00 0.  1.
         11    1    3    3    0    0  0.11693204244E+01  0.43983135458E+01 -0.52189653965E+01  0.69245990767E+01  0.51100000000E-03 0. -1.
        -11    1    3    3    0    0  0.11197217644E+01 -0.98227459190E-01  0.12849011638E+01  0.17071604275E+01  0.51100000000E-03 0.  1.
         12    1    3    3    0    0  0.23390884957E+02  0.30515392660E+02  0.74048606788E+01  0.39155518767E+02  0.00000000000E+00 0. -1.
</event>
<event>
 7    1  0.2685294E-009  0.4778727E+02  0.7816164E-02  0.1312668E+00
        -11   -1    0    0    0    0  0.00000000000E+00  0.00000000000E+00  0.45593999997E+02  0.45594000000E+02  0.51100000000E-03 0.  1.
         11   -1    0    0    0    0 -0.00000000000E+00 -0.00000000000E+00 -0.45593999997E+02  0.45594000000E+02  0.51100000000E-03 0. -1.
    9900012    2    1    2    0    0 -0.22462382193E+02  0.15465144809E+02 -0.33762319730E+02  0.47787267849E+02  0.19999985429E+02 0.  0.
        -12    1    1    2    0    0  0.22462382193E+02 -0.15465144809E+02  0.33762319730E+02  0.43400732151E+02  0.00000000000E+00 0.  1.
         11    1    3    3    0    0 -0.31161793539E+01  0.28356580897E+01 -0.32869897072E+01  0.53437657288E+01  0.51100000000E-03 0. -1.
        -11    1    3    3    0    0 -0.92446800773E+01  0.75716098756E+01 -0.24105571225E+01  0.12190331076E+02  0.51100000000E-03 0.  1.
        -12    1    3    3    0    0 -0.10101522761E+02  0.50578768435E+01 -0.28064772900E+02  0.30253171044E+02  0.00000000000E+00 0.  1.
</event>
<event>
 7    1  0.2685294E-009  0.4778727E+02  0.7816164E-02  0.1312668E+00
        -11   -1    0    0    0    0  0.00000000000E+00  0.00000000000E+00  0.45593999997E+02  0.45594000000E+02  0.51100000000E-03 0. -1.
         11   -1    0    0    0    0 -0.00000000000E+00 -0.00000000000E+00 -0.45593999997E+02  0.45594000000E+02  0.51100000000E-03 0.  1.
    9900012    2    1    2    0    0 -0.15790721995E+01  0.39316975476E+02  0.18311356249E+02  0.47787265015E+02  0.19999972510E+02 0.  0.
        -12    1    1    2    0    0  0.15790721995E+01 -0.39316975476E+02 -0.18311356249E+02  0.43400734985E+02  0.00000000000E+00 0.  1.
         11    1    3    3    0    0  0.40289442348E+01  0.36022949724E+02  0.12176363850E+02  0.38238058728E+02  0.51100000000E-03 0. -1.
        -11    1    3    3    0    0 -0.51560129109E+00  0.19602957434E+01  0.20801303480E+01  0.29044012496E+01  0.51100000000E-03 0.  1.
         12    1    3    3    0    0 -0.50924151433E+01  0.13337300083E+01  0.40548620511E+01  0.66448050370E+01  0.00000000000E+00 0. -1.
</event>
<event>
 7    1  0.2685294E-009  0.4778728E+02  0.7816164E-02  0.1312668E+00
        -11   -1    0    0    0    0  0.00000000000E+00  0.00000000000E+00  0.45593999997E+02  0.45594000000E+02  0.51100000000E-03 0.  1.
         11   -1    0    0    0    0 -0.00000000000E+00 -0.00000000000E+00 -0.45593999997E+02  0.45594000000E+02  0.51100000000E-03 0. -1.
    9900012    2    1    2    0    0  0.39227535217E+02  0.95889122217E+01  0.15902054182E+02  0.47787284752E+02  0.20000062500E+02 0.  0.
        -12    1    1    2    0    0 -0.39227535217E+02 -0.95889122217E+01 -0.15902054182E+02  0.43400715248E+02  0.00000000000E+00 0.  1.
         11    1    3    3    0    0  0.22095738182E+02  0.12356327791E+02  0.53828571017E+01  0.25881955744E+02  0.51100000000E-03 0. -1.
        -11    1    3    3    0    0  0.85889368977E+01 -0.27905641479E+01  0.98086821177E+01  0.13332941553E+02  0.51100000000E-03 0.  1.
         12    1    3    3    0    0  0.85428601376E+01  0.23148578382E-01  0.71051496273E+00  0.85723874562E+01  0.00000000000E+00 0. -1.
</event>
<event>
 7    1  0.2685294E-009  0.4778727E+02  0.7816164E-02  0.1312668E+00
        -11   -1    0    0    0    0  0.00000000000E+00  0.00000000000E+00  0.45593999997E+02  0.45594000000E+02  0.51100000000E-03 0.  1.
         11   -1    0    0    0    0 -0.00000000000E+00 -0.00000000000E+00 -0.45593999997E+02  0.45594000000E+02  0.51100000000E-03 0. -1.
    9900012    2    1    2    0    0 -0.51435554220E+01 -0.17141967549E+02 -0.39538840247E+02  0.47787273025E+02  0.20000009031E+02 0.  0.
        -12    1    1    2    0    0  0.51435554220E+01  0.17141967549E+02  0.39538840247E+02  0.43400726975E+02  0.00000000000E+00 0.  1.
         11    1    3    3    0    0  0.50613116013E+01 -0.88117366031E+01 -0.69031064935E+01  0.12284805925E+02  0.51100000000E-03 0.  1.
        -11    1    3    3    0    0 -0.72954427525E+01 -0.77452797554E+01 -0.28423919732E+02  0.30350157440E+02  0.51100000000E-03 0. -1.
        -12    1    3    3    0    0 -0.29094242707E+01 -0.58495119082E+00 -0.42118140218E+01  0.51523096604E+01  0.00000000000E+00 0.  1.
</event>
<event>
 7    1  0.2685294E-009  0.4778727E+02  0.7816164E-02  0.1312668E+00
        -11   -1    0    0    0    0  0.00000000000E+00  0.00000000000E+00  0.45593999997E+02  0.45594000000E+02  0.51100000000E-03 0.  1.
         11   -1    0    0    0    0 -0.00000000000E+00 -0.00000000000E+00 -0.45593999997E+02  0.45594000000E+02  0.51100000000E-03 0. -1.
    9900012    2    1    2    0    0 -0.47284963466E+01  0.23438303381E+02 -0.36220308767E+02  0.47787268321E+02  0.19999987584E+02 0.  0.
        -12    1    1    2    0    0  0.47284963466E+01 -0.23438303381E+02  0.36220308767E+02  0.43400731679E+02  0.00000000000E+00 0.  1.
         11    1    3    3    0    0  0.49433304188E+01  0.59339557713E+01 -0.50382894800E+01  0.92213181200E+01  0.51100000000E-03 0. -1.
        -11    1    3    3    0    0  0.87614047221E+00  0.29607292724E+00 -0.70296597057E+01  0.70902325170E+01  0.51100000000E-03 0.  1.
         12    1    3    3    0    0 -0.10547967238E+02  0.17208274683E+02 -0.24152359581E+02  0.31475717684E+02  0.00000000000E+00 0. -1.
</event>
<event>
 7    1  0.2768473E-009  0.4778727E+02  0.7816164E-02  0.1312668E+00
        -11   -1    0    0    0    0  0.00000000000E+00  0.00000000000E+00  0.45593999997E+02  0.45594000000E+02  0.51100000000E-03 0. -1.
         11   -1    0    0    0    0 -0.00000000000E+00 -0.00000000000E+00 -0.45593999997E+02  0.45594000000E+02  0.51100000000E-03 0.  1.
    9900012    2    1    2    0    0  0.34528216680E+02  0.20447889145E+02  0.16532072587E+02  0.47787270264E+02  0.19999996442E+02 0.  0.
        -12    1    1    2    0    0 -0.34528216680E+02 -0.20447889145E+02 -0.16532072587E+02  0.43400729736E+02  0.00000000000E+00 0.  1.
         11    1    3    3    0    0  0.24094049723E+02  0.14803400552E+02  0.10965605218E+02  0.30329991724E+02  0.51100000000E-03 0. -1.
        -11    1    3    3    0    0 -0.51801285867E+00 -0.65133931737E+00 -0.23879203409E+01  0.25287831152E+01  0.51100000000E-03 0.  1.
        -12    1    3    3    0    0  0.10952179816E+02  0.62958279107E+01  0.79543877095E+01  0.14928495425E+02  0.00000000000E+00 0.  1.
</event>
<event>
 7    1  0.2685294E-009  0.4778727E+02  0.7816164E-02  0.1312668E+00
        -11   -1    0    0    0    0  0.00000000000E+00  0.00000000000E+00  0.45593999997E+02  0.45594000000E+02  0.51100000000E-03 0. -1.
         11   -1    0    0    0    0 -0.00000000000E+00 -0.00000000000E+00 -0.45593999997E+02  0.45594000000E+02  0.51100000000E-03 0.  1.
    9900012    2    1    2    0    0  0.88535512150E+00 -0.38515113226E+02  0.19985630162E+02  0.47787271740E+02  0.20000003173E+02 0.  0.
        -12    1    1    2    0    0 -0.88535512150E+00  0.38515113226E+02 -0.19985630162E+02  0.43400728260E+02  0.00000000000E+00 0.  1.
         11    1    3    3    0    0 -0.86996170700E+01 -0.24119496500E+02  0.96073262049E+01  0.27381273996E+02  0.51100000000E-03 0. -1.
        -11    1    3    3    0    0  0.84586589183E+01 -0.13978605325E+02  0.99553014836E+01  0.19132651291E+02  0.51100000000E-03 0.  1.
         12    1    3    3    0    0  0.11263132732E+01 -0.41701140139E+00  0.42300247301E+00  0.12733464534E+01  0.00000000000E+00 0. -1.
</event>
<event>
 7    1  0.2685294E-009  0.4778727E+02  0.7816164E-02  0.1312668E+00
        -11   -1    0    0    0    0  0.00000000000E+00  0.00000000000E+00  0.45593999997E+02  0.45594000000E+02  0.51100000000E-03 0.  1.
         11   -1    0    0    0    0 -0.00000000000E+00 -0.00000000000E+00 -0.45593999997E+02  0.45594000000E+02  0.51100000000E-03 0. -1.
    9900012    2    1    2    0    0 -0.18240122950E+01 -0.38264018092E+02 -0.20400025079E+02  0.47787272764E+02  0.20000007840E+02 0.  0.
        -12    1    1    2    0    0  0.18240122950E+01  0.38264018092E+02  0.20400025079E+02  0.43400727236E+02  0.00000000000E+00 0.  1.
         11    1    3    3    0    0 -0.72566485956E+01 -0.72423140340E+01 -0.58267135264E+01  0.11792398068E+02  0.51100000000E-03 0. -1.
        -11    1    3    3    0    0 -0.26518454323E+00 -0.21537436408E+02 -0.72496327714E+01  0.22726386986E+02  0.51100000000E-03 0.  1.
         12    1    3    3    0    0  0.56978208439E+01 -0.94842676502E+01 -0.73236787809E+01  0.13268487710E+02  0.00000000000E+00 0. -1.
</event>
<event>
 7    1  0.2685294E-009  0.4778727E+02  0.7816164E-02  0.1312668E+00
        -11   -1    0    0    0    0  0.00000000000E+00  0.00000000000E+00  0.45593999997E+02  0.45594000000E+02  0.51100000000E-03 0. -1.
         11   -1    0    0    0    0 -0.00000000000E+00 -0.00000000000E+00 -0.45593999997E+02  0.45594000000E+02  0.51100000000E-03 0.  1.
    9900012    2    1    2    0    0  0.13338858714E+02 -0.31552973516E+02  0.26647851278E+02  0.47787271122E+02  0.20000000352E+02 0.  0.
        -12    1    1    2    0    0 -0.13338858714E+02  0.31552973516E+02 -0.26647851278E+02  0.43400728878E+02  0.00000000000E+00 0.  1.
         11    1    3    3    0    0 -0.13163748137E+00 -0.16869398698E+02  0.18646583453E+02  0.25145357734E+02  0.51100000000E-03 0. -1.
        -11    1    3    3    0    0  0.85195090903E+01 -0.13691629858E+02  0.58662058288E+01  0.17159695055E+02  0.51100000000E-03 0.  1.
         12    1    3    3    0    0  0.49509871047E+01 -0.99194495927E+00  0.21350619962E+01  0.54822183321E+01  0.00000000000E+00 0. -1.
</event>
<event>
 7    1  0.2685294E-009  0.4778727E+02  0.7816164E-02  0.1312668E+00
        -11   -1    0    0    0    0  0.00000000000E+00  0.00000000000E+00  0.45593999997E+02  0.45594000000E+02  0.51100000000E-03 0. -1.
         11   -1    0    0    0    0 -0.00000000000E+00 -0.00000000000E+00 -0.45593999997E+02  0.45594000000E+02  0.51100000000E-03 0.  1.
    9900012    2    1    2    0    0  0.21961541383E+02  0.12905406659E+02  0.35139219075E+02  0.47787268000E+02  0.19999986119E+02 0.  0.
        -12    1    1    2    0    0 -0.21961541383E+02 -0.12905406659E+02 -0.35139219075E+02  0.43400732000E+02  0.00000000000E+00 0.  1.
         11    1    3    3    0    0  0.20242635783E+02  0.11226182096E+01  0.20481510146E+02  0.28818688958E+02  0.51100000000E-03 0.  1.
        -11    1    3    3    0    0  0.29842275498E+00  0.78951616025E+01  0.96478426906E+01  0.12470104318E+02  0.51100000000E-03 0. -1.
        -12    1    3    3    0    0  0.14204828446E+01  0.38876268470E+01  0.50098662381E+01  0.64984747239E+01  0.00000000000E+00 0.  1.
</event>
<event>
 7    1  0.2685294E-009  0.4778727E+02  0.7816164E-02  0.1312668E+00
        -11   -1    0    0    0    0  0.00000000000E+00  0.00000000000E+00  0.45593999997E+02  0.45594000000E+02  0.51100000000E-03 0.  1.
         11   -1    0    0    0    0 -0.00000000000E+00 -0.00000000000E+00 -0.45593999997E+02  0.45594000000E+02  0.51100000000E-03 0. -1.
    9900012    2    1    2    0    0 -0.23974395988E+02  0.33572785321E+01 -0.36021943468E+02  0.47787269668E+02  0.19999993724E+02 0.  0.
        -12    1    1    2    0    0  0.23974395988E+02 -0.33572785321E+01  0.36021943468E+02  0.43400730332E+02  0.00000000000E+00 0.  1.
         11    1    3    3    0    0 -0.17561350493E+02 -0.21881209541E+01 -0.29801665911E+02  0.34660181704E+02  0.51100000000E-03 0. -1.
        -11    1    3    3    0    0  0.14542740333E+01  0.25759470797E+00  0.44105958805E+00  0.15413636232E+01  0.51100000000E-03 0.  1.
         12    1    3    3    0    0 -0.78673195281E+01  0.52878047782E+01 -0.66613371459E+01  0.11585724341E+02  0.00000000000E+00 0. -1.
</event>
<event>
 7    1  0.2685294E-009  0.4778727E+02  0.7816164E-02  0.1312668E+00
        -11   -1    0    0    0    0  0.00000000000E+00  0.00000000000E+00  0.45593999997E+02  0.45594000000E+02  0.51100000000E-03 0.  1.
         11   -1    0    0    0    0 -0.00000000000E+00 -0.00000000000E+00 -0.45593999997E+02  0.45594000000E+02  0.51100000000E-03 0. -1.
    9900012    2    1    2    0    0  0.13169576361E+02 -0.34911759686E+02 -0.22166518889E+02  0.47787271140E+02  0.20000000435E+02 0.  0.
        -12    1    1    2    0    0 -0.13169576361E+02  0.34911759686E+02  0.22166518889E+02  0.43400728860E+02  0.00000000000E+00 0.  1.
         11    1    3    3    0    0  0.40432865590E+01 -0.24690688917E+02 -0.79003099312E+01  0.26237248001E+02  0.51100000000E-03 0. -1.
        -11    1    3    3    0    0  0.61844188875E+01 -0.10078485551E+02 -0.14361563126E+02  0.18603155745E+02  0.51100000000E-03 0.  1.
         12    1    3    3    0    0  0.29418709145E+01 -0.14258521826E+00  0.95354167926E-01  0.29468673943E+01  0.00000000000E+00 0. -1.
</event>
<event>
 7    1  0.2685294E-009  0.4778727E+02  0.7816164E-02  0.1312668E+00
        -11   -1    0    0    0    0  0.00000000000E+00  0.00000000000E+00  0.45593999997E+02  0.45594000000E+02  0.51100000000E-03 0. -1.
         11   -1    0    0    0    0 -0.00000000000E+00 -0.00000000000E+00 -0.45593999997E+02  0.45594000000E+02  0.51100000000E-03 0.  1.
    9900012    2    1    2    0    0  0.69968520370E+00 -0.55281652943E+01  0.43041531610E+02  0.47787267124E+02  0.19999982123E+02 0.  0.
        -12    1    1    2    0    0 -0.69968520370E+00  0.55281652943E+01 -0.43041531610E+02  0.43400732876E+02  0.00000000000E+00 0.  1.
         11    1    3    3    0    0 -0.50742897210E+01  0.21151249625E+01  0.21421396955E+02  0.22115569573E+02  0.51100000000E-03 0. -1.
        -11    1    3    3    0    0  0.63305973776E+01 -0.25490179117E+01  0.55256276592E+01  0.87810316456E+01  0.51100000000E-03 0.  1.
         12    1    3    3    0    0 -0.55662245287E+00 -0.50942723450E+01  0.16094506996E+02  0.16890665905E+02  0.00000000000E+00 0. -1.
</event>
<event>
 7    1  0.2685294E-009  0.4778727E+02  0.7816164E-02  0.1312668E+00
        -11   -1    0    0    0    0  0.00000000000E+00  0.00000000000E+00  0.45593999997E+02  0.45594000000E+02  0.51100000000E-03 0.  1.
         11   -1    0    0    0    0 -0.00000000000E+00 -0.00000000000E+00 -0.45593999997E+02  0.45594000000E+02  0.51100000000E-03 0. -1.
    9900012    2    1    2    0    0 -0.32620243839E+02  0.28563303384E+02  0.19184235202E+01  0.47787274694E+02  0.20000016639E+02 0.  0.
        -12    1    1    2    0    0  0.32620243839E+02 -0.28563303384E+02 -0.19184235202E+01  0.43400725306E+02  0.00000000000E+00 0.  1.
         11    1    3    3    0    0 -0.29592068181E+02  0.27939137474E+02 -0.21068966463E+01  0.40751992783E+02  0.51100000000E-03 0. -1.
        -11    1    3    3    0    0 -0.27856067406E+00 -0.17797602426E+01  0.31462017837E+00  0.18286958982E+01  0.51100000000E-03 0.  1.
        -12    1    3    3    0    0 -0.27496149832E+01  0.24039261524E+01  0.37106999881E+01  0.52065860123E+01  0.00000000000E+00 0.  1.
</event>
<event>
 7    1  0.2685294E-009  0.4778727E+02  0.7816164E-02  0.1312668E+00
        -11   -1    0    0    0    0  0.00000000000E+00  0.00000000000E+00  0.45593999997E+02  0.45594000000E+02  0.51100000000E-03 0.  1.
         11   -1    0    0    0    0 -0.00000000000E+00 -0.00000000000E+00 -0.45593999997E+02  0.45594000000E+02  0.51100000000E-03 0. -1.
    9900012    2    1    2    0    0 -0.14732438235E+02 -0.17557069221E+01 -0.40785978142E+02  0.47787271248E+02  0.20000000929E+02 0.  0.
        -12    1    1    2    0    0  0.14732438235E+02  0.17557069221E+01  0.40785978142E+02  0.43400728752E+02  0.00000000000E+00 0.  1.
         11    1    3    3    0    0 -0.10478978557E+02  0.20387137903E+01 -0.98365208253E+01  0.14516283537E+02  0.51100000000E-03 0. -1.
        -11    1    3    3    0    0  0.17219273880E+01 -0.35153844909E+01 -0.22954499097E+02  0.23285875356E+02  0.51100000000E-03 0.  1.
        -12    1    3    3    0    0 -0.59753870664E+01 -0.27903622146E+00 -0.79949582201E+01  0.99851123553E+01  0.00000000000E+00 0.  1.
</event>
<event>
 7    1  0.2685294E-009  0.4778722E+02  0.7816164E-02  0.1312668E+00
        -11   -1    0    0    0    0  0.00000000000E+00  0.00000000000E+00  0.45593999997E+02  0.45594000000E+02  0.51100000000E-03 0.  1.
         11   -1    0    0    0    0 -0.00000000000E+00 -0.00000000000E+00 -0.45593999997E+02  0.45594000000E+02  0.51100000000E-03 0. -1.
    9900012    2    1    2    0    0 -0.28302523422E+02 -0.26635662506E+02 -0.19316737435E+02  0.47787220118E+02  0.19999767806E+02 0.  0.
        -12    1    1    2    0    0  0.28302523422E+02  0.26635662506E+02  0.19316737435E+02  0.43400779882E+02  0.00000000000E+00 0.  1.
         11    1    3    3    0    0 -0.25773406920E+02 -0.24248408089E+02 -0.15502013942E+02  0.38633744779E+02  0.51100000000E-03 0. -1.
        -11    1    3    3    0    0 -0.16073939373E+01 -0.41611870818E+01  0.40999081335E+00  0.44796524338E+01  0.51100000000E-03 0.  1.
         12    1    3    3    0    0 -0.92172256478E+00  0.17739326643E+01 -0.42247143063E+01  0.46738229057E+01  0.00000000000E+00 0. -1.
</event>
<event>
 7    1  0.2685294E-009  0.4778727E+02  0.7816164E-02  0.1312668E+00
        -11   -1    0    0    0    0  0.00000000000E+00  0.00000000000E+00  0.45593999997E+02  0.45594000000E+02  0.51100000000E-03 0.  1.
         11   -1    0    0    0    0 -0.00000000000E+00 -0.00000000000E+00 -0.45593999997E+02  0.45594000000E+02  0.51100000000E-03 0. -1.
    9900012    2    1    2    0    0 -0.32551608954E+02 -0.12834615929E+02 -0.25676613308E+02  0.47787273248E+02  0.20000010049E+02 0.  0.
        -12    1    1    2    0    0  0.32551608954E+02  0.12834615929E+02  0.25676613308E+02  0.43400726752E+02  0.00000000000E+00 0.  1.
         11    1    3    3    0    0 -0.13052624635E+02 -0.30371884300E+01 -0.75533027032E+01  0.15383364567E+02  0.51100000000E-03 0. -1.
        -11    1    3    3    0    0 -0.14675884385E+02 -0.32624431791E+01 -0.31366648729E+01  0.15357857427E+02  0.51100000000E-03 0.  1.
        -12    1    3    3    0    0 -0.48230999347E+01 -0.65349843199E+01 -0.14986645732E+02  0.17046051254E+02  0.00000000000E+00 0.  1.
</event>
<event>
 7    1  0.2685294E-009  0.4778727E+02  0.7816164E-02  0.1312668E+00
        -11   -1    0    0    0    0  0.00000000000E+00  0.00000000000E+00  0.45593999997E+02  0.45594000000E+02  0.51100000000E-03 0.  1.
         11   -1    0    0    0    0 -0.00000000000E+00 -0.00000000000E+00 -0.45593999997E+02  0.45594000000E+02  0.51100000000E-03 0. -1.
    9900012    2    1    2    0    0 -0.10196840217E+02  0.27452126759E+02 -0.32031678551E+02  0.47787271380E+02  0.20000001529E+02 0.  0.
        -12    1    1    2    0    0  0.10196840217E+02 -0.27452126759E+02  0.32031678551E+02  0.43400728620E+02  0.00000000000E+00 0.  1.
         11    1    3    3    0    0 -0.67809254763E+01  0.25994493013E+01 -0.12472930380E+02  0.14433020457E+02  0.51100000000E-03 0. -1.
        -11    1    3    3    0    0  0.12363830148E+01  0.58442664814E+00 -0.38201969270E+01  0.40575980935E+01  0.51100000000E-03 0.  1.
         12    1    3    3    0    0 -0.46522977551E+01  0.24268250810E+02 -0.15738551244E+02  0.29296652830E+02  0.00000000000E+00 0. -1.
</event>
<event>
 7    1  0.2685294E-009  0.4778726E+02  0.7816164E-02  0.1312668E+00
        -11   -1    0    0    0    0  0.00000000000E+00  0.00000000000E+00  0.45593999997E+02  0.45594000000E+02  0.51100000000E-03 0.  1.
         11   -1    0    0    0    0 -0.00000000000E+00 -0.00000000000E+00 -0.45593999997E+02  0.45594000000E+02  0.51100000000E-03 0. -1.
    9900012    2    1    2    0    0 -0.59589237241E+01  0.15391006307E+02 -0.40140159077E+02  0.47787260170E+02  0.19999950419E+02 0.  0.
        -12    1    1    2    0    0  0.59589237241E+01 -0.15391006307E+02  0.40140159077E+02  0.43400739830E+02  0.00000000000E+00 0.  1.
         11    1    3    3    0    0 -0.79489157144E+00  0.36057041763E+01 -0.78203622190E+01  0.86481801967E+01  0.51100000000E-03 0. -1.
        -11    1    3    3    0    0  0.46472174349E+01 -0.13327139295E+01 -0.12643947913E+02  0.13536697359E+02  0.51100000000E-03 0.  1.
        -12    1    3    3    0    0 -0.98112495876E+01  0.13118016060E+02 -0.19675848945E+02  0.25602382614E+02  0.00000000000E+00 0.  1.
</event>
<event>
 7    1  0.2685294E-009  0.4778727E+02  0.7816164E-02  0.1312668E+00
        -11   -1    0    0    0    0  0.00000000000E+00  0.00000000000E+00  0.45593999997E+02  0.45594000000E+02  0.51100000000E-03 0.  1.
         11   -1    0    0    0    0 -0.00000000000E+00 -0.00000000000E+00 -0.45593999997E+02  0.45594000000E+02  0.51100000000E-03 0. -1.
    9900012    2    1    2    0    0 -0.70854455342E+01  0.40487433311E+02 -0.13935120178E+02  0.47787269949E+02  0.19999995007E+02 0.  0.
        -12    1    1    2    0    0  0.70854455342E+01 -0.40487433311E+02  0.13935120178E+02  0.43400730051E+02  0.00000000000E+00 0.  1.
         11    1    3    3    0    0  0.25801712695E+01  0.20317861105E+02 -0.13254892612E+01  0.20523880864E+02  0.51100000000E-03 0. -1.
        -11    1    3    3    0    0  0.11215033829E+01  0.61943584482E+00  0.49467306358E+00  0.13733798836E+01  0.51100000000E-03 0.  1.
         12    1    3    3    0    0 -0.10787120187E+02  0.19550136361E+02 -0.13104303981E+02  0.25890009202E+02  0.00000000000E+00 0. -1.
</event>
<event>
 7    1  0.2685294E-009  0.4778727E+02  0.7816164E-02  0.1312668E+00
        -11   -1    0    0    0    0  0.00000000000E+00  0.00000000000E+00  0.45593999997E+02  0.45594000000E+02  0.51100000000E-03 0.  1.
         11   -1    0    0    0    0 -0.00000000000E+00 -0.00000000000E+00 -0.45593999997E+02  0.45594000000E+02  0.51100000000E-03 0. -1.
    9900012    2    1    2    0    0  0.32847160295E+02  0.10331731441E+02 -0.26418610622E+02  0.47787267273E+02  0.19999982804E+02 0.  0.
        -12    1    1    2    0    0 -0.32847160295E+02 -0.10331731441E+02  0.26418610622E+02  0.43400732727E+02  0.00000000000E+00 0.  1.
         11    1    3    3    0    0  0.19268680250E+02  0.18006970437E+01 -0.18841669992E+02  0.27009869988E+02  0.51100000000E-03 0. -1.
        -11    1    3    3    0    0  0.15494782271E+01  0.17064175314E+01  0.26977380114E+01  0.35483142768E+01  0.51100000000E-03 0.  1.
         12    1    3    3    0    0  0.12029001818E+02  0.68246168657E+01 -0.10274678641E+02  0.17229083008E+02  0.00000000000E+00 0. -1.
</event>
<event>
 7    1  0.2685294E-009  0.4778728E+02  0.7816164E-02  0.1312668E+00
        -11   -1    0    0    0    0  0.00000000000E+00  0.00000000000E+00  0.45593999997E+02  0.45594000000E+02  0.51100000000E-03 0. -1.
         11   -1    0    0    0    0 -0.00000000000E+00 -0.00000000000E+00 -0.45593999997E+02  0.45594000000E+02  0.51100000000E-03 0.  1.
    9900012    2    1    2    0    0 -0.36315352007E+02 -0.18171089974E+02  0.15317624056E+02  0.47787275249E+02  0.20000019170E+02 0.  0.
        -12    1    1    2    0    0  0.36315352007E+02  0.18171089974E+02 -0.15317624056E+02  0.43400724751E+02  0.00000000000E+00 0.  1.
         11    1    3    3    0    0 -0.13868715987E+02 -0.12732931152E+02  0.13368778831E+02  0.23090973703E+02  0.51100000000E-03 0. -1.
        -11    1    3    3    0    0 -0.86020847314E+01  0.33578416155E+00 -0.26492384659E+01  0.90070570909E+01  0.51100000000E-03 0.  1.
        -12    1    3    3    0    0 -0.13844551288E+02 -0.57739429835E+01  0.45980836904E+01  0.15689244455E+02  0.00000000000E+00 0.  1.
</event>
<event>
 7    1  0.2685294E-009  0.4778727E+02  0.7816164E-02  0.1312668E+00
        -11   -1    0    0    0    0  0.00000000000E+00  0.00000000000E+00  0.45593999997E+02  0.45594000000E+02  0.51100000000E-03 0.  1.
         11   -1    0    0    0    0 -0.00000000000E+00 -0.00000000000E+00 -0.45593999997E+02  0.45594000000E+02  0.51100000000E-03 0. -1.
    9900012    2    1    2    0    0 -0.14831824994E+02  0.12755978620E+02 -0.38741778118E+02  0.47787269650E+02  0.19999993640E+02 0.  0.
        -12    1    1    2    0    0  0.14831824994E+02 -0.12755978620E+02  0.38741778118E+02  0.43400730350E+02  0.00000000000E+00 0.  1.
         11    1    3    3    0    0 -0.14685085892E+02  0.10527211506E+02 -0.19804653026E+02  0.26808547358E+02  0.51100000000E-03 0. -1.
        -11    1    3    3    0    0  0.32708545645E+01 -0.18083347756E+01 -0.77428193005E+01  0.85976633584E+01  0.51100000000E-03 0.  1.
        -12    1    3    3    0    0 -0.34175936664E+01  0.40371018898E+01 -0.11194305792E+02  0.12381058933E+02  0.00000000000E+00 0.  1.
</event>
<event>
 7    1  0.2685294E-009  0.4778727E+02  0.7816164E-02  0.1312668E+00
        -11   -1    0    0    0    0  0.00000000000E+00  0.00000000000E+00  0.45593999997E+02  0.45594000000E+02  0.51100000000E-03 0. -1.
         11   -1    0    0    0    0 -0.00000000000E+00 -0.00000000000E+00 -0.45593999997E+02  0.45594000000E+02  0.51100000000E-03 0.  1.
    9900012    2    1    2    0    0 -0.12163791073E+02  0.19783946325E+02  0.36664167401E+02  0.47787268248E+02  0.19999987249E+02 0.  0.
        -12    1    1    2    0    0  0.12163791073E+02 -0.19783946325E+02 -0.36664167401E+02  0.43400731752E+02  0.00000000000E+00 0.  1.
         11    1    3    3    0    0  0.20456952996E+01  0.43009470354E+00  0.11973499644E+02  0.12154610018E+02  0.51100000000E-03 0. -1.
        -11    1    3    3    0    0 -0.10816984386E+02  0.16550099144E+02  0.14458496659E+02  0.24494102530E+02  0.51100000000E-03 0.  1.
        -12    1    3    3    0    0 -0.33925019869E+01  0.28037524778E+01  0.10232171098E+02  0.11138555699E+02  0.00000000000E+00 0.  1.
</event>
<event>
 7    1  0.2685294E-009  0.4778727E+02  0.7816164E-02  0.1312668E+00
        -11   -1    0    0    0    0  0.00000000000E+00  0.00000000000E+00  0.45593999997E+02  0.45594000000E+02  0.51100000000E-03 0.  1.
         11   -1    0    0    0    0 -0.00000000000E+00 -0.00000000000E+00 -0.45593999997E+02  0.45594000000E+02  0.51100000000E-03 0. -1.
    9900012    2    1    2    0    0  0.18300795468E+02 -0.71384032430E+01 -0.38700742148E+02  0.47787270070E+02  0.19999995559E+02 0.  0.
        -12    1    1    2    0    0 -0.18300795468E+02  0.71384032430E+01  0.38700742148E+02  0.43400729930E+02  0.00000000000E+00 0.  1.
         11    1    3    3    0    0  0.10563339383E+02 -0.11281731167E+02 -0.33648643470E+02  0.37028270345E+02  0.51100000000E-03 0. -1.
        -11    1    3    3    0    0  0.17592231254E+01  0.25879849551E+01 -0.71135218226E+00  0.32091360709E+01  0.51100000000E-03 0.  1.
         12    1    3    3    0    0  0.59782329596E+01  0.15553429693E+01 -0.43407464954E+01  0.75498636550E+01  0.00000000000E+00 0. -1.
</event>
<event>
 7    1  0.3736002E-009  0.4778727E+02  0.7816164E-02  0.1312668E+00
        -11   -1    0    0    0    0  0.00000000000E+00  0.00000000000E+00  0.45593999997E+02  0.45594000000E+02  0.51100000000E-03 0.  1.
         11   -1    0    0    0    0 -0.00000000000E+00 -0.00000000000E+00 -0.45593999997E+02  0.45594000000E+02  0.51100000000E-03 0. -1.
    9900012    2    1    2    0    0 -0.41032449634E+02 -0.41239654334E+01 -0.13526054702E+02  0.47787272245E+02  0.20000005473E+02 0.  0.
        -12    1    1    2    0    0  0.41032449634E+02  0.41239654334E+01  0.13526054702E+02  0.43400727755E+02  0.00000000000E+00 0.  1.
         11    1    3    3    0    0 -0.20786123097E+02 -0.14585472174E+01 -0.68998732287E+01  0.21949909435E+02  0.51100000000E-03 0. -1.
        -11    1    3    3    0    0 -0.10466718113E+02  0.13713550800E+01  0.35703711064E+01  0.11143623868E+02  0.51100000000E-03 0.  1.
        -12    1    3    3    0    0 -0.97796084241E+01 -0.40367732960E+01 -0.10196552579E+02  0.14693738941E+02  0.00000000000E+00 0.  1.
</event>
<event>
 7    1  0.2685294E-009  0.4778727E+02  0.7816164E-02  0.1312668E+00
        -11   -1    0    0    0    0  0.00000000000E+00  0.00000000000E+00  0.45593999997E+02  0.45594000000E+02  0.51100000000E-03 0. -1.
         11   -1    0    0    0    0 -0.00000000000E+00 -0.00000000000E+00 -0.45593999997E+02  0.45594000000E+02  0.51100000000E-03 0.  1.
    9900012    2    1    2    0    0  0.39271197794E+02  0.15555242901E+02 -0.99715076696E+01  0.47787268173E+02  0.19999986908E+02 0.  0.
        -12    1    1    2    0    0 -0.39271197794E+02 -0.15555242901E+02  0.99715076696E+01  0.43400731827E+02  0.00000000000E+00 0.  1.
         11    1    3    3    0    0  0.23212089197E+02  0.48655467191E+01 -0.13240922667E+02  0.27162412689E+02  0.51100000000E-03 0. -1.
        -11    1    3    3    0    0  0.62714131932E+01  0.80766830184E+01  0.19306491371E+01  0.10406288405E+02  0.51100000000E-03 0.  1.
         12    1    3    3    0    0  0.97876954040E+01  0.26130131637E+01  0.13387658601E+01  0.10218567079E+02  0.00000000000E+00 0. -1.
</event>
<event>
 7    1  0.2685294E-009  0.4778729E+02  0.7816164E-02  0.1312668E+00
        -11   -1    0    0    0    0  0.00000000000E+00  0.00000000000E+00  0.45593999997E+02  0.45594000000E+02  0.51100000000E-03 0. -1.
         11   -1    0    0    0    0 -0.00000000000E+00 -0.00000000000E+00 -0.45593999997E+02  0.45594000000E+02  0.51100000000E-03 0.  1.
    9900012    2    1    2    0    0 -0.43959998522E+01  0.23952273800E+02  0.35924720624E+02  0.47787288176E+02  0.20000078110E+02 0.  0.
        -12    1    1    2    0    0  0.43959998522E+01 -0.23952273800E+02 -0.35924720624E+02  0.43400711824E+02  0.00000000000E+00 0.  1.
         11    1    3    3    0    0 -0.22865982192E+01  0.12231386026E+02  0.15457036338E+02  0.19843268585E+02  0.51100000000E-03 0. -1.
        -11    1    3    3    0    0  0.22955677944E+01 -0.28837099516E+01  0.50827070804E+01  0.62784811945E+01  0.51100000000E-03 0.  1.
        -12    1    3    3    0    0 -0.44049694274E+01  0.14604597726E+02  0.15384977206E+02  0.21665538396E+02  0.00000000000E+00 0.  1.
</event>
<event>
 7    1  0.2685294E-009  0.4778726E+02  0.7816164E-02  0.1312668E+00
        -11   -1    0    0    0    0  0.00000000000E+00  0.00000000000E+00  0.45593999997E+02  0.45594000000E+02  0.51100000000E-03 0. -1.
         11   -1    0    0    0    0 -0.00000000000E+00 -0.00000000000E+00 -0.45593999997E+02  0.45594000000E+02  0.51100000000E-03 0.  1.
    9900012    2    1    2    0    0  0.10417323307E+00 -0.39628202091E+02  0.17697998234E+02  0.47787258134E+02  0.19999941138E+02 0.  0.
        -12    1    1    2    0    0 -0.10417323307E+00  0.39628202091E+02 -0.17697998234E+02  0.43400741866E+02  0.00000000000E+00 0.  1.
         11    1    3    3    0    0 -0.56834050324E+00 -0.19602315921E+01  0.34990213712E+01  0.40507616123E+01  0.51100000000E-03 0. -1.
        -11    1    3    3    0    0 -0.40110629206E+01 -0.24808284909E+02  0.16207955752E+02  0.29903803367E+02  0.51100000000E-03 0.  1.
        -12    1    3    3    0    0  0.46835766569E+01 -0.12859685589E+02 -0.20089788886E+01  0.13832693155E+02  0.00000000000E+00 0.  1.
</event>
<event>
 7    1  0.2685294E-009  0.4778727E+02  0.7816164E-02  0.1312668E+00
        -11   -1    0    0    0    0  0.00000000000E+00  0.00000000000E+00  0.45593999997E+02  0.45594000000E+02  0.51100000000E-03 0. -1.
         11   -1    0    0    0    0 -0.00000000000E+00 -0.00000000000E+00 -0.45593999997E+02  0.45594000000E+02  0.51100000000E-03 0.  1.
    9900012    2    1    2    0    0 -0.14017931867E+01  0.29693225255E+02  0.31622311119E+02  0.47787271772E+02  0.20000003319E+02 0.  0.
        -12    1    1    2    0    0  0.14017931867E+01 -0.29693225255E+02 -0.31622311119E+02  0.43400728228E+02  0.00000000000E+00 0.  1.
         11    1    3    3    0    0 -0.59344546995E+01  0.97367254530E+01  0.65908211421E+01  0.13170440339E+02  0.51100000000E-03 0. -1.
        -11    1    3    3    0    0  0.30674901890E+01  0.18410549759E+02  0.26214742034E+02  0.32180281830E+02  0.51100000000E-03 0.  1.
        -12    1    3    3    0    0  0.14651713238E+01  0.15459500429E+01 -0.11832520568E+01  0.24365496040E+01  0.00000000000E+00 0.  1.
</event>
<event>
 7    1  0.2685294E-009  0.4778727E+02  0.7816164E-02  0.1312668E+00
        -11   -1    0    0    0    0  0.00000000000E+00  0.00000000000E+00  0.45593999997E+02  0.45594000000E+02  0.51100000000E-03 0. -1.
         11   -1    0    0    0    0 -0.00000000000E+00 -0.00000000000E+00 -0.45593999997E+02  0.45594000000E+02  0.51100000000E-03 0.  1.
    9900012    2    1    2    0    0 -0.14480983672E+02  0.11740751172E+02  0.39192848141E+02  0.47787268767E+02  0.19999989616E+02 0.  0.
        -12    1    1    2    0    0  0.14480983672E+02 -0.11740751172E+02 -0.39192848141E+02  0.43400731233E+02  0.00000000000E+00 0.  1.
         11    1    3    3    0    0 -0.16516358997E+02  0.69308228434E+01  0.22127248766E+02  0.28468255268E+02  0.51100000000E-03 0. -1.
        -11    1    3    3    0    0 -0.22833170494E+01 -0.32791889372E+00  0.36439548910E+01  0.43127108711E+01  0.51100000000E-03 0.  1.
         12    1    3    3    0    0  0.43186923744E+01  0.51378472223E+01  0.13421644484E+02  0.15006302628E+02  0.00000000000E+00 0. -1.
</event>
<event>
 7    1  0.2685294E-009  0.4778726E+02  0.7816164E-02  0.1312668E+00
        -11   -1    0    0    0    0  0.00000000000E+00  0.00000000000E+00  0.45593999997E+02  0.45594000000E+02  0.51100000000E-03 0.  1.
         11   -1    0    0    0    0 -0.00000000000E+00 -0.00000000000E+00 -0.45593999997E+02  0.45594000000E+02  0.51100000000E-03 0. -1.
    9900012    2    1    2    0    0  0.34946369552E+02  0.13517501198E+02 -0.21900968556E+02  0.47787262596E+02  0.19999961481E+02 0.  0.
        -12    1    1    2    0    0 -0.34946369552E+02 -0.13517501198E+02  0.21900968556E+02  0.43400737404E+02  0.00000000000E+00 0.  1.
         11    1    3    3    0    0  0.13299181317E+02  0.98618075650E+01 -0.15395473692E+02  0.22608495806E+02  0.51100000000E-03 0. -1.
        -11    1    3    3    0    0  0.82860975573E+00 -0.12493850831E+01  0.17032169324E+01  0.22690318184E+01  0.51100000000E-03 0.  1.
         12    1    3    3    0    0  0.20818578479E+02  0.49050787162E+01 -0.82087117957E+01  0.22909734971E+02  0.00000000000E+00 0. -1.
</event>
<event>
 7    1  0.2685294E-009  0.4778727E+02  0.7816164E-02  0.1312668E+00
        -11   -1    0    0    0    0  0.00000000000E+00  0.00000000000E+00  0.45593999997E+02  0.45594000000E+02  0.51100000000E-03 0.  1.
         11   -1    0    0    0    0 -0.00000000000E+00 -0.00000000000E+00 -0.45593999997E+02  0.45594000000E+02  0.51100000000E-03 0. -1.
    9900012    2    1    2    0    0 -0.20437021703E+02  0.32227126700E+02 -0.20672776065E+02  0.47787271646E+02  0.20000002742E+02 0.  0.
        -12    1    1    2    0    0  0.20437021703E+02 -0.32227126700E+02  0.20672776065E+02  0.43400728354E+02  0.00000000000E+00 0.  1.
         11    1    3    3    0    0 -0.30933881899E+01  0.88687543282E+01  0.33803261919E+01  0.99825076635E+01  0.51100000000E-03 0. -1.
        -11    1    3    3    0    0 -0.91152410390E+01  0.13615785211E+02 -0.14347286900E+02  0.21778931741E+02  0.51100000000E-03 0.  1.
         12    1    3    3    0    0 -0.82283924744E+01  0.97425871615E+01 -0.97058153561E+01  0.16025832242E+02  0.00000000000E+00 0. -1.
</event>
<event>
 7    1  0.2685294E-009  0.4778727E+02  0.7816164E-02  0.1312668E+00
        -11   -1    0    0    0    0  0.00000000000E+00  0.00000000000E+00  0.45593999997E+02  0.45594000000E+02  0.51100000000E-03 0. -1.
         11   -1    0    0    0    0 -0.00000000000E+00 -0.00000000000E+00 -0.45593999997E+02  0.45594000000E+02  0.51100000000E-03 0.  1.
    9900012    2    1    2    0    0  0.16151641239E+02  0.24843243866E+01  0.40206665621E+02  0.47787270251E+02  0.19999996384E+02 0.  0.
        -12    1    1    2    0    0 -0.16151641239E+02 -0.24843243866E+01 -0.40206665621E+02  0.43400729749E+02  0.00000000000E+00 0.  1.
         11    1    3    3    0    0  0.44390888200E+01  0.43498297698E+01  0.29589300338E+02  0.30234966898E+02  0.51100000000E-03 0. -1.
        -11    1    3    3    0    0  0.10270236189E+02 -0.30828094996E+01  0.54037378416E+01  0.12007574639E+02  0.51100000000E-03 0.  1.
        -12    1    3    3    0    0  0.14423162302E+01  0.12173041164E+01  0.52136274409E+01  0.55447287140E+01  0.00000000000E+00 0.  1.
</event>
<event>
 7    1  0.2685294E-009  0.4778727E+02  0.7816164E-02  0.1312668E+00
        -11   -1    0    0    0    0  0.00000000000E+00  0.00000000000E+00  0.45593999997E+02  0.45594000000E+02  0.51100000000E-03 0.  1.
         11   -1    0    0    0    0 -0.00000000000E+00 -0.00000000000E+00 -0.45593999997E+02  0.45594000000E+02  0.51100000000E-03 0. -1.
    9900012    2    1    2    0    0  0.13390490376E+02 -0.88477079925E+01 -0.40324143395E+02  0.47787266022E+02  0.19999977102E+02 0.  0.
        -12    1    1    2    0    0 -0.13390490376E+02  0.88477079925E+01  0.40324143395E+02  0.43400733978E+02  0.00000000000E+00 0.  1.
         11    1    3    3    0    0  0.42265879312E+00  0.73792760400E+00 -0.72486438343E+01  0.72983570276E+01  0.51100000000E-03 0. -1.
        -11    1    3    3    0    0 -0.17657184040E+01 -0.34125542252E+00  0.11237576627E+01  0.21206245050E+01  0.51100000000E-03 0.  1.
        -12    1    3    3    0    0  0.14733549987E+02 -0.92443801740E+01 -0.34199257224E+02  0.38368284490E+02  0.00000000000E+00 0.  1.
</event>
<event>
 7    1  0.2685294E-009  0.4778727E+02  0.7816164E-02  0.1312668E+00
        -11   -1    0    0    0    0  0.00000000000E+00  0.00000000000E+00  0.45593999997E+02  0.45594000000E+02  0.51100000000E-03 0. -1.
         11   -1    0    0    0    0 -0.00000000000E+00 -0.00000000000E+00 -0.45593999997E+02  0.45594000000E+02  0.51100000000E-03 0.  1.
    9900012    2    1    2    0    0  0.27516425387E+02  0.13554986552E+02  0.30703944060E+02  0.47787268355E+02  0.19999987737E+02 0.  0.
        -12    1    1    2    0    0 -0.27516425387E+02 -0.13554986552E+02 -0.30703944060E+02  0.43400731645E+02  0.00000000000E+00 0.  1.
         11    1    3    3    0    0  0.16918794239E+02  0.31975932579E+01  0.63427078090E+01  0.18349390827E+02  0.51100000000E-03 0. -1.
        -11    1    3    3    0    0  0.55594556861E+01  0.98954567789E+01  0.15169384386E+02  0.18945654786E+02  0.51100000000E-03 0.  1.
        -12    1    3    3    0    0  0.50381754620E+01  0.46193651555E+00  0.91918518655E+01  0.10492222741E+02  0.00000000000E+00 0.  1.
</event>
<event>
 7    1  0.2746693E-009  0.4778731E+02  0.7816164E-02  0.1312668E+00
        -11   -1    0    0    0    0  0.00000000000E+00  0.00000000000E+00  0.45593999997E+02  0.45594000000E+02  0.51100000000E-03 0.  1.
         11   -1    0    0    0    0 -0.00000000000E+00 -0.00000000000E+00 -0.45593999997E+02  0.45594000000E+02  0.51100000000E-03 0. -1.
    9900012    2    1    2    0    0  0.36094437302E+02 -0.14262236778E+00 -0.24099602500E+02  0.47787313532E+02  0.20000193716E+02 0.  0.
        -12    1    1    2    0    0 -0.36094437302E+02  0.14262236778E+00  0.24099602500E+02  0.43400686468E+02  0.00000000000E+00 0.  1.
         11    1    3    3    0    0  0.21036866676E+02 -0.19260454459E+01 -0.22035844702E+02  0.30526019436E+02  0.51100000000E-03 0.  1.
        -11    1    3    3    0    0  0.11954495025E+02 -0.20226012003E+01 -0.60910584829E+00  0.12139681919E+02  0.51100000000E-03 0. -1.
        -12    1    3    3    0    0  0.31030756017E+01  0.38060242784E+01 -0.14546519488E+01  0.51216121768E+01  0.00000000000E+00 0.  1.
</event>
<event>
 7    1  0.2685294E-009  0.4778723E+02  0.7816164E-02  0.1312668E+00
        -11   -1    0    0    0    0  0.00000000000E+00  0.00000000000E+00  0.45593999997E+02  0.45594000000E+02  0.51100000000E-03 0. -1.
         11   -1    0    0    0    0 -0.00000000000E+00 -0.00000000000E+00 -0.45593999997E+02  0.45594000000E+02  0.51100000000E-03 0.  1.
    9900012    2    1    2    0    0 -0.27922651839E+02 -0.36064065819E+01  0.33029469792E+02  0.47787233545E+02  0.19999829024E+02 0.  0.
        -12    1    1    2    0    0  0.27922651839E+02  0.36064065819E+01 -0.33029469792E+02  0.43400766455E+02  0.00000000000E+00 0.  1.
         11    1    3    3    0    0 -0.42477217277E+01  0.13508180014E+01  0.17701929092E+02  0.18254482819E+02  0.51100000000E-03 0. -1.
        -11    1    3    3    0    0 -0.14844946315E+02 -0.61572705647E+01  0.77824293914E+01  0.17856388755E+02  0.51100000000E-03 0.  1.
        -12    1    3    3    0    0 -0.88299837965E+01  0.12000459814E+01  0.75451113089E+01  0.11676361971E+02  0.00000000000E+00 0.  1.
</event>
<event>
 7    1  0.2685294E-009  0.4778727E+02  0.7816164E-02  0.1312668E+00
        -11   -1    0    0    0    0  0.00000000000E+00  0.00000000000E+00  0.45593999997E+02  0.45594000000E+02  0.51100000000E-03 0.  1.
         11   -1    0    0    0    0 -0.00000000000E+00 -0.00000000000E+00 -0.45593999997E+02  0.45594000000E+02  0.51100000000E-03 0. -1.
    9900012    2    1    2    0    0  0.36374004724E+02  0.21262067349E+02 -0.10415354036E+02  0.47787270429E+02  0.19999997193E+02 0.  0.
        -12    1    1    2    0    0 -0.36374004724E+02 -0.21262067349E+02  0.10415354036E+02  0.43400729571E+02  0.00000000000E+00 0.  1.
         11    1    3    3    0    0  0.23020220984E+02  0.63155832361E+01 -0.81176092483E+01  0.25213344600E+02  0.51100000000E-03 0. -1.
        -11    1    3    3    0    0 -0.15187612576E+01  0.33951024576E+00 -0.56649535618E+00  0.16561461935E+01  0.51100000000E-03 0.  1.
         12    1    3    3    0    0  0.14872544998E+02  0.14606973867E+02 -0.17312494316E+01  0.20917779635E+02  0.00000000000E+00 0. -1.
</event>
<event>
 7    1  0.2685294E-009  0.4778728E+02  0.7816164E-02  0.1312668E+00
        -11   -1    0    0    0    0  0.00000000000E+00  0.00000000000E+00  0.45593999997E+02  0.45594000000E+02  0.51100000000E-03 0.  1.
         11   -1    0    0    0    0 -0.00000000000E+00 -0.00000000000E+00 -0.45593999997E+02  0.45594000000E+02  0.51100000000E-03 0. -1.
    9900012    2    1    2    0    0  0.34383705422E+02  0.11586402348E+02 -0.23814679492E+02  0.47787275614E+02  0.20000020834E+02 0.  0.
        -12    1    1    2    0    0 -0.34383705422E+02 -0.11586402348E+02  0.23814679492E+02  0.43400724386E+02  0.00000000000E+00 0.  1.
         11    1    3    3    0    0  0.10580230384E+02 -0.28751734726E+01 -0.12450287698E+02  0.16589682381E+02  0.51100000000E-03 0. -1.
        -11    1    3    3    0    0  0.15633562877E+02  0.12379268493E+02 -0.47960680986E+01  0.20509920676E+02  0.51100000000E-03 0.  1.
        -12    1    3    3    0    0  0.81699121600E+01  0.20823073276E+01 -0.65683236954E+01  0.10687672557E+02  0.00000000000E+00 0.  1.
</event>
<event>
 7    1  0.2685294E-009  0.4778727E+02  0.7816164E-02  0.1312668E+00
        -11   -1    0    0    0    0  0.00000000000E+00  0.00000000000E+00  0.45593999997E+02  0.45594000000E+02  0.51100000000E-03 0.  1.
         11   -1    0    0    0    0 -0.00000000000E+00 -0.00000000000E+00 -0.45593999997E+02  0.45594000000E+02  0.51100000000E-03 0. -1.
    9900012    2    1    2    0    0  0.58552978043E+01  0.34336339334E+02 -0.25891209223E+02  0.47787269289E+02  0.19999991996E+02 0.  0.
        -12    1    1    2    0    0 -0.58552978043E+01 -0.34336339334E+02  0.25891209223E+02  0.43400730711E+02  0.00000000000E+00 0.  1.
         11    1    3    3    0    0  0.10130509225E+01  0.56526120437E+01 -0.14169734786E+02  0.15289201394E+02  0.51100000000E-03 0. -1.
        -11    1    3    3    0    0  0.79232734868E+00  0.10764131622E+02 -0.16596303669E+00  0.10794528994E+02  0.51100000000E-03 0.  1.
         12    1    3    3    0    0  0.40499195332E+01  0.17919595668E+02 -0.11555511400E+02  0.21703538901E+02  0.00000000000E+00 0. -1.
</event>
<event>
 7    1  0.2685294E-009  0.4778727E+02  0.7816164E-02  0.1312668E+00
        -11   -1    0    0    0    0  0.00000000000E+00  0.00000000000E+00  0.45593999997E+02  0.45594000000E+02  0.51100000000E-03 0. -1.
         11   -1    0    0    0    0 -0.00000000000E+00 -0.00000000000E+00 -0.45593999997E+02  0.45594000000E+02  0.51100000000E-03 0.  1.
    9900012    2    1    2    0    0 -0.29963732105E+02  0.28453683037E+02  0.13273508107E+02  0.47787270312E+02  0.19999996660E+02 0.  0.
        -12    1    1    2    0    0  0.29963732105E+02 -0.28453683037E+02 -0.13273508107E+02  0.43400729688E+02  0.00000000000E+00 0.  1.
         11    1    3    3    0    0 -0.12255052189E+02  0.50315772169E+01 -0.26467031957E+01  0.13509556304E+02  0.51100000000E-03 0. -1.
        -11    1    3    3    0    0 -0.22924075274E+01  0.66010496458E+01  0.11092935661E+01  0.70752753427E+01  0.51100000000E-03 0.  1.
         12    1    3    3    0    0 -0.15416272388E+02  0.16821056174E+02  0.14810917736E+02  0.27202438665E+02  0.00000000000E+00 0. -1.
</event>
<event>
 7    1  0.2685294E-009  0.4778727E+02  0.7816164E-02  0.1312668E+00
        -11   -1    0    0    0    0  0.00000000000E+00  0.00000000000E+00  0.45593999997E+02  0.45594000000E+02  0.51100000000E-03 0.  1.
         11   -1    0    0    0    0 -0.00000000000E+00 -0.00000000000E+00 -0.45593999997E+02  0.45594000000E+02  0.51100000000E-03 0. -1.
    9900012    2    1    2    0    0  0.11628763525E+02 -0.12244341558E+02 -0.39980884102E+02  0.47787272646E+02  0.20000007301E+02 0.  0.
        -12    1    1    2    0    0 -0.11628763525E+02  0.12244341558E+02  0.39980884102E+02  0.43400727354E+02  0.00000000000E+00 0.  1.
         11    1    3    3    0    0  0.43919829121E+01 -0.32910430654E+01 -0.20931751765E+01  0.58738284738E+01  0.51100000000E-03 0. -1.
        -11    1    3    3    0    0  0.33128922750E+01 -0.11226519740E+02 -0.33937686432E+02  0.35899534277E+02  0.51100000000E-03 0.  1.
        -12    1    3    3    0    0  0.39238883377E+01  0.22732212475E+01 -0.39500224938E+01  0.60139098953E+01  0.00000000000E+00 0.  1.
</event>
<event>
 7    1  0.2685294E-009  0.4778730E+02  0.7816164E-02  0.1312668E+00
        -11   -1    0    0    0    0  0.00000000000E+00  0.00000000000E+00  0.45593999997E+02  0.45594000000E+02  0.51100000000E-03 0.  1.
         11   -1    0    0    0    0 -0.00000000000E+00 -0.00000000000E+00 -0.45593999997E+02  0.45594000000E+02  0.51100000000E-03 0. -1.
    9900012    2    1    2    0    0  0.20376717292E+02  0.30197911954E+02 -0.23590173208E+02  0.47787299937E+02  0.20000131733E+02 0.  0.
        -12    1    1    2    0    0 -0.20376717292E+02 -0.30197911954E+02  0.23590173208E+02  0.43400700063E+02  0.00000000000E+00 0.  1.
         11    1    3    3    0    0  0.94736766380E+01  0.15708051004E+01 -0.64700203304E+01  0.11579254771E+02  0.51100000000E-03 0.  1.
        -11    1    3    3    0    0  0.10457375778E+02  0.21569532540E+02 -0.94253441597E+01  0.25757301003E+02  0.51100000000E-03 0. -1.
        -12    1    3    3    0    0  0.44566487567E+00  0.70575743136E+01 -0.76948087182E+01  0.10450744164E+02  0.00000000000E+00 0.  1.
</event>
<event>
 7    1  0.2685294E-009  0.4778728E+02  0.7816164E-02  0.1312668E+00
        -11   -1    0    0    0    0  0.00000000000E+00  0.00000000000E+00  0.45593999997E+02  0.45594000000E+02  0.51100000000E-03 0. -1.
         11   -1    0    0    0    0 -0.00000000000E+00 -0.00000000000E+00 -0.45593999997E+02  0.45594000000E+02  0.51100000000E-03 0.  1.
    9900012    2    1    2    0    0 -0.14343690529E+02  0.14145608896E+02  0.38441944488E+02  0.47787276445E+02  0.20000024625E+02 0.  0.
        -12    1    1    2    0    0  0.14343690529E+02 -0.14145608896E+02 -0.38441944488E+02  0.43400723555E+02  0.00000000000E+00 0.  1.
         11    1    3    3    0    0 -0.52478901249E+01  0.50071041827E+01  0.27179987396E+02  0.28131177689E+02  0.51100000000E-03 0. -1.
        -11    1    3    3    0    0 -0.56692717046E-01  0.34320996917E+00 -0.16029811538E+01  0.16402914338E+01  0.51100000000E-03 0.  1.
         12    1    3    3    0    0 -0.90391076870E+01  0.87952947442E+01  0.12864938246E+02  0.18015807323E+02  0.00000000000E+00 0. -1.
</event>
<event>
 7    1  0.2685294E-009  0.4778727E+02  0.7816164E-02  0.1312668E+00
        -11   -1    0    0    0    0  0.00000000000E+00  0.00000000000E+00  0.45593999997E+02  0.45594000000E+02  0.51100000000E-03 0.  1.
         11   -1    0    0    0    0 -0.00000000000E+00 -0.00000000000E+00 -0.45593999997E+02  0.45594000000E+02  0.51100000000E-03 0. -1.
    9900012    2    1    2    0    0  0.30822189061E+02 -0.15644076543E+02 -0.26246498326E+02  0.47787272543E+02  0.20000006832E+02 0.  0.
        -12    1    1    2    0    0 -0.30822189061E+02  0.15644076543E+02  0.26246498326E+02  0.43400727457E+02  0.00000000000E+00 0.  1.
         11    1    3    3    0    0  0.75025397548E+01  0.12565603717E-01 -0.90761223510E+01  0.11775578876E+02  0.51100000000E-03 0. -1.
        -11    1    3    3    0    0  0.20666085638E+02 -0.14020243869E+02 -0.78408267632E+01  0.26175043426E+02  0.51100000000E-03 0.  1.
        -12    1    3    3    0    0  0.26535636685E+01 -0.16363982770E+01 -0.93295492122E+01  0.98366502411E+01  0.00000000000E+00 0.  1.
</event>
<event>
 7    1  0.2685294E-009  0.4778727E+02  0.7816164E-02  0.1312668E+00
        -11   -1    0    0    0    0  0.00000000000E+00  0.00000000000E+00  0.45593999997E+02  0.45594000000E+02  0.51100000000E-03 0.  1.
         11   -1    0    0    0    0 -0.00000000000E+00 -0.00000000000E+00 -0.45593999997E+02  0.45594000000E+02  0.51100000000E-03 0. -1.
    9900012    2    1    2    0    0 -0.32029431509E+02  0.28942334384E+02 -0.44811197606E+01  0.47787266865E+02  0.19999980944E+02 0.  0.
        -12    1    1    2    0    0  0.32029431509E+02 -0.28942334384E+02  0.44811197606E+01  0.43400733135E+02  0.00000000000E+00 0.  1.
         11    1    3    3    0    0 -0.14901300611E+02  0.15173000273E+02 -0.22561139118E+01  0.21385947429E+02  0.51100000000E-03 0. -1.
        -11    1    3    3    0    0 -0.18282300835E+02  0.76753608716E+01 -0.48362973291E-01  0.19828162486E+02  0.51100000000E-03 0.  1.
        -12    1    3    3    0    0  0.11541699376E+01  0.60939732388E+01 -0.21766428755E+01  0.65731569499E+01  0.00000000000E+00 0.  1.
</event>
<event>
 7    1  0.2685294E-009  0.4778727E+02  0.7816164E-02  0.1312668E+00
        -11   -1    0    0    0    0  0.00000000000E+00  0.00000000000E+00  0.45593999997E+02  0.45594000000E+02  0.51100000000E-03 0. -1.
         11   -1    0    0    0    0 -0.00000000000E+00 -0.00000000000E+00 -0.45593999997E+02  0.45594000000E+02  0.51100000000E-03 0.  1.
    9900012    2    1    2    0    0 -0.26188963998E+02  0.34405212037E+02 -0.37473603339E+01  0.47787272355E+02  0.20000005977E+02 0.  0.
        -12    1    1    2    0    0  0.26188963998E+02 -0.34405212037E+02  0.37473603339E+01  0.43400727645E+02  0.00000000000E+00 0.  1.
         11    1    3    3    0    0 -0.11533352766E+01  0.70848094109E+01  0.99055955426E+00  0.72460965451E+01  0.51100000000E-03 0. -1.
        -11    1    3    3    0    0 -0.60416148760E-01 -0.16410875794E+01 -0.13907008970E+01  0.21519451202E+01  0.51100000000E-03 0.  1.
        -12    1    3    3    0    0 -0.24975212573E+02  0.28961490206E+02 -0.33472189911E+01  0.38389230690E+02  0.00000000000E+00 0.  1.
</event>
<event>
 7    1  0.2685294E-009  0.4778725E+02  0.7816164E-02  0.1312668E+00
        -11   -1    0    0    0    0  0.00000000000E+00  0.00000000000E+00  0.45593999997E+02  0.45594000000E+02  0.51100000000E-03 0.  1.
         11   -1    0    0    0    0 -0.00000000000E+00 -0.00000000000E+00 -0.45593999997E+02  0.45594000000E+02  0.51100000000E-03 0. -1.
    9900012    2    1    2    0    0  0.25468972152E+02  0.22787903298E+02 -0.26751978012E+02  0.47787246472E+02  0.19999887966E+02 0.  0.
        -12    1    1    2    0    0 -0.25468972152E+02 -0.22787903298E+02  0.26751978012E+02  0.43400753528E+02  0.00000000000E+00 0.  1.
         11    1    3    3    0    0  0.13627770681E+02  0.10083698130E+01 -0.11594516829E+02  0.17921098297E+02  0.51100000000E-03 0. -1.
        -11    1    3    3    0    0  0.94918947707E+01  0.17243147166E+02 -0.15013751437E+02  0.24755502883E+02  0.51100000000E-03 0.  1.
         12    1    3    3    0    0  0.23493067007E+01  0.45363863194E+01 -0.14370974546E+00  0.51106452923E+01  0.00000000000E+00 0. -1.
</event>
<event>
 7    1  0.2685294E-009  0.4778727E+02  0.7816164E-02  0.1312668E+00
        -11   -1    0    0    0    0  0.00000000000E+00  0.00000000000E+00  0.45593999997E+02  0.45594000000E+02  0.51100000000E-03 0.  1.
         11   -1    0    0    0    0 -0.00000000000E+00 -0.00000000000E+00 -0.45593999997E+02  0.45594000000E+02  0.51100000000E-03 0. -1.
    9900012    2    1    2    0    0 -0.42038198407E+02 -0.95975198239E+01 -0.49296131395E+01  0.47787267313E+02  0.19999982987E+02 0.  0.
        -12    1    1    2    0    0  0.42038198407E+02  0.95975198239E+01  0.49296131395E+01  0.43400732687E+02  0.00000000000E+00 0.  1.
         11    1    3    3    0    0 -0.12192697990E+02 -0.48388865886E+01  0.18509335795E+00  0.13119106963E+02  0.51100000000E-03 0. -1.
        -11    1    3    3    0    0 -0.23203966616E+02  0.40419780040E+00  0.24738294436E+01  0.23338964736E+02  0.51100000000E-03 0.  1.
        -12    1    3    3    0    0 -0.66415338005E+01 -0.51628310357E+01 -0.75885359411E+01  0.11329195614E+02  0.00000000000E+00 0.  1.
</event>
<event>
 7    1  0.2685294E-009  0.4778727E+02  0.7816164E-02  0.1312668E+00
        -11   -1    0    0    0    0  0.00000000000E+00  0.00000000000E+00  0.45593999997E+02  0.45594000000E+02  0.51100000000E-03 0.  1.
         11   -1    0    0    0    0 -0.00000000000E+00 -0.00000000000E+00 -0.45593999997E+02  0.45594000000E+02  0.51100000000E-03 0. -1.
    9900012    2    1    2    0    0  0.35919447016E+02  0.18993846261E+02 -0.15252880188E+02  0.47787271622E+02  0.20000002634E+02 0.  0.
        -12    1    1    2    0    0 -0.35919447016E+02 -0.18993846261E+02  0.15252880188E+02  0.43400728378E+02  0.00000000000E+00 0.  1.
         11    1    3    3    0    0  0.17485335159E+02 -0.20541518944E-01 -0.50261926538E+01  0.18193404861E+02  0.51100000000E-03 0. -1.
        -11    1    3    3    0    0  0.42488704138E+01  0.12225119987E+01  0.47807564361E+00  0.44470205714E+01  0.51100000000E-03 0.  1.
         12    1    3    3    0    0  0.14185241443E+02  0.17791875781E+02 -0.10704763178E+02  0.25146846190E+02  0.00000000000E+00 0. -1.
</event>
<event>
 7    1  0.2685294E-009  0.4778727E+02  0.7816164E-02  0.1312668E+00
        -11   -1    0    0    0    0  0.00000000000E+00  0.00000000000E+00  0.45593999997E+02  0.45594000000E+02  0.51100000000E-03 0. -1.
         11   -1    0    0    0    0 -0.00000000000E+00 -0.00000000000E+00 -0.45593999997E+02  0.45594000000E+02  0.51100000000E-03 0.  1.
    9900012    2    1    2    0    0 -0.41915932393E+02  0.11246579044E+02 -0.43879063790E+00  0.47787268834E+02  0.19999989920E+02 0.  0.
        -12    1    1    2    0    0  0.41915932393E+02 -0.11246579044E+02  0.43879063790E+00  0.43400731166E+02  0.00000000000E+00 0.  1.
         11    1    3    3    0    0 -0.14991577661E+02  0.51493646481E+01  0.67379448454E+01  0.17223915294E+02  0.51100000000E-03 0. -1.
        -11    1    3    3    0    0 -0.52187596983E+01  0.52758634999E+01 -0.44979683648E+01  0.86776672055E+01  0.51100000000E-03 0.  1.
         12    1    3    3    0    0 -0.21705595034E+02  0.82135089556E+00 -0.26787671185E+01  0.21885686335E+02  0.00000000000E+00 0. -1.
</event>
<event>
 7    1  0.2685294E-009  0.4778727E+02  0.7816164E-02  0.1312668E+00
        -11   -1    0    0    0    0  0.00000000000E+00  0.00000000000E+00  0.45593999997E+02  0.45594000000E+02  0.51100000000E-03 0.  1.
         11   -1    0    0    0    0 -0.00000000000E+00 -0.00000000000E+00 -0.45593999997E+02  0.45594000000E+02  0.51100000000E-03 0. -1.
    9900012    2    1    2    0    0 -0.15732912236E+02 -0.13775569960E+02 -0.38030679280E+02  0.47787269342E+02  0.19999992236E+02 0.  0.
        -12    1    1    2    0    0  0.15732912236E+02  0.13775569960E+02  0.38030679280E+02  0.43400730658E+02  0.00000000000E+00 0.  1.
         11    1    3    3    0    0 -0.91826827608E+01 -0.50895226089E+01 -0.10110512705E+02  0.14575574448E+02  0.51100000000E-03 0. -1.
        -11    1    3    3    0    0  0.10737239556E+01 -0.10137718256E+02 -0.16799239767E+02  0.19650462376E+02  0.51100000000E-03 0.  1.
        -12    1    3    3    0    0 -0.76239534310E+01  0.14516709045E+01 -0.11120926808E+02  0.13561232518E+02  0.00000000000E+00 0.  1.
</event>
<event>
 7    1  0.2685294E-009  0.4778726E+02  0.7816164E-02  0.1312668E+00
        -11   -1    0    0    0    0  0.00000000000E+00  0.00000000000E+00  0.45593999997E+02  0.45594000000E+02  0.51100000000E-03 0.  1.
         11   -1    0    0    0    0 -0.00000000000E+00 -0.00000000000E+00 -0.45593999997E+02  0.45594000000E+02  0.51100000000E-03 0. -1.
    9900012    2    1    2    0    0 -0.15934358020E+02 -0.40188402944E+02 -0.38226546222E+01  0.47787260547E+02  0.19999952137E+02 0.  0.
        -12    1    1    2    0    0  0.15934358020E+02  0.40188402944E+02  0.38226546222E+01  0.43400739453E+02  0.00000000000E+00 0.  1.
         11    1    3    3    0    0 -0.82383346454E+01 -0.34673995245E+02  0.94741772621E+00  0.35651840129E+02  0.51100000000E-03 0. -1.
        -11    1    3    3    0    0 -0.74612345845E+01 -0.64877927786E+01 -0.50406825760E+01  0.11098196149E+02  0.51100000000E-03 0.  1.
        -12    1    3    3    0    0 -0.23478879050E+00  0.97338507947E+00  0.27061022758E+00  0.10372242691E+01  0.00000000000E+00 0.  1.
</event>
<event>
 7    1  0.2685294E-009  0.4778726E+02  0.7816164E-02  0.1312668E+00
        -11   -1    0    0    0    0  0.00000000000E+00  0.00000000000E+00  0.45593999997E+02  0.45594000000E+02  0.51100000000E-03 0.  1.
         11   -1    0    0    0    0 -0.00000000000E+00 -0.00000000000E+00 -0.45593999997E+02  0.45594000000E+02  0.51100000000E-03 0. -1.
    9900012    2    1    2    0    0  0.21060896326E+02 -0.14829080560E+02 -0.34930800858E+02  0.47787264604E+02  0.19999970636E+02 0.  0.
        -12    1    1    2    0    0 -0.21060896326E+02  0.14829080560E+02  0.34930800858E+02  0.43400735396E+02  0.00000000000E+00 0.  1.
         11    1    3    3    0    0  0.98949155507E+01 -0.93192771223E+01 -0.10591103658E+02  0.17231649857E+02  0.51100000000E-03 0.  1.
        -11    1    3    3    0    0  0.98915691657E+01  0.25279170025E+01 -0.11764509967E+02  0.15576816104E+02  0.51100000000E-03 0. -1.
        -12    1    3    3    0    0  0.12744116099E+01 -0.80377204400E+01 -0.12575187233E+02  0.14978798642E+02  0.00000000000E+00 0.  1.
</event>
<event>
 7    1  0.2685294E-009  0.4778727E+02  0.7816164E-02  0.1312668E+00
        -11   -1    0    0    0    0  0.00000000000E+00  0.00000000000E+00  0.45593999997E+02  0.45594000000E+02  0.51100000000E-03 0.  1.
         11   -1    0    0    0    0 -0.00000000000E+00 -0.00000000000E+00 -0.45593999997E+02  0.45594000000E+02  0.51100000000E-03 0. -1.
    9900012    2    1    2    0    0  0.34324143554E+02  0.17528959382E+02 -0.19955251325E+02  0.47787270707E+02  0.19999998459E+02 0.  0.
        -12    1    1    2    0    0 -0.34324143554E+02 -0.17528959382E+02  0.19955251325E+02  0.43400729293E+02  0.00000000000E+00 0.  1.
         11    1    3    3    0    0  0.78673361742E+01  0.83133703267E+01 -0.12970993643E+02  0.17298953177E+02  0.51100000000E-03 0. -1.
        -11    1    3    3    0    0  0.25068003636E+02  0.99433392464E+01 -0.85316559765E+01  0.28285401812E+02  0.51100000000E-03 0.  1.
        -12    1    3    3    0    0  0.13888037438E+01 -0.72775019131E+00  0.15473982942E+01  0.22029157180E+01  0.00000000000E+00 0.  1.
</event>
<event>
 7    1  0.2685294E-009  0.4778727E+02  0.7816164E-02  0.1312668E+00
        -11   -1    0    0    0    0  0.00000000000E+00  0.00000000000E+00  0.45593999997E+02  0.45594000000E+02  0.51100000000E-03 0. -1.
         11   -1    0    0    0    0 -0.00000000000E+00 -0.00000000000E+00 -0.45593999997E+02  0.45594000000E+02  0.51100000000E-03 0.  1.
    9900012    2    1    2    0    0 -0.16228465590E+02 -0.38128233611E+02 -0.12903413860E+02  0.47787269788E+02  0.19999994272E+02 0.  0.
        -12    1    1    2    0    0  0.16228465590E+02  0.38128233611E+02  0.12903413860E+02  0.43400730212E+02  0.00000000000E+00 0.  1.
         11    1    3    3    0    0 -0.85608511083E+00 -0.25083525642E+02 -0.11270781753E+02  0.27512663665E+02  0.51100000000E-03 0. -1.
        -11    1    3    3    0    0 -0.81317970259E+01 -0.63722195759E+01 -0.14010919010E+01  0.10425658923E+02  0.51100000000E-03 0.  1.
         12    1    3    3    0    0 -0.72405834531E+01 -0.66724883923E+01 -0.23154020604E+00  0.98489472003E+01  0.00000000000E+00 0. -1.
</event>
<event>
 7    1  0.2685294E-009  0.4778727E+02  0.7816164E-02  0.1312668E+00
        -11   -1    0    0    0    0  0.00000000000E+00  0.00000000000E+00  0.45593999997E+02  0.45594000000E+02  0.51100000000E-03 0.  1.
         11   -1    0    0    0    0 -0.00000000000E+00 -0.00000000000E+00 -0.45593999997E+02  0.45594000000E+02  0.51100000000E-03 0. -1.
    9900012    2    1    2    0    0 -0.38386948214E+02 -0.97650920977E+01 -0.17740026414E+02  0.47787270121E+02  0.19999995788E+02 0.  0.
        -12    1    1    2    0    0  0.38386948214E+02  0.97650920977E+01  0.17740026414E+02  0.43400729879E+02  0.00000000000E+00 0.  1.
         11    1    3    3    0    0 -0.77773700032E+01 -0.33223214651E+01 -0.13648924019E+02  0.16056725420E+02  0.51100000000E-03 0. -1.
        -11    1    3    3    0    0 -0.14212115090E+02 -0.13058980446E+01 -0.14490632767E+01  0.14345360563E+02  0.51100000000E-03 0.  1.
         12    1    3    3    0    0 -0.16397463121E+02 -0.51368725881E+01 -0.26420391188E+01  0.17385184137E+02  0.00000000000E+00 0. -1.
</event>
<event>
 7    1  0.2685294E-009  0.4778727E+02  0.7816164E-02  0.1312668E+00
        -11   -1    0    0    0    0  0.00000000000E+00  0.00000000000E+00  0.45593999997E+02  0.45594000000E+02  0.51100000000E-03 0. -1.
         11   -1    0    0    0    0 -0.00000000000E+00 -0.00000000000E+00 -0.45593999997E+02  0.45594000000E+02  0.51100000000E-03 0.  1.
    9900012    2    1    2    0    0  0.29680796175E+02  0.73425458370E+01  0.30801960570E+02  0.47787269408E+02  0.19999992539E+02 0.  0.
        -12    1    1    2    0    0 -0.29680796175E+02 -0.73425458370E+01 -0.30801960570E+02  0.43400730592E+02  0.00000000000E+00 0.  1.
         11    1    3    3    0    0  0.72530802633E+01 -0.14992733177E+01  0.15107399969E+02  0.16825234853E+02  0.51100000000E-03 0. -1.
        -11    1    3    3    0    0  0.66073149624E+01  0.50233713417E+01 -0.75169113752E-01  0.83003928404E+01  0.51100000000E-03 0.  1.
        -12    1    3    3    0    0  0.15820400949E+02  0.38184478130E+01  0.15769729715E+02  0.22661641714E+02  0.00000000000E+00 0.  1.
</event>
<event>
 7    1  0.2685294E-009  0.4778727E+02  0.7816164E-02  0.1312668E+00
        -11   -1    0    0    0    0  0.00000000000E+00  0.00000000000E+00  0.45593999997E+02  0.45594000000E+02  0.51100000000E-03 0.  1.
         11   -1    0    0    0    0 -0.00000000000E+00 -0.00000000000E+00 -0.45593999997E+02  0.45594000000E+02  0.51100000000E-03 0. -1.
    9900012    2    1    2    0    0  0.25884335078E+02 -0.26639469086E+02 -0.22449124352E+02  0.47787270746E+02  0.19999998637E+02 0.  0.
        -12    1    1    2    0    0 -0.25884335078E+02  0.26639469086E+02  0.22449124352E+02  0.43400729254E+02  0.00000000000E+00 0.  1.
         11    1    3    3    0    0  0.23735297248E+02 -0.24787309608E+02 -0.14286470669E+02  0.37173623680E+02  0.51100000000E-03 0. -1.
        -11    1    3    3    0    0  0.46275946378E+00  0.12621753334E+01 -0.66123702208E+01  0.67476420393E+01  0.51100000000E-03 0.  1.
        -12    1    3    3    0    0  0.16862783660E+01 -0.31143348121E+01 -0.15502834626E+01  0.38660050264E+01  0.00000000000E+00 0.  1.
</event>
<event>
 7    1  0.2685294E-009  0.4778727E+02  0.7816164E-02  0.1312668E+00
        -11   -1    0    0    0    0  0.00000000000E+00  0.00000000000E+00  0.45593999997E+02  0.45594000000E+02  0.51100000000E-03 0.  1.
         11   -1    0    0    0    0 -0.00000000000E+00 -0.00000000000E+00 -0.45593999997E+02  0.45594000000E+02  0.51100000000E-03 0. -1.
    9900012    2    1    2    0    0  0.33708593213E+02 -0.16084212980E+02 -0.22105478197E+02  0.47787270399E+02  0.19999997056E+02 0.  0.
        -12    1    1    2    0    0 -0.33708593213E+02  0.16084212980E+02  0.22105478197E+02  0.43400729601E+02  0.00000000000E+00 0.  1.
         11    1    3    3    0    0  0.11984228006E+02 -0.85144097031E+01 -0.27723174962E+01  0.14960034694E+02  0.51100000000E-03 0.  1.
        -11    1    3    3    0    0  0.15741520313E+02  0.48145421804E+00 -0.15476623947E+02  0.22080605720E+02  0.51100000000E-03 0. -1.
         12    1    3    3    0    0  0.59828448949E+01 -0.80512574951E+01 -0.38565367535E+01  0.10746629984E+02  0.00000000000E+00 0. -1.
</event>
<event>
 7    1  0.2685294E-009  0.4778727E+02  0.7816164E-02  0.1312668E+00
        -11   -1    0    0    0    0  0.00000000000E+00  0.00000000000E+00  0.45593999997E+02  0.45594000000E+02  0.51100000000E-03 0.  1.
         11   -1    0    0    0    0 -0.00000000000E+00 -0.00000000000E+00 -0.45593999997E+02  0.45594000000E+02  0.51100000000E-03 0. -1.
    9900012    2    1    2    0    0 -0.80977516035E+01 -0.42194827918E+02  0.61356523075E+01  0.47787270590E+02  0.19999997929E+02 0.  0.
        -12    1    1    2    0    0  0.80977516035E+01  0.42194827918E+02 -0.61356523075E+01  0.43400729410E+02  0.00000000000E+00 0.  1.
         11    1    3    3    0    0 -0.11671786106E+02 -0.15119075469E+02  0.45655342830E+01  0.19638256987E+02  0.51100000000E-03 0. -1.
        -11    1    3    3    0    0  0.53628561418E+01 -0.15727981845E+02  0.88407194204E+00  0.16640649698E+02  0.51100000000E-03 0.  1.
        -12    1    3    3    0    0 -0.17888216392E+01 -0.11347770604E+02  0.68604608243E+00  0.11508363904E+02  0.00000000000E+00 0.  1.
</event>
<event>
 7    1  0.2685294E-009  0.4778728E+02  0.7816164E-02  0.1312668E+00
        -11   -1    0    0    0    0  0.00000000000E+00  0.00000000000E+00  0.45593999997E+02  0.45594000000E+02  0.51100000000E-03 0. -1.
         11   -1    0    0    0    0 -0.00000000000E+00 -0.00000000000E+00 -0.45593999997E+02  0.45594000000E+02  0.51100000000E-03 0.  1.
    9900012    2    1    2    0    0  0.59813912896E+00  0.13351380813E+02  0.41291711286E+02  0.47787279258E+02  0.20000037447E+02 0.  0.
        -12    1    1    2    0    0 -0.59813912896E+00 -0.13351380813E+02 -0.41291711286E+02  0.43400720742E+02  0.00000000000E+00 0.  1.
         11    1    3    3    0    0  0.15296627082E+01  0.32023777465E+01  0.26828471017E+02  0.27062186693E+02  0.51100000000E-03 0. -1.
        -11    1    3    3    0    0  0.21842405558E+00  0.23622486024E+01 -0.15831970356E+01  0.28520940802E+01  0.51100000000E-03 0.  1.
         12    1    3    3    0    0 -0.11499476349E+01  0.77867544640E+01  0.16046437304E+02  0.17872998484E+02  0.00000000000E+00 0. -1.
</event>
<event>
 7    1  0.2685294E-009  0.4778726E+02  0.7816164E-02  0.1312668E+00
        -11   -1    0    0    0    0  0.00000000000E+00  0.00000000000E+00  0.45593999997E+02  0.45594000000E+02  0.51100000000E-03 0.  1.
         11   -1    0    0    0    0 -0.00000000000E+00 -0.00000000000E+00 -0.45593999997E+02  0.45594000000E+02  0.51100000000E-03 0. -1.
    9900012    2    1    2    0    0 -0.20391498518E+02 -0.38220227203E+02  0.26505163704E+01  0.47787260187E+02  0.19999950497E+02 0.  0.
        -12    1    1    2    0    0  0.20391498518E+02  0.38220227203E+02 -0.26505163704E+01  0.43400739813E+02  0.00000000000E+00 0.  1.
         11    1    3    3    0    0 -0.12416575585E+02 -0.10006468228E+02  0.40806529062E+01  0.16460634376E+02  0.51100000000E-03 0. -1.
        -11    1    3    3    0    0  0.27590830359E+01 -0.67744256127E+01 -0.15365949774E+00  0.73163510771E+01  0.51100000000E-03 0.  1.
        -12    1    3    3    0    0 -0.10734005968E+02 -0.21439333363E+02 -0.12764770380E+01  0.24010274734E+02  0.00000000000E+00 0.  1.
</event>
<event>
 7    1  0.2685294E-009  0.4778727E+02  0.7816164E-02  0.1312668E+00
        -11   -1    0    0    0    0  0.00000000000E+00  0.00000000000E+00  0.45593999997E+02  0.45594000000E+02  0.51100000000E-03 0. -1.
         11   -1    0    0    0    0 -0.00000000000E+00 -0.00000000000E+00 -0.45593999997E+02  0.45594000000E+02  0.51100000000E-03 0.  1.
    9900012    2    1    2    0    0  0.10661558789E+01  0.30314786132E+02  0.31040300665E+02  0.47787271758E+02  0.20000003252E+02 0.  0.
        -12    1    1    2    0    0 -0.10661558789E+01 -0.30314786132E+02 -0.31040300665E+02  0.43400728242E+02  0.00000000000E+00 0.  1.
         11    1    3    3    0    0  0.29607594310E+01  0.10428310710E+02  0.18167899698E+01  0.10991655322E+02  0.51100000000E-03 0. -1.
        -11    1    3    3    0    0 -0.27424813482E+01  0.96132453754E+00  0.16510456100E+01  0.33423495746E+01  0.51100000000E-03 0.  1.
         12    1    3    3    0    0  0.84787779616E+00  0.18925150884E+02  0.27572465086E+02  0.33453266861E+02  0.00000000000E+00 0. -1.
</event>
<event>
 7    1  0.2685294E-009  0.4778727E+02  0.7816164E-02  0.1312668E+00
        -11   -1    0    0    0    0  0.00000000000E+00  0.00000000000E+00  0.45593999997E+02  0.45594000000E+02  0.51100000000E-03 0. -1.
         11   -1    0    0    0    0 -0.00000000000E+00 -0.00000000000E+00 -0.45593999997E+02  0.45594000000E+02  0.51100000000E-03 0.  1.
    9900012    2    1    2    0    0  0.64181820045E+01  0.22377517305E+02  0.36628904287E+02  0.47787274543E+02  0.20000015951E+02 0.  0.
        -12    1    1    2    0    0 -0.64181820045E+01 -0.22377517305E+02 -0.36628904287E+02  0.43400725457E+02  0.00000000000E+00 0.  1.
         11    1    3    3    0    0  0.84295290284E+01  0.30085586027E+01  0.20840499855E+02  0.22681155591E+02  0.51100000000E-03 0. -1.
        -11    1    3    3    0    0 -0.12105430640E+01  0.81404430645E+01  0.73966128017E+01  0.11065356253E+02  0.51100000000E-03 0.  1.
         12    1    3    3    0    0 -0.80080395980E+00  0.11228515638E+02  0.83917916302E+01  0.14040762699E+02  0.00000000000E+00 0. -1.
</event>
<event>
 7    1  0.2685294E-009  0.4778727E+02  0.7816164E-02  0.1312668E+00
        -11   -1    0    0    0    0  0.00000000000E+00  0.00000000000E+00  0.45593999997E+02  0.45594000000E+02  0.51100000000E-03 0.  1.
         11   -1    0    0    0    0 -0.00000000000E+00 -0.00000000000E+00 -0.45593999997E+02  0.45594000000E+02  0.51100000000E-03 0. -1.
    9900012    2    1    2    0    0  0.27083187914E+02 -0.10783826372E+02 -0.32153280890E+02  0.47787269006E+02  0.19999990705E+02 0.  0.
        -12    1    1    2    0    0 -0.27083187914E+02  0.10783826372E+02  0.32153280890E+02  0.43400730994E+02  0.00000000000E+00 0.  1.
         11    1    3    3    0    0  0.11319431701E+00 -0.18588185645E+01 -0.40501848923E+01  0.44578040931E+01  0.51100000000E-03 0. -1.
        -11    1    3    3    0    0  0.13248332715E+02  0.42909903965E+01 -0.12136910407E+02  0.18472561078E+02  0.51100000000E-03 0.  1.
        -12    1    3    3    0    0  0.13721660883E+02 -0.13215998204E+02 -0.15966185591E+02  0.24856903834E+02  0.00000000000E+00 0.  1.
</event>
<event>
 7    1  0.2685294E-009  0.4778727E+02  0.7816164E-02  0.1312668E+00
        -11   -1    0    0    0    0  0.00000000000E+00  0.00000000000E+00  0.45593999997E+02  0.45594000000E+02  0.51100000000E-03 0.  1.
         11   -1    0    0    0    0 -0.00000000000E+00 -0.00000000000E+00 -0.45593999997E+02  0.45594000000E+02  0.51100000000E-03 0. -1.
    9900012    2    1    2    0    0  0.30918821897E+02 -0.67267445606E+01 -0.29705228597E+02  0.47787271367E+02  0.20000001469E+02 0.  0.
        -12    1    1    2    0    0 -0.30918821897E+02  0.67267445606E+01  0.29705228597E+02  0.43400728633E+02  0.00000000000E+00 0.  1.
         11    1    3    3    0    0  0.82478779384E+01  0.42360534407E+00 -0.49875642271E+01  0.96479391144E+01  0.51100000000E-03 0. -1.
        -11    1    3    3    0    0  0.18029169322E+02 -0.12167434122E+02 -0.15705059658E+02  0.26828087869E+02  0.51100000000E-03 0.  1.
        -12    1    3    3    0    0  0.46417746370E+01  0.50170842172E+01 -0.90126047116E+01  0.11311244384E+02  0.00000000000E+00 0.  1.
</event>
<event>
 7    1  0.2685294E-009  0.4778728E+02  0.7816164E-02  0.1312668E+00
        -11   -1    0    0    0    0  0.00000000000E+00  0.00000000000E+00  0.45593999997E+02  0.45594000000E+02  0.51100000000E-03 0.  1.
         11   -1    0    0    0    0 -0.00000000000E+00 -0.00000000000E+00 -0.45593999997E+02  0.45594000000E+02  0.51100000000E-03 0. -1.
    9900012    2    1    2    0    0 -0.36210115402E+02  0.10361268275E+02 -0.21566041597E+02  0.47787280100E+02  0.20000041286E+02 0.  0.
        -12    1    1    2    0    0  0.36210115402E+02 -0.10361268275E+02  0.21566041597E+02  0.43400719900E+02  0.00000000000E+00 0.  1.
         11    1    3    3    0    0 -0.18216272692E+02  0.21014444861E+01 -0.42869575728E+00  0.18342094756E+02  0.51100000000E-03 0.  1.
        -11    1    3    3    0    0 -0.12603721060E+02  0.43858724257E+01 -0.17043293751E+02  0.21646328179E+02  0.51100000000E-03 0. -1.
         12    1    3    3    0    0 -0.53901216508E+01  0.38739513633E+01 -0.40940520886E+01  0.77988571650E+01  0.00000000000E+00 0. -1.
</event>
<event>
 7    1  0.2685294E-009  0.4778727E+02  0.7816164E-02  0.1312668E+00
        -11   -1    0    0    0    0  0.00000000000E+00  0.00000000000E+00  0.45593999997E+02  0.45594000000E+02  0.51100000000E-03 0.  1.
         11   -1    0    0    0    0 -0.00000000000E+00 -0.00000000000E+00 -0.45593999997E+02  0.45594000000E+02  0.51100000000E-03 0. -1.
    9900012    2    1    2    0    0 -0.26611305071E+01  0.26683322295E+02 -0.34125385801E+02  0.47787271200E+02  0.20000000710E+02 0.  0.
        -12    1    1    2    0    0  0.26611305071E+01 -0.26683322295E+02  0.34125385801E+02  0.43400728800E+02  0.00000000000E+00 0.  1.
         11    1    3    3    0    0  0.29642464674E+01  0.16199891722E+02 -0.10089291787E+02  0.19313649525E+02  0.51100000000E-03 0. -1.
        -11    1    3    3    0    0 -0.30947457364E+01  0.55768559563E+01 -0.36400581069E+01  0.73436228670E+01  0.51100000000E-03 0.  1.
         12    1    3    3    0    0 -0.25306312381E+01  0.49065746170E+01 -0.20396035907E+02  0.21129998808E+02  0.00000000000E+00 0. -1.
</event>
<event>
 7    1  0.2685294E-009  0.4778727E+02  0.7816164E-02  0.1312668E+00
        -11   -1    0    0    0    0  0.00000000000E+00  0.00000000000E+00  0.45593999997E+02  0.45594000000E+02  0.51100000000E-03 0.  1.
         11   -1    0    0    0    0 -0.00000000000E+00 -0.00000000000E+00 -0.45593999997E+02  0.45594000000E+02  0.51100000000E-03 0. -1.
    9900012    2    1    2    0    0 -0.13777683463E+02  0.16684157998E+02 -0.37622300438E+02  0.47787272127E+02  0.20000004934E+02 0.  0.
        -12    1    1    2    0    0  0.13777683463E+02 -0.16684157998E+02  0.37622300438E+02  0.43400727873E+02  0.00000000000E+00 0.  1.
         11    1    3    3    0    0 -0.32763117723E-01  0.45717462542E+01 -0.14387582840E+02  0.15096505472E+02  0.51100000000E-03 0. -1.
        -11    1    3    3    0    0 -0.87630544616E+01  0.82398517495E+01 -0.43684417609E+01  0.12797248299E+02  0.51100000000E-03 0.  1.
        -12    1    3    3    0    0 -0.49818658835E+01  0.38725599939E+01 -0.18866275837E+02  0.19893518355E+02  0.00000000000E+00 0.  1.
</event>
<event>
 7    1  0.2685294E-009  0.4778727E+02  0.7816164E-02  0.1312668E+00
        -11   -1    0    0    0    0  0.00000000000E+00  0.00000000000E+00  0.45593999997E+02  0.45594000000E+02  0.51100000000E-03 0. -1.
         11   -1    0    0    0    0 -0.00000000000E+00 -0.00000000000E+00 -0.45593999997E+02  0.45594000000E+02  0.51100000000E-03 0.  1.
    9900012    2    1    2    0    0 -0.21869749787E+02  0.27167515752E+02  0.25831445301E+02  0.47787269198E+02  0.19999991580E+02 0.  0.
        -12    1    1    2    0    0  0.21869749787E+02 -0.27167515752E+02 -0.25831445301E+02  0.43400730802E+02  0.00000000000E+00 0.  1.
         11    1    3    3    0    0 -0.77290341049E+01  0.25228226911E+01  0.91100622461E+01  0.12210480618E+02  0.51100000000E-03 0. -1.
        -11    1    3    3    0    0 -0.52732011233E+01  0.18383226234E+02  0.53564602055E+01  0.19860546897E+02  0.51100000000E-03 0.  1.
        -12    1    3    3    0    0 -0.88675145586E+01  0.62614668267E+01  0.11364922849E+02  0.15716241683E+02  0.00000000000E+00 0.  1.
</event>
<event>
 7    1  0.2685294E-009  0.4778727E+02  0.7816164E-02  0.1312668E+00
        -11   -1    0    0    0    0  0.00000000000E+00  0.00000000000E+00  0.45593999997E+02  0.45594000000E+02  0.51100000000E-03 0. -1.
         11   -1    0    0    0    0 -0.00000000000E+00 -0.00000000000E+00 -0.45593999997E+02  0.45594000000E+02  0.51100000000E-03 0.  1.
    9900012    2    1    2    0    0 -0.26538463617E+02  0.29222153358E+02  0.18038820352E+02  0.47787270308E+02  0.19999996644E+02 0.  0.
        -12    1    1    2    0    0  0.26538463617E+02 -0.29222153358E+02 -0.18038820352E+02  0.43400729692E+02  0.00000000000E+00 0.  1.
         11    1    3    3    0    0 -0.14805476551E+02  0.18652914316E+02  0.15542023560E+02  0.28437437384E+02  0.51100000000E-03 0. -1.
        -11    1    3    3    0    0  0.40836788831E+00  0.51208945388E+01 -0.16752448888E+01  0.54034036410E+01  0.51100000000E-03 0.  1.
         12    1    3    3    0    0 -0.12141354955E+02  0.54483445039E+01  0.41720416809E+01  0.13946429283E+02  0.00000000000E+00 0. -1.
</event>
<event>
 7    1  0.2685294E-009  0.4778727E+02  0.7816164E-02  0.1312668E+00
        -11   -1    0    0    0    0  0.00000000000E+00  0.00000000000E+00  0.45593999997E+02  0.45594000000E+02  0.51100000000E-03 0.  1.
         11   -1    0    0    0    0 -0.00000000000E+00 -0.00000000000E+00 -0.45593999997E+02  0.45594000000E+02  0.51100000000E-03 0. -1.
    9900012    2    1    2    0    0  0.17065185392E+02  0.31255233823E+02 -0.24809536698E+02  0.47787270686E+02  0.19999998367E+02 0.  0.
        -12    1    1    2    0    0 -0.17065185392E+02 -0.31255233823E+02  0.24809536698E+02  0.43400729314E+02  0.00000000000E+00 0.  1.
         11    1    3    3    0    0  0.35500737463E+01  0.18474739108E+01 -0.11464784834E+02  0.12143206949E+02  0.51100000000E-03 0. -1.
        -11    1    3    3    0    0 -0.13373065232E+00 -0.10115074207E+00  0.33202704579E+00  0.37196448789E+00  0.51100000000E-03 0.  1.
         12    1    3    3    0    0  0.13648842298E+02  0.29508910654E+02 -0.13676778909E+02  0.35272099249E+02  0.00000000000E+00 0. -1.
</event>
<event>
 7    1  0.2685294E-009  0.4778722E+02  0.7816164E-02  0.1312668E+00
        -11   -1    0    0    0    0  0.00000000000E+00  0.00000000000E+00  0.45593999997E+02  0.45594000000E+02  0.51100000000E-03 0. -1.
         11   -1    0    0    0    0 -0.00000000000E+00 -0.00000000000E+00 -0.45593999997E+02  0.45594000000E+02  0.51100000000E-03 0.  1.
    9900012    2    1    2    0    0 -0.23586558002E+02 -0.18529754635E+02  0.31367985272E+02  0.47787216306E+02  0.19999750424E+02 0.  0.
        -12    1    1    2    0    0  0.23586558002E+02  0.18529754635E+02 -0.31367985272E+02  0.43400783694E+02  0.00000000000E+00 0.  1.
         11    1    3    3    0    0 -0.81667627751E+01 -0.15967662663E+02  0.14325022717E+02  0.22953617171E+02  0.51100000000E-03 0. -1.
        -11    1    3    3    0    0 -0.10791651936E+02 -0.88107857507E-01  0.54108694518E+01  0.12072490339E+02  0.51100000000E-03 0.  1.
         12    1    3    3    0    0 -0.46281432906E+01 -0.24739841144E+01  0.11632093104E+02  0.12761108796E+02  0.00000000000E+00 0. -1.
</event>
<event>
 7    1  0.2685294E-009  0.4778727E+02  0.7816164E-02  0.1312668E+00
        -11   -1    0    0    0    0  0.00000000000E+00  0.00000000000E+00  0.45593999997E+02  0.45594000000E+02  0.51100000000E-03 0. -1.
         11   -1    0    0    0    0 -0.00000000000E+00 -0.00000000000E+00 -0.45593999997E+02  0.45594000000E+02  0.51100000000E-03 0.  1.
    9900012    2    1    2    0    0 -0.20123369615E+02  0.38443413355E+02 -0.88161031336E+00  0.47787271068E+02  0.20000000108E+02 0.  0.
        -12    1    1    2    0    0  0.20123369615E+02 -0.38443413355E+02  0.88161031336E+00  0.43400728932E+02  0.00000000000E+00 0.  1.
         11    1    3    3    0    0 -0.70130182046E+01  0.18703600845E+02 -0.45409992114E+00  0.19980323218E+02  0.51100000000E-03 0. -1.
        -11    1    3    3    0    0 -0.86490735223E+01  0.62740969771E+01  0.59764581717E+01  0.12242908895E+02  0.51100000000E-03 0.  1.
        -12    1    3    3    0    0 -0.44612778880E+01  0.13465715534E+02 -0.64039685639E+01  0.15564038955E+02  0.00000000000E+00 0.  1.
</event>
<event>
 7    1  0.2685294E-009  0.4778727E+02  0.7816164E-02  0.1312668E+00
        -11   -1    0    0    0    0  0.00000000000E+00  0.00000000000E+00  0.45593999997E+02  0.45594000000E+02  0.51100000000E-03 0. -1.
         11   -1    0    0    0    0 -0.00000000000E+00 -0.00000000000E+00 -0.45593999997E+02  0.45594000000E+02  0.51100000000E-03 0.  1.
    9900012    2    1    2    0    0  0.43120738054E+02  0.63282816659E+00 -0.48810590242E+01  0.47787271215E+02  0.20000000779E+02 0.  0.
        -12    1    1    2    0    0 -0.43120738054E+02 -0.63282816659E+00  0.48810590242E+01  0.43400728785E+02  0.00000000000E+00 0.  1.
         11    1    3    3    0    0  0.83863466384E+01 -0.16137907215E+01 -0.41738105517E+01  0.95055681164E+01  0.51100000000E-03 0. -1.
        -11    1    3    3    0    0  0.92548141092E-04 -0.14856426997E+01  0.28021601375E+01  0.31716298550E+01  0.51100000000E-03 0.  1.
        -12    1    3    3    0    0  0.34734298868E+02  0.37322615877E+01 -0.35094086100E+01  0.35110073244E+02  0.00000000000E+00 0.  1.
</event>
<event>
 7    1  0.2685294E-009  0.4778727E+02  0.7816164E-02  0.1312668E+00
        -11   -1    0    0    0    0  0.00000000000E+00  0.00000000000E+00  0.45593999997E+02  0.45594000000E+02  0.51100000000E-03 0.  1.
         11   -1    0    0    0    0 -0.00000000000E+00 -0.00000000000E+00 -0.45593999997E+02  0.45594000000E+02  0.51100000000E-03 0. -1.
    9900012    2    1    2    0    0  0.15721471302E+01 -0.15023070234E+02 -0.40687332272E+02  0.47787270821E+02  0.19999998982E+02 0.  0.
        -12    1    1    2    0    0 -0.15721471302E+01  0.15023070234E+02  0.40687332272E+02  0.43400729179E+02  0.00000000000E+00 0.  1.
         11    1    3    3    0    0 -0.61182305807E+01 -0.15419637663E+02 -0.28568747194E+02  0.33035909062E+02  0.51100000000E-03 0. -1.
        -11    1    3    3    0    0  0.32459005918E+01  0.11368528826E+01 -0.29323133652E+01  0.45195981084E+01  0.51100000000E-03 0.  1.
         12    1    3    3    0    0  0.44444771191E+01 -0.74028545360E+00 -0.91862717130E+01  0.10231763651E+02  0.00000000000E+00 0. -1.
</event>
<event>
 7    1  0.2685294E-009  0.4778727E+02  0.7816164E-02  0.1312668E+00
        -11   -1    0    0    0    0  0.00000000000E+00  0.00000000000E+00  0.45593999997E+02  0.45594000000E+02  0.51100000000E-03 0. -1.
         11   -1    0    0    0    0 -0.00000000000E+00 -0.00000000000E+00 -0.45593999997E+02  0.45594000000E+02  0.51100000000E-03 0.  1.
    9900012    2    1    2    0    0  0.24149496472E+02  0.35248245572E+02  0.76148754634E+01  0.47787270466E+02  0.19999997363E+02 0.  0.
        -12    1    1    2    0    0 -0.24149496472E+02 -0.35248245572E+02 -0.76148754634E+01  0.43400729534E+02  0.00000000000E+00 0.  1.
         11    1    3    3    0    0  0.85690966941E+01  0.22297273186E+02  0.12409051622E+02  0.26918067763E+02  0.51100000000E-03 0. -1.
        -11    1    3    3    0    0  0.77108342341E+01  0.62579816686E+01 -0.30779416531E+01  0.10396779513E+02  0.51100000000E-03 0.  1.
         12    1    3    3    0    0  0.78695655440E+01  0.66929907177E+01 -0.17162345060E+01  0.10472423190E+02  0.00000000000E+00 0. -1.
</event>
<event>
 7    1  0.2685294E-009  0.4778726E+02  0.7816164E-02  0.1312668E+00
        -11   -1    0    0    0    0  0.00000000000E+00  0.00000000000E+00  0.45593999997E+02  0.45594000000E+02  0.51100000000E-03 0.  1.
         11   -1    0    0    0    0 -0.00000000000E+00 -0.00000000000E+00 -0.45593999997E+02  0.45594000000E+02  0.51100000000E-03 0. -1.
    9900012    2    1    2    0    0  0.39421835559E+02  0.87133570628E+01 -0.15925458676E+02  0.47787263323E+02  0.19999964793E+02 0.  0.
        -12    1    1    2    0    0 -0.39421835559E+02 -0.87133570628E+01  0.15925458676E+02  0.43400736677E+02  0.00000000000E+00 0.  1.
         11    1    3    3    0    0  0.15583607702E+02  0.93444501915E+01 -0.12763508008E+02  0.22205285752E+02  0.51100000000E-03 0. -1.
        -11    1    3    3    0    0  0.14098904078E+00  0.12246986520E+01 -0.12177198064E+01  0.17328030719E+01  0.51100000000E-03 0.  1.
         12    1    3    3    0    0  0.23697238816E+02 -0.18557917806E+01 -0.19442308607E+01  0.23849174498E+02  0.00000000000E+00 0. -1.
</event>
<event>
 7    1  0.2685294E-009  0.4778727E+02  0.7816164E-02  0.1312668E+00
        -11   -1    0    0    0    0  0.00000000000E+00  0.00000000000E+00  0.45593999997E+02  0.45594000000E+02  0.51100000000E-03 0. -1.
         11   -1    0    0    0    0 -0.00000000000E+00 -0.00000000000E+00 -0.45593999997E+02  0.45594000000E+02  0.51100000000E-03 0.  1.
    9900012    2    1    2    0    0  0.20991592506E+02 -0.27185656053E+02  0.26531422051E+02  0.47787271815E+02  0.20000003511E+02 0.  0.
        -12    1    1    2    0    0 -0.20991592506E+02  0.27185656053E+02 -0.26531422051E+02  0.43400728185E+02  0.00000000000E+00 0.  1.
         11    1    3    3    0    0  0.13703443565E+02 -0.22342949152E+02  0.14249969400E+02  0.29833762259E+02  0.51100000000E-03 0. -1.
        -11    1    3    3    0    0  0.95615756068E+01 -0.30537572703E+01  0.10640192038E+02  0.14627468968E+02  0.51100000000E-03 0.  1.
         12    1    3    3    0    0 -0.22734266664E+01 -0.17889496307E+01  0.16412606140E+01  0.33260405878E+01  0.00000000000E+00 0. -1.
</event>
<event>
 7    1  0.2685294E-009  0.4778727E+02  0.7816164E-02  0.1312668E+00
        -11   -1    0    0    0    0  0.00000000000E+00  0.00000000000E+00  0.45593999997E+02  0.45594000000E+02  0.51100000000E-03 0.  1.
         11   -1    0    0    0    0 -0.00000000000E+00 -0.00000000000E+00 -0.45593999997E+02  0.45594000000E+02  0.51100000000E-03 0. -1.
    9900012    2    1    2    0    0  0.10341560610E+02 -0.42080026213E+02 -0.24386592154E+01  0.47787267970E+02  0.19999985982E+02 0.  0.
        -12    1    1    2    0    0 -0.10341560610E+02  0.42080026213E+02  0.24386592154E+01  0.43400732030E+02  0.00000000000E+00 0.  1.
         11    1    3    3    0    0  0.12195002890E+02 -0.18974480490E+02  0.28446023130E+01  0.22734132223E+02  0.51100000000E-03 0. -1.
        -11    1    3    3    0    0  0.84094682319E+00 -0.31870323167E+01  0.17827925250E+01  0.37473612043E+01  0.51100000000E-03 0.  1.
         12    1    3    3    0    0 -0.26943891029E+01 -0.19918513406E+02 -0.70660540534E+01  0.21305774542E+02  0.00000000000E+00 0. -1.
</event>
<event>
 7    1  0.2685294E-009  0.4778727E+02  0.7816164E-02  0.1312668E+00
        -11   -1    0    0    0    0  0.00000000000E+00  0.00000000000E+00  0.45593999997E+02  0.45594000000E+02  0.51100000000E-03 0.  1.
         11   -1    0    0    0    0 -0.00000000000E+00 -0.00000000000E+00 -0.45593999997E+02  0.45594000000E+02  0.51100000000E-03 0. -1.
    9900012    2    1    2    0    0 -0.21675561072E+02  0.15496387460E+02 -0.34258657374E+02  0.47787267550E+02  0.19999984069E+02 0.  0.
        -12    1    1    2    0    0  0.21675561072E+02 -0.15496387460E+02  0.34258657374E+02  0.43400732450E+02  0.00000000000E+00 0.  1.
         11    1    3    3    0    0 -0.16288780677E+02  0.82791864254E+01 -0.11777395107E+02  0.21738821026E+02  0.51100000000E-03 0. -1.
        -11    1    3    3    0    0 -0.36214909826E+01  0.83879886721E+01 -0.22075818928E+02  0.23891741931E+02  0.51100000000E-03 0.  1.
        -12    1    3    3    0    0 -0.17652894127E+01 -0.11707876380E+01 -0.40544333910E+00  0.21567045938E+01  0.00000000000E+00 0.  1.
</event>
<event>
 7    1  0.2685294E-009  0.4778727E+02  0.7816164E-02  0.1312668E+00
        -11   -1    0    0    0    0  0.00000000000E+00  0.00000000000E+00  0.45593999997E+02  0.45594000000E+02  0.51100000000E-03 0.  1.
         11   -1    0    0    0    0 -0.00000000000E+00 -0.00000000000E+00 -0.45593999997E+02  0.45594000000E+02  0.51100000000E-03 0. -1.
    9900012    2    1    2    0    0 -0.19941815766E+02  0.36217947678E+02  0.13198780530E+02  0.47787267776E+02  0.19999985099E+02 0.  0.
        -12    1    1    2    0    0  0.19941815766E+02 -0.36217947678E+02 -0.13198780530E+02  0.43400732224E+02  0.00000000000E+00 0.  1.
         11    1    3    3    0    0 -0.15142543186E+02  0.16814923539E+02  0.51215563135E+01  0.23200616524E+02  0.51100000000E-03 0. -1.
        -11    1    3    3    0    0  0.36327583217E+01  0.48259892438E+01  0.40474496774E+01  0.72711040673E+01  0.51100000000E-03 0.  1.
        -12    1    3    3    0    0 -0.84320309022E+01  0.14577034895E+02  0.40297745394E+01  0.17315547185E+02  0.00000000000E+00 0.  1.
</event>
<event>
 7    1  0.2685294E-009  0.4778727E+02  0.7816164E-02  0.1312668E+00
        -11   -1    0    0    0    0  0.00000000000E+00  0.00000000000E+00  0.45593999997E+02  0.45594000000E+02  0.51100000000E-03 0.  1.
         11   -1    0    0    0    0 -0.00000000000E+00 -0.00000000000E+00 -0.45593999997E+02  0.45594000000E+02  0.51100000000E-03 0. -1.
    9900012    2    1    2    0    0 -0.17699783815E+02  0.34649026204E+02 -0.19229819535E+02  0.47787270474E+02  0.19999997401E+02 0.  0.
        -12    1    1    2    0    0  0.17699783815E+02 -0.34649026204E+02  0.19229819535E+02  0.43400729526E+02  0.00000000000E+00 0.  1.
         11    1    3    3    0    0 -0.87730088177E+01  0.13660370130E+02 -0.18946575125E+02  0.24950833754E+02  0.51100000000E-03 0. -1.
        -11    1    3    3    0    0 -0.47230337068E+01  0.11802784529E+02 -0.63145713817E+00  0.12728374146E+02  0.51100000000E-03 0.  1.
         12    1    3    3    0    0 -0.42037412906E+01  0.91858715458E+01  0.34821272823E+00  0.10108062574E+02  0.00000000000E+00 0. -1.
</event>
